<event>
 6    1  0.6762454E-003  0.6448480E+03  0.7818608E-02  0.9816495E-01
          1   -1    0    0  502    0  0.00000000000E+00  0.00000000000E+00  0.10395892744E+03  0.10395892744E+03  0.00000000000E+00 0.  1.
         13   -1    0    0    0    0 -0.00000000000E+00 -0.00000000000E+00 -0.10000000000E+04  0.10000000000E+04  0.00000000000E+00 0.  1.
    9000005    2    1    2  501    0  0.30628266182E-03  0.26152563581E-03 -0.89604273530E+03  0.11039572166E+04  0.64484800739E+03 0.  0.
         13    1    3    3    0    0  0.29609606884E+03  0.11790001728E+03 -0.53161152872E+03  0.61982587355E+03  0.00000000000E+00 0.  1.
          1    1    3    3  501    0 -0.29609576256E+03 -0.11789975575E+03 -0.36443120658E+03  0.48413134307E+03  0.00000000000E+00 0.  1.
         21    1    1    2  502  501 -0.30628266182E-03 -0.26152563581E-03  0.16627416137E-02  0.17108227264E-02  0.00000000000E+00 0.  1.
<mgrwt>
<rscale>  1 0.64484801E+03</rscale>
<asrwt>0</asrwt>
<pdfrwt beam="1">  1        1 0.37803326E+00 0.64484801E+03</pdfrwt>
<pdfrwt beam="2">0</pdfrwt>
<totfact> 0.16756604E+00</totfact>
</mgrwt>
</event>
<event>
 6    1  0.6762454E-003  0.6453894E+03  0.7818608E-02  0.9815469E-01
          1   -1    0    0  502    0  0.00000000000E+00  0.00000000000E+00  0.10585846494E+03  0.10585846494E+03  0.00000000000E+00 0.  1.
         13   -1    0    0    0    0 -0.00000000000E+00 -0.00000000000E+00 -0.10000000000E+04  0.10000000000E+04  0.00000000000E+00 0.  1.
    9000005    2    1    2  501    0 -0.40377630130E+00  0.44641443761E+00 -0.89581002371E+03  0.11040847188E+04  0.64538911154E+03 0.  0.
         13    1    3    3    0    0 -0.25765928754E+03 -0.17397377818E+03 -0.29977968097E+03  0.43188313358E+03  0.00000000000E+00 0.  1.
          1    1    3    3  501    0  0.25725551124E+03  0.17442019261E+03 -0.59603034274E+03  0.67220158518E+03  0.00000000000E+00 0.  1.
         21    1    1    2  502  501  0.40377630130E+00 -0.44641443761E+00  0.16684886489E+01  0.17737461834E+01  0.00000000000E+00 0.  1.
<mgrwt>
<rscale>  1 0.64538939E+03</rscale>
<asrwt>0</asrwt>
<pdfrwt beam="1">  1        1 0.38494068E+00 0.64538939E+03</pdfrwt>
<pdfrwt beam="2">0</pdfrwt>
<totfact> 0.15618728E+00</totfact>
</mgrwt>
</event>
<event>
 6    1  0.6762454E-003  0.6319448E+03  0.7818608E-02  0.9841261E-01
          3   -1    0    0  502    0  0.00000000000E+00  0.00000000000E+00  0.99838610277E+02  0.99838610277E+02  0.00000000000E+00 0.  1.
         13   -1    0    0    0    0 -0.00000000000E+00 -0.00000000000E+00 -0.10000000000E+04  0.10000000000E+04  0.00000000000E+00 0.  1.
    9000005    2    1    2  501    0 -0.15045415807E-04  0.15074539430E-04 -0.90016142934E+03  0.10998385653E+04  0.63194483212E+03 0.  0.
         13    1    3    3    0    0  0.31234797185E+03  0.30074808483E+02 -0.38559616569E+03  0.49714198436E+03  0.00000000000E+00 0.  1.
          1    1    3    3  501    0 -0.31234798689E+03 -0.30074793408E+02 -0.51456526365E+03  0.60269658094E+03  0.00000000000E+00 0.  1.
         21    1    1    2  502  501  0.15045415792E-04 -0.15074539430E-04  0.39617945236E-04  0.44979860606E-04  0.00000000000E+00 0. -1.
<mgrwt>
<rscale>  1 0.63194483E+03</rscale>
<asrwt>0</asrwt>
<pdfrwt beam="1">  1        3 0.36305026E+00 0.63194483E+03</pdfrwt>
<pdfrwt beam="2">0</pdfrwt>
<totfact> 0.93082408E-02</totfact>
</mgrwt>
</event>
<event>
 6    1  0.6762454E-003  0.6512786E+03  0.7818608E-02  0.9804383E-01
          1   -1    0    0  502    0  0.00000000000E+00  0.00000000000E+00  0.10604097751E+03  0.10604097751E+03  0.00000000000E+00 0.  1.
         13   -1    0    0    0    0 -0.00000000000E+00 -0.00000000000E+00 -0.10000000000E+04  0.10000000000E+04  0.00000000000E+00 0.  1.
    9000005    2    1    2  501    0  0.76789459911E-05  0.58324911834E-05 -0.89395904096E+03  0.11060409567E+04  0.65127861237E+03 0.  0.
         13    1    3    3    0    0  0.59186179634E+02 -0.20270620571E+03 -0.26002111338E+02  0.21276493952E+03  0.00000000000E+00 0.  1.
          3    1    3    3  501    0 -0.59186171956E+02  0.20270621155E+03 -0.86795692962E+03  0.89327601716E+03  0.00000000000E+00 0.  1.
         21    1    1    2  502  501 -0.76789459869E-05 -0.58324911847E-05  0.18473077532E-04  0.20838396252E-04  0.00000000000E+00 0.  1.
<mgrwt>
<rscale>  1 0.65127861E+03</rscale>
<asrwt>0</asrwt>
<pdfrwt beam="1">  1        1 0.38560437E+00 0.65127861E+03</pdfrwt>
<pdfrwt beam="2">0</pdfrwt>
<totfact> 0.15496585E+00</totfact>
</mgrwt>
</event>
<event>
 6    1  0.6762454E-003  0.6638182E+03  0.7818608E-02  0.9781190E-01
          1   -1    0    0  502    0  0.00000000000E+00  0.00000000000E+00  0.11917974988E+03  0.11917974988E+03  0.00000000000E+00 0.  1.
         13   -1    0    0    0    0 -0.00000000000E+00 -0.00000000000E+00 -0.10000000000E+04  0.10000000000E+04  0.00000000000E+00 0.  1.
    9000005    2    1    2  501    0  0.18331955493E+00  0.83824120754E-01 -0.88983508373E+03  0.11101626629E+04  0.66381821400E+03 0.  0.
         13    1    3    3    0    0  0.20892373247E+03  0.20774516493E+03 -0.70092301490E+03  0.76032904216E+03  0.00000000000E+00 0.  1.
          3    1    3    3  501    0 -0.20874041291E+03 -0.20766134081E+03 -0.18891206883E+03  0.34983362074E+03  0.00000000000E+00 0.  1.
         21    1    1    2  502  501 -0.18331955493E+00 -0.83824120754E-01  0.90148336057E+01  0.90170869731E+01  0.00000000000E+00 0. -1.
<mgrwt>
<rscale>  1 0.66381824E+03</rscale>
<asrwt>0</asrwt>
<pdfrwt beam="1">  1        1 0.43338182E+00 0.66381824E+03</pdfrwt>
<pdfrwt beam="2">0</pdfrwt>
<totfact> 0.94392401E-01</totfact>
</mgrwt>
</event>
<event>
 6    1  0.6762454E-003  0.6573468E+03  0.7818608E-02  0.9793090E-01
          1   -1    0    0  502    0  0.00000000000E+00  0.00000000000E+00  0.10853724057E+03  0.10853724057E+03  0.00000000000E+00 0.  1.
         13   -1    0    0    0    0 -0.00000000000E+00 -0.00000000000E+00 -0.10000000000E+04  0.10000000000E+04  0.00000000000E+00 0.  1.
    9000005    2    1    2  501    0 -0.23818625388E-01 -0.12406733894E-01 -0.89197339132E+03  0.11080259029E+04  0.65734684148E+03 0.  0.
         13    1    3    3    0    0 -0.24035168555E+03  0.20939841209E+03 -0.58097530321E+03  0.66268312991E+03  0.00000000000E+00 0.  1.
          3    1    3    3  501    0  0.24032786693E+03 -0.20941081883E+03 -0.31099808812E+03  0.44534277302E+03  0.00000000000E+00 0.  1.
         21    1    1    2  502  501  0.23818625388E-01  0.12406733894E-01  0.51063189525E+00  0.51133764424E+00  0.00000000000E+00 0.  1.
<mgrwt>
<rscale>  1 0.65734684E+03</rscale>
<asrwt>0</asrwt>
<pdfrwt beam="1">  1        1 0.39468171E+00 0.65734684E+03</pdfrwt>
<pdfrwt beam="2">0</pdfrwt>
<totfact> 0.14108735E+00</totfact>
</mgrwt>
</event>
<event>
 6    1  0.6762454E-003  0.5187539E+03  0.7818608E-02  0.1008997E+00
          1   -1    0    0  502    0  0.00000000000E+00  0.00000000000E+00  0.67366293594E+02  0.67366293594E+02  0.00000000000E+00 0.  1.
         13   -1    0    0    0    0 -0.00000000000E+00 -0.00000000000E+00 -0.10000000000E+04  0.10000000000E+04  0.00000000000E+00 0.  1.
    9000005    2    1    2  501    0 -0.28701196629E-02  0.99837923960E-03 -0.93272355787E+03  0.10672763908E+04  0.51875394828E+03 0.  0.
         13    1    3    3    0    0 -0.46522885550E+02 -0.22527060385E+03 -0.71294825183E+03  0.74913712605E+03  0.00000000000E+00 0.  1.
          1    1    3    3  501    0  0.46520015430E+02  0.22527160223E+03 -0.21977530604E+03  0.31813926471E+03  0.00000000000E+00 0.  1.
         21    1    1    2  502  501  0.28701196629E-02 -0.99837923962E-03  0.89851463383E-01  0.89902835439E-01  0.00000000000E+00 0.  1.
<mgrwt>
<rscale>  1 0.51875395E+03</rscale>
<asrwt>0</asrwt>
<pdfrwt beam="1">  1        1 0.24496886E+00 0.51875395E+03</pdfrwt>
<pdfrwt beam="2">0</pdfrwt>
<totfact> 0.64751196E+00</totfact>
</mgrwt>
</event>
<event>
 6    1  0.6762454E-003  0.6561825E+03  0.7818608E-02  0.9795247E-01
          1   -1    0    0  502    0  0.00000000000E+00  0.00000000000E+00  0.10764586901E+03  0.10764586901E+03  0.00000000000E+00 0.  1.
         13   -1    0    0    0    0 -0.00000000000E+00 -0.00000000000E+00 -0.10000000000E+04  0.10000000000E+04  0.00000000000E+00 0.  1.
    9000005    2    1    2  501    0 -0.88220955439E-03  0.15833220971E-03 -0.89235603655E+03  0.11076437632E+04  0.65618245187E+03 0.  0.
         13    1    3    3    0    0 -0.11614055986E+03 -0.27688818818E+03 -0.22295037602E+03  0.37398204311E+03  0.00000000000E+00 0.  1.
          1    1    3    3  501    0  0.11613967765E+03  0.27688834651E+03 -0.66940566053E+03  0.73366172007E+03  0.00000000000E+00 0.  1.
         21    1    1    2  502  501  0.88220955439E-03 -0.15833220970E-03  0.19055582038E-02  0.21058287809E-02  0.00000000000E+00 0. -1.
<mgrwt>
<rscale>  1 0.65618245E+03</rscale>
<asrwt>0</asrwt>
<pdfrwt beam="1">  1        1 0.39144035E+00 0.65618245E+03</pdfrwt>
<pdfrwt beam="2">0</pdfrwt>
<totfact> 0.14587480E+00</totfact>
</mgrwt>
</event>
<event>
 6    1  0.6762454E-003  0.6476631E+03  0.7818608E-02  0.9811174E-01
          1   -1    0    0  502    0  0.00000000000E+00  0.00000000000E+00  0.10486689947E+03  0.10486689947E+03  0.00000000000E+00 0.  1.
         13   -1    0    0    0    0 -0.00000000000E+00 -0.00000000000E+00 -0.10000000000E+04  0.10000000000E+04  0.00000000000E+00 0.  1.
    9000005    2    1    2  501    0  0.11226103851E-04  0.60202267605E-04 -0.89513307342E+03  0.11048668325E+04  0.64766310566E+03 0.  0.
         13    1    3    3    0    0  0.11255424983E+03 -0.30273170704E+03 -0.48764354757E+03  0.58490270566E+03  0.00000000000E+00 0.  1.
          1    1    3    3  501    0 -0.11255423860E+03  0.30273176724E+03 -0.40748952585E+03  0.51996412684E+03  0.00000000000E+00 0.  1.
         21    1    1    2  502  501 -0.11226103862E-04 -0.60202267569E-04 -0.27106313273E-04  0.66970819374E-04  0.00000000000E+00 0.  1.
<mgrwt>
<rscale>  1 0.64766311E+03</rscale>
<asrwt>0</asrwt>
<pdfrwt beam="1">  1        1 0.38133498E+00 0.64766311E+03</pdfrwt>
<pdfrwt beam="2">0</pdfrwt>
<totfact> 0.16195544E+00</totfact>
</mgrwt>
</event>
<event>
 6    1  0.6762454E-003  0.5969761E+03  0.7818608E-02  0.9911700E-01
          1   -1    0    0  502    0  0.00000000000E+00  0.00000000000E+00  0.89195080666E+02  0.89195080666E+02  0.00000000000E+00 0.  1.
         13   -1    0    0    0    0 -0.00000000000E+00 -0.00000000000E+00 -0.10000000000E+04  0.10000000000E+04  0.00000000000E+00 0.  1.
    9000005    2    1    2  501    0 -0.30183646241E-01 -0.28172643141E-01 -0.91090022139E+03  0.10890912191E+04  0.59697610372E+03 0.  0.
         13    1    3    3    0    0 -0.28693593290E+03  0.26517952838E+02 -0.31336324496E+03  0.42571346549E+03  0.00000000000E+00 0.  1.
          3    1    3    3  501    0  0.28690574925E+03 -0.26546125481E+02 -0.59753697643E+03  0.66337775357E+03  0.00000000000E+00 0.  1.
         21    1    1    2  502  501  0.30183646241E-01  0.28172643141E-01  0.95302054100E-01  0.10386159944E+00  0.00000000000E+00 0.  1.
<mgrwt>
<rscale>  1 0.59697611E+03</rscale>
<asrwt>0</asrwt>
<pdfrwt beam="1">  1        1 0.32434643E+00 0.59697611E+03</pdfrwt>
<pdfrwt beam="2">0</pdfrwt>
<totfact> 0.28978822E+00</totfact>
</mgrwt>
</event>
<event>
 6    1  0.6762454E-003  0.6346413E+03  0.7818608E-02  0.9836033E-01
          1   -1    0    0  502    0  0.00000000000E+00  0.00000000000E+00  0.10069343300E+03  0.10069343300E+03  0.00000000000E+00 0.  1.
         13   -1    0    0    0    0 -0.00000000000E+00 -0.00000000000E+00 -0.10000000000E+04  0.10000000000E+04  0.00000000000E+00 0.  1.
    9000005    2    1    2  501    0 -0.59635855473E-03  0.81463662292E-03 -0.89930730833E+03  0.11006921805E+04  0.63464134857E+03 0.  0.
         13    1    3    3    0    0  0.14304433248E+03 -0.27040779547E+03 -0.59589553100E+03  0.66983097925E+03  0.00000000000E+00 0.  1.
          3    1    3    3  501    0 -0.14304492883E+03  0.27040861010E+03 -0.30341177733E+03  0.43086120121E+03  0.00000000000E+00 0.  1.
         21    1    1    2  502  501  0.59635855473E-03 -0.81463662291E-03  0.74133473541E-03  0.12525388390E-02  0.00000000000E+00 0.  1.
<mgrwt>
<rscale>  1 0.63464135E+03</rscale>
<asrwt>0</asrwt>
<pdfrwt beam="1">  1        1 0.36615871E+00 0.63464135E+03</pdfrwt>
<pdfrwt beam="2">0</pdfrwt>
<totfact> 0.18931990E+00</totfact>
</mgrwt>
</event>
<event>
 6    1  0.6762454E-003  0.5870746E+03  0.7818608E-02  0.9932591E-01
          1   -1    0    0  502    0  0.00000000000E+00  0.00000000000E+00  0.86164422120E+02  0.86164422120E+02  0.00000000000E+00 0.  1.
         13   -1    0    0    0    0 -0.00000000000E+00 -0.00000000000E+00 -0.10000000000E+04  0.10000000000E+04  0.00000000000E+00 0.  1.
    9000005    2    1    2  501    0  0.15948949854E-03 -0.14984218413E-03 -0.91383580647E+03  0.10861641057E+04  0.58707459770E+03 0.  0.
         13    1    3    3    0    0  0.24400256136E+03 -0.16085292802E+03 -0.50769711614E+03  0.58580481062E+03  0.00000000000E+00 0.  1.
          1    1    3    3  501    0 -0.24400240187E+03  0.16085277817E+03 -0.40613869032E+03  0.50035929505E+03  0.00000000000E+00 0.  1.
         21    1    1    2  502  501 -0.15948949854E-03  0.14984218412E-03  0.22858752048E-03  0.31645194707E-03  0.00000000000E+00 0. -1.
<mgrwt>
<rscale>  1 0.58707460E+03</rscale>
<asrwt>0</asrwt>
<pdfrwt beam="1">  1        1 0.31332583E+00 0.58707460E+03</pdfrwt>
<pdfrwt beam="2">0</pdfrwt>
<totfact> 0.32395785E+00</totfact>
</mgrwt>
</event>
<event>
 6    1  0.6762454E-003  0.6648455E+03  0.7818608E-02  0.9779315E-01
          1   -1    0    0  502    0  0.00000000000E+00  0.00000000000E+00  0.11050905493E+03  0.11050905493E+03  0.00000000000E+00 0.  1.
         13   -1    0    0    0    0 -0.00000000000E+00 -0.00000000000E+00 -0.10000000000E+04  0.10000000000E+04  0.00000000000E+00 0.  1.
    9000005    2    1    2  501    0  0.36022467515E-03  0.19761771830E-03 -0.88949510195E+03  0.11105048778E+04  0.66484550627E+03 0.  0.
         13    1    3    3    0    0  0.15400393490E+03 -0.10436970478E+03  0.15408691156E+02  0.18667531975E+03  0.00000000000E+00 0.  1.
          3    1    3    3  501    0 -0.15400357468E+03  0.10436990239E+03 -0.90490379311E+03  0.92382955804E+03  0.00000000000E+00 0.  1.
         21    1    1    2  502  501 -0.36022467513E-03 -0.19761771831E-03  0.41568792477E-02  0.41771353413E-02  0.00000000000E+00 0. -1.
<mgrwt>
<rscale>  1 0.66484551E+03</rscale>
<asrwt>0</asrwt>
<pdfrwt beam="1">  1        1 0.40185196E+00 0.66484551E+03</pdfrwt>
<pdfrwt beam="2">0</pdfrwt>
<totfact> 0.13089913E+00</totfact>
</mgrwt>
</event>
<event>
 6    1  0.6762454E-003  0.6516640E+03  0.7818608E-02  0.9803662E-01
          1   -1    0    0  502    0  0.00000000000E+00  0.00000000000E+00  0.10624269473E+03  0.10624269473E+03  0.00000000000E+00 0.  1.
         13   -1    0    0    0    0 -0.00000000000E+00 -0.00000000000E+00 -0.10000000000E+04  0.10000000000E+04  0.00000000000E+00 0.  1.
    9000005    2    1    2  501    0 -0.91436917782E-02 -0.64261980872E-02 -0.89383304284E+03  0.11061661370E+04  0.65166403469E+03 0.  0.
         13    1    3    3    0    0 -0.23947627458E+03  0.21972993029E+03 -0.48625917073E+03  0.58487443906E+03  0.00000000000E+00 0.  1.
          1    1    3    3  501    0  0.23946713089E+03 -0.21973635648E+03 -0.40757387211E+03  0.52129169796E+03  0.00000000000E+00 0.  1.
         21    1    1    2  502  501  0.91436917782E-02  0.64261980872E-02  0.75737565475E-01  0.76557703369E-01  0.00000000000E+00 0. -1.
<mgrwt>
<rscale>  1 0.65166403E+03</rscale>
<asrwt>0</asrwt>
<pdfrwt beam="1">  1        1 0.38633789E+00 0.65166403E+03</pdfrwt>
<pdfrwt beam="2">0</pdfrwt>
<totfact> 0.15380092E+00</totfact>
</mgrwt>
</event>
<event>
 6    1  0.6762454E-003  0.6482456E+03  0.7818608E-02  0.9810077E-01
          1   -1    0    0  502    0  0.00000000000E+00  0.00000000000E+00  0.10505559887E+03  0.10505559887E+03  0.00000000000E+00 0.  1.
         13   -1    0    0    0    0 -0.00000000000E+00 -0.00000000000E+00 -0.10000000000E+04  0.10000000000E+04  0.00000000000E+00 0.  1.
    9000005    2    1    2  501    0  0.89928465741E-06  0.38518708152E-05 -0.89494440865E+03  0.11050555904E+04  0.64824560410E+03 0.  0.
         13    1    3    3    0    0 -0.15505815810E+03  0.16932276565E+03 -0.57466288893E+02  0.23667616212E+03  0.00000000000E+00 0.  1.
          1    1    3    3  501    0  0.15505815900E+03 -0.16932276179E+03 -0.83747811976E+03  0.86837942825E+03  0.00000000000E+00 0.  1.
         21    1    1    2  502  501 -0.89928464144E-06 -0.38518708310E-05  0.75217549408E-05  0.84983774425E-05  0.00000000000E+00 0.  1.
<mgrwt>
<rscale>  1 0.64824560E+03</rscale>
<asrwt>0</asrwt>
<pdfrwt beam="1">  1        1 0.38202117E+00 0.64824560E+03</pdfrwt>
<pdfrwt beam="2">0</pdfrwt>
<totfact> 0.16081216E+00</totfact>
</mgrwt>
</event>
<event>
 6    1  0.6762454E-003  0.6690658E+03  0.7818608E-02  0.9771647E-01
          1   -1    0    0  502    0  0.00000000000E+00  0.00000000000E+00  0.11191237603E+03  0.11191237603E+03  0.00000000000E+00 0.  1.
         13   -1    0    0    0    0 -0.00000000000E+00 -0.00000000000E+00 -0.10000000000E+04  0.10000000000E+04  0.00000000000E+00 0.  1.
    9000005    2    1    2  501    0  0.50799566480E-04 -0.47771045928E-05 -0.88808773073E+03  0.11119122577E+04  0.66906580495E+03 0.  0.
         13    1    3    3    0    0  0.23741031170E+03  0.91806358221E+02 -0.80479302199E+03  0.84408759720E+03  0.00000000000E+00 0.  1.
          1    1    3    3  501    0 -0.23741026090E+03 -0.91806362998E+02 -0.83294708744E+02  0.26782466050E+03  0.00000000000E+00 0.  1.
         21    1    1    2  502  501 -0.50799566469E-04  0.47771045867E-05  0.10676079779E-03  0.11832702407E-03  0.00000000000E+00 0. -1.
<mgrwt>
<rscale>  1 0.66906580E+03</rscale>
<asrwt>0</asrwt>
<pdfrwt beam="1">  1        1 0.40695495E+00 0.66906580E+03</pdfrwt>
<pdfrwt beam="2">0</pdfrwt>
<totfact> 0.12410179E+00</totfact>
</mgrwt>
</event>
<event>
 6    1  0.6762454E-003  0.6548266E+03  0.7818608E-02  0.9797764E-01
          1   -1    0    0  502    0  0.00000000000E+00  0.00000000000E+00  0.10719948917E+03  0.10719948917E+03  0.00000000000E+00 0.  1.
         13   -1    0    0    0    0 -0.00000000000E+00 -0.00000000000E+00 -0.10000000000E+04  0.10000000000E+04  0.00000000000E+00 0.  1.
    9000005    2    1    2  501    0 -0.63348813342E-05  0.47186610566E-04 -0.89280050786E+03  0.11071994415E+04  0.65482658494E+03 0.  0.
         13    1    3    3    0    0 -0.26377253849E+03 -0.49025776648E+02 -0.12908267066E+03  0.29772775265E+03  0.00000000000E+00 0.  1.
          1    1    3    3  501    0  0.26377253215E+03  0.49025823834E+02 -0.76371783721E+03  0.80947168881E+03  0.00000000000E+00 0.  1.
         21    1    1    2  502  501  0.63348813416E-05 -0.47186610566E-04 -0.29666219971E-05  0.47702282801E-04  0.00000000000E+00 0. -1.
<mgrwt>
<rscale>  1 0.65482658E+03</rscale>
<asrwt>0</asrwt>
<pdfrwt beam="1">  1        1 0.38981715E+00 0.65482658E+03</pdfrwt>
<pdfrwt beam="2">0</pdfrwt>
<totfact> 0.14835101E+00</totfact>
</mgrwt>
</event>
<event>
 6    1  0.6762454E-003  0.6491909E+03  0.7818608E-02  0.9808299E-01
          1   -1    0    0  502    0  0.00000000000E+00  0.00000000000E+00  0.10536298244E+03  0.10536298244E+03  0.00000000000E+00 0.  1.
         13   -1    0    0    0    0 -0.00000000000E+00 -0.00000000000E+00 -0.10000000000E+04  0.10000000000E+04  0.00000000000E+00 0.  1.
    9000005    2    1    2  501    0 -0.19846470948E-04 -0.57655319381E-05 -0.89463778277E+03  0.11053622170E+04  0.64919093363E+03 0.  0.
         13    1    3    3    0    0  0.12688415309E+03 -0.18135607517E+03 -0.85158394817E+03  0.87987773872E+03  0.00000000000E+00 0.  1.
          3    1    3    3  501    0 -0.12688417293E+03  0.18135606940E+03 -0.43053834595E+02  0.22548447823E+03  0.00000000000E+00 0.  1.
         21    1    1    2  502  501  0.19846470949E-04  0.57655319591E-05  0.76520518954E-03  0.76548422967E-03  0.00000000000E+00 0.  1.
<mgrwt>
<rscale>  1 0.64919093E+03</rscale>
<asrwt>0</asrwt>
<pdfrwt beam="1">  1        1 0.38313893E+00 0.64919093E+03</pdfrwt>
<pdfrwt beam="2">0</pdfrwt>
<totfact> 0.15896633E+00</totfact>
</mgrwt>
</event>
<event>
 6    1  0.6762454E-003  0.6498511E+03  0.7818608E-02  0.9807059E-01
          1   -1    0    0  502    0  0.00000000000E+00  0.00000000000E+00  0.10915897052E+03  0.10915897052E+03  0.00000000000E+00 0.  1.
         13   -1    0    0    0    0 -0.00000000000E+00 -0.00000000000E+00 -0.10000000000E+04  0.10000000000E+04  0.00000000000E+00 0.  1.
    9000005    2    1    2  501    0  0.89270625862E-02 -0.12236577254E+00 -0.89442223539E+03  0.11055756636E+04  0.64985105804E+03 0.  0.
         13    1    3    3    0    0  0.13475583694E+03 -0.40153541930E+02  0.51140096665E+02  0.14962203048E+03  0.00000000000E+00 0.  1.
          3    1    3    3  501    0 -0.13474690988E+03  0.40031176158E+02 -0.94556233205E+03  0.95595363307E+03  0.00000000000E+00 0.  1.
         21    1    1    2  502  501 -0.89270625862E-02  0.12236577254E+00  0.35812059068E+01  0.35833069673E+01  0.00000000000E+00 0. -1.
<mgrwt>
<rscale>  1 0.64985107E+03</rscale>
<asrwt>0</asrwt>
<pdfrwt beam="1">  1        1 0.39694255E+00 0.64985107E+03</pdfrwt>
<pdfrwt beam="2">0</pdfrwt>
<totfact> 0.13805232E+00</totfact>
</mgrwt>
</event>
<event>
 6    1  0.6762454E-003  0.6472184E+03  0.7818608E-02  0.9812013E-01
          1   -1    0    0  502    0  0.00000000000E+00  0.00000000000E+00  0.10472394014E+03  0.10472394014E+03  0.00000000000E+00 0.  1.
         13   -1    0    0    0    0 -0.00000000000E+00 -0.00000000000E+00 -0.10000000000E+04  0.10000000000E+04  0.00000000000E+00 0.  1.
    9000005    2    1    2  501    0  0.12867567818E-04  0.14802223376E-04 -0.89527708716E+03  0.11047229127E+04  0.64721839509E+03 0.  0.
         13    1    3    3    0    0 -0.28726653049E+03 -0.13940677520E+03 -0.35785936350E+03  0.47960362024E+03  0.00000000000E+00 0.  1.
          3    1    3    3  501    0  0.28726654335E+03  0.13940679000E+03 -0.53741772367E+03  0.62511929241E+03  0.00000000000E+00 0.  1.
         21    1    1    2  502  501 -0.12867567830E-04 -0.14802223390E-04  0.10273069722E-02  0.10274941826E-02  0.00000000000E+00 0. -1.
<mgrwt>
<rscale>  1 0.64721840E+03</rscale>
<asrwt>0</asrwt>
<pdfrwt beam="1">  1        1 0.38081513E+00 0.64721840E+03</pdfrwt>
<pdfrwt beam="2">0</pdfrwt>
<totfact> 0.16282685E+00</totfact>
</mgrwt>
</event>
<event>
 6    1  0.6762454E-003  0.6302493E+03  0.7818608E-02  0.9844562E-01
          1   -1    0    0  502    0  0.00000000000E+00  0.00000000000E+00  0.99303555373E+02  0.99303555373E+02  0.00000000000E+00 0.  1.
         13   -1    0    0    0    0 -0.00000000000E+00 -0.00000000000E+00 -0.10000000000E+04  0.10000000000E+04  0.00000000000E+00 0.  1.
    9000005    2    1    2  501    0  0.17861024212E-04  0.30480723439E-04 -0.90069643879E+03  0.10993035196E+04  0.63024927869E+03 0.  0.
         13    1    3    3    0    0  0.15095480137E+02  0.18819450538E+02 -0.99838678634E+03  0.99867823666E+03  0.00000000000E+00 0.  1.
          1    1    3    3  501    0 -0.15095462276E+02 -0.18819420058E+02  0.97690347558E+02  0.10062528290E+03  0.00000000000E+00 0.  1.
         21    1    1    2  502  501 -0.17861024210E-04 -0.30480723438E-04 -0.58409621525E-05  0.35807925464E-04  0.00000000000E+00 0.  1.
<mgrwt>
<rscale>  1 0.63024928E+03</rscale>
<asrwt>0</asrwt>
<pdfrwt beam="1">  1        1 0.36110460E+00 0.63024928E+03</pdfrwt>
<pdfrwt beam="2">0</pdfrwt>
<totfact> 0.19937843E+00</totfact>
</mgrwt>
</event>
<event>
 6    1  0.6762454E-003  0.6531714E+03  0.7818608E-02  0.9800846E-01
          1   -1    0    0  502    0  0.00000000000E+00  0.00000000000E+00  0.10666141928E+03  0.10666141928E+03  0.00000000000E+00 0.  1.
         13   -1    0    0    0    0 -0.00000000000E+00 -0.00000000000E+00 -0.10000000000E+04  0.10000000000E+04  0.00000000000E+00 0.  1.
    9000005    2    1    2  501    0 -0.96989431910E-04  0.79700142436E-04 -0.89334177266E+03  0.11066582249E+04  0.65317141998E+03 0.  0.
         13    1    3    3    0    0  0.85454803379E+02  0.13948037467E+03 -0.92559010609E+03  0.93993315870E+03  0.00000000000E+00 0.  1.
          1    1    3    3  501    0 -0.85454900369E+02 -0.13948029497E+03  0.32248333421E+02  0.16672506617E+03  0.00000000000E+00 0.  1.
         21    1    1    2  502  501  0.96989431918E-04 -0.79700142438E-04  0.31919469642E-02  0.31944145763E-02  0.00000000000E+00 0.  1.
<mgrwt>
<rscale>  1 0.65317142E+03</rscale>
<asrwt>0</asrwt>
<pdfrwt beam="1">  1        1 0.38786052E+00 0.65317142E+03</pdfrwt>
<pdfrwt beam="2">0</pdfrwt>
<totfact> 0.15138943E+00</totfact>
</mgrwt>
</event>
<event>
 6    1  0.6762454E-003  0.6543906E+03  0.7818608E-02  0.9798575E-01
          1   -1    0    0  502    0  0.00000000000E+00  0.00000000000E+00  0.10747338765E+03  0.10747338765E+03  0.00000000000E+00 0.  1.
         13   -1    0    0    0    0 -0.00000000000E+00 -0.00000000000E+00 -0.10000000000E+04  0.10000000000E+04  0.00000000000E+00 0.  1.
    9000005    2    1    2  501    0 -0.64726246818E-01  0.60162533527E-02 -0.89294043258E+03  0.11070544928E+04  0.65439057890E+03 0.  0.
         13    1    3    3    0    0 -0.32371509105E+03 -0.44748119960E+02 -0.41802449774E+03  0.53060186121E+03  0.00000000000E+00 0.  1.
          1    1    3    3  501    0  0.32365036480E+03  0.44754136213E+02 -0.47491593484E+03  0.57645263163E+03  0.00000000000E+00 0.  1.
         21    1    1    2  502  501  0.64726246818E-01 -0.60162533527E-02  0.41382022770E+00  0.41889481160E+00  0.00000000000E+00 0.  1.
<mgrwt>
<rscale>  1 0.65439058E+03</rscale>
<asrwt>0</asrwt>
<pdfrwt beam="1">  1        1 0.39081314E+00 0.65439058E+03</pdfrwt>
<pdfrwt beam="2">0</pdfrwt>
<totfact> 0.14686150E+00</totfact>
</mgrwt>
</event>
<event>
 6    1  0.6762454E-003  0.6525095E+03  0.7818608E-02  0.9802082E-01
          1   -1    0    0  502    0  0.00000000000E+00  0.00000000000E+00  0.10644225656E+03  0.10644225656E+03  0.00000000000E+00 0.  1.
         13   -1    0    0    0    0 -0.00000000000E+00 -0.00000000000E+00 -0.10000000000E+04  0.10000000000E+04  0.00000000000E+00 0.  1.
    9000005    2    1    2  501    0 -0.68747006026E-05 -0.78495975941E-05 -0.89355783136E+03  0.11064421680E+04  0.65250951962E+03 0.  0.
         13    1    3    3    0    0 -0.23692111215E+03 -0.99737437857E+02 -0.10610915629E+03  0.27809768597E+03  0.00000000000E+00 0.  1.
          1    1    3    3  501    0  0.23692110528E+03  0.99737430007E+02 -0.78744867507E+03  0.82834448205E+03  0.00000000000E+00 0.  1.
         21    1    1    2  502  501  0.68747006027E-05  0.78495975886E-05  0.87925399588E-04  0.88542382977E-04  0.00000000000E+00 0.  1.
<mgrwt>
<rscale>  1 0.65250952E+03</rscale>
<asrwt>0</asrwt>
<pdfrwt beam="1">  1        1 0.38706357E+00 0.65250952E+03</pdfrwt>
<pdfrwt beam="2">0</pdfrwt>
<totfact> 0.15264352E+00</totfact>
</mgrwt>
</event>
<event>
 6    1  0.6762454E-003  0.6526878E+03  0.7818608E-02  0.9801749E-01
          1   -1    0    0  502    0  0.00000000000E+00  0.00000000000E+00  0.10650880855E+03  0.10650880855E+03  0.00000000000E+00 0.  1.
         13   -1    0    0    0    0 -0.00000000000E+00 -0.00000000000E+00 -0.10000000000E+04  0.10000000000E+04  0.00000000000E+00 0.  1.
    9000005    2    1    2  501    0  0.79124707597E-03  0.16923596008E-02 -0.89349956058E+03  0.11065002334E+04  0.65268775217E+03 0.  0.
         13    1    3    3    0    0  0.16578412499E+03 -0.28047488152E+03 -0.47844010215E+03  0.57883975901E+03  0.00000000000E+00 0.  1.
          3    1    3    3  501    0 -0.16578333374E+03  0.28047657388E+03 -0.41505945843E+03  0.52766047443E+03  0.00000000000E+00 0.  1.
         21    1    1    2  502  501 -0.79124707595E-03 -0.16923596008E-02  0.83691336800E-02  0.85751123321E-02  0.00000000000E+00 0. -1.
<mgrwt>
<rscale>  1 0.65268775E+03</rscale>
<asrwt>0</asrwt>
<pdfrwt beam="1">  1        1 0.38730558E+00 0.65268775E+03</pdfrwt>
<pdfrwt beam="2">0</pdfrwt>
<totfact> 0.15226230E+00</totfact>
</mgrwt>
</event>
<event>
 6    1  0.6762454E-003  0.6444023E+03  0.7818608E-02  0.9817340E-01
          1   -1    0    0  502    0  0.00000000000E+00  0.00000000000E+00  0.10381364929E+03  0.10381364929E+03  0.00000000000E+00 0.  1.
         13   -1    0    0    0    0 -0.00000000000E+00 -0.00000000000E+00 -0.10000000000E+04  0.10000000000E+04  0.00000000000E+00 0.  1.
    9000005    2    1    2  501    0  0.30739415990E-06 -0.22102795469E-05 -0.89618641385E+03  0.11038135861E+04  0.64440231574E+03 0.  0.
         13    1    3    3    0    0  0.88280885565E+02  0.30251347224E+03 -0.56307215216E+03  0.64525821512E+03  0.00000000000E+00 0.  1.
          1    1    3    3  501    0 -0.88280885258E+02 -0.30251347445E+03 -0.33311426168E+03  0.45855537099E+03  0.00000000000E+00 0.  1.
         21    1    1    2  502  501 -0.30739415233E-06  0.22102795417E-05  0.63139493881E-04  0.63178916692E-04  0.00000000000E+00 0. -1.
<mgrwt>
<rscale>  1 0.64440232E+03</rscale>
<asrwt>0</asrwt>
<pdfrwt beam="1">  1        1 0.37750498E+00 0.64440232E+03</pdfrwt>
<pdfrwt beam="2">0</pdfrwt>
<totfact> 0.16848061E+00</totfact>
</mgrwt>
</event>
<event>
 6    1  0.6762454E-003  0.6530672E+03  0.7818608E-02  0.9801041E-01
          1   -1    0    0  502    0  0.00000000000E+00  0.00000000000E+00  0.10690125799E+03  0.10690125799E+03  0.00000000000E+00 0.  1.
         13   -1    0    0    0    0 -0.00000000000E+00 -0.00000000000E+00 -0.10000000000E+04  0.10000000000E+04  0.00000000000E+00 0.  1.
    9000005    2    1    2  501    0  0.86237509312E-01 -0.15104620784E+00 -0.89334526937E+03  0.11065995502E+04  0.65306719708E+03 0.  0.
         13    1    3    3    0    0 -0.19250684720E+03  0.13657941699E+02 -0.89289297456E+03  0.91351151586E+03  0.00000000000E+00 0.  1.
          1    1    3    3  501    0  0.19259308471E+03 -0.13808987906E+02 -0.45229480578E+00  0.19308803432E+03  0.00000000000E+00 0.  1.
         21    1    1    2  502  501 -0.86237509312E-01  0.15104620784E+00  0.24652735926E+00  0.30170781193E+00  0.00000000000E+00 0. -1.
<mgrwt>
<rscale>  1 0.65306722E+03</rscale>
<asrwt>0</asrwt>
<pdfrwt beam="1">  1        1 0.38873267E+00 0.65306722E+03</pdfrwt>
<pdfrwt beam="2">0</pdfrwt>
<totfact> 0.15005127E+00</totfact>
</mgrwt>
</event>
<event>
 6    1  0.6762454E-003  0.6472638E+03  0.7818608E-02  0.9811927E-01
          3   -1    0    0  502    0  0.00000000000E+00  0.00000000000E+00  0.10473893712E+03  0.10473893712E+03  0.00000000000E+00 0.  1.
         13   -1    0    0    0    0 -0.00000000000E+00 -0.00000000000E+00 -0.10000000000E+04  0.10000000000E+04  0.00000000000E+00 0.  1.
    9000005    2    1    2  501    0  0.16605426789E-03 -0.53081120180E-03 -0.89526234239E+03  0.11047375420E+04  0.64726375992E+03 0.  0.
         13    1    3    3    0    0  0.34590127684E+02 -0.16411846750E+03  0.24768939360E+02  0.16954305844E+03  0.00000000000E+00 0.  1.
          3    1    3    3  501    0 -0.34589961630E+02  0.16411793669E+03 -0.92003128175E+03  0.93519448351E+03  0.00000000000E+00 0.  1.
         21    1    1    2  502  501 -0.16605426788E-03  0.53081120180E-03  0.12795151832E-02  0.13951679669E-02  0.00000000000E+00 0.  1.
<mgrwt>
<rscale>  1 0.64726376E+03</rscale>
<asrwt>0</asrwt>
<pdfrwt beam="1">  1        3 0.38086967E+00 0.64726376E+03</pdfrwt>
<pdfrwt beam="2">0</pdfrwt>
<totfact> 0.74718945E-02</totfact>
</mgrwt>
</event>
<event>
 6    1  0.6762454E-003  0.6723256E+03  0.7818608E-02  0.9765766E-01
          1   -1    0    0  502    0  0.00000000000E+00  0.00000000000E+00  0.11301897010E+03  0.11301897010E+03  0.00000000000E+00 0.  1.
         13   -1    0    0    0    0 -0.00000000000E+00 -0.00000000000E+00 -0.10000000000E+04  0.10000000000E+04  0.00000000000E+00 0.  1.
    9000005    2    1    2  501    0 -0.61165000768E-02 -0.70535082496E-02 -0.88699277484E+03  0.11130039665E+04  0.67232555120E+03 0.  0.
         13    1    3    3    0    0 -0.28094086650E+03 -0.68834276037E+02 -0.15993113226E+03  0.33052064246E+03  0.00000000000E+00 0.  1.
          1    1    3    3  501    0  0.28093475000E+03  0.68827222529E+02 -0.72706164259E+03  0.78248332407E+03  0.00000000000E+00 0.  1.
         21    1    1    2  502  501  0.61165000767E-02  0.70535082496E-02  0.11744946683E-01  0.15003577054E-01  0.00000000000E+00 0. -1.
<mgrwt>
<rscale>  1 0.67232555E+03</rscale>
<asrwt>0</asrwt>
<pdfrwt beam="1">  1        1 0.41097894E+00 0.67232555E+03</pdfrwt>
<pdfrwt beam="2">0</pdfrwt>
<totfact> 0.11897927E+00</totfact>
</mgrwt>
</event>
<event>
 6    1  0.6762454E-003  0.6617565E+03  0.7818608E-02  0.9784966E-01
          1   -1    0    0  502    0  0.00000000000E+00  0.00000000000E+00  0.10949145686E+03  0.10949145686E+03  0.00000000000E+00 0.  1.
         13   -1    0    0    0    0 -0.00000000000E+00 -0.00000000000E+00 -0.10000000000E+04  0.10000000000E+04  0.00000000000E+00 0.  1.
    9000005    2    1    2  501    0 -0.11116768294E-01 -0.47327805040E-02 -0.89051578992E+03  0.11094773679E+04  0.66175649428E+03 0.  0.
         13    1    3    3    0    0  0.26638523582E+02 -0.28078815669E+03 -0.73530973863E+03  0.78754810113E+03  0.00000000000E+00 0.  1.
          1    1    3    3  501    0 -0.26649640350E+02  0.28078342391E+03 -0.15520605130E+03  0.32192926681E+03  0.00000000000E+00 0.  1.
         21    1    1    2  502  501  0.11116768294E-01  0.47327805039E-02  0.72467879679E-02  0.14088920628E-01  0.00000000000E+00 0. -1.
<mgrwt>
<rscale>  1 0.66175649E+03</rscale>
<asrwt>0</asrwt>
<pdfrwt beam="1">  1        1 0.39815159E+00 0.66175649E+03</pdfrwt>
<pdfrwt beam="2">0</pdfrwt>
<totfact> 0.13604700E+00</totfact>
</mgrwt>
</event>
<event>
 6    1  0.6762454E-003  0.6454400E+03  0.7818608E-02  0.9815374E-01
          1   -1    0    0  502    0  0.00000000000E+00  0.00000000000E+00  0.10432482411E+03  0.10432482411E+03  0.00000000000E+00 0.  1.
         13   -1    0    0    0    0 -0.00000000000E+00 -0.00000000000E+00 -0.10000000000E+04  0.10000000000E+04  0.00000000000E+00 0.  1.
    9000005    2    1    2  501    0  0.57295734770E-02  0.11105084703E-02 -0.89585175320E+03  0.11041481504E+04  0.64543998498E+03 0.  0.
         13    1    3    3    0    0 -0.34880378687E+01 -0.19629440015E+02 -0.99894524914E+03  0.99914417984E+03  0.00000000000E+00 0.  1.
          1    1    3    3  501    0  0.34937674421E+01  0.19630550524E+02  0.10309349593E+03  0.10500397054E+03  0.00000000000E+00 0.  1.
         21    1    1    2  502  501 -0.57295734770E-02 -0.11105084703E-02  0.17657731316E+00  0.17667373535E+00  0.00000000000E+00 0.  1.
<mgrwt>
<rscale>  1 0.64543999E+03</rscale>
<asrwt>0</asrwt>
<pdfrwt beam="1">  1        1 0.37936380E+00 0.64543999E+03</pdfrwt>
<pdfrwt beam="2">0</pdfrwt>
<totfact> 0.16529963E+00</totfact>
</mgrwt>
</event>
<event>
 6    1  0.6762454E-003  0.4743459E+03  0.7818608E-02  0.1020701E+00
          1   -1    0    0  502    0  0.00000000000E+00  0.00000000000E+00  0.56335571571E+02  0.56335571571E+02  0.00000000000E+00 0.  1.
         13   -1    0    0    0    0 -0.00000000000E+00 -0.00000000000E+00 -0.10000000000E+04  0.10000000000E+04  0.00000000000E+00 0.  1.
    9000005    2    1    2  501    0 -0.60709984548E-03 -0.30807286848E-02 -0.94374896514E+03  0.10562509766E+04  0.47434588256E+03 0.  0.
         13    1    3    3    0    0  0.96038117829E+02  0.15671396135E+02 -0.95350157269E+03  0.95845404786E+03  0.00000000000E+00 0.  1.
          1    1    3    3  501    0 -0.96038724929E+02 -0.15674476864E+02  0.97526075563E+01  0.97796928710E+02  0.00000000000E+00 0.  1.
         21    1    1    2  502  501  0.60709984548E-03  0.30807286848E-02  0.84536706738E-01  0.84595001304E-01  0.00000000000E+00 0.  1.
<mgrwt>
<rscale>  1 0.47434588E+03</rscale>
<asrwt>0</asrwt>
<pdfrwt beam="1">  1        1 0.20485706E+00 0.47434588E+03</pdfrwt>
<pdfrwt beam="2">0</pdfrwt>
<totfact> 0.98133502E+00</totfact>
</mgrwt>
</event>
<event>
 6    1  0.6762454E-003  0.6465692E+03  0.7818608E-02  0.9813238E-01
          1   -1    0    0  502    0  0.00000000000E+00  0.00000000000E+00  0.10453688820E+03  0.10453688820E+03  0.00000000000E+00 0.  1.
         13   -1    0    0    0    0 -0.00000000000E+00 -0.00000000000E+00 -0.10000000000E+04  0.10000000000E+04  0.00000000000E+00 0.  1.
    9000005    2    1    2  501    0  0.15518801797E-01  0.67556781327E-02 -0.89548370985E+03  0.11045102283E+04  0.64656923020E+03 0.  0.
         13    1    3    3    0    0 -0.17455343065E+03 -0.27109138396E+03 -0.40770758185E+03  0.51979314242E+03  0.00000000000E+00 0.  1.
          3    1    3    3  501    0  0.17456894945E+03  0.27109813964E+03 -0.48777612801E+03  0.58471708585E+03  0.00000000000E+00 0.  1.
         21    1    1    2  502  501 -0.15518801797E-01 -0.67556781327E-02  0.20598048799E-01  0.26659932682E-01  0.00000000000E+00 0. -1.
<mgrwt>
<rscale>  1 0.64656923E+03</rscale>
<asrwt>0</asrwt>
<pdfrwt beam="1">  1        1 0.38013494E+00 0.64656923E+03</pdfrwt>
<pdfrwt beam="2">0</pdfrwt>
<totfact> 0.16397578E+00</totfact>
</mgrwt>
</event>
<event>
 6    1  0.6762454E-003  0.6722279E+03  0.7818608E-02  0.9765942E-01
          1   -1    0    0  502    0  0.00000000000E+00  0.00000000000E+00  0.14822300127E+03  0.14822300127E+03  0.00000000000E+00 0.  1.
         13   -1    0    0    0    0 -0.00000000000E+00 -0.00000000000E+00 -0.10000000000E+04  0.10000000000E+04  0.00000000000E+00 0.  1.
    9000005    2    1    2  501    0  0.36164971363E+01  0.69122092644E+01 -0.88654636703E+03  0.11125892159E+04  0.67218259775E+03 0.  0.
         13    1    3    3    0    0 -0.33245342327E+03  0.37247813854E+02 -0.42594703811E+03  0.54161199908E+03  0.00000000000E+00 0.  1.
          1    1    3    3  501    0  0.33606992040E+03 -0.30335604590E+02 -0.46059932893E+03  0.57097721681E+03  0.00000000000E+00 0.  1.
         21    1    1    2  502  501 -0.36164971363E+01 -0.69122092644E+01  0.34769368304E+02  0.35633785383E+02  0.00000000000E+00 0.  1.
<mgrwt>
<rscale>  1 0.67222786E+03</rscale>
<asrwt>0</asrwt>
<pdfrwt beam="1">  1        1 0.53899387E+00 0.67222786E+03</pdfrwt>
<pdfrwt beam="2">0</pdfrwt>
<totfact> 0.29599434E-01</totfact>
</mgrwt>
</event>
<event>
 6    1  0.6762454E-003  0.5038622E+03  0.7818608E-02  0.1012776E+00
          1   -1    0    0  502    0  0.00000000000E+00  0.00000000000E+00  0.63471150074E+02  0.63471150074E+02  0.00000000000E+00 0.  1.
         13   -1    0    0    0    0 -0.00000000000E+00 -0.00000000000E+00 -0.10000000000E+04  0.10000000000E+04  0.00000000000E+00 0.  1.
    9000005    2    1    2  501    0 -0.13475075078E-03  0.14091720602E-03 -0.93653070387E+03  0.10634692859E+04  0.50386224582E+03 0.  0.
         13    1    3    3    0    0 -0.24092524749E+02  0.11206833914E+03 -0.94177050543E+03  0.94872095333E+03  0.00000000000E+00 0.  1.
          1    1    3    3  501    0  0.24092389998E+02 -0.11206819822E+03  0.52398015591E+01  0.11474833257E+03  0.00000000000E+00 0.  1.
         21    1    1    2  502  501  0.13475075078E-03 -0.14091720602E-03  0.18539469727E-02  0.18641713445E-02  0.00000000000E+00 0. -1.
<mgrwt>
<rscale>  1 0.50386225E+03</rscale>
<asrwt>0</asrwt>
<pdfrwt beam="1">  1        1 0.23080467E+00 0.50386225E+03</pdfrwt>
<pdfrwt beam="2">0</pdfrwt>
<totfact> 0.74876109E+00</totfact>
</mgrwt>
</event>
<event>
 6    1  0.6762454E-003  0.6458707E+03  0.7818608E-02  0.9814559E-01
          1   -1    0    0  502    0  0.00000000000E+00  0.00000000000E+00  0.10428999409E+03  0.10428999409E+03  0.00000000000E+00 0.  1.
         13   -1    0    0    0    0 -0.00000000000E+00 -0.00000000000E+00 -0.10000000000E+04  0.10000000000E+04  0.00000000000E+00 0.  1.
    9000005    2    1    2  501    0  0.10058960523E-02  0.91000626000E-03 -0.89571258462E+03  0.11042870804E+04  0.64587066946E+03 0.  0.
         13    1    3    3    0    0 -0.16196740987E+02  0.14970975328E+03  0.40585959997E+02  0.15595693250E+03  0.00000000000E+00 0.  1.
          3    1    3    3  501    0  0.16197746883E+02 -0.14970884327E+03 -0.93629854461E+03  0.94833014789E+03  0.00000000000E+00 0.  1.
         21    1    1    2  502  501 -0.10058960523E-02 -0.91000626000E-03  0.25787065384E-02  0.29137030858E-02  0.00000000000E+00 0. -1.
<mgrwt>
<rscale>  1 0.64587067E+03</rscale>
<asrwt>0</asrwt>
<pdfrwt beam="1">  1        1 0.37923714E+00 0.64587067E+03</pdfrwt>
<pdfrwt beam="2">0</pdfrwt>
<totfact> 0.16549930E+00</totfact>
</mgrwt>
</event>
<event>
 6    1  0.6762454E-003  0.6496903E+03  0.7818608E-02  0.9807360E-01
          3   -1    0    0  502    0  0.00000000000E+00  0.00000000000E+00  0.10552438603E+03  0.10552438603E+03  0.00000000000E+00 0.  1.
         13   -1    0    0    0    0 -0.00000000000E+00 -0.00000000000E+00 -0.10000000000E+04  0.10000000000E+04  0.00000000000E+00 0.  1.
    9000005    2    1    2  501    0 -0.15319357942E-05  0.66045211611E-06 -0.89447562762E+03  0.11055243723E+04  0.64969030260E+03 0.  0.
         13    1    3    3    0    0  0.19137239465E+03  0.20499052006E+03 -0.72621936288E+03  0.77848511211E+03  0.00000000000E+00 0.  1.
          3    1    3    3  501    0 -0.19137239618E+03 -0.20499051940E+03 -0.16825626474E+03  0.32703926017E+03  0.00000000000E+00 0.  1.
         21    1    1    2  502  501  0.15319357944E-05 -0.66045210989E-06  0.13653104519E-04  0.13754646025E-04  0.00000000000E+00 0. -1.
<mgrwt>
<rscale>  1 0.64969030E+03</rscale>
<asrwt>0</asrwt>
<pdfrwt beam="1">  1        3 0.38372585E+00 0.64969030E+03</pdfrwt>
<pdfrwt beam="2">0</pdfrwt>
<totfact> 0.72140995E-02</totfact>
</mgrwt>
</event>
<event>
 6    1  0.6762454E-003  0.6402499E+03  0.7818608E-02  0.9825249E-01
          1   -1    0    0  502    0  0.00000000000E+00  0.00000000000E+00  0.10529053153E+03  0.10529053153E+03  0.00000000000E+00 0.  1.
         13   -1    0    0    0    0 -0.00000000000E+00 -0.00000000000E+00 -0.10000000000E+04  0.10000000000E+04  0.00000000000E+00 0.  1.
    9000005    2    1    2  501    0 -0.20078407060E+01  0.24637200608E+01 -0.89649453547E+03  0.11016452874E+04  0.64024197434E+03 0.  0.
         13    1    3    3    0    0  0.23382710891E+03  0.95615137665E+02 -0.78500595171E+03  0.82465248174E+03  0.00000000000E+00 0.  1.
          3    1    3    3  501    0 -0.23583494961E+03 -0.93151417604E+02 -0.11148858376E+03  0.27699280563E+03  0.00000000000E+00 0.  1.
         21    1    1    2  502  501  0.20078407060E+01 -0.24637200608E+01  0.17850669939E+01  0.36452441634E+01  0.00000000000E+00 0.  1.
<mgrwt>
<rscale>  1 0.64024986E+03</rscale>
<asrwt>0</asrwt>
<pdfrwt beam="1">  1        1 0.38287547E+00 0.64024986E+03</pdfrwt>
<pdfrwt beam="2">0</pdfrwt>
<totfact> 0.15965730E+00</totfact>
</mgrwt>
</event>
<event>
 6    1  0.6762454E-003  0.6524993E+03  0.7818608E-02  0.9802101E-01
          1   -1    0    0  502    0  0.00000000000E+00  0.00000000000E+00  0.10907127604E+03  0.10907127604E+03  0.00000000000E+00 0.  1.
         13   -1    0    0    0    0 -0.00000000000E+00 -0.00000000000E+00 -0.10000000000E+04  0.10000000000E+04  0.00000000000E+00 0.  1.
    9000005    2    1    2  501    0 -0.31446791645E+00 -0.40828523365E+00 -0.89353323497E+03  0.11064162686E+04  0.65249908187E+03 0.  0.
         13    1    3    3    0    0 -0.41280256327E+02  0.29926004871E+03 -0.65468843758E+03  0.72102537169E+03  0.00000000000E+00 0.  1.
          1    1    3    3  501    0  0.40965788411E+02 -0.29966833394E+03 -0.23884479739E+03  0.38539089692E+03  0.00000000000E+00 0.  1.
         21    1    1    2  502  501  0.31446791645E+00  0.40828523365E+00  0.26045110105E+01  0.26550074400E+01  0.00000000000E+00 0.  1.
<mgrwt>
<rscale>  1 0.65249929E+03</rscale>
<asrwt>0</asrwt>
<pdfrwt beam="1">  1        1 0.39662366E+00 0.65249929E+03</pdfrwt>
<pdfrwt beam="2">0</pdfrwt>
<totfact> 0.13843488E+00</totfact>
</mgrwt>
</event>
<event>
 6    1  0.6762454E-003  0.6752408E+03  0.7818608E-02  0.9760536E-01
          1   -1    0    0  502    0  0.00000000000E+00  0.00000000000E+00  0.11400360462E+03  0.11400360462E+03  0.00000000000E+00 0.  1.
         13   -1    0    0    0    0 -0.00000000000E+00 -0.00000000000E+00 -0.10000000000E+04  0.10000000000E+04  0.00000000000E+00 0.  1.
    9000005    2    1    2  501    0  0.87288717885E-02  0.79716489884E-02 -0.88601000641E+03  0.11139855768E+04  0.67524079693E+03 0.  0.
         13    1    3    3    0    0  0.21814529819E+03  0.10244386609E+03 -0.52926048748E+02  0.24674538183E+03  0.00000000000E+00 0.  1.
          1    1    3    3  501    0 -0.21813656931E+03 -0.10243589444E+03 -0.83308395766E+03  0.86724019502E+03  0.00000000000E+00 0.  1.
         21    1    1    2  502  501 -0.87288717885E-02 -0.79716489884E-02  0.13611029850E-01  0.18027770907E-01  0.00000000000E+00 0. -1.
<mgrwt>
<rscale>  1 0.67524080E+03</rscale>
<asrwt>0</asrwt>
<pdfrwt beam="1">  1        1 0.41455944E+00 0.67524080E+03</pdfrwt>
<pdfrwt beam="2">0</pdfrwt>
<totfact> 0.11458881E+00</totfact>
</mgrwt>
</event>
<event>
 6    1  0.6762454E-003  0.6508891E+03  0.7818608E-02  0.9805112E-01
          1   -1    0    0  502    0  0.00000000000E+00  0.00000000000E+00  0.10599543972E+03  0.10599543972E+03  0.00000000000E+00 0.  1.
         13   -1    0    0    0    0 -0.00000000000E+00 -0.00000000000E+00 -0.10000000000E+04  0.10000000000E+04  0.00000000000E+00 0.  1.
    9000005    2    1    2  501    0  0.23164981067E-01  0.34160555640E-03 -0.89408403064E+03  0.11059126613E+04  0.65088905350E+03 0.  0.
         13    1    3    3    0    0 -0.21378819849E+02 -0.28299437752E+03 -0.71767322503E+03  0.77174978430E+03  0.00000000000E+00 0.  1.
          1    1    3    3  501    0  0.21401984830E+02  0.28299471912E+03 -0.17641080562E+03  0.33416287697E+03  0.00000000000E+00 0.  1.
         21    1    1    2  502  501 -0.23164981067E-01 -0.34160555639E-03  0.79470362337E-01  0.82778448477E-01  0.00000000000E+00 0.  1.
<mgrwt>
<rscale>  1 0.65088905E+03</rscale>
<asrwt>0</asrwt>
<pdfrwt beam="1">  1        1 0.38543878E+00 0.65088905E+03</pdfrwt>
<pdfrwt beam="2">0</pdfrwt>
<totfact> 0.15523867E+00</totfact>
</mgrwt>
</event>
<event>
 6    1  0.6762454E-003  0.6733013E+03  0.7818608E-02  0.9764012E-01
          1   -1    0    0  502    0  0.00000000000E+00  0.00000000000E+00  0.11333423246E+03  0.11333423246E+03  0.00000000000E+00 0.  1.
         13   -1    0    0    0    0 -0.00000000000E+00 -0.00000000000E+00 -0.10000000000E+04  0.10000000000E+04  0.00000000000E+00 0.  1.
    9000005    2    1    2  501    0 -0.33770659677E-04 -0.24020684350E-04 -0.88666633604E+03  0.11133336625E+04  0.67330130884E+03 0.  0.
         13    1    3    3    0    0  0.47609122389E+02 -0.23637915656E+03 -0.83179977565E+03  0.86604422576E+03  0.00000000000E+00 0.  1.
          3    1    3    3  501    0 -0.47609156159E+02  0.23637913254E+03 -0.54866560390E+02  0.24728943670E+03  0.00000000000E+00 0.  1.
         21    1    1    2  502  501  0.33770659678E-04  0.24020684344E-04  0.56850215500E-03  0.57001065864E-03  0.00000000000E+00 0. -1.
<mgrwt>
<rscale>  1 0.67330131E+03</rscale>
<asrwt>0</asrwt>
<pdfrwt beam="1">  1        1 0.41212535E+00 0.67330131E+03</pdfrwt>
<pdfrwt beam="2">0</pdfrwt>
<totfact> 0.11755568E+00</totfact>
</mgrwt>
</event>
<event>
 6    1  0.6762454E-003  0.6469071E+03  0.7818608E-02  0.9812600E-01
          1   -1    0    0  502    0  0.00000000000E+00  0.00000000000E+00  0.10462471147E+03  0.10462471147E+03  0.00000000000E+00 0.  1.
         13   -1    0    0    0    0 -0.00000000000E+00 -0.00000000000E+00 -0.10000000000E+04  0.10000000000E+04  0.00000000000E+00 0.  1.
    9000005    2    1    2  501    0  0.35112472716E-03  0.19366020553E-03 -0.89537779723E+03  0.11046221709E+04  0.64690705724E+03 0.  0.
         13    1    3    3    0    0 -0.17718996528E+03 -0.11821552574E+03 -0.32046776187E+02  0.21540239131E+03  0.00000000000E+00 0.  1.
          1    1    3    3  501    0  0.17719031640E+03  0.11821571940E+03 -0.86333102105E+03  0.88921977961E+03  0.00000000000E+00 0.  1.
         21    1    1    2  502  501 -0.35112472718E-03 -0.19366020553E-03  0.25087086372E-02  0.25405534585E-02  0.00000000000E+00 0. -1.
<mgrwt>
<rscale>  1 0.64690706E+03</rscale>
<asrwt>0</asrwt>
<pdfrwt beam="1">  1        1 0.38045430E+00 0.64690706E+03</pdfrwt>
<pdfrwt beam="2">0</pdfrwt>
<totfact> 0.16343439E+00</totfact>
</mgrwt>
</event>
<event>
 6    1  0.6762454E-003  0.6579555E+03  0.7818608E-02  0.9791965E-01
          3   -1    0    0  502    0  0.00000000000E+00  0.00000000000E+00  0.10846492994E+03  0.10846492994E+03  0.00000000000E+00 0.  1.
         13   -1    0    0    0    0 -0.00000000000E+00 -0.00000000000E+00 -0.10000000000E+04  0.10000000000E+04  0.00000000000E+00 0.  1.
    9000005    2    1    2  501    0 -0.22560863574E-01 -0.11124928491E-01 -0.89177290463E+03  0.11082257688E+04  0.65795550048E+03 0.  0.
         13    1    3    3    0    0 -0.30306296009E+03 -0.47962142801E+01 -0.66135951412E+03  0.72750709163E+03  0.00000000000E+00 0.  1.
          1    1    3    3  501    0  0.30304039922E+03  0.47850893516E+01 -0.23041339051E+03  0.38071867720E+03  0.00000000000E+00 0.  1.
         21    1    1    2  502  501  0.22560863574E-01  0.11124928491E-01  0.23783456813E+00  0.23916111389E+00  0.00000000000E+00 0. -1.
<mgrwt>
<rscale>  1 0.65795550E+03</rscale>
<asrwt>0</asrwt>
<pdfrwt beam="1">  1        3 0.39441876E+00 0.65795550E+03</pdfrwt>
<pdfrwt beam="2">0</pdfrwt>
<totfact> 0.63284778E-02</totfact>
</mgrwt>
</event>
<event>
 6    1  0.6762454E-003  0.6397351E+03  0.7818608E-02  0.9826234E-01
          1   -1    0    0  502    0  0.00000000000E+00  0.00000000000E+00  0.10231588374E+03  0.10231588374E+03  0.00000000000E+00 0.  1.
         13   -1    0    0    0    0 -0.00000000000E+00 -0.00000000000E+00 -0.10000000000E+04  0.10000000000E+04  0.00000000000E+00 0.  1.
    9000005    2    1    2  501    0  0.16145720252E-03  0.47574570522E-03 -0.89768464948E+03  0.11023151511E+04  0.63973507211E+03 0.  0.
         13    1    3    3    0    0  0.13165638822E+03 -0.28855994920E+03 -0.52019666540E+03  0.60926580368E+03  0.00000000000E+00 0.  1.
          1    1    3    3  501    0 -0.13165622676E+03  0.28856042495E+03 -0.37748798408E+03  0.49304934744E+03  0.00000000000E+00 0.  1.
         21    1    1    2  502  501 -0.16145720252E-03 -0.47574570518E-03  0.53322308598E-03  0.73261808855E-03  0.00000000000E+00 0. -1.
<mgrwt>
<rscale>  1 0.63973507E+03</rscale>
<asrwt>0</asrwt>
<pdfrwt beam="1">  1        1 0.37205854E+00 0.63973507E+03</pdfrwt>
<pdfrwt beam="2">0</pdfrwt>
<totfact> 0.17819378E+00</totfact>
</mgrwt>
</event>
<event>
 6    1  0.6762454E-003  0.6641624E+03  0.7818608E-02  0.9780561E-01
          1   -1    0    0  502    0  0.00000000000E+00  0.00000000000E+00  0.11027801122E+03  0.11027801122E+03  0.00000000000E+00 0.  1.
         13   -1    0    0    0    0 -0.00000000000E+00 -0.00000000000E+00 -0.10000000000E+04  0.10000000000E+04  0.00000000000E+00 0.  1.
    9000005    2    1    2  501    0 -0.25115332363E-04  0.42592782165E-04 -0.88972205968E+03  0.11102779248E+04  0.66416242500E+03 0.  0.
         13    1    3    3    0    0 -0.16767702528E+03  0.27707027936E+03 -0.32208041717E+03  0.45674863944E+03  0.00000000000E+00 0.  1.
          1    1    3    3  501    0  0.16767700017E+03 -0.27707023676E+03 -0.56764164251E+03  0.65352928534E+03  0.00000000000E+00 0.  1.
         21    1    1    2  502  501  0.25115332369E-04 -0.42592782130E-04  0.70902200815E-04  0.86441003523E-04  0.00000000000E+00 0. -1.
<mgrwt>
<rscale>  1 0.66416242E+03</rscale>
<asrwt>0</asrwt>
<pdfrwt beam="1">  1        1 0.40101180E+00 0.66416242E+03</pdfrwt>
<pdfrwt beam="2">0</pdfrwt>
<totfact> 0.13205109E+00</totfact>
</mgrwt>
</event>
<event>
 6    1  0.6762454E-003  0.6422880E+03  0.7818608E-02  0.9821359E-01
          1   -1    0    0  502    0  0.00000000000E+00  0.00000000000E+00  0.10918491478E+03  0.10918491478E+03  0.00000000000E+00 0.  1.
         13   -1    0    0    0    0 -0.00000000000E+00 -0.00000000000E+00 -0.10000000000E+04  0.10000000000E+04  0.00000000000E+00 0.  1.
    9000005    2    1    2  501    0 -0.68693376789E+01  0.12902776902E+02 -0.88487548075E+03  0.10934068175E+04  0.64212162612E+03 0.  0.
         13    1    3    3    0    0  0.28918639445E+03  0.10035185807E+03 -0.59893661235E+03  0.67262495624E+03  0.00000000000E+00 0.  1.
          3    1    3    3  501    0 -0.29605573212E+03 -0.87449081167E+02 -0.28593886840E+03  0.42078186128E+03  0.00000000000E+00 0.  1.
         21    1    1    2  502  501  0.68693376789E+01 -0.12902776902E+02 -0.59396044674E+01  0.15778097260E+02  0.00000000000E+00 0. -1.
<mgrwt>
<rscale>  1 0.64228798E+03</rscale>
<asrwt>0</asrwt>
<pdfrwt beam="1">  1        1 0.39703689E+00 0.64228798E+03</pdfrwt>
<pdfrwt beam="2">0</pdfrwt>
<totfact> 0.13811750E+00</totfact>
</mgrwt>
</event>
<event>
 6    1  0.6762454E-003  0.6468528E+03  0.7818608E-02  0.9812703E-01
          1   -1    0    0  502    0  0.00000000000E+00  0.00000000000E+00  0.10461008401E+03  0.10461008401E+03  0.00000000000E+00 0.  1.
         13   -1    0    0    0    0 -0.00000000000E+00 -0.00000000000E+00 -0.10000000000E+04  0.10000000000E+04  0.00000000000E+00 0.  1.
    9000005    2    1    2  501    0 -0.74179095805E-04 -0.38839204223E-04 -0.89539536748E+03  0.11046046319E+04  0.64685278749E+03 0.  0.
         13    1    3    3    0    0 -0.27716124806E+03 -0.12961158900E+03 -0.26870159967E+03  0.40720765107E+03  0.00000000000E+00 0.  1.
          3    1    3    3  501    0  0.27716117388E+03  0.12961155016E+03 -0.62669376780E+03  0.69739698081E+03  0.00000000000E+00 0.  1.
         21    1    1    2  502  501  0.74179095824E-04  0.38839204241E-04  0.54514832016E-02  0.54521262017E-02  0.00000000000E+00 0.  1.
<mgrwt>
<rscale>  1 0.64685279E+03</rscale>
<asrwt>0</asrwt>
<pdfrwt beam="1">  1        1 0.38040111E+00 0.64685279E+03</pdfrwt>
<pdfrwt beam="2">0</pdfrwt>
<totfact> 0.16352439E+00</totfact>
</mgrwt>
</event>
<event>
 6    1  0.6762454E-003  0.6506529E+03  0.7818608E-02  0.9805555E-01
          1   -1    0    0  502    0  0.00000000000E+00  0.00000000000E+00  0.10583730304E+03  0.10583730304E+03  0.00000000000E+00 0.  1.
         13   -1    0    0    0    0 -0.00000000000E+00 -0.00000000000E+00 -0.10000000000E+04  0.10000000000E+04  0.00000000000E+00 0.  1.
    9000005    2    1    2  501    0  0.24850363616E-05 -0.92390699535E-08 -0.89416270026E+03  0.11058372989E+04  0.65065290064E+03 0.  0.
         13    1    3    3    0    0  0.32401656680E+03  0.56235579288E+01 -0.49571848162E+03  0.59224587206E+03  0.00000000000E+00 0.  1.
          1    1    3    3  501    0 -0.32401656431E+03 -0.56235579380E+01 -0.39844421865E+03  0.51359142684E+03  0.00000000000E+00 0.  1.
         21    1    1    2  502  501 -0.24850363492E-05  0.92390706209E-08  0.32987613654E-05  0.41300505521E-05  0.00000000000E+00 0.  1.
<mgrwt>
<rscale>  1 0.65065290E+03</rscale>
<asrwt>0</asrwt>
<pdfrwt beam="1">  1        1 0.38486373E+00 0.65065290E+03</pdfrwt>
<pdfrwt beam="2">0</pdfrwt>
<totfact> 0.15615742E+00</totfact>
</mgrwt>
</event>
<event>
 6    1  0.6762454E-003  0.6511587E+03  0.7818608E-02  0.9804607E-01
          1   -1    0    0  502    0  0.00000000000E+00  0.00000000000E+00  0.10605797270E+03  0.10605797270E+03  0.00000000000E+00 0.  1.
         13   -1    0    0    0    0 -0.00000000000E+00 -0.00000000000E+00 -0.10000000000E+04  0.10000000000E+04  0.00000000000E+00 0.  1.
    9000005    2    1    2  501    0  0.87636455870E-01 -0.98071514352E-01 -0.89389437671E+03  0.11059180844E+04  0.65115868672E+03 0.  0.
         13    1    3    3    0    0  0.43593516612E+02  0.27357786703E+03 -0.15651134107E+03  0.31818397807E+03  0.00000000000E+00 0.  1.
          1    1    3    3  501    0 -0.43505880156E+02 -0.27367593854E+03 -0.73738303565E+03  0.78773410629E+03  0.00000000000E+00 0.  1.
         21    1    1    2  502  501 -0.87636455870E-01  0.98071514352E-01 -0.47650587128E-01  0.13988834397E+00  0.00000000000E+00 0. -1.
<mgrwt>
<rscale>  1 0.65115870E+03</rscale>
<asrwt>0</asrwt>
<pdfrwt beam="1">  1        1 0.38566617E+00 0.65115870E+03</pdfrwt>
<pdfrwt beam="2">0</pdfrwt>
<totfact> 0.15487174E+00</totfact>
</mgrwt>
</event>
<event>
 6    1  0.6762454E-003  0.6423203E+03  0.7818608E-02  0.9821297E-01
          1   -1    0    0  502    0  0.00000000000E+00  0.00000000000E+00  0.10320068415E+03  0.10320068415E+03  0.00000000000E+00 0.  1.
         13   -1    0    0    0    0 -0.00000000000E+00 -0.00000000000E+00 -0.10000000000E+04  0.10000000000E+04  0.00000000000E+00 0.  1.
    9000005    2    1    2  501    0  0.59285917901E-01  0.10307907678E+00 -0.89677728782E+03  0.11030797488E+04  0.64232033612E+03 0.  0.
         13    1    3    3    0    0 -0.24839693569E+03  0.10248441948E+03 -0.75043348946E+03  0.79709128461E+03  0.00000000000E+00 0.  1.
          1    1    3    3  501    0  0.24845622161E+03 -0.10238134040E+03 -0.14634379836E+03  0.30598846422E+03  0.00000000000E+00 0.  1.
         21    1    1    2  502  501 -0.59285917901E-01 -0.10307907678E+00 -0.22028030714E-01  0.12093531440E+00  0.00000000000E+00 0.  1.
<mgrwt>
<rscale>  1 0.64232035E+03</rscale>
<asrwt>0</asrwt>
<pdfrwt beam="1">  1        1 0.37527601E+00 0.64232035E+03</pdfrwt>
<pdfrwt beam="2">0</pdfrwt>
<totfact> 0.17239844E+00</totfact>
</mgrwt>
</event>
<event>
 6    1  0.6762454E-003  0.6631921E+03  0.7818608E-02  0.9782335E-01
          1   -1    0    0  502    0  0.00000000000E+00  0.00000000000E+00  0.11101302123E+03  0.11101302123E+03  0.00000000000E+00 0.  1.
         13   -1    0    0    0    0 -0.00000000000E+00 -0.00000000000E+00 -0.10000000000E+04  0.10000000000E+04  0.00000000000E+00 0.  1.
    9000005    2    1    2  501    0  0.13227542177E-01  0.83373602117E-02 -0.89004399305E+03  0.11099558913E+04  0.66319210705E+03 0.  0.
         13    1    3    3    0    0  0.40519904844E+02 -0.32838369508E+03 -0.48153345002E+03  0.58425352149E+03  0.00000000000E+00 0.  1.
          1    1    3    3  501    0 -0.40506677301E+02  0.32839203244E+03 -0.40851054303E+03  0.52570236983E+03  0.00000000000E+00 0.  1.
         21    1    1    2  502  501 -0.13227542177E-01 -0.83373602117E-02  0.10570142778E+01  0.10571299177E+01  0.00000000000E+00 0. -1.
<mgrwt>
<rscale>  1 0.66319211E+03</rscale>
<asrwt>0</asrwt>
<pdfrwt beam="1">  1        1 0.40368456E+00 0.66319211E+03</pdfrwt>
<pdfrwt beam="2">0</pdfrwt>
<totfact> 0.12849512E+00</totfact>
</mgrwt>
</event>
<event>
 6    1  0.6762454E-003  0.6115188E+03  0.7818608E-02  0.9881792E-01
          1   -1    0    0  502    0  0.00000000000E+00  0.00000000000E+00  0.93494144093E+02  0.93494144093E+02  0.00000000000E+00 0.  1.
         13   -1    0    0    0    0 -0.00000000000E+00 -0.00000000000E+00 -0.10000000000E+04  0.10000000000E+04  0.00000000000E+00 0.  1.
    9000005    2    1    2  501    0  0.70191780850E-04 -0.65763281077E-03 -0.90651115333E+03  0.10934888055E+04  0.61151884415E+03 0.  0.
         13    1    3    3    0    0 -0.17243749317E+03 -0.23745274646E+03 -0.60677140010E+03  0.67401040632E+03  0.00000000000E+00 0.  1.
          1    1    3    3  501    0  0.17243756336E+03  0.23745208883E+03 -0.29973975323E+03  0.41947839923E+03  0.00000000000E+00 0.  1.
         21    1    1    2  502  501 -0.70191780868E-04  0.65763281075E-03  0.52974214769E-02  0.53385468157E-02  0.00000000000E+00 0. -1.
<mgrwt>
<rscale>  1 0.61151884E+03</rscale>
<asrwt>0</asrwt>
<pdfrwt beam="1">  1        1 0.33997942E+00 0.61151884E+03</pdfrwt>
<pdfrwt beam="2">0</pdfrwt>
<totfact> 0.24729131E+00</totfact>
</mgrwt>
</event>
<event>
 6    1  0.6762454E-003  0.6590745E+03  0.7818608E-02  0.9789899E-01
          1   -1    0    0  502    0  0.00000000000E+00  0.00000000000E+00  0.10879378553E+03  0.10879378553E+03  0.00000000000E+00 0.  1.
         13   -1    0    0    0    0 -0.00000000000E+00 -0.00000000000E+00 -0.10000000000E+04  0.10000000000E+04  0.00000000000E+00 0.  1.
    9000005    2    1    2  501    0 -0.23921874117E-01 -0.68808141162E-01 -0.89139777298E+03  0.11085888429E+04  0.65907452358E+03 0.  0.
         13    1    3    3    0    0 -0.28633748137E+03  0.16193143534E+03 -0.47846049251E+03  0.58063360726E+03  0.00000000000E+00 0.  1.
          1    1    3    3  501    0  0.28631355950E+03 -0.16200024348E+03 -0.41293728047E+03  0.52795523564E+03  0.00000000000E+00 0.  1.
         21    1    1    2  502  501  0.23921874117E-01  0.68808141162E-01  0.19155850832E+00  0.20494262236E+00  0.00000000000E+00 0.  1.
<mgrwt>
<rscale>  1 0.65907453E+03</rscale>
<asrwt>0</asrwt>
<pdfrwt beam="1">  1        1 0.39561460E+00 0.65907453E+03</pdfrwt>
<pdfrwt beam="2">0</pdfrwt>
<totfact> 0.13970102E+00</totfact>
</mgrwt>
</event>
<event>
 6    1  0.6762454E-003  0.6451256E+03  0.7818608E-02  0.9815969E-01
          1   -1    0    0  502    0  0.00000000000E+00  0.00000000000E+00  0.10640447014E+03  0.10640447014E+03  0.00000000000E+00 0.  1.
         13   -1    0    0    0    0 -0.00000000000E+00 -0.00000000000E+00 -0.10000000000E+04  0.10000000000E+04  0.00000000000E+00 0.  1.
    9000005    2    1    2  501    0 -0.84429678156E-01  0.31347474067E+00 -0.89594090896E+03  0.11040367290E+04  0.64512547719E+03 0.  0.
         13    1    3    3    0    0  0.61371092741E+01  0.31495793418E+03 -0.32828004213E+03  0.45497686806E+03  0.00000000000E+00 0.  1.
          3    1    3    3  501    0 -0.62215389522E+01 -0.31464445943E+03 -0.56766086683E+03  0.64905986098E+03  0.00000000000E+00 0.  1.
         21    1    1    2  502  501  0.84429678156E-01 -0.31347474067E+00  0.23453791049E+01  0.23677411027E+01  0.00000000000E+00 0.  1.
<mgrwt>
<rscale>  1 0.64512556E+03</rscale>
<asrwt>0</asrwt>
<pdfrwt beam="1">  1        1 0.38692616E+00 0.64512556E+03</pdfrwt>
<pdfrwt beam="2">0</pdfrwt>
<totfact> 0.15306732E+00</totfact>
</mgrwt>
</event>
<event>
 6    1  0.6762454E-003  0.6433185E+03  0.7818608E-02  0.9819398E-01
          1   -1    0    0  502    0  0.00000000000E+00  0.00000000000E+00  0.10431532520E+03  0.10431532520E+03  0.00000000000E+00 0.  1.
         13   -1    0    0    0    0 -0.00000000000E+00 -0.00000000000E+00 -0.10000000000E+04  0.10000000000E+04  0.00000000000E+00 0.  1.
    9000005    2    1    2  501    0  0.50468936004E-01 -0.45608101639E-01 -0.89653381712E+03  0.11034634626E+04  0.64331852408E+03 0.  0.
         13    1    3    3    0    0 -0.87096326717E+02 -0.30893360642E+03 -0.41195697849E+03  0.52223969155E+03  0.00000000000E+00 0.  1.
          1    1    3    3  501    0  0.87146795653E+02  0.30888799832E+03 -0.48457683863E+03  0.58122377105E+03  0.00000000000E+00 0.  1.
         21    1    1    2  502  501 -0.50468936004E-01  0.45608101639E-01  0.84914232364E+00  0.85186260526E+00  0.00000000000E+00 0. -1.
<mgrwt>
<rscale>  1 0.64331853E+03</rscale>
<asrwt>0</asrwt>
<pdfrwt beam="1">  1        1 0.37932926E+00 0.64331853E+03</pdfrwt>
<pdfrwt beam="2">0</pdfrwt>
<totfact> 0.16542220E+00</totfact>
</mgrwt>
</event>
<event>
 6    1  0.6762454E-003  0.6469794E+03  0.7818608E-02  0.9812464E-01
          1   -1    0    0  502    0  0.00000000000E+00  0.00000000000E+00  0.11525953407E+03  0.11525953407E+03  0.00000000000E+00 0.  1.
         13   -1    0    0    0    0 -0.00000000000E+00 -0.00000000000E+00 -0.10000000000E+04  0.10000000000E+04  0.00000000000E+00 0.  1.
    9000005    2    1    2  501    0 -0.12071078071E+00 -0.13943230032E+00 -0.89535353332E+03  0.11046448644E+04  0.64697936044E+03 0.  0.
         13    1    3    3    0    0  0.99707439701E+02  0.51091743821E+02  0.70450230872E+02  0.13234490866E+03  0.00000000000E+00 0.  1.
          3    1    3    3  501    0 -0.99828150482E+02 -0.51231176121E+02 -0.96580376419E+03  0.97229995576E+03  0.00000000000E+00 0.  1.
         21    1    1    2  502  501  0.12071078071E+00  0.13943230032E+00  0.10613067390E+02  0.10614669655E+02  0.00000000000E+00 0.  1.
<mgrwt>
<rscale>  1 0.64697939E+03</rscale>
<asrwt>0</asrwt>
<pdfrwt beam="1">  1        1 0.41912646E+00 0.64697939E+03</pdfrwt>
<pdfrwt beam="2">0</pdfrwt>
<totfact> 0.10988901E+00</totfact>
</mgrwt>
</event>
<event>
 6    1  0.6762454E-003  0.6499351E+03  0.7818608E-02  0.9806901E-01
          1   -1    0    0  502    0  0.00000000000E+00  0.00000000000E+00  0.10561138311E+03  0.10561138311E+03  0.00000000000E+00 0.  1.
         13   -1    0    0    0    0 -0.00000000000E+00 -0.00000000000E+00 -0.10000000000E+04  0.10000000000E+04  0.00000000000E+00 0.  1.
    9000005    2    1    2  501    0 -0.27779898442E-03  0.40378409548E-03 -0.89439608284E+03  0.11056039011E+04  0.64993509916E+03 0.  0.
         13    1    3    3    0    0 -0.27441949312E+02  0.15457983050E+03 -0.93120790067E+03  0.94434958509E+03  0.00000000000E+00 0.  1.
          3    1    3    3  501    0  0.27441671513E+02 -0.15457942671E+03  0.36811817838E+02  0.16125431601E+03  0.00000000000E+00 0.  1.
         21    1    1    2  502  501  0.27779898442E-03 -0.40378409548E-03  0.74659449785E-02  0.74820149889E-02  0.00000000000E+00 0. -1.
<mgrwt>
<rscale>  1 0.64993510E+03</rscale>
<asrwt>0</asrwt>
<pdfrwt beam="1">  1        1 0.38404220E+00 0.64993510E+03</pdfrwt>
<pdfrwt beam="2">0</pdfrwt>
<totfact> 0.15748999E+00</totfact>
</mgrwt>
</event>
<event>
 6    1  0.6762454E-003  0.6474530E+03  0.7818608E-02  0.9811570E-01
          1   -1    0    0  502    0  0.00000000000E+00  0.00000000000E+00  0.10686499045E+03  0.10686499045E+03  0.00000000000E+00 0.  1.
         13   -1    0    0    0    0 -0.00000000000E+00 -0.00000000000E+00 -0.10000000000E+04  0.10000000000E+04  0.00000000000E+00 0.  1.
    9000005    2    1    2  501    0 -0.12033645633E+01 -0.15446850345E+01 -0.89467590157E+03  0.11043733070E+04  0.64745007395E+03 0.  0.
         13    1    3    3    0    0 -0.30613055345E+03  0.29289235551E+02 -0.27285223106E+03  0.41112299263E+03  0.00000000000E+00 0.  1.
          1    1    3    3  501    0  0.30492718889E+03 -0.30833920586E+02 -0.62182367051E+03  0.69325031438E+03  0.00000000000E+00 0.  1.
         21    1    1    2  502  501  0.12033645633E+01  0.15446850345E+01  0.15408920147E+01  0.24916834328E+01  0.00000000000E+00 0. -1.
<mgrwt>
<rscale>  1 0.64745303E+03</rscale>
<asrwt>0</asrwt>
<pdfrwt beam="1">  1        1 0.38860078E+00 0.64745303E+03</pdfrwt>
<pdfrwt beam="2">0</pdfrwt>
<totfact> 0.15041034E+00</totfact>
</mgrwt>
</event>
<event>
 6    1  0.6762454E-003  0.6383390E+03  0.7818608E-02  0.9828910E-01
          1   -1    0    0  502    0  0.00000000000E+00  0.00000000000E+00  0.10186919872E+03  0.10186919872E+03  0.00000000000E+00 0.  1.
         13   -1    0    0    0    0 -0.00000000000E+00 -0.00000000000E+00 -0.10000000000E+04  0.10000000000E+04  0.00000000000E+00 0.  1.
    9000005    2    1    2  501    0 -0.29971965034E-05  0.29067217788E-04 -0.89813082592E+03  0.11018691605E+04  0.63833899018E+03 0.  0.
         13    1    3    3    0    0 -0.19220721672E+03  0.18816515887E+02 -0.88769615843E+03  0.90846141642E+03  0.00000000000E+00 0.  1.
          1    1    3    3  501    0  0.19220721373E+03 -0.18816486820E+02 -0.10434667491E+02  0.19340774408E+03  0.00000000000E+00 0.  1.
         21    1    1    2  502  501  0.29971965102E-05 -0.29067217787E-04  0.24643163989E-04  0.38225277870E-04  0.00000000000E+00 0. -1.
<mgrwt>
<rscale>  1 0.63833899E+03</rscale>
<asrwt>0</asrwt>
<pdfrwt beam="1">  1        1 0.37043423E+00 0.63833899E+03</pdfrwt>
<pdfrwt beam="2">0</pdfrwt>
<totfact> 0.18119274E+00</totfact>
</mgrwt>
</event>
<event>
 6    1  0.6762454E-003  0.6562870E+03  0.7818608E-02  0.9795053E-01
          3   -1    0    0  502    0  0.00000000000E+00  0.00000000000E+00  0.10768400275E+03  0.10768400275E+03  0.00000000000E+00 0.  1.
         13   -1    0    0    0    0 -0.00000000000E+00 -0.00000000000E+00 -0.10000000000E+04  0.10000000000E+04  0.00000000000E+00 0.  1.
    9000005    2    1    2  501    0  0.12515254849E-03  0.28926373062E-04 -0.89232184011E+03  0.11076781585E+04  0.65628700765E+03 0.  0.
         13    1    3    3    0    0  0.26193426790E+03 -0.19576821830E+03 -0.49218026400E+03  0.59091130322E+03  0.00000000000E+00 0.  1.
          3    1    3    3  501    0 -0.26193414274E+03  0.19576824723E+03 -0.40014157611E+03  0.51676685526E+03  0.00000000000E+00 0.  1.
         21    1    1    2  502  501 -0.12515254846E-03 -0.28926373067E-04  0.58428693667E-02  0.58442811647E-02  0.00000000000E+00 0.  1.
<mgrwt>
<rscale>  1 0.65628701E+03</rscale>
<asrwt>0</asrwt>
<pdfrwt beam="1">  1        3 0.39157902E+00 0.65628701E+03</pdfrwt>
<pdfrwt beam="2">0</pdfrwt>
<totfact> 0.65515581E-02</totfact>
</mgrwt>
</event>
<event>
 6    1  0.6762454E-003  0.6509462E+03  0.7818608E-02  0.9805005E-01
          1   -1    0    0  502    0  0.00000000000E+00  0.00000000000E+00  0.10593291134E+03  0.10593291134E+03  0.00000000000E+00 0.  1.
         13   -1    0    0    0    0 -0.00000000000E+00 -0.00000000000E+00 -0.10000000000E+04  0.10000000000E+04  0.00000000000E+00 0.  1.
    9000005    2    1    2  501    0  0.28959043448E-04 -0.79062971622E-04 -0.89406724356E+03  0.11059327350E+04  0.65094621775E+03 0.  0.
         13    1    3    3    0    0  0.21365260357E+03  0.16831102387E+03 -0.14331976895E+03  0.30743550858E+03  0.00000000000E+00 0.  1.
          3    1    3    3  501    0 -0.21365257461E+03 -0.16831110293E+03 -0.75074747462E+03  0.79849722645E+03  0.00000000000E+00 0.  1.
         21    1    1    2  502  501 -0.28959043462E-04  0.79062971639E-04  0.15490316321E-03  0.17630816673E-03  0.00000000000E+00 0. -1.
<mgrwt>
<rscale>  1 0.65094622E+03</rscale>
<asrwt>0</asrwt>
<pdfrwt beam="1">  1        1 0.38521140E+00 0.65094622E+03</pdfrwt>
<pdfrwt beam="2">0</pdfrwt>
<totfact> 0.15559701E+00</totfact>
</mgrwt>
</event>
<event>
 6    1  0.6762454E-003  0.6625919E+03  0.7818608E-02  0.9783434E-01
          1   -1    0    0  502    0  0.00000000000E+00  0.00000000000E+00  0.10975825782E+03  0.10975825782E+03  0.00000000000E+00 0.  1.
         13   -1    0    0    0    0 -0.00000000000E+00 -0.00000000000E+00 -0.10000000000E+04  0.10000000000E+04  0.00000000000E+00 0.  1.
    9000005    2    1    2  501    0  0.18597811811E-03  0.26004428946E-03 -0.89024297723E+03  0.11097569821E+04  0.66259188098E+03 0.  0.
         13    1    3    3    0    0  0.26192795186E+03  0.12954772260E+03 -0.18366863524E+03  0.34514204607E+03  0.00000000000E+00 0.  1.
          3    1    3    3  501    0 -0.26192776588E+03 -0.12954746256E+03 -0.70657434198E+03  0.76461493599E+03  0.00000000000E+00 0.  1.
         21    1    1    2  502  501 -0.18597811811E-03 -0.26004428946E-03  0.12350486693E-02  0.12757570726E-02  0.00000000000E+00 0. -1.
<mgrwt>
<rscale>  1 0.66259188E+03</rscale>
<asrwt>0</asrwt>
<pdfrwt beam="1">  1        1 0.39912178E+00 0.66259188E+03</pdfrwt>
<pdfrwt beam="2">0</pdfrwt>
<totfact> 0.13467846E+00</totfact>
</mgrwt>
</event>
<event>
 6    1  0.6762454E-003  0.6488424E+03  0.7818608E-02  0.9808954E-01
          1   -1    0    0  502    0  0.00000000000E+00  0.00000000000E+00  0.10526019817E+03  0.10526019817E+03  0.00000000000E+00 0.  1.
         13   -1    0    0    0    0 -0.00000000000E+00 -0.00000000000E+00 -0.10000000000E+04  0.10000000000E+04  0.00000000000E+00 0.  1.
    9000005    2    1    2  501    0  0.34117726083E-01  0.53728033637E-03 -0.89469609500E+03  0.11052047491E+04  0.64884237989E+03 0.  0.
         13    1    3    3    0    0 -0.18270426157E+02 -0.94622392339E+02 -0.97500328387E+03  0.97975436165E+03  0.00000000000E+00 0.  1.
          1    1    3    3  501    0  0.18304543883E+02  0.94622929619E+02  0.80307188871E+02  0.12545038749E+03  0.00000000000E+00 0.  1.
         21    1    1    2  502  501 -0.34117726083E-01 -0.53728033638E-03 -0.43706829998E-01  0.55449029673E-01  0.00000000000E+00 0. -1.
<mgrwt>
<rscale>  1 0.64884238E+03</rscale>
<asrwt>0</asrwt>
<pdfrwt beam="1">  1        1 0.38276516E+00 0.64884238E+03</pdfrwt>
<pdfrwt beam="2">0</pdfrwt>
<totfact> 0.15958224E+00</totfact>
</mgrwt>
</event>
<event>
 6    1  0.6762454E-003  0.6477634E+03  0.7818608E-02  0.9810985E-01
          1   -1    0    0  502    0  0.00000000000E+00  0.00000000000E+00  0.10490861504E+03  0.10490861504E+03  0.00000000000E+00 0.  1.
         13   -1    0    0    0    0 -0.00000000000E+00 -0.00000000000E+00 -0.10000000000E+04  0.10000000000E+04  0.00000000000E+00 0.  1.
    9000005    2    1    2  501    0  0.28391105098E-03 -0.52467211511E-02 -0.89509980013E+03  0.11048986942E+04  0.64776343842E+03 0.  0.
         13    1    3    3    0    0 -0.57053240663E+02 -0.26502412647E+03 -0.74984392918E+03  0.79734483005E+03  0.00000000000E+00 0.  1.
          3    1    3    3  501    0  0.57053524574E+02  0.26501887975E+03 -0.14525587095E+03  0.30755386412E+03  0.00000000000E+00 0.  1.
         21    1    1    2  502  501 -0.28391105098E-03  0.52467211511E-02  0.84151707491E-02  0.99208763251E-02  0.00000000000E+00 0.  1.
<mgrwt>
<rscale>  1 0.64776344E+03</rscale>
<asrwt>0</asrwt>
<pdfrwt beam="1">  1        1 0.38148668E+00 0.64776344E+03</pdfrwt>
<pdfrwt beam="2">0</pdfrwt>
<totfact> 0.16170288E+00</totfact>
</mgrwt>
</event>
<event>
 6    1  0.6762454E-003  0.6528153E+03  0.7818608E-02  0.9801511E-01
          1   -1    0    0  502    0  0.00000000000E+00  0.00000000000E+00  0.10655358901E+03  0.10655358901E+03  0.00000000000E+00 0.  1.
         13   -1    0    0    0    0 -0.00000000000E+00 -0.00000000000E+00 -0.10000000000E+04  0.10000000000E+04  0.00000000000E+00 0.  1.
    9000005    2    1    2  501    0 -0.26202617675E-02 -0.24569908487E-03 -0.89345789440E+03  0.11065418079E+04  0.65281525989E+03 0.  0.
         13    1    3    3    0    0  0.98582406125E+02  0.30076024438E+03 -0.31148230307E+03  0.44406805843E+03  0.00000000000E+00 0.  1.
          1    1    3    3  501    0 -0.98585026387E+02 -0.30076049008E+03 -0.58197559133E+03  0.66247374946E+03  0.00000000000E+00 0.  1.
         21    1    1    2  502  501  0.26202617675E-02  0.24569908486E-03  0.11483410789E-01  0.11781123169E-01  0.00000000000E+00 0. -1.
<mgrwt>
<rscale>  1 0.65281526E+03</rscale>
<asrwt>0</asrwt>
<pdfrwt beam="1">  1        1 0.38746841E+00 0.65281526E+03</pdfrwt>
<pdfrwt beam="2">0</pdfrwt>
<totfact> 0.15200608E+00</totfact>
</mgrwt>
</event>
<event>
 6    1  0.6762454E-003  0.6583824E+03  0.7818608E-02  0.9791176E-01
          1   -1    0    0  502    0  0.00000000000E+00  0.00000000000E+00  0.10842144191E+03  0.10842144191E+03  0.00000000000E+00 0.  1.
         13   -1    0    0    0    0 -0.00000000000E+00 -0.00000000000E+00 -0.10000000000E+04  0.10000000000E+04  0.00000000000E+00 0.  1.
    9000005    2    1    2  501    0  0.87832211796E-02 -0.35896884086E-02 -0.89163269896E+03  0.11083664759E+04  0.65838239263E+03 0.  0.
         13    1    3    3    0    0  0.10869645494E+03 -0.25911829631E+03 -0.73453159942E+03  0.78644381957E+03  0.00000000000E+00 0.  1.
          3    1    3    3  501    0 -0.10868767172E+03  0.25911470662E+03 -0.15710109954E+03  0.32192265631E+03  0.00000000000E+00 0.  1.
         21    1    1    2  502  501 -0.87832211796E-02  0.35896884086E-02  0.54140867786E-01  0.54966029525E-01  0.00000000000E+00 0. -1.
<mgrwt>
<rscale>  1 0.65838239E+03</rscale>
<asrwt>0</asrwt>
<pdfrwt beam="1">  1        1 0.39426062E+00 0.65838239E+03</pdfrwt>
<pdfrwt beam="2">0</pdfrwt>
<totfact> 0.14166945E+00</totfact>
</mgrwt>
</event>
<event>
 6    1  0.6762454E-003  0.6760295E+03  0.7818608E-02  0.9759126E-01
          1   -1    0    0  502    0  0.00000000000E+00  0.00000000000E+00  0.14395509259E+03  0.14395509259E+03  0.00000000000E+00 0.  1.
         13   -1    0    0    0    0 -0.00000000000E+00 -0.00000000000E+00 -0.10000000000E+04  0.10000000000E+04  0.00000000000E+00 0.  1.
    9000005    2    1    2  501    0  0.37538063949E+00 -0.23533607754E+00 -0.88574418198E+03  0.11142525135E+04  0.67602937190E+03 0.  0.
         13    1    3    3    0    0  0.33577010438E+03  0.36991667477E+02 -0.46974251670E+03  0.57859137434E+03  0.00000000000E+00 0.  1.
          1    1    3    3  501    0 -0.33539472375E+03 -0.37227003554E+02 -0.41600166528E+03  0.53566113918E+03  0.00000000000E+00 0.  1.
         21    1    1    2  502  501 -0.37538063949E+00  0.23533607754E+00  0.29699274575E+02  0.29702579079E+02  0.00000000000E+00 0. -1.
<mgrwt>
<rscale>  1 0.67602952E+03</rscale>
<asrwt>0</asrwt>
<pdfrwt beam="1">  1        1 0.52347417E+00 0.67602952E+03</pdfrwt>
<pdfrwt beam="2">0</pdfrwt>
<totfact> 0.35327685E-01</totfact>
</mgrwt>
</event>
<event>
 6    1  0.6762454E-003  0.6412084E+03  0.7818608E-02  0.9823417E-01
          1   -1    0    0  502    0  0.00000000000E+00  0.00000000000E+00  0.10278736216E+03  0.10278736216E+03  0.00000000000E+00 0.  1.
         13   -1    0    0    0    0 -0.00000000000E+00 -0.00000000000E+00 -0.10000000000E+04  0.10000000000E+04  0.00000000000E+00 0.  1.
    9000005    2    1    2  501    0  0.92871511985E-04  0.65203853410E-05 -0.89721294834E+03  0.11027870380E+04  0.64120837214E+03 0.  0.
         13    1    3    3    0    0 -0.19780235515E+02  0.28476616212E+03 -0.69963509642E+03  0.75562708590E+03  0.00000000000E+00 0.  1.
          1    1    3    3  501    0  0.19780328387E+02 -0.28476615560E+03 -0.19757785192E+03  0.34715995209E+03  0.00000000000E+00 0.  1.
         21    1    1    2  502  501 -0.92871511984E-04 -0.65203853340E-05  0.31050630559E-03  0.32416322891E-03  0.00000000000E+00 0. -1.
<mgrwt>
<rscale>  1 0.64120837E+03</rscale>
<asrwt>0</asrwt>
<pdfrwt beam="1">  1        1 0.37377301E+00 0.64120837E+03</pdfrwt>
<pdfrwt beam="2">0</pdfrwt>
<totfact> 0.17507983E+00</totfact>
</mgrwt>
</event>
<event>
 6    1  0.6762454E-003  0.6727329E+03  0.7818608E-02  0.9765033E-01
          1   -1    0    0  502    0  0.00000000000E+00  0.00000000000E+00  0.11338314872E+03  0.11338314872E+03  0.00000000000E+00 0.  1.
         13   -1    0    0    0    0 -0.00000000000E+00 -0.00000000000E+00 -0.10000000000E+04  0.10000000000E+04  0.00000000000E+00 0.  1.
    9000005    2    1    2  501    0  0.28087984453E-01  0.24158467183E-01 -0.88685603381E+03  0.11131411139E+04  0.67273286927E+03 0.  0.
         13    1    3    3    0    0  0.11372019104E+02  0.33518560269E+03 -0.40054825443E+03  0.52241517512E+03  0.00000000000E+00 0.  1.
          3    1    3    3  501    0 -0.11343931119E+02 -0.33516144423E+03 -0.48630777938E+03  0.59072593879E+03  0.00000000000E+00 0.  1.
         21    1    1    2  502  501 -0.28087984453E-01 -0.24158467183E-01  0.23918252661E+00  0.24203480626E+00  0.00000000000E+00 0. -1.
<mgrwt>
<rscale>  1 0.67273287E+03</rscale>
<asrwt>0</asrwt>
<pdfrwt beam="1">  1        1 0.41230323E+00 0.67273287E+03</pdfrwt>
<pdfrwt beam="2">0</pdfrwt>
<totfact> 0.11735220E+00</totfact>
</mgrwt>
</event>
<event>
 6    1  0.6762454E-003  0.6531090E+03  0.7818608E-02  0.9800963E-01
          1   -1    0    0  502    0  0.00000000000E+00  0.00000000000E+00  0.10663800811E+03  0.10663800811E+03  0.00000000000E+00 0.  1.
         13   -1    0    0    0    0 -0.00000000000E+00 -0.00000000000E+00 -0.10000000000E+04  0.10000000000E+04  0.00000000000E+00 0.  1.
    9000005    2    1    2  501    0 -0.53234433352E-04 -0.17658220099E-03 -0.89336209379E+03  0.11066377974E+04  0.65310901387E+03 0.  0.
         13    1    3    3    0    0 -0.97031229876E+02  0.30140599953E+03 -0.58199208232E+03  0.66255220172E+03  0.00000000000E+00 0.  1.
          1    1    3    3  501    0  0.97031176641E+02 -0.30140617611E+03 -0.31137001147E+03  0.44408559567E+03  0.00000000000E+00 0.  1.
         21    1    1    2  502  501  0.53234433351E-04  0.17658220097E-03  0.10189888992E-03  0.21070966366E-03  0.00000000000E+00 0.  1.
<mgrwt>
<rscale>  1 0.65310901E+03</rscale>
<asrwt>0</asrwt>
<pdfrwt beam="1">  1        1 0.38777539E+00 0.65310901E+03</pdfrwt>
<pdfrwt beam="2">0</pdfrwt>
<totfact> 0.15152269E+00</totfact>
</mgrwt>
</event>
<event>
 6    1  0.6762454E-003  0.6505167E+03  0.7818608E-02  0.9805810E-01
          1   -1    0    0  502    0  0.00000000000E+00  0.00000000000E+00  0.10579301384E+03  0.10579301384E+03  0.00000000000E+00 0.  1.
         13   -1    0    0    0    0 -0.00000000000E+00 -0.00000000000E+00 -0.10000000000E+04  0.10000000000E+04  0.00000000000E+00 0.  1.
    9000005    2    1    2  501    0 -0.40207053189E-05 -0.77979246953E-05 -0.89420698400E+03  0.11057930048E+04  0.65051674785E+03 0.  0.
         13    1    3    3    0    0 -0.13591974533E+03  0.25679321674E+03 -0.69563378580E+03  0.75387220222E+03  0.00000000000E+00 0.  1.
          1    1    3    3  501    0  0.13591974131E+03 -0.25679322454E+03 -0.19857319820E+03  0.35192080258E+03  0.00000000000E+00 0.  1.
         21    1    1    2  502  501  0.40207053005E-05  0.77979246834E-05 -0.21646002125E-05  0.90365477125E-05  0.00000000000E+00 0. -1.
<mgrwt>
<rscale>  1 0.65051675E+03</rscale>
<asrwt>0</asrwt>
<pdfrwt beam="1">  1        1 0.38470268E+00 0.65051675E+03</pdfrwt>
<pdfrwt beam="2">0</pdfrwt>
<totfact> 0.15641767E+00</totfact>
</mgrwt>
</event>
<event>
 6    1  0.7293479E-003  0.6458804E+03  0.7818608E-02  0.9814540E-01
          1   -1    0    0  502    0  0.00000000000E+00  0.00000000000E+00  0.10429038384E+03  0.10429038384E+03  0.00000000000E+00 0.  1.
         13   -1    0    0    0    0 -0.00000000000E+00 -0.00000000000E+00 -0.10000000000E+04  0.10000000000E+04  0.00000000000E+00 0.  1.
    9000005    2    1    2  501    0  0.31526074338E-05  0.62635309632E-05 -0.89570961556E+03  0.11042903768E+04  0.64588042306E+03 0.  0.
         13    1    3    3    0    0  0.16743889908E+03 -0.27572060256E+03 -0.47393854617E+03  0.57330217263E+03  0.00000000000E+00 0.  1.
          3    1    3    3  501    0 -0.16743889592E+03  0.27572060882E+03 -0.42177106939E+03  0.53098820417E+03  0.00000000000E+00 0.  1.
         21    1    1    2  502  501 -0.31526074273E-05 -0.62635309704E-05 -0.59947251031E-06  0.70377639274E-05  0.00000000000E+00 0. -1.
<mgrwt>
<rscale>  1 0.64588042E+03</rscale>
<asrwt>0</asrwt>
<pdfrwt beam="1">  1        1 0.37923856E+00 0.64588042E+03</pdfrwt>
<pdfrwt beam="2">0</pdfrwt>
<totfact> 0.16549662E+00</totfact>
</mgrwt>
</event>
<event>
 6    1  0.6762454E-003  0.6472642E+03  0.7818608E-02  0.9811926E-01
          1   -1    0    0  502    0  0.00000000000E+00  0.00000000000E+00  0.10585334735E+03  0.10585334735E+03  0.00000000000E+00 0.  1.
         13   -1    0    0    0    0 -0.00000000000E+00 -0.00000000000E+00 -0.10000000000E+04  0.10000000000E+04  0.00000000000E+00 0.  1.
    9000005    2    1    2  501    0  0.20102494803E+00 -0.53930350157E-01 -0.89525153959E+03  0.11047290277E+04  0.64726413636E+03 0.  0.
         13    1    3    3    0    0  0.13737538731E+03 -0.24679571769E+03 -0.71756867473E+03  0.77115817201E+03  0.00000000000E+00 0.  1.
          1    1    3    3  501    0 -0.13717436236E+03  0.24674178734E+03 -0.17768286486E+03  0.33357085570E+03  0.00000000000E+00 0.  1.
         21    1    1    2  502  501 -0.20102494803E+00  0.53930350157E-01  0.11048869351E+01  0.11243196395E+01  0.00000000000E+00 0. -1.
<mgrwt>
<rscale>  1 0.64726417E+03</rscale>
<asrwt>0</asrwt>
<pdfrwt beam="1">  1        1 0.38492207E+00 0.64726417E+03</pdfrwt>
<pdfrwt beam="2">0</pdfrwt>
<totfact> 0.15616251E+00</totfact>
</mgrwt>
</event>
<event>
 6    1  0.6762454E-003  0.6521595E+03  0.7818608E-02  0.9802735E-01
          1   -1    0    0  502    0  0.00000000000E+00  0.00000000000E+00  0.10633437742E+03  0.10633437742E+03  0.00000000000E+00 0.  1.
         13   -1    0    0    0    0 -0.00000000000E+00 -0.00000000000E+00 -0.10000000000E+04  0.10000000000E+04  0.00000000000E+00 0.  1.
    9000005    2    1    2  501    0  0.10523271605E-02 -0.56965593606E-03 -0.89367193724E+03  0.11063279504E+04  0.65215949154E+03 0.  0.
         13    1    3    3    0    0 -0.92711474502E+02 -0.20281752262E+03 -0.85041567421E+03  0.87916846163E+03  0.00000000000E+00 0.  1.
          3    1    3    3  501    0  0.92712526830E+02  0.20281695296E+03 -0.43256263021E+02  0.22715948875E+03  0.00000000000E+00 0.  1.
         21    1    1    2  502  501 -0.10523271605E-02  0.56965593606E-03  0.63146511302E-02  0.64270303589E-02  0.00000000000E+00 0. -1.
<mgrwt>
<rscale>  1 0.65215949E+03</rscale>
<asrwt>0</asrwt>
<pdfrwt beam="1">  1        1 0.38667128E+00 0.65215949E+03</pdfrwt>
<pdfrwt beam="2">0</pdfrwt>
<totfact> 0.15326512E+00</totfact>
</mgrwt>
</event>
<event>
 6    1  0.6762454E-003  0.6167372E+03  0.7818608E-02  0.9871278E-01
          1   -1    0    0  502    0  0.00000000000E+00  0.00000000000E+00  0.95727322210E+02  0.95727322210E+02  0.00000000000E+00 0.  1.
         13   -1    0    0    0    0 -0.00000000000E+00 -0.00000000000E+00 -0.10000000000E+04  0.10000000000E+04  0.00000000000E+00 0.  1.
    9000005    2    1    2  501    0  0.65433940097E-01  0.13916023672E-01 -0.90490688459E+03  0.10950895969E+04  0.61673718151E+03 0.  0.
         13    1    3    3    0    0  0.10982667797E+03 -0.17289131889E+03 -0.86179253567E+03  0.88579889472E+03  0.00000000000E+00 0.  1.
          1    1    3    3  501    0 -0.10976124403E+03  0.17290523491E+03 -0.43114348918E+02  0.20929070222E+03  0.00000000000E+00 0.  1.
         21    1    1    2  502  501 -0.65433940097E-01 -0.13916023672E-01  0.63420680348E+00  0.63772527456E+00  0.00000000000E+00 0.  1.
<mgrwt>
<rscale>  1 0.61673719E+03</rscale>
<asrwt>0</asrwt>
<pdfrwt beam="1">  1        1 0.34810009E+00 0.61673719E+03</pdfrwt>
<pdfrwt beam="2">0</pdfrwt>
<totfact> 0.22776737E+00</totfact>
</mgrwt>
</event>
<event>
 6    1  0.6762454E-003  0.6464048E+03  0.7818608E-02  0.9813549E-01
          1   -1    0    0  502    0  0.00000000000E+00  0.00000000000E+00  0.10446019935E+03  0.10446019935E+03  0.00000000000E+00 0.  1.
         13   -1    0    0    0    0 -0.00000000000E+00 -0.00000000000E+00 -0.10000000000E+04  0.10000000000E+04  0.00000000000E+00 0.  1.
    9000005    2    1    2  501    0 -0.31943187025E-04  0.25020859454E-04 -0.89554020502E+03  0.11044597929E+04  0.64640480770E+03 0.  0.
         13    1    3    3    0    0  0.27400157122E+03 -0.47649656608E+02 -0.16643131460E+03  0.32410913792E+03  0.00000000000E+00 0.  1.
          3    1    3    3  501    0 -0.27400160317E+03  0.47649681629E+02 -0.72910889043E+03  0.78035065502E+03  0.00000000000E+00 0.  1.
         21    1    1    2  502  501  0.31943187048E-04 -0.25020859451E-04  0.40437700048E-03  0.40640763911E-03  0.00000000000E+00 0.  1.
<mgrwt>
<rscale>  1 0.64640481E+03</rscale>
<asrwt>0</asrwt>
<pdfrwt beam="1">  1        1 0.37985607E+00 0.64640481E+03</pdfrwt>
<pdfrwt beam="2">0</pdfrwt>
<totfact> 0.16444599E+00</totfact>
</mgrwt>
</event>
<event>
 6    1  0.6762454E-003  0.6634877E+03  0.7818608E-02  0.9781794E-01
          1   -1    0    0  502    0  0.00000000000E+00  0.00000000000E+00  0.11223672287E+03  0.11223672287E+03  0.00000000000E+00 0.  1.
         13   -1    0    0    0    0 -0.00000000000E+00 -0.00000000000E+00 -0.10000000000E+04  0.10000000000E+04  0.00000000000E+00 0.  1.
    9000005    2    1    2  501    0 -0.44941743216E-01 -0.85352061845E-01 -0.88994482839E+03  0.11100530401E+04  0.66348771266E+03 0.  0.
         13    1    3    3    0    0  0.20295564325E+03  0.16766571815E+03 -0.10728328516E+03  0.28427537608E+03  0.00000000000E+00 0.  1.
          1    1    3    3  501    0 -0.20300058500E+03 -0.16775107021E+03 -0.78266154323E+03  0.82577766397E+03  0.00000000000E+00 0.  1.
         21    1    1    2  502  501  0.44941743216E-01  0.85352061845E-01  0.21815512638E+01  0.21836828184E+01  0.00000000000E+00 0. -1.
<mgrwt>
<rscale>  1 0.66348772E+03</rscale>
<asrwt>0</asrwt>
<pdfrwt beam="1">  1        1 0.40813440E+00 0.66348772E+03</pdfrwt>
<pdfrwt beam="2">0</pdfrwt>
<totfact> 0.12273076E+00</totfact>
</mgrwt>
</event>
<event>
 6    1  0.6762454E-003  0.6475157E+03  0.7818608E-02  0.9811452E-01
          1   -1    0    0  502    0  0.00000000000E+00  0.00000000000E+00  0.10497951776E+03  0.10497951776E+03  0.00000000000E+00 0.  1.
         13   -1    0    0    0    0 -0.00000000000E+00 -0.00000000000E+00 -0.10000000000E+04  0.10000000000E+04  0.00000000000E+00 0.  1.
    9000005    2    1    2  501    0  0.12174198357E+00  0.35402743159E+00 -0.89488903066E+03  0.11045827356E+04  0.64751563884E+03 0.  0.
         13    1    3    3    0    0  0.29381184265E+03  0.12093205401E+03 -0.55479399777E+03  0.63933273069E+03  0.00000000000E+00 0.  1.
          3    1    3    3  501    0 -0.29369010066E+03 -0.12057802657E+03 -0.34009503289E+03  0.46525000496E+03  0.00000000000E+00 0.  1.
         21    1    1    2  502  501 -0.12174198357E+00 -0.35402743159E+00 -0.13145157718E+00  0.39678211909E+00  0.00000000000E+00 0. -1.
<mgrwt>
<rscale>  1 0.64751575E+03</rscale>
<asrwt>0</asrwt>
<pdfrwt beam="1">  1        1 0.38174451E+00 0.64751575E+03</pdfrwt>
<pdfrwt beam="2">0</pdfrwt>
<totfact> 0.16128689E+00</totfact>
</mgrwt>
</event>
<event>
 6    1  0.6762454E-003  0.6476565E+03  0.7818608E-02  0.9811187E-01
          1   -1    0    0  502    0  0.00000000000E+00  0.00000000000E+00  0.10486493864E+03  0.10486493864E+03  0.00000000000E+00 0.  1.
         13   -1    0    0    0    0 -0.00000000000E+00 -0.00000000000E+00 -0.10000000000E+04  0.10000000000E+04  0.00000000000E+00 0.  1.
    9000005    2    1    2  501    0 -0.13633416792E-04 -0.55469677562E-04 -0.89513527241E+03  0.11048647200E+04  0.64765646262E+03 0.  0.
         13    1    3    3    0    0  0.40235434261E+02 -0.14844892847E+03 -0.93371266335E+03  0.94629557340E+03  0.00000000000E+00 0.  1.
          1    1    3    3  501    0 -0.40235447895E+02  0.14844887300E+03  0.38577390935E+02  0.15856914660E+03  0.00000000000E+00 0.  1.
         21    1    1    2  502  501  0.13633416791E-04  0.55469677562E-04  0.21105504922E-03  0.21864809394E-03  0.00000000000E+00 0.  1.
<mgrwt>
<rscale>  1 0.64765646E+03</rscale>
<asrwt>0</asrwt>
<pdfrwt beam="1">  1        1 0.38132785E+00 0.64765646E+03</pdfrwt>
<pdfrwt beam="2">0</pdfrwt>
<totfact> 0.16196738E+00</totfact>
</mgrwt>
</event>
<event>
 6    1  0.6762454E-003  0.6469391E+03  0.7818608E-02  0.9812540E-01
          1   -1    0    0  502    0  0.00000000000E+00  0.00000000000E+00  0.10498413292E+03  0.10498413292E+03  0.00000000000E+00 0.  1.
         13   -1    0    0    0    0 -0.00000000000E+00 -0.00000000000E+00 -0.10000000000E+04  0.10000000000E+04  0.00000000000E+00 0.  1.
    9000005    2    1    2  501    0 -0.89468831772E-01 -0.16413451642E+00 -0.89533978174E+03  0.11046101469E+04  0.64693911384E+03 0.  0.
         13    1    3    3    0    0  0.13822090963E+03  0.19559910915E+03 -0.81862025072E+03  0.85293794982E+03  0.00000000000E+00 0.  1.
          1    1    3    3  501    0 -0.13831037846E+03 -0.19576324367E+03 -0.76719531019E+02  0.25167219712E+03  0.00000000000E+00 0.  1.
         21    1    1    2  502  501  0.89468831772E-01  0.16413451642E+00  0.32391465411E+00  0.37398598167E+00  0.00000000000E+00 0. -1.
<mgrwt>
<rscale>  1 0.64693914E+03</rscale>
<asrwt>0</asrwt>
<pdfrwt beam="1">  1        1 0.38176129E+00 0.64693914E+03</pdfrwt>
<pdfrwt beam="2">0</pdfrwt>
<totfact> 0.16127650E+00</totfact>
</mgrwt>
</event>
<event>
 6    1  0.6762454E-003  0.6366125E+03  0.7818608E-02  0.9832229E-01
          1   -1    0    0  502    0  0.00000000000E+00  0.00000000000E+00  0.10217733905E+03  0.10217733905E+03  0.00000000000E+00 0.  1.
         13   -1    0    0    0    0 -0.00000000000E+00 -0.00000000000E+00 -0.10000000000E+04  0.10000000000E+04  0.00000000000E+00 0.  1.
    9000005    2    1    2  501    0  0.96607413395E+00  0.11849872245E+01 -0.89785892754E+03  0.11006480225E+04  0.63661061734E+03 0.  0.
         13    1    3    3    0    0 -0.27114024522E+03  0.61743354720E+02 -0.71523092518E+03  0.76738813566E+03  0.00000000000E+00 0.  1.
          1    1    3    3  501    0  0.27210631935E+03 -0.60558367495E+02 -0.18262800236E+03  0.33325988680E+03  0.00000000000E+00 0.  1.
         21    1    1    2  502  501 -0.96607413395E+00 -0.11849872245E+01  0.36266586284E-01  0.15293165858E+01  0.00000000000E+00 0. -1.
<mgrwt>
<rscale>  1 0.63661245E+03</rscale>
<asrwt>0</asrwt>
<pdfrwt beam="1">  1        1 0.37155474E+00 0.63661245E+03</pdfrwt>
<pdfrwt beam="2">0</pdfrwt>
<totfact> 0.17920687E+00</totfact>
</mgrwt>
</event>
<event>
 6    1  0.6762454E-003  0.4992427E+03  0.7818608E-02  0.1013977E+00
          1   -1    0    0  502    0  0.00000000000E+00  0.00000000000E+00  0.67795523672E+02  0.67795523672E+02  0.00000000000E+00 0.  1.
         13   -1    0    0    0    0 -0.00000000000E+00 -0.00000000000E+00 -0.10000000000E+04  0.10000000000E+04  0.00000000000E+00 0.  1.
    9000005    2    1    2  501    0 -0.11138508173E+00  0.89644060989E-01 -0.93768818795E+03  0.10623099484E+04  0.49924269476E+03 0.  0.
         13    1    3    3    0    0  0.20479108567E+03  0.11876913006E+03 -0.63706146420E+03  0.67962695959E+03  0.00000000000E+00 0.  1.
          1    1    3    3  501    0 -0.20490247075E+03 -0.11867948600E+03 -0.30062672374E+03  0.38268298884E+03  0.00000000000E+00 0.  1.
         21    1    1    2  502  501  0.11138508173E+00 -0.89644060989E-01  0.54837116175E+01  0.54855752477E+01  0.00000000000E+00 0. -1.
<mgrwt>
<rscale>  1 0.49924272E+03</rscale>
<asrwt>0</asrwt>
<pdfrwt beam="1">  1        1 0.24652970E+00 0.49924272E+03</pdfrwt>
<pdfrwt beam="2">0</pdfrwt>
<totfact> 0.63952618E+00</totfact>
</mgrwt>
</event>
<event>
 6    1  0.6762454E-003  0.6553214E+03  0.7818608E-02  0.9796845E-01
          1   -1    0    0  502    0  0.00000000000E+00  0.00000000000E+00  0.10736384988E+03  0.10736384988E+03  0.00000000000E+00 0.  1.
         13   -1    0    0    0    0 -0.00000000000E+00 -0.00000000000E+00 -0.10000000000E+04  0.10000000000E+04  0.00000000000E+00 0.  1.
    9000005    2    1    2  501    0  0.14593662183E-02 -0.17920564173E-02 -0.89263781295E+03  0.11073610027E+04  0.65532139082E+03 0.  0.
         13    1    3    3    0    0 -0.14878968289E+03 -0.27083068685E+03 -0.63045452535E+03  0.70211148631E+03  0.00000000000E+00 0.  1.
          1    1    3    3  501    0  0.14879114226E+03  0.27082889479E+03 -0.26218328761E+03  0.40524951643E+03  0.00000000000E+00 0.  1.
         21    1    1    2  502  501 -0.14593662183E-02  0.17920564173E-02  0.16628369394E-02  0.28471464046E-02  0.00000000000E+00 0.  1.
<mgrwt>
<rscale>  1 0.65532139E+03</rscale>
<asrwt>0</asrwt>
<pdfrwt beam="1">  1        1 0.39041482E+00 0.65532139E+03</pdfrwt>
<pdfrwt beam="2">0</pdfrwt>
<totfact> 0.14743477E+00</totfact>
</mgrwt>
</event>
<event>
 6    1  0.6762454E-003  0.6542771E+03  0.7818608E-02  0.9798786E-01
          1   -1    0    0  502    0  0.00000000000E+00  0.00000000000E+00  0.10932208731E+03  0.10932208731E+03  0.00000000000E+00 0.  1.
         13   -1    0    0    0    0 -0.00000000000E+00 -0.00000000000E+00 -0.10000000000E+04  0.10000000000E+04  0.00000000000E+00 0.  1.
    9000005    2    1    2  501    0  0.24305884446E+01 -0.21588641683E+00 -0.89224169409E+03  0.11064238500E+04  0.65427252795E+03 0.  0.
         13    1    3    3    0    0  0.18267790149E+03 -0.23018416810E+03 -0.69310443855E+03  0.75282782207E+03  0.00000000000E+00 0.  1.
          1    1    3    3  501    0 -0.18024731304E+03  0.22996828168E+03 -0.19913725554E+03  0.35359602795E+03  0.00000000000E+00 0.  1.
         21    1    1    2  502  501 -0.24305884446E+01  0.21588641683E+00  0.15637814056E+01  0.28982372947E+01  0.00000000000E+00 0.  1.
<mgrwt>
<rscale>  1 0.65427708E+03</rscale>
<asrwt>0</asrwt>
<pdfrwt beam="1">  1        1 0.39753570E+00 0.65427708E+03</pdfrwt>
<pdfrwt beam="2">0</pdfrwt>
<totfact> 0.13710104E+00</totfact>
</mgrwt>
</event>
<event>
 6    1  0.6762454E-003  0.6461443E+03  0.7818608E-02  0.9814041E-01
          1   -1    0    0  502    0  0.00000000000E+00  0.00000000000E+00  0.10440108845E+03  0.10440108845E+03  0.00000000000E+00 0.  1.
         13   -1    0    0    0    0 -0.00000000000E+00 -0.00000000000E+00 -0.10000000000E+04  0.10000000000E+04  0.00000000000E+00 0.  1.
    9000005    2    1    2  501    0 -0.38523349111E-01  0.68605212374E-01 -0.89549843150E+03  0.11042734681E+04  0.64614429135E+03 0.  0.
         13    1    3    3    0    0  0.28883279065E+03  0.72180336658E+01 -0.69472854974E+03  0.75241227980E+03  0.00000000000E+00 0.  1.
          3    1    3    3  501    0 -0.28887131400E+03 -0.71494284534E+01 -0.20076988176E+03  0.35186118826E+03  0.00000000000E+00 0.  1.
         21    1    1    2  502  501  0.38523349110E-01 -0.68605212374E-01 -0.10048004941E+00  0.12762038991E+00  0.00000000000E+00 0.  1.
<mgrwt>
<rscale>  1 0.64614430E+03</rscale>
<asrwt>0</asrwt>
<pdfrwt beam="1">  1        1 0.37964112E+00 0.64614430E+03</pdfrwt>
<pdfrwt beam="2">0</pdfrwt>
<totfact> 0.16481334E+00</totfact>
</mgrwt>
</event>
<event>
 6    1  0.6762454E-003  0.6507794E+03  0.7818608E-02  0.9805318E-01
          1   -1    0    0  502    0  0.00000000000E+00  0.00000000000E+00  0.10587895225E+03  0.10587895225E+03  0.00000000000E+00 0.  1.
         13   -1    0    0    0    0 -0.00000000000E+00 -0.00000000000E+00 -0.10000000000E+04  0.10000000000E+04  0.00000000000E+00 0.  1.
    9000005    2    1    2  501    0  0.57703545082E-04  0.34703094127E-03 -0.89412145797E+03  0.11058784118E+04  0.65077944049E+03 0.  0.
         13    1    3    3    0    0  0.43645338433E+02 -0.28270632916E+03 -0.71059438911E+03  0.76601055472E+03  0.00000000000E+00 0.  1.
          3    1    3    3  501    0 -0.43645280730E+02  0.28270667619E+03 -0.18352706886E+03  0.33986785712E+03  0.00000000000E+00 0.  1.
         21    1    1    2  502  501 -0.57703545076E-04 -0.34703094128E-03  0.41022290240E-03  0.54041003227E-03  0.00000000000E+00 0. -1.
<mgrwt>
<rscale>  1 0.65077944E+03</rscale>
<asrwt>0</asrwt>
<pdfrwt beam="1">  1        1 0.38501518E+00 0.65077944E+03</pdfrwt>
<pdfrwt beam="2">0</pdfrwt>
<totfact> 0.15591309E+00</totfact>
</mgrwt>
</event>
<event>
 6    1  0.6762454E-003  0.6507180E+03  0.7818608E-02  0.9805433E-01
          1   -1    0    0  502    0  0.00000000000E+00  0.00000000000E+00  0.10585848536E+03  0.10585848536E+03  0.00000000000E+00 0.  1.
         13   -1    0    0    0    0 -0.00000000000E+00 -0.00000000000E+00 -0.10000000000E+04  0.10000000000E+04  0.00000000000E+00 0.  1.
    9000005    2    1    2  501    0 -0.53014962447E-05  0.71972016542E-05 -0.89414152354E+03  0.11058584727E+04  0.65071798624E+03 0.  0.
         13    1    3    3    0    0 -0.12610570162E+03 -0.83287351449E+02  0.42590335473E+02  0.15701390884E+03  0.00000000000E+00 0.  1.
          3    1    3    3  501    0  0.12610569632E+03  0.83287358646E+02 -0.93673185902E+03  0.94884456391E+03  0.00000000000E+00 0.  1.
         21    1    1    2  502  501  0.53014962409E-05 -0.71972016471E-05  0.89073309494E-05  0.12619275676E-04  0.00000000000E+00 0. -1.
<mgrwt>
<rscale>  1 0.65071799E+03</rscale>
<asrwt>0</asrwt>
<pdfrwt beam="1">  1        1 0.38494076E+00 0.65071799E+03</pdfrwt>
<pdfrwt beam="2">0</pdfrwt>
<totfact> 0.15603309E+00</totfact>
</mgrwt>
</event>
<event>
 6    1  0.6762454E-003  0.6419458E+03  0.7818608E-02  0.9822011E-01
          1   -1    0    0  502    0  0.00000000000E+00  0.00000000000E+00  0.10302778270E+03  0.10302778270E+03  0.00000000000E+00 0.  1.
         13   -1    0    0    0    0 -0.00000000000E+00 -0.00000000000E+00 -0.10000000000E+04  0.10000000000E+04  0.00000000000E+00 0.  1.
    9000005    2    1    2  501    0  0.14686485718E-02  0.18482482558E-03 -0.89697626461E+03  0.11030234732E+04  0.64194576339E+03 0.  0.
         13    1    3    3    0    0  0.25500970417E+03 -0.88676918965E+02 -0.15023311504E+03  0.30897173662E+03  0.00000000000E+00 0.  1.
          3    1    3    3  501    0 -0.25500823552E+03  0.88677103790E+02 -0.74674314958E+03  0.79405173658E+03  0.00000000000E+00 0.  1.
         21    1    1    2  502  501 -0.14686485718E-02 -0.18482482558E-03  0.40473115780E-02  0.43095034346E-02  0.00000000000E+00 0. -1.
<mgrwt>
<rscale>  1 0.64194576E+03</rscale>
<asrwt>0</asrwt>
<pdfrwt beam="1">  1        1 0.37464727E+00 0.64194576E+03</pdfrwt>
<pdfrwt beam="2">0</pdfrwt>
<totfact> 0.17351245E+00</totfact>
</mgrwt>
</event>
<event>
 6    1  0.8066422E-003  0.6668605E+03  0.7818608E-02  0.9775646E-01
          1   -1    0    0  502    0  0.00000000000E+00  0.00000000000E+00  0.11117572193E+03  0.11117572193E+03  0.00000000000E+00 0.  1.
         13   -1    0    0    0    0 -0.00000000000E+00 -0.00000000000E+00 -0.10000000000E+04  0.10000000000E+04  0.00000000000E+00 0.  1.
    9000005    2    1    2  501    0 -0.17031477171E-05 -0.94876537773E-05 -0.88882428015E+03  0.11111757121E+04  0.66686045176E+03 0.  0.
         13    1    3    3    0    0 -0.13816327540E+03 -0.19357962239E+02 -0.94902766879E+03  0.95922746912E+03  0.00000000000E+00 0.  1.
          3    1    3    3  501    0  0.13816327369E+03  0.19357952751E+02  0.60203388649E+02  0.15194824296E+03  0.00000000000E+00 0.  1.
         21    1    1    2  502  501  0.17031477341E-05  0.94876537791E-05  0.20791203621E-05  0.98609851392E-05  0.00000000000E+00 0.  1.
<mgrwt>
<rscale>  1 0.66686045E+03</rscale>
<asrwt>0</asrwt>
<pdfrwt beam="1">  1        1 0.40427620E+00 0.66686045E+03</pdfrwt>
<pdfrwt beam="2">0</pdfrwt>
<totfact> 0.12762708E+00</totfact>
</mgrwt>
</event>
<event>
 6    1  0.6762454E-003  0.6542631E+03  0.7818608E-02  0.9798813E-01
          1   -1    0    0  502    0  0.00000000000E+00  0.00000000000E+00  0.10701528217E+03  0.10701528217E+03  0.00000000000E+00 0.  1.
         13   -1    0    0    0    0 -0.00000000000E+00 -0.00000000000E+00 -0.10000000000E+04  0.10000000000E+04  0.00000000000E+00 0.  1.
    9000005    2    1    2  501    0  0.76365218433E-05 -0.55860075179E-05 -0.89298495716E+03  0.11070150427E+04  0.65426307472E+03 0.  0.
         13    1    3    3    0    0 -0.15601803267E+03  0.14071246152E+03 -0.87075497306E+03  0.89574318108E+03  0.00000000000E+00 0.  1.
          1    1    3    3  501    0  0.15601804030E+03 -0.14071246710E+03 -0.22229984096E+02  0.21127186157E+03  0.00000000000E+00 0.  1.
         21    1    1    2  502  501 -0.76365218416E-05  0.55860075284E-05  0.23932969416E-03  0.23951664338E-03  0.00000000000E+00 0.  1.
<mgrwt>
<rscale>  1 0.65426307E+03</rscale>
<asrwt>0</asrwt>
<pdfrwt beam="1">  1        1 0.38914730E+00 0.65426307E+03</pdfrwt>
<pdfrwt beam="2">0</pdfrwt>
<totfact> 0.14938455E+00</totfact>
</mgrwt>
</event>
