<event>
 6    1  0.2558947E-003  0.6618484E+03  0.7818608E-02  0.9784797E-01
          1   -1    0    0  502    0  0.00000000000E+00  0.00000000000E+00  0.10989839578E+03  0.10989839578E+03  0.00000000000E+00 0.  1.
         13   -1    0    0    0    0 -0.00000000000E+00 -0.00000000000E+00 -0.10000000000E+04  0.10000000000E+04  0.00000000000E+00 0.  1.
    9000005    2    1    2  501    0 -0.26783130422E+00  0.10073231820E+01 -0.88942049677E+03  0.11086532689E+04  0.66184753844E+03 0.  0.
         13    1    3    3    0    0  0.16405834861E+03 -0.49402216647E+02  0.29447328402E+02  0.17384724878E+03  0.00000000000E+00 0.  1.
          3    1    3    3  501    0 -0.16432617992E+03  0.50409539829E+02 -0.91886782517E+03  0.93480602012E+03  0.00000000000E+00 0.  1.
         21    1    1    2  502  501  0.26783130422E+00 -0.10073231820E+01 -0.68110744576E+00  0.12451268824E+01  0.00000000000E+00 0.  1.
<mgrwt>
<rscale>  1 0.66184836E+03</rscale>
<asrwt>0</asrwt>
<pdfrwt beam="1">  1        1 0.39963137E+00 0.66184836E+03</pdfrwt>
<pdfrwt beam="2">0</pdfrwt>
<totfact> 0.13399448E+00</totfact>
</mgrwt>
</event>
<event>
 6    1  0.2558947E-003  0.6638582E+03  0.7818608E-02  0.9781117E-01
          1   -1    0    0  502    0  0.00000000000E+00  0.00000000000E+00  0.11270297060E+03  0.11270297060E+03  0.00000000000E+00 0.  1.
         13   -1    0    0    0    0 -0.00000000000E+00 -0.00000000000E+00 -0.10000000000E+04  0.10000000000E+04  0.00000000000E+00 0.  1.
    9000005    2    1    2  501    0 -0.19686591556E+01  0.77449453189E+00 -0.88932142130E+03  0.11097748956E+04  0.66385484336E+03 0.  0.
         13    1    3    3    0    0  0.12602074845E+03 -0.27952932301E+03 -0.65313419546E+03  0.72152764933E+03  0.00000000000E+00 0.  1.
          1    1    3    3  501    0 -0.12798940760E+03  0.28030381754E+03 -0.23618722584E+03  0.38824724627E+03  0.00000000000E+00 0.  1.
         21    1    1    2  502  501  0.19686591556E+01 -0.77449453189E+00  0.20243918979E+01  0.29280750003E+01  0.00000000000E+00 0.  1.
<mgrwt>
<rscale>  1 0.66385821E+03</rscale>
<asrwt>0</asrwt>
<pdfrwt beam="1">  1        1 0.40982985E+00 0.66385821E+03</pdfrwt>
<pdfrwt beam="2">0</pdfrwt>
<totfact> 0.12059345E+00</totfact>
</mgrwt>
</event>
<event>
 6    1  0.2558947E-003  0.6617325E+03  0.7818608E-02  0.9785010E-01
          1   -1    0    0  502    0  0.00000000000E+00  0.00000000000E+00  0.10947381603E+03  0.10947381603E+03  0.00000000000E+00 0.  1.
         13   -1    0    0    0    0 -0.00000000000E+00 -0.00000000000E+00 -0.10000000000E+04  0.10000000000E+04  0.00000000000E+00 0.  1.
    9000005    2    1    2  501    0 -0.14361158512E-03  0.97052185595E-05 -0.89052752100E+03  0.11094724713E+04  0.66173249797E+03 0.  0.
         13    1    3    3    0    0  0.20917560412E+03  0.18203678105E+03 -0.14263245948E+03  0.31182662091E+03  0.00000000000E+00 0.  1.
          3    1    3    3  501    0 -0.20917574773E+03 -0.18203677134E+03 -0.74789506152E+03  0.79764585036E+03  0.00000000000E+00 0.  1.
         21    1    1    2  502  501  0.14361158512E-03 -0.97052185614E-05  0.13370295280E-02  0.13447551589E-02  0.00000000000E+00 0.  1.
<mgrwt>
<rscale>  1 0.66173250E+03</rscale>
<asrwt>0</asrwt>
<pdfrwt beam="1">  1        1 0.39808744E+00 0.66173250E+03</pdfrwt>
<pdfrwt beam="2">0</pdfrwt>
<totfact> 0.13613715E+00</totfact>
</mgrwt>
</event>
<event>
 6    1  0.2558947E-003  0.6373393E+03  0.7818608E-02  0.9830831E-01
          1   -1    0    0  502    0  0.00000000000E+00  0.00000000000E+00  0.10155038369E+03  0.10155038369E+03  0.00000000000E+00 0.  1.
         13   -1    0    0    0    0 -0.00000000000E+00 -0.00000000000E+00 -0.10000000000E+04  0.10000000000E+04  0.00000000000E+00 0.  1.
    9000005    2    1    2  501    0 -0.18818226820E-04 -0.12030386273E-04 -0.89844966397E+03  0.11015503311E+04  0.63733926065E+03 0.  0.
         13    1    3    3    0    0 -0.12158842615E+03  0.17783483505E+03 -0.85508124075E+03  0.88180094251E+03  0.00000000000E+00 0.  1.
          3    1    3    3  501    0  0.12158840733E+03 -0.17783484708E+03 -0.43368423215E+02  0.21974938854E+03  0.00000000000E+00 0.  1.
         21    1    1    2  502  501  0.18818226824E-04  0.12030386259E-04  0.47654954402E-04  0.52629369495E-04  0.00000000000E+00 0. -1.
<mgrwt>
<rscale>  1 0.63733926E+03</rscale>
<asrwt>0</asrwt>
<pdfrwt beam="1">  1        1 0.36927490E+00 0.63733926E+03</pdfrwt>
<pdfrwt beam="2">0</pdfrwt>
<totfact> 0.18336276E+00</totfact>
</mgrwt>
</event>
<event>
 6    1  0.2558947E-003  0.6437842E+03  0.7818608E-02  0.9818513E-01
          1   -1    0    0  502    0  0.00000000000E+00  0.00000000000E+00  0.10362402887E+03  0.10362402887E+03  0.00000000000E+00 0.  1.
         13   -1    0    0    0    0 -0.00000000000E+00 -0.00000000000E+00 -0.10000000000E+04  0.10000000000E+04  0.00000000000E+00 0.  1.
    9000005    2    1    2  501    0 -0.40292318591E-02 -0.48537928476E-02 -0.89638429441E+03  0.11036135852E+04  0.64378423563E+03 0.  0.
         13    1    3    3    0    0  0.25087462759E+03 -0.18751636160E+03 -0.57548621481E+03  0.65519832729E+03  0.00000000000E+00 0.  1.
          3    1    3    3  501    0 -0.25087865682E+03  0.18751150781E+03 -0.32089807960E+03  0.44841525788E+03  0.00000000000E+00 0.  1.
         21    1    1    2  502  501  0.40292318591E-02  0.48537928476E-02  0.83232765010E-02  0.10443703658E-01  0.00000000000E+00 0. -1.
<mgrwt>
<rscale>  1 0.64378424E+03</rscale>
<asrwt>0</asrwt>
<pdfrwt beam="1">  1        1 0.37681545E+00 0.64378424E+03</pdfrwt>
<pdfrwt beam="2">0</pdfrwt>
<totfact> 0.16968262E+00</totfact>
</mgrwt>
</event>
<event>
 6    1  0.2558947E-003  0.6492328E+03  0.7818608E-02  0.9808220E-01
          1   -1    0    0  502    0  0.00000000000E+00  0.00000000000E+00  0.10563123638E+03  0.10563123638E+03  0.00000000000E+00 0.  1.
         13   -1    0    0    0    0 -0.00000000000E+00 -0.00000000000E+00 -0.10000000000E+04  0.10000000000E+04  0.00000000000E+00 0.  1.
    9000005    2    1    2  501    0  0.15911608658E-01  0.42673466866E-01 -0.89462194711E+03  0.11053739893E+04  0.64923279785E+03 0.  0.
         13    1    3    3    0    0 -0.96783022996E+02 -0.29600113960E+03 -0.29144081978E+03  0.42652242569E+03  0.00000000000E+00 0.  1.
          3    1    3    3  501    0  0.96798934605E+02  0.29604381306E+03 -0.60318112733E+03  0.67885156357E+03  0.00000000000E+00 0.  1.
         21    1    1    2  502  501 -0.15911608658E-01 -0.42673466866E-01  0.25318348917E+00  0.25724712487E+00  0.00000000000E+00 0.  1.
<mgrwt>
<rscale>  1 0.64923280E+03</rscale>
<asrwt>0</asrwt>
<pdfrwt beam="1">  1        1 0.38411440E+00 0.64923280E+03</pdfrwt>
<pdfrwt beam="2">0</pdfrwt>
<totfact> 0.15739468E+00</totfact>
</mgrwt>
</event>
<event>
 6    1  0.2558947E-003  0.6539775E+03  0.7818608E-02  0.9799344E-01
          1   -1    0    0  502    0  0.00000000000E+00  0.00000000000E+00  0.10692676871E+03  0.10692676871E+03  0.00000000000E+00 0.  1.
         13   -1    0    0    0    0 -0.00000000000E+00 -0.00000000000E+00 -0.10000000000E+04  0.10000000000E+04  0.00000000000E+00 0.  1.
    9000005    2    1    2  501    0  0.36584091532E-04 -0.31433555253E-03 -0.89307834302E+03  0.11069216472E+04  0.65397752733E+03 0.  0.
         13    1    3    3    0    0  0.20127783530E+03 -0.24579686552E+03 -0.31550912278E+03  0.44774420447E+03  0.00000000000E+00 0.  1.
          1    1    3    3  501    0 -0.20127779871E+03  0.24579655118E+03 -0.57756922024E+03  0.65917744272E+03  0.00000000000E+00 0.  1.
         21    1    1    2  502  501 -0.36584091540E-04  0.31433555253E-03  0.51117331289E-02  0.51215193856E-02  0.00000000000E+00 0.  1.
<mgrwt>
<rscale>  1 0.65397753E+03</rscale>
<asrwt>0</asrwt>
<pdfrwt beam="1">  1        1 0.38882543E+00 0.65397753E+03</pdfrwt>
<pdfrwt beam="2">0</pdfrwt>
<totfact> 0.14988401E+00</totfact>
</mgrwt>
</event>
<event>
 6    1  0.2558947E-003  0.6284210E+03  0.7818608E-02  0.9848135E-01
          1   -1    0    0  502    0  0.00000000000E+00  0.00000000000E+00  0.99426927239E+02  0.99426927239E+02  0.00000000000E+00 0.  1.
         13   -1    0    0    0    0 -0.00000000000E+00 -0.00000000000E+00 -0.10000000000E+04  0.10000000000E+04  0.00000000000E+00 0.  1.
    9000005    2    1    2  501    0 -0.18491643266E-01  0.88250741634E+00 -0.90095230328E+03  0.10984662103E+04  0.62842038731E+03 0.  0.
         13    1    3    3    0    0  0.41893809871E+02 -0.19483703322E+03 -0.26079768895E+02  0.20098934093E+03  0.00000000000E+00 0.  1.
          1    1    3    3  501    0 -0.41912301514E+02  0.19571954064E+03 -0.87487253439E+03  0.89747686936E+03  0.00000000000E+00 0.  1.
         21    1    1    2  502  501  0.18491643266E-01 -0.88250741634E+00  0.37923052134E+00  0.96071695576E+00  0.00000000000E+00 0.  1.
<mgrwt>
<rscale>  1 0.62842101E+03</rscale>
<asrwt>0</asrwt>
<pdfrwt beam="1">  1        1 0.36155323E+00 0.62842101E+03</pdfrwt>
<pdfrwt beam="2">0</pdfrwt>
<totfact> 0.19854495E+00</totfact>
</mgrwt>
</event>
<event>
 6    1  0.5183873E-003  0.6586359E+03  0.7818608E-02  0.9790708E-01
          1   -1    0    0  502    0  0.00000000000E+00  0.00000000000E+00  0.10845041229E+03  0.10845041229E+03  0.00000000000E+00 0.  1.
         13   -1    0    0    0    0 -0.00000000000E+00 -0.00000000000E+00 -0.10000000000E+04  0.10000000000E+04  0.00000000000E+00 0.  1.
    9000005    2    1    2  501    0 -0.23923811693E-03  0.90266171640E-05 -0.89154946983E+03  0.11084501454E+04  0.65863591443E+03 0.  0.
         13    1    3    3    0    0 -0.61175743260E+02  0.14077769571E+03  0.44565712946E+02  0.15983408255E+03  0.00000000000E+00 0.  1.
          1    1    3    3  501    0  0.61175504021E+02 -0.14077768668E+03 -0.93611518277E+03  0.94861606289E+03  0.00000000000E+00 0.  1.
         21    1    1    2  502  501  0.23923811693E-03 -0.90266171623E-05 -0.11787992393E-03  0.26685582789E-03  0.00000000000E+00 0. -1.
<mgrwt>
<rscale>  1 0.65863591E+03</rscale>
<asrwt>0</asrwt>
<pdfrwt beam="1">  1        1 0.39436597E+00 0.65863591E+03</pdfrwt>
<pdfrwt beam="2">0</pdfrwt>
<totfact> 0.14151010E+00</totfact>
</mgrwt>
</event>
<event>
 6    1  0.2558947E-003  0.6480449E+03  0.7818608E-02  0.9810455E-01
          1   -1    0    0  502    0  0.00000000000E+00  0.00000000000E+00  0.10856034900E+03  0.10856034900E+03  0.00000000000E+00 0.  1.
         13   -1    0    0    0    0 -0.00000000000E+00 -0.00000000000E+00 -0.10000000000E+04  0.10000000000E+04  0.00000000000E+00 0.  1.
    9000005    2    1    2  501    0 -0.14041381547E+01 -0.18458858321E+01 -0.89458845981E+03  0.11046496080E+04  0.64804078967E+03 0.  0.
         13    1    3    3    0    0 -0.98100232345E+02  0.21816910253E+03 -0.81823690111E+03  0.85248638653E+03  0.00000000000E+00 0.  1.
          1    1    3    3  501    0  0.96696094191E+02 -0.22001498836E+03 -0.76351558696E+02  0.25216322144E+03  0.00000000000E+00 0.  1.
         21    1    1    2  502  501  0.14041381547E+01  0.18458858321E+01  0.31488088095E+01  0.39107410271E+01  0.00000000000E+00 0. -1.
<mgrwt>
<rscale>  1 0.64804494E+03</rscale>
<asrwt>0</asrwt>
<pdfrwt beam="1">  1        1 0.39476574E+00 0.64804494E+03</pdfrwt>
<pdfrwt beam="2">0</pdfrwt>
<totfact> 0.14121236E+00</totfact>
</mgrwt>
</event>
<event>
 6    1  0.2558947E-003  0.6541532E+03  0.7818608E-02  0.9799017E-01
          1   -1    0    0  502    0  0.00000000000E+00  0.00000000000E+00  0.10718852699E+03  0.10718852699E+03  0.00000000000E+00 0.  1.
         13   -1    0    0    0    0 -0.00000000000E+00 -0.00000000000E+00 -0.10000000000E+04  0.10000000000E+04  0.00000000000E+00 0.  1.
    9000005    2    1    2  501    0  0.80518075157E-02 -0.38034505175E-01 -0.89301891178E+03  0.11069774765E+04  0.65415315886E+03 0.  0.
         13    1    3    3    0    0  0.74632094676E+02  0.22914520965E+03 -0.72308796233E+02  0.25160691301E+03  0.00000000000E+00 0.  1.
          1    1    3    3  501    0 -0.74624042869E+02 -0.22918324416E+03 -0.82071011554E+03  0.85537056352E+03  0.00000000000E+00 0.  1.
         21    1    1    2  502  501 -0.80518075157E-02  0.38034505175E-01  0.20743876379E+00  0.21105045821E+00  0.00000000000E+00 0.  1.
<mgrwt>
<rscale>  1 0.65415316E+03</rscale>
<asrwt>0</asrwt>
<pdfrwt beam="1">  1        1 0.38977728E+00 0.65415316E+03</pdfrwt>
<pdfrwt beam="2">0</pdfrwt>
<totfact> 0.14842994E+00</totfact>
</mgrwt>
</event>
<event>
 6    1  0.2558947E-003  0.6604812E+03  0.7818608E-02  0.9787308E-01
          1   -1    0    0  502    0  0.00000000000E+00  0.00000000000E+00  0.10907154847E+03  0.10907154847E+03  0.00000000000E+00 0.  1.
         13   -1    0    0    0    0 -0.00000000000E+00 -0.00000000000E+00 -0.10000000000E+04  0.10000000000E+04  0.00000000000E+00 0.  1.
    9000005    2    1    2  501    0  0.17378485958E-03  0.70391522911E-04 -0.89094114705E+03  0.11090588516E+04  0.66048119483E+03 0.  0.
         13    1    3    3    0    0 -0.17373340985E+03  0.28075230727E+03 -0.43316716396E+03  0.54464570839E+03  0.00000000000E+00 0.  1.
          3    1    3    3  501    0  0.17373358364E+03 -0.28075223687E+03 -0.45777398309E+03  0.56441314317E+03  0.00000000000E+00 0.  1.
         21    1    1    2  502  501 -0.17378485958E-03 -0.70391522888E-04  0.12695525422E-01  0.12696909934E-01  0.00000000000E+00 0.  1.
<mgrwt>
<rscale>  1 0.66048119E+03</rscale>
<asrwt>0</asrwt>
<pdfrwt beam="1">  1        1 0.39662465E+00 0.66048119E+03</pdfrwt>
<pdfrwt beam="2">0</pdfrwt>
<totfact> 0.13822653E+00</totfact>
</mgrwt>
</event>
<event>
 6    1  0.2558947E-003  0.6511820E+03  0.7818608E-02  0.9804564E-01
          1   -1    0    0  502    0  0.00000000000E+00  0.00000000000E+00  0.10600951422E+03  0.10600951422E+03  0.00000000000E+00 0.  1.
         13   -1    0    0    0    0 -0.00000000000E+00 -0.00000000000E+00 -0.10000000000E+04  0.10000000000E+04  0.00000000000E+00 0.  1.
    9000005    2    1    2  501    0  0.81351004724E-05 -0.39203977451E-05 -0.89399050609E+03  0.11060094920E+04  0.65118198026E+03 0.  0.
         13    1    3    3    0    0  0.16261156520E+03 -0.18899554881E+03 -0.80265087481E+03  0.84048216248E+03  0.00000000000E+00 0.  1.
          1    1    3    3  501    0 -0.16261155707E+03  0.18899554489E+03 -0.91339631277E+02  0.26552732952E+03  0.00000000000E+00 0.  1.
         21    1    1    2  502  501 -0.81351004653E-05  0.39203977504E-05  0.20307457157E-04  0.22224810332E-04  0.00000000000E+00 0. -1.
<mgrwt>
<rscale>  1 0.65118198E+03</rscale>
<asrwt>0</asrwt>
<pdfrwt beam="1">  1        1 0.38548996E+00 0.65118198E+03</pdfrwt>
<pdfrwt beam="2">0</pdfrwt>
<totfact> 0.15514936E+00</totfact>
</mgrwt>
</event>
<event>
 6    1  0.2558947E-003  0.6534597E+03  0.7818608E-02  0.9800309E-01
          1   -1    0    0  502    0  0.00000000000E+00  0.00000000000E+00  0.10687947629E+03  0.10687947629E+03  0.00000000000E+00 0.  1.
         13   -1    0    0    0    0 -0.00000000000E+00 -0.00000000000E+00 -0.10000000000E+04  0.10000000000E+04  0.00000000000E+00 0.  1.
    9000005    2    1    2  501    0 -0.95601770741E-03 -0.22944867940E-02 -0.89324759443E+03  0.11067523813E+04  0.65345969154E+03 0.  0.
         13    1    3    3    0    0  0.14998647227E+03 -0.28305906892E+03 -0.33772076301E+03  0.46548221462E+03  0.00000000000E+00 0.  1.
          3    1    3    3  501    0 -0.14998742828E+03  0.28305677443E+03 -0.55552683142E+03  0.64127016664E+03  0.00000000000E+00 0.  1.
         21    1    1    2  502  501  0.95601770743E-03  0.22944867941E-02  0.12707071827E+00  0.12709502776E+00  0.00000000000E+00 0. -1.
<mgrwt>
<rscale>  1 0.65345969E+03</rscale>
<asrwt>0</asrwt>
<pdfrwt beam="1">  1        1 0.38865346E+00 0.65345969E+03</pdfrwt>
<pdfrwt beam="2">0</pdfrwt>
<totfact> 0.15016168E+00</totfact>
</mgrwt>
</event>
<event>
 6    1  0.2558947E-003  0.6498081E+03  0.7818608E-02  0.9807139E-01
          1   -1    0    0  502    0  0.00000000000E+00  0.00000000000E+00  0.10570507116E+03  0.10570507116E+03  0.00000000000E+00 0.  1.
         13   -1    0    0    0    0 -0.00000000000E+00 -0.00000000000E+00 -0.10000000000E+04  0.10000000000E+04  0.00000000000E+00 0.  1.
    9000005    2    1    2  501    0  0.28956703802E-02  0.12180044954E+00 -0.89440798427E+03  0.11055388627E+04  0.64980806374E+03 0.  0.
         13    1    3    3    0    0  0.23222508225E+03  0.16275344964E+03 -0.17735193947E+03  0.33447105201E+03  0.00000000000E+00 0.  1.
          3    1    3    3  501    0 -0.23222218658E+03 -0.16263164919E+03 -0.71705604480E+03  0.77106781066E+03  0.00000000000E+00 0.  1.
         21    1    1    2  502  501 -0.28956703802E-02 -0.12180044954E+00  0.11305542978E+00  0.16620849743E+00  0.00000000000E+00 0. -1.
<mgrwt>
<rscale>  1 0.64980808E+03</rscale>
<asrwt>0</asrwt>
<pdfrwt beam="1">  1        1 0.38438289E+00 0.64980808E+03</pdfrwt>
<pdfrwt beam="2">0</pdfrwt>
<totfact> 0.15694837E+00</totfact>
</mgrwt>
</event>
<event>
 6    1  0.2558947E-003  0.6398319E+03  0.7818608E-02  0.9826048E-01
          1   -1    0    0  502    0  0.00000000000E+00  0.00000000000E+00  0.10630482391E+03  0.10630482391E+03  0.00000000000E+00 0.  1.
         13   -1    0    0    0    0 -0.00000000000E+00 -0.00000000000E+00 -0.10000000000E+04  0.10000000000E+04  0.00000000000E+00 0.  1.
    9000005    2    1    2  501    0  0.44213658373E+01 -0.70254881385E+00 -0.89620933966E+03  0.11011703260E+04  0.63981627381E+03 0.  0.
         13    1    3    3    0    0  0.29795541403E+03 -0.61457644788E+02 -0.26935803615E+03  0.40633511107E+03  0.00000000000E+00 0.  1.
          3    1    3    3  501    0 -0.29353404819E+03  0.60755095975E+02 -0.62685130352E+03  0.69483521489E+03  0.00000000000E+00 0.  1.
         21    1    1    2  502  501 -0.44213658373E+01  0.70254881385E+00  0.25141635742E+01  0.51344979483E+01  0.00000000000E+00 0. -1.
<mgrwt>
<rscale>  1 0.63983194E+03</rscale>
<asrwt>0</asrwt>
<pdfrwt beam="1">  1        1 0.38656381E+00 0.63983194E+03</pdfrwt>
<pdfrwt beam="2">0</pdfrwt>
<totfact> 0.15378598E+00</totfact>
</mgrwt>
</event>
<event>
 6    1  0.2558947E-003  0.6656349E+03  0.7818608E-02  0.9777876E-01
          1   -1    0    0  502    0  0.00000000000E+00  0.00000000000E+00  0.11506822954E+03  0.11506822954E+03  0.00000000000E+00 0.  1.
         13   -1    0    0    0    0 -0.00000000000E+00 -0.00000000000E+00 -0.10000000000E+04  0.10000000000E+04  0.00000000000E+00 0.  1.
    9000005    2    1    2  501    0 -0.46381030121E+01  0.59779527728E+01 -0.88514638009E+03  0.11074989511E+04  0.66559189040E+03 0.  0.
         13    1    3    3    0    0  0.98780573069E+01  0.14004139537E+03  0.60078151865E+02  0.15270413473E+03  0.00000000000E+00 0.  1.
          3    1    3    3  501    0 -0.14516160319E+02 -0.13406344259E+03 -0.94522453195E+03  0.95479481636E+03  0.00000000000E+00 0.  1.
         21    1    1    2  502  501  0.46381030121E+01 -0.59779527728E+01  0.21460962447E+00  0.75692784462E+01  0.00000000000E+00 0.  1.
<mgrwt>
<rscale>  1 0.66563489E+03</rscale>
<asrwt>0</asrwt>
<pdfrwt beam="1">  1        1 0.41843081E+00 0.66563489E+03</pdfrwt>
<pdfrwt beam="2">0</pdfrwt>
<totfact> 0.11028218E+00</totfact>
</mgrwt>
</event>
<event>
 6    1  0.2558947E-003  0.6575558E+03  0.7818608E-02  0.9792704E-01
          1   -1    0    0  502    0  0.00000000000E+00  0.00000000000E+00  0.10817596286E+03  0.10817596286E+03  0.00000000000E+00 0.  1.
         13   -1    0    0    0    0 -0.00000000000E+00 -0.00000000000E+00 -0.10000000000E+04  0.10000000000E+04  0.00000000000E+00 0.  1.
    9000005    2    1    2  501    0 -0.95838700823E-01  0.82931667609E-02 -0.89187216635E+03  0.11080683977E+04  0.65755577992E+03 0.  0.
         13    1    3    3    0    0  0.69619000642E+02  0.31674532300E+02 -0.98473949812E+03  0.98770540162E+03  0.00000000000E+00 0.  1.
          1    1    3    3  501    0 -0.69714839343E+02 -0.31666239133E+02  0.92867331765E+02  0.12036299612E+03  0.00000000000E+00 0.  1.
         21    1    1    2  502  501  0.95838700823E-01 -0.82931667609E-02  0.48129211237E-01  0.10756511593E+00  0.00000000000E+00 0. -1.
<mgrwt>
<rscale>  1 0.65755579E+03</rscale>
<asrwt>0</asrwt>
<pdfrwt beam="1">  1        1 0.39336797E+00 0.65755579E+03</pdfrwt>
<pdfrwt beam="2">0</pdfrwt>
<totfact> 0.14299138E+00</totfact>
</mgrwt>
</event>
<event>
 6    1  0.2558947E-003  0.6499154E+03  0.7818608E-02  0.9806938E-01
          1   -1    0    0  502    0  0.00000000000E+00  0.00000000000E+00  0.10571953083E+03  0.10571953083E+03  0.00000000000E+00 0.  1.
         13   -1    0    0    0    0 -0.00000000000E+00 -0.00000000000E+00 -0.10000000000E+04  0.10000000000E+04  0.00000000000E+00 0.  1.
    9000005    2    1    2  501    0  0.38648081441E-02  0.76158253833E-02 -0.89440233748E+03  0.11055973636E+04  0.64991537074E+03 0.  0.
         13    1    3    3    0    0 -0.12746212554E+03  0.19494805327E+03 -0.61726360300E+02  0.24095949966E+03  0.00000000000E+00 0.  1.
          3    1    3    3  501    0  0.12746599035E+03 -0.19494043745E+03 -0.83267597718E+03  0.86463786398E+03  0.00000000000E+00 0.  1.
         21    1    1    2  502  501 -0.38648081441E-02 -0.76158253833E-02  0.12186830912E+00  0.12216718998E+00  0.00000000000E+00 0.  1.
<mgrwt>
<rscale>  1 0.64991537E+03</rscale>
<asrwt>0</asrwt>
<pdfrwt beam="1">  1        1 0.38443547E+00 0.64991537E+03</pdfrwt>
<pdfrwt beam="2">0</pdfrwt>
<totfact> 0.15686126E+00</totfact>
</mgrwt>
</event>
<event>
 6    1  0.2558947E-003  0.6368305E+03  0.7818608E-02  0.9831810E-01
          1   -1    0    0  502    0  0.00000000000E+00  0.00000000000E+00  0.10164998805E+03  0.10164998805E+03  0.00000000000E+00 0.  1.
         13   -1    0    0    0    0 -0.00000000000E+00 -0.00000000000E+00 -0.10000000000E+04  0.10000000000E+04  0.00000000000E+00 0.  1.
    9000005    2    1    2  501    0  0.80549343876E-02  0.13466968292E-02 -0.89861167308E+03  0.11013881995E+04  0.63683045385E+03 0.  0.
         13    1    3    3    0    0  0.15644555951E+03  0.18105343313E+03 -0.85976679545E+02  0.25425882122E+03  0.00000000000E+00 0.  1.
          1    1    3    3  501    0 -0.15643750458E+03 -0.18105208644E+03 -0.81263499353E+03  0.84712937829E+03  0.00000000000E+00 0.  1.
         21    1    1    2  502  501 -0.80549343876E-02 -0.13466968292E-02  0.26166112855E+00  0.26178854397E+00  0.00000000000E+00 0.  1.
<mgrwt>
<rscale>  1 0.63683045E+03</rscale>
<asrwt>0</asrwt>
<pdfrwt beam="1">  1        1 0.36963710E+00 0.63683045E+03</pdfrwt>
<pdfrwt beam="2">0</pdfrwt>
<totfact> 0.18270947E+00</totfact>
</mgrwt>
</event>
<event>
 6    1  0.2558947E-003  0.6470147E+03  0.7818608E-02  0.9812397E-01
          1   -1    0    0  502    0  0.00000000000E+00  0.00000000000E+00  0.10521905005E+03  0.10521905005E+03  0.00000000000E+00 0.  1.
         13   -1    0    0    0    0 -0.00000000000E+00 -0.00000000000E+00 -0.10000000000E+04  0.10000000000E+04  0.00000000000E+00 0.  1.
    9000005    2    1    2  501    0  0.12400816080E+00  0.51246233973E-01 -0.89533414687E+03  0.11046498128E+04  0.64701464930E+03 0.  0.
         13    1    3    3    0    0 -0.15571112201E+03  0.26351984825E+03 -0.26889658637E+03  0.40742365923E+03  0.00000000000E+00 0.  1.
          1    1    3    3  501    0  0.15583513017E+03 -0.26346860201E+03 -0.62643756050E+03  0.69722615359E+03  0.00000000000E+00 0.  1.
         21    1    1    2  502  501 -0.12400816080E+00 -0.51246233973E-01  0.55319691358E+00  0.56923723142E+00  0.00000000000E+00 0.  1.
<mgrwt>
<rscale>  1 0.64701466E+03</rscale>
<asrwt>0</asrwt>
<pdfrwt beam="1">  1        1 0.38261553E+00 0.64701466E+03</pdfrwt>
<pdfrwt beam="2">0</pdfrwt>
<totfact> 0.15987921E+00</totfact>
</mgrwt>
</event>
<event>
 6    1  0.2558947E-003  0.6414290E+03  0.7818608E-02  0.9822996E-01
          1   -1    0    0  502    0  0.00000000000E+00  0.00000000000E+00  0.10285908336E+03  0.10285908336E+03  0.00000000000E+00 0.  1.
         13   -1    0    0    0    0 -0.00000000000E+00 -0.00000000000E+00 -0.10000000000E+04  0.10000000000E+04  0.00000000000E+00 0.  1.
    9000005    2    1    2  501    0 -0.20129921882E-03  0.23084941132E-02 -0.89714092795E+03  0.11028567661E+04  0.64142903105E+03 0.  0.
         13    1    3    3    0    0  0.30782403834E+03 -0.89746515537E+02 -0.43672543382E+03  0.54179256194E+03  0.00000000000E+00 0.  1.
          3    1    3    3  501    0 -0.30782423964E+03  0.89748824031E+02 -0.46041549413E+03  0.56106420413E+03  0.00000000000E+00 0.  1.
         21    1    1    2  502  501  0.20129921878E-03 -0.23084941132E-02  0.11306098343E-04  0.23172816561E-02  0.00000000000E+00 0.  1.
<mgrwt>
<rscale>  1 0.64142903E+03</rscale>
<asrwt>0</asrwt>
<pdfrwt beam="1">  1        1 0.37403382E+00 0.64142903E+03</pdfrwt>
<pdfrwt beam="2">0</pdfrwt>
<totfact> 0.17461082E+00</totfact>
</mgrwt>
</event>
<event>
 6    1  0.2558947E-003  0.6491089E+03  0.7818608E-02  0.9808453E-01
          1   -1    0    0  502    0  0.00000000000E+00  0.00000000000E+00  0.15736004224E+03  0.15736004224E+03  0.00000000000E+00 0.  1.
         13   -1    0    0    0    0 -0.00000000000E+00 -0.00000000000E+00 -0.10000000000E+04  0.10000000000E+04  0.00000000000E+00 0.  1.
    9000005    2    1    2  501    0 -0.19955446324E-01  0.15428956747E+01 -0.89465177252E+03  0.11053253442E+04  0.64910703397E+03 0.  0.
         13    1    3    3    0    0 -0.19188977999E+03 -0.55220316887E+02 -0.11737069514E+02  0.20002182347E+03  0.00000000000E+00 0.  1.
          1    1    3    3  501    0  0.19186982455E+03  0.56763212562E+02 -0.88291470300E+03  0.90530352073E+03  0.00000000000E+00 0.  1.
         21    1    1    2  502  501  0.19955446324E-01 -0.15428956747E+01  0.52011814759E+02  0.52034698037E+02  0.00000000000E+00 0.  1.
<mgrwt>
<rscale>  1 0.64910887E+03</rscale>
<asrwt>0</asrwt>
<pdfrwt beam="1">  1        1 0.57221954E+00 0.64910887E+03</pdfrwt>
<pdfrwt beam="2">0</pdfrwt>
<totfact> 0.20115625E-01</totfact>
</mgrwt>
</event>
<event>
 6    1  0.2700721E-003  0.6596295E+03  0.7818608E-02  0.9788876E-01
          1   -1    0    0  502    0  0.00000000000E+00  0.00000000000E+00  0.10877776735E+03  0.10877776735E+03  0.00000000000E+00 0.  1.
         13   -1    0    0    0    0 -0.00000000000E+00 -0.00000000000E+00 -0.10000000000E+04  0.10000000000E+04  0.00000000000E+00 0.  1.
    9000005    2    1    2  501    0 -0.13532812204E-05  0.12454391211E-04 -0.89122223455E+03  0.11087777547E+04  0.65962947017E+03 0.  0.
         13    1    3    3    0    0 -0.20038525811E+03  0.11561708260E+03 -0.50485710091E+02  0.23679182498E+03  0.00000000000E+00 0.  1.
          3    1    3    3  501    0  0.20038525675E+03 -0.11561707015E+03 -0.84073652446E+03  0.87198592970E+03  0.00000000000E+00 0.  1.
         21    1    1    2  502  501  0.13532812269E-05 -0.12454391202E-04  0.18981862575E-05  0.12670688275E-04  0.00000000000E+00 0.  1.
<mgrwt>
<rscale>  1 0.65962947E+03</rscale>
<asrwt>0</asrwt>
<pdfrwt beam="1">  1        1 0.39555635E+00 0.65962947E+03</pdfrwt>
<pdfrwt beam="2">0</pdfrwt>
<totfact> 0.13976993E+00</totfact>
</mgrwt>
</event>
<event>
 6    1  0.2558947E-003  0.6431407E+03  0.7818608E-02  0.9819736E-01
          1   -1    0    0  502    0  0.00000000000E+00  0.00000000000E+00  0.10342243313E+03  0.10342243313E+03  0.00000000000E+00 0.  1.
         13   -1    0    0    0    0 -0.00000000000E+00 -0.00000000000E+00 -0.10000000000E+04  0.10000000000E+04  0.00000000000E+00 0.  1.
    9000005    2    1    2  501    0 -0.21327269191E-01  0.19044698408E-01 -0.89657560708E+03  0.11033937732E+04  0.64314073003E+03 0.  0.
         13    1    3    3    0    0  0.65118836266E+02 -0.10368770707E+02 -0.98825377511E+03  0.99045115895E+03  0.00000000000E+00 0.  1.
          3    1    3    3  501    0 -0.65140163535E+02  0.10387815405E+02  0.91678168024E+02  0.11294261422E+03  0.00000000000E+00 0.  1.
         21    1    1    2  502  501  0.21327269191E-01 -0.19044698408E-01 -0.19597833198E-02  0.28659966840E-01  0.00000000000E+00 0.  1.
<mgrwt>
<rscale>  1 0.64314073E+03</rscale>
<asrwt>0</asrwt>
<pdfrwt beam="1">  1        1 0.37608237E+00 0.64314073E+03</pdfrwt>
<pdfrwt beam="2">0</pdfrwt>
<totfact> 0.17096908E+00</totfact>
</mgrwt>
</event>
<event>
 6    1  0.2558947E-003  0.6522539E+03  0.7818608E-02  0.9802559E-01
          1   -1    0    0  502    0  0.00000000000E+00  0.00000000000E+00  0.10636018164E+03  0.10636018164E+03  0.00000000000E+00 0.  1.
         13   -1    0    0    0    0 -0.00000000000E+00 -0.00000000000E+00 -0.10000000000E+04  0.10000000000E+04  0.00000000000E+00 0.  1.
    9000005    2    1    2  501    0 -0.56936554711E-03  0.21458791805E-03 -0.89364114023E+03  0.11063587265E+04  0.65225389542E+03 0.  0.
         13    1    3    3    0    0 -0.26225394899E+03  0.26466694513E+02 -0.77256946746E+03  0.81629725084E+03  0.00000000000E+00 0.  1.
          1    1    3    3  501    0  0.26225337963E+03 -0.26466479925E+02 -0.12107167277E+03  0.29006147561E+03  0.00000000000E+00 0.  1.
         21    1    1    2  502  501  0.56936554711E-03 -0.21458791805E-03  0.13218711953E-02  0.14551867777E-02  0.00000000000E+00 0.  1.
<mgrwt>
<rscale>  1 0.65225390E+03</rscale>
<asrwt>0</asrwt>
<pdfrwt beam="1">  1        1 0.38676511E+00 0.65225390E+03</pdfrwt>
<pdfrwt beam="2">0</pdfrwt>
<totfact> 0.15311592E+00</totfact>
</mgrwt>
</event>
<event>
 6    1  0.2558947E-003  0.6567016E+03  0.7818608E-02  0.9794285E-01
          1   -1    0    0  502    0  0.00000000000E+00  0.00000000000E+00  0.11322359423E+03  0.11322359423E+03  0.00000000000E+00 0.  1.
         13   -1    0    0    0    0 -0.00000000000E+00 -0.00000000000E+00 -0.10000000000E+04  0.10000000000E+04  0.00000000000E+00 0.  1.
    9000005    2    1    2  501    0 -0.58770185195E+00 -0.47591023020E+00 -0.89215646086E+03  0.11077906506E+04  0.65670115194E+03 0.  0.
         13    1    3    3    0    0 -0.18319115413E+03  0.20212847626E+03 -0.75444227021E+03  0.80224563505E+03  0.00000000000E+00 0.  1.
          3    1    3    3  501    0  0.18260345228E+03 -0.20260438649E+03 -0.13771419065E+03  0.30554501553E+03  0.00000000000E+00 0.  1.
         21    1    1    2  502  501  0.58770185195E+00  0.47591023020E+00  0.53800550861E+01  0.54329436536E+01  0.00000000000E+00 0.  1.
<mgrwt>
<rscale>  1 0.65670159E+03</rscale>
<asrwt>0</asrwt>
<pdfrwt beam="1">  1        1 0.41172303E+00 0.65670159E+03</pdfrwt>
<pdfrwt beam="2">0</pdfrwt>
<totfact> 0.11842029E+00</totfact>
</mgrwt>
</event>
<event>
 6    1  0.2558947E-003  0.5001768E+03  0.7818608E-02  0.1013733E+00
          3   -1    0    0  502    0  0.00000000000E+00  0.00000000000E+00  0.62718573316E+02  0.62718573316E+02  0.00000000000E+00 0.  1.
         13   -1    0    0    0    0 -0.00000000000E+00 -0.00000000000E+00 -0.10000000000E+04  0.10000000000E+04  0.00000000000E+00 0.  1.
    9000005    2    1    2  501    0 -0.14326333502E-01 -0.11739050899E-03 -0.93745548102E+03  0.10625439303E+04  0.50017679356E+03 0.  0.
         13    1    3    3    0    0 -0.23091310988E+03  0.70271184164E+02 -0.32962276989E+03  0.40854629367E+03  0.00000000000E+00 0.  1.
          3    1    3    3  501    0  0.23089878355E+03 -0.70271301554E+02 -0.60783271112E+03  0.65399763667E+03  0.00000000000E+00 0.  1.
         21    1    1    2  502  501  0.14326333502E-01  0.11739050899E-03  0.17405433240E+00  0.17464297363E+00  0.00000000000E+00 0. -1.
<mgrwt>
<rscale>  1 0.50017679E+03</rscale>
<asrwt>0</asrwt>
<pdfrwt beam="1">  1        3 0.22806802E+00 0.50017679E+03</pdfrwt>
<pdfrwt beam="2">0</pdfrwt>
<totfact> 0.51917610E-01</totfact>
</mgrwt>
</event>
<event>
 6    1  0.2558947E-003  0.6676311E+03  0.7818608E-02  0.9774247E-01
          3   -1    0    0  502    0  0.00000000000E+00  0.00000000000E+00  0.11158077610E+03  0.11158077610E+03  0.00000000000E+00 0.  1.
         13   -1    0    0    0    0 -0.00000000000E+00 -0.00000000000E+00 -0.10000000000E+04  0.10000000000E+04  0.00000000000E+00 0.  1.
    9000005    2    1    2  501    0  0.26081427538E-01  0.30280430914E-01 -0.88856418695E+03  0.11114304051E+04  0.66763105793E+03 0.  0.
         13    1    3    3    0    0 -0.24619218297E+03 -0.16553433564E+03 -0.18955356832E+03  0.35205505605E+03  0.00000000000E+00 0.  1.
          1    1    3    3  501    0  0.24621826439E+03  0.16556461607E+03 -0.69901061863E+03  0.75937534907E+03  0.00000000000E+00 0.  1.
         21    1    1    2  502  501 -0.26081427538E-01 -0.30280430914E-01  0.14496305192E+00  0.15037098051E+00  0.00000000000E+00 0. -1.
<mgrwt>
<rscale>  1 0.66763106E+03</rscale>
<asrwt>0</asrwt>
<pdfrwt beam="1">  1        3 0.40574913E+00 0.66763106E+03</pdfrwt>
<pdfrwt beam="2">0</pdfrwt>
<totfact> 0.55108378E-02</totfact>
</mgrwt>
</event>
<event>
 6    1  0.2558947E-003  0.6509804E+03  0.7818608E-02  0.9804941E-01
          1   -1    0    0  502    0  0.00000000000E+00  0.00000000000E+00  0.10594809062E+03  0.10594809062E+03  0.00000000000E+00 0.  1.
         13   -1    0    0    0    0 -0.00000000000E+00 -0.00000000000E+00 -0.10000000000E+04  0.10000000000E+04  0.00000000000E+00 0.  1.
    9000005    2    1    2  501    0  0.53383343069E-03 -0.35097330897E-03 -0.89405608716E+03  0.11059438643E+04  0.65098044821E+03 0.  0.
         13    1    3    3    0    0 -0.19545536409E+03 -0.23011998250E+03 -0.65360804715E+03  0.71997325297E+03  0.00000000000E+00 0.  1.
          1    1    3    3  501    0  0.19545589793E+03  0.23011963153E+03 -0.24044804001E+03  0.38597061130E+03  0.00000000000E+00 0.  1.
         21    1    1    2  502  501 -0.53383343069E-03  0.35097330899E-03  0.41777771781E-02  0.42263438744E-02  0.00000000000E+00 0. -1.
<mgrwt>
<rscale>  1 0.65098045E+03</rscale>
<asrwt>0</asrwt>
<pdfrwt beam="1">  1        1 0.38526660E+00 0.65098045E+03</pdfrwt>
<pdfrwt beam="2">0</pdfrwt>
<totfact> 0.15550857E+00</totfact>
</mgrwt>
</event>
<event>
 6    1  0.2558947E-003  0.6258512E+03  0.7818608E-02  0.9853178E-01
          1   -1    0    0  502    0  0.00000000000E+00  0.00000000000E+00  0.97923307276E+02  0.97923307276E+02  0.00000000000E+00 0.  1.
         13   -1    0    0    0    0 -0.00000000000E+00 -0.00000000000E+00 -0.10000000000E+04  0.10000000000E+04  0.00000000000E+00 0.  1.
    9000005    2    1    2  501    0  0.12657129147E-02 -0.96665419318E-03 -0.90207667976E+03  0.10979217146E+04  0.62585122451E+03 0.  0.
         13    1    3    3    0    0 -0.24988300906E+03  0.18703257869E+03 -0.41184008080E+03  0.51675425094E+03  0.00000000000E+00 0.  1.
          1    1    3    3  501    0  0.24988427477E+03 -0.18703354534E+03 -0.49023659896E+03  0.58116746366E+03  0.00000000000E+00 0.  1.
         21    1    1    2  502  501 -0.12657129147E-02  0.96665419318E-03 -0.12967003776E-04  0.15926762555E-02  0.00000000000E+00 0. -1.
<mgrwt>
<rscale>  1 0.62585122E+03</rscale>
<asrwt>0</asrwt>
<pdfrwt beam="1">  1        1 0.35608550E+00 0.62585122E+03</pdfrwt>
<pdfrwt beam="2">0</pdfrwt>
<totfact> 0.20987529E+00</totfact>
</mgrwt>
</event>
<event>
 6    1  0.2558947E-003  0.6436594E+03  0.7818608E-02  0.9818750E-01
          1   -1    0    0  502    0  0.00000000000E+00  0.00000000000E+00  0.10357449926E+03  0.10357449926E+03  0.00000000000E+00 0.  1.
         13   -1    0    0    0    0 -0.00000000000E+00 -0.00000000000E+00 -0.10000000000E+04  0.10000000000E+04  0.00000000000E+00 0.  1.
    9000005    2    1    2  501    0  0.11935912596E-05 -0.23592874129E-04 -0.89642565047E+03  0.11035743477E+04  0.64365937735E+03 0.  0.
         13    1    3    3    0    0 -0.19848377111E+03  0.24211885577E+03 -0.57602300610E+03  0.65560647592E+03  0.00000000000E+00 0.  1.
          3    1    3    3  501    0  0.19848377231E+03 -0.24211887936E+03 -0.32040264437E+03  0.44796787176E+03  0.00000000000E+00 0.  1.
         21    1    1    2  502  501 -0.11935912615E-05  0.23592874111E-04  0.14972665711E-03  0.15157875913E-03  0.00000000000E+00 0.  1.
<mgrwt>
<rscale>  1 0.64365938E+03</rscale>
<asrwt>0</asrwt>
<pdfrwt beam="1">  1        1 0.37663534E+00 0.64365938E+03</pdfrwt>
<pdfrwt beam="2">0</pdfrwt>
<totfact> 0.16999679E+00</totfact>
</mgrwt>
</event>
<event>
 6    1  0.2558947E-003  0.6462404E+03  0.7818608E-02  0.9813860E-01
          1   -1    0    0  502    0  0.00000000000E+00  0.00000000000E+00  0.10440782362E+03  0.10440782362E+03  0.00000000000E+00 0.  1.
         13   -1    0    0    0    0 -0.00000000000E+00 -0.00000000000E+00 -0.10000000000E+04  0.10000000000E+04  0.00000000000E+00 0.  1.
    9000005    2    1    2  501    0 -0.68367928890E-04  0.12694396850E-02 -0.89559294952E+03  0.11044063357E+04  0.64624037564E+03 0.  0.
         13    1    3    3    0    0 -0.16193926255E+03  0.27929379412E+03 -0.47057684176E+03  0.57067671425E+03  0.00000000000E+00 0.  1.
          3    1    3    3  501    0  0.16193919418E+03 -0.27929252468E+03 -0.42501610776E+03  0.53372962145E+03  0.00000000000E+00 0.  1.
         21    1    1    2  502  501  0.68367928881E-04 -0.12694396850E-02  0.77313694471E-03  0.14879153278E-02  0.00000000000E+00 0. -1.
<mgrwt>
<rscale>  1 0.64624038E+03</rscale>
<asrwt>0</asrwt>
<pdfrwt beam="1">  1        1 0.37966561E+00 0.64624038E+03</pdfrwt>
<pdfrwt beam="2">0</pdfrwt>
<totfact> 0.16476943E+00</totfact>
</mgrwt>
</event>
<event>
 6    1  0.2558947E-003  0.6566666E+03  0.7818608E-02  0.9794350E-01
          1   -1    0    0  502    0  0.00000000000E+00  0.00000000000E+00  0.11404004972E+03  0.11404004972E+03  0.00000000000E+00 0.  1.
         13   -1    0    0    0    0 -0.00000000000E+00 -0.00000000000E+00 -0.10000000000E+04  0.10000000000E+04  0.00000000000E+00 0.  1.
    9000005    2    1    2  501    0 -0.10042063218E+01  0.13018278234E+00 -0.89215167368E+03  0.11077660704E+04  0.65666584539E+03 0.  0.
         13    1    3    3    0    0  0.14040978425E+03  0.26387316404E+03 -0.21732530679E+03  0.36955952590E+03  0.00000000000E+00 0.  1.
          1    1    3    3  501    0 -0.14141399057E+03 -0.26374298126E+03 -0.67482636689E+03  0.73820654450E+03  0.00000000000E+00 0.  1.
         21    1    1    2  502  501  0.10042063218E+01 -0.13018278234E+00  0.61917234024E+01  0.62739793262E+01  0.00000000000E+00 0.  1.
<mgrwt>
<rscale>  1 0.65666663E+03</rscale>
<asrwt>0</asrwt>
<pdfrwt beam="1">  1        1 0.41469196E+00 0.65666663E+03</pdfrwt>
<pdfrwt beam="2">0</pdfrwt>
<totfact> 0.11483965E+00</totfact>
</mgrwt>
</event>
<event>
 6    1  0.2558947E-003  0.6426991E+03  0.7818608E-02  0.9820576E-01
          1   -1    0    0  502    0  0.00000000000E+00  0.00000000000E+00  0.10327028761E+03  0.10327028761E+03  0.00000000000E+00 0.  1.
         13   -1    0    0    0    0 -0.00000000000E+00 -0.00000000000E+00 -0.10000000000E+04  0.10000000000E+04  0.00000000000E+00 0.  1.
    9000005    2    1    2  501    0 -0.44617638324E-04 -0.16340389232E-03 -0.89673445194E+03  0.11032655450E+04  0.64269914078E+03 0.  0.
         13    1    3    3    0    0  0.11972438868E+03  0.23768236042E+03 -0.75754175736E+03  0.80292985238E+03  0.00000000000E+00 0.  1.
          1    1    3    3  501    0 -0.11972443330E+03 -0.23768252382E+03 -0.13919269458E+03  0.30033569265E+03  0.00000000000E+00 0.  1.
         21    1    1    2  502  501  0.44617638320E-04  0.16340389229E-03  0.47395470824E-02  0.47425729422E-02  0.00000000000E+00 0. -1.
<mgrwt>
<rscale>  1 0.64269914E+03</rscale>
<asrwt>0</asrwt>
<pdfrwt beam="1">  1        1 0.37552911E+00 0.64269914E+03</pdfrwt>
<pdfrwt beam="2">0</pdfrwt>
<totfact> 0.17194474E+00</totfact>
</mgrwt>
</event>
<event>
 6    1  0.2558947E-003  0.6241916E+03  0.7818608E-02  0.9856450E-01
          1   -1    0    0  502    0  0.00000000000E+00  0.00000000000E+00  0.98666393558E+02  0.98666393558E+02  0.00000000000E+00 0.  1.
         13   -1    0    0    0    0 -0.00000000000E+00 -0.00000000000E+00 -0.10000000000E+04  0.10000000000E+04  0.00000000000E+00 0.  1.
    9000005    2    1    2  501    0  0.48470194183E-01 -0.76677589414E-01 -0.90259443591E+03  0.10974023051E+04  0.62419155327E+03 0.  0.
         13    1    3    3    0    0  0.25663528579E+03 -0.14352487691E+03 -0.63546060142E+03  0.70019371331E+03  0.00000000000E+00 0.  1.
          3    1    3    3  501    0 -0.25658681559E+03  0.14344819932E+03 -0.26713383449E+03  0.39720859174E+03  0.00000000000E+00 0.  1.
         21    1    1    2  502  501 -0.48470194183E-01  0.76677589414E-01  0.12608294660E+01  0.12640885075E+01  0.00000000000E+00 0. -1.
<mgrwt>
<rscale>  1 0.62419156E+03</rscale>
<asrwt>0</asrwt>
<pdfrwt beam="1">  1        1 0.35878764E+00 0.62419156E+03</pdfrwt>
<pdfrwt beam="2">0</pdfrwt>
<totfact> 0.20430845E+00</totfact>
</mgrwt>
</event>
<event>
 6    1  0.2558947E-003  0.6545037E+03  0.7818608E-02  0.9798365E-01
          1   -1    0    0  502    0  0.00000000000E+00  0.00000000000E+00  0.10709762373E+03  0.10709762373E+03  0.00000000000E+00 0.  1.
         13   -1    0    0    0    0 -0.00000000000E+00 -0.00000000000E+00 -0.10000000000E+04  0.10000000000E+04  0.00000000000E+00 0.  1.
    9000005    2    1    2  501    0 -0.16155972691E-03 -0.10567627805E-03 -0.89290621141E+03  0.11070937837E+04  0.65450373841E+03 0.  0.
         13    1    3    3    0    0  0.14694795917E+03 -0.28412112876E+03 -0.56334151878E+03  0.64782110593E+03  0.00000000000E+00 0.  1.
          1    1    3    3  501    0 -0.14694812073E+03  0.28412102308E+03 -0.32956469264E+03  0.45927267780E+03  0.00000000000E+00 0.  1.
         21    1    1    2  502  501  0.16155972689E-03  0.10567627805E-03  0.38351463325E-02  0.38400021371E-02  0.00000000000E+00 0. -1.
<mgrwt>
<rscale>  1 0.65450374E+03</rscale>
<asrwt>0</asrwt>
<pdfrwt beam="1">  1        1 0.38944673E+00 0.65450374E+03</pdfrwt>
<pdfrwt beam="2">0</pdfrwt>
<totfact> 0.14892202E+00</totfact>
</mgrwt>
</event>
<event>
 6    1  0.2558947E-003  0.6489962E+03  0.7818608E-02  0.9808665E-01
          1   -1    0    0  502    0  0.00000000000E+00  0.00000000000E+00  0.10529908836E+03  0.10529908836E+03  0.00000000000E+00 0.  1.
         13   -1    0    0    0    0 -0.00000000000E+00 -0.00000000000E+00 -0.10000000000E+04  0.10000000000E+04  0.00000000000E+00 0.  1.
    9000005    2    1    2  501    0  0.88905445068E-05 -0.48259880714E-05 -0.89470098077E+03  0.11052990185E+04  0.64899620591E+03 0.  0.
         13    1    3    3    0    0 -0.11005183966E+03 -0.30485994694E+03 -0.42052886864E+03  0.53093834296E+03  0.00000000000E+00 0.  1.
          3    1    3    3  501    0  0.11005184855E+03  0.30485994211E+03 -0.47417211213E+03  0.57436067553E+03  0.00000000000E+00 0.  1.
         21    1    1    2  502  501 -0.88905445114E-05  0.48259880487E-05  0.69132303030E-04  0.69868499802E-04  0.00000000000E+00 0.  1.
<mgrwt>
<rscale>  1 0.64899621E+03</rscale>
<asrwt>0</asrwt>
<pdfrwt beam="1">  1        1 0.38290658E+00 0.64899621E+03</pdfrwt>
<pdfrwt beam="2">0</pdfrwt>
<totfact> 0.15934829E+00</totfact>
</mgrwt>
</event>
<event>
 6    1  0.2558947E-003  0.6219089E+03  0.7818608E-02  0.9860966E-01
          1   -1    0    0  502    0  0.00000000000E+00  0.00000000000E+00  0.96692694989E+02  0.96692694989E+02  0.00000000000E+00 0.  1.
         13   -1    0    0    0    0 -0.00000000000E+00 -0.00000000000E+00 -0.10000000000E+04  0.10000000000E+04  0.00000000000E+00 0.  1.
    9000005    2    1    2  501    0 -0.44480985366E-05  0.21861954309E-05 -0.90330731389E+03  0.10966926848E+04  0.62190894963E+03 0.  0.
         13    1    3    3    0    0 -0.25673989723E+03 -0.84369190085E+02 -0.18041117025E+03  0.32493341689E+03  0.00000000000E+00 0.  1.
          1    1    3    3  501    0  0.25673989278E+03  0.84369192272E+02 -0.72289614364E+03  0.77175926793E+03  0.00000000000E+00 0.  1.
         21    1    1    2  502  501  0.44480985103E-05 -0.21861954281E-05  0.88747830507E-05  0.10164979341E-04  0.00000000000E+00 0. -1.
<mgrwt>
<rscale>  1 0.62190895E+03</rscale>
<asrwt>0</asrwt>
<pdfrwt beam="1">  1        1 0.35161054E+00 0.62190895E+03</pdfrwt>
<pdfrwt beam="2">0</pdfrwt>
<totfact> 0.21968198E+00</totfact>
</mgrwt>
</event>
<event>
 6    1  0.2558947E-003  0.6505411E+03  0.7818608E-02  0.9805764E-01
          1   -1    0    0  502    0  0.00000000000E+00  0.00000000000E+00  0.10790885578E+03  0.10790885578E+03  0.00000000000E+00 0.  1.
         13   -1    0    0    0    0 -0.00000000000E+00 -0.00000000000E+00 -0.10000000000E+04  0.10000000000E+04  0.00000000000E+00 0.  1.
    9000005    2    1    2  501    0 -0.52933252879E-01  0.40949442986E-01 -0.89419847895E+03  0.11058004587E+04  0.65054110563E+03 0.  0.
         13    1    3    3    0    0 -0.10381805714E+03 -0.21838066867E+03 -0.81689160890E+03  0.85192734792E+03  0.00000000000E+00 0.  1.
          1    1    3    3  501    0  0.10376512389E+03  0.21842161812E+03 -0.77306870051E+02  0.25387311073E+03  0.00000000000E+00 0.  1.
         21    1    1    2  502  501  0.52933252879E-01 -0.40949442986E-01  0.21073347336E+01  0.21083971318E+01  0.00000000000E+00 0.  1.
<mgrwt>
<rscale>  1 0.65054111E+03</rscale>
<asrwt>0</asrwt>
<pdfrwt beam="1">  1        1 0.39239667E+00 0.65054111E+03</pdfrwt>
<pdfrwt beam="2">0</pdfrwt>
<totfact> 0.14460796E+00</totfact>
</mgrwt>
</event>
<event>
 6    1  0.2558947E-003  0.6792028E+03  0.7818608E-02  0.9753474E-01
          1   -1    0    0  502    0  0.00000000000E+00  0.00000000000E+00  0.11532911641E+03  0.11532911641E+03  0.00000000000E+00 0.  1.
         13   -1    0    0    0    0 -0.00000000000E+00 -0.00000000000E+00 -0.10000000000E+04  0.10000000000E+04  0.00000000000E+00 0.  1.
    9000005    2    1    2  501    0  0.51231588927E-05 -0.57944002378E-05 -0.88467089663E+03  0.11153291012E+04  0.67920277440E+03 0.  0.
         13    1    3    3    0    0 -0.59271501997E+02  0.80309026064E+02  0.90698365020E+02  0.13486602253E+03  0.00000000000E+00 0.  1.
          3    1    3    3  501    0  0.59271507120E+02 -0.80309031859E+02 -0.97536926165E+03  0.98046307872E+03  0.00000000000E+00 0.  1.
         21    1    1    2  502  501 -0.51231588965E-05  0.57944002495E-05  0.13036488665E-04  0.15158227734E-04  0.00000000000E+00 0.  1.
<mgrwt>
<rscale>  1 0.67920277E+03</rscale>
<asrwt>0</asrwt>
<pdfrwt beam="1">  1        1 0.41937949E+00 0.67920277E+03</pdfrwt>
<pdfrwt beam="2">0</pdfrwt>
<totfact> 0.10891753E+00</totfact>
</mgrwt>
</event>
<event>
 6    1  0.2558947E-003  0.6429710E+03  0.7818608E-02  0.9820059E-01
          1   -1    0    0  502    0  0.00000000000E+00  0.00000000000E+00  0.12403414114E+03  0.12403414114E+03  0.00000000000E+00 0.  1.
         13   -1    0    0    0    0 -0.00000000000E+00 -0.00000000000E+00 -0.10000000000E+04  0.10000000000E+04  0.00000000000E+00 0.  1.
    9000005    2    1    2  501    0  0.25238451200E+01  0.27450318643E+01 -0.89646146610E+03  0.11032020767E+04  0.64296015176E+03 0.  0.
         13    1    3    3    0    0 -0.14108488578E+03  0.97103479335E+01  0.46864844219E+02  0.14898170853E+03  0.00000000000E+00 0.  1.
          3    1    3    3  501    0  0.14360873090E+03 -0.69653160692E+01 -0.94332631032E+03  0.95422036813E+03  0.00000000000E+00 0.  1.
         21    1    1    2  502  501 -0.25238451200E+01 -0.27450318643E+01  0.20495607238E+02  0.20832064472E+02  0.00000000000E+00 0. -1.
<mgrwt>
<rscale>  1 0.64297096E+03</rscale>
<asrwt>0</asrwt>
<pdfrwt beam="1">  1        1 0.45103419E+00 0.64297096E+03</pdfrwt>
<pdfrwt beam="2">0</pdfrwt>
<totfact> 0.78697076E-01</totfact>
</mgrwt>
</event>
<event>
 6    1  0.2558947E-003  0.6441156E+03  0.7818608E-02  0.9817884E-01
          1   -1    0    0  502    0  0.00000000000E+00  0.00000000000E+00  0.10372125231E+03  0.10372125231E+03  0.00000000000E+00 0.  1.
         13   -1    0    0    0    0 -0.00000000000E+00 -0.00000000000E+00 -0.10000000000E+04  0.10000000000E+04  0.00000000000E+00 0.  1.
    9000005    2    1    2  501    0  0.43754923837E-04  0.53165209124E-05 -0.89627864093E+03  0.11037211368E+04  0.64411563066E+03 0.  0.
         13    1    3    3    0    0  0.99519006547E+02 -0.30407246015E+03 -0.51126539190E+03  0.60312220539E+03  0.00000000000E+00 0.  1.
          3    1    3    3  501    0 -0.99518962792E+02  0.30407246546E+03 -0.38501324903E+03  0.50059893142E+03  0.00000000000E+00 0.  1.
         21    1    1    2  502  501 -0.43754923834E-04 -0.53165209070E-05 -0.10675977209E-03  0.11550068264E-03  0.00000000000E+00 0.  1.
<mgrwt>
<rscale>  1 0.64411563E+03</rscale>
<asrwt>0</asrwt>
<pdfrwt beam="1">  1        1 0.37716899E+00 0.64411563E+03</pdfrwt>
<pdfrwt beam="2">0</pdfrwt>
<totfact> 0.16906485E+00</totfact>
</mgrwt>
</event>
<event>
 6    1  0.2558947E-003  0.6483039E+03  0.7818608E-02  0.9809967E-01
          1   -1    0    0  502    0  0.00000000000E+00  0.00000000000E+00  0.10513045879E+03  0.10513045879E+03  0.00000000000E+00 0.  1.
         13   -1    0    0    0    0 -0.00000000000E+00 -0.00000000000E+00 -0.10000000000E+04  0.10000000000E+04  0.00000000000E+00 0.  1.
    9000005    2    1    2  501    0 -0.12021283000E-02  0.61242599679E-03 -0.89492550964E+03  0.11050744741E+04  0.64830388362E+03 0.  0.
         13    1    3    3    0    0  0.10480342975E+03 -0.26031635194E+03 -0.17089283255E+03  0.32856159573E+03  0.00000000000E+00 0.  1.
          1    1    3    3  501    0 -0.10480463187E+03  0.26031696436E+03 -0.72403267708E+03  0.77651287837E+03  0.00000000000E+00 0.  1.
         21    1    1    2  502  501  0.12021283000E-02 -0.61242599675E-03  0.55968424616E-01  0.55984683013E-01  0.00000000000E+00 0. -1.
<mgrwt>
<rscale>  1 0.64830388E+03</rscale>
<asrwt>0</asrwt>
<pdfrwt beam="1">  1        1 0.38229338E+00 0.64830388E+03</pdfrwt>
<pdfrwt beam="2">0</pdfrwt>
<totfact> 0.16036584E+00</totfact>
</mgrwt>
</event>
<event>
 6    1  0.2558947E-003  0.5400681E+03  0.7818608E-02  0.1003819E+00
          3   -1    0    0  502    0  0.00000000000E+00  0.00000000000E+00  0.72920327344E+02  0.72920327344E+02  0.00000000000E+00 0.  1.
         13   -1    0    0    0    0 -0.00000000000E+00 -0.00000000000E+00 -0.10000000000E+04  0.10000000000E+04  0.00000000000E+00 0.  1.
    9000005    2    1    2  501    0  0.57434845552E-03 -0.14455006351E-02 -0.92708128476E+03  0.10729180872E+04  0.54006806358E+03 0.  0.
         13    1    3    3    0    0 -0.55737064669E+02  0.10137010989E+03  0.21197549639E+02  0.11760890981E+03  0.00000000000E+00 0.  1.
          1    1    3    3  501    0  0.55737639017E+02 -0.10137155539E+03 -0.94827883440E+03  0.95530917739E+03  0.00000000000E+00 0.  1.
         21    1    1    2  502  501 -0.57434845552E-03  0.14455006351E-02  0.16121019548E-02  0.22401386000E-02  0.00000000000E+00 0. -1.
<mgrwt>
<rscale>  1 0.54006806E+03</rscale>
<asrwt>0</asrwt>
<pdfrwt beam="1">  1        3 0.26516539E+00 0.54006806E+03</pdfrwt>
<pdfrwt beam="2">0</pdfrwt>
<totfact> 0.31833736E-01</totfact>
</mgrwt>
</event>
<event>
 6    1  0.2558947E-003  0.6328125E+03  0.7818608E-02  0.9839576E-01
          1   -1    0    0  502    0  0.00000000000E+00  0.00000000000E+00  0.10011292443E+03  0.10011292443E+03  0.00000000000E+00 0.  1.
         13   -1    0    0    0    0 -0.00000000000E+00 -0.00000000000E+00 -0.10000000000E+04  0.10000000000E+04  0.00000000000E+00 0.  1.
    9000005    2    1    2  501    0  0.64649189824E-05 -0.12009312201E-04 -0.89988703543E+03  0.11001128820E+04  0.63281251307E+03 0.  0.
         13    1    3    3    0    0  0.13663860078E+03 -0.23851404895E+03 -0.72235294289E+03  0.77288604132E+03  0.00000000000E+00 0.  1.
          1    1    3    3  501    0 -0.13663859432E+03  0.23851403694E+03 -0.17753409255E+03  0.32722684072E+03  0.00000000000E+00 0.  1.
         21    1    1    2  502  501 -0.64649189937E-05  0.12009312202E-04 -0.40133724637E-04  0.42387906417E-04  0.00000000000E+00 0.  1.
<mgrwt>
<rscale>  1 0.63281251E+03</rscale>
<asrwt>0</asrwt>
<pdfrwt beam="1">  1        1 0.36404777E+00 0.63281251E+03</pdfrwt>
<pdfrwt beam="2">0</pdfrwt>
<totfact> 0.19346021E+00</totfact>
</mgrwt>
</event>
<event>
 6    1  0.2558947E-003  0.5890978E+03  0.7818608E-02  0.9928286E-01
          1   -1    0    0  502    0  0.00000000000E+00  0.00000000000E+00  0.86759134126E+02  0.86759134126E+02  0.00000000000E+00 0.  1.
         13   -1    0    0    0    0 -0.00000000000E+00 -0.00000000000E+00 -0.10000000000E+04  0.10000000000E+04  0.00000000000E+00 0.  1.
    9000005    2    1    2  501    0  0.43642702309E-04 -0.52280087459E-06 -0.91324094739E+03  0.10867590417E+04  0.58909777342E+03 0.  0.
         13    1    3    3    0    0  0.20498333043E+03 -0.61626662663E+02 -0.82990155044E+03  0.85706043820E+03  0.00000000000E+00 0.  1.
          1    1    3    3  501    0 -0.20498328679E+03  0.61626662140E+02 -0.83339396952E+02  0.22969860347E+03  0.00000000000E+00 0.  1.
         21    1    1    2  502  501 -0.43642702282E-04  0.52280087365E-06  0.81513735512E-04  0.92463224367E-04  0.00000000000E+00 0.  1.
<mgrwt>
<rscale>  1 0.58909777E+03</rscale>
<asrwt>0</asrwt>
<pdfrwt beam="1">  1        1 0.31548843E+00 0.58909777E+03</pdfrwt>
<pdfrwt beam="2">0</pdfrwt>
<totfact> 0.31694952E+00</totfact>
</mgrwt>
</event>
<event>
 6    1  0.2558947E-003  0.6375861E+03  0.7818608E-02  0.9830356E-01
          1   -1    0    0  502    0  0.00000000000E+00  0.00000000000E+00  0.10163451795E+03  0.10163451795E+03  0.00000000000E+00 0.  1.
         13   -1    0    0    0    0 -0.00000000000E+00 -0.00000000000E+00 -0.10000000000E+04  0.10000000000E+04  0.00000000000E+00 0.  1.
    9000005    2    1    2  501    0  0.36630233583E-03 -0.14869274020E-03 -0.89837097015E+03  0.11016290156E+04  0.63758614168E+03 0.  0.
         13    1    3    3    0    0  0.99575961851E+02 -0.24198794628E+03 -0.76379719055E+03  0.80737827975E+03  0.00000000000E+00 0.  1.
          1    1    3    3  501    0 -0.99575595548E+02  0.24198779758E+03 -0.13457377961E+03  0.29425073588E+03  0.00000000000E+00 0.  1.
         21    1    1    2  502  501 -0.36630233584E-03  0.14869274022E-03  0.54881064120E-02  0.55023266826E-02  0.00000000000E+00 0.  1.
<mgrwt>
<rscale>  1 0.63758614E+03</rscale>
<asrwt>0</asrwt>
<pdfrwt beam="1">  1        1 0.36958084E+00 0.63758614E+03</pdfrwt>
<pdfrwt beam="2">0</pdfrwt>
<totfact> 0.18278826E+00</totfact>
</mgrwt>
</event>
<event>
 6    1  0.2558947E-003  0.6487248E+03  0.7818608E-02  0.9809175E-01
          1   -1    0    0  502    0  0.00000000000E+00  0.00000000000E+00  0.10521151444E+03  0.10521151444E+03  0.00000000000E+00 0.  1.
         13   -1    0    0    0    0 -0.00000000000E+00 -0.00000000000E+00 -0.10000000000E+04  0.10000000000E+04  0.00000000000E+00 0.  1.
    9000005    2    1    2  501    0  0.39279348243E-04 -0.93324991113E-04 -0.89478903982E+03  0.11052109510E+04  0.64872476479E+03 0.  0.
         13    1    3    3    0    0  0.19736469171E+03  0.54017191106E+02 -0.18624231223E+02  0.20546907421E+03  0.00000000000E+00 0.  1.
          3    1    3    3  501    0 -0.19736465243E+03 -0.54017284431E+02 -0.87616480860E+03  0.89974187680E+03  0.00000000000E+00 0.  1.
         21    1    1    2  502  501 -0.39279348248E-04  0.93324991115E-04  0.55426156027E-03  0.56343437804E-03  0.00000000000E+00 0. -1.
<mgrwt>
<rscale>  1 0.64872476E+03</rscale>
<asrwt>0</asrwt>
<pdfrwt beam="1">  1        1 0.38258813E+00 0.64872476E+03</pdfrwt>
<pdfrwt beam="2">0</pdfrwt>
<totfact> 0.15987337E+00</totfact>
</mgrwt>
</event>
<event>
 6    1  0.2558947E-003  0.6605014E+03  0.7818608E-02  0.9787271E-01
          1   -1    0    0  502    0  0.00000000000E+00  0.00000000000E+00  0.11139019803E+03  0.11139019803E+03  0.00000000000E+00 0.  1.
         13   -1    0    0    0    0 -0.00000000000E+00 -0.00000000000E+00 -0.10000000000E+04  0.10000000000E+04  0.00000000000E+00 0.  1.
    9000005    2    1    2  501    0 -0.12859105723E+00 -0.11272007318E+00 -0.89093099485E+03  0.11090627149E+04  0.66050135404E+03 0.  0.
         13    1    3    3    0    0  0.22054438020E+03  0.92883391320E+02 -0.63373706588E+02  0.24755479133E+03  0.00000000000E+00 0.  1.
          3    1    3    3  501    0 -0.22067297126E+03 -0.92996111394E+02 -0.82755728826E+03  0.86150792355E+03  0.00000000000E+00 0.  1.
         21    1    1    2  502  501  0.12859105723E+00  0.11272007318E+00  0.23211928816E+01  0.23274831618E+01  0.00000000000E+00 0.  1.
<mgrwt>
<rscale>  1 0.66050138E+03</rscale>
<asrwt>0</asrwt>
<pdfrwt beam="1">  1        1 0.40505612E+00 0.66050138E+03</pdfrwt>
<pdfrwt beam="2">0</pdfrwt>
<totfact> 0.12675837E+00</totfact>
</mgrwt>
</event>
<event>
 6    1  0.2558947E-003  0.6174830E+03  0.7818608E-02  0.9869784E-01
          3   -1    0    0  502    0  0.00000000000E+00  0.00000000000E+00  0.95323275335E+02  0.95323275335E+02  0.00000000000E+00 0.  1.
         13   -1    0    0    0    0 -0.00000000000E+00 -0.00000000000E+00 -0.10000000000E+04  0.10000000000E+04  0.00000000000E+00 0.  1.
    9000005    2    1    2  501    0  0.20354540683E-02 -0.18224276496E-02 -0.90467760069E+03  0.10953204062E+04  0.61748298043E+03 0.  0.
         13    1    3    3    0    0 -0.27850722764E+03  0.45811093606E+02 -0.23038846666E+03  0.36434019503E+03  0.00000000000E+00 0.  1.
          1    1    3    3  501    0  0.27850926309E+03 -0.45812916034E+02 -0.67428913402E+03  0.73098021120E+03  0.00000000000E+00 0.  1.
         21    1    1    2  502  501 -0.20354540683E-02  0.18224276496E-02  0.87602234680E-03  0.28690993281E-02  0.00000000000E+00 0.  1.
<mgrwt>
<rscale>  1 0.61748298E+03</rscale>
<asrwt>0</asrwt>
<pdfrwt beam="1">  1        3 0.34663082E+00 0.61748298E+03</pdfrwt>
<pdfrwt beam="2">0</pdfrwt>
<totfact> 0.11408036E-01</totfact>
</mgrwt>
</event>
<event>
 6    1  0.2558947E-003  0.6536300E+03  0.7818608E-02  0.9799991E-01
          1   -1    0    0  502    0  0.00000000000E+00  0.00000000000E+00  0.10683520166E+03  0.10683520166E+03  0.00000000000E+00 0.  1.
         13   -1    0    0    0    0 -0.00000000000E+00 -0.00000000000E+00 -0.10000000000E+04  0.10000000000E+04  0.00000000000E+00 0.  1.
    9000005    2    1    2  501    0  0.38740997488E-03  0.37003312053E-03 -0.89319194380E+03  0.11068080509E+04  0.65363002768E+03 0.  0.
         13    1    3    3    0    0  0.25522660671E+03  0.14976811096E+03 -0.68145686548E+03  0.74293644906E+03  0.00000000000E+00 0.  1.
          1    1    3    3  501    0 -0.25522621930E+03 -0.14976774092E+03 -0.21173507833E+03  0.36387160185E+03  0.00000000000E+00 0.  1.
         21    1    1    2  502  501 -0.38740997487E-03 -0.37003312052E-03  0.27145460984E-01  0.27150747007E-01  0.00000000000E+00 0. -1.
<mgrwt>
<rscale>  1 0.65363003E+03</rscale>
<asrwt>0</asrwt>
<pdfrwt beam="1">  1        1 0.38849246E+00 0.65363003E+03</pdfrwt>
<pdfrwt beam="2">0</pdfrwt>
<totfact> 0.15040382E+00</totfact>
</mgrwt>
</event>
<event>
 6    1  0.2558947E-003  0.6501248E+03  0.7818608E-02  0.9806545E-01
          1   -1    0    0  502    0  0.00000000000E+00  0.00000000000E+00  0.10890800614E+03  0.10890800614E+03  0.00000000000E+00 0.  1.
         13   -1    0    0    0    0 -0.00000000000E+00 -0.00000000000E+00 -0.10000000000E+04  0.10000000000E+04  0.00000000000E+00 0.  1.
    9000005    2    1    2  501    0  0.51462953821E-01 -0.25775750263E-01 -0.89433415735E+03  0.11056653318E+04  0.65012478619E+03 0.  0.
         13    1    3    3    0    0 -0.93660201280E+02 -0.30994572082E+03 -0.49617465329E+03  0.59247604992E+03  0.00000000000E+00 0.  1.
          1    1    3    3  501    0  0.93711664234E+02  0.30991994507E+03 -0.39815950406E+03  0.51318928188E+03  0.00000000000E+00 0.  1.
         21    1    1    2  502  501 -0.51462953821E-01  0.25775750263E-01  0.32421634871E+01  0.32426743441E+01  0.00000000000E+00 0. -1.
<mgrwt>
<rscale>  1 0.65012479E+03</rscale>
<asrwt>0</asrwt>
<pdfrwt beam="1">  1        1 0.39602995E+00 0.65012479E+03</pdfrwt>
<pdfrwt beam="2">0</pdfrwt>
<totfact> 0.13934175E+00</totfact>
</mgrwt>
</event>
<event>
 6    1  0.2558947E-003  0.6517501E+03  0.7818608E-02  0.9803501E-01
          1   -1    0    0  502    0  0.00000000000E+00  0.00000000000E+00  0.10620240126E+03  0.10620240126E+03  0.00000000000E+00 0.  1.
         13   -1    0    0    0    0 -0.00000000000E+00 -0.00000000000E+00 -0.10000000000E+04  0.10000000000E+04  0.00000000000E+00 0.  1.
    9000005    2    1    2  501    0  0.72798574263E-03 -0.38815556295E-02 -0.89380491149E+03  0.11061940903E+04  0.65175006368E+03 0.  0.
         13    1    3    3    0    0 -0.27941519087E+03 -0.10712507232E+03 -0.66588405968E+03  0.73003439025E+03  0.00000000000E+00 0.  1.
          1    1    3    3  501    0  0.27941591886E+03  0.10712119076E+03 -0.22792085181E+03  0.37615970001E+03  0.00000000000E+00 0.  1.
         21    1    1    2  502  501 -0.72798574262E-03  0.38815556295E-02  0.73127534440E-02  0.83110047695E-02  0.00000000000E+00 0.  1.
<mgrwt>
<rscale>  1 0.65175006E+03</rscale>
<asrwt>0</asrwt>
<pdfrwt beam="1">  1        1 0.38619136E+00 0.65175006E+03</pdfrwt>
<pdfrwt beam="2">0</pdfrwt>
<totfact> 0.15402831E+00</totfact>
</mgrwt>
</event>
<event>
 6    1  0.2558947E-003  0.6106698E+03  0.7818608E-02  0.9883513E-01
          1   -1    0    0  502    0  0.00000000000E+00  0.00000000000E+00  0.93772190133E+02  0.93772190133E+02  0.00000000000E+00 0.  1.
         13   -1    0    0    0    0 -0.00000000000E+00 -0.00000000000E+00 -0.10000000000E+04  0.10000000000E+04  0.00000000000E+00 0.  1.
    9000005    2    1    2  501    0 -0.66530681837E-02  0.11667973629E-01 -0.90677049299E+03  0.10932293408E+04  0.61066984901E+03 0.  0.
         13    1    3    3    0    0 -0.18238013657E+03  0.11593302532E+03 -0.67232035162E+02  0.22632526842E+03  0.00000000000E+00 0.  1.
          3    1    3    3  501    0  0.18237348350E+03 -0.11592135735E+03 -0.83953845783E+03  0.86690407240E+03  0.00000000000E+00 0.  1.
         21    1    1    2  502  501  0.66530681838E-02 -0.11667973629E-01  0.54268312279E+00  0.54284931306E+00  0.00000000000E+00 0.  1.
<mgrwt>
<rscale>  1 0.61066985E+03</rscale>
<asrwt>0</asrwt>
<pdfrwt beam="1">  1        1 0.34099050E+00 0.61066985E+03</pdfrwt>
<pdfrwt beam="2">0</pdfrwt>
<totfact> 0.24483993E+00</totfact>
</mgrwt>
</event>
<event>
 6    1  0.2558947E-003  0.6503063E+03  0.7818608E-02  0.9806205E-01
          3   -1    0    0  502    0  0.00000000000E+00  0.00000000000E+00  0.10582409100E+03  0.10582409100E+03  0.00000000000E+00 0.  1.
         13   -1    0    0    0    0 -0.00000000000E+00 -0.00000000000E+00 -0.10000000000E+04  0.10000000000E+04  0.00000000000E+00 0.  1.
    9000005    2    1    2  501    0 -0.45913239845E-02 -0.35626107933E-03 -0.89427536242E+03  0.11057245310E+04  0.65030632370E+03 0.  0.
         13    1    3    3    0    0 -0.45668271640E+02  0.30172064078E+03 -0.63802595845E+03  0.70724681672E+03  0.00000000000E+00 0.  1.
          1    1    3    3  501    0  0.45663680316E+02 -0.30172099704E+03 -0.25624940397E+03  0.39847771429E+03  0.00000000000E+00 0.  1.
         21    1    1    2  502  501  0.45913239845E-02  0.35626107932E-03  0.99453417237E-01  0.99559978797E-01  0.00000000000E+00 0.  1.
<mgrwt>
<rscale>  1 0.65030632E+03</rscale>
<asrwt>0</asrwt>
<pdfrwt beam="1">  1        3 0.38481569E+00 0.65030632E+03</pdfrwt>
<pdfrwt beam="2">0</pdfrwt>
<totfact> 0.71185278E-02</totfact>
</mgrwt>
</event>
<event>
 6    1  0.2558947E-003  0.5952306E+03  0.7818608E-02  0.9915351E-01
          1   -1    0    0  502    0  0.00000000000E+00  0.00000000000E+00  0.88585410600E+02  0.88585410600E+02  0.00000000000E+00 0.  1.
         13   -1    0    0    0    0 -0.00000000000E+00 -0.00000000000E+00 -0.10000000000E+04  0.10000000000E+04  0.00000000000E+00 0.  1.
    9000005    2    1    2  501    0 -0.49950011420E-02 -0.92992062945E-02 -0.91142217968E+03  0.10885724092E+04  0.59523062778E+03 0.  0.
         13    1    3    3    0    0 -0.10126215794E+03 -0.23764498743E+02 -0.96567906756E+03  0.97126455591E+03  0.00000000000E+00 0.  1.
          1    1    3    3  501    0  0.10125716293E+03  0.23755199537E+02  0.54256887885E+02  0.11730785325E+03  0.00000000000E+00 0.  1.
         21    1    1    2  502  501  0.49950011420E-02  0.92992062945E-02  0.75902792355E-02  0.13001446573E-01  0.00000000000E+00 0.  1.
<mgrwt>
<rscale>  1 0.59523063E+03</rscale>
<asrwt>0</asrwt>
<pdfrwt beam="1">  1        1 0.32212945E+00 0.59523063E+03</pdfrwt>
<pdfrwt beam="2">0</pdfrwt>
<totfact> 0.29635069E+00</totfact>
</mgrwt>
</event>
<event>
 6    1  0.2558947E-003  0.6435121E+03  0.7818608E-02  0.9819030E-01
          1   -1    0    0  502    0  0.00000000000E+00  0.00000000000E+00  0.10464727787E+03  0.10464727787E+03  0.00000000000E+00 0.  1.
         13   -1    0    0    0    0 -0.00000000000E+00 -0.00000000000E+00 -0.10000000000E+04  0.10000000000E+04  0.00000000000E+00 0.  1.
    9000005    2    1    2  501    0 -0.18739943085E+01  0.27731871155E+01 -0.89212363342E+03  0.10999965322E+04  0.64350337304E+03 0.  0.
         13    1    3    3    0    0 -0.24270929502E+03 -0.19917125412E+03 -0.56484483334E+03  0.64624041665E+03  0.00000000000E+00 0.  1.
          3    1    3    3  501    0  0.24083530071E+03  0.20194444124E+03 -0.32727880008E+03  0.45375611555E+03  0.00000000000E+00 0.  1.
         21    1    1    2  502  501  0.18739943085E+01 -0.27731871155E+01 -0.32290887055E+01  0.46507456729E+01  0.00000000000E+00 0. -1.
<mgrwt>
<rscale>  1 0.64351208E+03</rscale>
<asrwt>0</asrwt>
<pdfrwt beam="1">  1        1 0.38053636E+00 0.64351208E+03</pdfrwt>
<pdfrwt beam="2">0</pdfrwt>
<totfact> 0.16340036E+00</totfact>
</mgrwt>
</event>
<event>
 6    1  0.2558947E-003  0.5248930E+03  0.7818608E-02  0.1007478E+00
          1   -1    0    0  502    0  0.00000000000E+00  0.00000000000E+00  0.69045199934E+02  0.69045199934E+02  0.00000000000E+00 0.  1.
         13   -1    0    0    0    0 -0.00000000000E+00 -0.00000000000E+00 -0.10000000000E+04  0.10000000000E+04  0.00000000000E+00 0.  1.
    9000005    2    1    2  501    0 -0.29793324422E-02 -0.23071633120E-01 -0.93112097395E+03  0.10688774056E+04  0.52489297915E+03 0.  0.
         13    1    3    3    0    0 -0.10210716437E+03 -0.11040432164E+03 -0.90358435465E+03  0.91601292197E+03  0.00000000000E+00 0.  1.
          1    1    3    3  501    0  0.10210418503E+03  0.11038125001E+03 -0.27536619296E+02  0.15286448364E+03  0.00000000000E+00 0.  1.
         21    1    1    2  502  501  0.29793324422E-02  0.23071633120E-01  0.16617388057E+00  0.16779432428E+00  0.00000000000E+00 0. -1.
<mgrwt>
<rscale>  1 0.52489298E+03</rscale>
<asrwt>0</asrwt>
<pdfrwt beam="1">  1        1 0.25107398E+00 0.52489298E+03</pdfrwt>
<pdfrwt beam="2">0</pdfrwt>
<totfact> 0.60842999E+00</totfact>
</mgrwt>
</event>
<event>
 6    1  0.2558947E-003  0.6225509E+03  0.7818608E-02  0.9859694E-01
          1   -1    0    0  502    0  0.00000000000E+00  0.00000000000E+00  0.97068880345E+02  0.97068880345E+02  0.00000000000E+00 0.  1.
         13   -1    0    0    0    0 -0.00000000000E+00 -0.00000000000E+00 -0.10000000000E+04  0.10000000000E+04  0.00000000000E+00 0.  1.
    9000005    2    1    2  501    0  0.10941013722E+00  0.27709769339E-01 -0.90308761430E+03  0.10968759322E+04  0.62255084838E+03 0.  0.
         13    1    3    3    0    0  0.76614917206E+02 -0.20869899901E+03 -0.83542648863E+03  0.86450132194E+03  0.00000000000E+00 0.  1.
          1    1    3    3  501    0 -0.76505507069E+02  0.20872670878E+03 -0.67661125668E+02  0.23237461027E+03  0.00000000000E+00 0.  1.
         21    1    1    2  502  501 -0.10941013722E+00 -0.27709769339E-01  0.15649464552E+00  0.19294813687E+00  0.00000000000E+00 0.  1.
<mgrwt>
<rscale>  1 0.62255086E+03</rscale>
<asrwt>0</asrwt>
<pdfrwt beam="1">  1        1 0.35297849E+00 0.62255086E+03</pdfrwt>
<pdfrwt beam="2">0</pdfrwt>
<totfact> 0.21666015E+00</totfact>
</mgrwt>
</event>
<event>
 6    1  0.2558947E-003  0.6255355E+03  0.7818608E-02  0.9853800E-01
          1   -1    0    0  502    0  0.00000000000E+00  0.00000000000E+00  0.99307168674E+02  0.99307168674E+02  0.00000000000E+00 0.  1.
         13   -1    0    0    0    0 -0.00000000000E+00 -0.00000000000E+00 -0.10000000000E+04  0.10000000000E+04  0.00000000000E+00 0.  1.
    9000005    2    1    2  501    0 -0.66131764756E-02  0.25112864906E-01 -0.90217620541E+03  0.10978235673E+04  0.62553551348E+03 0.  0.
         13    1    3    3    0    0 -0.10220828357E+03  0.28707291822E+03 -0.57488343972E+03  0.65065225956E+03  0.00000000000E+00 0.  1.
          1    1    3    3  501    0  0.10220167039E+03 -0.28704780535E+03 -0.32729276569E+03  0.44717130773E+03  0.00000000000E+00 0.  1.
         21    1    1    2  502  501  0.66131764756E-02 -0.25112864905E-01  0.14833740828E+01  0.14836013816E+01  0.00000000000E+00 0.  1.
<mgrwt>
<rscale>  1 0.62553551E+03</rscale>
<asrwt>0</asrwt>
<pdfrwt beam="1">  1        1 0.36111774E+00 0.62553551E+03</pdfrwt>
<pdfrwt beam="2">0</pdfrwt>
<totfact> 0.19952242E+00</totfact>
</mgrwt>
</event>
<event>
 6    1  0.2558947E-003  0.6560847E+03  0.7818608E-02  0.9795428E-01
          1   -1    0    0  502    0  0.00000000000E+00  0.00000000000E+00  0.10761178407E+03  0.10761178407E+03  0.00000000000E+00 0.  1.
         13   -1    0    0    0    0 -0.00000000000E+00 -0.00000000000E+00 -0.10000000000E+04  0.10000000000E+04  0.00000000000E+00 0.  1.
    9000005    2    1    2  501    0 -0.26155030355E-05 -0.73724849869E-06 -0.89238822225E+03  0.11076117772E+04  0.65608468186E+03 0.  0.
         13    1    3    3    0    0  0.28198313725E+03 -0.12684932975E+03 -0.63117910648E+03  0.70284586263E+03  0.00000000000E+00 0.  1.
          3    1    3    3  501    0 -0.28198313986E+03  0.12684932901E+03 -0.26120911576E+03  0.40476591457E+03  0.00000000000E+00 0.  1.
         21    1    1    2  502  501  0.26155030061E-05  0.73724849898E-06  0.63164824344E-05  0.68762156502E-05  0.00000000000E+00 0.  1.
<mgrwt>
<rscale>  1 0.65608468E+03</rscale>
<asrwt>0</asrwt>
<pdfrwt beam="1">  1        1 0.39131640E+00 0.65608468E+03</pdfrwt>
<pdfrwt beam="2">0</pdfrwt>
<totfact> 0.14606234E+00</totfact>
</mgrwt>
</event>
<event>
 6    1  0.2558947E-003  0.6800142E+03  0.7818608E-02  0.9752034E-01
          1   -1    0    0  502    0  0.00000000000E+00  0.00000000000E+00  0.11567240526E+03  0.11567240526E+03  0.00000000000E+00 0.  1.
         13   -1    0    0    0    0 -0.00000000000E+00 -0.00000000000E+00 -0.10000000000E+04  0.10000000000E+04  0.00000000000E+00 0.  1.
    9000005    2    1    2  501    0  0.84478556565E-01  0.20696121132E-02 -0.88436422426E+03  0.11155803041E+04  0.68001421051E+03 0.  0.
         13    1    3    3    0    0  0.32143689679E+03  0.11067487106E+03 -0.42935773013E+03  0.54764830514E+03  0.00000000000E+00 0.  1.
          3    1    3    3  501    0 -0.32135241824E+03 -0.11067280144E+03 -0.45500649413E+03  0.56793199891E+03  0.00000000000E+00 0.  1.
         21    1    1    2  502  501 -0.84478556565E-01 -0.20696121132E-02  0.36629516060E-01  0.92101201189E-01  0.00000000000E+00 0.  1.
<mgrwt>
<rscale>  1 0.68001422E+03</rscale>
<asrwt>0</asrwt>
<pdfrwt beam="1">  1        1 0.42062782E+00 0.68001422E+03</pdfrwt>
<pdfrwt beam="2">0</pdfrwt>
<totfact> 0.10749668E+00</totfact>
</mgrwt>
</event>
<event>
 6    1  0.2558947E-003  0.6652817E+03  0.7818608E-02  0.9778519E-01
          1   -1    0    0  502    0  0.00000000000E+00  0.00000000000E+00  0.11065010716E+03  0.11065010716E+03  0.00000000000E+00 0.  1.
         13   -1    0    0    0    0 -0.00000000000E+00 -0.00000000000E+00 -0.10000000000E+04  0.10000000000E+04  0.00000000000E+00 0.  1.
    9000005    2    1    2  501    0 -0.11075676809E-04 -0.71955885517E-05 -0.88935006291E+03  0.11106499366E+04  0.66528170517E+03 0.  0.
         13    1    3    3    0    0 -0.10494500335E+03 -0.17897472961E+03 -0.10605287895E+02  0.20774474650E+03  0.00000000000E+00 0.  1.
          3    1    3    3  501    0  0.10494499227E+03  0.17897472241E+03 -0.87874477501E+03  0.90290519008E+03  0.00000000000E+00 0.  1.
         21    1    1    2  502  501  0.11075676814E-04  0.71955885478E-05  0.17006714195E-03  0.17057924810E-03  0.00000000000E+00 0. -1.
<mgrwt>
<rscale>  1 0.66528171E+03</rscale>
<asrwt>0</asrwt>
<pdfrwt beam="1">  1        1 0.40236487E+00 0.66528171E+03</pdfrwt>
<pdfrwt beam="2">0</pdfrwt>
<totfact> 0.13020006E+00</totfact>
</mgrwt>
</event>
<event>
 6    1  0.2558947E-003  0.6468023E+03  0.7818608E-02  0.9812798E-01
          3   -1    0    0  502    0  0.00000000000E+00  0.00000000000E+00  0.10472178886E+03  0.10472178886E+03  0.00000000000E+00 0.  1.
         13   -1    0    0    0    0 -0.00000000000E+00 -0.00000000000E+00 -0.10000000000E+04  0.10000000000E+04  0.00000000000E+00 0.  1.
    9000005    2    1    2  501    0  0.32828816530E+00 -0.13591412152E+00 -0.89506544959E+03  0.11043076473E+04  0.64680220667E+03 0.  0.
         13    1    3    3    0    0 -0.16829868076E+02  0.29759255825E+03 -0.66134691421E+03  0.72541320372E+03  0.00000000000E+00 0.  1.
          1    1    3    3  501    0  0.17158156241E+02 -0.29772847237E+03 -0.23371853537E+03  0.37889444357E+03  0.00000000000E+00 0.  1.
         21    1    1    2  502  501 -0.32828816530E+00  0.13591412152E+00 -0.21276155419E+00  0.41414157826E+00  0.00000000000E+00 0.  1.
<mgrwt>
<rscale>  1 0.64680230E+03</rscale>
<asrwt>0</asrwt>
<pdfrwt beam="1">  1        3 0.38080731E+00 0.64680230E+03</pdfrwt>
<pdfrwt beam="2">0</pdfrwt>
<totfact> 0.74781326E-02</totfact>
</mgrwt>
</event>
<event>
 6    1  0.2558947E-003  0.6378650E+03  0.7818608E-02  0.9829820E-01
          1   -1    0    0  502    0  0.00000000000E+00  0.00000000000E+00  0.10192742857E+03  0.10192742857E+03  0.00000000000E+00 0.  1.
         13   -1    0    0    0    0 -0.00000000000E+00 -0.00000000000E+00 -0.10000000000E+04  0.10000000000E+04  0.00000000000E+00 0.  1.
    9000005    2    1    2  501    0  0.40717822580E-02  0.12221616255E-02 -0.89828205178E+03  0.11017179051E+04  0.63786495264E+03 0.  0.
         13    1    3    3    0    0  0.19224748921E+03  0.24925065205E+03 -0.36049892648E+03  0.47858589684E+03  0.00000000000E+00 0.  1.
          1    1    3    3  501    0 -0.19224341743E+03 -0.24924942989E+03 -0.53778312530E+03  0.62313200825E+03  0.00000000000E+00 0.  1.
         21    1    1    2  502  501 -0.40717822580E-02 -0.12221616255E-02  0.20948035160E+00  0.20952348507E+00  0.00000000000E+00 0. -1.
<mgrwt>
<rscale>  1 0.63786495E+03</rscale>
<asrwt>0</asrwt>
<pdfrwt beam="1">  1        1 0.37064598E+00 0.63786495E+03</pdfrwt>
<pdfrwt beam="2">0</pdfrwt>
<totfact> 0.18082070E+00</totfact>
</mgrwt>
</event>
<event>
 6    1  0.2558947E-003  0.6654227E+03  0.7818608E-02  0.9778262E-01
          1   -1    0    0  502    0  0.00000000000E+00  0.00000000000E+00  0.11283315069E+03  0.11283315069E+03  0.00000000000E+00 0.  1.
         13   -1    0    0    0    0 -0.00000000000E+00 -0.00000000000E+00 -0.10000000000E+04  0.10000000000E+04  0.00000000000E+00 0.  1.
    9000005    2    1    2  501    0  0.46100269076E-02  0.18562899035E+00 -0.88929869007E+03  0.11106932384E+04  0.66542262907E+03 0.  0.
         13    1    3    3    0    0  0.39502396452E+01  0.28169499675E+03 -0.74044192377E+03  0.79222592615E+03  0.00000000000E+00 0.  1.
          1    1    3    3  501    0 -0.39456296183E+01 -0.28150936776E+03 -0.14885676630E+03  0.31846731230E+03  0.00000000000E+00 0.  1.
         21    1    1    2  502  501 -0.46100269076E-02 -0.18562899035E+00  0.21318407674E+01  0.21399122487E+01  0.00000000000E+00 0.  1.
<mgrwt>
<rscale>  1 0.66542265E+03</rscale>
<asrwt>0</asrwt>
<pdfrwt beam="1">  1        1 0.41030323E+00 0.66542265E+03</pdfrwt>
<pdfrwt beam="2">0</pdfrwt>
<totfact> 0.11996962E+00</totfact>
</mgrwt>
</event>
<event>
 6    1  0.2558947E-003  0.6481480E+03  0.7818608E-02  0.9810261E-01
          1   -1    0    0  502    0  0.00000000000E+00  0.00000000000E+00  0.10502446851E+03  0.10502446851E+03  0.00000000000E+00 0.  1.
         13   -1    0    0    0    0 -0.00000000000E+00 -0.00000000000E+00 -0.10000000000E+04  0.10000000000E+04  0.00000000000E+00 0.  1.
    9000005    2    1    2  501    0 -0.77027695113E-04  0.29929395907E-04 -0.89497605074E+03  0.11050239427E+04  0.64814796350E+03 0.  0.
         13    1    3    3    0    0  0.22161592651E+03  0.19470991917E+03 -0.67621320842E+03  0.73776003873E+03  0.00000000000E+00 0.  1.
          1    1    3    3  501    0 -0.22161600354E+03 -0.19470988924E+03 -0.21876284232E+03  0.36726390399E+03  0.00000000000E+00 0.  1.
         21    1    1    2  502  501  0.77027695123E-04 -0.29929395907E-04  0.51924761968E-03  0.52578239329E-03  0.00000000000E+00 0. -1.
<mgrwt>
<rscale>  1 0.64814796E+03</rscale>
<asrwt>0</asrwt>
<pdfrwt beam="1">  1        1 0.38190796E+00 0.64814796E+03</pdfrwt>
<pdfrwt beam="2">0</pdfrwt>
<totfact> 0.16100029E+00</totfact>
</mgrwt>
</event>
<event>
 6    1  0.2558947E-003  0.6558630E+03  0.7818608E-02  0.9795840E-01
          1   -1    0    0  502    0  0.00000000000E+00  0.00000000000E+00  0.10826141900E+03  0.10826141900E+03  0.00000000000E+00 0.  1.
         13   -1    0    0    0    0 -0.00000000000E+00 -0.00000000000E+00 -0.10000000000E+04  0.10000000000E+04  0.00000000000E+00 0.  1.
    9000005    2    1    2  501    0 -0.40952776389E+00 -0.44949652631E+00 -0.89231640214E+03  0.11074225880E+04  0.65586268167E+03 0.  0.
         13    1    3    3    0    0 -0.25301341027E+03 -0.79393235782E+02 -0.12008541354E+03  0.29110063244E+03  0.00000000000E+00 0.  1.
          1    1    3    3  501    0  0.25260388251E+03  0.78943739255E+02 -0.77223098860E+03  0.81632195559E+03  0.00000000000E+00 0.  1.
         21    1    1    2  502  501  0.40952776389E+00  0.44949652631E+00  0.57782113992E+00  0.83883096408E+00  0.00000000000E+00 0. -1.
<mgrwt>
<rscale>  1 0.65586296E+03</rscale>
<asrwt>0</asrwt>
<pdfrwt beam="1">  1        1 0.39367872E+00 0.65586296E+03</pdfrwt>
<pdfrwt beam="2">0</pdfrwt>
<totfact> 0.14258245E+00</totfact>
</mgrwt>
</event>
<event>
 6    1  0.2558947E-003  0.6542018E+03  0.7818608E-02  0.9798927E-01
          1   -1    0    0  502    0  0.00000000000E+00  0.00000000000E+00  0.10723183385E+03  0.10723183385E+03  0.00000000000E+00 0.  1.
         13   -1    0    0    0    0 -0.00000000000E+00 -0.00000000000E+00 -0.10000000000E+04  0.10000000000E+04  0.00000000000E+00 0.  1.
    9000005    2    1    2  501    0 -0.25688198344E-01 -0.28268138343E-01 -0.89300331103E+03  0.11069936069E+04  0.65420175076E+03 0.  0.
         13    1    3    3    0    0  0.32551494329E+03  0.23959171567E+02 -0.41051070161E+03  0.52445500888E+03  0.00000000000E+00 0.  1.
          3    1    3    3  501    0 -0.32554063149E+03 -0.23987439705E+02 -0.48249260943E+03  0.58253859800E+03  0.00000000000E+00 0.  1.
         21    1    1    2  502  501  0.25688198344E-01  0.28268138343E-01  0.23514488327E+00  0.23822696596E+00  0.00000000000E+00 0.  1.
<mgrwt>
<rscale>  1 0.65420175E+03</rscale>
<asrwt>0</asrwt>
<pdfrwt beam="1">  1        1 0.38993476E+00 0.65420175E+03</pdfrwt>
<pdfrwt beam="2">0</pdfrwt>
<totfact> 0.14819012E+00</totfact>
</mgrwt>
</event>
<event>
 6    1  0.2558947E-003  0.6353796E+03  0.7818608E-02  0.9834607E-01
          1   -1    0    0  502    0  0.00000000000E+00  0.00000000000E+00  0.10092720783E+03  0.10092720783E+03  0.00000000000E+00 0.  1.
         13   -1    0    0    0    0 -0.00000000000E+00 -0.00000000000E+00 -0.10000000000E+04  0.10000000000E+04  0.00000000000E+00 0.  1.
    9000005    2    1    2  501    0  0.33161548295E-03 -0.55918288808E-05 -0.89907312170E+03  0.11009267403E+04  0.63537957895E+03 0.  0.
         13    1    3    3    0    0 -0.94783916636E+02  0.30285722601E+03 -0.47525297921E+03  0.57146468346E+03  0.00000000000E+00 0.  1.
          1    1    3    3  501    0  0.94784248252E+02 -0.30285723160E+03 -0.42382014249E+03  0.52946205684E+03  0.00000000000E+00 0.  1.
         21    1    1    2  502  501 -0.33161548294E-03  0.55918288743E-05  0.32952572029E-03  0.46753320461E-03  0.00000000000E+00 0.  1.
<mgrwt>
<rscale>  1 0.63537958E+03</rscale>
<asrwt>0</asrwt>
<pdfrwt beam="1">  1        1 0.36700880E+00 0.63537958E+03</pdfrwt>
<pdfrwt beam="2">0</pdfrwt>
<totfact> 0.18767660E+00</totfact>
</mgrwt>
</event>
<event>
 6    1  0.2558947E-003  0.6583728E+03  0.7818608E-02  0.9791194E-01
          1   -1    0    0  502    0  0.00000000000E+00  0.00000000000E+00  0.10836703274E+03  0.10836703274E+03  0.00000000000E+00 0.  1.
         13   -1    0    0    0    0 -0.00000000000E+00 -0.00000000000E+00 -0.10000000000E+04  0.10000000000E+04  0.00000000000E+00 0.  1.
    9000005    2    1    2  501    0  0.85288707453E-04  0.12497883333E-04 -0.89163631773E+03  0.11083636812E+04  0.65837278697E+03 0.  0.
         13    1    3    3    0    0  0.30071475598E+03 -0.45937252690E+02 -0.23404546043E+03  0.38381880256E+03  0.00000000000E+00 0.  1.
          1    1    3    3  501    0 -0.30071467070E+03  0.45937265188E+02 -0.65759085730E+03  0.72454487860E+03  0.00000000000E+00 0.  1.
         21    1    1    2  502  501 -0.85288707441E-04 -0.12497883335E-04  0.33504684194E-02  0.33515770900E-02  0.00000000000E+00 0. -1.
<mgrwt>
<rscale>  1 0.65837279E+03</rscale>
<asrwt>0</asrwt>
<pdfrwt beam="1">  1        1 0.39406277E+00 0.65837279E+03</pdfrwt>
<pdfrwt beam="2">0</pdfrwt>
<totfact> 0.14195686E+00</totfact>
</mgrwt>
</event>
<event>
 6    1  0.2558947E-003  0.6503143E+03  0.7818608E-02  0.9806190E-01
          1   -1    0    0  502    0  0.00000000000E+00  0.00000000000E+00  0.10605767345E+03  0.10605767345E+03  0.00000000000E+00 0.  1.
         13   -1    0    0    0    0 -0.00000000000E+00 -0.00000000000E+00 -0.10000000000E+04  0.10000000000E+04  0.00000000000E+00 0.  1.
    9000005    2    1    2  501    0  0.40968243451E-01 -0.27149786546E+00 -0.89420856760E+03  0.11056752159E+04  0.65031426654E+03 0.  0.
         13    1    3    3    0    0 -0.22014277481E+03 -0.22896869186E+03 -0.56611985651E+03  0.64913881034E+03  0.00000000000E+00 0.  1.
          1    1    3    3  501    0  0.22018374305E+03  0.22869719400E+03 -0.32808871109E+03  0.45653640555E+03  0.00000000000E+00 0.  1.
         21    1    1    2  502  501 -0.40968243451E-01  0.27149786546E+00  0.26624105375E+00  0.38245756186E+00  0.00000000000E+00 0.  1.
<mgrwt>
<rscale>  1 0.65031432E+03</rscale>
<asrwt>0</asrwt>
<pdfrwt beam="1">  1        1 0.38566508E+00 0.65031432E+03</pdfrwt>
<pdfrwt beam="2">0</pdfrwt>
<totfact> 0.15489763E+00</totfact>
</mgrwt>
</event>
<event>
 6    1  0.2558947E-003  0.6561419E+03  0.7818608E-02  0.9795322E-01
          1   -1    0    0  502    0  0.00000000000E+00  0.00000000000E+00  0.10768393302E+03  0.10768393302E+03  0.00000000000E+00 0.  1.
         13   -1    0    0    0    0 -0.00000000000E+00 -0.00000000000E+00 -0.10000000000E+04  0.10000000000E+04  0.00000000000E+00 0.  1.
    9000005    2    1    2  501    0  0.44279167218E-02  0.77636686530E-01 -0.89233606792E+03  0.11076036392E+04  0.65614187292E+03 0.  0.
         13    1    3    3    0    0 -0.19505951684E+03 -0.34883032478E+02 -0.88752142453E+03  0.90937303680E+03  0.00000000000E+00 0.  1.
          1    1    3    3  501    0  0.19506394476E+03  0.34960669164E+02 -0.48146433860E+01  0.19823060239E+03  0.00000000000E+00 0.  1.
         21    1    1    2  502  501 -0.44279167218E-02 -0.77636686530E-01  0.20000938347E-01  0.80293829630E-01  0.00000000000E+00 0.  1.
<mgrwt>
<rscale>  1 0.65614188E+03</rscale>
<asrwt>0</asrwt>
<pdfrwt beam="1">  1        1 0.39157876E+00 0.65614188E+03</pdfrwt>
<pdfrwt beam="2">0</pdfrwt>
<totfact> 0.14566970E+00</totfact>
</mgrwt>
</event>
<event>
 6    1  0.2558947E-003  0.6525415E+03  0.7818608E-02  0.9802022E-01
          1   -1    0    0  502    0  0.00000000000E+00  0.00000000000E+00  0.10647752355E+03  0.10647752355E+03  0.00000000000E+00 0.  1.
         13   -1    0    0    0    0 -0.00000000000E+00 -0.00000000000E+00 -0.10000000000E+04  0.10000000000E+04  0.00000000000E+00 0.  1.
    9000005    2    1    2  501    0 -0.76565725919E-02  0.80264905403E-02 -0.89354601169E+03  0.11064515052E+04  0.65254153754E+03 0.  0.
         13    1    3    3    0    0  0.16746218332E+03  0.11171490009E+03 -0.88214428187E+03  0.90482171492E+03  0.00000000000E+00 0.  1.
          3    1    3    3  501    0 -0.16746983989E+03 -0.11170687360E+03 -0.11401729812E+02  0.20162979027E+03  0.00000000000E+00 0.  1.
         21    1    1    2  502  501  0.76565725919E-02 -0.80264905403E-02  0.23535233043E-01  0.26018355994E-01  0.00000000000E+00 0.  1.
<mgrwt>
<rscale>  1 0.65254154E+03</rscale>
<asrwt>0</asrwt>
<pdfrwt beam="1">  1        1 0.38719181E+00 0.65254154E+03</pdfrwt>
<pdfrwt beam="2">0</pdfrwt>
<totfact> 0.15244315E+00</totfact>
</mgrwt>
</event>
<event>
 6    1  0.2558947E-003  0.6528214E+03  0.7818608E-02  0.9801499E-01
          1   -1    0    0  502    0  0.00000000000E+00  0.00000000000E+00  0.10654453607E+03  0.10654453607E+03  0.00000000000E+00 0.  1.
         13   -1    0    0    0    0 -0.00000000000E+00 -0.00000000000E+00 -0.10000000000E+04  0.10000000000E+04  0.00000000000E+00 0.  1.
    9000005    2    1    2  501    0 -0.71404009020E-04 -0.48498130482E-04 -0.89345603852E+03  0.11065439550E+04  0.65282143932E+03 0.  0.
         13    1    3    3    0    0  0.27802837029E+03  0.11739589661E+03 -0.65749960220E+03  0.72345511133E+03  0.00000000000E+00 0.  1.
          1    1    3    3  501    0 -0.27802844170E+03 -0.11739594510E+03 -0.23595643633E+03  0.38308884370E+03  0.00000000000E+00 0.  1.
         21    1    1    2  502  501  0.71404009005E-04  0.48498130471E-04  0.57458927205E-03  0.58103651582E-03  0.00000000000E+00 0. -1.
<mgrwt>
<rscale>  1 0.65282144E+03</rscale>
<asrwt>0</asrwt>
<pdfrwt beam="1">  1        1 0.38743549E+00 0.65282144E+03</pdfrwt>
<pdfrwt beam="2">0</pdfrwt>
<totfact> 0.15205695E+00</totfact>
</mgrwt>
</event>
<event>
 6    1  0.2558947E-003  0.6502847E+03  0.7818608E-02  0.9806245E-01
          1   -1    0    0  502    0  0.00000000000E+00  0.00000000000E+00  0.10574807021E+03  0.10574807021E+03  0.00000000000E+00 0.  1.
         13   -1    0    0    0    0 -0.00000000000E+00 -0.00000000000E+00 -0.10000000000E+04  0.10000000000E+04  0.00000000000E+00 0.  1.
    9000005    2    1    2  501    0  0.43164146305E-04 -0.62904669790E-03 -0.89428244473E+03  0.11057175488E+04  0.65028471202E+03 0.  0.
         13    1    3    3    0    0  0.23340591282E+02 -0.14235333578E+03 -0.94260980464E+03  0.95358402840E+03  0.00000000000E+00 0.  1.
          1    1    3    3  501    0 -0.23340548117E+02  0.14235270673E+03  0.48327359918E+02  0.15213352036E+03  0.00000000000E+00 0.  1.
         21    1    1    2  502  501 -0.43164146305E-04  0.62904669791E-03  0.30514936986E-01  0.30521450525E-01  0.00000000000E+00 0.  1.
<mgrwt>
<rscale>  1 0.65028471E+03</rscale>
<asrwt>0</asrwt>
<pdfrwt beam="1">  1        1 0.38453925E+00 0.65028471E+03</pdfrwt>
<pdfrwt beam="2">0</pdfrwt>
<totfact> 0.15668491E+00</totfact>
</mgrwt>
</event>
<event>
 6    1  0.2558947E-003  0.6339960E+03  0.7818608E-02  0.9837282E-01
          1   -1    0    0  502    0  0.00000000000E+00  0.00000000000E+00  0.10048902116E+03  0.10048902116E+03  0.00000000000E+00 0.  1.
         13   -1    0    0    0    0 -0.00000000000E+00 -0.00000000000E+00 -0.10000000000E+04  0.10000000000E+04  0.00000000000E+00 0.  1.
    9000005    2    1    2  501    0 -0.29115787555E-04  0.27170997102E-04 -0.89951227301E+03  0.11004877264E+04  0.63399598312E+03 0.  0.
         13    1    3    3    0    0  0.17795958680E+03 -0.77736414691E+01 -0.90491110087E+03  0.92227660954E+03  0.00000000000E+00 0.  1.
          1    1    3    3  501    0 -0.17795961592E+03  0.77736686401E+01  0.53988278586E+01  0.17821111683E+03  0.00000000000E+00 0.  1.
         21    1    1    2  502  501  0.29115787548E-04 -0.27170997102E-04  0.12941706276E-02  0.12947832272E-02  0.00000000000E+00 0. -1.
<mgrwt>
<rscale>  1 0.63399598E+03</rscale>
<asrwt>0</asrwt>
<pdfrwt beam="1">  1        1 0.36541539E+00 0.63399598E+03</pdfrwt>
<pdfrwt beam="2">0</pdfrwt>
<totfact> 0.19076808E+00</totfact>
</mgrwt>
</event>
<event>
 6    1  0.2558947E-003  0.6373327E+03  0.7818608E-02  0.9830843E-01
          1   -1    0    0  502    0  0.00000000000E+00  0.00000000000E+00  0.10157349239E+03  0.10157349239E+03  0.00000000000E+00 0.  1.
         13   -1    0    0    0    0 -0.00000000000E+00 -0.00000000000E+00 -0.10000000000E+04  0.10000000000E+04  0.00000000000E+00 0.  1.
    9000005    2    1    2  501    0  0.34327724362E-02  0.30998516607E-02 -0.89845153178E+03  0.11015480444E+04  0.63733267535E+03 0.  0.
         13    1    3    3    0    0  0.20090946990E+03  0.82257932133E+02 -0.85241746617E+03  0.87962862569E+03  0.00000000000E+00 0.  1.
          1    1    3    3  501    0 -0.20090603713E+03 -0.82254832282E+02 -0.46034065606E+02  0.22191941868E+03  0.00000000000E+00 0.  1.
         21    1    1    2  502  501 -0.34327724362E-02 -0.30998516607E-02  0.25024170704E-01  0.25448027946E-01  0.00000000000E+00 0.  1.
<mgrwt>
<rscale>  1 0.63733268E+03</rscale>
<asrwt>0</asrwt>
<pdfrwt beam="1">  1        1 0.36935893E+00 0.63733268E+03</pdfrwt>
<pdfrwt beam="2">0</pdfrwt>
<totfact> 0.18320727E+00</totfact>
</mgrwt>
</event>
<event>
 6    1  0.2558947E-003  0.6369737E+03  0.7818608E-02  0.9831534E-01
          1   -1    0    0  502    0  0.00000000000E+00  0.00000000000E+00  0.10143394912E+03  0.10143394912E+03  0.00000000000E+00 0.  1.
         13   -1    0    0    0    0 -0.00000000000E+00 -0.00000000000E+00 -0.10000000000E+04  0.10000000000E+04  0.00000000000E+00 0.  1.
    9000005    2    1    2  501    0  0.31008075482E-04  0.15164895331E-05 -0.89856612150E+03  0.11014338720E+04  0.63697370403E+03 0.  0.
         13    1    3    3    0    0  0.96869421573E+02  0.28619488739E+03 -0.62342898066E+03  0.69278776861E+03  0.00000000000E+00 0.  1.
          3    1    3    3  501    0 -0.96869390565E+02 -0.28619488587E+03 -0.27513714084E+03  0.40864610337E+03  0.00000000000E+00 0.  1.
         21    1    1    2  502  501 -0.31008075482E-04 -0.15164895317E-05  0.70619039888E-04  0.77141747973E-04  0.00000000000E+00 0.  1.
<mgrwt>
<rscale>  1 0.63697370E+03</rscale>
<asrwt>0</asrwt>
<pdfrwt beam="1">  1        1 0.36885150E+00 0.63697370E+03</pdfrwt>
<pdfrwt beam="2">0</pdfrwt>
<totfact> 0.18416147E+00</totfact>
</mgrwt>
</event>
<event>
 6    1  0.2558947E-003  0.6466869E+03  0.7818608E-02  0.9813016E-01
          1   -1    0    0  502    0  0.00000000000E+00  0.00000000000E+00  0.10455646207E+03  0.10455646207E+03  0.00000000000E+00 0.  1.
         13   -1    0    0    0    0 -0.00000000000E+00 -0.00000000000E+00 -0.10000000000E+04  0.10000000000E+04  0.00000000000E+00 0.  1.
    9000005    2    1    2  501    0 -0.59870815606E-02 -0.57201871562E-02 -0.89544531773E+03  0.11045479925E+04  0.64668690311E+03 0.  0.
         13    1    3    3    0    0 -0.13628595560E+03  0.27096243597E+03 -0.25633434088E+03  0.39711685650E+03  0.00000000000E+00 0.  1.
          1    1    3    3  501    0  0.13627996852E+03 -0.27096815616E+03 -0.63911097685E+03  0.70743113601E+03  0.00000000000E+00 0.  1.
         21    1    1    2  502  501  0.59870815606E-02  0.57201871562E-02  0.17798042012E-02  0.84695566419E-02  0.00000000000E+00 0.  1.
<mgrwt>
<rscale>  1 0.64668690E+03</rscale>
<asrwt>0</asrwt>
<pdfrwt beam="1">  1        1 0.38020612E+00 0.64668690E+03</pdfrwt>
<pdfrwt beam="2">0</pdfrwt>
<totfact> 0.16385370E+00</totfact>
</mgrwt>
</event>
<event>
 6    1  0.2558947E-003  0.6334353E+03  0.7818608E-02  0.9838368E-01
          1   -1    0    0  502    0  0.00000000000E+00  0.00000000000E+00  0.10124888530E+03  0.10124888530E+03  0.00000000000E+00 0.  1.
         13   -1    0    0    0    0 -0.00000000000E+00 -0.00000000000E+00 -0.10000000000E+04  0.10000000000E+04  0.00000000000E+00 0.  1.
    9000005    2    1    2  501    0 -0.28240271684E+00 -0.10436411329E+00 -0.89966330003E+03  0.11002882994E+04  0.63343523566E+03 0.  0.
         13    1    3    3    0    0 -0.10742616469E+03 -0.24376791619E+03 -0.15210678723E+03  0.30675666667E+03  0.00000000000E+00 0.  1.
          1    1    3    3  501    0  0.10714376198E+03  0.24366355208E+03 -0.74755651280E+03  0.79353163275E+03  0.00000000000E+00 0.  1.
         21    1    1    2  502  501  0.28240271684E+00  0.10436411329E+00  0.91218532436E+00  0.96058587779E+00  0.00000000000E+00 0. -1.
<mgrwt>
<rscale>  1 0.63343531E+03</rscale>
<asrwt>0</asrwt>
<pdfrwt beam="1">  1        1 0.36817854E+00 0.63343531E+03</pdfrwt>
<pdfrwt beam="2">0</pdfrwt>
<totfact> 0.18553774E+00</totfact>
</mgrwt>
</event>
<event>
 6    1  0.2558947E-003  0.6399143E+03  0.7818608E-02  0.9825891E-01
          1   -1    0    0  502    0  0.00000000000E+00  0.00000000000E+00  0.10237796414E+03  0.10237796414E+03  0.00000000000E+00 0.  1.
         13   -1    0    0    0    0 -0.00000000000E+00 -0.00000000000E+00 -0.10000000000E+04  0.10000000000E+04  0.00000000000E+00 0.  1.
    9000005    2    1    2  501    0 -0.22747949750E-02 -0.32702753042E-02 -0.89762659735E+03  0.11023719080E+04  0.63991430309E+03 0.  0.
         13    1    3    3    0    0 -0.43356629400E+02 -0.18212728249E+03 -0.89579520564E+03  0.91514982095E+03  0.00000000000E+00 0.  1.
          1    1    3    3  501    0  0.43354354605E+02  0.18212401222E+03 -0.18313917102E+01  0.18722208707E+03  0.00000000000E+00 0.  1.
         21    1    1    2  502  501  0.22747949750E-02  0.32702753042E-02  0.45614930131E-02  0.60561217996E-02  0.00000000000E+00 0. -1.
<mgrwt>
<rscale>  1 0.63991430E+03</rscale>
<asrwt>0</asrwt>
<pdfrwt beam="1">  1        1 0.37228429E+00 0.63991430E+03</pdfrwt>
<pdfrwt beam="2">0</pdfrwt>
<totfact> 0.17778124E+00</totfact>
</mgrwt>
</event>
<event>
 6    1  0.2558947E-003  0.6459141E+03  0.7818608E-02  0.9814476E-01
          1   -1    0    0  502    0  0.00000000000E+00  0.00000000000E+00  0.10432341541E+03  0.10432341541E+03  0.00000000000E+00 0.  1.
         13   -1    0    0    0    0 -0.00000000000E+00 -0.00000000000E+00 -0.10000000000E+04  0.10000000000E+04  0.00000000000E+00 0.  1.
    9000005    2    1    2  501    0 -0.29979627001E-01  0.23784618420E-01 -0.89567881197E+03  0.11042850820E+04  0.64591408620E+03 0.  0.
         13    1    3    3    0    0  0.22589230676E+03  0.19662243621E+03 -0.65449324931E+03  0.71975629908E+03  0.00000000000E+00 0.  1.
          3    1    3    3  501    0 -0.22592228639E+03 -0.19659865159E+03 -0.24118556266E+03  0.38452878296E+03  0.00000000000E+00 0.  1.
         21    1    1    2  502  501  0.29979627001E-01 -0.23784618420E-01  0.22273766028E-02  0.38333370776E-01  0.00000000000E+00 0.  1.
<mgrwt>
<rscale>  1 0.64591409E+03</rscale>
<asrwt>0</asrwt>
<pdfrwt beam="1">  1        1 0.37935867E+00 0.64591409E+03</pdfrwt>
<pdfrwt beam="2">0</pdfrwt>
<totfact> 0.16529383E+00</totfact>
</mgrwt>
</event>
<event>
 6    1  0.2558947E-003  0.6474408E+03  0.7818608E-02  0.9811593E-01
          1   -1    0    0  502    0  0.00000000000E+00  0.00000000000E+00  0.11208277042E+03  0.11208277042E+03  0.00000000000E+00 0.  1.
         13   -1    0    0    0    0 -0.00000000000E+00 -0.00000000000E+00 -0.10000000000E+04  0.10000000000E+04  0.00000000000E+00 0.  1.
    9000005    2    1    2  501    0  0.19824838423E+00 -0.75418173384E+01 -0.89298322227E+03  0.11029952739E+04  0.64739680310E+03 0.  0.
         13    1    3    3    0    0 -0.24997251450E+03 -0.18221050767E+03 -0.62305711701E+03  0.69561993802E+03  0.00000000000E+00 0.  1.
          3    1    3    3  501    0  0.25017076288E+03  0.17466869033E+03 -0.26992610526E+03  0.40737533588E+03  0.00000000000E+00 0.  1.
         21    1    1    2  502  501 -0.19824838423E+00  0.75418173384E+01  0.50659926907E+01  0.90874965270E+01  0.00000000000E+00 0. -1.
<mgrwt>
<rscale>  1 0.64744076E+03</rscale>
<asrwt>0</asrwt>
<pdfrwt beam="1">  1        1 0.40757457E+00 0.64744076E+03</pdfrwt>
<pdfrwt beam="2">0</pdfrwt>
<totfact> 0.12382176E+00</totfact>
</mgrwt>
</event>
<event>
 6    1  0.2558947E-003  0.6525499E+03  0.7818608E-02  0.9802006E-01
          1   -1    0    0  502    0  0.00000000000E+00  0.00000000000E+00  0.10645535927E+03  0.10645535927E+03  0.00000000000E+00 0.  1.
         13   -1    0    0    0    0 -0.00000000000E+00 -0.00000000000E+00 -0.10000000000E+04  0.10000000000E+04  0.00000000000E+00 0.  1.
    9000005    2    1    2  501    0  0.46286838113E-05  0.20925969011E-05 -0.89354464612E+03  0.11064553519E+04  0.65254992994E+03 0.  0.
         13    1    3    3    0    0 -0.46474566296E+02 -0.29077760783E+03 -0.20852059208E+03  0.36082175634E+03  0.00000000000E+00 0.  1.
          1    1    3    3  501    0  0.46474570924E+02  0.29077760992E+03 -0.68502405404E+03  0.74563359553E+03  0.00000000000E+00 0.  1.
         21    1    1    2  502  501 -0.46286838078E-05 -0.20925969267E-05  0.53905890874E-05  0.74068972181E-05  0.00000000000E+00 0. -1.
<mgrwt>
<rscale>  1 0.65254993E+03</rscale>
<asrwt>0</asrwt>
<pdfrwt beam="1">  1        1 0.38711121E+00 0.65254993E+03</pdfrwt>
<pdfrwt beam="2">0</pdfrwt>
<totfact> 0.15256824E+00</totfact>
</mgrwt>
</event>
<event>
 6    1  0.2558947E-003  0.6431932E+03  0.7818608E-02  0.9819636E-01
          1   -1    0    0  502    0  0.00000000000E+00  0.00000000000E+00  0.10342438721E+03  0.10342438721E+03  0.00000000000E+00 0.  1.
         13   -1    0    0    0    0 -0.00000000000E+00 -0.00000000000E+00 -0.10000000000E+04  0.10000000000E+04  0.00000000000E+00 0.  1.
    9000005    2    1    2  501    0 -0.13754406467E-05 -0.10419729790E-05 -0.89657561548E+03  0.11034243840E+04  0.64319323454E+03 0.  0.
         13    1    3    3    0    0 -0.12058983020E+03 -0.18134613057E+03 -0.85424462504E+03  0.88156803801E+03  0.00000000000E+00 0.  1.
          1    1    3    3  501    0  0.12058982882E+03  0.18134612953E+03 -0.42330990442E+02  0.22185634601E+03  0.00000000000E+00 0.  1.
         21    1    1    2  502  501  0.13754406515E-05  0.10419729882E-05  0.26934443538E-05  0.31987790141E-05  0.00000000000E+00 0. -1.
<mgrwt>
<rscale>  1 0.64319323E+03</rscale>
<asrwt>0</asrwt>
<pdfrwt beam="1">  1        1 0.37608947E+00 0.64319323E+03</pdfrwt>
<pdfrwt beam="2">0</pdfrwt>
<totfact> 0.17095512E+00</totfact>
</mgrwt>
</event>
<event>
 6    1  0.2558947E-003  0.6556609E+03  0.7818608E-02  0.9796214E-01
          1   -1    0    0  502    0  0.00000000000E+00  0.00000000000E+00  0.10804381110E+03  0.10804381110E+03  0.00000000000E+00 0.  1.
         13   -1    0    0    0    0 -0.00000000000E+00 -0.00000000000E+00 -0.10000000000E+04  0.10000000000E+04  0.00000000000E+00 0.  1.
    9000005    2    1    2  501    0 -0.25027540280E+00 -0.15873801055E+00 -0.89248428187E+03  0.11074382389E+04  0.65566086637E+03 0.  0.
         13    1    3    3    0    0 -0.10689604708E+03  0.76005670450E+02  0.61238155065E+02  0.14475406197E+03  0.00000000000E+00 0.  1.
          3    1    3    3  501    0  0.10664577168E+03 -0.76164408461E+02 -0.95372243694E+03  0.96268417690E+03  0.00000000000E+00 0.  1.
         21    1    1    2  502  501  0.25027540280E+00  0.15873801055E+00  0.52809297197E+00  0.60557222549E+00  0.00000000000E+00 0. -1.
<mgrwt>
<rscale>  1 0.65566093E+03</rscale>
<asrwt>0</asrwt>
<pdfrwt beam="1">  1        1 0.39288741E+00 0.65566093E+03</pdfrwt>
<pdfrwt beam="2">0</pdfrwt>
<totfact> 0.14374663E+00</totfact>
</mgrwt>
</event>
<event>
 6    1  0.2558947E-003  0.6520851E+03  0.7818608E-02  0.9802875E-01
          1   -1    0    0  502    0  0.00000000000E+00  0.00000000000E+00  0.10631584353E+03  0.10631584353E+03  0.00000000000E+00 0.  1.
         13   -1    0    0    0    0 -0.00000000000E+00 -0.00000000000E+00 -0.10000000000E+04  0.10000000000E+04  0.00000000000E+00 0.  1.
    9000005    2    1    2  501    0 -0.36791547199E-01  0.32257352859E-02 -0.89362695756E+03  0.11062477573E+04  0.65208508633E+03 0.  0.
         13    1    3    3    0    0  0.21974904186E+03  0.42625371663E+02 -0.44659186005E+02  0.22825644921E+03  0.00000000000E+00 0.  1.
          3    1    3    3  501    0 -0.21978583341E+03 -0.42622145928E+02 -0.84896777156E+03  0.87799130806E+03  0.00000000000E+00 0.  1.
         21    1    1    2  502  501  0.36791547199E-01 -0.32257352859E-02 -0.57198909105E-01  0.68086257911E-01  0.00000000000E+00 0.  1.
<mgrwt>
<rscale>  1 0.65208509E+03</rscale>
<asrwt>0</asrwt>
<pdfrwt beam="1">  1        1 0.38660388E+00 0.65208509E+03</pdfrwt>
<pdfrwt beam="2">0</pdfrwt>
<totfact> 0.15337256E+00</totfact>
</mgrwt>
</event>
<event>
 6    1  0.2558947E-003  0.6474970E+03  0.7818608E-02  0.9811487E-01
          1   -1    0    0  502    0  0.00000000000E+00  0.00000000000E+00  0.10492197986E+03  0.10492197986E+03  0.00000000000E+00 0.  1.
         13   -1    0    0    0    0 -0.00000000000E+00 -0.00000000000E+00 -0.10000000000E+04  0.10000000000E+04  0.00000000000E+00 0.  1.
    9000005    2    1    2  501    0 -0.20755844618E-02  0.18107316020E-02 -0.89518689627E+03  0.11048130689E+04  0.64749697910E+03 0.  0.
         13    1    3    3    0    0 -0.71568861140E+02 -0.30204606361E+03 -0.60452202835E+03  0.67955927569E+03  0.00000000000E+00 0.  1.
          3    1    3    3  501    0  0.71566785556E+02  0.30204787434E+03 -0.29066486792E+03  0.42525379320E+03  0.00000000000E+00 0.  1.
         21    1    1    2  502  501  0.20755844618E-02 -0.18107316021E-02  0.10887612613E+00  0.10891096199E+00  0.00000000000E+00 0.  1.
<mgrwt>
<rscale>  1 0.64749698E+03</rscale>
<asrwt>0</asrwt>
<pdfrwt beam="1">  1        1 0.38153528E+00 0.64749698E+03</pdfrwt>
<pdfrwt beam="2">0</pdfrwt>
<totfact> 0.16163093E+00</totfact>
</mgrwt>
</event>
<event>
 6    1  0.2558947E-003  0.6531952E+03  0.7818608E-02  0.9800802E-01
          1   -1    0    0  502    0  0.00000000000E+00  0.00000000000E+00  0.10666657526E+03  0.10666657526E+03  0.00000000000E+00 0.  1.
         13   -1    0    0    0    0 -0.00000000000E+00 -0.00000000000E+00 -0.10000000000E+04  0.10000000000E+04  0.00000000000E+00 0.  1.
    9000005    2    1    2  501    0  0.16869900360E-02  0.50674450003E-03 -0.89333166191E+03  0.11066640832E+04  0.65319517367E+03 0.  0.
         13    1    3    3    0    0  0.19346908206E+03  0.13285749006E+03 -0.61867174597E+02  0.24271165129E+03  0.00000000000E+00 0.  1.
          3    1    3    3  501    0 -0.19346739507E+03 -0.13285698331E+03 -0.83146448732E+03  0.86395243193E+03  0.00000000000E+00 0.  1.
         21    1    1    2  502  501 -0.16869900360E-02 -0.50674450002E-03 -0.17628254461E-02  0.24920431223E-02  0.00000000000E+00 0. -1.
<mgrwt>
<rscale>  1 0.65319517E+03</rscale>
<asrwt>0</asrwt>
<pdfrwt beam="1">  1        1 0.38787927E+00 0.65319517E+03</pdfrwt>
<pdfrwt beam="2">0</pdfrwt>
<totfact> 0.15135982E+00</totfact>
</mgrwt>
</event>
<event>
 6    1  0.2558947E-003  0.6539939E+03  0.7818608E-02  0.9799314E-01
          1   -1    0    0  502    0  0.00000000000E+00  0.00000000000E+00  0.10698864927E+03  0.10698864927E+03  0.00000000000E+00 0.  1.
         13   -1    0    0    0    0 -0.00000000000E+00 -0.00000000000E+00 -0.10000000000E+04  0.10000000000E+04  0.00000000000E+00 0.  1.
    9000005    2    1    2  501    0  0.21921207110E-03 -0.18610345130E-02 -0.89307299064E+03  0.11069269809E+04  0.65399386417E+03 0.  0.
         13    1    3    3    0    0 -0.15632108735E+03 -0.87360520686E+02 -0.90962873201E+03  0.92708822289E+03  0.00000000000E+00 0.  1.
          1    1    3    3  501    0  0.15632130657E+03  0.87358659651E+02  0.16555741364E+02  0.17983875799E+03  0.00000000000E+00 0.  1.
         21    1    1    2  502  501 -0.21921207110E-03  0.18610345130E-02  0.61639912775E-01  0.61668390204E-01  0.00000000000E+00 0.  1.
<mgrwt>
<rscale>  1 0.65399386E+03</rscale>
<asrwt>0</asrwt>
<pdfrwt beam="1">  1        1 0.38905045E+00 0.65399386E+03</pdfrwt>
<pdfrwt beam="2">0</pdfrwt>
<totfact> 0.14953974E+00</totfact>
</mgrwt>
</event>
<event>
 6    1  0.2558947E-003  0.6546773E+03  0.7818608E-02  0.9798042E-01
          1   -1    0    0  502    0  0.00000000000E+00  0.00000000000E+00  0.10715059018E+03  0.10715059018E+03  0.00000000000E+00 0.  1.
         13   -1    0    0    0    0 -0.00000000000E+00 -0.00000000000E+00 -0.10000000000E+04  0.10000000000E+04  0.00000000000E+00 0.  1.
    9000005    2    1    2  501    0  0.58698123144E-05 -0.47795414844E-05 -0.89284941953E+03  0.11071505779E+04  0.65467726104E+03 0.  0.
         13    1    3    3    0    0 -0.14194471489E+02  0.14890215887E+03  0.45976462758E+02  0.15648377253E+03  0.00000000000E+00 0.  1.
          3    1    3    3  501    0  0.14194477359E+02 -0.14890216365E+03 -0.93882588229E+03  0.95066680534E+03  0.00000000000E+00 0.  1.
         21    1    1    2  502  501 -0.58698123154E-05  0.47795415039E-05  0.97126815208E-05  0.12314012178E-04  0.00000000000E+00 0. -1.
<mgrwt>
<rscale>  1 0.65467726E+03</rscale>
<asrwt>0</asrwt>
<pdfrwt beam="1">  1        1 0.38963933E+00 0.65467726E+03</pdfrwt>
<pdfrwt beam="2">0</pdfrwt>
<totfact> 0.14862470E+00</totfact>
</mgrwt>
</event>
<event>
 6    1  0.2558947E-003  0.6547632E+03  0.7818608E-02  0.9797882E-01
          1   -1    0    0  502    0  0.00000000000E+00  0.00000000000E+00  0.11819774548E+03  0.11819774548E+03  0.00000000000E+00 0.  1.
         13   -1    0    0    0    0 -0.00000000000E+00 -0.00000000000E+00 -0.10000000000E+04  0.10000000000E+04  0.00000000000E+00 0.  1.
    9000005    2    1    2  501    0 -0.10193522899E+02 -0.20331740321E+01 -0.89003848319E+03  0.11049358765E+04  0.65468064576E+03 0.  0.
         13    1    3    3    0    0 -0.19054689925E+03  0.26850118900E+03 -0.46662088536E+03  0.57108323383E+03  0.00000000000E+00 0.  1.
          1    1    3    3  501    0  0.18035337635E+03 -0.27053436304E+03 -0.42341759783E+03  0.53385264268E+03  0.00000000000E+00 0.  1.
         21    1    1    2  502  501  0.10193522899E+02  0.20331740321E+01  0.82362286750E+01  0.13261868968E+02  0.00000000000E+00 0. -1.
<mgrwt>
<rscale>  1 0.65476316E+03</rscale>
<asrwt>0</asrwt>
<pdfrwt beam="1">  1        1 0.42981089E+00 0.65476316E+03</pdfrwt>
<pdfrwt beam="2">0</pdfrwt>
<totfact> 0.98164513E-01</totfact>
</mgrwt>
</event>
<event>
 6    1  0.2558947E-003  0.6452324E+03  0.7818608E-02  0.9815767E-01
          1   -1    0    0  502    0  0.00000000000E+00  0.00000000000E+00  0.10408445659E+03  0.10408445659E+03  0.00000000000E+00 0.  1.
         13   -1    0    0    0    0 -0.00000000000E+00 -0.00000000000E+00 -0.10000000000E+04  0.10000000000E+04  0.00000000000E+00 0.  1.
    9000005    2    1    2  501    0 -0.88711245616E-03 -0.84924868295E-03 -0.89591866351E+03  0.11040811035E+04  0.64523238565E+03 0.  0.
         13    1    3    3    0    0  0.29851244256E+03  0.11120316266E+03 -0.53529408123E+03  0.62290896216E+03  0.00000000000E+00 0.  1.
          1    1    3    3  501    0 -0.29851332967E+03 -0.11120401191E+03 -0.36062458228E+03  0.48117214134E+03  0.00000000000E+00 0.  1.
         21    1    1    2  502  501  0.88711245614E-03  0.84924868295E-03  0.31200949347E-02  0.33530857783E-02  0.00000000000E+00 0.  1.
<mgrwt>
<rscale>  1 0.64523239E+03</rscale>
<asrwt>0</asrwt>
<pdfrwt beam="1">  1        1 0.37848973E+00 0.64523239E+03</pdfrwt>
<pdfrwt beam="2">0</pdfrwt>
<totfact> 0.16677963E+00</totfact>
</mgrwt>
</event>
<event>
 6    1  0.2558947E-003  0.6509427E+03  0.7818608E-02  0.9805012E-01
          1   -1    0    0  502    0  0.00000000000E+00  0.00000000000E+00  0.10633453740E+03  0.10633453740E+03  0.00000000000E+00 0.  1.
         13   -1    0    0    0    0 -0.00000000000E+00 -0.00000000000E+00 -0.10000000000E+04  0.10000000000E+04  0.00000000000E+00 0.  1.
    9000005    2    1    2  501    0 -0.15878882545E+00  0.62473743669E-01 -0.89404831498E+03  0.11059153801E+04  0.65094270823E+03 0.  0.
         13    1    3    3    0    0  0.87672880530E+01 -0.20868553986E+03 -0.22969587338E+02  0.21012882198E+03  0.00000000000E+00 0.  1.
          3    1    3    3  501    0 -0.89260768784E+01  0.20874801360E+03 -0.87107872764E+03  0.89578655816E+03  0.00000000000E+00 0.  1.
         21    1    1    2  502  501  0.15878882545E+00 -0.62473743669E-01  0.38285237838E+00  0.41915725374E+00  0.00000000000E+00 0. -1.
<mgrwt>
<rscale>  1 0.65094273E+03</rscale>
<asrwt>0</asrwt>
<pdfrwt beam="1">  1        1 0.38667186E+00 0.65094273E+03</pdfrwt>
<pdfrwt beam="2">0</pdfrwt>
<totfact> 0.15329871E+00</totfact>
</mgrwt>
</event>
<event>
 6    1  0.2558947E-003  0.6432731E+03  0.7818608E-02  0.9819484E-01
          1   -1    0    0  502    0  0.00000000000E+00  0.00000000000E+00  0.11072187395E+03  0.11072187395E+03  0.00000000000E+00 0.  1.
         13   -1    0    0    0    0 -0.00000000000E+00 -0.00000000000E+00 -0.10000000000E+04  0.10000000000E+04  0.00000000000E+00 0.  1.
    9000005    2    1    2  501    0 -0.29327044575E+01 -0.34063480448E+01 -0.89577568787E+03  0.11028210973E+04  0.64325740233E+03 0.  0.
         13    1    3    3    0    0 -0.27121888759E+03  0.13477661698E+03 -0.26038460488E+03  0.39940526277E+03  0.00000000000E+00 0.  1.
          3    1    3    3  501    0  0.26828618313E+03 -0.13818296502E+03 -0.63539108299E+03  0.70341583450E+03  0.00000000000E+00 0.  1.
         21    1    1    2  502  501  0.29327044575E+01  0.34063480448E+01  0.64975618190E+01  0.79007766725E+01  0.00000000000E+00 0. -1.
<mgrwt>
<rscale>  1 0.64327311E+03</rscale>
<asrwt>0</asrwt>
<pdfrwt beam="1">  1        1 0.40262585E+00 0.64327311E+03</pdfrwt>
<pdfrwt beam="2">0</pdfrwt>
<totfact> 0.13039584E+00</totfact>
</mgrwt>
</event>
<event>
 6    1  0.2558947E-003  0.7346226E+03  0.7818608E-02  0.9659789E-01
          1   -1    0    0  502    0  0.00000000000E+00  0.00000000000E+00  0.13533639397E+03  0.13533639397E+03  0.00000000000E+00 0.  1.
         13   -1    0    0    0    0 -0.00000000000E+00 -0.00000000000E+00 -0.10000000000E+04  0.10000000000E+04  0.00000000000E+00 0.  1.
    9000005    2    1    2  501    0 -0.10205909375E-01 -0.55891554792E-01 -0.86508020749E+03  0.11349159361E+04  0.73462263337E+03 0.  0.
         13    1    3    3    0    0 -0.11437464437E+03  0.34897585498E+03 -0.44146031738E+03  0.57424116750E+03  0.00000000000E+00 0.  1.
          3    1    3    3  501    0  0.11436443846E+03 -0.34903174654E+03 -0.42361989011E+03  0.56067476862E+03  0.00000000000E+00 0.  1.
         21    1    1    2  502  501  0.10205909375E-01  0.55891554792E-01  0.41660145912E+00  0.42045784834E+00  0.00000000000E+00 0.  1.
<mgrwt>
<rscale>  1 0.73462264E+03</rscale>
<asrwt>0</asrwt>
<pdfrwt beam="1">  1        1 0.49213338E+00 0.73462264E+03</pdfrwt>
<pdfrwt beam="2">0</pdfrwt>
<totfact> 0.49536345E-01</totfact>
</mgrwt>
</event>
<event>
 6    1  0.2558947E-003  0.6574738E+03  0.7818608E-02  0.9792855E-01
          1   -1    0    0  502    0  0.00000000000E+00  0.00000000000E+00  0.10806926999E+03  0.10806926999E+03  0.00000000000E+00 0.  1.
         13   -1    0    0    0    0 -0.00000000000E+00 -0.00000000000E+00 -0.10000000000E+04  0.10000000000E+04  0.00000000000E+00 0.  1.
    9000005    2    1    2  501    0  0.58361902148E-04 -0.69560449035E-04 -0.89193205597E+03  0.11080679409E+04  0.65747377836E+03 0.  0.
         13    1    3    3    0    0 -0.23826302747E+03  0.12021190333E+03 -0.12245172177E+03  0.29362322136E+03  0.00000000000E+00 0.  1.
          1    1    3    3  501    0  0.23826308583E+03 -0.12021197289E+03 -0.76948033420E+03  0.81444471956E+03  0.00000000000E+00 0.  1.
         21    1    1    2  502  501 -0.58361902154E-04  0.69560449035E-04  0.13259588402E-02  0.13290641872E-02  0.00000000000E+00 0. -1.
<mgrwt>
<rscale>  1 0.65747378E+03</rscale>
<asrwt>0</asrwt>
<pdfrwt beam="1">  1        1 0.39297999E+00 0.65747378E+03</pdfrwt>
<pdfrwt beam="2">0</pdfrwt>
<totfact> 0.14356217E+00</totfact>
</mgrwt>
</event>
<event>
 6    1  0.2558947E-003  0.6400444E+03  0.7818608E-02  0.9825642E-01
          1   -1    0    0  502    0  0.00000000000E+00  0.00000000000E+00  0.10770739613E+03  0.10770739613E+03  0.00000000000E+00 0.  1.
         13   -1    0    0    0    0 -0.00000000000E+00 -0.00000000000E+00 -0.10000000000E+04  0.10000000000E+04  0.00000000000E+00 0.  1.
    9000005    2    1    2  501    0 -0.15052772765E+01 -0.30824803067E+01 -0.89696631218E+03  0.11019098886E+04  0.64003520982E+03 0.  0.
         13    1    3    3    0    0  0.26247256891E+03 -0.15339748320E+03 -0.62134732097E+03  0.69173342449E+03  0.00000000000E+00 0.  1.
          1    1    3    3  501    0 -0.26397784619E+03  0.15031500289E+03 -0.27561899121E+03  0.41017646408E+03  0.00000000000E+00 0.  1.
         21    1    1    2  502  501  0.15052772765E+01  0.30824803067E+01  0.46737083029E+01  0.57975075525E+01  0.00000000000E+00 0.  1.
<mgrwt>
<rscale>  1 0.64004440E+03</rscale>
<asrwt>0</asrwt>
<pdfrwt beam="1">  1        1 0.39166408E+00 0.64004440E+03</pdfrwt>
<pdfrwt beam="2">0</pdfrwt>
<totfact> 0.14598319E+00</totfact>
</mgrwt>
</event>
<event>
 6    1  0.2558947E-003  0.6461581E+03  0.7818608E-02  0.9814015E-01
          1   -1    0    0  502    0  0.00000000000E+00  0.00000000000E+00  0.10438006958E+03  0.10438006958E+03  0.00000000000E+00 0.  1.
         13   -1    0    0    0    0 -0.00000000000E+00 -0.00000000000E+00 -0.10000000000E+04  0.10000000000E+04  0.00000000000E+00 0.  1.
    9000005    2    1    2  501    0  0.13093387793E-04  0.14034261524E-04 -0.89561992454E+03  0.11043800495E+04  0.64615806464E+03 0.  0.
         13    1    3    3    0    0 -0.27645809582E+03  0.68841236640E+01 -0.73331238312E+03  0.78372413586E+03  0.00000000000E+00 0.  1.
          1    1    3    3  501    0  0.27645810891E+03 -0.68841096298E+01 -0.16230754143E+03  0.32065591364E+03  0.00000000000E+00 0.  1.
         21    1    1    2  502  501 -0.13093387776E-04 -0.14034261524E-04 -0.58791941790E-05  0.20073919004E-04  0.00000000000E+00 0. -1.
<mgrwt>
<rscale>  1 0.64615806E+03</rscale>
<asrwt>0</asrwt>
<pdfrwt beam="1">  1        1 0.37956469E+00 0.64615806E+03</pdfrwt>
<pdfrwt beam="2">0</pdfrwt>
<totfact> 0.16494093E+00</totfact>
</mgrwt>
</event>
<event>
 6    1  0.2558947E-003  0.6330625E+03  0.7818608E-02  0.9839091E-01
          1   -1    0    0  502    0  0.00000000000E+00  0.00000000000E+00  0.10022984526E+03  0.10022984526E+03  0.00000000000E+00 0.  1.
         13   -1    0    0    0    0 -0.00000000000E+00 -0.00000000000E+00 -0.10000000000E+04  0.10000000000E+04  0.00000000000E+00 0.  1.
    9000005    2    1    2  501    0  0.21967542142E-01  0.10783662640E+00 -0.89951983785E+03  0.10999564045E+04  0.63306250952E+03 0.  0.
         13    1    3    3    0    0  0.11762846083E+03 -0.18543853224E+03 -0.84574767919E+03  0.87379233282E+03  0.00000000000E+00 0.  1.
          3    1    3    3  501    0 -0.11760649328E+03  0.18554636887E+03 -0.53772158663E+02  0.22616407166E+03  0.00000000000E+00 0.  1.
         21    1    1    2  502  501 -0.21967542142E-01 -0.10783662640E+00 -0.25031689370E+00  0.27344077636E+00  0.00000000000E+00 0.  1.
<mgrwt>
<rscale>  1 0.63306252E+03</rscale>
<asrwt>0</asrwt>
<pdfrwt beam="1">  1        1 0.36447293E+00 0.63306252E+03</pdfrwt>
<pdfrwt beam="2">0</pdfrwt>
<totfact> 0.19262352E+00</totfact>
</mgrwt>
</event>
<event>
 6    1  0.2558947E-003  0.6478533E+03  0.7818608E-02  0.9810816E-01
          1   -1    0    0  502    0  0.00000000000E+00  0.00000000000E+00  0.10492846731E+03  0.10492846731E+03  0.00000000000E+00 0.  1.
         13   -1    0    0    0    0 -0.00000000000E+00 -0.00000000000E+00 -0.10000000000E+04  0.10000000000E+04  0.00000000000E+00 0.  1.
    9000005    2    1    2  501    0 -0.16747929976E-06  0.49681181338E-05 -0.89507153742E+03  0.11049284604E+04  0.64785325931E+03 0.  0.
         13    1    3    3    0    0 -0.19419475487E+03 -0.25427745703E+03 -0.36124521141E+03  0.48256267027E+03  0.00000000000E+00 0.  1.
          1    1    3    3  501    0  0.19419475470E+03  0.25427746200E+03 -0.53382632602E+03  0.62236579018E+03  0.00000000000E+00 0.  1.
         21    1    1    2  502  501  0.16747931462E-06 -0.49681181349E-05  0.47376548883E-05  0.68669950461E-05  0.00000000000E+00 0. -1.
<mgrwt>
<rscale>  1 0.64785326E+03</rscale>
<asrwt>0</asrwt>
<pdfrwt beam="1">  1        1 0.38155887E+00 0.64785326E+03</pdfrwt>
<pdfrwt beam="2">0</pdfrwt>
<totfact> 0.16158157E+00</totfact>
</mgrwt>
</event>
<event>
 6    1  0.2558947E-003  0.6460427E+03  0.7818608E-02  0.9814233E-01
          3   -1    0    0  502    0  0.00000000000E+00  0.00000000000E+00  0.10870977921E+03  0.10870977921E+03  0.00000000000E+00 0.  1.
         13   -1    0    0    0    0 -0.00000000000E+00 -0.00000000000E+00 -0.10000000000E+04  0.10000000000E+04  0.00000000000E+00 0.  1.
    9000005    2    1    2  501    0 -0.42442412864E+01 -0.10497504210E+02 -0.88512186717E+03  0.10958156036E+04  0.64594342332E+03 0.  0.
         13    1    3    3    0    0  0.29021158990E+02  0.31222348859E+03 -0.52138520597E+03  0.60841455234E+03  0.00000000000E+00 0.  1.
          3    1    3    3  501    0 -0.33265400276E+02 -0.32272099280E+03 -0.36373666120E+03  0.48740105124E+03  0.00000000000E+00 0.  1.
         21    1    1    2  502  501  0.42442412864E+01  0.10497504210E+02 -0.61683536197E+01  0.12894175627E+02  0.00000000000E+00 0.  1.
<mgrwt>
<rscale>  1 0.64604266E+03</rscale>
<asrwt>0</asrwt>
<pdfrwt beam="1">  1        3 0.39530912E+00 0.64604266E+03</pdfrwt>
<pdfrwt beam="2">0</pdfrwt>
<totfact> 0.62733750E-02</totfact>
</mgrwt>
</event>
<event>
 6    1  0.2558947E-003  0.6420719E+03  0.7818608E-02  0.9821770E-01
          1   -1    0    0  502    0  0.00000000000E+00  0.00000000000E+00  0.10306410241E+03  0.10306410241E+03  0.00000000000E+00 0.  1.
         13   -1    0    0    0    0 -0.00000000000E+00 -0.00000000000E+00 -0.10000000000E+04  0.10000000000E+04  0.00000000000E+00 0.  1.
    9000005    2    1    2  501    0 -0.51866038575E-06  0.56398216728E-05 -0.89693590842E+03  0.11030640902E+04  0.64207192997E+03 0.  0.
         13    1    3    3    0    0  0.26592924387E+03  0.37569846837E+02 -0.75062780080E+03  0.79722766603E+03  0.00000000000E+00 0.  1.
          1    1    3    3  501    0 -0.26592924439E+03 -0.37569841197E+02 -0.14630810761E+03  0.30583642416E+03  0.00000000000E+00 0.  1.
         21    1    1    2  502  501  0.51866042153E-06 -0.56398216747E-05  0.10831197140E-04  0.12222578641E-04  0.00000000000E+00 0.  1.
<mgrwt>
<rscale>  1 0.64207193E+03</rscale>
<asrwt>0</asrwt>
<pdfrwt beam="1">  1        1 0.37477934E+00 0.64207193E+03</pdfrwt>
<pdfrwt beam="2">0</pdfrwt>
<totfact> 0.17327637E+00</totfact>
</mgrwt>
</event>
<event>
 6    1  0.2558947E-003  0.6463863E+03  0.7818608E-02  0.9813584E-01
          1   -1    0    0  502    0  0.00000000000E+00  0.00000000000E+00  0.10560631046E+03  0.10560631046E+03  0.00000000000E+00 0.  1.
         13   -1    0    0    0    0 -0.00000000000E+00 -0.00000000000E+00 -0.10000000000E+04  0.10000000000E+04  0.00000000000E+00 0.  1.
    9000005    2    1    2  501    0 -0.69477202547E-01  0.18582841255E+00 -0.89553673656E+03  0.11044461744E+04  0.64638631341E+03 0.  0.
         13    1    3    3    0    0  0.24963626765E+03  0.25098944219E+02 -0.99693023258E+02  0.26997578042E+03  0.00000000000E+00 0.  1.
          1    1    3    3  501    0 -0.24970574485E+03 -0.24913115807E+02 -0.79584371330E+03  0.83447039394E+03  0.00000000000E+00 0.  1.
         21    1    1    2  502  501  0.69477202547E-01 -0.18582841255E+00  0.11430470265E+01  0.11601361064E+01  0.00000000000E+00 0. -1.
<mgrwt>
<rscale>  1 0.64638634E+03</rscale>
<asrwt>0</asrwt>
<pdfrwt beam="1">  1        1 0.38402376E+00 0.64638634E+03</pdfrwt>
<pdfrwt beam="2">0</pdfrwt>
<totfact> 0.15762293E+00</totfact>
</mgrwt>
</event>
<event>
 6    1  0.2558947E-003  0.6446551E+03  0.7818608E-02  0.9816861E-01
          1   -1    0    0  502    0  0.00000000000E+00  0.00000000000E+00  0.10389542438E+03  0.10389542438E+03  0.00000000000E+00 0.  1.
         13   -1    0    0    0    0 -0.00000000000E+00 -0.00000000000E+00 -0.10000000000E+04  0.10000000000E+04  0.00000000000E+00 0.  1.
    9000005    2    1    2  501    0 -0.62021152331E-04 -0.94455615113E-04 -0.89610493974E+03  0.11038950431E+04  0.64465510409E+03 0.  0.
         13    1    3    3    0    0 -0.25488839700E+03 -0.17503555693E+03 -0.60395954386E+03  0.67850767994E+03  0.00000000000E+00 0.  1.
          3    1    3    3  501    0  0.25488833498E+03  0.17503546247E+03 -0.29214539587E+03  0.42538736319E+03  0.00000000000E+00 0.  1.
         21    1    1    2  502  501  0.62021152320E-04  0.94455615102E-04  0.36411401291E-03  0.38124467335E-03  0.00000000000E+00 0.  1.
<mgrwt>
<rscale>  1 0.64465510E+03</rscale>
<asrwt>0</asrwt>
<pdfrwt beam="1">  1        1 0.37780234E+00 0.64465510E+03</pdfrwt>
<pdfrwt beam="2">0</pdfrwt>
<totfact> 0.16796517E+00</totfact>
</mgrwt>
</event>
<event>
 6    1  0.2558947E-003  0.6500007E+03  0.7818608E-02  0.9806778E-01
          1   -1    0    0  502    0  0.00000000000E+00  0.00000000000E+00  0.10589562453E+03  0.10589562453E+03  0.00000000000E+00 0.  1.
         13   -1    0    0    0    0 -0.00000000000E+00 -0.00000000000E+00 -0.10000000000E+04  0.10000000000E+04  0.00000000000E+00 0.  1.
    9000005    2    1    2  501    0  0.15875374391E+00  0.19996364551E-01 -0.89434835494E+03  0.11056038565E+04  0.65000067840E+03 0.  0.
         13    1    3    3    0    0 -0.76207339211E+02  0.11198450879E+03  0.55318189708E+02  0.14631538152E+03  0.00000000000E+00 0.  1.
          3    1    3    3  501    0  0.76366092955E+02 -0.11196451242E+03 -0.94966654464E+03  0.95928847497E+03  0.00000000000E+00 0.  1.
         21    1    1    2  502  501 -0.15875374391E+00 -0.19996364551E-01  0.24397946501E+00  0.29176803312E+00  0.00000000000E+00 0.  1.
<mgrwt>
<rscale>  1 0.65000070E+03</rscale>
<asrwt>0</asrwt>
<pdfrwt beam="1">  1        1 0.38507581E+00 0.65000070E+03</pdfrwt>
<pdfrwt beam="2">0</pdfrwt>
<totfact> 0.15583925E+00</totfact>
</mgrwt>
</event>
<event>
 6    1  0.2558947E-003  0.6292787E+03  0.7818608E-02  0.9846457E-01
          1   -1    0    0  502    0  0.00000000000E+00  0.00000000000E+00  0.99003144398E+02  0.99003144398E+02  0.00000000000E+00 0.  1.
         13   -1    0    0    0    0 -0.00000000000E+00 -0.00000000000E+00 -0.10000000000E+04  0.10000000000E+04  0.00000000000E+00 0.  1.
    9000005    2    1    2  501    0  0.31621780982E-02  0.15953393994E-02 -0.90100142016E+03  0.10989973669E+04  0.62927867695E+03 0.  0.
         13    1    3    3    0    0  0.13513597795E+03  0.27801047452E+03 -0.34796379955E+03  0.46543566932E+03  0.00000000000E+00 0.  1.
          1    1    3    3  501    0 -0.13513281577E+03 -0.27800887918E+03 -0.55303762061E+03  0.63356169756E+03  0.00000000000E+00 0.  1.
         21    1    1    2  502  501 -0.31621780982E-02 -0.15953393994E-02  0.45645618258E-02  0.57775170086E-02  0.00000000000E+00 0. -1.
<mgrwt>
<rscale>  1 0.62927868E+03</rscale>
<asrwt>0</asrwt>
<pdfrwt beam="1">  1        1 0.36001219E+00 0.62927868E+03</pdfrwt>
<pdfrwt beam="2">0</pdfrwt>
<totfact> 0.20161968E+00</totfact>
</mgrwt>
</event>
<event>
 6    1  0.2558947E-003  0.5932974E+03  0.7818608E-02  0.9919410E-01
          1   -1    0    0  502    0  0.00000000000E+00  0.00000000000E+00  0.99697026895E+02  0.99697026895E+02  0.00000000000E+00 0.  1.
         13   -1    0    0    0    0 -0.00000000000E+00 -0.00000000000E+00 -0.10000000000E+04  0.10000000000E+04  0.00000000000E+00 0.  1.
    9000005    2    1    2  501    0  0.10237743254E+02  0.53693246000E+01 -0.90882096757E+03  0.10853374565E+04  0.59318479605E+03 0.  0.
         13    1    3    3    0    0  0.29567722591E+02  0.21008064080E+03 -0.72635015473E+02  0.22424087792E+03  0.00000000000E+00 0.  1.
          3    1    3    3  501    0 -0.19329979337E+02 -0.20471131620E+03 -0.83618595209E+03  0.86109657853E+03  0.00000000000E+00 0.  1.
         21    1    1    2  502  501 -0.10237743254E+02 -0.53693246000E+01  0.85179944597E+01  0.14359570439E+02  0.00000000000E+00 0.  1.
<mgrwt>
<rscale>  1 0.59329743E+03</rscale>
<asrwt>0</asrwt>
<pdfrwt beam="1">  1        1 0.36253541E+00 0.59329743E+03</pdfrwt>
<pdfrwt beam="2">0</pdfrwt>
<totfact> 0.19788493E+00</totfact>
</mgrwt>
</event>
<event>
 6    1  0.2558947E-003  0.6742400E+03  0.7818608E-02  0.9762328E-01
          1   -1    0    0  502    0  0.00000000000E+00  0.00000000000E+00  0.11364992522E+03  0.11364992522E+03  0.00000000000E+00 0.  1.
         13   -1    0    0    0    0 -0.00000000000E+00 -0.00000000000E+00 -0.10000000000E+04  0.10000000000E+04  0.00000000000E+00 0.  1.
    9000005    2    1    2  501    0 -0.14707867422E-05 -0.86226958729E-05 -0.88635010171E+03  0.11136498969E+04  0.67424000926E+03 0.  0.
         13    1    3    3    0    0 -0.15256838373E+03 -0.18023523590E+03 -0.45774369271E+02  0.24053512188E+03  0.00000000000E+00 0.  1.
          3    1    3    3  501    0  0.15256838226E+03  0.18023522728E+03 -0.84057573243E+03  0.87311477503E+03  0.00000000000E+00 0.  1.
         21    1    1    2  502  501  0.14707867682E-05  0.86226958944E-05  0.26923030322E-04  0.28308367313E-04  0.00000000000E+00 0.  1.
<mgrwt>
<rscale>  1 0.67424001E+03</rscale>
<asrwt>0</asrwt>
<pdfrwt beam="1">  1        1 0.41327333E+00 0.67424001E+03</pdfrwt>
<pdfrwt beam="2">0</pdfrwt>
<totfact> 0.11614702E+00</totfact>
</mgrwt>
</event>
<event>
 6    1  0.2558947E-003  0.6308472E+03  0.7818608E-02  0.9843397E-01
          1   -1    0    0  502    0  0.00000000000E+00  0.00000000000E+00  0.99492912823E+02  0.99492912823E+02  0.00000000000E+00 0.  1.
         13   -1    0    0    0    0 -0.00000000000E+00 -0.00000000000E+00 -0.10000000000E+04  0.10000000000E+04  0.00000000000E+00 0.  1.
    9000005    2    1    2  501    0 -0.20051424585E-04 -0.28856085407E-04 -0.90050794142E+03  0.10994920579E+04  0.63084723408E+03 0.  0.
         13    1    3    3    0    0 -0.12285236926E+03 -0.25409004050E+03 -0.20477596907E+03  0.34869420819E+03  0.00000000000E+00 0.  1.
          1    1    3    3  501    0  0.12285234921E+03  0.25409001165E+03 -0.69573197235E+03  0.75079784967E+03  0.00000000000E+00 0.  1.
         21    1    1    2  502  501  0.20051424587E-04  0.28856085421E-04  0.85423972654E-03  0.85496212997E-03  0.00000000000E+00 0. -1.
<mgrwt>
<rscale>  1 0.63084723E+03</rscale>
<asrwt>0</asrwt>
<pdfrwt beam="1">  1        1 0.36179317E+00 0.63084723E+03</pdfrwt>
<pdfrwt beam="2">0</pdfrwt>
<totfact> 0.19797851E+00</totfact>
</mgrwt>
</event>
<event>
 6    1  0.2558947E-003  0.5555419E+03  0.7818608E-02  0.1000219E+00
          1   -1    0    0  502    0  0.00000000000E+00  0.00000000000E+00  0.77156793526E+02  0.77156793526E+02  0.00000000000E+00 0.  1.
         13   -1    0    0    0    0 -0.00000000000E+00 -0.00000000000E+00 -0.10000000000E+04  0.10000000000E+04  0.00000000000E+00 0.  1.
    9000005    2    1    2  501    0  0.93151840986E-04  0.35179787417E-04 -0.92284325678E+03  0.10771566820E+04  0.55554193444E+03 0.  0.
         13    1    3    3    0    0 -0.26675632058E+03  0.72052199332E+02 -0.40636709423E+03  0.49141089657E+03  0.00000000000E+00 0.  1.
          1    1    3    3  501    0  0.26675641373E+03 -0.72052164152E+02 -0.51647616255E+03  0.58574578539E+03  0.00000000000E+00 0.  1.
         21    1    1    2  502  501 -0.93151840976E-04 -0.35179787417E-04  0.50306895882E-04  0.11156014832E-03  0.00000000000E+00 0. -1.
<mgrwt>
<rscale>  1 0.55554193E+03</rscale>
<asrwt>0</asrwt>
<pdfrwt beam="1">  1        1 0.28057075E+00 0.55554193E+03</pdfrwt>
<pdfrwt beam="2">0</pdfrwt>
<totfact> 0.45105063E+00</totfact>
</mgrwt>
</event>
<event>
 6    1  0.2558947E-003  0.6382196E+03  0.7818608E-02  0.9829139E-01
          1   -1    0    0  502    0  0.00000000000E+00  0.00000000000E+00  0.10508694081E+03  0.10508694081E+03  0.00000000000E+00 0.  1.
         13   -1    0    0    0    0 -0.00000000000E+00 -0.00000000000E+00 -0.10000000000E+04  0.10000000000E+04  0.00000000000E+00 0.  1.
    9000005    2    1    2  501    0 -0.18077497867E+00  0.44636415662E+00 -0.89814929526E+03  0.11018150691E+04  0.63821944345E+03 0.  0.
         13    1    3    3    0    0 -0.11836990337E+03 -0.17596807838E+03 -0.37511124668E+02  0.21536778568E+03  0.00000000000E+00 0.  1.
          1    1    3    3  501    0  0.11818912840E+03  0.17641444254E+03 -0.86063817059E+03  0.88644728342E+03  0.00000000000E+00 0.  1.
         21    1    1    2  502  501  0.18077497867E+00 -0.44636415662E+00  0.32362360708E+01  0.32718717058E+01  0.00000000000E+00 0. -1.
<mgrwt>
<rscale>  1 0.63821963E+03</rscale>
<asrwt>0</asrwt>
<pdfrwt beam="1">  1        1 0.38213514E+00 0.63821963E+03</pdfrwt>
<pdfrwt beam="2">0</pdfrwt>
<totfact> 0.16092470E+00</totfact>
</mgrwt>
</event>
<event>
 6    1  0.2558947E-003  0.6354645E+03  0.7818608E-02  0.9834443E-01
          1   -1    0    0  502    0  0.00000000000E+00  0.00000000000E+00  0.10129870546E+03  0.10129870546E+03  0.00000000000E+00 0.  1.
         13   -1    0    0    0    0 -0.00000000000E+00 -0.00000000000E+00 -0.10000000000E+04  0.10000000000E+04  0.00000000000E+00 0.  1.
    9000005    2    1    2  501    0  0.99175495605E+00 -0.27678529481E+00 -0.89658033152E+03  0.10989410218E+04  0.63546362476E+03 0.  0.
         13    1    3    3    0    0  0.86601688170E+02 -0.17455976555E+03 -0.14122100644E+02  0.19537245934E+03  0.00000000000E+00 0.  1.
          1    1    3    3  501    0 -0.85609933214E+02  0.17428298025E+03 -0.88245823088E+03  0.90356856249E+03  0.00000000000E+00 0.  1.
         21    1    1    2  502  501 -0.99175495605E+00  0.27678529481E+00 -0.21209630166E+01  0.23576836323E+01  0.00000000000E+00 0. -1.
<mgrwt>
<rscale>  1 0.63546446E+03</rscale>
<asrwt>0</asrwt>
<pdfrwt beam="1">  1        1 0.36835971E+00 0.63546446E+03</pdfrwt>
<pdfrwt beam="2">0</pdfrwt>
<totfact> 0.18512991E+00</totfact>
</mgrwt>
</event>
<event>
 6    1  0.2558947E-003  0.6535301E+03  0.7818608E-02  0.9800178E-01
          1   -1    0    0  502    0  0.00000000000E+00  0.00000000000E+00  0.10735535863E+03  0.10735535863E+03  0.00000000000E+00 0.  1.
         13   -1    0    0    0    0 -0.00000000000E+00 -0.00000000000E+00 -0.10000000000E+04  0.10000000000E+04  0.00000000000E+00 0.  1.
    9000005    2    1    2  501    0  0.22908238501E-01 -0.24198426182E-01 -0.89322407858E+03  0.11067749641E+04  0.65353007999E+03 0.  0.
         13    1    3    3    0    0  0.21041032576E+03 -0.93048755624E+02 -0.83962832661E+03  0.87057814293E+03  0.00000000000E+00 0.  1.
          3    1    3    3  501    0 -0.21038741752E+03  0.93024557197E+02 -0.53595751972E+02  0.23619682115E+03  0.00000000000E+00 0.  1.
         21    1    1    2  502  501 -0.22908238501E-01  0.24198426182E-01  0.57943721411E+00  0.58039455228E+00  0.00000000000E+00 0.  1.
<mgrwt>
<rscale>  1 0.65353008E+03</rscale>
<asrwt>0</asrwt>
<pdfrwt beam="1">  1        1 0.39038395E+00 0.65353008E+03</pdfrwt>
<pdfrwt beam="2">0</pdfrwt>
<totfact> 0.14753033E+00</totfact>
</mgrwt>
</event>
<event>
 6    1  0.2558947E-003  0.6527638E+03  0.7818608E-02  0.9801607E-01
          1   -1    0    0  502    0  0.00000000000E+00  0.00000000000E+00  0.10653176786E+03  0.10653176786E+03  0.00000000000E+00 0.  1.
         13   -1    0    0    0    0 -0.00000000000E+00 -0.00000000000E+00 -0.10000000000E+04  0.10000000000E+04  0.00000000000E+00 0.  1.
    9000005    2    1    2  501    0  0.31963771021E-02 -0.13123457677E-01 -0.89346616683E+03  0.11065181038E+04  0.65276375704E+03 0.  0.
         13    1    3    3    0    0  0.26364286667E+03 -0.10447609815E+03 -0.17285766530E+03  0.33211833536E+03  0.00000000000E+00 0.  1.
          1    1    3    3  501    0 -0.26363967029E+03  0.10446297469E+03 -0.72060850154E+03  0.77439976841E+03  0.00000000000E+00 0.  1.
         21    1    1    2  502  501 -0.31963771022E-02  0.13123457677E-01 -0.20653059608E-02  0.13664093702E-01  0.00000000000E+00 0. -1.
<mgrwt>
<rscale>  1 0.65276376E+03</rscale>
<asrwt>0</asrwt>
<pdfrwt beam="1">  1        1 0.38738906E+00 0.65276376E+03</pdfrwt>
<pdfrwt beam="2">0</pdfrwt>
<totfact> 0.15213059E+00</totfact>
</mgrwt>
</event>
<event>
 6    1  0.2558947E-003  0.6496157E+03  0.7818608E-02  0.9807501E-01
          1   -1    0    0  502    0  0.00000000000E+00  0.00000000000E+00  0.10552933228E+03  0.10552933228E+03  0.00000000000E+00 0.  1.
         13   -1    0    0    0    0 -0.00000000000E+00 -0.00000000000E+00 -0.10000000000E+04  0.10000000000E+04  0.00000000000E+00 0.  1.
    9000005    2    1    2  501    0 -0.48506676338E-02 -0.46597177913E-02 -0.89449943211E+03  0.11054997919E+04  0.64961569859E+03 0.  0.
         13    1    3    3    0    0 -0.64994239381E+02  0.25122288181E+03 -0.77969172296E+03  0.82173984347E+03  0.00000000000E+00 0.  1.
          3    1    3    3  501    0  0.64989388713E+02 -0.25122754153E+03 -0.11480770915E+03  0.28375994846E+03  0.00000000000E+00 0.  1.
         21    1    1    2  502  501  0.48506676338E-02  0.46597177913E-02  0.28764393400E-01  0.29540349931E-01  0.00000000000E+00 0.  1.
<mgrwt>
<rscale>  1 0.64961570E+03</rscale>
<asrwt>0</asrwt>
<pdfrwt beam="1">  1        1 0.38374384E+00 0.64961570E+03</pdfrwt>
<pdfrwt beam="2">0</pdfrwt>
<totfact> 0.15797835E+00</totfact>
</mgrwt>
</event>
<event>
 6    1  0.2558947E-003  0.6474036E+03  0.7818608E-02  0.9811663E-01
          1   -1    0    0  502    0  0.00000000000E+00  0.00000000000E+00  0.10478306577E+03  0.10478306577E+03  0.00000000000E+00 0.  1.
         13   -1    0    0    0    0 -0.00000000000E+00 -0.00000000000E+00 -0.10000000000E+04  0.10000000000E+04  0.00000000000E+00 0.  1.
    9000005    2    1    2  501    0 -0.10910010013E-03  0.87309772198E-04 -0.89521713440E+03  0.11047828217E+04  0.64740355676E+03 0.  0.
         13    1    3    3    0    0  0.22929193794E+03  0.22614705093E+03 -0.50331297990E+03  0.59752927726E+03  0.00000000000E+00 0.  1.
          1    1    3    3  501    0 -0.22929204704E+03 -0.22614696362E+03 -0.39190415449E+03  0.50725354439E+03  0.00000000000E+00 0.  1.
         21    1    1    2  502  501  0.10910010014E-03 -0.87309772200E-04  0.20016794241E-03  0.24411684363E-03  0.00000000000E+00 0. -1.
<mgrwt>
<rscale>  1 0.64740356E+03</rscale>
<asrwt>0</asrwt>
<pdfrwt beam="1">  1        1 0.38103013E+00 0.64740356E+03</pdfrwt>
<pdfrwt beam="2">0</pdfrwt>
<totfact> 0.16246587E+00</totfact>
</mgrwt>
</event>
<event>
 6    1  0.2558947E-003  0.6306890E+03  0.7818608E-02  0.9843705E-01
          3   -1    0    0  502    0  0.00000000000E+00  0.00000000000E+00  0.99442208741E+02  0.99442208741E+02  0.00000000000E+00 0.  1.
         13   -1    0    0    0    0 -0.00000000000E+00 -0.00000000000E+00 -0.10000000000E+04  0.10000000000E+04  0.00000000000E+00 0.  1.
    9000005    2    1    2  501    0 -0.80839953114E-05  0.33127512836E-04 -0.90055785266E+03  0.10994421385E+04  0.63068896450E+03 0.  0.
         13    1    3    3    0    0  0.19986631134E+02 -0.31334752143E+03 -0.50128162412E+03  0.59149759196E+03  0.00000000000E+00 0.  1.
          3    1    3    3  501    0 -0.19986639218E+02  0.31334755456E+03 -0.39927622854E+03  0.50794454655E+03  0.00000000000E+00 0.  1.
         21    1    1    2  502  501  0.80839953115E-05 -0.33127512863E-04  0.61399223331E-04  0.70232810810E-04  0.00000000000E+00 0. -1.
<mgrwt>
<rscale>  1 0.63068896E+03</rscale>
<asrwt>0</asrwt>
<pdfrwt beam="1">  1        3 0.36160879E+00 0.63068896E+03</pdfrwt>
<pdfrwt beam="2">0</pdfrwt>
<totfact> 0.94756667E-02</totfact>
</mgrwt>
</event>
<event>
 6    1  0.2558947E-003  0.6439967E+03  0.7818608E-02  0.9818110E-01
          1   -1    0    0  502    0  0.00000000000E+00  0.00000000000E+00  0.11074378882E+03  0.11074378882E+03  0.00000000000E+00 0.  1.
         13   -1    0    0    0    0 -0.00000000000E+00 -0.00000000000E+00 -0.10000000000E+04  0.10000000000E+04  0.00000000000E+00 0.  1.
    9000005    2    1    2  501    0  0.28136225503E+01 -0.11473492174E+02 -0.89039125972E+03  0.10988759402E+04  0.64388832818E+03 0.  0.
         13    1    3    3    0    0  0.23681292696E+03 -0.18878237072E+03 -0.24392968107E+03  0.38887123213E+03  0.00000000000E+00 0.  1.
          3    1    3    3  501    0 -0.23399930441E+03  0.17730887854E+03 -0.64646157865E+03  0.71000470812E+03  0.00000000000E+00 0.  1.
         21    1    1    2  502  501 -0.28136225503E+01  0.11473492174E+02  0.11350485415E+01  0.11867848571E+02  0.00000000000E+00 0.  1.
<mgrwt>
<rscale>  1 0.64399669E+03</rscale>
<asrwt>0</asrwt>
<pdfrwt beam="1">  1        1 0.40270554E+00 0.64399669E+03</pdfrwt>
<pdfrwt beam="2">0</pdfrwt>
<totfact> 0.13027092E+00</totfact>
</mgrwt>
</event>
<event>
 6    1  0.2558947E-003  0.6581126E+03  0.7818608E-02  0.9791675E-01
          1   -1    0    0  502    0  0.00000000000E+00  0.00000000000E+00  0.10854640894E+03  0.10854640894E+03  0.00000000000E+00 0.  1.
         13   -1    0    0    0    0 -0.00000000000E+00 -0.00000000000E+00 -0.10000000000E+04  0.10000000000E+04  0.00000000000E+00 0.  1.
    9000005    2    1    2  501    0 -0.16689764813E-02  0.57678835907E-02 -0.89172193064E+03  0.11082780022E+04  0.65811255003E+03 0.  0.
         13    1    3    3    0    0 -0.28399952957E+03  0.89006148662E+02 -0.68223432561E+03  0.74432620694E+03  0.00000000000E+00 0.  1.
          1    1    3    3  501    0  0.28399786060E+03 -0.89000380778E+02 -0.20948760503E+03  0.36395179525E+03  0.00000000000E+00 0.  1.
         21    1    1    2  502  501  0.16689764813E-02 -0.57678835907E-02  0.26833958241E+00  0.26840675373E+00  0.00000000000E+00 0.  1.
<mgrwt>
<rscale>  1 0.65811255E+03</rscale>
<asrwt>0</asrwt>
<pdfrwt beam="1">  1        1 0.39471505E+00 0.65811255E+03</pdfrwt>
<pdfrwt beam="2">0</pdfrwt>
<totfact> 0.14101907E+00</totfact>
</mgrwt>
</event>
<event>
 6    1  0.2558947E-003  0.6477343E+03  0.7818608E-02  0.9811040E-01
          1   -1    0    0  502    0  0.00000000000E+00  0.00000000000E+00  0.10488994267E+03  0.10488994267E+03  0.00000000000E+00 0.  1.
         13   -1    0    0    0    0 -0.00000000000E+00 -0.00000000000E+00 -0.10000000000E+04  0.10000000000E+04  0.00000000000E+00 0.  1.
    9000005    2    1    2  501    0 -0.19681524293E-04 -0.92558810607E-05 -0.89511007276E+03  0.11048899160E+04  0.64773426968E+03 0.  0.
         13    1    3    3    0    0 -0.31793195158E+03  0.48854594709E+02 -0.51188859958E+03  0.60456383918E+03  0.00000000000E+00 0.  1.
          1    1    3    3  501    0  0.31793193189E+03 -0.48854603965E+02 -0.38322147318E+03  0.50032607683E+03  0.00000000000E+00 0.  1.
         21    1    1    2  502  501  0.19681524257E-04  0.92558810588E-05  0.15437863005E-04  0.26671358147E-04  0.00000000000E+00 0.  1.
<mgrwt>
<rscale>  1 0.64773427E+03</rscale>
<asrwt>0</asrwt>
<pdfrwt beam="1">  1        1 0.38141878E+00 0.64773427E+03</pdfrwt>
<pdfrwt beam="2">0</pdfrwt>
<totfact> 0.16181542E+00</totfact>
</mgrwt>
</event>
<event>
 6    1  0.2558947E-003  0.6448559E+03  0.7818608E-02  0.9816480E-01
          1   -1    0    0  502    0  0.00000000000E+00  0.00000000000E+00  0.10444479309E+03  0.10444479309E+03  0.00000000000E+00 0.  1.
         13   -1    0    0    0    0 -0.00000000000E+00 -0.00000000000E+00 -0.10000000000E+04  0.10000000000E+04  0.00000000000E+00 0.  1.
    9000005    2    1    2  501    0 -0.88252291338E+00  0.59962148085E+00 -0.89528019140E+03  0.11033429645E+04  0.64485497432E+03 0.  0.
         13    1    3    3    0    0 -0.21129334256E+03 -0.47211805900E+02 -0.85734495571E+03  0.88425912735E+03  0.00000000000E+00 0.  1.
          3    1    3    3  501    0  0.21041081965E+03  0.47811427381E+02 -0.37935235698E+02  0.21908383720E+03  0.00000000000E+00 0.  1.
         21    1    1    2  502  501  0.88252291338E+00 -0.59962148085E+00 -0.27501550690E+00  0.11018285447E+01  0.00000000000E+00 0.  1.
<mgrwt>
<rscale>  1 0.64485586E+03</rscale>
<asrwt>0</asrwt>
<pdfrwt beam="1">  1        1 0.37980005E+00 0.64485586E+03</pdfrwt>
<pdfrwt beam="2">0</pdfrwt>
<totfact> 0.16458648E+00</totfact>
</mgrwt>
</event>
<event>
 6    1  0.2558947E-003  0.6488224E+03  0.7818608E-02  0.9808991E-01
          1   -1    0    0  502    0  0.00000000000E+00  0.00000000000E+00  0.11923601069E+03  0.11923601069E+03  0.00000000000E+00 0.  1.
         13   -1    0    0    0    0 -0.00000000000E+00 -0.00000000000E+00 -0.10000000000E+04  0.10000000000E+04  0.00000000000E+00 0.  1.
    9000005    2    1    2  501    0 -0.50038515981E+01  0.44320398301E+01 -0.89386967829E+03  0.11045240906E+04  0.64878793416E+03 0.  0.
         13    1    3    3    0    0 -0.99265514420E+02 -0.24428967860E+03 -0.76459719490E+03  0.80878919371E+03  0.00000000000E+00 0.  1.
          1    1    3    3  501    0  0.94261662822E+02  0.24872171843E+03 -0.12927248340E+03  0.29573489692E+03  0.00000000000E+00 0.  1.
         21    1    1    2  502  501  0.50038515981E+01 -0.44320398301E+01  0.13105688986E+02  0.14711920054E+02  0.00000000000E+00 0. -1.
<mgrwt>
<rscale>  1 0.64882237E+03</rscale>
<asrwt>0</asrwt>
<pdfrwt beam="1">  1        1 0.43358641E+00 0.64882237E+03</pdfrwt>
<pdfrwt beam="2">0</pdfrwt>
<totfact> 0.94474461E-01</totfact>
</mgrwt>
</event>
<event>
 6    1  0.2558947E-003  0.6575469E+03  0.7818608E-02  0.9792720E-01
          1   -1    0    0  502    0  0.00000000000E+00  0.00000000000E+00  0.10809365226E+03  0.10809365226E+03  0.00000000000E+00 0.  1.
         13   -1    0    0    0    0 -0.00000000000E+00 -0.00000000000E+00 -0.10000000000E+04  0.10000000000E+04  0.00000000000E+00 0.  1.
    9000005    2    1    2  501    0  0.83640654898E-03 -0.27993797272E-03 -0.89190790405E+03  0.11080918634E+04  0.65754685643E+03 0.  0.
         13    1    3    3    0    0 -0.34785475108E+02  0.15238394779E+03 -0.93338192588E+03  0.94637873834E+03  0.00000000000E+00 0.  1.
          1    1    3    3  501    0  0.34786311515E+02 -0.15238422772E+03  0.41474021827E+02  0.16171312505E+03  0.00000000000E+00 0.  1.
         21    1    1    2  502  501 -0.83640654898E-03  0.27993797271E-03  0.15563162603E-02  0.17888715677E-02  0.00000000000E+00 0.  1.
<mgrwt>
<rscale>  1 0.65754686E+03</rscale>
<asrwt>0</asrwt>
<pdfrwt beam="1">  1        1 0.39306866E+00 0.65754686E+03</pdfrwt>
<pdfrwt beam="2">0</pdfrwt>
<totfact> 0.14343009E+00</totfact>
</mgrwt>
</event>
<event>
 6    1  0.2558947E-003  0.6443029E+03  0.7818608E-02  0.9817529E-01
          1   -1    0    0  502    0  0.00000000000E+00  0.00000000000E+00  0.10378364247E+03  0.10378364247E+03  0.00000000000E+00 0.  1.
         13   -1    0    0    0    0 -0.00000000000E+00 -0.00000000000E+00 -0.10000000000E+04  0.10000000000E+04  0.00000000000E+00 0.  1.
    9000005    2    1    2  501    0 -0.66233353692E-04 -0.54615194510E-02 -0.89621336792E+03  0.11037774159E+04  0.64430286587E+03 0.  0.
         13    1    3    3    0    0  0.13041221335E+03 -0.29151736703E+03 -0.52065904061E+03  0.61079911365E+03  0.00000000000E+00 0.  1.
          3    1    3    3  501    0 -0.13041227958E+03  0.29151190551E+03 -0.37555432731E+03  0.49297830224E+03  0.00000000000E+00 0.  1.
         21    1    1    2  502  501  0.66233353679E-04  0.54615194511E-02 -0.29896115756E-02  0.62265848540E-02  0.00000000000E+00 0. -1.
<mgrwt>
<rscale>  1 0.64430287E+03</rscale>
<asrwt>0</asrwt>
<pdfrwt beam="1">  1        1 0.37739586E+00 0.64430287E+03</pdfrwt>
<pdfrwt beam="2">0</pdfrwt>
<totfact> 0.16867033E+00</totfact>
</mgrwt>
</event>
<event>
 6    1  0.2558947E-003  0.6492802E+03  0.7818608E-02  0.9808131E-01
          1   -1    0    0  502    0  0.00000000000E+00  0.00000000000E+00  0.10690661841E+03  0.10690661841E+03  0.00000000000E+00 0.  1.
         13   -1    0    0    0    0 -0.00000000000E+00 -0.00000000000E+00 -0.10000000000E+04  0.10000000000E+04  0.00000000000E+00 0.  1.
    9000005    2    1    2  501    0 -0.22711219352E+00  0.15214675458E+00 -0.89459517375E+03  0.11053801492E+04  0.64928012030E+03 0.  0.
         13    1    3    3    0    0 -0.10529145116E+03  0.11957512710E+03  0.34291149726E+02  0.16297356736E+03  0.00000000000E+00 0.  1.
          1    1    3    3  501    0  0.10506433897E+03 -0.11942298034E+03 -0.92888632347E+03  0.94240658184E+03  0.00000000000E+00 0.  1.
         21    1    1    2  502  501  0.22711219352E+00 -0.15214675458E+00  0.15017921554E+01  0.15264692140E+01  0.00000000000E+00 0. -1.
<mgrwt>
<rscale>  1 0.64928018E+03</rscale>
<asrwt>0</asrwt>
<pdfrwt beam="1">  1        1 0.38875216E+00 0.64928018E+03</pdfrwt>
<pdfrwt beam="2">0</pdfrwt>
<totfact> 0.15012705E+00</totfact>
</mgrwt>
</event>
<event>
 6    1  0.2558947E-003  0.6363030E+03  0.7818608E-02  0.9832826E-01
          1   -1    0    0  502    0  0.00000000000E+00  0.00000000000E+00  0.10197276540E+03  0.10197276540E+03  0.00000000000E+00 0.  1.
         13   -1    0    0    0    0 -0.00000000000E+00 -0.00000000000E+00 -0.10000000000E+04  0.10000000000E+04  0.00000000000E+00 0.  1.
    9000005    2    1    2  501    0  0.37783932965E+00  0.15728313677E+00 -0.89871787270E+03  0.11011699693E+04  0.63630285176E+03 0.  0.
         13    1    3    3    0    0 -0.22606885069E+03  0.68616919632E+02 -0.81764818460E+03  0.85109574120E+03  0.00000000000E+00 0.  1.
          3    1    3    3  501    0  0.22644669002E+03 -0.68459636496E+02 -0.81069688094E+02  0.25007422813E+03  0.00000000000E+00 0.  1.
         21    1    1    2  502  501 -0.37783932965E+00 -0.15728313677E+00  0.69063809902E+00  0.80279606873E+00  0.00000000000E+00 0. -1.
<mgrwt>
<rscale>  1 0.63630298E+03</rscale>
<asrwt>0</asrwt>
<pdfrwt beam="1">  1        1 0.37081084E+00 0.63630298E+03</pdfrwt>
<pdfrwt beam="2">0</pdfrwt>
<totfact> 0.18057091E+00</totfact>
</mgrwt>
</event>
<event>
 6    1  0.2558947E-003  0.6484973E+03  0.7818608E-02  0.9809603E-01
          1   -1    0    0  502    0  0.00000000000E+00  0.00000000000E+00  0.10513722052E+03  0.10513722052E+03  0.00000000000E+00 0.  1.
         13   -1    0    0    0    0 -0.00000000000E+00 -0.00000000000E+00 -0.10000000000E+04  0.10000000000E+04  0.00000000000E+00 0.  1.
    9000005    2    1    2  501    0  0.69904285340E-04 -0.35438532620E-04 -0.89486278267E+03  0.11051371421E+04  0.64849726521E+03 0.  0.
         13    1    3    3    0    0  0.11607081029E+03 -0.30269904747E+03 -0.45794318923E+03  0.56108030700E+03  0.00000000000E+00 0.  1.
          3    1    3    3  501    0 -0.11607074038E+03  0.30269901203E+03 -0.43691959345E+03  0.54405683508E+03  0.00000000000E+00 0.  1.
         21    1    1    2  502  501 -0.69904285344E-04  0.35438532573E-04  0.31865811220E-05  0.78438848791E-04  0.00000000000E+00 0. -1.
<mgrwt>
<rscale>  1 0.64849727E+03</rscale>
<asrwt>0</asrwt>
<pdfrwt beam="1">  1        1 0.38231797E+00 0.64849727E+03</pdfrwt>
<pdfrwt beam="2">0</pdfrwt>
<totfact> 0.16032003E+00</totfact>
</mgrwt>
</event>
<event>
 6    1  0.2558947E-003  0.6590395E+03  0.7818608E-02  0.9789964E-01
          1   -1    0    0  502    0  0.00000000000E+00  0.00000000000E+00  0.10875981240E+03  0.10875981240E+03  0.00000000000E+00 0.  1.
         13   -1    0    0    0    0 -0.00000000000E+00 -0.00000000000E+00 -0.10000000000E+04  0.10000000000E+04  0.00000000000E+00 0.  1.
    9000005    2    1    2  501    0 -0.42229195724E-01  0.18214795912E-01 -0.89141340791E+03  0.11085805909E+04  0.65903949844E+03 0.  0.
         13    1    3    3    0    0  0.23053116949E+03  0.20336962225E+03 -0.64524605719E+03  0.71473512414E+03  0.00000000000E+00 0.  1.
          3    1    3    3  501    0 -0.23057339868E+03 -0.20335140745E+03 -0.24616735073E+03  0.39384546672E+03  0.00000000000E+00 0.  1.
         21    1    1    2  502  501  0.42229195724E-01 -0.18214795912E-01  0.17322031815E+00  0.17922154553E+00  0.00000000000E+00 0. -1.
<mgrwt>
<rscale>  1 0.65903950E+03</rscale>
<asrwt>0</asrwt>
<pdfrwt beam="1">  1        1 0.39549106E+00 0.65903950E+03</pdfrwt>
<pdfrwt beam="2">0</pdfrwt>
<totfact> 0.13987880E+00</totfact>
</mgrwt>
</event>
<event>
 6    1  0.2558947E-003  0.6221323E+03  0.7818608E-02  0.9860523E-01
          1   -1    0    0  502    0  0.00000000000E+00  0.00000000000E+00  0.97392671947E+02  0.97392671947E+02  0.00000000000E+00 0.  1.
         13   -1    0    0    0    0 -0.00000000000E+00 -0.00000000000E+00 -0.10000000000E+04  0.10000000000E+04  0.00000000000E+00 0.  1.
    9000005    2    1    2  501    0  0.55927445177E-01 -0.15472201490E+00 -0.90322604755E+03  0.10967524528E+04  0.62213231923E+03 0.  0.
         13    1    3    3    0    0  0.84892872037E+02  0.13245217301E+03  0.21444400380E+02  0.15877732888E+03  0.00000000000E+00 0.  1.
          1    1    3    3  501    0 -0.84836944592E+02 -0.13260689503E+03 -0.92467044793E+03  0.93797512389E+03  0.00000000000E+00 0.  1.
         21    1    1    2  502  501 -0.55927445177E-01  0.15472201490E+00  0.61871949255E+00  0.64021917457E+00  0.00000000000E+00 0. -1.
<mgrwt>
<rscale>  1 0.62213234E+03</rscale>
<asrwt>0</asrwt>
<pdfrwt beam="1">  1        1 0.35415592E+00 0.62213234E+03</pdfrwt>
<pdfrwt beam="2">0</pdfrwt>
<totfact> 0.21412874E+00</totfact>
</mgrwt>
</event>
<event>
 6    1  0.2558947E-003  0.6449174E+03  0.7818608E-02  0.9816363E-01
          1   -1    0    0  502    0  0.00000000000E+00  0.00000000000E+00  0.10602189355E+03  0.10602189355E+03  0.00000000000E+00 0.  1.
         13   -1    0    0    0    0 -0.00000000000E+00 -0.00000000000E+00 -0.10000000000E+04  0.10000000000E+04  0.00000000000E+00 0.  1.
    9000005    2    1    2  501    0  0.15328763322E+00 -0.23773249139E+00 -0.89600956188E+03  0.11039708389E+04  0.64491735769E+03 0.  0.
         13    1    3    3    0    0 -0.31011559767E+02 -0.24100417350E+03 -0.85040719320E+02  0.25744252257E+03  0.00000000000E+00 0.  1.
          3    1    3    3  501    0  0.31164847400E+02  0.24076644101E+03 -0.81096884256E+03  0.84652831638E+03  0.00000000000E+00 0.  1.
         21    1    1    2  502  501 -0.15328763322E+00  0.23773249139E+00  0.20314554295E+01  0.20510546063E+01  0.00000000000E+00 0.  1.
<mgrwt>
<rscale>  1 0.64491742E+03</rscale>
<asrwt>0</asrwt>
<pdfrwt beam="1">  1        1 0.38553497E+00 0.64491742E+03</pdfrwt>
<pdfrwt beam="2">0</pdfrwt>
<totfact> 0.15525848E+00</totfact>
</mgrwt>
</event>
<event>
 6    1  0.2558947E-003  0.6527419E+03  0.7818608E-02  0.9801648E-01
          1   -1    0    0  502    0  0.00000000000E+00  0.00000000000E+00  0.12214730317E+03  0.12214730317E+03  0.00000000000E+00 0.  1.
         13   -1    0    0    0    0 -0.00000000000E+00 -0.00000000000E+00 -0.10000000000E+04  0.10000000000E+04  0.00000000000E+00 0.  1.
    9000005    2    1    2  501    0  0.47221859960E+01  0.36642519095E+00 -0.89308394919E+03  0.11061966180E+04  0.65272473842E+03 0.  0.
         13    1    3    3    0    0 -0.21628341627E+03  0.30763326523E+02 -0.37060329065E+02  0.22158151187E+03  0.00000000000E+00 0.  1.
          3    1    3    3  501    0  0.22100560227E+03 -0.30396901332E+02 -0.85602362012E+03  0.88461510616E+03  0.00000000000E+00 0.  1.
         21    1    1    2  502  501 -0.47221859960E+01 -0.36642519095E+00  0.15231252361E+02  0.15950685142E+02  0.00000000000E+00 0.  1.
<mgrwt>
<rscale>  1 0.65274192E+03</rscale>
<asrwt>0</asrwt>
<pdfrwt beam="1">  1        1 0.44417295E+00 0.65274192E+03</pdfrwt>
<pdfrwt beam="2">0</pdfrwt>
<totfact> 0.84452117E-01</totfact>
</mgrwt>
</event>
<event>
 6    1  0.2558947E-003  0.6441597E+03  0.7818608E-02  0.9817800E-01
          1   -1    0    0  502    0  0.00000000000E+00  0.00000000000E+00  0.11804265365E+03  0.11804265365E+03  0.00000000000E+00 0.  1.
         13   -1    0    0    0    0 -0.00000000000E+00 -0.00000000000E+00 -0.10000000000E+04  0.10000000000E+04  0.00000000000E+00 0.  1.
    9000005    2    1    2  501    0  0.17314289054E+01 -0.78431921705E+01 -0.89500986415E+03  0.11027168020E+04  0.64410959850E+03 0.  0.
         13    1    3    3    0    0  0.28017718511E+03  0.14840432074E+03 -0.53160611490E+03  0.61897347186E+03  0.00000000000E+00 0.  1.
          3    1    3    3  501    0 -0.27844575620E+03 -0.15624751291E+03 -0.36340374925E+03  0.48374333009E+03  0.00000000000E+00 0.  1.
         21    1    1    2  502  501 -0.17314289054E+01  0.78431921705E+01  0.13052517792E+02  0.15325851695E+02  0.00000000000E+00 0.  1.
<mgrwt>
<rscale>  1 0.64415968E+03</rscale>
<asrwt>0</asrwt>
<pdfrwt beam="1">  1        1 0.42924692E+00 0.64415968E+03</pdfrwt>
<pdfrwt beam="2">0</pdfrwt>
<totfact> 0.98955695E-01</totfact>
</mgrwt>
</event>
<event>
 6    1  0.2558947E-003  0.6588750E+03  0.7818608E-02  0.9790267E-01
          1   -1    0    0  502    0  0.00000000000E+00  0.00000000000E+00  0.10852934420E+03  0.10852934420E+03  0.00000000000E+00 0.  1.
         13   -1    0    0    0    0 -0.00000000000E+00 -0.00000000000E+00 -0.10000000000E+04  0.10000000000E+04  0.00000000000E+00 0.  1.
    9000005    2    1    2  501    0  0.44532825486E-03  0.66653312723E-03 -0.89146950858E+03  0.11085279447E+04  0.65887504079E+03 0.  0.
         13    1    3    3    0    0  0.52801340327E+02 -0.27052918533E+03 -0.14216937348E+03  0.31013892437E+03  0.00000000000E+00 0.  1.
          3    1    3    3  501    0 -0.52800894998E+02  0.27052985186E+03 -0.74930013510E+03  0.79838902029E+03  0.00000000000E+00 0.  1.
         21    1    1    2  502  501 -0.44532825486E-03 -0.66653312724E-03 -0.11472160512E-02  0.13995314689E-02  0.00000000000E+00 0.  1.
<mgrwt>
<rscale>  1 0.65887504E+03</rscale>
<asrwt>0</asrwt>
<pdfrwt beam="1">  1        1 0.39465299E+00 0.65887504E+03</pdfrwt>
<pdfrwt beam="2">0</pdfrwt>
<totfact> 0.14108865E+00</totfact>
</mgrwt>
</event>
<event>
 6    1  0.2558947E-003  0.6110863E+03  0.7818608E-02  0.9882669E-01
          1   -1    0    0  502    0  0.00000000000E+00  0.00000000000E+00  0.93534371509E+02  0.93534371509E+02  0.00000000000E+00 0.  1.
         13   -1    0    0    0    0 -0.00000000000E+00 -0.00000000000E+00 -0.10000000000E+04  0.10000000000E+04  0.00000000000E+00 0.  1.
    9000005    2    1    2  501    0  0.95769834664E-01 -0.99878728617E-01 -0.90661351704E+03  0.10933318409E+04  0.61108626716E+03 0.  0.
         13    1    3    3    0    0 -0.18026726914E+03 -0.22280780794E+02 -0.13744870614E+02  0.18215829102E+03  0.00000000000E+00 0.  1.
          3    1    3    3  501    0  0.18036303898E+03  0.22180902065E+02 -0.89286864643E+03  0.91117354989E+03  0.00000000000E+00 0.  1.
         21    1    1    2  502  501 -0.95769834664E-01  0.99878728617E-01  0.14788855099E+00  0.20253060306E+00  0.00000000000E+00 0.  1.
<mgrwt>
<rscale>  1 0.61108628E+03</rscale>
<asrwt>0</asrwt>
<pdfrwt beam="1">  1        1 0.34012570E+00 0.61108628E+03</pdfrwt>
<pdfrwt beam="2">0</pdfrwt>
<totfact> 0.24694871E+00</totfact>
</mgrwt>
</event>
<event>
 6    1  0.2558947E-003  0.6569247E+03  0.7818608E-02  0.9793872E-01
          1   -1    0    0  502    0  0.00000000000E+00  0.00000000000E+00  0.10790316048E+03  0.10790316048E+03  0.00000000000E+00 0.  1.
         13   -1    0    0    0    0 -0.00000000000E+00 -0.00000000000E+00 -0.10000000000E+04  0.10000000000E+04  0.00000000000E+00 0.  1.
    9000005    2    1    2  501    0 -0.26997628174E-03  0.11176965410E-03 -0.89211248718E+03  0.11078875101E+04  0.65692468763E+03 0.  0.
         13    1    3    3    0    0  0.24691265361E+03 -0.19725067498E+03 -0.59702846748E+03  0.67551215997E+03  0.00000000000E+00 0.  1.
          1    1    3    3  501    0 -0.24691292358E+03  0.19725078675E+03 -0.29508401970E+03  0.43237535012E+03  0.00000000000E+00 0.  1.
         21    1    1    2  502  501  0.26997628176E-03 -0.11176965409E-03  0.15647658963E-01  0.15650386918E-01  0.00000000000E+00 0.  1.
<mgrwt>
<rscale>  1 0.65692469E+03</rscale>
<asrwt>0</asrwt>
<pdfrwt beam="1">  1        1 0.39237596E+00 0.65692469E+03</pdfrwt>
<pdfrwt beam="2">0</pdfrwt>
<totfact> 0.14446643E+00</totfact>
</mgrwt>
</event>
<event>
 6    1  0.2558947E-003  0.6523330E+03  0.7818608E-02  0.9802411E-01
          1   -1    0    0  502    0  0.00000000000E+00  0.00000000000E+00  0.10638533761E+03  0.10638533761E+03  0.00000000000E+00 0.  1.
         13   -1    0    0    0    0 -0.00000000000E+00 -0.00000000000E+00 -0.10000000000E+04  0.10000000000E+04  0.00000000000E+00 0.  1.
    9000005    2    1    2  501    0 -0.59880691325E-04  0.34324495516E-04 -0.89361540956E+03  0.11063845873E+04  0.65233300906E+03 0.  0.
         13    1    3    3    0    0 -0.11776404249E+03  0.13118956638E+03 -0.91223324791E+03  0.92911171052E+03  0.00000000000E+00 0.  1.
          3    1    3    3  501    0  0.11776398261E+03 -0.13118953206E+03  0.18617838347E+02  0.17727287674E+03  0.00000000000E+00 0.  1.
         21    1    1    2  502  501  0.59880691331E-04 -0.34324495518E-04  0.74716800057E-03  0.75034917823E-03  0.00000000000E+00 0.  1.
<mgrwt>
<rscale>  1 0.65233301E+03</rscale>
<asrwt>0</asrwt>
<pdfrwt beam="1">  1        1 0.38685659E+00 0.65233301E+03</pdfrwt>
<pdfrwt beam="2">0</pdfrwt>
<totfact> 0.15297096E+00</totfact>
</mgrwt>
</event>
<event>
 6    1  0.2558947E-003  0.6181909E+03  0.7818608E-02  0.9868368E-01
          1   -1    0    0  502    0  0.00000000000E+00  0.00000000000E+00  0.95610439426E+02  0.95610439426E+02  0.00000000000E+00 0.  1.
         13   -1    0    0    0    0 -0.00000000000E+00 -0.00000000000E+00 -0.10000000000E+04  0.10000000000E+04  0.00000000000E+00 0.  1.
    9000005    2    1    2  501    0 -0.94411415525E-03  0.10332686037E-02 -0.90446000533E+03  0.10955399808E+04  0.61819086713E+03 0.  0.
         13    1    3    3    0    0 -0.49287369470E+02  0.22570361832E+03 -0.88314140366E+02  0.24732722353E+03  0.00000000000E+00 0.  1.
          3    1    3    3  501    0  0.49286425356E+02 -0.22570258505E+03 -0.81614586497E+03  0.84821275723E+03  0.00000000000E+00 0.  1.
         21    1    1    2  502  501  0.94411415525E-03 -0.10332686037E-02  0.70444759528E-01  0.70458662636E-01  0.00000000000E+00 0.  1.
<mgrwt>
<rscale>  1 0.61819087E+03</rscale>
<asrwt>0</asrwt>
<pdfrwt beam="1">  1        1 0.34767506E+00 0.61819087E+03</pdfrwt>
<pdfrwt beam="2">0</pdfrwt>
<totfact> 0.22868057E+00</totfact>
</mgrwt>
</event>
<event>
 6    1  0.2558947E-003  0.6320110E+03  0.7818608E-02  0.9841132E-01
          1   -1    0    0  502    0  0.00000000000E+00  0.00000000000E+00  0.99859533063E+02  0.99859533063E+02  0.00000000000E+00 0.  1.
         13   -1    0    0    0    0 -0.00000000000E+00 -0.00000000000E+00 -0.10000000000E+04  0.10000000000E+04  0.00000000000E+00 0.  1.
    9000005    2    1    2  501    0  0.16246494283E-06  0.86733038529E-05 -0.90014051679E+03  0.10998594825E+04  0.63201102140E+03 0.  0.
         13    1    3    3    0    0  0.22730462033E+03 -0.16809784104E+03 -0.69578030730E+03  0.75102231033E+03  0.00000000000E+00 0.  1.
          3    1    3    3  501    0 -0.22730462017E+03  0.16809784972E+03 -0.20436020949E+03  0.34883717212E+03  0.00000000000E+00 0.  1.
         21    1    1    2  502  501 -0.16246494848E-06 -0.86733038491E-05  0.49857531186E-04  0.50606580704E-04  0.00000000000E+00 0.  1.
<mgrwt>
<rscale>  1 0.63201102E+03</rscale>
<asrwt>0</asrwt>
<pdfrwt beam="1">  1        1 0.36312634E+00 0.63201102E+03</pdfrwt>
<pdfrwt beam="2">0</pdfrwt>
<totfact> 0.19529464E+00</totfact>
</mgrwt>
</event>
<event>
 6    1  0.2558947E-003  0.6495324E+03  0.7818608E-02  0.9807657E-01
          1   -1    0    0  502    0  0.00000000000E+00  0.00000000000E+00  0.10694142389E+03  0.10694142389E+03  0.00000000000E+00 0.  1.
         13   -1    0    0    0    0 -0.00000000000E+00 -0.00000000000E+00 -0.10000000000E+04  0.10000000000E+04  0.00000000000E+00 0.  1.
    9000005    2    1    2  501    0  0.15518946758E+00  0.30867633014E+00 -0.89450440034E+03  0.11054548935E+04  0.64953235485E+03 0.  0.
         13    1    3    3    0    0  0.14679209928E+03 -0.11570149968E+03 -0.89919797115E+03  0.91841806862E+03  0.00000000000E+00 0.  1.
          1    1    3    3  501    0 -0.14663690982E+03  0.11601017601E+03  0.46935708104E+01  0.18703682489E+03  0.00000000000E+00 0.  1.
         21    1    1    2  502  501 -0.15518946758E+00 -0.30867633014E+00  0.14458242348E+01  0.14865303783E+01  0.00000000000E+00 0.  1.
<mgrwt>
<rscale>  1 0.64953245E+03</rscale>
<asrwt>0</asrwt>
<pdfrwt beam="1">  1        1 0.38887873E+00 0.64953245E+03</pdfrwt>
<pdfrwt beam="2">0</pdfrwt>
<totfact> 0.14992626E+00</totfact>
</mgrwt>
</event>
<event>
 6    1  0.2558947E-003  0.6470298E+03  0.7818608E-02  0.9812369E-01
          3   -1    0    0  502    0  0.00000000000E+00  0.00000000000E+00  0.10467708361E+03  0.10467708361E+03  0.00000000000E+00 0.  1.
         13   -1    0    0    0    0 -0.00000000000E+00 -0.00000000000E+00 -0.10000000000E+04  0.10000000000E+04  0.00000000000E+00 0.  1.
    9000005    2    1    2  501    0 -0.85121503621E-02  0.58736539446E-02 -0.89533613145E+03  0.11046603028E+04  0.64702982643E+03 0.  0.
         13    1    3    3    0    0  0.18704228165E+03  0.25259636053E+03 -0.31684020472E+03  0.44629301115E+03  0.00000000000E+00 0.  1.
          3    1    3    3  501    0 -0.18705079380E+03 -0.25259048688E+03 -0.57849592673E+03  0.65836729169E+03  0.00000000000E+00 0.  1.
         21    1    1    2  502  501  0.85121503621E-02 -0.58736539446E-02  0.13215057889E-01  0.16780770825E-01  0.00000000000E+00 0. -1.
<mgrwt>
<rscale>  1 0.64702983E+03</rscale>
<asrwt>0</asrwt>
<pdfrwt beam="1">  1        3 0.38064474E+00 0.64702983E+03</pdfrwt>
<pdfrwt beam="2">0</pdfrwt>
<totfact> 0.74926470E-02</totfact>
</mgrwt>
</event>
<event>
 6    1  0.2558947E-003  0.6547158E+03  0.7818608E-02  0.9797970E-01
          1   -1    0    0  502    0  0.00000000000E+00  0.00000000000E+00  0.10717483068E+03  0.10717483068E+03  0.00000000000E+00 0.  1.
         13   -1    0    0    0    0 -0.00000000000E+00 -0.00000000000E+00 -0.10000000000E+04  0.10000000000E+04  0.00000000000E+00 0.  1.
    9000005    2    1    2  501    0 -0.23904401970E-02 -0.16258230946E-03 -0.89283666620E+03  0.11071630868E+04  0.65471580725E+03 0.  0.
         13    1    3    3    0    0  0.25776040599E+03  0.14693417724E+03 -0.21250937514E+03  0.36495248164E+03  0.00000000000E+00 0.  1.
          1    1    3    3  501    0 -0.25776279643E+03 -0.14693433982E+03 -0.68032729106E+03  0.74221060515E+03  0.00000000000E+00 0.  1.
         21    1    1    2  502  501  0.23904401971E-02  0.16258230945E-03  0.11496876460E-01  0.11743883757E-01  0.00000000000E+00 0. -1.
<mgrwt>
<rscale>  1 0.65471581E+03</rscale>
<asrwt>0</asrwt>
<pdfrwt beam="1">  1        1 0.38972748E+00 0.65471581E+03</pdfrwt>
<pdfrwt beam="2">0</pdfrwt>
<totfact> 0.14848994E+00</totfact>
</mgrwt>
</event>
<event>
 6    1  0.2558947E-003  0.6563559E+03  0.7818608E-02  0.9794925E-01
          1   -1    0    0  502    0  0.00000000000E+00  0.00000000000E+00  0.10981980845E+03  0.10981980845E+03  0.00000000000E+00 0.  1.
         13   -1    0    0    0    0 -0.00000000000E+00 -0.00000000000E+00 -0.10000000000E+04  0.10000000000E+04  0.00000000000E+00 0.  1.
    9000005    2    1    2  501    0 -0.13707145838E+01  0.30506211204E+00 -0.89203841304E+03  0.11074906652E+04  0.65635437925E+03 0.  0.
         13    1    3    3    0    0 -0.40329600967E+02 -0.31021257122E+03 -0.27888030293E+03  0.41908536054E+03  0.00000000000E+00 0.  1.
          3    1    3    3  501    0  0.38958886383E+02  0.31051763333E+03 -0.61315811011E+03  0.68840530462E+03  0.00000000000E+00 0.  1.
         21    1    1    2  502  501  0.13707145838E+01 -0.30506211204E+00  0.18582214846E+01  0.23291432863E+01  0.00000000000E+00 0.  1.
<mgrwt>
<rscale>  1 0.65635588E+03</rscale>
<asrwt>0</asrwt>
<pdfrwt beam="1">  1        1 0.39934560E+00 0.65635588E+03</pdfrwt>
<pdfrwt beam="2">0</pdfrwt>
<totfact> 0.13452678E+00</totfact>
</mgrwt>
</event>
<event>
 6    1  0.2558947E-003  0.6514808E+03  0.7818608E-02  0.9804004E-01
          1   -1    0    0  502    0  0.00000000000E+00  0.00000000000E+00  0.10655599486E+03  0.10655599486E+03  0.00000000000E+00 0.  1.
         13   -1    0    0    0    0 -0.00000000000E+00 -0.00000000000E+00 -0.10000000000E+04  0.10000000000E+04  0.00000000000E+00 0.  1.
    9000005    2    1    2  501    0 -0.65329463444E-01 -0.72215400809E-01 -0.89388733150E+03  0.11061020992E+04  0.65148083852E+03 0.  0.
         13    1    3    3    0    0 -0.11447609085E+03 -0.28134938506E+03 -0.64697402504E+03  0.71472906820E+03  0.00000000000E+00 0.  1.
          3    1    3    3  501    0  0.11441076138E+03  0.28127716966E+03 -0.24691330646E+03  0.39137303101E+03  0.00000000000E+00 0.  1.
         21    1    1    2  502  501  0.65329463444E-01  0.72215400809E-01  0.44332636119E+00  0.45389565479E+00  0.00000000000E+00 0. -1.
<mgrwt>
<rscale>  1 0.65148085E+03</rscale>
<asrwt>0</asrwt>
<pdfrwt beam="1">  1        1 0.38747716E+00 0.65148085E+03</pdfrwt>
<pdfrwt beam="2">0</pdfrwt>
<totfact> 0.15203008E+00</totfact>
</mgrwt>
</event>
<event>
 6    1  0.2558947E-003  0.6452164E+03  0.7818608E-02  0.9815797E-01
          1   -1    0    0  502    0  0.00000000000E+00  0.00000000000E+00  0.10615777759E+03  0.10615777759E+03  0.00000000000E+00 0.  1.
         13   -1    0    0    0    0 -0.00000000000E+00 -0.00000000000E+00 -0.10000000000E+04  0.10000000000E+04  0.00000000000E+00 0.  1.
    9000005    2    1    2  501    0 -0.52369190687E+01  0.15563359009E+01 -0.89074491060E+03  0.10998775831E+04  0.64519326908E+03 0.  0.
         13    1    3    3    0    0 -0.22324965154E+03  0.22790821716E+03 -0.55379243445E+03  0.63911550037E+03  0.00000000000E+00 0.  1.
          3    1    3    3  501    0  0.21801273247E+03 -0.22635188126E+03 -0.33695247615E+03  0.46076208270E+03  0.00000000000E+00 0.  1.
         21    1    1    2  502  501  0.52369190687E+01 -0.15563359009E+01 -0.30973118134E+01  0.62801945223E+01  0.00000000000E+00 0.  1.
<mgrwt>
<rscale>  1 0.64521640E+03</rscale>
<asrwt>0</asrwt>
<pdfrwt beam="1">  1        1 0.38602910E+00 0.64521640E+03</pdfrwt>
<pdfrwt beam="2">0</pdfrwt>
<totfact> 0.15447034E+00</totfact>
</mgrwt>
</event>
<event>
 6    1  0.2558947E-003  0.6470433E+03  0.7818608E-02  0.9812343E-01
          1   -1    0    0  502    0  0.00000000000E+00  0.00000000000E+00  0.10540880860E+03  0.10540880860E+03  0.00000000000E+00 0.  1.
         13   -1    0    0    0    0 -0.00000000000E+00 -0.00000000000E+00 -0.10000000000E+04  0.10000000000E+04  0.00000000000E+00 0.  1.
    9000005    2    1    2  501    0 -0.13591743121E+01  0.16593616528E+01 -0.89280380457E+03  0.11026167507E+04  0.64703977044E+03 0.  0.
         13    1    3    3    0    0  0.84599685299E+02 -0.26050385183E+03 -0.15454451854E+03  0.31448906464E+03  0.00000000000E+00 0.  1.
          3    1    3    3  501    0 -0.85958859611E+02  0.26216321348E+03 -0.73825928603E+03  0.78812768602E+03  0.00000000000E+00 0.  1.
         21    1    1    2  502  501  0.13591743121E+01 -0.16593616528E+01 -0.17873868224E+01  0.27920579432E+01  0.00000000000E+00 0. -1.
<mgrwt>
<rscale>  1 0.64704333E+03</rscale>
<asrwt>0</asrwt>
<pdfrwt beam="1">  1        1 0.38330557E+00 0.64704333E+03</pdfrwt>
<pdfrwt beam="2">0</pdfrwt>
<totfact> 0.15875992E+00</totfact>
</mgrwt>
</event>
<event>
 6    1  0.2558947E-003  0.6531324E+03  0.7818608E-02  0.9800919E-01
          1   -1    0    0  502    0  0.00000000000E+00  0.00000000000E+00  0.10664560082E+03  0.10664560082E+03  0.00000000000E+00 0.  1.
         13   -1    0    0    0    0 -0.00000000000E+00 -0.00000000000E+00 -0.10000000000E+04  0.10000000000E+04  0.00000000000E+00 0.  1.
    9000005    2    1    2  501    0  0.19725196687E-03  0.38829918196E-05 -0.89335439865E+03  0.11066454035E+04  0.65313242728E+03 0.  0.
         13    1    3    3    0    0  0.32838948188E+02 -0.23625813820E+03 -0.68756878116E+02  0.24824144027E+03  0.00000000000E+00 0.  1.
          1    1    3    3  501    0 -0.32838750936E+02  0.23625814208E+03 -0.82459752053E+03  0.85840396326E+03  0.00000000000E+00 0.  1.
         21    1    1    2  502  501 -0.19725196687E-03 -0.38829918222E-05 -0.52944211446E-06  0.19729089277E-03  0.00000000000E+00 0. -1.
<mgrwt>
<rscale>  1 0.65313243E+03</rscale>
<asrwt>0</asrwt>
<pdfrwt beam="1">  1        1 0.38780300E+00 0.65313243E+03</pdfrwt>
<pdfrwt beam="2">0</pdfrwt>
<totfact> 0.15147937E+00</totfact>
</mgrwt>
</event>
<event>
 6    1  0.2558947E-003  0.6630228E+03  0.7818608E-02  0.9782645E-01
          1   -1    0    0  502    0  0.00000000000E+00  0.00000000000E+00  0.10990003941E+03  0.10990003941E+03  0.00000000000E+00 0.  1.
         13   -1    0    0    0    0 -0.00000000000E+00 -0.00000000000E+00 -0.10000000000E+04  0.10000000000E+04  0.00000000000E+00 0.  1.
    9000005    2    1    2  501    0 -0.21057727803E-04  0.24653500182E-03 -0.89010012844E+03  0.11098997404E+04  0.66302277119E+03 0.  0.
         13    1    3    3    0    0 -0.47101279707E+01  0.10422823740E+03  0.81699051069E+02  0.13251583197E+03  0.00000000000E+00 0.  1.
          3    1    3    3  501    0  0.47101069130E+01 -0.10422799086E+03 -0.97179917951E+03  0.97738390845E+03  0.00000000000E+00 0.  1.
         21    1    1    2  502  501  0.21057727803E-04 -0.24653500181E-03  0.16785657618E-03  0.29899626283E-03  0.00000000000E+00 0. -1.
<mgrwt>
<rscale>  1 0.66302277E+03</rscale>
<asrwt>0</asrwt>
<pdfrwt beam="1">  1        1 0.39963735E+00 0.66302277E+03</pdfrwt>
<pdfrwt beam="2">0</pdfrwt>
<totfact> 0.13395683E+00</totfact>
</mgrwt>
</event>
<event>
 6    1  0.2558947E-003  0.6536977E+03  0.7818608E-02  0.9799865E-01
          1   -1    0    0  502    0  0.00000000000E+00  0.00000000000E+00  0.10705405268E+03  0.10705405268E+03  0.00000000000E+00 0.  1.
         13   -1    0    0    0    0 -0.00000000000E+00 -0.00000000000E+00 -0.10000000000E+04  0.10000000000E+04  0.00000000000E+00 0.  1.
    9000005    2    1    2  501    0  0.18563021082E-01 -0.47285971260E-02 -0.89316937501E+03  0.11068298053E+04  0.65369770164E+03 0.  0.
         13    1    3    3    0    0 -0.69388068032E+01  0.30903599135E+03 -0.26677529801E+03  0.40831415677E+03  0.00000000000E+00 0.  1.
          1    1    3    3  501    0  0.69573698243E+01 -0.30904071995E+03 -0.62639407700E+03  0.69851564856E+03  0.00000000000E+00 0.  1.
         21    1    1    2  502  501 -0.18563021082E-01  0.47285971260E-02  0.22342769140E+00  0.22424736045E+00  0.00000000000E+00 0. -1.
<mgrwt>
<rscale>  1 0.65369770E+03</rscale>
<asrwt>0</asrwt>
<pdfrwt beam="1">  1        1 0.38928829E+00 0.65369770E+03</pdfrwt>
<pdfrwt beam="2">0</pdfrwt>
<totfact> 0.14918536E+00</totfact>
</mgrwt>
</event>
<event>
 6    1  0.2558947E-003  0.6332616E+03  0.7818608E-02  0.9838705E-01
          1   -1    0    0  502    0  0.00000000000E+00  0.00000000000E+00  0.11034025594E+03  0.11034025594E+03  0.00000000000E+00 0.  1.
         13   -1    0    0    0    0 -0.00000000000E+00 -0.00000000000E+00 -0.10000000000E+04  0.10000000000E+04  0.00000000000E+00 0.  1.
    9000005    2    1    2  501    0 -0.51877791887E+00 -0.25355284865E+00 -0.89973584524E+03  0.11002476232E+04  0.63326132664E+03 0.  0.
         13    1    3    3    0    0 -0.49549474012E+02  0.29620993837E+03 -0.62358674630E+03  0.69213864805E+03  0.00000000000E+00 0.  1.
          1    1    3    3  501    0  0.49030696093E+02 -0.29646349122E+03 -0.27614909894E+03  0.40810897519E+03  0.00000000000E+00 0.  1.
         21    1    1    2  502  501  0.51877791887E+00  0.25355284865E+00  0.10076101181E+02  0.10092632689E+02  0.00000000000E+00 0.  1.
<mgrwt>
<rscale>  1 0.63326159E+03</rscale>
<asrwt>0</asrwt>
<pdfrwt beam="1">  1        1 0.40123814E+00 0.63326159E+03</pdfrwt>
<pdfrwt beam="2">0</pdfrwt>
<totfact> 0.13252474E+00</totfact>
</mgrwt>
</event>
<event>
 6    1  0.2558947E-003  0.6644064E+03  0.7818608E-02  0.9780116E-01
          1   -1    0    0  502    0  0.00000000000E+00  0.00000000000E+00  0.11041723638E+03  0.11041723638E+03  0.00000000000E+00 0.  1.
         13   -1    0    0    0    0 -0.00000000000E+00 -0.00000000000E+00 -0.10000000000E+04  0.10000000000E+04  0.00000000000E+00 0.  1.
    9000005    2    1    2  501    0  0.21125500791E-02 -0.20249996209E-03 -0.88964100671E+03  0.11103589546E+04  0.66440641727E+03 0.  0.
         13    1    3    3    0    0 -0.12200858843E+03 -0.29993282891E+03 -0.56890607721E+03  0.65459905453E+03  0.00000000000E+00 0.  1.
          1    1    3    3  501    0  0.12201070098E+03  0.29993262641E+03 -0.32073492950E+03  0.45575990010E+03  0.00000000000E+00 0.  1.
         21    1    1    2  502  501 -0.21125500791E-02  0.20249996207E-03  0.58243094248E-01  0.58281745870E-01  0.00000000000E+00 0.  1.
<mgrwt>
<rscale>  1 0.66440642E+03</rscale>
<asrwt>0</asrwt>
<pdfrwt beam="1">  1        1 0.40151807E+00 0.66440642E+03</pdfrwt>
<pdfrwt beam="2">0</pdfrwt>
<totfact> 0.13135991E+00</totfact>
</mgrwt>
</event>
<event>
 6    1  0.2558947E-003  0.6209513E+03  0.7818608E-02  0.9862867E-01
          1   -1    0    0  502    0  0.00000000000E+00  0.00000000000E+00  0.96395464976E+02  0.96395464976E+02  0.00000000000E+00 0.  1.
         13   -1    0    0    0    0 -0.00000000000E+00 -0.00000000000E+00 -0.10000000000E+04  0.10000000000E+04  0.00000000000E+00 0.  1.
    9000005    2    1    2  501    0  0.10422247124E-03  0.72805720808E-03 -0.90360431138E+03  0.10963946962E+04  0.62095134947E+03 0.  0.
         13    1    3    3    0    0  0.27766424871E+03  0.96826751964E+02 -0.27592197514E+03  0.40324408399E+03  0.00000000000E+00 0.  1.
          3    1    3    3  501    0 -0.27766414449E+03 -0.96826023907E+02 -0.62768233624E+03  0.69315061225E+03  0.00000000000E+00 0.  1.
         21    1    1    2  502  501 -0.10422247123E-03 -0.72805720807E-03 -0.22364420439E-03  0.76873035057E-03  0.00000000000E+00 0. -1.
<mgrwt>
<rscale>  1 0.62095135E+03</rscale>
<asrwt>0</asrwt>
<pdfrwt beam="1">  1        1 0.35052970E+00 0.62095135E+03</pdfrwt>
<pdfrwt beam="2">0</pdfrwt>
<totfact> 0.22211620E+00</totfact>
</mgrwt>
</event>
<event>
 6    1  0.2558947E-003  0.6293942E+03  0.7818608E-02  0.9846232E-01
          1   -1    0    0  502    0  0.00000000000E+00  0.00000000000E+00  0.10118468651E+03  0.10118468651E+03  0.00000000000E+00 0.  1.
         13   -1    0    0    0    0 -0.00000000000E+00 -0.00000000000E+00 -0.10000000000E+04  0.10000000000E+04  0.00000000000E+00 0.  1.
    9000005    2    1    2  501    0 -0.12626741088E+01  0.61540525419E+01 -0.89368575603E+03  0.10930742569E+04  0.62936287932E+03 0.  0.
         13    1    3    3    0    0 -0.13013579041E+03 -0.24177128937E+03 -0.18442664733E+03  0.33075953283E+03  0.00000000000E+00 0.  1.
          1    1    3    3  501    0  0.12887311630E+03  0.24792534192E+03 -0.70925910869E+03  0.76231472407E+03  0.00000000000E+00 0.  1.
         21    1    1    2  502  501  0.12626741088E+01 -0.61540525419E+01 -0.51295574663E+01  0.81104296060E+01  0.00000000000E+00 0.  1.
<mgrwt>
<rscale>  1 0.62939423E+03</rscale>
<asrwt>0</asrwt>
<pdfrwt beam="1">  1        1 0.36794509E+00 0.62939423E+03</pdfrwt>
<pdfrwt beam="2">0</pdfrwt>
<totfact> 0.18611343E+00</totfact>
</mgrwt>
</event>
<event>
 6    1  0.2558947E-003  0.6032232E+03  0.7818608E-02  0.9898741E-01
          1   -1    0    0  502    0  0.00000000000E+00  0.00000000000E+00  0.12177306502E+03  0.12177306502E+03  0.00000000000E+00 0.  1.
         13   -1    0    0    0    0 -0.00000000000E+00 -0.00000000000E+00 -0.10000000000E+04  0.10000000000E+04  0.00000000000E+00 0.  1.
    9000005    2    1    2  501    0 -0.34039662911E+01  0.79930264467E+00 -0.90892215268E+03  0.10908793398E+04  0.60321308706E+03 0.  0.
         13    1    3    3    0    0 -0.22903666436E+01  0.21021029388E+03 -0.84671412074E+03  0.87242100828E+03  0.00000000000E+00 0.  1.
          3    1    3    3  501    0 -0.11135996475E+01 -0.20941099123E+03 -0.62208031943E+02  0.21845833148E+03  0.00000000000E+00 0.  1.
         21    1    1    2  502  501  0.34039662911E+01 -0.79930264467E+00  0.30695217697E+02  0.30893725264E+02  0.00000000000E+00 0. -1.
<mgrwt>
<rscale>  1 0.60322322E+03</rscale>
<asrwt>0</asrwt>
<pdfrwt beam="1">  1        1 0.44281208E+00 0.60322322E+03</pdfrwt>
<pdfrwt beam="2">0</pdfrwt>
<totfact> 0.86579319E-01</totfact>
</mgrwt>
</event>
<event>
 6    1  0.2558947E-003  0.6446792E+03  0.7818608E-02  0.9816815E-01
          1   -1    0    0  502    0  0.00000000000E+00  0.00000000000E+00  0.10394045144E+03  0.10394045144E+03  0.00000000000E+00 0.  1.
         13   -1    0    0    0    0 -0.00000000000E+00 -0.00000000000E+00 -0.10000000000E+04  0.10000000000E+04  0.00000000000E+00 0.  1.
    9000005    2    1    2  501    0 -0.53166560658E-02  0.24662872132E-02 -0.89609694106E+03  0.11039026024E+04  0.64467916657E+03 0.  0.
         13    1    3    3    0    0 -0.24568364193E+02 -0.43327446776E+02 -0.99337064601E+03  0.99461857639E+03  0.00000000000E+00 0.  1.
          1    1    3    3  501    0  0.24563047537E+02  0.43329913063E+02  0.97273704944E+02  0.10928402602E+03  0.00000000000E+00 0.  1.
         21    1    1    2  502  501  0.53166560658E-02 -0.24662872132E-02  0.37392505235E-01  0.37849027095E-01  0.00000000000E+00 0.  1.
<mgrwt>
<rscale>  1 0.64467917E+03</rscale>
<asrwt>0</asrwt>
<pdfrwt beam="1">  1        1 0.37796608E+00 0.64467917E+03</pdfrwt>
<pdfrwt beam="2">0</pdfrwt>
<totfact> 0.16768554E+00</totfact>
</mgrwt>
</event>
<event>
 6    1  0.2558947E-003  0.6459733E+03  0.7818608E-02  0.9814364E-01
          1   -1    0    0  502    0  0.00000000000E+00  0.00000000000E+00  0.10471203491E+03  0.10471203491E+03  0.00000000000E+00 0.  1.
         13   -1    0    0    0    0 -0.00000000000E+00 -0.00000000000E+00 -0.10000000000E+04  0.10000000000E+04  0.00000000000E+00 0.  1.
    9000005    2    1    2  501    0  0.59655922775E+00 -0.16161108623E+00 -0.89539013024E+03  0.11040855856E+04  0.64597299706E+03 0.  0.
         13    1    3    3    0    0 -0.12826516733E+03  0.82104234688E+02 -0.93405572896E+03  0.94638954099E+03  0.00000000000E+00 0.  1.
          3    1    3    3  501    0  0.12886172655E+03 -0.82265845774E+02  0.38665598718E+02  0.15769604458E+03  0.00000000000E+00 0.  1.
         21    1    1    2  502  501 -0.59655922775E+00  0.16161108623E+00  0.10216514531E+00  0.62644933739E+00  0.00000000000E+00 0.  1.
<mgrwt>
<rscale>  1 0.64597329E+03</rscale>
<asrwt>0</asrwt>
<pdfrwt beam="1">  1        1 0.38077184E+00 0.64597329E+03</pdfrwt>
<pdfrwt beam="2">0</pdfrwt>
<totfact> 0.16293583E+00</totfact>
</mgrwt>
</event>
<event>
 6    1  0.2558947E-003  0.6457292E+03  0.7818608E-02  0.9814826E-01
          1   -1    0    0  502    0  0.00000000000E+00  0.00000000000E+00  0.10486043236E+03  0.10486043236E+03  0.00000000000E+00 0.  1.
         13   -1    0    0    0    0 -0.00000000000E+00 -0.00000000000E+00 -0.10000000000E+04  0.10000000000E+04  0.00000000000E+00 0.  1.
    9000005    2    1    2  501    0  0.34636483646E+00  0.19653360626E+00 -0.89568693001E+03  0.11041835279E+04  0.64572906713E+03 0.  0.
         13    1    3    3    0    0 -0.12344349088E+01 -0.31186040785E+03 -0.30544989483E+03  0.43652958212E+03  0.00000000000E+00 0.  1.
          3    1    3    3  501    0  0.15807997452E+01  0.31205694145E+03 -0.59023703519E+03  0.66765394580E+03  0.00000000000E+00 0.  1.
         21    1    1    2  502  501 -0.34636483646E+00 -0.19653360626E+00  0.54736236707E+00  0.67690443876E+00  0.00000000000E+00 0. -1.
<mgrwt>
<rscale>  1 0.64572919E+03</rscale>
<asrwt>0</asrwt>
<pdfrwt beam="1">  1        1 0.38131147E+00 0.64572919E+03</pdfrwt>
<pdfrwt beam="2">0</pdfrwt>
<totfact> 0.16205188E+00</totfact>
</mgrwt>
</event>
<event>
 6    1  0.2558947E-003  0.6431163E+03  0.7818608E-02  0.9819782E-01
          1   -1    0    0  502    0  0.00000000000E+00  0.00000000000E+00  0.10398474895E+03  0.10398474895E+03  0.00000000000E+00 0.  1.
         13   -1    0    0    0    0 -0.00000000000E+00 -0.00000000000E+00 -0.10000000000E+04  0.10000000000E+04  0.00000000000E+00 0.  1.
    9000005    2    1    2  501    0  0.32814974842E-01 -0.33279597739E-01 -0.89659934225E+03  0.11033987909E+04  0.64311624841E+03 0.  0.
         13    1    3    3    0    0 -0.92136063297E+02  0.35734429859E+02 -0.97327828042E+03  0.97828248209E+03  0.00000000000E+00 0.  1.
          3    1    3    3  501    0  0.92168878272E+02 -0.35767709457E+02  0.76678938166E+02  0.12511630877E+03  0.00000000000E+00 0.  1.
         21    1    1    2  502  501 -0.32814974842E-01  0.33279597739E-01  0.58409119725E+00  0.58595808801E+00  0.00000000000E+00 0. -1.
<mgrwt>
<rscale>  1 0.64311625E+03</rscale>
<asrwt>0</asrwt>
<pdfrwt beam="1">  1        1 0.37812716E+00 0.64311625E+03</pdfrwt>
<pdfrwt beam="2">0</pdfrwt>
<totfact> 0.16745967E+00</totfact>
</mgrwt>
</event>
<event>
 6    1  0.2558947E-003  0.6525774E+03  0.7818608E-02  0.9801955E-01
          1   -1    0    0  502    0  0.00000000000E+00  0.00000000000E+00  0.10646458266E+03  0.10646458266E+03  0.00000000000E+00 0.  1.
         13   -1    0    0    0    0 -0.00000000000E+00 -0.00000000000E+00 -0.10000000000E+04  0.10000000000E+04  0.00000000000E+00 0.  1.
    9000005    2    1    2  501    0  0.24363837412E-04  0.32173288105E-05 -0.89353567361E+03  0.11064643252E+04  0.65257743063E+03 0.  0.
         13    1    3    3    0    0 -0.16691886284E+03  0.21341592916E+03 -0.75503756471E+03  0.80217827801E+03  0.00000000000E+00 0.  1.
          1    1    3    3  501    0  0.16691888721E+03 -0.21341592594E+03 -0.13849810890E+03  0.30428604720E+03  0.00000000000E+00 0.  1.
         21    1    1    2  502  501 -0.24363837418E-04 -0.32173288107E-05  0.25626310055E-03  0.25743877812E-03  0.00000000000E+00 0.  1.
<mgrwt>
<rscale>  1 0.65257743E+03</rscale>
<asrwt>0</asrwt>
<pdfrwt beam="1">  1        1 0.38714475E+00 0.65257743E+03</pdfrwt>
<pdfrwt beam="2">0</pdfrwt>
<totfact> 0.15251530E+00</totfact>
</mgrwt>
</event>
<event>
 6    1  0.2558947E-003  0.6528686E+03  0.7818608E-02  0.9801411E-01
          1   -1    0    0  502    0  0.00000000000E+00  0.00000000000E+00  0.10677313442E+03  0.10677313442E+03  0.00000000000E+00 0.  1.
         13   -1    0    0    0    0 -0.00000000000E+00 -0.00000000000E+00 -0.10000000000E+04  0.10000000000E+04  0.00000000000E+00 0.  1.
    9000005    2    1    2  501    0 -0.30976395250E-01  0.18834165161E-01 -0.89343894176E+03  0.11065579820E+04  0.65286861123E+03 0.  0.
         13    1    3    3    0    0 -0.12862871272E+03 -0.25110492555E+03 -0.72501262191E+03  0.77797322017E+03  0.00000000000E+00 0.  1.
          1    1    3    3  501    0  0.12859773633E+03  0.25112375972E+03 -0.16842631986E+03  0.32858476182E+03  0.00000000000E+00 0.  1.
         21    1    1    2  502  501  0.30976395250E-01 -0.18834165161E-01  0.21207618373E+00  0.21515243560E+00  0.00000000000E+00 0.  1.
<mgrwt>
<rscale>  1 0.65286861E+03</rscale>
<asrwt>0</asrwt>
<pdfrwt beam="1">  1        1 0.38826676E+00 0.65286861E+03</pdfrwt>
<pdfrwt beam="2">0</pdfrwt>
<totfact> 0.15077182E+00</totfact>
</mgrwt>
</event>
<event>
 6    1  0.2558947E-003  0.6469899E+03  0.7818608E-02  0.9812444E-01
          1   -1    0    0  502    0  0.00000000000E+00  0.00000000000E+00  0.12363505922E+03  0.12363505922E+03  0.00000000000E+00 0.  1.
         13   -1    0    0    0    0 -0.00000000000E+00 -0.00000000000E+00 -0.10000000000E+04  0.10000000000E+04  0.00000000000E+00 0.  1.
    9000005    2    1    2  501    0 -0.89248868751E+00 -0.41859496102E+01 -0.89508421025E+03  0.11044327219E+04  0.64697571437E+03 0.  0.
         13    1    3    3    0    0 -0.19371496794E+02 -0.25967877724E+03 -0.78237698180E+03  0.82457386806E+03  0.00000000000E+00 0.  1.
          1    1    3    3  501    0  0.18479008106E+02  0.25549282763E+03 -0.11270722845E+03  0.27985885381E+03  0.00000000000E+00 0.  1.
         21    1    1    2  502  501  0.89248868751E+00  0.41859496102E+01  0.18719269476E+02  0.19202337356E+02  0.00000000000E+00 0. -1.
<mgrwt>
<rscale>  1 0.64698987E+03</rscale>
<asrwt>0</asrwt>
<pdfrwt beam="1">  1        1 0.44958298E+00 0.64698987E+03</pdfrwt>
<pdfrwt beam="2">0</pdfrwt>
<totfact> 0.79850030E-01</totfact>
</mgrwt>
</event>
<event>
 6    1  0.2558947E-003  0.6465689E+03  0.7818608E-02  0.9813239E-01
          1   -1    0    0  502    0  0.00000000000E+00  0.00000000000E+00  0.10451449709E+03  0.10451449709E+03  0.00000000000E+00 0.  1.
         13   -1    0    0    0    0 -0.00000000000E+00 -0.00000000000E+00 -0.10000000000E+04  0.10000000000E+04  0.00000000000E+00 0.  1.
    9000005    2    1    2  501    0 -0.50180344971E-04  0.62712067631E-04 -0.89548715269E+03  0.11045128454E+04  0.64656893284E+03 0.  0.
         13    1    3    3    0    0 -0.60276119425E+02 -0.26715951915E+03 -0.15431200981E+03  0.31435587415E+03  0.00000000000E+00 0.  1.
          1    1    3    3  501    0  0.60276069244E+02  0.26715958186E+03 -0.74117514289E+03  0.79015697120E+03  0.00000000000E+00 0.  1.
         21    1    1    2  502  501  0.50180344969E-04 -0.62712067644E-04  0.16497850503E-02  0.16517389572E-02  0.00000000000E+00 0.  1.
<mgrwt>
<rscale>  1 0.64656893E+03</rscale>
<asrwt>0</asrwt>
<pdfrwt beam="1">  1        1 0.38005352E+00 0.64656893E+03</pdfrwt>
<pdfrwt beam="2">0</pdfrwt>
<totfact> 0.16411150E+00</totfact>
</mgrwt>
</event>
<event>
 6    1  0.2558947E-003  0.6399783E+03  0.7818608E-02  0.9825768E-01
          1   -1    0    0  502    0  0.00000000000E+00  0.00000000000E+00  0.10239407576E+03  0.10239407576E+03  0.00000000000E+00 0.  1.
         13   -1    0    0    0    0 -0.00000000000E+00 -0.00000000000E+00 -0.10000000000E+04  0.10000000000E+04  0.00000000000E+00 0.  1.
    9000005    2    1    2  501    0  0.13807225343E-03 -0.35365464512E-04 -0.89760693758E+03  0.11023930524E+04  0.63997830250E+03 0.  0.
         13    1    3    3    0    0  0.29799104987E+03 -0.11658590192E+03 -0.44626969115E+03  0.54913347700E+03  0.00000000000E+00 0.  1.
          1    1    3    3  501    0 -0.29799091180E+03  0.11658586655E+03 -0.45133724644E+03  0.55325957544E+03  0.00000000000E+00 0.  1.
         21    1    1    2  502  501 -0.13807225342E-03  0.35365464507E-04  0.10133489464E-02  0.10233233851E-02  0.00000000000E+00 0. -1.
<mgrwt>
<rscale>  1 0.63997830E+03</rscale>
<asrwt>0</asrwt>
<pdfrwt beam="1">  1        1 0.37234288E+00 0.63997830E+03</pdfrwt>
<pdfrwt beam="2">0</pdfrwt>
<totfact> 0.17767375E+00</totfact>
</mgrwt>
</event>
<event>
 6    1  0.2558947E-003  0.6780418E+03  0.7818608E-02  0.9755538E-01
          1   -1    0    0  502    0  0.00000000000E+00  0.00000000000E+00  0.17124855597E+03  0.17124855597E+03  0.00000000000E+00 0.  1.
         13   -1    0    0    0    0 -0.00000000000E+00 -0.00000000000E+00 -0.10000000000E+04  0.10000000000E+04  0.00000000000E+00 0.  1.
    9000005    2    1    2  501    0 -0.12366316363E+02 -0.14031625471E+02 -0.88332754834E+03  0.11135565855E+04  0.67778381450E+03 0.  0.
         13    1    3    3    0    0  0.15825939025E+02 -0.78401084576E+02 -0.98594499967E+03  0.98918387208E+03  0.00000000000E+00 0.  1.
          1    1    3    3  501    0 -0.28192255388E+02  0.64369459105E+02  0.10261745133E+03  0.12437271344E+03  0.00000000000E+00 0.  1.
         21    1    1    2  502  501  0.12366316363E+02  0.14031625471E+02  0.54576104303E+02  0.57691970452E+02  0.00000000000E+00 0.  1.
<mgrwt>
<rscale>  1 0.67804182E+03</rscale>
<asrwt>0</asrwt>
<pdfrwt beam="1">  1        1 0.62272333E+00 0.67804182E+03</pdfrwt>
<pdfrwt beam="2">0</pdfrwt>
<totfact> 0.10610256E-01</totfact>
</mgrwt>
</event>
<event>
 6    1  0.2558947E-003  0.6616158E+03  0.7818608E-02  0.9785224E-01
          1   -1    0    0  502    0  0.00000000000E+00  0.00000000000E+00  0.10946994393E+03  0.10946994393E+03  0.00000000000E+00 0.  1.
         13   -1    0    0    0    0 -0.00000000000E+00 -0.00000000000E+00 -0.10000000000E+04  0.10000000000E+04  0.00000000000E+00 0.  1.
    9000005    2    1    2  501    0 -0.33734498043E-01  0.32612980153E-01 -0.89054833506E+03  0.11094195878E+04  0.66161581179E+03 0.  0.
         13    1    3    3    0    0  0.43905796806E+02 -0.32074231863E+03 -0.55920764283E+03  0.64615519943E+03  0.00000000000E+00 0.  1.
          3    1    3    3  501    0 -0.43939531304E+02  0.32077493161E+03 -0.33134069223E+03  0.46326438832E+03  0.00000000000E+00 0.  1.
         21    1    1    2  502  501  0.33734498043E-01 -0.32612980153E-01  0.18278985028E-01  0.50356172674E-01  0.00000000000E+00 0. -1.
<mgrwt>
<rscale>  1 0.66161581E+03</rscale>
<asrwt>0</asrwt>
<pdfrwt beam="1">  1        1 0.39807336E+00 0.66161581E+03</pdfrwt>
<pdfrwt beam="2">0</pdfrwt>
<totfact> 0.13615978E+00</totfact>
</mgrwt>
</event>
<event>
 6    1  0.2558947E-003  0.5879116E+03  0.7818608E-02  0.9930808E-01
          3   -1    0    0  502    0  0.00000000000E+00  0.00000000000E+00  0.93946280589E+02  0.93946280589E+02  0.00000000000E+00 0.  1.
         13   -1    0    0    0    0 -0.00000000000E+00 -0.00000000000E+00 -0.10000000000E+04  0.10000000000E+04  0.00000000000E+00 0.  1.
    9000005    2    1    2  501    0 -0.50692270254E+01 -0.17442046499E+01 -0.91254255670E+03  0.10855293737E+04  0.58788720348E+03 0.  0.
         13    1    3    3    0    0  0.25237865288E+02  0.21213140207E+03 -0.82540837187E+03  0.85260522045E+03  0.00000000000E+00 0.  1.
          1    1    3    3  501    0 -0.30307092313E+02 -0.21387560672E+03 -0.87134184837E+02  0.23292415323E+03  0.00000000000E+00 0.  1.
         21    1    1    2  502  501  0.50692270254E+01  0.17442046499E+01  0.64888372930E+01  0.84169069088E+01  0.00000000000E+00 0. -1.
<mgrwt>
<rscale>  1 0.58791165E+03</rscale>
<asrwt>0</asrwt>
<pdfrwt beam="1">  1        3 0.34162356E+00 0.58791165E+03</pdfrwt>
<pdfrwt beam="2">0</pdfrwt>
<totfact> 0.12189188E-01</totfact>
</mgrwt>
</event>
<event>
 6    1  0.2558947E-003  0.6500018E+03  0.7818608E-02  0.9806776E-01
          1   -1    0    0  502    0  0.00000000000E+00  0.00000000000E+00  0.10562582245E+03  0.10562582245E+03  0.00000000000E+00 0.  1.
         13   -1    0    0    0    0 -0.00000000000E+00 -0.00000000000E+00 -0.10000000000E+04  0.10000000000E+04  0.00000000000E+00 0.  1.
    9000005    2    1    2  501    0 -0.50090959903E-04 -0.13626984935E-03 -0.89437440013E+03  0.11056255567E+04  0.65000177234E+03 0.  0.
         13    1    3    3    0    0  0.64261524005E+02  0.23839592251E+03 -0.80666264887E+03  0.84360345448E+03  0.00000000000E+00 0.  1.
          3    1    3    3  501    0 -0.64261574096E+02 -0.23839605878E+03 -0.87711751256E+02  0.26202210222E+03  0.00000000000E+00 0.  1.
         21    1    1    2  502  501  0.50090959905E-04  0.13626984935E-03  0.22258103340E-03  0.26574591725E-03  0.00000000000E+00 0.  1.
<mgrwt>
<rscale>  1 0.65000177E+03</rscale>
<asrwt>0</asrwt>
<pdfrwt beam="1">  1        1 0.38409471E+00 0.65000177E+03</pdfrwt>
<pdfrwt beam="2">0</pdfrwt>
<totfact> 0.15740390E+00</totfact>
</mgrwt>
</event>
<event>
 6    1  0.2558947E-003  0.6304098E+03  0.7818608E-02  0.9844249E-01
          1   -1    0    0  502    0  0.00000000000E+00  0.00000000000E+00  0.99982278051E+02  0.99982278051E+02  0.00000000000E+00 0.  1.
         13   -1    0    0    0    0 -0.00000000000E+00 -0.00000000000E+00 -0.10000000000E+04  0.10000000000E+04  0.00000000000E+00 0.  1.
    9000005    2    1    2  501    0 -0.95552568174E+00 -0.33889055239E-01 -0.90021975433E+03  0.10990050397E+04  0.63040903938E+03 0.  0.
         13    1    3    3    0    0  0.19315437464E+03  0.19384529069E+03 -0.17804240810E+03  0.32647160404E+03  0.00000000000E+00 0.  1.
          1    1    3    3  501    0 -0.19410990032E+03 -0.19387917974E+03 -0.72217734623E+03  0.77253343561E+03  0.00000000000E+00 0.  1.
         21    1    1    2  502  501  0.95552568174E+00  0.33889055239E-01  0.20203237744E+00  0.97723839367E+00  0.00000000000E+00 0. -1.
<mgrwt>
<rscale>  1 0.63040976E+03</rscale>
<asrwt>0</asrwt>
<pdfrwt beam="1">  1        1 0.36357269E+00 0.63040976E+03</pdfrwt>
<pdfrwt beam="2">0</pdfrwt>
<totfact> 0.19447409E+00</totfact>
</mgrwt>
</event>
<event>
 6    1  0.2558947E-003  0.6544811E+03  0.7818608E-02  0.9798407E-01
          1   -1    0    0  502    0  0.00000000000E+00  0.00000000000E+00  0.10713464648E+03  0.10713464648E+03  0.00000000000E+00 0.  1.
         13   -1    0    0    0    0 -0.00000000000E+00 -0.00000000000E+00 -0.10000000000E+04  0.10000000000E+04  0.00000000000E+00 0.  1.
    9000005    2    1    2  501    0 -0.21219062241E-01 -0.54810577386E-02 -0.89291086398E+03  0.11070841342E+04  0.65448106821E+03 0.  0.
         13    1    3    3    0    0 -0.27470270463E+03  0.10729197569E+03 -0.20653834847E+03  0.36004337706E+03  0.00000000000E+00 0.  1.
          1    1    3    3  501    0  0.27468148557E+03 -0.10729745675E+03 -0.68637251551E+03  0.74704075711E+03  0.00000000000E+00 0.  1.
         21    1    1    2  502  501  0.21219062241E-01  0.54810577386E-02  0.45510468340E-01  0.50512308646E-01  0.00000000000E+00 0.  1.
<mgrwt>
<rscale>  1 0.65448107E+03</rscale>
<asrwt>0</asrwt>
<pdfrwt beam="1">  1        1 0.38958135E+00 0.65448107E+03</pdfrwt>
<pdfrwt beam="2">0</pdfrwt>
<totfact> 0.14871811E+00</totfact>
</mgrwt>
</event>
<event>
 6    1  0.2558947E-003  0.6465680E+03  0.7818608E-02  0.9813240E-01
          1   -1    0    0  502    0  0.00000000000E+00  0.00000000000E+00  0.10451256307E+03  0.10451256307E+03  0.00000000000E+00 0.  1.
         13   -1    0    0    0    0 -0.00000000000E+00 -0.00000000000E+00 -0.10000000000E+04  0.10000000000E+04  0.00000000000E+00 0.  1.
    9000005    2    1    2  501    0 -0.23881794959E-05  0.72004019103E-06 -0.89548743875E+03  0.11045125600E+04  0.64656804916E+03 0.  0.
         13    1    3    3    0    0 -0.30970518416E+03 -0.61912689080E+02 -0.32985975968E+03  0.45668144610E+03  0.00000000000E+00 0.  1.
          3    1    3    3  501    0  0.30970518177E+03  0.61912689800E+02 -0.56562767908E+03  0.64783111388E+03  0.00000000000E+00 0.  1.
         21    1    1    2  502  501  0.23881795089E-05 -0.72004019389E-06  0.18240173409E-05  0.30901292056E-05  0.00000000000E+00 0. -1.
<mgrwt>
<rscale>  1 0.64656805E+03</rscale>
<asrwt>0</asrwt>
<pdfrwt beam="1">  1        1 0.38004649E+00 0.64656805E+03</pdfrwt>
<pdfrwt beam="2">0</pdfrwt>
<totfact> 0.16412325E+00</totfact>
</mgrwt>
</event>
<event>
 6    1  0.2558947E-003  0.6548898E+03  0.7818608E-02  0.9797647E-01
          1   -1    0    0  502    0  0.00000000000E+00  0.00000000000E+00  0.10722016614E+03  0.10722016614E+03  0.00000000000E+00 0.  1.
         13   -1    0    0    0    0 -0.00000000000E+00 -0.00000000000E+00 -0.10000000000E+04  0.10000000000E+04  0.00000000000E+00 0.  1.
    9000005    2    1    2  501    0 -0.57205175210E-05 -0.80094799273E-05 -0.89277982510E+03  0.11072201530E+04  0.65488980066E+03 0.  0.
         13    1    3    3    0    0  0.14613889254E+03 -0.28929744279E+03 -0.52515857345E+03  0.61712325640E+03  0.00000000000E+00 0.  1.
          1    1    3    3  501    0 -0.14613889826E+03  0.28929743478E+03 -0.36762125165E+03  0.49009689656E+03  0.00000000000E+00 0.  1.
         21    1    1    2  502  501  0.57205175423E-05  0.80094799164E-05 -0.87625541336E-05  0.13177952968E-04  0.00000000000E+00 0. -1.
<mgrwt>
<rscale>  1 0.65488980E+03</rscale>
<asrwt>0</asrwt>
<pdfrwt beam="1">  1        1 0.38989234E+00 0.65488980E+03</pdfrwt>
<pdfrwt beam="2">0</pdfrwt>
<totfact> 0.14823542E+00</totfact>
</mgrwt>
</event>
<event>
 6    1  0.2558947E-003  0.6573416E+03  0.7818608E-02  0.9793100E-01
          1   -1    0    0  502    0  0.00000000000E+00  0.00000000000E+00  0.10802496429E+03  0.10802496429E+03  0.00000000000E+00 0.  1.
         13   -1    0    0    0    0 -0.00000000000E+00 -0.00000000000E+00 -0.10000000000E+04  0.10000000000E+04  0.00000000000E+00 0.  1.
    9000005    2    1    2  501    0 -0.11319573808E-04 -0.99583994178E-04 -0.89197550526E+03  0.11080244842E+04  0.65734158207E+03 0.  0.
         13    1    3    3    0    0 -0.63544208408E+02 -0.45256281613E+02  0.92192000328E+02  0.12076987361E+03  0.00000000000E+00 0.  1.
          1    1    3    3  501    0  0.63544197088E+02  0.45256182029E+02 -0.98416750559E+03  0.98725461055E+03  0.00000000000E+00 0.  1.
         21    1    1    2  502  501  0.11319573809E-04  0.99583994180E-04  0.46954919978E-03  0.48012660378E-03  0.00000000000E+00 0. -1.
<mgrwt>
<rscale>  1 0.65734158E+03</rscale>
<asrwt>0</asrwt>
<pdfrwt beam="1">  1        1 0.39281888E+00 0.65734158E+03</pdfrwt>
<pdfrwt beam="2">0</pdfrwt>
<totfact> 0.14380245E+00</totfact>
</mgrwt>
</event>
<event>
 6    1  0.2558947E-003  0.6461200E+03  0.7818608E-02  0.9814087E-01
          1   -1    0    0  502    0  0.00000000000E+00  0.00000000000E+00  0.10441672595E+03  0.10441672595E+03  0.00000000000E+00 0.  1.
         13   -1    0    0    0    0 -0.00000000000E+00 -0.00000000000E+00 -0.10000000000E+04  0.10000000000E+04  0.00000000000E+00 0.  1.
    9000005    2    1    2  501    0 -0.39329157816E-03  0.60478362244E-03 -0.89563224392E+03  0.11043677508E+04  0.64611996765E+03 0.  0.
         13    1    3    3    0    0  0.10079012008E+03 -0.19667052732E+03 -0.85059125932E+03  0.87883072037E+03  0.00000000000E+00 0.  1.
          3    1    3    3  501    0 -0.10079051337E+03  0.19667113211E+03 -0.45040984593E+02  0.22553703040E+03  0.00000000000E+00 0.  1.
         21    1    1    2  502  501  0.39329157816E-03 -0.60478362244E-03  0.48969863989E-01  0.48975177597E-01  0.00000000000E+00 0. -1.
<mgrwt>
<rscale>  1 0.64611997E+03</rscale>
<asrwt>0</asrwt>
<pdfrwt beam="1">  1        1 0.37969799E+00 0.64611997E+03</pdfrwt>
<pdfrwt beam="2">0</pdfrwt>
<totfact> 0.16471890E+00</totfact>
</mgrwt>
</event>
<event>
 6    1  0.2558947E-003  0.6546963E+03  0.7818608E-02  0.9798007E-01
          1   -1    0    0  502    0  0.00000000000E+00  0.00000000000E+00  0.10723912495E+03  0.10723912495E+03  0.00000000000E+00 0.  1.
         13   -1    0    0    0    0 -0.00000000000E+00 -0.00000000000E+00 -0.10000000000E+04  0.10000000000E+04  0.00000000000E+00 0.  1.
    9000005    2    1    2  501    0 -0.98939685117E-01  0.12018379708E-01 -0.89280836770E+03  0.11071287209E+04  0.65469627559E+03 0.  0.
         13    1    3    3    0    0 -0.27186281558E+03 -0.13601984181E+03 -0.24093055708E+03  0.38788957346E+03  0.00000000000E+00 0.  1.
          1    1    3    3  501    0  0.27176387590E+03  0.13603186019E+03 -0.65187781062E+03  0.71923914744E+03  0.00000000000E+00 0.  1.
         21    1    1    2  502  501  0.98939685117E-01 -0.12018379708E-01  0.47492647656E-01  0.11040405030E+00  0.00000000000E+00 0. -1.
<mgrwt>
<rscale>  1 0.65469628E+03</rscale>
<asrwt>0</asrwt>
<pdfrwt beam="1">  1        1 0.38996128E+00 0.65469628E+03</pdfrwt>
<pdfrwt beam="2">0</pdfrwt>
<totfact> 0.14813642E+00</totfact>
</mgrwt>
</event>
<event>
 6    1  0.2558947E-003  0.6747615E+03  0.7818608E-02  0.9761394E-01
          1   -1    0    0  502    0  0.00000000000E+00  0.00000000000E+00  0.11382625618E+03  0.11382625618E+03  0.00000000000E+00 0.  1.
         13   -1    0    0    0    0 -0.00000000000E+00 -0.00000000000E+00 -0.10000000000E+04  0.10000000000E+04  0.00000000000E+00 0.  1.
    9000005    2    1    2  501    0 -0.15056293079E-04  0.21686885304E-04 -0.88617422093E+03  0.11138257783E+04  0.67476152429E+03 0.  0.
         13    1    3    3    0    0 -0.21278358237E+01 -0.30119028571E+03 -0.69400179955E+03  0.75654386104E+03  0.00000000000E+00 0.  1.
          3    1    3    3  501    0  0.21278207674E+01  0.30119030740E+03 -0.19217242138E+03  0.35728191730E+03  0.00000000000E+00 0.  1.
         21    1    1    2  502  501  0.15056293079E-04 -0.21686885301E-04  0.47711230476E-03  0.47784219604E-03  0.00000000000E+00 0. -1.
<mgrwt>
<rscale>  1 0.67476152E+03</rscale>
<asrwt>0</asrwt>
<pdfrwt beam="1">  1        1 0.41391453E+00 0.67476152E+03</pdfrwt>
<pdfrwt beam="2">0</pdfrwt>
<totfact> 0.11536720E+00</totfact>
</mgrwt>
</event>
<event>
 6    1  0.2558947E-003  0.6583373E+03  0.7818608E-02  0.9791259E-01
          1   -1    0    0  502    0  0.00000000000E+00  0.00000000000E+00  0.10836131850E+03  0.10836131850E+03  0.00000000000E+00 0.  1.
         13   -1    0    0    0    0 -0.00000000000E+00 -0.00000000000E+00 -0.10000000000E+04  0.10000000000E+04  0.00000000000E+00 0.  1.
    9000005    2    1    2  501    0  0.49435495104E-02  0.50967363797E-02 -0.89164647974E+03  0.11083507720E+04  0.65833729120E+03 0.  0.
         13    1    3    3    0    0 -0.19733674756E+03 -0.19223495053E+03 -0.74911244449E+03  0.79816384448E+03  0.00000000000E+00 0.  1.
          1    1    3    3  501    0  0.19734169111E+03  0.19224004726E+03 -0.14253403525E+03  0.31018692756E+03  0.00000000000E+00 0.  1.
         21    1    1    2  502  501 -0.49435495104E-02 -0.50967363797E-02  0.77982352122E-02  0.10546462720E-01  0.00000000000E+00 0.  1.
<mgrwt>
<rscale>  1 0.65833729E+03</rscale>
<asrwt>0</asrwt>
<pdfrwt beam="1">  1        1 0.39404199E+00 0.65833729E+03</pdfrwt>
<pdfrwt beam="2">0</pdfrwt>
<totfact> 0.14198799E+00</totfact>
</mgrwt>
</event>
<event>
 6    1  0.2558947E-003  0.6550090E+03  0.7818608E-02  0.9797425E-01
          1   -1    0    0  502    0  0.00000000000E+00  0.00000000000E+00  0.10725924924E+03  0.10725924924E+03  0.00000000000E+00 0.  1.
         13   -1    0    0    0    0 -0.00000000000E+00 -0.00000000000E+00 -0.10000000000E+04  0.10000000000E+04  0.00000000000E+00 0.  1.
    9000005    2    1    2  501    0  0.74302704604E-04 -0.81580306727E-04 -0.89274065681E+03  0.11072591043E+04  0.65500904098E+03 0.  0.
         13    1    3    3    0    0 -0.24584839298E+03  0.20967738921E+03 -0.53666514594E+03  0.62643077730E+03  0.00000000000E+00 0.  1.
          1    1    3    3  501    0  0.24584846728E+03 -0.20967747079E+03 -0.35607551087E+03  0.48082832702E+03  0.00000000000E+00 0.  1.
         21    1    1    2  502  501 -0.74302704600E-04  0.81580306741E-04 -0.93950599358E-04  0.14492395757E-03  0.00000000000E+00 0.  1.
<mgrwt>
<rscale>  1 0.65500904E+03</rscale>
<asrwt>0</asrwt>
<pdfrwt beam="1">  1        1 0.39003446E+00 0.65500904E+03</pdfrwt>
<pdfrwt beam="2">0</pdfrwt>
<totfact> 0.14801718E+00</totfact>
</mgrwt>
</event>
<event>
 6    1  0.2558947E-003  0.6558668E+03  0.7818608E-02  0.9795832E-01
          1   -1    0    0  502    0  0.00000000000E+00  0.00000000000E+00  0.10780405348E+03  0.10780405348E+03  0.00000000000E+00 0.  1.
         13   -1    0    0    0    0 -0.00000000000E+00 -0.00000000000E+00 -0.10000000000E+04  0.10000000000E+04  0.00000000000E+00 0.  1.
    9000005    2    1    2  501    0  0.64632280349E-01  0.32118824898E-01 -0.89245420572E+03  0.11075358991E+04  0.65586679538E+03 0.  0.
         13    1    3    3    0    0  0.28042271039E+03 -0.14067185837E+03 -0.28491583077E+03  0.42379535021E+03  0.00000000000E+00 0.  1.
          3    1    3    3  501    0 -0.28035807811E+03  0.14070397719E+03 -0.60753837496E+03  0.68374054890E+03  0.00000000000E+00 0.  1.
         21    1    1    2  502  501 -0.64632280349E-01 -0.32118824898E-01  0.25825920281E+00  0.26815437049E+00  0.00000000000E+00 0. -1.
<mgrwt>
<rscale>  1 0.65586680E+03</rscale>
<asrwt>0</asrwt>
<pdfrwt beam="1">  1        1 0.39201557E+00 0.65586680E+03</pdfrwt>
<pdfrwt beam="2">0</pdfrwt>
<totfact> 0.14502820E+00</totfact>
</mgrwt>
</event>
<event>
 6    1  0.2558947E-003  0.6453004E+03  0.7818608E-02  0.9815638E-01
          1   -1    0    0  502    0  0.00000000000E+00  0.00000000000E+00  0.10410477518E+03  0.10410477518E+03  0.00000000000E+00 0.  1.
         13   -1    0    0    0    0 -0.00000000000E+00 -0.00000000000E+00 -0.10000000000E+04  0.10000000000E+04  0.00000000000E+00 0.  1.
    9000005    2    1    2  501    0  0.22667046451E-04 -0.24992192220E-03 -0.89589682368E+03  0.11041031567E+04  0.64530044325E+03 0.  0.
         13    1    3    3    0    0  0.11487029847E+03 -0.26776222155E+03 -0.21079607996E+03  0.35962032769E+03  0.00000000000E+00 0.  1.
          1    1    3    3  501    0 -0.11487027581E+03  0.26776197163E+03 -0.68510074372E+03  0.74448282906E+03  0.00000000000E+00 0.  1.
         21    1    1    2  502  501 -0.22667046458E-04  0.24992192219E-03  0.15988600538E-02  0.16184338830E-02  0.00000000000E+00 0. -1.
<mgrwt>
<rscale>  1 0.64530044E+03</rscale>
<asrwt>0</asrwt>
<pdfrwt beam="1">  1        1 0.37856362E+00 0.64530044E+03</pdfrwt>
<pdfrwt beam="2">0</pdfrwt>
<totfact> 0.16665249E+00</totfact>
</mgrwt>
</event>
<event>
 6    1  0.2558947E-003  0.6533434E+03  0.7818608E-02  0.9800526E-01
          1   -1    0    0  502    0  0.00000000000E+00  0.00000000000E+00  0.13532468042E+03  0.13532468042E+03  0.00000000000E+00 0.  1.
         13   -1    0    0    0    0 -0.00000000000E+00 -0.00000000000E+00 -0.10000000000E+04  0.10000000000E+04  0.00000000000E+00 0.  1.
    9000005    2    1    2  501    0  0.16141348439E+02 -0.15874599380E+02 -0.88824064552E+03  0.11026463907E+04  0.65295104904E+03 0.  0.
         13    1    3    3    0    0  0.25399028423E+03  0.19965828954E+03 -0.35285373686E+03  0.47841431488E+03  0.00000000000E+00 0.  1.
          3    1    3    3  501    0 -0.23784893579E+03 -0.21553288892E+03 -0.53538690866E+03  0.62423207578E+03  0.00000000000E+00 0.  1.
         21    1    1    2  502  501 -0.16141348439E+02  0.15874599380E+02  0.23565325939E+02  0.32678289758E+02  0.00000000000E+00 0.  1.
<mgrwt>
<rscale>  1 0.65334342E+03</rscale>
<asrwt>0</asrwt>
<pdfrwt beam="1">  1        1 0.49209078E+00 0.65334342E+03</pdfrwt>
<pdfrwt beam="2">0</pdfrwt>
<totfact> 0.50414254E-01</totfact>
</mgrwt>
</event>
<event>
 6    1  0.2558947E-003  0.6510478E+03  0.7818608E-02  0.9804815E-01
          1   -1    0    0  502    0  0.00000000000E+00  0.00000000000E+00  0.10598910495E+03  0.10598910495E+03  0.00000000000E+00 0.  1.
         13   -1    0    0    0    0 -0.00000000000E+00 -0.00000000000E+00 -0.10000000000E+04  0.10000000000E+04  0.00000000000E+00 0.  1.
    9000005    2    1    2  501    0 -0.38243598362E-03  0.32636037284E-03 -0.89403417933E+03  0.11059658152E+04  0.65104782517E+03 0.  0.
         13    1    3    3    0    0 -0.25507646684E+03  0.12835154047E+02 -0.78988317844E+03  0.83014708378E+03  0.00000000000E+00 0.  1.
          3    1    3    3  501    0  0.25507608441E+03 -0.12834827687E+02 -0.10415100089E+03  0.27581873146E+03  0.00000000000E+00 0.  1.
         21    1    1    2  502  501  0.38243598365E-03 -0.32636037284E-03  0.23284278569E-01  0.23289705813E-01  0.00000000000E+00 0.  1.
<mgrwt>
<rscale>  1 0.65104783E+03</rscale>
<asrwt>0</asrwt>
<pdfrwt beam="1">  1        1 0.38541574E+00 0.65104783E+03</pdfrwt>
<pdfrwt beam="2">0</pdfrwt>
<totfact> 0.15527055E+00</totfact>
</mgrwt>
</event>
<event>
 6    1  0.2558947E-003  0.6597934E+03  0.7818608E-02  0.9788574E-01
          1   -1    0    0  502    0  0.00000000000E+00  0.00000000000E+00  0.11515299648E+03  0.11515299648E+03  0.00000000000E+00 0.  1.
         13   -1    0    0    0    0 -0.00000000000E+00 -0.00000000000E+00 -0.10000000000E+04  0.10000000000E+04  0.00000000000E+00 0.  1.
    9000005    2    1    2  501    0 -0.82275936965E+01  0.77985073736E+01 -0.88492014644E+03  0.11038165347E+04  0.65969596537E+03 0.  0.
         13    1    3    3    0    0  0.31649329152E+03  0.56473897174E+02 -0.34243858951E+03  0.46970362169E+03  0.00000000000E+00 0.  1.
          3    1    3    3  501    0 -0.32472088522E+03 -0.48675389800E+02 -0.54248155693E+03  0.63411291303E+03  0.00000000000E+00 0.  1.
         21    1    1    2  502  501  0.82275936965E+01 -0.77985073736E+01  0.73142922581E-01  0.11336461757E+02  0.00000000000E+00 0. -1.
<mgrwt>
<rscale>  1 0.65979336E+03</rscale>
<asrwt>0</asrwt>
<pdfrwt beam="1">  1        1 0.41873905E+00 0.65979336E+03</pdfrwt>
<pdfrwt beam="2">0</pdfrwt>
<totfact> 0.11005444E+00</totfact>
</mgrwt>
</event>
<event>
 6    1  0.2558947E-003  0.6510562E+03  0.7818608E-02  0.9804799E-01
          1   -1    0    0  502    0  0.00000000000E+00  0.00000000000E+00  0.10596861631E+03  0.10596861631E+03  0.00000000000E+00 0.  1.
         13   -1    0    0    0    0 -0.00000000000E+00 -0.00000000000E+00 -0.10000000000E+04  0.10000000000E+04  0.00000000000E+00 0.  1.
    9000005    2    1    2  501    0 -0.27719831223E-04  0.12050430996E-04 -0.89403143621E+03  0.11059685557E+04  0.65105624741E+03 0.  0.
         13    1    3    3    0    0  0.14514283055E+03 -0.21906495091E+03 -0.12064442585E+03  0.28915561807E+03  0.00000000000E+00 0.  1.
          1    1    3    3  501    0 -0.14514285827E+03  0.21906496296E+03 -0.77338701036E+03  0.81681293764E+03  0.00000000000E+00 0.  1.
         21    1    1    2  502  501  0.27719831226E-04 -0.12050431009E-04  0.52517539913E-04  0.60594504117E-04  0.00000000000E+00 0.  1.
<mgrwt>
<rscale>  1 0.65105625E+03</rscale>
<asrwt>0</asrwt>
<pdfrwt beam="1">  1        1 0.38534124E+00 0.65105625E+03</pdfrwt>
<pdfrwt beam="2">0</pdfrwt>
<totfact> 0.15538820E+00</totfact>
</mgrwt>
</event>
<event>
 6    1  0.2558947E-003  0.6367817E+03  0.7818608E-02  0.9831903E-01
          1   -1    0    0  502    0  0.00000000000E+00  0.00000000000E+00  0.10460824759E+03  0.10460824759E+03  0.00000000000E+00 0.  1.
         13   -1    0    0    0    0 -0.00000000000E+00 -0.00000000000E+00 -0.10000000000E+04  0.10000000000E+04  0.00000000000E+00 0.  1.
    9000005    2    1    2  501    0  0.66937962314E-01 -0.44837546406E-01 -0.89862671388E+03  0.11013722830E+04  0.63678169601E+03 0.  0.
         13    1    3    3    0    0 -0.85370383129E+02  0.20621165585E+03 -0.84196385213E+03  0.87104217901E+03  0.00000000000E+00 0.  1.
          3    1    3    3  501    0  0.85437321091E+02 -0.20625649339E+03 -0.56662861748E+02  0.23033010399E+03  0.00000000000E+00 0.  1.
         21    1    1    2  502  501 -0.66937962314E-01  0.44837546406E-01  0.32349614672E+01  0.32359645843E+01  0.00000000000E+00 0.  1.
<mgrwt>
<rscale>  1 0.63678170E+03</rscale>
<asrwt>0</asrwt>
<pdfrwt beam="1">  1        1 0.38039443E+00 0.63678170E+03</pdfrwt>
<pdfrwt beam="2">0</pdfrwt>
<totfact> 0.16384060E+00</totfact>
</mgrwt>
</event>
<event>
 6    1  0.2558947E-003  0.6518833E+03  0.7818608E-02  0.9803252E-01
          1   -1    0    0  502    0  0.00000000000E+00  0.00000000000E+00  0.10630146725E+03  0.10630146725E+03  0.00000000000E+00 0.  1.
         13   -1    0    0    0    0 -0.00000000000E+00 -0.00000000000E+00 -0.10000000000E+04  0.10000000000E+04  0.00000000000E+00 0.  1.
    9000005    2    1    2  501    0  0.14682951880E-02  0.51200651024E-02 -0.89376191117E+03  0.11062378654E+04  0.65188331851E+03 0.  0.
         13    1    3    3    0    0  0.11205976087E+02  0.16274504231E+03 -0.92574391671E+03  0.94000708616E+03  0.00000000000E+00 0.  1.
          3    1    3    3  501    0 -0.11204507792E+02 -0.16273992225E+03  0.31982005541E+02  0.16623077924E+03  0.00000000000E+00 0.  1.
         21    1    1    2  502  501 -0.14682951880E-02 -0.51200651024E-02  0.63378419064E-01  0.63601847146E-01  0.00000000000E+00 0.  1.
<mgrwt>
<rscale>  1 0.65188332E+03</rscale>
<asrwt>0</asrwt>
<pdfrwt beam="1">  1        1 0.38655161E+00 0.65188332E+03</pdfrwt>
<pdfrwt beam="2">0</pdfrwt>
<totfact> 0.15346004E+00</totfact>
</mgrwt>
</event>
<event>
 6    1  0.2558947E-003  0.6294777E+03  0.7818608E-02  0.9846069E-01
          1   -1    0    0  502    0  0.00000000000E+00  0.00000000000E+00  0.10416505456E+03  0.10416505456E+03  0.00000000000E+00 0.  1.
         13   -1    0    0    0    0 -0.00000000000E+00 -0.00000000000E+00 -0.10000000000E+04  0.10000000000E+04  0.00000000000E+00 0.  1.
    9000005    2    1    2  501    0 -0.28589492663E-02 -0.11134732863E+00 -0.90093878346E+03  0.10990600013E+04  0.62947770610E+03 0.  0.
         13    1    3    3    0    0  0.23467617474E+03  0.93572187376E+02 -0.77811711827E+03  0.81810446215E+03  0.00000000000E+00 0.  1.
          3    1    3    3  501    0 -0.23467903369E+03 -0.93683534705E+02 -0.12282166519E+03  0.28095553913E+03  0.00000000000E+00 0.  1.
         21    1    1    2  502  501  0.28589492663E-02  0.11134732863E+00  0.51038380229E+01  0.51050532774E+01  0.00000000000E+00 0.  1.
<mgrwt>
<rscale>  1 0.62947772E+03</rscale>
<asrwt>0</asrwt>
<pdfrwt beam="1">  1        1 0.37878282E+00 0.62947772E+03</pdfrwt>
<pdfrwt beam="2">0</pdfrwt>
<totfact> 0.16677108E+00</totfact>
</mgrwt>
</event>
<event>
 6    1  0.2558947E-003  0.6393809E+03  0.7818608E-02  0.9826912E-01
          1   -1    0    0  502    0  0.00000000000E+00  0.00000000000E+00  0.10220288864E+03  0.10220288864E+03  0.00000000000E+00 0.  1.
         13   -1    0    0    0    0 -0.00000000000E+00 -0.00000000000E+00 -0.10000000000E+04  0.10000000000E+04  0.00000000000E+00 0.  1.
    9000005    2    1    2  501    0 -0.14396837286E-02  0.35497738470E-03 -0.89779728997E+03  0.11022013951E+04  0.63938090488E+03 0.  0.
         13    1    3    3    0    0 -0.19833651611E+03  0.35016454412E+02 -0.20914610063E+02  0.20248690480E+03  0.00000000000E+00 0.  1.
          3    1    3    3  501    0  0.19833507643E+03 -0.35016099435E+02 -0.87688267991E+03  0.89971449032E+03  0.00000000000E+00 0.  1.
         21    1    1    2  502  501  0.14396837286E-02 -0.35497738469E-03  0.17861901113E-03  0.14935203156E-02  0.00000000000E+00 0.  1.
<mgrwt>
<rscale>  1 0.63938090E+03</rscale>
<asrwt>0</asrwt>
<pdfrwt beam="1">  1        1 0.37164765E+00 0.63938090E+03</pdfrwt>
<pdfrwt beam="2">0</pdfrwt>
<totfact> 0.17894793E+00</totfact>
</mgrwt>
</event>
<event>
 6    1  0.2558947E-003  0.5658541E+03  0.7818608E-02  0.9978895E-01
          1   -1    0    0  502    0  0.00000000000E+00  0.00000000000E+00  0.83477074515E+02  0.83477074515E+02  0.00000000000E+00 0.  1.
         13   -1    0    0    0    0 -0.00000000000E+00 -0.00000000000E+00 -0.10000000000E+04  0.10000000000E+04  0.00000000000E+00 0.  1.
    9000005    2    1    2  501    0 -0.15774868084E+01 -0.17308136592E+01 -0.91951637153E+03  0.10796764299E+04  0.56584923037E+03 0.  0.
         13    1    3    3    0    0 -0.61777678819E+02 -0.21741111404E+03 -0.13375227645E+03  0.26262853151E+03  0.00000000000E+00 0.  1.
          3    1    3    3  501    0  0.60200192010E+02  0.21568030038E+03 -0.78576409508E+03  0.81704789836E+03  0.00000000000E+00 0.  1.
         21    1    1    2  502  501  0.15774868084E+01  0.17308136592E+01  0.29934460436E+01  0.38006446519E+01  0.00000000000E+00 0.  1.
<mgrwt>
<rscale>  1 0.56585408E+03</rscale>
<asrwt>0</asrwt>
<pdfrwt beam="1">  1        1 0.30355364E+00 0.56585408E+03</pdfrwt>
<pdfrwt beam="2">0</pdfrwt>
<totfact> 0.35835267E+00</totfact>
</mgrwt>
</event>
<event>
 6    1  0.2558947E-003  0.6136392E+03  0.7818608E-02  0.9877506E-01
          1   -1    0    0  502    0  0.00000000000E+00  0.00000000000E+00  0.94138284573E+02  0.94138284573E+02  0.00000000000E+00 0.  1.
         13   -1    0    0    0    0 -0.00000000000E+00 -0.00000000000E+00 -0.10000000000E+04  0.10000000000E+04  0.00000000000E+00 0.  1.
    9000005    2    1    2  501    0 -0.56382340645E-05  0.35947748245E-05 -0.90586172823E+03  0.10941382701E+04  0.61363921279E+03 0.  0.
         13    1    3    3    0    0  0.61783957243E+02 -0.69564714425E+02 -0.97424060479E+03  0.97867321558E+03  0.00000000000E+00 0.  1.
          1    1    3    3  501    0 -0.61783962881E+02  0.69564718020E+02  0.68378876558E+02  0.11546505455E+03  0.00000000000E+00 0.  1.
         21    1    1    2  502  501  0.56382340663E-05 -0.35947748253E-05  0.12806223962E-04  0.14446849539E-04  0.00000000000E+00 0. -1.
<mgrwt>
<rscale>  1 0.61363921E+03</rscale>
<asrwt>0</asrwt>
<pdfrwt beam="1">  1        1 0.34232176E+00 0.61363921E+03</pdfrwt>
<pdfrwt beam="2">0</pdfrwt>
<totfact> 0.24147291E+00</totfact>
</mgrwt>
</event>
<event>
 6    1  0.2558947E-003  0.6494884E+03  0.7818608E-02  0.9807740E-01
          1   -1    0    0  502    0  0.00000000000E+00  0.00000000000E+00  0.10791907070E+03  0.10791907070E+03  0.00000000000E+00 0.  1.
         13   -1    0    0    0    0 -0.00000000000E+00 -0.00000000000E+00 -0.10000000000E+04  0.10000000000E+04  0.00000000000E+00 0.  1.
    9000005    2    1    2  501    0  0.68407900960E-01 -0.39833118446E-01 -0.89454049526E+03  0.11054582312E+04  0.64948841175E+03 0.  0.
         13    1    3    3    0    0 -0.48060815548E+02  0.17776406520E+03  0.79922730518E+01  0.18431978000E+03  0.00000000000E+00 0.  1.
          3    1    3    3  501    0  0.48129223449E+02 -0.17780389832E+03 -0.90253276831E+03  0.92113845121E+03  0.00000000000E+00 0.  1.
         21    1    1    2  502  501 -0.68407900960E-01  0.39833118446E-01  0.24595659661E+01  0.24608395030E+01  0.00000000000E+00 0.  1.
<mgrwt>
<rscale>  1 0.64948842E+03</rscale>
<asrwt>0</asrwt>
<pdfrwt beam="1">  1        1 0.39243381E+00 0.64948842E+03</pdfrwt>
<pdfrwt beam="2">0</pdfrwt>
<totfact> 0.14458159E+00</totfact>
</mgrwt>
</event>
<event>
 6    1  0.2558947E-003  0.6654357E+03  0.7818608E-02  0.9778239E-01
          1   -1    0    0  502    0  0.00000000000E+00  0.00000000000E+00  0.11070575862E+03  0.11070575862E+03  0.00000000000E+00 0.  1.
         13   -1    0    0    0    0 -0.00000000000E+00 -0.00000000000E+00 -0.10000000000E+04  0.10000000000E+04  0.00000000000E+00 0.  1.
    9000005    2    1    2  501    0 -0.33965366061E-02  0.50528355044E-03 -0.88929809666E+03  0.11107005958E+04  0.66543572847E+03 0.  0.
         13    1    3    3    0    0  0.26789804459E+03  0.18345172793E+03 -0.32340284670E+03  0.45827208078E+03  0.00000000000E+00 0.  1.
          3    1    3    3  501    0 -0.26790144112E+03 -0.18345122265E+03 -0.56589524996E+03  0.65242851499E+03  0.00000000000E+00 0.  1.
         21    1    1    2  502  501  0.33965366062E-02 -0.50528355045E-03  0.38552768282E-02  0.51628414469E-02  0.00000000000E+00 0.  1.
<mgrwt>
<rscale>  1 0.66543573E+03</rscale>
<asrwt>0</asrwt>
<pdfrwt beam="1">  1        1 0.40256724E+00 0.66543573E+03</pdfrwt>
<pdfrwt beam="2">0</pdfrwt>
<totfact> 0.12992566E+00</totfact>
</mgrwt>
</event>
<event>
 6    1  0.2558947E-003  0.6449540E+03  0.7818608E-02  0.9816294E-01
          1   -1    0    0  502    0  0.00000000000E+00  0.00000000000E+00  0.10406321955E+03  0.10406321955E+03  0.00000000000E+00 0.  1.
         13   -1    0    0    0    0 -0.00000000000E+00 -0.00000000000E+00 -0.10000000000E+04  0.10000000000E+04  0.00000000000E+00 0.  1.
    9000005    2    1    2  501    0  0.29581068742E-01  0.22085837249E-01 -0.89600331581E+03  0.11039871290E+04  0.64495398099E+03 0.  0.
         13    1    3    3    0    0 -0.12898202789E+03 -0.23081331231E+03 -0.76394087943E+03  0.80840386931E+03  0.00000000000E+00 0.  1.
          1    1    3    3  501    0  0.12901160895E+03  0.23083539814E+03 -0.13206243638E+03  0.29558325965E+03  0.00000000000E+00 0.  1.
         21    1    1    2  502  501 -0.29581068742E-01 -0.22085837249E-01  0.66535356702E-01  0.76090587633E-01  0.00000000000E+00 0.  1.
<mgrwt>
<rscale>  1 0.64495398E+03</rscale>
<asrwt>0</asrwt>
<pdfrwt beam="1">  1        1 0.37841251E+00 0.64495398E+03</pdfrwt>
<pdfrwt beam="2">0</pdfrwt>
<totfact> 0.16691896E+00</totfact>
</mgrwt>
</event>
<event>
 6    1  0.2558947E-003  0.6030046E+03  0.7818608E-02  0.9899192E-01
          1   -1    0    0  502    0  0.00000000000E+00  0.00000000000E+00  0.90922695975E+02  0.90922695975E+02  0.00000000000E+00 0.  1.
         13   -1    0    0    0    0 -0.00000000000E+00 -0.00000000000E+00 -0.10000000000E+04  0.10000000000E+04  0.00000000000E+00 0.  1.
    9000005    2    1    2  501    0 -0.37903239502E-03 -0.27053619564E-03 -0.90909636942E+03  0.10909036249E+04  0.60300456873E+03 0.  0.
         13    1    3    3    0    0  0.76288226088E+02 -0.15091714328E+03 -0.90613045891E+03  0.92177453108E+03  0.00000000000E+00 0.  1.
          1    1    3    3  501    0 -0.76288605120E+02  0.15091687274E+03 -0.29659105128E+01  0.16912909382E+03  0.00000000000E+00 0.  1.
         21    1    1    2  502  501  0.37903239501E-03  0.27053619566E-03  0.19065396832E-01  0.19071083130E-01  0.00000000000E+00 0.  1.
<mgrwt>
<rscale>  1 0.60300457E+03</rscale>
<asrwt>0</asrwt>
<pdfrwt beam="1">  1        1 0.33062868E+00 0.60300457E+03</pdfrwt>
<pdfrwt beam="2">0</pdfrwt>
<totfact> 0.27190891E+00</totfact>
</mgrwt>
</event>
<event>
 6    1  0.2558947E-003  0.6437895E+03  0.7818608E-02  0.9818503E-01
          1   -1    0    0  502    0  0.00000000000E+00  0.00000000000E+00  0.10365227997E+03  0.10365227997E+03  0.00000000000E+00 0.  1.
         13   -1    0    0    0    0 -0.00000000000E+00 -0.00000000000E+00 -0.10000000000E+04  0.10000000000E+04  0.00000000000E+00 0.  1.
    9000005    2    1    2  501    0 -0.33191995464E-02  0.27251644399E-02 -0.89638363955E+03  0.11036161046E+04  0.64378946646E+03 0.  0.
         13    1    3    3    0    0 -0.79002643233E+02 -0.11486174076E+03 -0.94556513117E+03  0.95578661552E+03  0.00000000000E+00 0.  1.
          1    1    3    3  501    0  0.78999324033E+02  0.11486446593E+03  0.49181491620E+02  0.14782948910E+03  0.00000000000E+00 0.  1.
         21    1    1    2  502  501  0.33191995464E-02 -0.27251644399E-02  0.35919515047E-01  0.36175339225E-01  0.00000000000E+00 0. -1.
<mgrwt>
<rscale>  1 0.64378947E+03</rscale>
<asrwt>0</asrwt>
<pdfrwt beam="1">  1        1 0.37691818E+00 0.64378947E+03</pdfrwt>
<pdfrwt beam="2">0</pdfrwt>
<totfact> 0.16950572E+00</totfact>
</mgrwt>
</event>
<event>
 6    1  0.2558947E-003  0.6785510E+03  0.7818608E-02  0.9754633E-01
          1   -1    0    0  502    0  0.00000000000E+00  0.00000000000E+00  0.11510882140E+03  0.11510882140E+03  0.00000000000E+00 0.  1.
         13   -1    0    0    0    0 -0.00000000000E+00 -0.00000000000E+00 -0.10000000000E+04  0.10000000000E+04  0.00000000000E+00 0.  1.
    9000005    2    1    2  501    0 -0.33725497659E-03  0.91398085942E-04 -0.88489210140E+03  0.11151078347E+04  0.67855099425E+03 0.  0.
         13    1    3    3    0    0 -0.99446082222E+02 -0.21679133387E+03 -0.45921605321E+02  0.24289256791E+03  0.00000000000E+00 0.  1.
          1    1    3    3  501    0  0.99445744967E+02  0.21679142527E+03 -0.83897049608E+03  0.87221526675E+03  0.00000000000E+00 0.  1.
         21    1    1    2  502  501  0.33725497658E-03 -0.91398085928E-04  0.92279785232E-03  0.98673725256E-03  0.00000000000E+00 0.  1.
<mgrwt>
<rscale>  1 0.67855099E+03</rscale>
<asrwt>0</asrwt>
<pdfrwt beam="1">  1        1 0.41857842E+00 0.67855099E+03</pdfrwt>
<pdfrwt beam="2">0</pdfrwt>
<totfact> 0.10984131E+00</totfact>
</mgrwt>
</event>
<event>
 6    1  0.2558947E-003  0.6481558E+03  0.7818608E-02  0.9810246E-01
          1   -1    0    0  502    0  0.00000000000E+00  0.00000000000E+00  0.10535344824E+03  0.10535344824E+03  0.00000000000E+00 0.  1.
         13   -1    0    0    0    0 -0.00000000000E+00 -0.00000000000E+00 -0.10000000000E+04  0.10000000000E+04  0.00000000000E+00 0.  1.
    9000005    2    1    2  501    0  0.10764311299E-02  0.16550330193E-01 -0.89497329096E+03  0.11050262884E+04  0.64815577309E+03 0.  0.
         13    1    3    3    0    0  0.13567478448E+03  0.84831212786E+02  0.32983305466E+02  0.16337649845E+03  0.00000000000E+00 0.  1.
          1    1    3    3  501    0 -0.13567370804E+03 -0.84814662456E+02 -0.92795659643E+03  0.94164978993E+03  0.00000000000E+00 0.  1.
         21    1    1    2  502  501 -0.10764311299E-02 -0.16550330193E-01  0.32673920244E+00  0.32715986695E+00  0.00000000000E+00 0. -1.
<mgrwt>
<rscale>  1 0.64815577E+03</rscale>
<asrwt>0</asrwt>
<pdfrwt beam="1">  1        1 0.38310426E+00 0.64815577E+03</pdfrwt>
<pdfrwt beam="2">0</pdfrwt>
<totfact> 0.15905277E+00</totfact>
</mgrwt>
</event>
<event>
 6    1  0.2558947E-003  0.6504702E+03  0.7818608E-02  0.9805897E-01
          1   -1    0    0  502    0  0.00000000000E+00  0.00000000000E+00  0.10577810777E+03  0.10577810777E+03  0.00000000000E+00 0.  1.
         13   -1    0    0    0    0 -0.00000000000E+00 -0.00000000000E+00 -0.10000000000E+04  0.10000000000E+04  0.00000000000E+00 0.  1.
    9000005    2    1    2  501    0 -0.27898432137E-04  0.23594225638E-04 -0.89422211358E+03  0.11057778834E+04  0.65047024456E+03 0.  0.
         13    1    3    3    0    0 -0.16397229743E+03 -0.23045511496E+03 -0.72006777679E+03  0.77362398975E+03  0.00000000000E+00 0.  1.
          1    1    3    3  501    0  0.16397226954E+03  0.23045513856E+03 -0.17415433679E+03  0.33215389368E+03  0.00000000000E+00 0.  1.
         21    1    1    2  502  501  0.27898432135E-04 -0.23594225633E-04  0.22134396966E-03  0.22433939223E-03  0.00000000000E+00 0.  1.
<mgrwt>
<rscale>  1 0.65047024E+03</rscale>
<asrwt>0</asrwt>
<pdfrwt beam="1">  1        1 0.38464848E+00 0.65047024E+03</pdfrwt>
<pdfrwt beam="2">0</pdfrwt>
<totfact> 0.15650538E+00</totfact>
</mgrwt>
</event>
<event>
 6    1  0.2558947E-003  0.6685055E+03  0.7818608E-02  0.9772661E-01
          1   -1    0    0  502    0  0.00000000000E+00  0.00000000000E+00  0.11178293875E+03  0.11178293875E+03  0.00000000000E+00 0.  1.
         13   -1    0    0    0    0 -0.00000000000E+00 -0.00000000000E+00 -0.10000000000E+04  0.10000000000E+04  0.00000000000E+00 0.  1.
    9000005    2    1    2  501    0 -0.31786728675E-01 -0.78493699777E-01 -0.88823843692E+03  0.11116955970E+04  0.66850547677E+03 0.  0.
         13    1    3    3    0    0 -0.10333582447E+03  0.27205090566E+03 -0.71742012138E+03  0.77419740277E+03  0.00000000000E+00 0.  1.
          1    1    3    3  501    0  0.10330403774E+03 -0.27212939936E+03 -0.17081831553E+03  0.33749819426E+03  0.00000000000E+00 0.  1.
         21    1    1    2  502  501  0.31786728675E-01  0.78493699777E-01  0.21375669751E-01  0.87341721313E-01  0.00000000000E+00 0. -1.
<mgrwt>
<rscale>  1 0.66850548E+03</rscale>
<asrwt>0</asrwt>
<pdfrwt beam="1">  1        1 0.40648427E+00 0.66850548E+03</pdfrwt>
<pdfrwt beam="2">0</pdfrwt>
<totfact> 0.12471855E+00</totfact>
</mgrwt>
</event>
<event>
 6    1  0.2558947E-003  0.6470661E+03  0.7818608E-02  0.9812300E-01
          1   -1    0    0  502    0  0.00000000000E+00  0.00000000000E+00  0.10546137001E+03  0.10546137001E+03  0.00000000000E+00 0.  1.
         13   -1    0    0    0    0 -0.00000000000E+00 -0.00000000000E+00 -0.10000000000E+04  0.10000000000E+04  0.00000000000E+00 0.  1.
    9000005    2    1    2  501    0 -0.10058757724E-01  0.10906564623E-01 -0.89532627483E+03  0.11046735854E+04  0.64706614171E+03 0.  0.
         13    1    3    3    0    0  0.11828204046E+03  0.24553614470E+03 -0.15002236939E+03  0.31110344062E+03  0.00000000000E+00 0.  1.
          3    1    3    3  501    0 -0.11829209921E+03 -0.24552523813E+03 -0.74530390544E+03  0.79357014483E+03  0.00000000000E+00 0.  1.
         21    1    1    2  502  501  0.10058757724E-01 -0.10906564623E-01  0.78764484357E+00  0.78778457167E+00  0.00000000000E+00 0.  1.
<mgrwt>
<rscale>  1 0.64706614E+03</rscale>
<asrwt>0</asrwt>
<pdfrwt beam="1">  1        1 0.38349670E+00 0.64706614E+03</pdfrwt>
<pdfrwt beam="2">0</pdfrwt>
<totfact> 0.15845077E+00</totfact>
</mgrwt>
</event>
<event>
 6    1  0.2558947E-003  0.6679906E+03  0.7818608E-02  0.9773595E-01
          1   -1    0    0  502    0  0.00000000000E+00  0.00000000000E+00  0.11155337370E+03  0.11155337370E+03  0.00000000000E+00 0.  1.
         13   -1    0    0    0    0 -0.00000000000E+00 -0.00000000000E+00 -0.10000000000E+04  0.10000000000E+04  0.00000000000E+00 0.  1.
    9000005    2    1    2  501    0 -0.29455065715E-04 -0.43240848601E-03 -0.88844702385E+03  0.11115527856E+04  0.66799062937E+03 0.  0.
         13    1    3    3    0    0  0.17311828175E+03 -0.28561552386E+03 -0.44856990744E+03  0.55925050631E+03  0.00000000000E+00 0.  1.
          3    1    3    3  501    0 -0.17311831121E+03  0.28561509145E+03 -0.43987711641E+03  0.55230227926E+03  0.00000000000E+00 0.  1.
         21    1    1    2  502  501  0.29455065730E-04  0.43240848602E-03  0.39754940476E-03  0.58812433116E-03  0.00000000000E+00 0. -1.
<mgrwt>
<rscale>  1 0.66799063E+03</rscale>
<asrwt>0</asrwt>
<pdfrwt beam="1">  1        1 0.40564949E+00 0.66799063E+03</pdfrwt>
<pdfrwt beam="2">0</pdfrwt>
<totfact> 0.12580820E+00</totfact>
</mgrwt>
</event>
<event>
 6    1  0.2558947E-003  0.4951175E+03  0.7818608E-02  0.1015061E+00
          1   -1    0    0  502    0  0.00000000000E+00  0.00000000000E+00  0.61405052627E+02  0.61405052627E+02  0.00000000000E+00 0.  1.
         13   -1    0    0    0    0 -0.00000000000E+00 -0.00000000000E+00 -0.10000000000E+04  0.10000000000E+04  0.00000000000E+00 0.  1.
    9000005    2    1    2  501    0  0.99147473935E-02  0.11280371144E-01 -0.93871416645E+03  0.10612848913E+04  0.49511749518E+03 0.  0.
         13    1    3    3    0    0  0.10599144707E+03  0.91656568319E+02 -0.31900150883E+02  0.14371058762E+03  0.00000000000E+00 0.  1.
          1    1    3    3  501    0 -0.10598153232E+03 -0.91645287948E+02 -0.90681401557E+03  0.91757430371E+03  0.00000000000E+00 0.  1.
         21    1    1    2  502  501 -0.99147473935E-02 -0.11280371144E-01  0.11921907916E+00  0.12016129919E+00  0.00000000000E+00 0. -1.
<mgrwt>
<rscale>  1 0.49511750E+03</rscale>
<asrwt>0</asrwt>
<pdfrwt beam="1">  1        1 0.22329157E+00 0.49511750E+03</pdfrwt>
<pdfrwt beam="2">0</pdfrwt>
<totfact> 0.80927922E+00</totfact>
</mgrwt>
</event>
<event>
 6    1  0.2558947E-003  0.6617235E+03  0.7818608E-02  0.9785026E-01
          1   -1    0    0  502    0  0.00000000000E+00  0.00000000000E+00  0.10947895669E+03  0.10947895669E+03  0.00000000000E+00 0.  1.
         13   -1    0    0    0    0 -0.00000000000E+00 -0.00000000000E+00 -0.10000000000E+04  0.10000000000E+04  0.00000000000E+00 0.  1.
    9000005    2    1    2  501    0 -0.72164858508E-04 -0.11233775184E-03 -0.89053051764E+03  0.11094694814E+04  0.66172345231E+03 0.  0.
         13    1    3    3    0    0 -0.11368761412E+03 -0.22014889120E+01 -0.96621038362E+03  0.97287832003E+03  0.00000000000E+00 0.  1.
          1    1    3    3  501    0  0.11368754195E+03  0.22013765743E+01  0.75679865981E+02  0.13659116139E+03  0.00000000000E+00 0.  1.
         21    1    1    2  502  501  0.72164858509E-04  0.11233775184E-03  0.94743338123E-02  0.94752745989E-02  0.00000000000E+00 0.  1.
<mgrwt>
<rscale>  1 0.66172345E+03</rscale>
<asrwt>0</asrwt>
<pdfrwt beam="1">  1        1 0.39810614E+00 0.66172345E+03</pdfrwt>
<pdfrwt beam="2">0</pdfrwt>
<totfact> 0.13611128E+00</totfact>
</mgrwt>
</event>
<event>
 6    1  0.2558947E-003  0.6512394E+03  0.7818608E-02  0.9804456E-01
          1   -1    0    0  502    0  0.00000000000E+00  0.00000000000E+00  0.10602833959E+03  0.10602833959E+03  0.00000000000E+00 0.  1.
         13   -1    0    0    0    0 -0.00000000000E+00 -0.00000000000E+00 -0.10000000000E+04  0.10000000000E+04  0.00000000000E+00 0.  1.
    9000005    2    1    2  501    0  0.17564383385E-03 -0.33028660198E-04 -0.89397174573E+03  0.11060281415E+04  0.65123940892E+03 0.  0.
         13    1    3    3    0    0  0.58559215922E+01  0.30233708569E+03 -0.65210030308E+03  0.71880234451E+03  0.00000000000E+00 0.  1.
          3    1    3    3  501    0 -0.58557459483E+01 -0.30233711872E+03 -0.24187144265E+03  0.38722579703E+03  0.00000000000E+00 0.  1.
         21    1    1    2  502  501 -0.17564383385E-03  0.33028660237E-04  0.85312457555E-04  0.19804005701E-03  0.00000000000E+00 0.  1.
<mgrwt>
<rscale>  1 0.65123941E+03</rscale>
<asrwt>0</asrwt>
<pdfrwt beam="1">  1        1 0.38555841E+00 0.65123941E+03</pdfrwt>
<pdfrwt beam="2">0</pdfrwt>
<totfact> 0.15503955E+00</totfact>
</mgrwt>
</event>
<event>
 6    1  0.2558947E-003  0.5611163E+03  0.7818608E-02  0.9989532E-01
          1   -1    0    0  502    0  0.00000000000E+00  0.00000000000E+00  0.78723161496E+02  0.78723161496E+02  0.00000000000E+00 0.  1.
         13   -1    0    0    0    0 -0.00000000000E+00 -0.00000000000E+00 -0.10000000000E+04  0.10000000000E+04  0.00000000000E+00 0.  1.
    9000005    2    1    2  501    0 -0.25011707120E-03  0.99060950276E-04 -0.92128711610E+03  0.10787128804E+04  0.56111632305E+03 0.  0.
         13    1    3    3    0    0  0.16871326136E+03  0.13424322327E+03 -0.11552683040E+03  0.24460551117E+03  0.00000000000E+00 0.  1.
          3    1    3    3  501    0 -0.16871351147E+03 -0.13424312421E+03 -0.80576028570E+03  0.83410736920E+03  0.00000000000E+00 0.  1.
         21    1    1    2  502  501  0.25011707121E-03 -0.99060950269E-04  0.10277599487E-01  0.10281119727E-01  0.00000000000E+00 0. -1.
<mgrwt>
<rscale>  1 0.56111632E+03</rscale>
<asrwt>0</asrwt>
<pdfrwt beam="1">  1        1 0.28626665E+00 0.56111632E+03</pdfrwt>
<pdfrwt beam="2">0</pdfrwt>
<totfact> 0.42581926E+00</totfact>
</mgrwt>
</event>
<event>
 6    1  0.5027600E-003  0.6419174E+03  0.7818608E-02  0.9822065E-01
          1   -1    0    0  502    0  0.00000000000E+00  0.00000000000E+00  0.10301449553E+03  0.10301449553E+03  0.00000000000E+00 0.  1.
         13   -1    0    0    0    0 -0.00000000000E+00 -0.00000000000E+00 -0.10000000000E+04  0.10000000000E+04  0.00000000000E+00 0.  1.
    9000005    2    1    2  501    0 -0.19624399869E-04  0.53672700631E-05 -0.89698548777E+03  0.11030144692E+04  0.64191740436E+03 0.  0.
         13    1    3    3    0    0  0.14640019525E+03  0.20331302989E+03 -0.10377824708E+03  0.27118099096E+03  0.00000000000E+00 0.  1.
          3    1    3    3  501    0 -0.14640021488E+03 -0.20331302452E+03 -0.79320724069E+03  0.83183347825E+03  0.00000000000E+00 0.  1.
         21    1    1    2  502  501  0.19624399867E-04 -0.53672700505E-05 -0.16694959134E-04  0.26318174679E-04  0.00000000000E+00 0. -1.
<mgrwt>
<rscale>  1 0.64191740E+03</rscale>
<asrwt>0</asrwt>
<pdfrwt beam="1">  1        1 0.37459896E+00 0.64191740E+03</pdfrwt>
<pdfrwt beam="2">0</pdfrwt>
<totfact> 0.17359833E+00</totfact>
</mgrwt>
</event>
<event>
 6    1  0.2558947E-003  0.6597563E+03  0.7818608E-02  0.9788642E-01
          1   -1    0    0  502    0  0.00000000000E+00  0.00000000000E+00  0.10901306496E+03  0.10901306496E+03  0.00000000000E+00 0.  1.
         13   -1    0    0    0    0 -0.00000000000E+00 -0.00000000000E+00 -0.10000000000E+04  0.10000000000E+04  0.00000000000E+00 0.  1.
    9000005    2    1    2  501    0 -0.57255733675E-01 -0.83935201365E-01 -0.89116549575E+03  0.11088076209E+04  0.65975631032E+03 0.  0.
         13    1    3    3    0    0 -0.96438238622E+02  0.28929530937E+03 -0.65685482406E+03  0.72418945710E+03  0.00000000000E+00 0.  1.
          1    1    3    3  501    0  0.96380982888E+02 -0.28937924457E+03 -0.23431067169E+03  0.38461816379E+03  0.00000000000E+00 0.  1.
         21    1    1    2  502  501  0.57255733675E-01  0.83935201365E-01  0.17856070606E+00  0.20544406250E+00  0.00000000000E+00 0. -1.
<mgrwt>
<rscale>  1 0.65975632E+03</rscale>
<asrwt>0</asrwt>
<pdfrwt beam="1">  1        1 0.39641198E+00 0.65975632E+03</pdfrwt>
<pdfrwt beam="2">0</pdfrwt>
<totfact> 0.13854683E+00</totfact>
</mgrwt>
</event>
<event>
 6    1  0.2558947E-003  0.6377291E+03  0.7818608E-02  0.9830081E-01
          1   -1    0    0  502    0  0.00000000000E+00  0.00000000000E+00  0.11385412531E+03  0.11385412531E+03  0.00000000000E+00 0.  1.
         13   -1    0    0    0    0 -0.00000000000E+00 -0.00000000000E+00 -0.10000000000E+04  0.10000000000E+04  0.00000000000E+00 0.  1.
    9000005    2    1    2  501    0  0.14940413958E+02 -0.64359658457E+01 -0.89203668663E+03  0.10965527008E+04  0.63752155858E+03 0.  0.
         13    1    3    3    0    0 -0.28017398641E+03 -0.25264548189E+02 -0.67030569111E+03  0.72694255590E+03  0.00000000000E+00 0.  1.
          3    1    3    3  501    0  0.29511440036E+03  0.18828582344E+02 -0.22173099552E+03  0.36961014487E+03  0.00000000000E+00 0.  1.
         21    1    1    2  502  501 -0.14940413958E+02  0.64359658457E+01  0.58908119379E+01  0.17301424534E+02  0.00000000000E+00 0.  1.
<mgrwt>
<rscale>  1 0.63772908E+03</rscale>
<asrwt>0</asrwt>
<pdfrwt beam="1">  1        1 0.41401587E+00 0.63772908E+03</pdfrwt>
<pdfrwt beam="2">0</pdfrwt>
<totfact> 0.11607668E+00</totfact>
</mgrwt>
</event>
<event>
 6    1  0.2558947E-003  0.6511027E+03  0.7818608E-02  0.9804712E-01
          1   -1    0    0  502    0  0.00000000000E+00  0.00000000000E+00  0.10601584902E+03  0.10601584902E+03  0.00000000000E+00 0.  1.
         13   -1    0    0    0    0 -0.00000000000E+00 -0.00000000000E+00 -0.10000000000E+04  0.10000000000E+04  0.00000000000E+00 0.  1.
    9000005    2    1    2  501    0  0.99143614820E-03  0.10372493981E-03 -0.89401631134E+03  0.11059836732E+04  0.65110269579E+03 0.  0.
         13    1    3    3    0    0  0.64188041426E+02 -0.14865555178E+03  0.32731617077E+02  0.16519666005E+03  0.00000000000E+00 0.  1.
          3    1    3    3  501    0 -0.64187049990E+02  0.14865565550E+03 -0.92674792842E+03  0.94078701316E+03  0.00000000000E+00 0.  1.
         21    1    1    2  502  501 -0.99143614820E-03 -0.10372493980E-03  0.32160363369E-01  0.32175808872E-01  0.00000000000E+00 0.  1.
<mgrwt>
<rscale>  1 0.65110270E+03</rscale>
<asrwt>0</asrwt>
<pdfrwt beam="1">  1        1 0.38551299E+00 0.65110270E+03</pdfrwt>
<pdfrwt beam="2">0</pdfrwt>
<totfact> 0.15511522E+00</totfact>
</mgrwt>
</event>
<event>
 6    1  0.2558947E-003  0.6683423E+03  0.7818608E-02  0.9772957E-01
          1   -1    0    0  502    0  0.00000000000E+00  0.00000000000E+00  0.11167354310E+03  0.11167354310E+03  0.00000000000E+00 0.  1.
         13   -1    0    0    0    0 -0.00000000000E+00 -0.00000000000E+00 -0.10000000000E+04  0.10000000000E+04  0.00000000000E+00 0.  1.
    9000005    2    1    2  501    0 -0.32451182921E-03 -0.60984514784E-03 -0.88832961632E+03  0.11116703090E+04  0.66834225421E+03 0.  0.
         13    1    3    3    0    0 -0.28756646536E+03  0.17018158525E+03 -0.45040785551E+03  0.56082392983E+03  0.00000000000E+00 0.  1.
          1    1    3    3  501    0  0.28756614085E+03 -0.17018219510E+03 -0.43792176081E+03  0.55084637921E+03  0.00000000000E+00 0.  1.
         21    1    1    2  502  501  0.32451182919E-03  0.60984514785E-03  0.31594229074E-02  0.32340643376E-02  0.00000000000E+00 0.  1.
<mgrwt>
<rscale>  1 0.66834225E+03</rscale>
<asrwt>0</asrwt>
<pdfrwt beam="1">  1        1 0.40608647E+00 0.66834225E+03</pdfrwt>
<pdfrwt beam="2">0</pdfrwt>
<totfact> 0.12523476E+00</totfact>
</mgrwt>
</event>
<event>
 6    1  0.2558947E-003  0.6507118E+03  0.7818608E-02  0.9805444E-01
          1   -1    0    0  502    0  0.00000000000E+00  0.00000000000E+00  0.11344812585E+03  0.11344812585E+03  0.00000000000E+00 0.  1.
         13   -1    0    0    0    0 -0.00000000000E+00 -0.00000000000E+00 -0.10000000000E+04  0.10000000000E+04  0.00000000000E+00 0.  1.
    9000005    2    1    2  501    0  0.22906097093E+02 -0.41454224620E+00 -0.85791567717E+03  0.10767753443E+04  0.65030836671E+03 0.  0.
         13    1    3    3    0    0 -0.36447805936E+02 -0.73321055022E+02  0.91459407809E+02  0.12275684479E+03  0.00000000000E+00 0.  1.
          1    1    3    3  501    0  0.59353903030E+02  0.72906512776E+02 -0.94937508498E+03  0.95401849950E+03  0.00000000000E+00 0.  1.
         21    1    1    2  502  501 -0.22906097093E+02  0.41454224620E+00 -0.28636196986E+02  0.36672781557E+02  0.00000000000E+00 0. -1.
<mgrwt>
<rscale>  1 0.65071179E+03</rscale>
<asrwt>0</asrwt>
<pdfrwt beam="1">  1        1 0.41253951E+00 0.65071179E+03</pdfrwt>
<pdfrwt beam="2">0</pdfrwt>
<totfact> 0.11756154E+00</totfact>
</mgrwt>
</event>
<event>
 6    1  0.2558947E-003  0.4956914E+03  0.7818608E-02  0.1014910E+00
          1   -1    0    0  502    0  0.00000000000E+00  0.00000000000E+00  0.61427499252E+02  0.61427499252E+02  0.00000000000E+00 0.  1.
         13   -1    0    0    0    0 -0.00000000000E+00 -0.00000000000E+00 -0.10000000000E+04  0.10000000000E+04  0.00000000000E+00 0.  1.
    9000005    2    1    2  501    0  0.37849367374E-05  0.45711885548E-05 -0.93857250893E+03  0.10614274891E+04  0.49569139613E+03 0.  0.
         13    1    3    3    0    0  0.36208876422E+02 -0.24471989166E+03 -0.43691205575E+03  0.50208669826E+03  0.00000000000E+00 0.  1.
          3    1    3    3  501    0 -0.36208872637E+02  0.24471989623E+03 -0.50166045318E+03  0.55934079089E+03  0.00000000000E+00 0.  1.
         21    1    1    2  502  501 -0.37849367350E-05 -0.45711885553E-05  0.81798120161E-05  0.10105980186E-04  0.00000000000E+00 0.  1.
<mgrwt>
<rscale>  1 0.49569140E+03</rscale>
<asrwt>0</asrwt>
<pdfrwt beam="1">  1        1 0.22337320E+00 0.49569140E+03</pdfrwt>
<pdfrwt beam="2">0</pdfrwt>
<totfact> 0.80853314E+00</totfact>
</mgrwt>
</event>
