<event>
 6    1  0.1901260E-004  0.3000000E+03  0.7818608E-02  0.1093470E+00
          1   -1    0    0  502    0  0.00000000000E+00  0.00000000000E+00  0.34175073560E+02  0.34175073560E+02  0.00000000000E+00 0.  1.
         13   -1    0    0    0    0 -0.00000000000E+00 -0.00000000000E+00 -0.10000000000E+04  0.10000000000E+04  0.00000000000E+00 0.  1.
    9000005    2    1    2  501    0 -0.68473886202E+01 -0.17060349216E+02 -0.90866881344E+03  0.97413539085E+03  0.35060348679E+03 0.  0.
         13    1    3    3    0    0 -0.71279071230E+02 -0.13523483386E+03 -0.75293251978E+03  0.76829456957E+03  0.00000000000E+00 0.  1.
          1    1    3    3  501    0  0.64431682610E+02  0.11817448464E+03 -0.15573629366E+03  0.20584082128E+03  0.00000000000E+00 0.  1.
         21    1    1    2  502  501  0.68473886202E+01  0.17060349216E+02 -0.57156113000E+02  0.60039682707E+02  0.00000000000E+00 0. -1.
<mgrwt>
<rscale>  1 0.30000000E+03</rscale>
<asrwt>0</asrwt>
<pdfrwt beam="1">  1        1 0.12427326E+00 0.30000000E+03</pdfrwt>
<pdfrwt beam="2">0</pdfrwt>
<totfact> 0.24601377E+01</totfact>
</mgrwt>
</event>
<event>
 6    1  0.1901260E-004  0.3000000E+03  0.7818608E-02  0.1093470E+00
          1   -1    0    0  502    0  0.00000000000E+00  0.00000000000E+00  0.27945725329E+02  0.27945725329E+02  0.00000000000E+00 0.  1.
         13   -1    0    0    0    0 -0.00000000000E+00 -0.00000000000E+00 -0.10000000000E+04  0.10000000000E+04  0.00000000000E+00 0.  1.
    9000005    2    1    2  501    0  0.97050692430E+01  0.31539315759E+01 -0.96761172638E+03  0.10168159505E+04  0.31231088425E+03 0.  0.
         13    1    3    3    0    0  0.16541354850E+02  0.30224844327E+02  0.12241373924E+02  0.36565131894E+02  0.00000000000E+00 0.  1.
          3    1    3    3  501    0 -0.68362856074E+01 -0.27070912752E+02 -0.97985310030E+03  0.98025081856E+03  0.00000000000E+00 0.  1.
         21    1    1    2  502  501 -0.97050692430E+01 -0.31539315759E+01 -0.44425482926E+01  0.11129774873E+02  0.00000000000E+00 0.  1.
<mgrwt>
<rscale>  1 0.30000000E+03</rscale>
<asrwt>0</asrwt>
<pdfrwt beam="1">  1        1 0.10162103E+00 0.30000000E+03</pdfrwt>
<pdfrwt beam="2">0</pdfrwt>
<totfact> 0.33429652E+01</totfact>
</mgrwt>
</event>
<event>
 6    1  0.1901260E-004  0.3000000E+03  0.7818608E-02  0.1093470E+00
          1   -1    0    0  502    0  0.00000000000E+00  0.00000000000E+00  0.37683682079E+02  0.37683682079E+02  0.00000000000E+00 0.  1.
         13   -1    0    0    0    0 -0.00000000000E+00 -0.00000000000E+00 -0.10000000000E+04  0.10000000000E+04  0.00000000000E+00 0.  1.
    9000005    2    1    2  501    0 -0.38059660299E+02 -0.15316511580E+02 -0.91983511902E+03  0.97862620559E+03  0.33155613525E+03 0.  0.
         13    1    3    3    0    0  0.13706385004E+03  0.49655293760E+02 -0.35751200507E+03  0.38609193330E+03  0.00000000000E+00 0.  1.
          3    1    3    3  501    0 -0.17512351034E+03 -0.64971805340E+02 -0.56232311395E+03  0.59253427229E+03  0.00000000000E+00 0.  1.
         21    1    1    2  502  501  0.38059660299E+02  0.15316511580E+02 -0.42481198904E+02  0.59057476490E+02  0.00000000000E+00 0.  1.
<mgrwt>
<rscale>  1 0.30000000E+03</rscale>
<asrwt>0</asrwt>
<pdfrwt beam="1">  1        1 0.13703186E+00 0.30000000E+03</pdfrwt>
<pdfrwt beam="2">0</pdfrwt>
<totfact> 0.20974204E+01</totfact>
</mgrwt>
</event>
<event>
 6    1  0.1901260E-004  0.3000000E+03  0.7818608E-02  0.1093470E+00
          1   -1    0    0  502    0  0.00000000000E+00  0.00000000000E+00  0.58451056118E+02  0.58451056118E+02  0.00000000000E+00 0.  1.
         13   -1    0    0    0    0 -0.00000000000E+00 -0.00000000000E+00 -0.10000000000E+04  0.10000000000E+04  0.00000000000E+00 0.  1.
    9000005    2    1    2  501    0 -0.85366874168E+01 -0.13966700266E+02 -0.96856254893E+03  0.10268650053E+04  0.34069103919E+03 0.  0.
         13    1    3    3    0    0 -0.79686020644E+02 -0.13786711722E+03 -0.74290137383E+03  0.75977605591E+03  0.00000000000E+00 0.  1.
          3    1    3    3  501    0  0.71149333227E+02  0.12390041696E+03 -0.22566117510E+03  0.26708894939E+03  0.00000000000E+00 0.  1.
         21    1    1    2  502  501  0.85366874168E+01  0.13966700266E+02  0.27013605047E+02  0.31586050813E+02  0.00000000000E+00 0. -1.
<mgrwt>
<rscale>  1 0.30000000E+03</rscale>
<asrwt>0</asrwt>
<pdfrwt beam="1">  1        1 0.21254974E+00 0.30000000E+03</pdfrwt>
<pdfrwt beam="2">0</pdfrwt>
<totfact> 0.89348538E+00</totfact>
</mgrwt>
</event>
<event>
 6    1  0.1901260E-004  0.3000000E+03  0.7818608E-02  0.1093470E+00
          1   -1    0    0  502    0  0.00000000000E+00  0.00000000000E+00  0.42560536133E+02  0.42560536133E+02  0.00000000000E+00 0.  1.
         13   -1    0    0    0    0 -0.00000000000E+00 -0.00000000000E+00 -0.10000000000E+04  0.10000000000E+04  0.00000000000E+00 0.  1.
    9000005    2    1    2  501    0  0.29919780027E+02  0.37426821371E+02 -0.93175476047E+03  0.98819451565E+03  0.32567699782E+03 0.  0.
         13    1    3    3    0    0  0.30158721041E+02 -0.11337708367E+03 -0.14211698800E+03  0.18428551173E+03  0.00000000000E+00 0.  1.
          3    1    3    3  501    0 -0.23894101410E+00  0.15080390504E+03 -0.78963777247E+03  0.80390900392E+03  0.00000000000E+00 0.  1.
         21    1    1    2  502  501 -0.29919780027E+02 -0.37426821371E+02 -0.25684703400E+02  0.54366020486E+02  0.00000000000E+00 0.  1.
<mgrwt>
<rscale>  1 0.30000000E+03</rscale>
<asrwt>0</asrwt>
<pdfrwt beam="1">  1        1 0.15476591E+00 0.30000000E+03</pdfrwt>
<pdfrwt beam="2">0</pdfrwt>
<totfact> 0.16995885E+01</totfact>
</mgrwt>
</event>
<event>
 6    1  0.1901260E-004  0.3000000E+03  0.7818608E-02  0.1093470E+00
          1   -1    0    0  502    0  0.00000000000E+00  0.00000000000E+00  0.25253315084E+02  0.25253315084E+02  0.00000000000E+00 0.  1.
         13   -1    0    0    0    0 -0.00000000000E+00 -0.00000000000E+00 -0.10000000000E+04  0.10000000000E+04  0.00000000000E+00 0.  1.
    9000005    2    1    2  501    0 -0.20039788542E+02 -0.16991171741E+01 -0.95180599449E+03  0.99474503094E+03  0.28840690927E+03 0.  0.
         13    1    3    3    0    0  0.74846769006E+02 -0.29134998901E+02 -0.84673784368E+03  0.85053857227E+03  0.00000000000E+00 0.  1.
          1    1    3    3  501    0 -0.94886557548E+02  0.27435881726E+02 -0.10506815080E+03  0.14420645867E+03  0.00000000000E+00 0.  1.
         21    1    1    2  502  501  0.20039788542E+02  0.16991171741E+01 -0.22940690427E+02  0.30508284141E+02  0.00000000000E+00 0. -1.
<mgrwt>
<rscale>  1 0.30000000E+03</rscale>
<asrwt>0</asrwt>
<pdfrwt beam="1">  1        1 0.91830430E-01 0.30000000E+03</pdfrwt>
<pdfrwt beam="2">0</pdfrwt>
<totfact> 0.38707841E+01</totfact>
</mgrwt>
</event>
<event>
 6    1  0.1901260E-004  0.3000000E+03  0.7818608E-02  0.1093470E+00
          1   -1    0    0  502    0  0.00000000000E+00  0.00000000000E+00  0.34706588405E+02  0.34706588405E+02  0.00000000000E+00 0.  1.
         13   -1    0    0    0    0 -0.00000000000E+00 -0.00000000000E+00 -0.10000000000E+04  0.10000000000E+04  0.00000000000E+00 0.  1.
    9000005    2    1    2  501    0  0.26615404901E+02 -0.33949007586E+02 -0.90281644662E+03  0.95878369300E+03  0.31988704066E+03 0.  0.
         13    1    3    3    0    0  0.69238667631E+02 -0.14154026683E+03 -0.75388317269E+03  0.77017366762E+03  0.00000000000E+00 0.  1.
          1    1    3    3  501    0 -0.42623262730E+02  0.10759125924E+03 -0.14893327393E+03  0.18861002538E+03  0.00000000000E+00 0.  1.
         21    1    1    2  502  501 -0.26615404901E+02  0.33949007586E+02 -0.62476964978E+02  0.75922895407E+02  0.00000000000E+00 0.  1.
<mgrwt>
<rscale>  1 0.30000000E+03</rscale>
<asrwt>0</asrwt>
<pdfrwt beam="1">  1        1 0.12620604E+00 0.30000000E+03</pdfrwt>
<pdfrwt beam="2">0</pdfrwt>
<totfact> 0.24002366E+01</totfact>
</mgrwt>
</event>
<event>
 6    1  0.1901260E-004  0.3000000E+03  0.7818608E-02  0.1093470E+00
          1   -1    0    0  502    0  0.00000000000E+00  0.00000000000E+00  0.34040706730E+02  0.34040706730E+02  0.00000000000E+00 0.  1.
         13   -1    0    0    0    0 -0.00000000000E+00 -0.00000000000E+00 -0.10000000000E+04  0.10000000000E+04  0.00000000000E+00 0.  1.
    9000005    2    1    2  501    0  0.10097270316E+02  0.21698334892E+02 -0.95665393908E+03  0.10083626573E+04  0.31786115981E+03 0.  0.
         13    1    3    3    0    0 -0.21156211470E+02 -0.38263151474E+02 -0.93689841577E+03  0.93791806440E+03  0.00000000000E+00 0.  1.
          3    1    3    3  501    0  0.31253481786E+02  0.59961486366E+02 -0.19755523306E+02  0.70444592923E+02  0.00000000000E+00 0.  1.
         21    1    1    2  502  501 -0.10097270316E+02 -0.21698334892E+02 -0.93053541911E+01  0.25678049411E+02  0.00000000000E+00 0. -1.
<mgrwt>
<rscale>  1 0.30000000E+03</rscale>
<asrwt>0</asrwt>
<pdfrwt beam="1">  1        1 0.12378465E+00 0.30000000E+03</pdfrwt>
<pdfrwt beam="2">0</pdfrwt>
<totfact> 0.24755810E+01</totfact>
</mgrwt>
</event>
<event>
 6    1  0.1901260E-004  0.3000000E+03  0.7818608E-02  0.1093470E+00
          1   -1    0    0  502    0  0.00000000000E+00  0.00000000000E+00  0.41745523608E+02  0.41745523608E+02  0.00000000000E+00 0.  1.
         13   -1    0    0    0    0 -0.00000000000E+00 -0.00000000000E+00 -0.10000000000E+04  0.10000000000E+04  0.00000000000E+00 0.  1.
    9000005    2    1    2  501    0  0.86431817328E+01 -0.95767856624E+01 -0.97214077222E+03  0.10227916684E+04  0.31761406865E+03 0.  0.
         13    1    3    3    0    0  0.40081207337E+02  0.46045193529E+01  0.87599018898E+01  0.41284872062E+02  0.00000000000E+00 0.  1.
          3    1    3    3  501    0 -0.31438025604E+02 -0.14181305015E+02 -0.98090067411E+03  0.98150679637E+03  0.00000000000E+00 0.  1.
         21    1    1    2  502  501 -0.86431817328E+01  0.95767856624E+01  0.13886295826E+02  0.18953855171E+02  0.00000000000E+00 0.  1.
<mgrwt>
<rscale>  1 0.30000000E+03</rscale>
<asrwt>0</asrwt>
<pdfrwt beam="1">  1        1 0.15180222E+00 0.30000000E+03</pdfrwt>
<pdfrwt beam="2">0</pdfrwt>
<totfact> 0.17590760E+01</totfact>
</mgrwt>
</event>
<event>
 6    1  0.1901260E-004  0.3000000E+03  0.7818608E-02  0.1093470E+00
          1   -1    0    0  502    0  0.00000000000E+00  0.00000000000E+00  0.41411729383E+02  0.41411729383E+02  0.00000000000E+00 0.  1.
         13   -1    0    0    0    0 -0.00000000000E+00 -0.00000000000E+00 -0.10000000000E+04  0.10000000000E+04  0.00000000000E+00 0.  1.
    9000005    2    1    2  501    0  0.14184072129E+02  0.51277922333E+02 -0.91977034360E+03  0.97555245002E+03  0.32077170159E+03 0.  0.
         13    1    3    3    0    0 -0.88782260865E+02  0.34398756108E+02 -0.83692104120E+03  0.84231965041E+03  0.00000000000E+00 0.  1.
          3    1    3    3  501    0  0.10296633299E+03  0.16879166225E+02 -0.82849302409E+02  0.13323279961E+03  0.00000000000E+00 0.  1.
         21    1    1    2  502  501 -0.14184072129E+02 -0.51277922333E+02 -0.38817927012E+02  0.65859279365E+02  0.00000000000E+00 0. -1.
<mgrwt>
<rscale>  1 0.30000000E+03</rscale>
<asrwt>0</asrwt>
<pdfrwt beam="1">  1        1 0.15058842E+00 0.30000000E+03</pdfrwt>
<pdfrwt beam="2">0</pdfrwt>
<totfact> 0.17841712E+01</totfact>
</mgrwt>
</event>
<event>
 6    1  0.1901260E-004  0.3000000E+03  0.7818608E-02  0.1093470E+00
          1   -1    0    0  502    0  0.00000000000E+00  0.00000000000E+00  0.37466623493E+02  0.37466623493E+02  0.00000000000E+00 0.  1.
         13   -1    0    0    0    0 -0.00000000000E+00 -0.00000000000E+00 -0.10000000000E+04  0.10000000000E+04  0.00000000000E+00 0.  1.
    9000005    2    1    2  501    0 -0.77022163409E+01  0.11545269163E+02 -0.96962416282E+03  0.10218814823E+04  0.32230130202E+03 0.  0.
         13    1    3    3    0    0  0.11036223673E+03 -0.71017886730E+02 -0.20223547123E+03  0.24108618657E+03  0.00000000000E+00 0.  1.
          1    1    3    3  501    0 -0.11806445307E+03  0.82563155892E+02 -0.76738869160E+03  0.78079529569E+03  0.00000000000E+00 0.  1.
         21    1    1    2  502  501  0.77022163409E+01 -0.11545269163E+02  0.70907863175E+01  0.15585141231E+02  0.00000000000E+00 0.  1.
<mgrwt>
<rscale>  1 0.30000000E+03</rscale>
<asrwt>0</asrwt>
<pdfrwt beam="1">  1        1 0.13624255E+00 0.30000000E+03</pdfrwt>
<pdfrwt beam="2">0</pdfrwt>
<totfact> 0.21177363E+01</totfact>
</mgrwt>
</event>
<event>
 6    1  0.1901260E-004  0.3000000E+03  0.7818608E-02  0.1093470E+00
          1   -1    0    0  502    0  0.00000000000E+00  0.00000000000E+00  0.75907595544E+02  0.75907595544E+02  0.00000000000E+00 0.  1.
         13   -1    0    0    0    0 -0.00000000000E+00 -0.00000000000E+00 -0.10000000000E+04  0.10000000000E+04  0.00000000000E+00 0.  1.
    9000005    2    1    2  501    0  0.61756513033E+01  0.93565894181E+01 -0.95636372286E+03  0.10417444220E+04  0.41288519704E+03 0.  0.
         13    1    3    3    0    0  0.13470359667E+03 -0.15047548231E+03 -0.56289493245E+03  0.59802895808E+03  0.00000000000E+00 0.  1.
          1    1    3    3  501    0 -0.12852794537E+03  0.15983207172E+03 -0.39346879042E+03  0.44371546392E+03  0.00000000000E+00 0.  1.
         21    1    1    2  502  501 -0.61756513033E+01 -0.93565894181E+01  0.32271318407E+02  0.34163173539E+02  0.00000000000E+00 0. -1.
<mgrwt>
<rscale>  1 0.30000000E+03</rscale>
<asrwt>0</asrwt>
<pdfrwt beam="1">  1        1 0.27602820E+00 0.30000000E+03</pdfrwt>
<pdfrwt beam="2">0</pdfrwt>
<totfact> 0.45062938E+00</totfact>
</mgrwt>
</event>
<event>
 6    1  0.1901260E-004  0.3000000E+03  0.7818608E-02  0.1093470E+00
          1   -1    0    0  502    0  0.00000000000E+00  0.00000000000E+00  0.37157583257E+02  0.37157583257E+02  0.00000000000E+00 0.  1.
         13   -1    0    0    0    0 -0.00000000000E+00 -0.00000000000E+00 -0.10000000000E+04  0.10000000000E+04  0.00000000000E+00 0.  1.
    9000005    2    1    2  501    0 -0.24665596244E+02  0.12082083270E+02 -0.95364372292E+03  0.10081923568E+04  0.32597716136E+03 0.  0.
         13    1    3    3    0    0 -0.16702782679E+03  0.57602744311E+02 -0.55538511130E+03  0.58281128414E+03  0.00000000000E+00 0.  1.
          3    1    3    3  501    0  0.14236223054E+03 -0.45520661041E+02 -0.39825861162E+03  0.42538107268E+03  0.00000000000E+00 0.  1.
         21    1    1    2  502  501  0.24665596244E+02 -0.12082083270E+02 -0.91986938258E+01  0.28965226433E+02  0.00000000000E+00 0.  1.
<mgrwt>
<rscale>  1 0.30000000E+03</rscale>
<asrwt>0</asrwt>
<pdfrwt beam="1">  1        1 0.13511877E+00 0.30000000E+03</pdfrwt>
<pdfrwt beam="2">0</pdfrwt>
<totfact> 0.21471144E+01</totfact>
</mgrwt>
</event>
<event>
 6    1  0.1901260E-004  0.3000000E+03  0.7818608E-02  0.1093470E+00
          3   -1    0    0  502    0  0.00000000000E+00  0.00000000000E+00  0.57243226711E+01  0.57243226711E+01  0.00000000000E+00 0.  1.
         13   -1    0    0    0    0 -0.00000000000E+00 -0.00000000000E+00 -0.10000000000E+04  0.10000000000E+04  0.00000000000E+00 0.  1.
    9000005    2    1    2  501    0 -0.64049958051E+00  0.78101821439E+01 -0.93507558086E+03  0.94600782071E+03  0.14318884640E+03 0.  0.
         13    1    3    3    0    0  0.69001860708E+02  0.13058492687E+02 -0.36732876814E+03  0.37398155692E+03  0.00000000000E+00 0.  1.
          1    1    3    3  501    0 -0.69642360288E+02 -0.52483105427E+01 -0.56774681272E+03  0.57202626379E+03  0.00000000000E+00 0.  1.
         21    1    1    2  502  501  0.64049958051E+00 -0.78101821439E+01 -0.59200096468E+02  0.59716501963E+02  0.00000000000E+00 0.  1.
<mgrwt>
<rscale>  1 0.30000000E+03</rscale>
<asrwt>0</asrwt>
<pdfrwt beam="1">  1        3 0.20815763E-01 0.30000000E+03</pdfrwt>
<pdfrwt beam="2">0</pdfrwt>
<totfact> 0.92912437E+01</totfact>
</mgrwt>
</event>
<event>
 6    1  0.1901260E-004  0.3000000E+03  0.7818608E-02  0.1093470E+00
          1   -1    0    0  502    0  0.00000000000E+00  0.00000000000E+00  0.33753279544E+02  0.33753279544E+02  0.00000000000E+00 0.  1.
         13   -1    0    0    0    0 -0.00000000000E+00 -0.00000000000E+00 -0.10000000000E+04  0.10000000000E+04  0.00000000000E+00 0.  1.
    9000005    2    1    2  501    0 -0.14657931237E+01  0.11606739792E+02 -0.96672188079E+03  0.10220447043E+04  0.33149256060E+03 0.  0.
         13    1    3    3    0    0 -0.11097584703E+03 -0.11707248122E+03 -0.51942199032E+03  0.54389411517E+03  0.00000000000E+00 0.  1.
          3    1    3    3  501    0  0.10951005391E+03  0.12867922101E+03 -0.44729989047E+03  0.47815058908E+03  0.00000000000E+00 0.  1.
         21    1    1    2  502  501  0.14657931237E+01 -0.11606739792E+02  0.47516033304E+00  0.11708575294E+02  0.00000000000E+00 0. -1.
<mgrwt>
<rscale>  1 0.30000000E+03</rscale>
<asrwt>0</asrwt>
<pdfrwt beam="1">  1        1 0.12273946E+00 0.30000000E+03</pdfrwt>
<pdfrwt beam="2">0</pdfrwt>
<totfact> 0.25090404E+01</totfact>
</mgrwt>
</event>
<event>
 6    1  0.1901260E-004  0.3000000E+03  0.7818608E-02  0.1093470E+00
          1   -1    0    0  502    0  0.00000000000E+00  0.00000000000E+00  0.39076937862E+02  0.39076937862E+02  0.00000000000E+00 0.  1.
         13   -1    0    0    0    0 -0.00000000000E+00 -0.00000000000E+00 -0.10000000000E+04  0.10000000000E+04  0.00000000000E+00 0.  1.
    9000005    2    1    2  501    0 -0.36905382123E+01 -0.16001207795E+02 -0.97245718074E+03  0.10190096856E+04  0.30403636649E+03 0.  0.
         13    1    3    3    0    0  0.12502657668E+03 -0.84406437420E+02 -0.60917100445E+03  0.62757103520E+03  0.00000000000E+00 0.  1.
          1    1    3    3  501    0 -0.12871711489E+03  0.68405229625E+02 -0.36328617629E+03  0.39143865036E+03  0.00000000000E+00 0.  1.
         21    1    1    2  502  501  0.36905382123E+01  0.16001207795E+02  0.11534118606E+02  0.20067252308E+02  0.00000000000E+00 0. -1.
<mgrwt>
<rscale>  1 0.30000000E+03</rscale>
<asrwt>0</asrwt>
<pdfrwt beam="1">  1        1 0.14209826E+00 0.30000000E+03</pdfrwt>
<pdfrwt beam="2">0</pdfrwt>
<totfact> 0.19727814E+01</totfact>
</mgrwt>
</event>
<event>
 6    1  0.1901260E-004  0.3000000E+03  0.7818608E-02  0.1093470E+00
          1   -1    0    0  502    0  0.00000000000E+00  0.00000000000E+00  0.53377101921E+02  0.53377101921E+02  0.00000000000E+00 0.  1.
         13   -1    0    0    0    0 -0.00000000000E+00 -0.00000000000E+00 -0.10000000000E+04  0.10000000000E+04  0.00000000000E+00 0.  1.
    9000005    2    1    2  501    0  0.64286753461E+02 -0.95113159959E+02 -0.84382612581E+03  0.89927818480E+03  0.28892805886E+03 0.  0.
         13    1    3    3    0    0  0.25357127491E+02 -0.41031639041E+02  0.44034638734E+01  0.48435212512E+02  0.00000000000E+00 0.  1.
          3    1    3    3  501    0  0.38929625971E+02 -0.54081520918E+02 -0.84822958968E+03  0.85084297229E+03  0.00000000000E+00 0.  1.
         21    1    1    2  502  501 -0.64286753461E+02  0.95113159959E+02 -0.10279677227E+03  0.15409891712E+03  0.00000000000E+00 0. -1.
<mgrwt>
<rscale>  1 0.30000000E+03</rscale>
<asrwt>0</asrwt>
<pdfrwt beam="1">  1        1 0.19409896E+00 0.30000000E+03</pdfrwt>
<pdfrwt beam="2">0</pdfrwt>
<totfact> 0.10928508E+01</totfact>
</mgrwt>
</event>
<event>
 6    1  0.1901260E-004  0.3000000E+03  0.7818608E-02  0.1093470E+00
          1   -1    0    0  502    0  0.00000000000E+00  0.00000000000E+00  0.52902539123E+02  0.52902539123E+02  0.00000000000E+00 0.  1.
         13   -1    0    0    0    0 -0.00000000000E+00 -0.00000000000E+00 -0.10000000000E+04  0.10000000000E+04  0.00000000000E+00 0.  1.
    9000005    2    1    2  501    0 -0.71088833277E+01  0.78027559217E+01 -0.95628107505E+03  0.10389111850E+04  0.40589596760E+03 0.  0.
         13    1    3    3    0    0  0.18274011414E+03  0.42418586596E+02 -0.65321890066E+03  0.67962358552E+03  0.00000000000E+00 0.  1.
          3    1    3    3  501    0 -0.18984899746E+03 -0.34615830674E+02 -0.30306217438E+03  0.35928759944E+03  0.00000000000E+00 0.  1.
         21    1    1    2  502  501  0.71088833277E+01 -0.78027559217E+01  0.91836141709E+01  0.13991354165E+02  0.00000000000E+00 0. -1.
<mgrwt>
<rscale>  1 0.30000000E+03</rscale>
<asrwt>0</asrwt>
<pdfrwt beam="1">  1        1 0.19237328E+00 0.30000000E+03</pdfrwt>
<pdfrwt beam="2">0</pdfrwt>
<totfact> 0.11138297E+01</totfact>
</mgrwt>
</event>
<event>
 6    1  0.1901260E-004  0.3000000E+03  0.7818608E-02  0.1093470E+00
          1   -1    0    0  502    0  0.00000000000E+00  0.00000000000E+00  0.40388934170E+02  0.40388934170E+02  0.00000000000E+00 0.  1.
         13   -1    0    0    0    0 -0.00000000000E+00 -0.00000000000E+00 -0.10000000000E+04  0.10000000000E+04  0.00000000000E+00 0.  1.
    9000005    2    1    2  501    0  0.12008967011E+02  0.95818011913E+01 -0.96964279880E+03  0.10220405863E+04  0.32268216033E+03 0.  0.
         13    1    3    3    0    0 -0.79679021844E+02 -0.41966890272E+02 -0.64413549410E+02  0.11072069250E+03  0.00000000000E+00 0.  1.
          3    1    3    3  501    0  0.91687988855E+02  0.51548691463E+02 -0.90522924939E+03  0.91131989381E+03  0.00000000000E+00 0.  1.
         21    1    1    2  502  501 -0.12008967011E+02 -0.95818011913E+01  0.10031732972E+02  0.18348347859E+02  0.00000000000E+00 0.  1.
<mgrwt>
<rscale>  1 0.30000000E+03</rscale>
<asrwt>0</asrwt>
<pdfrwt beam="1">  1        1 0.14686916E+00 0.30000000E+03</pdfrwt>
<pdfrwt beam="2">0</pdfrwt>
<totfact> 0.18638788E+01</totfact>
</mgrwt>
</event>
<event>
 6    1  0.1901260E-004  0.3000000E+03  0.7818608E-02  0.1093470E+00
          1   -1    0    0  502    0  0.00000000000E+00  0.00000000000E+00  0.41056346856E+02  0.41056346856E+02  0.00000000000E+00 0.  1.
         13   -1    0    0    0    0 -0.00000000000E+00 -0.00000000000E+00 -0.10000000000E+04  0.10000000000E+04  0.00000000000E+00 0.  1.
    9000005    2    1    2  501    0 -0.39234335960E+02  0.16925381906E+02 -0.93095887429E+03  0.98997846986E+03  0.33398674150E+03 0.  0.
         13    1    3    3    0    0 -0.52879393359E+02 -0.95590648932E+02 -0.90351497399E+02  0.14176457769E+03  0.00000000000E+00 0.  1.
          1    1    3    3  501    0  0.13645057398E+02  0.11251603084E+03 -0.84060737689E+03  0.84821389217E+03  0.00000000000E+00 0.  1.
         21    1    1    2  502  501  0.39234335960E+02 -0.16925381906E+02 -0.27984778852E+02  0.51077876995E+02  0.00000000000E+00 0. -1.
<mgrwt>
<rscale>  1 0.30000000E+03</rscale>
<asrwt>0</asrwt>
<pdfrwt beam="1">  1        1 0.14929612E+00 0.30000000E+03</pdfrwt>
<pdfrwt beam="2">0</pdfrwt>
<totfact> 0.18113766E+01</totfact>
</mgrwt>
</event>
<event>
 6    1  0.1901260E-004  0.3000000E+03  0.7818608E-02  0.1093470E+00
          1   -1    0    0  502    0  0.00000000000E+00  0.00000000000E+00  0.27307749680E+02  0.27307749680E+02  0.00000000000E+00 0.  1.
         13   -1    0    0    0    0 -0.00000000000E+00 -0.00000000000E+00 -0.10000000000E+04  0.10000000000E+04  0.00000000000E+00 0.  1.
    9000005    2    1    2  501    0 -0.91319523536E+01 -0.15095786611E+01 -0.96022462113E+03  0.10117799308E+04  0.31871873802E+03 0.  0.
         13    1    3    3    0    0  0.76637760888E+02 -0.13619547762E+03 -0.54309824981E+03  0.56513561511E+03  0.00000000000E+00 0.  1.
          1    1    3    3  501    0 -0.85769713242E+02  0.13468589896E+03 -0.41712637132E+03  0.44664431569E+03  0.00000000000E+00 0.  1.
         21    1    1    2  502  501  0.91319523536E+01  0.15095786611E+01 -0.12467629194E+02  0.15527818882E+02  0.00000000000E+00 0. -1.
<mgrwt>
<rscale>  1 0.30000000E+03</rscale>
<asrwt>0</asrwt>
<pdfrwt beam="1">  1        1 0.99301117E-01 0.30000000E+03</pdfrwt>
<pdfrwt beam="2">0</pdfrwt>
<totfact> 0.34579346E+01</totfact>
</mgrwt>
</event>
<event>
 6    1  0.1901260E-004  0.3000000E+03  0.7818608E-02  0.1093470E+00
          1   -1    0    0  502    0  0.00000000000E+00  0.00000000000E+00  0.23532318898E+02  0.23532318898E+02  0.00000000000E+00 0.  1.
         13   -1    0    0    0    0 -0.00000000000E+00 -0.00000000000E+00 -0.10000000000E+04  0.10000000000E+04  0.00000000000E+00 0.  1.
    9000005    2    1    2  501    0 -0.19972405943E+01 -0.13197708201E+02 -0.98024917027E+03  0.10096590305E+04  0.24154658662E+03 0.  0.
         13    1    3    3    0    0  0.29328533982E+02  0.34534775166E+02 -0.93684515978E+03  0.93794011909E+03  0.00000000000E+00 0.  1.
          3    1    3    3  501    0 -0.31325774577E+02 -0.47732483367E+02 -0.43404010489E+02  0.71718911368E+02  0.00000000000E+00 0.  1.
         21    1    1    2  502  501  0.19972405943E+01  0.13197708201E+02  0.37814891665E+01  0.13873288437E+02  0.00000000000E+00 0. -1.
<mgrwt>
<rscale>  1 0.30000000E+03</rscale>
<asrwt>0</asrwt>
<pdfrwt beam="1">  1        1 0.85572249E-01 0.30000000E+03</pdfrwt>
<pdfrwt beam="2">0</pdfrwt>
<totfact> 0.42765670E+01</totfact>
</mgrwt>
</event>
<event>
 6    1  0.1901260E-004  0.3000000E+03  0.7818608E-02  0.1093470E+00
          1   -1    0    0  502    0  0.00000000000E+00  0.00000000000E+00  0.32643822052E+02  0.32643822052E+02  0.00000000000E+00 0.  1.
         13   -1    0    0    0    0 -0.00000000000E+00 -0.00000000000E+00 -0.10000000000E+04  0.10000000000E+04  0.00000000000E+00 0.  1.
    9000005    2    1    2  501    0  0.46812047156E+01  0.27449901478E+02 -0.94257043520E+03  0.99536455419E+03  0.31864739079E+03 0.  0.
         13    1    3    3    0    0 -0.97165000206E+02 -0.51579186482E+02 -0.78080399146E+03  0.78851526480E+03  0.00000000000E+00 0.  1.
          3    1    3    3  501    0  0.10184620492E+03  0.79029087961E+02 -0.16176644374E+03  0.20684928939E+03  0.00000000000E+00 0.  1.
         21    1    1    2  502  501 -0.46812047156E+01 -0.27449901478E+02 -0.24785742752E+02  0.37279267865E+02  0.00000000000E+00 0.  1.
<mgrwt>
<rscale>  1 0.30000000E+03</rscale>
<asrwt>0</asrwt>
<pdfrwt beam="1">  1        1 0.11870506E+00 0.30000000E+03</pdfrwt>
<pdfrwt beam="2">0</pdfrwt>
<totfact> 0.26439311E+01</totfact>
</mgrwt>
</event>
<event>
 6    1  0.1901260E-004  0.3000000E+03  0.7818608E-02  0.1093470E+00
          1   -1    0    0  502    0  0.00000000000E+00  0.00000000000E+00  0.37024503322E+02  0.37024503322E+02  0.00000000000E+00 0.  1.
         13   -1    0    0    0    0 -0.00000000000E+00 -0.00000000000E+00 -0.10000000000E+04  0.10000000000E+04  0.00000000000E+00 0.  1.
    9000005    2    1    2  501    0  0.12377420127E+02  0.25982657729E+01 -0.97070229828E+03  0.10222037416E+04  0.32012120520E+03 0.  0.
         13    1    3    3    0    0  0.11669012588E+03  0.32795769651E+02 -0.85489397524E+03  0.86344418285E+03  0.00000000000E+00 0.  1.
          1    1    3    3  501    0 -0.10431270575E+03 -0.30197503878E+02 -0.11580832303E+03  0.15875955879E+03  0.00000000000E+00 0.  1.
         21    1    1    2  502  501 -0.12377420127E+02 -0.25982657729E+01  0.77268016003E+01  0.14820761687E+02  0.00000000000E+00 0.  1.
<mgrwt>
<rscale>  1 0.30000000E+03</rscale>
<asrwt>0</asrwt>
<pdfrwt beam="1">  1        1 0.13463484E+00 0.30000000E+03</pdfrwt>
<pdfrwt beam="2">0</pdfrwt>
<totfact> 0.21599328E+01</totfact>
</mgrwt>
</event>
<event>
 6    1  0.1901260E-004  0.3000000E+03  0.7818608E-02  0.1093470E+00
          1   -1    0    0  502    0  0.00000000000E+00  0.00000000000E+00  0.37012721583E+02  0.37012721583E+02  0.00000000000E+00 0.  1.
         13   -1    0    0    0    0 -0.00000000000E+00 -0.00000000000E+00 -0.10000000000E+04  0.10000000000E+04  0.00000000000E+00 0.  1.
    9000005    2    1    2  501    0  0.12315627091E+02 -0.74124057195E+01 -0.96744822244E+03  0.10219621917E+04  0.32900461951E+03 0.  0.
         13    1    3    3    0    0  0.12744565308E+03 -0.10750469164E+03 -0.37887884746E+03  0.41394303263E+03  0.00000000000E+00 0.  1.
          1    1    3    3  501    0 -0.11513002599E+03  0.10009228592E+03 -0.58856937498E+03  0.60801915903E+03  0.00000000000E+00 0.  1.
         21    1    1    2  502  501 -0.12315627091E+02  0.74124057195E+01  0.44609440255E+01  0.15050529918E+02  0.00000000000E+00 0. -1.
<mgrwt>
<rscale>  1 0.30000000E+03</rscale>
<asrwt>0</asrwt>
<pdfrwt beam="1">  1        1 0.13459200E+00 0.30000000E+03</pdfrwt>
<pdfrwt beam="2">0</pdfrwt>
<totfact> 0.21610725E+01</totfact>
</mgrwt>
</event>
<event>
 6    1  0.1901260E-004  0.3000000E+03  0.7818608E-02  0.1093470E+00
          1   -1    0    0  502    0  0.00000000000E+00  0.00000000000E+00  0.32255509749E+02  0.32255509749E+02  0.00000000000E+00 0.  1.
         13   -1    0    0    0    0 -0.00000000000E+00 -0.00000000000E+00 -0.10000000000E+04  0.10000000000E+04  0.00000000000E+00 0.  1.
    9000005    2    1    2  501    0  0.49460291084E+01 -0.28156460032E+02 -0.92754042049E+03  0.98292380929E+03  0.32402273650E+03 0.  0.
         13    1    3    3    0    0 -0.36324630500E+01  0.12698126809E+03 -0.67163486046E+03  0.68354284651E+03  0.00000000000E+00 0.  1.
          3    1    3    3  501    0  0.85784921584E+01 -0.15513772812E+03 -0.25590556004E+03  0.29938096278E+03  0.00000000000E+00 0.  1.
         21    1    1    2  502  501 -0.49460291084E+01  0.28156460032E+02 -0.40204069756E+02  0.49331700462E+02  0.00000000000E+00 0. -1.
<mgrwt>
<rscale>  1 0.30000000E+03</rscale>
<asrwt>0</asrwt>
<pdfrwt beam="1">  1        1 0.11729301E+00 0.30000000E+03</pdfrwt>
<pdfrwt beam="2">0</pdfrwt>
<totfact> 0.26934460E+01</totfact>
</mgrwt>
</event>
<event>
 6    1  0.1901260E-004  0.3000000E+03  0.7818608E-02  0.1093470E+00
          1   -1    0    0  502    0  0.00000000000E+00  0.00000000000E+00  0.29319446776E+02  0.29319446776E+02  0.00000000000E+00 0.  1.
         13   -1    0    0    0    0 -0.00000000000E+00 -0.00000000000E+00 -0.10000000000E+04  0.10000000000E+04  0.00000000000E+00 0.  1.
    9000005    2    1    2  501    0  0.12186563221E+02  0.23877367772E+01 -0.96987956337E+03  0.10168753641E+04  0.30531119364E+03 0.  0.
         13    1    3    3    0    0 -0.24354781680E+01 -0.20535776373E+02  0.18724628339E+02  0.27897336281E+02  0.00000000000E+00 0.  1.
          1    1    3    3  501    0  0.14622041389E+02  0.22923513150E+02 -0.98860419171E+03  0.98897802777E+03  0.00000000000E+00 0.  1.
         21    1    1    2  502  501 -0.12186563221E+02 -0.23877367772E+01 -0.80098985386E+00  0.12444082723E+02  0.00000000000E+00 0.  1.
<mgrwt>
<rscale>  1 0.30000000E+03</rscale>
<asrwt>0</asrwt>
<pdfrwt beam="1">  1        1 0.10661639E+00 0.30000000E+03</pdfrwt>
<pdfrwt beam="2">0</pdfrwt>
<totfact> 0.31136305E+01</totfact>
</mgrwt>
</event>
<event>
 6    1  0.1901260E-004  0.3000000E+03  0.7818608E-02  0.1093470E+00
          1   -1    0    0  502    0  0.00000000000E+00  0.00000000000E+00  0.31364677477E+02  0.31364677477E+02  0.00000000000E+00 0.  1.
         13   -1    0    0    0    0 -0.00000000000E+00 -0.00000000000E+00 -0.10000000000E+04  0.10000000000E+04  0.00000000000E+00 0.  1.
    9000005    2    1    2  501    0  0.77767775477E+00 -0.92128168149E+01 -0.94908560944E+03  0.10097389507E+04  0.34456316368E+03 0.  0.
         13    1    3    3    0    0 -0.16646061589E+03  0.85281645181E+01 -0.35281868517E+03  0.39020877852E+03  0.00000000000E+00 0.  1.
          1    1    3    3  501    0  0.16723829364E+03 -0.17740981333E+02 -0.59626692427E+03  0.61953017219E+03  0.00000000000E+00 0.  1.
         21    1    1    2  502  501 -0.77767775477E+00  0.92128168149E+01 -0.19549713083E+02  0.21625726762E+02  0.00000000000E+00 0.  1.
<mgrwt>
<rscale>  1 0.30000000E+03</rscale>
<asrwt>0</asrwt>
<pdfrwt beam="1">  1        1 0.11405361E+00 0.30000000E+03</pdfrwt>
<pdfrwt beam="2">0</pdfrwt>
<totfact> 0.28119856E+01</totfact>
</mgrwt>
</event>
<event>
 6    1  0.1901260E-004  0.3000000E+03  0.7818608E-02  0.1093470E+00
          1   -1    0    0  502    0  0.00000000000E+00  0.00000000000E+00  0.36733360647E+02  0.36733360647E+02  0.00000000000E+00 0.  1.
         13   -1    0    0    0    0 -0.00000000000E+00 -0.00000000000E+00 -0.10000000000E+04  0.10000000000E+04  0.00000000000E+00 0.  1.
    9000005    2    1    2  501    0  0.25536067163E+02  0.23343368695E+01 -0.95674433741E+03  0.10102743305E+04  0.32347636051E+03 0.  0.
         13    1    3    3    0    0  0.22767379394E+01  0.13678569396E+03 -0.20638099062E+03  0.24760578123E+03  0.00000000000E+00 0.  1.
          1    1    3    3  501    0  0.23259329224E+02 -0.13445135709E+03 -0.75036334678E+03  0.76266854925E+03  0.00000000000E+00 0.  1.
         21    1    1    2  502  501 -0.25536067163E+02 -0.23343368695E+01 -0.65223019462E+01  0.26459030169E+02  0.00000000000E+00 0.  1.
<mgrwt>
<rscale>  1 0.30000000E+03</rscale>
<asrwt>0</asrwt>
<pdfrwt beam="1">  1        1 0.13357614E+00 0.30000000E+03</pdfrwt>
<pdfrwt beam="2">0</pdfrwt>
<totfact> 0.21883324E+01</totfact>
</mgrwt>
</event>
<event>
 6    1  0.1901260E-004  0.3000000E+03  0.7818608E-02  0.1093470E+00
          1   -1    0    0  502    0  0.00000000000E+00  0.00000000000E+00  0.29523616562E+02  0.29523616562E+02  0.00000000000E+00 0.  1.
         13   -1    0    0    0    0 -0.00000000000E+00 -0.00000000000E+00 -0.10000000000E+04  0.10000000000E+04  0.00000000000E+00 0.  1.
    9000005    2    1    2  501    0 -0.14862064317E+02 -0.11697640403E+02 -0.95416121502E+03  0.10045456169E+04  0.31357703428E+03 0.  0.
         13    1    3    3    0    0  0.12246369293E+03 -0.85594921475E+02 -0.34948171058E+03  0.38008066604E+03  0.00000000000E+00 0.  1.
          3    1    3    3  501    0 -0.13732575725E+03  0.73897281072E+02 -0.60467950445E+03  0.62446495086E+03  0.00000000000E+00 0.  1.
         21    1    1    2  502  501  0.14862064317E+02  0.11697640403E+02 -0.16315168414E+02  0.24977999662E+02  0.00000000000E+00 0.  1.
<mgrwt>
<rscale>  1 0.30000000E+03</rscale>
<asrwt>0</asrwt>
<pdfrwt beam="1">  1        1 0.10735883E+00 0.30000000E+03</pdfrwt>
<pdfrwt beam="2">0</pdfrwt>
<totfact> 0.30814999E+01</totfact>
</mgrwt>
</event>
<event>
 6    1  0.1901260E-004  0.3000000E+03  0.7818608E-02  0.1093470E+00
          1   -1    0    0  502    0  0.00000000000E+00  0.00000000000E+00  0.26705397589E+02  0.26705397589E+02  0.00000000000E+00 0.  1.
         13   -1    0    0    0    0 -0.00000000000E+00 -0.00000000000E+00 -0.10000000000E+04  0.10000000000E+04  0.00000000000E+00 0.  1.
    9000005    2    1    2  501    0 -0.10747098757E+02 -0.13020191248E+02 -0.96123072360E+03  0.10059553932E+04  0.29613632590E+03 0.  0.
         13    1    3    3    0    0 -0.32629566616E+02 -0.81615483913E+02 -0.91752908163E+03  0.92172956525E+03  0.00000000000E+00 0.  1.
          3    1    3    3  501    0  0.21882467859E+02  0.68595292665E+02 -0.43701641978E+02  0.84225827909E+02  0.00000000000E+00 0.  1.
         21    1    1    2  502  501  0.10747098757E+02  0.13020191248E+02 -0.12063878807E+02  0.20750004427E+02  0.00000000000E+00 0.  1.
<mgrwt>
<rscale>  1 0.30000000E+03</rscale>
<asrwt>0</asrwt>
<pdfrwt beam="1">  1        1 0.97110741E-01 0.30000000E+03</pdfrwt>
<pdfrwt beam="2">0</pdfrwt>
<totfact> 0.35719178E+01</totfact>
</mgrwt>
</event>
<event>
 6    1  0.1901260E-004  0.3000000E+03  0.7818608E-02  0.1093470E+00
          1   -1    0    0  502    0  0.00000000000E+00  0.00000000000E+00  0.41684659194E+02  0.41684659194E+02  0.00000000000E+00 0.  1.
         13   -1    0    0    0    0 -0.00000000000E+00 -0.00000000000E+00 -0.10000000000E+04  0.10000000000E+04  0.00000000000E+00 0.  1.
    9000005    2    1    2  501    0  0.25396730064E+02 -0.53120228959E+02 -0.84161669220E+03  0.91097380574E+03  0.34363915019E+03 0.  0.
         13    1    3    3    0    0  0.11206698127E+03 -0.10342035411E+03 -0.15629376300E+03  0.21836327138E+03  0.00000000000E+00 0.  1.
          3    1    3    3  501    0 -0.86670251205E+02  0.50300125146E+02 -0.68532292919E+03  0.69261053436E+03  0.00000000000E+00 0.  1.
         21    1    1    2  502  501 -0.25396730064E+02  0.53120228959E+02 -0.11669864861E+03  0.13071085345E+03  0.00000000000E+00 0. -1.
<mgrwt>
<rscale>  1 0.30000000E+03</rscale>
<asrwt>0</asrwt>
<pdfrwt beam="1">  1        1 0.15158090E+00 0.30000000E+03</pdfrwt>
<pdfrwt beam="2">0</pdfrwt>
<totfact> 0.17636194E+01</totfact>
</mgrwt>
</event>
<event>
 6    1  0.1901260E-004  0.3000000E+03  0.7818608E-02  0.1093470E+00
          1   -1    0    0  502    0  0.00000000000E+00  0.00000000000E+00  0.29928908419E+02  0.29928908419E+02  0.00000000000E+00 0.  1.
         13   -1    0    0    0    0 -0.00000000000E+00 -0.00000000000E+00 -0.10000000000E+04  0.10000000000E+04  0.00000000000E+00 0.  1.
    9000005    2    1    2  501    0 -0.34530823981E+01 -0.14515836632E+02 -0.95769418125E+03  0.10105428000E+04  0.32217382342E+03 0.  0.
         13    1    3    3    0    0 -0.16174280324E+02 -0.67116716636E+01  0.23460067571E+02  0.29275051682E+02  0.00000000000E+00 0.  1.
          3    1    3    3  501    0  0.12721197926E+02 -0.78041649684E+01 -0.98115424882E+03  0.98126774829E+03  0.00000000000E+00 0.  1.
         21    1    1    2  502  501  0.34530823981E+01  0.14515836632E+02 -0.12376910335E+02  0.19386108444E+02  0.00000000000E+00 0. -1.
<mgrwt>
<rscale>  1 0.30000000E+03</rscale>
<asrwt>0</asrwt>
<pdfrwt beam="1">  1        1 0.10883262E+00 0.30000000E+03</pdfrwt>
<pdfrwt beam="2">0</pdfrwt>
<totfact> 0.30191107E+01</totfact>
</mgrwt>
</event>
<event>
 6    1  0.1901260E-004  0.3000000E+03  0.7818608E-02  0.1093470E+00
          1   -1    0    0  502    0  0.00000000000E+00  0.00000000000E+00  0.45218251334E+02  0.45218251334E+02  0.00000000000E+00 0.  1.
         13   -1    0    0    0    0 -0.00000000000E+00 -0.00000000000E+00 -0.10000000000E+04  0.10000000000E+04  0.00000000000E+00 0.  1.
    9000005    2    1    2  501    0 -0.63765639538E+02 -0.92613179716E+01 -0.90696919099E+03  0.96498191625E+03  0.32317975878E+03 0.  0.
         13    1    3    3    0    0 -0.83919518849E+02 -0.93751506216E+02 -0.85405336950E+03  0.86327225631E+03  0.00000000000E+00 0.  1.
          3    1    3    3  501    0  0.20153879311E+02  0.84490188245E+02 -0.52915821493E+02  0.10170965994E+03  0.00000000000E+00 0.  1.
         21    1    1    2  502  501  0.63765639538E+02  0.92613179716E+01 -0.47812557671E+02  0.80236335081E+02  0.00000000000E+00 0.  1.
<mgrwt>
<rscale>  1 0.30000000E+03</rscale>
<asrwt>0</asrwt>
<pdfrwt beam="1">  1        1 0.16443035E+00 0.30000000E+03</pdfrwt>
<pdfrwt beam="2">0</pdfrwt>
<totfact> 0.15215319E+01</totfact>
</mgrwt>
</event>
<event>
 6    1  0.1901260E-004  0.3000000E+03  0.7818608E-02  0.1093470E+00
          1   -1    0    0  502    0  0.00000000000E+00  0.00000000000E+00  0.46085433212E+02  0.46085433212E+02  0.00000000000E+00 0.  1.
         13   -1    0    0    0    0 -0.00000000000E+00 -0.00000000000E+00 -0.10000000000E+04  0.10000000000E+04  0.00000000000E+00 0.  1.
    9000005    2    1    2  501    0 -0.13856423687E+02  0.90991891352E+01 -0.95691074806E+03  0.10292398753E+04  0.37865782094E+03 0.  0.
         13    1    3    3    0    0  0.60577393675E+02 -0.17017856750E+03 -0.53857953474E+03  0.56806538418E+03  0.00000000000E+00 0.  1.
          1    1    3    3  501    0 -0.74433817361E+02  0.17927775663E+03 -0.41833121332E+03  0.46117449109E+03  0.00000000000E+00 0.  1.
         21    1    1    2  502  501  0.13856423687E+02 -0.90991891352E+01  0.29961812738E+01  0.16845557946E+02  0.00000000000E+00 0.  1.
<mgrwt>
<rscale>  1 0.30000000E+03</rscale>
<asrwt>0</asrwt>
<pdfrwt beam="1">  1        1 0.16758375E+00 0.30000000E+03</pdfrwt>
<pdfrwt beam="2">0</pdfrwt>
<totfact> 0.14681713E+01</totfact>
</mgrwt>
</event>
<event>
 6    1  0.1901260E-004  0.3000000E+03  0.7818608E-02  0.1093470E+00
          1   -1    0    0  502    0  0.00000000000E+00  0.00000000000E+00  0.29849499048E+02  0.29849499048E+02  0.00000000000E+00 0.  1.
         13   -1    0    0    0    0 -0.00000000000E+00 -0.00000000000E+00 -0.10000000000E+04  0.10000000000E+04  0.00000000000E+00 0.  1.
    9000005    2    1    2  501    0  0.35287775270E+01  0.17442906550E+02 -0.95183539116E+03  0.10043122614E+04  0.31989967066E+03 0.  0.
         13    1    3    3    0    0  0.97707560489E+02 -0.58487092295E+02 -0.12669172539E+03  0.17034758767E+03  0.00000000000E+00 0.  1.
          3    1    3    3  501    0 -0.94178782962E+02  0.75929998846E+02 -0.82514366576E+03  0.83396467373E+03  0.00000000000E+00 0.  1.
         21    1    1    2  502  501 -0.35287775270E+01 -0.17442906550E+02 -0.18315109795E+02  0.25537237646E+02  0.00000000000E+00 0.  1.
<mgrwt>
<rscale>  1 0.30000000E+03</rscale>
<asrwt>0</asrwt>
<pdfrwt beam="1">  1        1 0.10854386E+00 0.30000000E+03</pdfrwt>
<pdfrwt beam="2">0</pdfrwt>
<totfact> 0.30311915E+01</totfact>
</mgrwt>
</event>
<event>
 6    1  0.1901260E-004  0.3000000E+03  0.7818608E-02  0.1093470E+00
          1   -1    0    0  502    0  0.00000000000E+00  0.00000000000E+00  0.28159229170E+02  0.28159229170E+02  0.00000000000E+00 0.  1.
         13   -1    0    0    0    0 -0.00000000000E+00 -0.00000000000E+00 -0.10000000000E+04  0.10000000000E+04  0.00000000000E+00 0.  1.
    9000005    2    1    2  501    0  0.46890109014E+01  0.65884238135E+01 -0.95336265991E+03  0.10079890845E+04  0.32722505875E+03 0.  0.
         13    1    3    3    0    0  0.22015504391E+02 -0.40167030110E+02 -0.95690514244E+03  0.95800079560E+03  0.00000000000E+00 0.  1.
          3    1    3    3  501    0 -0.17326493490E+02  0.46755453924E+02  0.35424825261E+01  0.49988288936E+02  0.00000000000E+00 0.  1.
         21    1    1    2  502  501 -0.46890109014E+01 -0.65884238135E+01 -0.18478110919E+02  0.20170144637E+02  0.00000000000E+00 0. -1.
<mgrwt>
<rscale>  1 0.30000000E+03</rscale>
<asrwt>0</asrwt>
<pdfrwt beam="1">  1        1 0.10239741E+00 0.30000000E+03</pdfrwt>
<pdfrwt beam="2">0</pdfrwt>
<totfact> 0.33057414E+01</totfact>
</mgrwt>
</event>
<event>
 6    1  0.1901260E-004  0.3000000E+03  0.7818608E-02  0.1093470E+00
          1   -1    0    0  502    0  0.00000000000E+00  0.00000000000E+00  0.29772562751E+02  0.29772562751E+02  0.00000000000E+00 0.  1.
         13   -1    0    0    0    0 -0.00000000000E+00 -0.00000000000E+00 -0.10000000000E+04  0.10000000000E+04  0.00000000000E+00 0.  1.
    9000005    2    1    2  501    0  0.10756055726E+02 -0.10106498097E+01 -0.95839414091E+03  0.10137494217E+04  0.33022999025E+03 0.  0.
         13    1    3    3    0    0  0.47162214569E+02 -0.19394229366E+02  0.33845212172E+01  0.51106414466E+02  0.00000000000E+00 0.  1.
          1    1    3    3  501    0 -0.36406158843E+02  0.18383579556E+02 -0.96177866212E+03  0.96264300720E+03  0.00000000000E+00 0.  1.
         21    1    1    2  502  501 -0.10756055726E+02  0.10106498097E+01 -0.11833296342E+02  0.16023141082E+02  0.00000000000E+00 0.  1.
<mgrwt>
<rscale>  1 0.30000000E+03</rscale>
<asrwt>0</asrwt>
<pdfrwt beam="1">  1        1 0.10826409E+00 0.30000000E+03</pdfrwt>
<pdfrwt beam="2">0</pdfrwt>
<totfact> 0.30429621E+01</totfact>
</mgrwt>
</event>
<event>
 6    1  0.1901260E-004  0.3000000E+03  0.7818608E-02  0.1093470E+00
          1   -1    0    0  502    0  0.00000000000E+00  0.00000000000E+00  0.38973838039E+02  0.38973838039E+02  0.00000000000E+00 0.  1.
         13   -1    0    0    0    0 -0.00000000000E+00 -0.00000000000E+00 -0.10000000000E+04  0.10000000000E+04  0.00000000000E+00 0.  1.
    9000005    2    1    2  501    0 -0.40257244881E+02 -0.12522906027E+02 -0.89856930877E+03  0.96361916034E+03  0.34548171380E+03 0.  0.
         13    1    3    3    0    0 -0.14697918590E+03  0.61840638513E+02 -0.21441606655E+03  0.26721039510E+03  0.00000000000E+00 0.  1.
          1    1    3    3  501    0  0.10672194101E+03 -0.74363544540E+02 -0.68415324222E+03  0.69640876523E+03  0.00000000000E+00 0.  1.
         21    1    1    2  502  501  0.40257244881E+02  0.12522906027E+02 -0.62456853192E+02  0.75354677701E+02  0.00000000000E+00 0.  1.
<mgrwt>
<rscale>  1 0.30000000E+03</rscale>
<asrwt>0</asrwt>
<pdfrwt beam="1">  1        1 0.14172335E+00 0.30000000E+03</pdfrwt>
<pdfrwt beam="2">0</pdfrwt>
<totfact> 0.19816760E+01</totfact>
</mgrwt>
</event>
<event>
 6    1  0.1901260E-004  0.3000000E+03  0.7818608E-02  0.1093470E+00
          3   -1    0    0  502    0  0.00000000000E+00  0.00000000000E+00  0.27991618052E+02  0.27991618052E+02  0.00000000000E+00 0.  1.
         13   -1    0    0    0    0 -0.00000000000E+00 -0.00000000000E+00 -0.10000000000E+04  0.10000000000E+04  0.00000000000E+00 0.  1.
    9000005    2    1    2  501    0 -0.10493457972E+02  0.79077659040E+01 -0.95799595920E+03  0.10087824168E+04  0.31577374996E+03 0.  0.
         13    1    3    3    0    0 -0.57296167110E+01 -0.11331445414E+03 -0.80771785064E+03  0.81564766920E+03  0.00000000000E+00 0.  1.
          3    1    3    3  501    0 -0.47638412614E+01  0.12122222004E+03 -0.15027810856E+03  0.19313474759E+03  0.00000000000E+00 0.  1.
         21    1    1    2  502  501  0.10493457972E+02 -0.79077659040E+01 -0.14012422746E+02  0.19209201260E+02  0.00000000000E+00 0.  1.
<mgrwt>
<rscale>  1 0.30000000E+03</rscale>
<asrwt>0</asrwt>
<pdfrwt beam="1">  1        3 0.10178792E+00 0.30000000E+03</pdfrwt>
<pdfrwt beam="2">0</pdfrwt>
<totfact> 0.37376015E+00</totfact>
</mgrwt>
</event>
<event>
 6    1  0.1901260E-004  0.3000000E+03  0.7818608E-02  0.1093470E+00
          1   -1    0    0  502    0  0.00000000000E+00  0.00000000000E+00  0.38928468837E+02  0.38928468837E+02  0.00000000000E+00 0.  1.
         13   -1    0    0    0    0 -0.00000000000E+00 -0.00000000000E+00 -0.10000000000E+04  0.10000000000E+04  0.00000000000E+00 0.  1.
    9000005    2    1    2  501    0  0.46189005038E+01  0.13194589341E+02 -0.96812928071E+03  0.10232682243E+04  0.33107117557E+03 0.  0.
         13    1    3    3    0    0 -0.13175949438E+03  0.76967958352E+02 -0.69339846305E+03  0.70999018271E+03  0.00000000000E+00 0.  1.
          3    1    3    3  501    0  0.13637839488E+03 -0.63773369012E+02 -0.27473081766E+03  0.31327804161E+03  0.00000000000E+00 0.  1.
         21    1    1    2  502  501 -0.46189005038E+01 -0.13194589341E+02  0.70577495490E+01  0.15660244520E+02  0.00000000000E+00 0. -1.
<mgrwt>
<rscale>  1 0.30000000E+03</rscale>
<asrwt>0</asrwt>
<pdfrwt beam="1">  1        1 0.14155837E+00 0.30000000E+03</pdfrwt>
<pdfrwt beam="2">0</pdfrwt>
<totfact> 0.19856062E+01</totfact>
</mgrwt>
</event>
<event>
 6    1  0.1901260E-004  0.3000000E+03  0.7818608E-02  0.1093470E+00
          1   -1    0    0  502    0  0.00000000000E+00  0.00000000000E+00  0.57493749486E+02  0.57493749486E+02  0.00000000000E+00 0.  1.
         13   -1    0    0    0    0 -0.00000000000E+00 -0.00000000000E+00 -0.10000000000E+04  0.10000000000E+04  0.00000000000E+00 0.  1.
    9000005    2    1    2  501    0  0.61461925774E+02  0.42060554412E+02 -0.91112510061E+03  0.97667645476E+03  0.34380414449E+03 0.  0.
         13    1    3    3    0    0 -0.29632128385E+02  0.94309911817E+01 -0.87159829813E+03  0.87215285353E+03  0.00000000000E+00 0.  1.
          3    1    3    3  501    0  0.91094054159E+02  0.32629563230E+02 -0.39526802482E+02  0.10452360123E+03  0.00000000000E+00 0.  1.
         21    1    1    2  502  501 -0.61461925774E+02 -0.42060554412E+02 -0.31381149906E+02  0.80817294725E+02  0.00000000000E+00 0.  1.
<mgrwt>
<rscale>  1 0.30000000E+03</rscale>
<asrwt>0</asrwt>
<pdfrwt beam="1">  1        1 0.20906862E+00 0.30000000E+03</pdfrwt>
<pdfrwt beam="2">0</pdfrwt>
<totfact> 0.92786527E+00</totfact>
</mgrwt>
</event>
<event>
 6    1  0.1901260E-004  0.3000000E+03  0.7818608E-02  0.1093470E+00
          1   -1    0    0  502    0  0.00000000000E+00  0.00000000000E+00  0.32380727514E+02  0.32380727514E+02  0.00000000000E+00 0.  1.
         13   -1    0    0    0    0 -0.00000000000E+00 -0.00000000000E+00 -0.10000000000E+04  0.10000000000E+04  0.00000000000E+00 0.  1.
    9000005    2    1    2  501    0 -0.10255244124E+02 -0.56266747471E+01 -0.96744250510E+03  0.10206819777E+04  0.32513054209E+03 0.  0.
         13    1    3    3    0    0  0.11107459874E+03 -0.86483365690E+02 -0.23556763412E+03  0.27442494287E+03  0.00000000000E+00 0.  1.
          3    1    3    3  501    0 -0.12132984286E+03  0.80856690943E+02 -0.73187487099E+03  0.74625703482E+03  0.00000000000E+00 0.  1.
         21    1    1    2  502  501  0.10255244124E+02  0.56266747471E+01 -0.17676738316E+00  0.11698749825E+02  0.00000000000E+00 0. -1.
<mgrwt>
<rscale>  1 0.30000000E+03</rscale>
<asrwt>0</asrwt>
<pdfrwt beam="1">  1        1 0.11774835E+00 0.30000000E+03</pdfrwt>
<pdfrwt beam="2">0</pdfrwt>
<totfact> 0.26773417E+01</totfact>
</mgrwt>
</event>
<event>
 6    1  0.1901260E-004  0.3000000E+03  0.7818608E-02  0.1093470E+00
          1   -1    0    0  502    0  0.00000000000E+00  0.00000000000E+00  0.29889309959E+02  0.29889309959E+02  0.00000000000E+00 0.  1.
         13   -1    0    0    0    0 -0.00000000000E+00 -0.00000000000E+00 -0.10000000000E+04  0.10000000000E+04  0.00000000000E+00 0.  1.
    9000005    2    1    2  501    0 -0.58560835033E+00 -0.94986941174E+01 -0.96190498426E+03  0.10173234143E+04  0.33105160074E+03 0.  0.
         13    1    3    3    0    0 -0.61694119563E+02 -0.11868645881E+03 -0.17363411854E+03  0.21918359203E+03  0.00000000000E+00 0.  1.
          3    1    3    3  501    0  0.61108511213E+02  0.10918776469E+03 -0.78827086573E+03  0.79813982225E+03  0.00000000000E+00 0.  1.
         21    1    1    2  502  501  0.58560835033E+00  0.94986941174E+01 -0.82057057766E+01  0.12565895685E+02  0.00000000000E+00 0.  1.
<mgrwt>
<rscale>  1 0.30000000E+03</rscale>
<asrwt>0</asrwt>
<pdfrwt beam="1">  1        1 0.10868863E+00 0.30000000E+03</pdfrwt>
<pdfrwt beam="2">0</pdfrwt>
<totfact> 0.30251263E+01</totfact>
</mgrwt>
</event>
<event>
 6    1  0.1901260E-004  0.3000000E+03  0.7818608E-02  0.1093470E+00
          1   -1    0    0  502    0  0.00000000000E+00  0.00000000000E+00  0.28865710444E+02  0.28865710444E+02  0.00000000000E+00 0.  1.
         13   -1    0    0    0    0 -0.00000000000E+00 -0.00000000000E+00 -0.10000000000E+04  0.10000000000E+04  0.00000000000E+00 0.  1.
    9000005    2    1    2  501    0 -0.89461050448E+01 -0.16968037361E+01 -0.95942226781E+03  0.10140305026E+04  0.32815219076E+03 0.  0.
         13    1    3    3    0    0 -0.18359782265E+02 -0.14899707546E+03 -0.26946247642E+03  0.30845945649E+03  0.00000000000E+00 0.  1.
          1    1    3    3  501    0  0.94136772203E+01  0.14730027173E+03 -0.68995979139E+03  0.70557104611E+03  0.00000000000E+00 0.  1.
         21    1    1    2  502  501  0.89461050448E+01  0.16968037361E+01 -0.11712021747E+02  0.14835207844E+02  0.00000000000E+00 0.  1.
<mgrwt>
<rscale>  1 0.30000000E+03</rscale>
<asrwt>0</asrwt>
<pdfrwt beam="1">  1        1 0.10496644E+00 0.30000000E+03</pdfrwt>
<pdfrwt beam="2">0</pdfrwt>
<totfact> 0.31867852E+01</totfact>
</mgrwt>
</event>
<event>
 6    1  0.1901260E-004  0.3000000E+03  0.7818608E-02  0.1093470E+00
          1   -1    0    0  502    0  0.00000000000E+00  0.00000000000E+00  0.32400448409E+02  0.32400448409E+02  0.00000000000E+00 0.  1.
         13   -1    0    0    0    0 -0.00000000000E+00 -0.00000000000E+00 -0.10000000000E+04  0.10000000000E+04  0.00000000000E+00 0.  1.
    9000005    2    1    2  501    0 -0.10796797124E+02 -0.11465371092E+02 -0.96172892562E+03  0.10155930152E+04  0.32597334332E+03 0.  0.
         13    1    3    3    0    0  0.94185816435E+02 -0.12210678959E+03 -0.30978927177E+03  0.34604974929E+03  0.00000000000E+00 0.  1.
          1    1    3    3  501    0 -0.10498261356E+03  0.11064141850E+03 -0.65193965385E+03  0.66954326589E+03  0.00000000000E+00 0.  1.
         21    1    1    2  502  501  0.10796797124E+02  0.11465371092E+02 -0.58706259751E+01  0.16807433229E+02  0.00000000000E+00 0.  1.
<mgrwt>
<rscale>  1 0.30000000E+03</rscale>
<asrwt>0</asrwt>
<pdfrwt beam="1">  1        1 0.11782006E+00 0.30000000E+03</pdfrwt>
<pdfrwt beam="2">0</pdfrwt>
<totfact> 0.26748174E+01</totfact>
</mgrwt>
</event>
<event>
 6    1  0.1901260E-004  0.3000000E+03  0.7818608E-02  0.1093470E+00
          1   -1    0    0  502    0  0.00000000000E+00  0.00000000000E+00  0.36165122704E+02  0.36165122704E+02  0.00000000000E+00 0.  1.
         13   -1    0    0    0    0 -0.00000000000E+00 -0.00000000000E+00 -0.10000000000E+04  0.10000000000E+04  0.00000000000E+00 0.  1.
    9000005    2    1    2  501    0 -0.11902587503E+02  0.14446894134E+02 -0.96477870064E+03  0.10174227872E+04  0.32249155381E+03 0.  0.
         13    1    3    3    0    0 -0.67350007459E+02  0.55628520770E+01 -0.95854379185E+03  0.96092308210E+03  0.00000000000E+00 0.  1.
          3    1    3    3  501    0  0.55447419957E+02  0.88840420567E+01 -0.62349087864E+01  0.56499705050E+02  0.00000000000E+00 0.  1.
         21    1    1    2  502  501  0.11902587503E+02 -0.14446894134E+02  0.94382334001E+00  0.18742335550E+02  0.00000000000E+00 0. -1.
<mgrwt>
<rscale>  1 0.30000000E+03</rscale>
<asrwt>0</asrwt>
<pdfrwt beam="1">  1        1 0.13150981E+00 0.30000000E+03</pdfrwt>
<pdfrwt beam="2">0</pdfrwt>
<totfact> 0.22451978E+01</totfact>
</mgrwt>
</event>
<event>
 6    1  0.1901260E-004  0.3000000E+03  0.7818608E-02  0.1093470E+00
          1   -1    0    0  502    0  0.00000000000E+00  0.00000000000E+00  0.30230405954E+02  0.30230405954E+02  0.00000000000E+00 0.  1.
         13   -1    0    0    0    0 -0.00000000000E+00 -0.00000000000E+00 -0.10000000000E+04  0.10000000000E+04  0.00000000000E+00 0.  1.
    9000005    2    1    2  501    0 -0.67941765547E+01  0.67922241005E+01 -0.96467445044E+03  0.10193558654E+04  0.32923743697E+03 0.  0.
         13    1    3    3    0    0 -0.30155191592E+02 -0.10990039661E+03 -0.83736452155E+03  0.84508388620E+03  0.00000000000E+00 0.  1.
          1    1    3    3  501    0  0.23361015037E+02  0.11669262071E+03 -0.12730992889E+03  0.17427197923E+03  0.00000000000E+00 0.  1.
         21    1    1    2  502  501  0.67941765547E+01 -0.67922241005E+01 -0.50951436046E+01  0.10874540525E+02  0.00000000000E+00 0.  1.
<mgrwt>
<rscale>  1 0.30000000E+03</rscale>
<asrwt>0</asrwt>
<pdfrwt beam="1">  1        1 0.10992898E+00 0.30000000E+03</pdfrwt>
<pdfrwt beam="2">0</pdfrwt>
<totfact> 0.29738619E+01</totfact>
</mgrwt>
</event>
<event>
 6    1  0.1901260E-004  0.3000000E+03  0.7818608E-02  0.1093470E+00
          1   -1    0    0  502    0  0.00000000000E+00  0.00000000000E+00  0.31962296682E+02  0.31962296682E+02  0.00000000000E+00 0.  1.
         13   -1    0    0    0    0 -0.00000000000E+00 -0.00000000000E+00 -0.10000000000E+04  0.10000000000E+04  0.00000000000E+00 0.  1.
    9000005    2    1    2  501    0  0.10367240742E+02 -0.40734883022E+02 -0.94949472948E+03  0.98602046112E+03  0.26254389743E+03 0.  0.
         13    1    3    3    0    0  0.29494389590E+02 -0.12885510103E+03 -0.27057261983E+03  0.30113634567E+03  0.00000000000E+00 0.  1.
          1    1    3    3  501    0 -0.19127148847E+02  0.88120218006E+02 -0.67892210964E+03  0.68488411546E+03  0.00000000000E+00 0.  1.
         21    1    1    2  502  501 -0.10367240742E+02  0.40734883022E+02 -0.18542973842E+02  0.45941835557E+02  0.00000000000E+00 0.  1.
<mgrwt>
<rscale>  1 0.30000000E+03</rscale>
<asrwt>0</asrwt>
<pdfrwt beam="1">  1        1 0.11622678E+00 0.30000000E+03</pdfrwt>
<pdfrwt beam="2">0</pdfrwt>
<totfact> 0.27316816E+01</totfact>
</mgrwt>
</event>
<event>
 6    1  0.1901260E-004  0.3000000E+03  0.7818608E-02  0.1093470E+00
          1   -1    0    0  502    0  0.00000000000E+00  0.00000000000E+00  0.37459684814E+02  0.37459684814E+02  0.00000000000E+00 0.  1.
         13   -1    0    0    0    0 -0.00000000000E+00 -0.00000000000E+00 -0.10000000000E+04  0.10000000000E+04  0.00000000000E+00 0.  1.
    9000005    2    1    2  501    0  0.15847838221E+01  0.14720205166E+02 -0.96851199823E+03  0.10214954442E+04  0.32437363615E+03 0.  0.
         13    1    3    3    0    0  0.23215020028E+02  0.16643263139E+03 -0.43222646255E+03  0.46374397341E+03  0.00000000000E+00 0.  1.
          3    1    3    3  501    0 -0.21630236206E+02 -0.15171242622E+03 -0.53628553569E+03  0.55775147079E+03  0.00000000000E+00 0.  1.
         21    1    1    2  502  501 -0.15847838221E+01 -0.14720205166E+02  0.59716830464E+01  0.15964240611E+02  0.00000000000E+00 0.  1.
<mgrwt>
<rscale>  1 0.30000000E+03</rscale>
<asrwt>0</asrwt>
<pdfrwt beam="1">  1        1 0.13621732E+00 0.30000000E+03</pdfrwt>
<pdfrwt beam="2">0</pdfrwt>
<totfact> 0.21183900E+01</totfact>
</mgrwt>
</event>
<event>
 6    1  0.1901260E-004  0.3000000E+03  0.7818608E-02  0.1093470E+00
          1   -1    0    0  502    0  0.00000000000E+00  0.00000000000E+00  0.56338723582E+02  0.56338723582E+02  0.00000000000E+00 0.  1.
         13   -1    0    0    0    0 -0.00000000000E+00 -0.00000000000E+00 -0.10000000000E+04  0.10000000000E+04  0.00000000000E+00 0.  1.
    9000005    2    1    2  501    0  0.24538476094E+02 -0.67237186496E+01 -0.96725407628E+03  0.10216405189E+04  0.32790479811E+03 0.  0.
         13    1    3    3    0    0 -0.55068242735E+02  0.11964983293E+03 -0.72633259674E+03  0.73817859287E+03  0.00000000000E+00 0.  1.
          3    1    3    3  501    0  0.79606718829E+02 -0.12637355158E+03 -0.24092147953E+03  0.28346192605E+03  0.00000000000E+00 0.  1.
         21    1    1    2  502  501 -0.24538476094E+02  0.67237186496E+01  0.23592799859E+02  0.34698204660E+02  0.00000000000E+00 0.  1.
<mgrwt>
<rscale>  1 0.30000000E+03</rscale>
<asrwt>0</asrwt>
<pdfrwt beam="1">  1        1 0.20486852E+00 0.30000000E+03</pdfrwt>
<pdfrwt beam="2">0</pdfrwt>
<totfact> 0.97126848E+00</totfact>
</mgrwt>
</event>
<event>
 6    1  0.1901260E-004  0.3000000E+03  0.7818608E-02  0.1093470E+00
          3   -1    0    0  502    0  0.00000000000E+00  0.00000000000E+00  0.38564327104E+02  0.38564327104E+02  0.00000000000E+00 0.  1.
         13   -1    0    0    0    0 -0.00000000000E+00 -0.00000000000E+00 -0.10000000000E+04  0.10000000000E+04  0.00000000000E+00 0.  1.
    9000005    2    1    2  501    0 -0.22705487413E+01 -0.21936746466E+02 -0.96232838328E+03  0.10164923274E+04  0.32664102354E+03 0.  0.
         13    1    3    3    0    0 -0.11159330471E+03  0.22584429791E+02 -0.83553969541E+03  0.84326135019E+03  0.00000000000E+00 0.  1.
          1    1    3    3  501    0  0.10932275597E+03 -0.44521176257E+02 -0.12678868787E+03  0.17323097725E+03  0.00000000000E+00 0.  1.
         21    1    1    2  502  501  0.22705487413E+01  0.21936746466E+02  0.89271038203E+00  0.22071999659E+02  0.00000000000E+00 0. -1.
<mgrwt>
<rscale>  1 0.30000000E+03</rscale>
<asrwt>0</asrwt>
<pdfrwt beam="1">  1        3 0.14023421E+00 0.30000000E+03</pdfrwt>
<pdfrwt beam="2">0</pdfrwt>
<totfact> 0.13302095E+00</totfact>
</mgrwt>
</event>
<event>
 6    1  0.1901260E-004  0.3000000E+03  0.7818608E-02  0.1093470E+00
          1   -1    0    0  502    0  0.00000000000E+00  0.00000000000E+00  0.32356235530E+02  0.32356235530E+02  0.00000000000E+00 0.  1.
         13   -1    0    0    0    0 -0.00000000000E+00 -0.00000000000E+00 -0.10000000000E+04  0.10000000000E+04  0.00000000000E+00 0.  1.
    9000005    2    1    2  501    0 -0.54549761457E+01 -0.20430927162E+02 -0.93975710403E+03  0.99735844446E+03  0.33336657392E+03 0.  0.
         13    1    3    3    0    0  0.10082996647E+02  0.15116879979E+03 -0.31928762580E+03  0.35340948040E+03  0.00000000000E+00 0.  1.
          3    1    3    3  501    0 -0.15537972793E+02 -0.17159972695E+03 -0.62046947823E+03  0.64394896405E+03  0.00000000000E+00 0.  1.
         21    1    1    2  502  501  0.54549761457E+01  0.20430927162E+02 -0.27886660443E+02  0.34997791075E+02  0.00000000000E+00 0.  1.
<mgrwt>
<rscale>  1 0.30000000E+03</rscale>
<asrwt>0</asrwt>
<pdfrwt beam="1">  1        1 0.11765929E+00 0.30000000E+03</pdfrwt>
<pdfrwt beam="2">0</pdfrwt>
<totfact> 0.26804812E+01</totfact>
</mgrwt>
</event>
<event>
 6    1  0.1901260E-004  0.3000000E+03  0.7818608E-02  0.1093470E+00
          1   -1    0    0  502    0  0.00000000000E+00  0.00000000000E+00  0.56617367309E+02  0.56617367309E+02  0.00000000000E+00 0.  1.
         13   -1    0    0    0    0 -0.00000000000E+00 -0.00000000000E+00 -0.10000000000E+04  0.10000000000E+04  0.00000000000E+00 0.  1.
    9000005    2    1    2  501    0 -0.63697273983E+01  0.13503089648E+02 -0.96907005770E+03  0.10269062472E+04  0.33943593926E+03 0.  0.
         13    1    3    3    0    0 -0.15947947560E+03  0.44281701130E+02 -0.66233771244E+03  0.68270478065E+03  0.00000000000E+00 0.  1.
          3    1    3    3  501    0  0.15310974821E+03 -0.30778611482E+02 -0.30673234526E+03  0.34420146651E+03  0.00000000000E+00 0.  1.
         21    1    1    2  502  501  0.63697273983E+01 -0.13503089648E+02  0.25687425008E+02  0.29711120153E+02  0.00000000000E+00 0. -1.
<mgrwt>
<rscale>  1 0.30000000E+03</rscale>
<asrwt>0</asrwt>
<pdfrwt beam="1">  1        1 0.20588177E+00 0.30000000E+03</pdfrwt>
<pdfrwt beam="2">0</pdfrwt>
<totfact> 0.96059851E+00</totfact>
</mgrwt>
</event>
<event>
 6    1  0.1901260E-004  0.3000000E+03  0.7818608E-02  0.1093470E+00
          1   -1    0    0  502    0  0.00000000000E+00  0.00000000000E+00  0.48661958180E+02  0.48661958180E+02  0.00000000000E+00 0.  1.
         13   -1    0    0    0    0 -0.00000000000E+00 -0.00000000000E+00 -0.10000000000E+04  0.10000000000E+04  0.00000000000E+00 0.  1.
    9000005    2    1    2  501    0  0.16814207126E+02  0.10170482065E+02 -0.97650826577E+03  0.10167292721E+04  0.28246037482E+03 0.  0.
         13    1    3    3    0    0 -0.83495920983E+01  0.33273794013E+02  0.49639891290E+01  0.34662692398E+02  0.00000000000E+00 0.  1.
          3    1    3    3  501    0  0.25163799224E+02 -0.23103311948E+02 -0.98147225490E+03  0.98206657970E+03  0.00000000000E+00 0.  1.
         21    1    1    2  502  501 -0.16814207126E+02 -0.10170482065E+02  0.25170223953E+02  0.31932686084E+02  0.00000000000E+00 0. -1.
<mgrwt>
<rscale>  1 0.30000000E+03</rscale>
<asrwt>0</asrwt>
<pdfrwt beam="1">  1        1 0.17695295E+00 0.30000000E+03</pdfrwt>
<pdfrwt beam="2">0</pdfrwt>
<totfact> 0.13216092E+01</totfact>
</mgrwt>
</event>
<event>
 6    1  0.1901260E-004  0.3000000E+03  0.7818608E-02  0.1093470E+00
          1   -1    0    0  502    0  0.00000000000E+00  0.00000000000E+00  0.33820709843E+02  0.33820709843E+02  0.00000000000E+00 0.  1.
         13   -1    0    0    0    0 -0.00000000000E+00 -0.00000000000E+00 -0.10000000000E+04  0.10000000000E+04  0.00000000000E+00 0.  1.
    9000005    2    1    2  501    0  0.17542340923E+02 -0.29306276336E+02 -0.90021399833E+03  0.95953739217E+03  0.33039396580E+03 0.  0.
         13    1    3    3    0    0 -0.65402423852E+02  0.86328822623E+02 -0.72855726308E+03  0.73656352629E+03  0.00000000000E+00 0.  1.
          3    1    3    3  501    0  0.82944764775E+02 -0.11563509896E+03 -0.17165673524E+03  0.22297386589E+03  0.00000000000E+00 0.  1.
         21    1    1    2  502  501 -0.17542340923E+02  0.29306276336E+02 -0.65965291829E+02  0.74283317669E+02  0.00000000000E+00 0.  1.
<mgrwt>
<rscale>  1 0.30000000E+03</rscale>
<asrwt>0</asrwt>
<pdfrwt beam="1">  1        1 0.12298466E+00 0.30000000E+03</pdfrwt>
<pdfrwt beam="2">0</pdfrwt>
<totfact> 0.25011382E+01</totfact>
</mgrwt>
</event>
<event>
 6    1  0.1901260E-004  0.3000000E+03  0.7818608E-02  0.1093470E+00
          1   -1    0    0  502    0  0.00000000000E+00  0.00000000000E+00  0.38142557791E+02  0.38142557791E+02  0.00000000000E+00 0.  1.
         13   -1    0    0    0    0 -0.00000000000E+00 -0.00000000000E+00 -0.10000000000E+04  0.10000000000E+04  0.00000000000E+00 0.  1.
    9000005    2    1    2  501    0 -0.22996876395E+02  0.24894116010E+02 -0.93860609386E+03  0.99704269726E+03  0.33461047113E+03 0.  0.
         13    1    3    3    0    0 -0.13447425661E+03  0.96792422447E+02 -0.28116388185E+03  0.32635138607E+03  0.00000000000E+00 0.  1.
          3    1    3    3  501    0  0.11147738021E+03 -0.71898306437E+02 -0.65744221201E+03  0.67069131119E+03  0.00000000000E+00 0.  1.
         21    1    1    2  502  501  0.22996876395E+02 -0.24894116010E+02 -0.23251348352E+02  0.41099860535E+02  0.00000000000E+00 0. -1.
<mgrwt>
<rscale>  1 0.30000000E+03</rscale>
<asrwt>0</asrwt>
<pdfrwt beam="1">  1        1 0.13870050E+00 0.30000000E+03</pdfrwt>
<pdfrwt beam="2">0</pdfrwt>
<totfact> 0.20552880E+01</totfact>
</mgrwt>
</event>
<event>
 6    1  0.1901260E-004  0.3000000E+03  0.7818608E-02  0.1093470E+00
          1   -1    0    0  502    0  0.00000000000E+00  0.00000000000E+00  0.44315798804E+02  0.44315798804E+02  0.00000000000E+00 0.  1.
         13   -1    0    0    0    0 -0.00000000000E+00 -0.00000000000E+00 -0.10000000000E+04  0.10000000000E+04  0.00000000000E+00 0.  1.
    9000005    2    1    2  501    0  0.20688779299E+02  0.11356014761E+01 -0.97355934768E+03  0.10169509301E+04  0.29315878893E+03 0.  0.
         13    1    3    3    0    0  0.34996876676E+02 -0.14315196871E+02 -0.98969780886E+03  0.99041983982E+03  0.00000000000E+00 0.  1.
          1    1    3    3  501    0 -0.14308097377E+02  0.15450798347E+02  0.16138461186E+02  0.26531090245E+02  0.00000000000E+00 0.  1.
         21    1    1    2  502  501 -0.20688779299E+02 -0.11356014761E+01  0.17875146479E+02  0.27364868742E+02  0.00000000000E+00 0. -1.
<mgrwt>
<rscale>  1 0.30000000E+03</rscale>
<asrwt>0</asrwt>
<pdfrwt beam="1">  1        1 0.16114870E+00 0.30000000E+03</pdfrwt>
<pdfrwt beam="2">0</pdfrwt>
<totfact> 0.15794368E+01</totfact>
</mgrwt>
</event>
<event>
 6    1  0.1901260E-004  0.3000000E+03  0.7818608E-02  0.1093470E+00
          1   -1    0    0  502    0  0.00000000000E+00  0.00000000000E+00  0.31122811010E+02  0.31122811010E+02  0.00000000000E+00 0.  1.
         13   -1    0    0    0    0 -0.00000000000E+00 -0.00000000000E+00 -0.10000000000E+04  0.10000000000E+04  0.00000000000E+00 0.  1.
    9000005    2    1    2  501    0  0.16214972495E+02 -0.57654796633E+00 -0.96002492279E+03  0.10126398362E+04  0.32175818213E+03 0.  0.
         13    1    3    3    0    0 -0.15054719251E+03 -0.20107697140E+02 -0.51768925518E+03  0.53950990871E+03  0.00000000000E+00 0.  1.
          1    1    3    3  501    0  0.16676216501E+03  0.19531149174E+02 -0.44233566760E+03  0.47312992750E+03  0.00000000000E+00 0.  1.
         21    1    1    2  502  501 -0.16214972495E+02  0.57654796633E+00 -0.88522662038E+01  0.18482974801E+02  0.00000000000E+00 0. -1.
<mgrwt>
<rscale>  1 0.30000000E+03</rscale>
<asrwt>0</asrwt>
<pdfrwt beam="1">  1        1 0.11317410E+00 0.30000000E+03</pdfrwt>
<pdfrwt beam="2">0</pdfrwt>
<totfact> 0.28454330E+01</totfact>
</mgrwt>
</event>
<event>
 6    1  0.1901260E-004  0.3000000E+03  0.7818608E-02  0.1093470E+00
          1   -1    0    0  502    0  0.00000000000E+00  0.00000000000E+00  0.34961290088E+02  0.34961290088E+02  0.00000000000E+00 0.  1.
         13   -1    0    0    0    0 -0.00000000000E+00 -0.00000000000E+00 -0.10000000000E+04  0.10000000000E+04  0.00000000000E+00 0.  1.
    9000005    2    1    2  501    0 -0.45931334050E+01 -0.38297533319E+02 -0.91274143214E+03  0.96997819079E+03  0.32599535383E+03 0.  0.
         13    1    3    3    0    0  0.89494310672E+02  0.10535245797E+03 -0.25350956613E+03  0.28874811196E+03  0.00000000000E+00 0.  1.
          1    1    3    3  501    0 -0.94087444077E+02 -0.14364999128E+03 -0.65923186601E+03  0.68123007882E+03  0.00000000000E+00 0.  1.
         21    1    1    2  502  501  0.45931334050E+01  0.38297533319E+02 -0.52297277770E+02  0.64983099302E+02  0.00000000000E+00 0.  1.
<mgrwt>
<rscale>  1 0.30000000E+03</rscale>
<asrwt>0</asrwt>
<pdfrwt beam="1">  1        1 0.12713223E+00 0.30000000E+03</pdfrwt>
<pdfrwt beam="2">0</pdfrwt>
<totfact> 0.23721899E+01</totfact>
</mgrwt>
</event>
<event>
 6    1  0.1901260E-004  0.3000000E+03  0.7818608E-02  0.1093470E+00
          3   -1    0    0  502    0  0.00000000000E+00  0.00000000000E+00  0.29256734337E+02  0.29256734337E+02  0.00000000000E+00 0.  1.
         13   -1    0    0    0    0 -0.00000000000E+00 -0.00000000000E+00 -0.10000000000E+04  0.10000000000E+04  0.00000000000E+00 0.  1.
    9000005    2    1    2  501    0  0.45781610592E+01 -0.67555437690E+01 -0.95121693810E+03  0.10080936911E+04  0.33372538083E+03 0.  0.
         13    1    3    3    0    0 -0.97549438854E+02  0.25061884197E+02 -0.86461849361E+03  0.87046489335E+03  0.00000000000E+00 0.  1.
          1    1    3    3  501    0  0.10212759991E+03 -0.31817427966E+02 -0.86598444488E+02  0.13762879776E+03  0.00000000000E+00 0.  1.
         21    1    1    2  502  501 -0.45781610592E+01  0.67555437690E+01 -0.19526327567E+02  0.21163043225E+02  0.00000000000E+00 0. -1.
<mgrwt>
<rscale>  1 0.30000000E+03</rscale>
<asrwt>0</asrwt>
<pdfrwt beam="1">  1        3 0.10638835E+00 0.30000000E+03</pdfrwt>
<pdfrwt beam="2">0</pdfrwt>
<totfact> 0.33130213E+00</totfact>
</mgrwt>
</event>
<event>
 6    1  0.1901260E-004  0.3000000E+03  0.7818608E-02  0.1093470E+00
          1   -1    0    0  502    0  0.00000000000E+00  0.00000000000E+00  0.84206205641E+02  0.84206205641E+02  0.00000000000E+00 0.  1.
         13   -1    0    0    0    0 -0.00000000000E+00 -0.00000000000E+00 -0.10000000000E+04  0.10000000000E+04  0.00000000000E+00 0.  1.
    9000005    2    1    2  501    0 -0.25638137646E+02 -0.16235666640E+03 -0.39526333266E+03  0.53834087172E+03  0.32643650346E+03 0.  0.
         13    1    3    3    0    0 -0.14457488590E+03 -0.17852102801E+03 -0.32891380711E+03  0.40119315495E+03  0.00000000000E+00 0.  1.
          3    1    3    3  501    0  0.11893674826E+03  0.16164361611E+02 -0.66349525554E+02  0.13714771676E+03  0.00000000000E+00 0.  1.
         21    1    1    2  502  501  0.25638137646E+02  0.16235666640E+03 -0.52053046170E+03  0.54586533393E+03  0.00000000000E+00 0.  1.
<mgrwt>
<rscale>  1 0.30000000E+03</rscale>
<asrwt>0</asrwt>
<pdfrwt beam="1">  1        1 0.30620503E+00 0.30000000E+03</pdfrwt>
<pdfrwt beam="2">0</pdfrwt>
<totfact> 0.32459625E+00</totfact>
</mgrwt>
</event>
<event>
 6    1  0.1901260E-004  0.3000000E+03  0.7818608E-02  0.1093470E+00
          1   -1    0    0  502    0  0.00000000000E+00  0.00000000000E+00  0.33074897412E+02  0.33074897412E+02  0.00000000000E+00 0.  1.
         13   -1    0    0    0    0 -0.00000000000E+00 -0.00000000000E+00 -0.10000000000E+04  0.10000000000E+04  0.00000000000E+00 0.  1.
    9000005    2    1    2  501    0 -0.12452978547E+02 -0.16420115518E+02 -0.95751425124E+03  0.10104196333E+04  0.32200869118E+03 0.  0.
         13    1    3    3    0    0 -0.50463491135E+02  0.14409548381E+03 -0.37197443954E+03  0.40208836848E+03  0.00000000000E+00 0.  1.
          3    1    3    3  501    0  0.38010512588E+02 -0.16051559933E+03 -0.58553981169E+03  0.60833126483E+03  0.00000000000E+00 0.  1.
         21    1    1    2  502  501  0.12452978547E+02  0.16420115518E+02 -0.94108513520E+01  0.22655264101E+02  0.00000000000E+00 0. -1.
<mgrwt>
<rscale>  1 0.30000000E+03</rscale>
<asrwt>0</asrwt>
<pdfrwt beam="1">  1        1 0.12027261E+00 0.30000000E+03</pdfrwt>
<pdfrwt beam="2">0</pdfrwt>
<totfact> 0.25903976E+01</totfact>
</mgrwt>
</event>
<event>
 6    1  0.1901260E-004  0.3000000E+03  0.7818608E-02  0.1093470E+00
          1   -1    0    0  502    0  0.00000000000E+00  0.00000000000E+00  0.30421609769E+02  0.30421609769E+02  0.00000000000E+00 0.  1.
         13   -1    0    0    0    0 -0.00000000000E+00 -0.00000000000E+00 -0.10000000000E+04  0.10000000000E+04  0.00000000000E+00 0.  1.
    9000005    2    1    2  501    0 -0.10526541052E+02 -0.50455061843E+01 -0.96088572340E+03  0.10158673095E+04  0.32946737610E+03 0.  0.
         13    1    3    3    0    0 -0.46544066080E+02  0.96277114302E+02 -0.86563135118E+03  0.87221171109E+03  0.00000000000E+00 0.  1.
          1    1    3    3  501    0  0.36017525029E+02 -0.10132262049E+03 -0.95254372224E+02  0.14365559843E+03  0.00000000000E+00 0.  1.
         21    1    1    2  502  501  0.10526541052E+02  0.50455061843E+01 -0.86926668289E+01  0.14554300250E+02  0.00000000000E+00 0.  1.
<mgrwt>
<rscale>  1 0.30000000E+03</rscale>
<asrwt>0</asrwt>
<pdfrwt beam="1">  1        1 0.11062427E+00 0.30000000E+03</pdfrwt>
<pdfrwt beam="2">0</pdfrwt>
<totfact> 0.29456639E+01</totfact>
</mgrwt>
</event>
<event>
 6    1  0.1901260E-004  0.3000000E+03  0.7818608E-02  0.1093470E+00
          1   -1    0    0  502    0  0.00000000000E+00  0.00000000000E+00  0.36326713008E+02  0.36326713008E+02  0.00000000000E+00 0.  1.
         13   -1    0    0    0    0 -0.00000000000E+00 -0.00000000000E+00 -0.10000000000E+04  0.10000000000E+04  0.00000000000E+00 0.  1.
    9000005    2    1    2  501    0  0.34265353134E+02 -0.81405843445E+01 -0.93555870127E+03  0.99126216520E+03  0.32571492612E+03 0.  0.
         13    1    3    3    0    0 -0.46710664775E+02 -0.97680457518E+02 -0.10116907180E+03  0.14818413907E+03  0.00000000000E+00 0.  1.
          3    1    3    3  501    0  0.80976017909E+02  0.89539873174E+02 -0.83438962948E+03  0.84307802613E+03  0.00000000000E+00 0.  1.
         21    1    1    2  502  501 -0.34265353134E+02  0.81405843445E+01 -0.28114585717E+02  0.45064547805E+02  0.00000000000E+00 0.  1.
<mgrwt>
<rscale>  1 0.30000000E+03</rscale>
<asrwt>0</asrwt>
<pdfrwt beam="1">  1        1 0.13209742E+00 0.30000000E+03</pdfrwt>
<pdfrwt beam="2">0</pdfrwt>
<totfact> 0.22288311E+01</totfact>
</mgrwt>
</event>
<event>
 6    1  0.1901260E-004  0.3000000E+03  0.7818608E-02  0.1093470E+00
          1   -1    0    0  502    0  0.00000000000E+00  0.00000000000E+00  0.34985796752E+02  0.34985796752E+02  0.00000000000E+00 0.  1.
         13   -1    0    0    0    0 -0.00000000000E+00 -0.00000000000E+00 -0.10000000000E+04  0.10000000000E+04  0.00000000000E+00 0.  1.
    9000005    2    1    2  501    0 -0.25532462543E+01  0.17299439262E+02 -0.96413142790E+03  0.10174766861E+04  0.32465921631E+03 0.  0.
         13    1    3    3    0    0 -0.57902413089E+01 -0.15000550285E+03 -0.34739682443E+03  0.37844382860E+03  0.00000000000E+00 0.  1.
          3    1    3    3  501    0  0.32369950547E+01  0.16730494211E+03 -0.61673460346E+03  0.63903285745E+03  0.00000000000E+00 0.  1.
         21    1    1    2  502  501  0.25532462543E+01 -0.17299439262E+02 -0.88277535194E+00  0.17509110701E+02  0.00000000000E+00 0.  1.
<mgrwt>
<rscale>  1 0.30000000E+03</rscale>
<asrwt>0</asrwt>
<pdfrwt beam="1">  1        1 0.12722135E+00 0.30000000E+03</pdfrwt>
<pdfrwt beam="2">0</pdfrwt>
<totfact> 0.23695135E+01</totfact>
</mgrwt>
</event>
<event>
 6    1  0.1901260E-004  0.3000000E+03  0.7818608E-02  0.1093470E+00
          1   -1    0    0  502    0  0.00000000000E+00  0.00000000000E+00  0.29502683277E+02  0.29502683277E+02  0.00000000000E+00 0.  1.
         13   -1    0    0    0    0 -0.00000000000E+00 -0.00000000000E+00 -0.10000000000E+04  0.10000000000E+04  0.00000000000E+00 0.  1.
    9000005    2    1    2  501    0 -0.11123515011E+02  0.10014998229E+02 -0.93698491727E+03  0.99279963582E+03  0.32785110784E+03 0.  0.
         13    1    3    3    0    0  0.47580405841E+00  0.10728198511E+02  0.26837965189E+02  0.28906694869E+02  0.00000000000E+00 0.  1.
          1    1    3    3  501    0 -0.11599319069E+02 -0.71320028178E+00 -0.96382288246E+03  0.96389294095E+03  0.00000000000E+00 0.  1.
         21    1    1    2  502  501  0.11123515011E+02 -0.10014998229E+02 -0.33512399452E+02  0.36703047459E+02  0.00000000000E+00 0. -1.
<mgrwt>
<rscale>  1 0.30000000E+03</rscale>
<asrwt>0</asrwt>
<pdfrwt beam="1">  1        1 0.10728271E+00 0.30000000E+03</pdfrwt>
<pdfrwt beam="2">0</pdfrwt>
<totfact> 0.30847722E+01</totfact>
</mgrwt>
</event>
<event>
 6    1  0.1901260E-004  0.3000000E+03  0.7818608E-02  0.1093470E+00
          1   -1    0    0  502    0  0.00000000000E+00  0.00000000000E+00  0.27672897367E+02  0.27672897367E+02  0.00000000000E+00 0.  1.
         13   -1    0    0    0    0 -0.00000000000E+00 -0.00000000000E+00 -0.10000000000E+04  0.10000000000E+04  0.00000000000E+00 0.  1.
    9000005    2    1    2  501    0  0.10061680561E+02  0.34419074207E+01 -0.96136508788E+03  0.10124003760E+04  0.31720435830E+03 0.  0.
         13    1    3    3    0    0  0.39506438244E+02  0.95064941481E+02 -0.93047116643E+02  0.13876551328E+03  0.00000000000E+00 0.  1.
          3    1    3    3  501    0 -0.29444757682E+02 -0.91623034061E+02 -0.86831797124E+03  0.87363486269E+03  0.00000000000E+00 0.  1.
         21    1    1    2  502  501 -0.10061680561E+02 -0.34419074207E+01 -0.10962014752E+02  0.15272521398E+02  0.00000000000E+00 0.  1.
<mgrwt>
<rscale>  1 0.30000000E+03</rscale>
<asrwt>0</asrwt>
<pdfrwt beam="1">  1        1 0.10062893E+00 0.30000000E+03</pdfrwt>
<pdfrwt beam="2">0</pdfrwt>
<totfact> 0.33914328E+01</totfact>
</mgrwt>
</event>
<event>
 6    1  0.1901260E-004  0.3000000E+03  0.7818608E-02  0.1093470E+00
          1   -1    0    0  502    0  0.00000000000E+00  0.00000000000E+00  0.27876425643E+02  0.27876425643E+02  0.00000000000E+00 0.  1.
         13   -1    0    0    0    0 -0.00000000000E+00 -0.00000000000E+00 -0.10000000000E+04  0.10000000000E+04  0.00000000000E+00 0.  1.
    9000005    2    1    2  501    0 -0.26343842701E+01 -0.13976963759E+02 -0.94411003038E+03  0.99645900782E+03  0.31840934237E+03 0.  0.
         13    1    3    3    0    0  0.12282820792E+03  0.15403426315E+02 -0.16240298025E+03  0.20420274777E+03  0.00000000000E+00 0.  1.
          3    1    3    3  501    0 -0.12546259219E+03 -0.29380390074E+02 -0.78170705014E+03  0.79225626005E+03  0.00000000000E+00 0.  1.
         21    1    1    2  502  501  0.26343842701E+01  0.13976963759E+02 -0.28013543974E+02  0.31417417819E+02  0.00000000000E+00 0.  1.
<mgrwt>
<rscale>  1 0.30000000E+03</rscale>
<asrwt>0</asrwt>
<pdfrwt beam="1">  1        1 0.10136903E+00 0.30000000E+03</pdfrwt>
<pdfrwt beam="2">0</pdfrwt>
<totfact> 0.33551794E+01</totfact>
</mgrwt>
</event>
<event>
 6    1  0.1901260E-004  0.3000000E+03  0.7818608E-02  0.1093470E+00
          1   -1    0    0  502    0  0.00000000000E+00  0.00000000000E+00  0.46433210062E+02  0.46433210062E+02  0.00000000000E+00 0.  1.
         13   -1    0    0    0    0 -0.00000000000E+00 -0.00000000000E+00 -0.10000000000E+04  0.10000000000E+04  0.00000000000E+00 0.  1.
    9000005    2    1    2  501    0  0.14363839524E+02 -0.24679197748E+02 -0.96284738376E+03  0.10164080188E+04  0.32433746873E+03 0.  0.
         13    1    3    3    0    0  0.62138940826E+02  0.11653264942E+03 -0.20371963932E+03  0.24278137859E+03  0.00000000000E+00 0.  1.
          1    1    3    3  501    0 -0.47775101302E+02 -0.14121184717E+03 -0.75912774444E+03  0.77362664023E+03  0.00000000000E+00 0.  1.
         21    1    1    2  502  501 -0.14363839524E+02  0.24679197748E+02  0.92805938214E+01  0.30025191240E+02  0.00000000000E+00 0.  1.
<mgrwt>
<rscale>  1 0.30000000E+03</rscale>
<asrwt>0</asrwt>
<pdfrwt beam="1">  1        1 0.16884839E+00 0.30000000E+03</pdfrwt>
<pdfrwt beam="2">0</pdfrwt>
<totfact> 0.14473712E+01</totfact>
</mgrwt>
</event>
<event>
 6    1  0.1901260E-004  0.3000000E+03  0.7818608E-02  0.1093470E+00
          3   -1    0    0  502    0  0.00000000000E+00  0.00000000000E+00  0.29639746008E+02  0.29639746008E+02  0.00000000000E+00 0.  1.
         13   -1    0    0    0    0 -0.00000000000E+00 -0.00000000000E+00 -0.10000000000E+04  0.10000000000E+04  0.00000000000E+00 0.  1.
    9000005    2    1    2  501    0  0.14436744456E+02 -0.14239508072E+02 -0.96911064745E+03  0.10093236269E+04  0.28133174999E+03 0.  0.
         13    1    3    3    0    0 -0.51009435859E+02 -0.11403292312E+03 -0.24054418063E+03  0.27104791631E+03  0.00000000000E+00 0.  1.
          1    1    3    3  501    0  0.65446180316E+02  0.99793415051E+02 -0.72856646683E+03  0.73827571055E+03  0.00000000000E+00 0.  1.
         21    1    1    2  502  501 -0.14436744456E+02  0.14239508072E+02 -0.12496065373E+01  0.20316119146E+02  0.00000000000E+00 0.  1.
<mgrwt>
<rscale>  1 0.30000000E+03</rscale>
<asrwt>0</asrwt>
<pdfrwt beam="1">  1        3 0.10778112E+00 0.30000000E+03</pdfrwt>
<pdfrwt beam="2">0</pdfrwt>
<totfact> 0.31942365E+00</totfact>
</mgrwt>
</event>
<event>
 6    1  0.1901260E-004  0.3000000E+03  0.7818608E-02  0.1093470E+00
          1   -1    0    0  502    0  0.00000000000E+00  0.00000000000E+00  0.34553215059E+02  0.34553215059E+02  0.00000000000E+00 0.  1.
         13   -1    0    0    0    0 -0.00000000000E+00 -0.00000000000E+00 -0.10000000000E+04  0.10000000000E+04  0.00000000000E+00 0.  1.
    9000005    2    1    2  501    0  0.16284437285E+02  0.10053179895E+02 -0.95811585003E+03  0.10140595104E+04  0.33160889500E+03 0.  0.
         13    1    3    3    0    0  0.11253808109E+03 -0.12233058365E+03 -0.54177194734E+03  0.56669783335E+03  0.00000000000E+00 0.  1.
          3    1    3    3  501    0 -0.96253643803E+02  0.13238376355E+03 -0.41634390269E+03  0.44736167706E+03  0.00000000000E+00 0.  1.
         21    1    1    2  502  501 -0.16284437285E+02 -0.10053179895E+02 -0.73309349086E+01  0.20493704651E+02  0.00000000000E+00 0.  1.
<mgrwt>
<rscale>  1 0.30000000E+03</rscale>
<asrwt>0</asrwt>
<pdfrwt beam="1">  1        1 0.12564832E+00 0.30000000E+03</pdfrwt>
<pdfrwt beam="2">0</pdfrwt>
<totfact> 0.24173297E+01</totfact>
</mgrwt>
</event>
<event>
 6    1  0.1901260E-004  0.3000000E+03  0.7818608E-02  0.1093470E+00
          3   -1    0    0  502    0  0.00000000000E+00  0.00000000000E+00  0.85383159288E+01  0.85383159288E+01  0.00000000000E+00 0.  1.
         13   -1    0    0    0    0 -0.00000000000E+00 -0.00000000000E+00 -0.10000000000E+04  0.10000000000E+04  0.00000000000E+00 0.  1.
    9000005    2    1    2  501    0  0.23149830529E+02 -0.97381220435E+00 -0.91455514200E+03  0.92821721548E+03  0.15696887715E+03 0.  0.
         13    1    3    3    0    0 -0.57821288076E+02  0.15210652992E+02 -0.60118505138E+03  0.60415075215E+03  0.00000000000E+00 0.  1.
          3    1    3    3  501    0  0.80971118605E+02 -0.16184465196E+02 -0.31337009062E+03  0.32406646333E+03  0.00000000000E+00 0.  1.
         21    1    1    2  502  501 -0.23149830529E+02  0.97381220435E+00 -0.76906542076E+02  0.80321100452E+02  0.00000000000E+00 0. -1.
<mgrwt>
<rscale>  1 0.30000000E+03</rscale>
<asrwt>0</asrwt>
<pdfrwt beam="1">  1        3 0.31048487E-01 0.30000000E+03</pdfrwt>
<pdfrwt beam="2">0</pdfrwt>
<totfact> 0.43803313E+01</totfact>
</mgrwt>
</event>
<event>
 6    1  0.1901260E-004  0.3000000E+03  0.7818608E-02  0.1093470E+00
          1   -1    0    0  502    0  0.00000000000E+00  0.00000000000E+00  0.25968533605E+02  0.25968533605E+02  0.00000000000E+00 0.  1.
         13   -1    0    0    0    0 -0.00000000000E+00 -0.00000000000E+00 -0.10000000000E+04  0.10000000000E+04  0.00000000000E+00 0.  1.
    9000005    2    1    2  501    0 -0.11233991227E+02 -0.21708755895E+01 -0.94627179328E+03  0.99594329903E+03  0.31038980793E+03 0.  0.
         13    1    3    3    0    0  0.46987156379E+02 -0.28070475716E+02 -0.92805632199E+03  0.92966890948E+03  0.00000000000E+00 0.  1.
          1    1    3    3  501    0 -0.58221147606E+02  0.25899600126E+02 -0.18215471283E+02  0.66274389543E+02  0.00000000000E+00 0.  1.
         21    1    1    2  502  501  0.11233991227E+02  0.21708755895E+01 -0.27759673120E+02  0.30025234577E+02  0.00000000000E+00 0. -1.
<mgrwt>
<rscale>  1 0.30000000E+03</rscale>
<asrwt>0</asrwt>
<pdfrwt beam="1">  1        1 0.94431230E-01 0.30000000E+03</pdfrwt>
<pdfrwt beam="2">0</pdfrwt>
<totfact> 0.37190957E+01</totfact>
</mgrwt>
</event>
<event>
 6    1  0.1901260E-004  0.3000000E+03  0.7818608E-02  0.1093470E+00
          3   -1    0    0  502    0  0.00000000000E+00  0.00000000000E+00  0.56688176761E+02  0.56688176761E+02  0.00000000000E+00 0.  1.
         13   -1    0    0    0    0 -0.00000000000E+00 -0.00000000000E+00 -0.10000000000E+04  0.10000000000E+04  0.00000000000E+00 0.  1.
    9000005    2    1    2  501    0  0.31942973221E+01  0.17483385346E+02 -0.97014002399E+03  0.10245070541E+04  0.32882695373E+03 0.  0.
         13    1    3    3    0    0 -0.32121143617E+02  0.11686237459E+03 -0.12984217137E+03  0.17761636165E+03  0.00000000000E+00 0.  1.
          1    1    3    3  501    0  0.35315440940E+02 -0.99378989239E+02 -0.84029785262E+03  0.84689069247E+03  0.00000000000E+00 0.  1.
         21    1    1    2  502  501 -0.31942973221E+01 -0.17483385346E+02  0.26828200753E+02  0.32181122637E+02  0.00000000000E+00 0.  1.
<mgrwt>
<rscale>  1 0.30000000E+03</rscale>
<asrwt>0</asrwt>
<pdfrwt beam="1">  1        3 0.20613926E+00 0.30000000E+03</pdfrwt>
<pdfrwt beam="2">0</pdfrwt>
<totfact> 0.74547868E-02</totfact>
</mgrwt>
</event>
<event>
 6    1  0.1901260E-004  0.3000000E+03  0.7818608E-02  0.1093470E+00
          1   -1    0    0  502    0  0.00000000000E+00  0.00000000000E+00  0.31499966788E+02  0.31499966788E+02  0.00000000000E+00 0.  1.
         13   -1    0    0    0    0 -0.00000000000E+00 -0.00000000000E+00 -0.10000000000E+04  0.10000000000E+04  0.00000000000E+00 0.  1.
    9000005    2    1    2  501    0 -0.16807825363E+02  0.64706546313E+00 -0.95519487034E+03  0.10100535441E+04  0.32791462293E+03 0.  0.
         13    1    3    3    0    0  0.54790755372E+02  0.15163987151E+03 -0.47105670805E+03  0.49788663338E+03  0.00000000000E+00 0.  1.
          1    1    3    3  501    0 -0.71598580735E+02 -0.15099280605E+03 -0.48413816230E+03  0.51216691072E+03  0.00000000000E+00 0.  1.
         21    1    1    2  502  501  0.16807825363E+02 -0.64706546313E+00 -0.13305162867E+02  0.21446422687E+02  0.00000000000E+00 0. -1.
<mgrwt>
<rscale>  1 0.30000000E+03</rscale>
<asrwt>0</asrwt>
<pdfrwt beam="1">  1        1 0.11454558E+00 0.30000000E+03</pdfrwt>
<pdfrwt beam="2">0</pdfrwt>
<totfact> 0.27935190E+01</totfact>
</mgrwt>
</event>
<event>
 6    1  0.1901260E-004  0.3000000E+03  0.7818608E-02  0.1093470E+00
          1   -1    0    0  502    0  0.00000000000E+00  0.00000000000E+00  0.48470306859E+02  0.48470306859E+02  0.00000000000E+00 0.  1.
         13   -1    0    0    0    0 -0.00000000000E+00 -0.00000000000E+00 -0.10000000000E+04  0.10000000000E+04  0.00000000000E+00 0.  1.
    9000005    2    1    2  501    0  0.26457383769E+02 -0.16201710009E+02 -0.96165269063E+03  0.10158365262E+04  0.32586110838E+03 0.  0.
         13    1    3    3    0    0  0.14092345039E+03 -0.77723542355E+02 -0.28939833593E+03  0.33113707848E+03  0.00000000000E+00 0.  1.
          3    1    3    3  501    0 -0.11446606662E+03  0.61521832346E+02 -0.67225435471E+03  0.68469944770E+03  0.00000000000E+00 0.  1.
         21    1    1    2  502  501 -0.26457383769E+02  0.16201710009E+02  0.10122997494E+02  0.32633780679E+02  0.00000000000E+00 0.  1.
<mgrwt>
<rscale>  1 0.30000000E+03</rscale>
<asrwt>0</asrwt>
<pdfrwt beam="1">  1        1 0.17625603E+00 0.30000000E+03</pdfrwt>
<pdfrwt beam="2">0</pdfrwt>
<totfact> 0.13319417E+01</totfact>
</mgrwt>
</event>
<event>
 6    1  0.1901260E-004  0.3000000E+03  0.7818608E-02  0.1093470E+00
          1   -1    0    0  502    0  0.00000000000E+00  0.00000000000E+00  0.30282194671E+02  0.30282194671E+02  0.00000000000E+00 0.  1.
         13   -1    0    0    0    0 -0.00000000000E+00 -0.00000000000E+00 -0.10000000000E+04  0.10000000000E+04  0.00000000000E+00 0.  1.
    9000005    2    1    2  501    0  0.16932738864E+02  0.25800327058E+01 -0.90937776483E+03  0.96755823831E+03  0.33001159243E+03 0.  0.
         13    1    3    3    0    0 -0.38817646251E+02  0.15457890052E+03 -0.56453069669E+03  0.58659726700E+03  0.00000000000E+00 0.  1.
          3    1    3    3  501    0  0.55750385115E+02 -0.15199886781E+03 -0.34484706814E+03  0.38096097131E+03  0.00000000000E+00 0.  1.
         21    1    1    2  502  501 -0.16932738864E+02 -0.25800327058E+01 -0.60340040497E+02  0.62723956359E+02  0.00000000000E+00 0. -1.
<mgrwt>
<rscale>  1 0.30000000E+03</rscale>
<asrwt>0</asrwt>
<pdfrwt beam="1">  1        1 0.11011730E+00 0.30000000E+03</pdfrwt>
<pdfrwt beam="2">0</pdfrwt>
<totfact> 0.29661866E+01</totfact>
</mgrwt>
</event>
<event>
 6    1  0.1901260E-004  0.3000000E+03  0.7818608E-02  0.1093470E+00
          1   -1    0    0  502    0  0.00000000000E+00  0.00000000000E+00  0.41580024999E+02  0.41580024999E+02  0.00000000000E+00 0.  1.
         13   -1    0    0    0    0 -0.00000000000E+00 -0.00000000000E+00 -0.10000000000E+04  0.10000000000E+04  0.00000000000E+00 0.  1.
    9000005    2    1    2  501    0 -0.74359939680E+02 -0.14410157139E+01 -0.79451601760E+03  0.86159117977E+03  0.32488795250E+03 0.  0.
         13    1    3    3    0    0 -0.69363401156E+02 -0.13096901511E+03 -0.17811982868E+03  0.23171283458E+03  0.00000000000E+00 0.  1.
          1    1    3    3  501    0 -0.49965385240E+01  0.12952799940E+03 -0.61639618892E+03  0.62987834519E+03  0.00000000000E+00 0.  1.
         21    1    1    2  502  501  0.74359939680E+02  0.14410157139E+01 -0.16390395740E+03  0.17998884523E+03  0.00000000000E+00 0.  1.
<mgrwt>
<rscale>  1 0.30000000E+03</rscale>
<asrwt>0</asrwt>
<pdfrwt beam="1">  1        1 0.15120041E+00 0.30000000E+03</pdfrwt>
<pdfrwt beam="2">0</pdfrwt>
<totfact> 0.17714639E+01</totfact>
</mgrwt>
</event>
<event>
 6    1  0.1901260E-004  0.3000000E+03  0.7818608E-02  0.1093470E+00
          1   -1    0    0  502    0  0.00000000000E+00  0.00000000000E+00  0.63397667018E+02  0.63397667018E+02  0.00000000000E+00 0.  1.
         13   -1    0    0    0    0 -0.00000000000E+00 -0.00000000000E+00 -0.10000000000E+04  0.10000000000E+04  0.00000000000E+00 0.  1.
    9000005    2    1    2  501    0 -0.82042971660E+01 -0.14324627646E+02 -0.93540194426E+03  0.10468463413E+04  0.46972115086E+03 0.  0.
         13    1    3    3    0    0 -0.23255581276E+03  0.44153774910E+02 -0.43139859312E+03  0.49207368151E+03  0.00000000000E+00 0.  1.
          1    1    3    3  501    0  0.22435151559E+03 -0.58478402556E+02 -0.50400335114E+03  0.55477265981E+03  0.00000000000E+00 0.  1.
         21    1    1    2  502  501  0.82042971660E+01  0.14324627646E+02 -0.12003887200E+01  0.16551325695E+02  0.00000000000E+00 0.  1.
<mgrwt>
<rscale>  1 0.30000000E+03</rscale>
<asrwt>0</asrwt>
<pdfrwt beam="1">  1        1 0.23053746E+00 0.30000000E+03</pdfrwt>
<pdfrwt beam="2">0</pdfrwt>
<totfact> 0.73576697E+00</totfact>
</mgrwt>
</event>
<event>
 6    1  0.1901260E-004  0.3000000E+03  0.7818608E-02  0.1093470E+00
          1   -1    0    0  502    0  0.00000000000E+00  0.00000000000E+00  0.43109482279E+02  0.43109482279E+02  0.00000000000E+00 0.  1.
         13   -1    0    0    0    0 -0.00000000000E+00 -0.00000000000E+00 -0.10000000000E+04  0.10000000000E+04  0.00000000000E+00 0.  1.
    9000005    2    1    2  501    0  0.76516305649E+01 -0.19485408131E+02 -0.96588729295E+03  0.10203241680E+04  0.32815380025E+03 0.  0.
         13    1    3    3    0    0  0.13163134003E+03  0.76688232059E+02 -0.64999342901E+03  0.66760718418E+03  0.00000000000E+00 0.  1.
          1    1    3    3  501    0 -0.12397970946E+03 -0.96173640190E+02 -0.31589386395E+03  0.35271698386E+03  0.00000000000E+00 0.  1.
         21    1    1    2  502  501 -0.76516305649E+01  0.19485408131E+02  0.89967752327E+01  0.22785314238E+02  0.00000000000E+00 0.  1.
<mgrwt>
<rscale>  1 0.30000000E+03</rscale>
<asrwt>0</asrwt>
<pdfrwt beam="1">  1        1 0.15676208E+00 0.30000000E+03</pdfrwt>
<pdfrwt beam="2">0</pdfrwt>
<totfact> 0.16608852E+01</totfact>
</mgrwt>
</event>
<event>
 6    1  0.1901260E-004  0.3000000E+03  0.7818608E-02  0.1093470E+00
          1   -1    0    0  502    0  0.00000000000E+00  0.00000000000E+00  0.43255227666E+02  0.43255227666E+02  0.00000000000E+00 0.  1.
         13   -1    0    0    0    0 -0.00000000000E+00 -0.00000000000E+00 -0.10000000000E+04  0.10000000000E+04  0.00000000000E+00 0.  1.
    9000005    2    1    2  501    0  0.10221493057E+02  0.31119691162E+02 -0.95640407084E+03  0.10104980884E+04  0.32453771084E+03 0.  0.
         13    1    3    3    0    0  0.91175928610E+02 -0.10405303757E+02 -0.89734969690E+03  0.90202982148E+03  0.00000000000E+00 0.  1.
          1    1    3    3  501    0 -0.80954435554E+02  0.41524994919E+02 -0.59054373936E+02  0.10846826688E+03  0.00000000000E+00 0.  1.
         21    1    1    2  502  501 -0.10221493057E+02 -0.31119691162E+02 -0.34070149668E+00  0.32757139311E+02  0.00000000000E+00 0.  1.
<mgrwt>
<rscale>  1 0.30000000E+03</rscale>
<asrwt>0</asrwt>
<pdfrwt beam="1">  1        1 0.15729207E+00 0.30000000E+03</pdfrwt>
<pdfrwt beam="2">0</pdfrwt>
<totfact> 0.16507866E+01</totfact>
</mgrwt>
</event>
<event>
 6    1  0.1901260E-004  0.3000000E+03  0.7818608E-02  0.1093470E+00
          1   -1    0    0  502    0  0.00000000000E+00  0.00000000000E+00  0.27701333156E+02  0.27701333156E+02  0.00000000000E+00 0.  1.
         13   -1    0    0    0    0 -0.00000000000E+00 -0.00000000000E+00 -0.10000000000E+04  0.10000000000E+04  0.00000000000E+00 0.  1.
    9000005    2    1    2  501    0 -0.90878312488E+01  0.26530423161E+02 -0.93854525196E+03  0.98381802145E+03  0.29367372597E+03 0.  0.
         13    1    3    3    0    0  0.12517261006E+03  0.58509251726E+02 -0.29661586886E+03  0.32721932783E+03  0.00000000000E+00 0.  1.
          1    1    3    3  501    0 -0.13426044130E+03 -0.31978828565E+02 -0.64192938311E+03  0.65659869363E+03  0.00000000000E+00 0.  1.
         21    1    1    2  502  501  0.90878312488E+01 -0.26530423161E+02 -0.33753414881E+02  0.43883311703E+02  0.00000000000E+00 0.  1.
<mgrwt>
<rscale>  1 0.30000000E+03</rscale>
<asrwt>0</asrwt>
<pdfrwt beam="1">  1        1 0.10073233E+00 0.30000000E+03</pdfrwt>
<pdfrwt beam="2">0</pdfrwt>
<totfact> 0.33863332E+01</totfact>
</mgrwt>
</event>
<event>
 6    1  0.1901260E-004  0.3000000E+03  0.7818608E-02  0.1093470E+00
          1   -1    0    0  502    0  0.00000000000E+00  0.00000000000E+00  0.28255454963E+02  0.28255454963E+02  0.00000000000E+00 0.  1.
         13   -1    0    0    0    0 -0.00000000000E+00 -0.00000000000E+00 -0.10000000000E+04  0.10000000000E+04  0.00000000000E+00 0.  1.
    9000005    2    1    2  501    0 -0.42185888303E+01 -0.11299124999E+02 -0.95715294180E+03  0.10093244856E+04  0.32007607915E+03 0.  0.
         13    1    3    3    0    0 -0.13520435338E+03  0.82257369534E+02 -0.43321285095E+03  0.46121563963E+03  0.00000000000E+00 0.  1.
          3    1    3    3  501    0  0.13098576455E+03 -0.93556494533E+02 -0.52394009085E+03  0.54810884593E+03  0.00000000000E+00 0.  1.
         21    1    1    2  502  501  0.42185888303E+01  0.11299124999E+02 -0.14591603240E+02  0.18930969404E+02  0.00000000000E+00 0.  1.
<mgrwt>
<rscale>  1 0.30000000E+03</rscale>
<asrwt>0</asrwt>
<pdfrwt beam="1">  1        1 0.10274733E+00 0.30000000E+03</pdfrwt>
<pdfrwt beam="2">0</pdfrwt>
<totfact> 0.32891625E+01</totfact>
</mgrwt>
</event>
<event>
 6    1  0.1901260E-004  0.3000000E+03  0.7818608E-02  0.1093470E+00
          3   -1    0    0  502    0  0.00000000000E+00  0.00000000000E+00  0.35216092896E+02  0.35216092896E+02  0.00000000000E+00 0.  1.
         13   -1    0    0    0    0 -0.00000000000E+00 -0.00000000000E+00 -0.10000000000E+04  0.10000000000E+04  0.00000000000E+00 0.  1.
    9000005    2    1    2  501    0  0.11412257142E+02  0.28865363898E+01 -0.95693216484E+03  0.10210661260E+04  0.35597513107E+03 0.  0.
         13    1    3    3    0    0 -0.94899214526E+02 -0.10835510540E+03 -0.74712003393E+03  0.76087780549E+03  0.00000000000E+00 0.  1.
          3    1    3    3  501    0  0.10631147167E+03  0.11124164179E+03 -0.20981213091E+03  0.26018832055E+03  0.00000000000E+00 0.  1.
         21    1    1    2  502  501 -0.11412257142E+02 -0.28865363898E+01 -0.78517422667E+01  0.14149966856E+02  0.00000000000E+00 0.  1.
<mgrwt>
<rscale>  1 0.30000000E+03</rscale>
<asrwt>0</asrwt>
<pdfrwt beam="1">  1        3 0.12805879E+00 0.30000000E+03</pdfrwt>
<pdfrwt beam="2">0</pdfrwt>
<totfact> 0.18642638E+00</totfact>
</mgrwt>
</event>
<event>
 6    1  0.1901260E-004  0.3000000E+03  0.7818608E-02  0.1093470E+00
          1   -1    0    0  502    0  0.00000000000E+00  0.00000000000E+00  0.41094370611E+02  0.41094370611E+02  0.00000000000E+00 0.  1.
         13   -1    0    0    0    0 -0.00000000000E+00 -0.00000000000E+00 -0.10000000000E+04  0.10000000000E+04  0.00000000000E+00 0.  1.
    9000005    2    1    2  501    0  0.38977389057E+02 -0.61568991207E+01 -0.95260552712E+03  0.10011339458E+04  0.30537639532E+03 0.  0.
         13    1    3    3    0    0  0.14204441171E+03 -0.61508589039E+02 -0.29440472107E+03  0.33261698876E+03  0.00000000000E+00 0.  1.
          1    1    3    3  501    0 -0.10306702265E+03  0.55351689918E+02 -0.65820080605E+03  0.66851695702E+03  0.00000000000E+00 0.  1.
         21    1    1    2  502  501 -0.38977389057E+02  0.61568991207E+01 -0.63001022688E+01  0.39960424836E+02  0.00000000000E+00 0.  1.
<mgrwt>
<rscale>  1 0.30000000E+03</rscale>
<asrwt>0</asrwt>
<pdfrwt beam="1">  1        1 0.14943439E+00 0.30000000E+03</pdfrwt>
<pdfrwt beam="2">0</pdfrwt>
<totfact> 0.18084414E+01</totfact>
</mgrwt>
</event>
<event>
 6    1  0.1901260E-004  0.3000000E+03  0.7818608E-02  0.1093470E+00
          1   -1    0    0  502    0  0.00000000000E+00  0.00000000000E+00  0.38230983388E+02  0.38230983388E+02  0.00000000000E+00 0.  1.
         13   -1    0    0    0    0 -0.00000000000E+00 -0.00000000000E+00 -0.10000000000E+04  0.10000000000E+04  0.00000000000E+00 0.  1.
    9000005    2    1    2  501    0 -0.11012782020E+01 -0.24137226014E+02 -0.96260577167E+03  0.10140541628E+04  0.31798137525E+03 0.  0.
         13    1    3    3    0    0  0.15396233429E+03  0.25503656390E+02 -0.46514940887E+03  0.49063103188E+03  0.00000000000E+00 0.  1.
          3    1    3    3  501    0 -0.15506361249E+03 -0.49640882405E+02 -0.49745636280E+03  0.52342313095E+03  0.00000000000E+00 0.  1.
         21    1    1    2  502  501  0.11012782020E+01  0.24137226014E+02  0.83675505720E+00  0.24176820560E+02  0.00000000000E+00 0. -1.
<mgrwt>
<rscale>  1 0.30000000E+03</rscale>
<asrwt>0</asrwt>
<pdfrwt beam="1">  1        1 0.13902205E+00 0.30000000E+03</pdfrwt>
<pdfrwt beam="2">0</pdfrwt>
<totfact> 0.20472939E+01</totfact>
</mgrwt>
</event>
<event>
 6    1  0.1901260E-004  0.3000000E+03  0.7818608E-02  0.1093470E+00
          1   -1    0    0  502    0  0.00000000000E+00  0.00000000000E+00  0.40806471539E+02  0.40806471539E+02  0.00000000000E+00 0.  1.
         13   -1    0    0    0    0 -0.00000000000E+00 -0.00000000000E+00 -0.10000000000E+04  0.10000000000E+04  0.00000000000E+00 0.  1.
    9000005    2    1    2  501    0  0.13779904073E+02 -0.13830369134E+02 -0.96404768542E+03  0.10206886261E+04  0.33471804067E+03 0.  0.
         13    1    3    3    0    0 -0.15660118503E+03 -0.40902978569E+02 -0.42910543187E+03  0.45861580486E+03  0.00000000000E+00 0.  1.
          3    1    3    3  501    0  0.17038108910E+03  0.27072609435E+02 -0.53494225355E+03  0.56207282121E+03  0.00000000000E+00 0.  1.
         21    1    1    2  502  501 -0.13779904073E+02  0.13830369134E+02  0.48541569602E+01  0.20117845472E+02  0.00000000000E+00 0. -1.
<mgrwt>
<rscale>  1 0.30000000E+03</rscale>
<asrwt>0</asrwt>
<pdfrwt beam="1">  1        1 0.14838748E+00 0.30000000E+03</pdfrwt>
<pdfrwt beam="2">0</pdfrwt>
<totfact> 0.18308140E+01</totfact>
</mgrwt>
</event>
<event>
 6    1  0.1901260E-004  0.3000000E+03  0.7818608E-02  0.1093470E+00
          1   -1    0    0  502    0  0.00000000000E+00  0.00000000000E+00  0.30197701022E+02  0.30197701022E+02  0.00000000000E+00 0.  1.
         13   -1    0    0    0    0 -0.00000000000E+00 -0.00000000000E+00 -0.10000000000E+04  0.10000000000E+04  0.00000000000E+00 0.  1.
    9000005    2    1    2  501    0  0.68348224397E+01  0.13276928702E+02 -0.93623163224E+03  0.99345560937E+03  0.33196594246E+03 0.  0.
         13    1    3    3    0    0  0.92610811417E+02  0.42109912176E+02 -0.72327543989E+02  0.12482500036E+03  0.00000000000E+00 0.  1.
          3    1    3    3  501    0 -0.85775988977E+02 -0.28832983475E+02 -0.86390408825E+03  0.86863060901E+03  0.00000000000E+00 0.  1.
         21    1    1    2  502  501 -0.68348224397E+01 -0.13276928702E+02 -0.33570666740E+02  0.36742091651E+02  0.00000000000E+00 0.  1.
<mgrwt>
<rscale>  1 0.30000000E+03</rscale>
<asrwt>0</asrwt>
<pdfrwt beam="1">  1        1 0.10981005E+00 0.30000000E+03</pdfrwt>
<pdfrwt beam="2">0</pdfrwt>
<totfact> 0.29787235E+01</totfact>
</mgrwt>
</event>
<event>
 6    1  0.1901260E-004  0.3000000E+03  0.7818608E-02  0.1093470E+00
          1   -1    0    0  502    0  0.00000000000E+00  0.00000000000E+00  0.56858050073E+02  0.56858050073E+02  0.00000000000E+00 0.  1.
         13   -1    0    0    0    0 -0.00000000000E+00 -0.00000000000E+00 -0.10000000000E+04  0.10000000000E+04  0.00000000000E+00 0.  1.
    9000005    2    1    2  501    0  0.39569865499E+02  0.10410102069E+02 -0.94022261373E+03  0.10158377258E+04  0.38240499119E+03 0.  0.
         13    1    3    3    0    0  0.18837854281E+03  0.86602482478E+02 -0.40303677325E+03  0.45323846478E+03  0.00000000000E+00 0.  1.
          3    1    3    3  501    0 -0.14880867732E+03 -0.76192380409E+02 -0.53718584048E+03  0.56259926101E+03  0.00000000000E+00 0.  1.
         21    1    1    2  502  501 -0.39569865499E+02 -0.10410102069E+02 -0.29193361994E+01  0.41020324286E+02  0.00000000000E+00 0.  1.
<mgrwt>
<rscale>  1 0.30000000E+03</rscale>
<asrwt>0</asrwt>
<pdfrwt beam="1">  1        1 0.20675698E+00 0.30000000E+03</pdfrwt>
<pdfrwt beam="2">0</pdfrwt>
<totfact> 0.95148471E+00</totfact>
</mgrwt>
</event>
<event>
 6    1  0.1901260E-004  0.3000000E+03  0.7818608E-02  0.1093470E+00
          1   -1    0    0  502    0  0.00000000000E+00  0.00000000000E+00  0.41493512396E+02  0.41493512396E+02  0.00000000000E+00 0.  1.
         13   -1    0    0    0    0 -0.00000000000E+00 -0.00000000000E+00 -0.10000000000E+04  0.10000000000E+04  0.00000000000E+00 0.  1.
    9000005    2    1    2  501    0  0.25075123283E+02  0.21059615298E+02 -0.94679513815E+03  0.10067167254E+04  0.34056609121E+03 0.  0.
         13    1    3    3    0    0 -0.82999407425E+02 -0.12370923027E+03 -0.29689843081E+03  0.33217699123E+03  0.00000000000E+00 0.  1.
          1    1    3    3  501    0  0.10807453071E+03  0.14476884556E+03 -0.64989670733E+03  0.67453973422E+03  0.00000000000E+00 0.  1.
         21    1    1    2  502  501 -0.25075123283E+02 -0.21059615298E+02 -0.11711349459E+02  0.34776786946E+02  0.00000000000E+00 0.  1.
<mgrwt>
<rscale>  1 0.30000000E+03</rscale>
<asrwt>0</asrwt>
<pdfrwt beam="1">  1        1 0.15088582E+00 0.30000000E+03</pdfrwt>
<pdfrwt beam="2">0</pdfrwt>
<totfact> 0.17779821E+01</totfact>
</mgrwt>
</event>
<event>
 6    1  0.1901260E-004  0.3000000E+03  0.7818608E-02  0.1093470E+00
          1   -1    0    0  502    0  0.00000000000E+00  0.00000000000E+00  0.28799729865E+02  0.28799729865E+02  0.00000000000E+00 0.  1.
         13   -1    0    0    0    0 -0.00000000000E+00 -0.00000000000E+00 -0.10000000000E+04  0.10000000000E+04  0.00000000000E+00 0.  1.
    9000005    2    1    2  501    0 -0.44508598431E+01 -0.17248054578E+02 -0.94920281141E+03  0.10004943641E+04  0.31573040698E+03 0.  0.
         13    1    3    3    0    0 -0.14740675548E+03  0.32275159029E+02 -0.32662196487E+03  0.35979486570E+03  0.00000000000E+00 0.  1.
          3    1    3    3  501    0  0.14295589564E+03 -0.49523213606E+02 -0.62258084654E+03  0.64069949841E+03  0.00000000000E+00 0.  1.
         21    1    1    2  502  501  0.44508598431E+01  0.17248054578E+02 -0.21997458729E+02  0.28305365756E+02  0.00000000000E+00 0. -1.
<mgrwt>
<rscale>  1 0.30000000E+03</rscale>
<asrwt>0</asrwt>
<pdfrwt beam="1">  1        1 0.10472651E+00 0.30000000E+03</pdfrwt>
<pdfrwt beam="2">0</pdfrwt>
<totfact> 0.31976294E+01</totfact>
</mgrwt>
</event>
<event>
 6    1  0.1901260E-004  0.3000000E+03  0.7818608E-02  0.1093470E+00
          1   -1    0    0  502    0  0.00000000000E+00  0.00000000000E+00  0.45292153291E+02  0.45292153291E+02  0.00000000000E+00 0.  1.
         13   -1    0    0    0    0 -0.00000000000E+00 -0.00000000000E+00 -0.10000000000E+04  0.10000000000E+04  0.00000000000E+00 0.  1.
    9000005    2    1    2  501    0 -0.72849322742E+01  0.11690039030E+02 -0.96040839407E+03  0.10303849909E+04  0.37298688822E+03 0.  0.
         13    1    3    3    0    0  0.61989826691E+02  0.16010192367E+03 -0.26354671634E+03  0.31453495238E+03  0.00000000000E+00 0.  1.
          3    1    3    3  501    0 -0.69274758966E+02 -0.14841188464E+03 -0.69686167773E+03  0.71585003850E+03  0.00000000000E+00 0.  1.
         21    1    1    2  502  501  0.72849322742E+01 -0.11690039030E+02  0.57005473621E+01  0.14907162406E+02  0.00000000000E+00 0.  1.
<mgrwt>
<rscale>  1 0.30000000E+03</rscale>
<asrwt>0</asrwt>
<pdfrwt beam="1">  1        1 0.16469909E+00 0.30000000E+03</pdfrwt>
<pdfrwt beam="2">0</pdfrwt>
<totfact> 0.15168992E+01</totfact>
</mgrwt>
</event>
<event>
 6    1  0.1913690E-004  0.3000000E+03  0.7818608E-02  0.1093470E+00
          1   -1    0    0  502    0  0.00000000000E+00  0.00000000000E+00  0.51339222558E+02  0.51339222558E+02  0.00000000000E+00 0.  1.
         13   -1    0    0    0    0 -0.00000000000E+00 -0.00000000000E+00 -0.10000000000E+04  0.10000000000E+04  0.00000000000E+00 0.  1.
    9000005    2    1    2  501    0  0.99715470416E+01  0.22470177707E+01 -0.93902765760E+03  0.10372936597E+04  0.44056862552E+03 0.  0.
         13    1    3    3    0    0 -0.12220333377E+03 -0.72471532319E+02 -0.76223802485E+02  0.16123227297E+03  0.00000000000E+00 0.  1.
          3    1    3    3  501    0  0.13217488082E+03  0.74718550090E+02 -0.86280385511E+03  0.87606138669E+03  0.00000000000E+00 0.  1.
         21    1    1    2  502  501 -0.99715470416E+01 -0.22470177707E+01 -0.96331198441E+01  0.14045562901E+02  0.00000000000E+00 0.  1.
<mgrwt>
<rscale>  1 0.30000000E+03</rscale>
<asrwt>0</asrwt>
<pdfrwt beam="1">  1        1 0.18668848E+00 0.30000000E+03</pdfrwt>
<pdfrwt beam="2">0</pdfrwt>
<totfact> 0.11860569E+01</totfact>
</mgrwt>
</event>
<event>
 6    1  0.1901260E-004  0.3000000E+03  0.7818608E-02  0.1093470E+00
          1   -1    0    0  502    0  0.00000000000E+00  0.00000000000E+00  0.42847307331E+02  0.42847307331E+02  0.00000000000E+00 0.  1.
         13   -1    0    0    0    0 -0.00000000000E+00 -0.00000000000E+00 -0.10000000000E+04  0.10000000000E+04  0.00000000000E+00 0.  1.
    9000005    2    1    2  501    0 -0.12758748330E+02  0.72235159524E+01 -0.96903184935E+03  0.10239772463E+04  0.33059296869E+03 0.  0.
         13    1    3    3    0    0  0.98763427617E+02 -0.11651568103E+02 -0.86373994149E+03  0.86944618016E+03  0.00000000000E+00 0.  1.
          1    1    3    3  501    0 -0.11152217595E+03  0.18875084056E+02 -0.10529190786E+03  0.15453106609E+03  0.00000000000E+00 0.  1.
         21    1    1    2  502  501  0.12758748330E+02 -0.72235159524E+01  0.11879156682E+02  0.18870061079E+02  0.00000000000E+00 0.  1.
<mgrwt>
<rscale>  1 0.30000000E+03</rscale>
<asrwt>0</asrwt>
<pdfrwt beam="1">  1        1 0.15580872E+00 0.30000000E+03</pdfrwt>
<pdfrwt beam="2">0</pdfrwt>
<totfact> 0.16792368E+01</totfact>
</mgrwt>
</event>
<event>
 6    1  0.1901260E-004  0.3000000E+03  0.7818608E-02  0.1093470E+00
          1   -1    0    0  502    0  0.00000000000E+00  0.00000000000E+00  0.70979681017E+02  0.70979681017E+02  0.00000000000E+00 0.  1.
         13   -1    0    0    0    0 -0.00000000000E+00 -0.00000000000E+00 -0.10000000000E+04  0.10000000000E+04  0.00000000000E+00 0.  1.
    9000005    2    1    2  501    0 -0.49329334260E+01 -0.31887044091E+02 -0.96760329604E+03  0.10206829263E+04  0.32325899861E+03 0.  0.
         13    1    3    3    0    0  0.15163950929E+02  0.13659154067E+03 -0.27279614009E+03  0.30545855437E+03  0.00000000000E+00 0.  1.
          3    1    3    3  501    0 -0.20096884355E+02 -0.16847858476E+03 -0.69480715595E+03  0.71522437196E+03  0.00000000000E+00 0.  1.
         21    1    1    2  502  501  0.49329334260E+01  0.31887044091E+02  0.38582977059E+02  0.50296754685E+02  0.00000000000E+00 0.  1.
<mgrwt>
<rscale>  1 0.30000000E+03</rscale>
<asrwt>0</asrwt>
<pdfrwt beam="1">  1        1 0.25810848E+00 0.30000000E+03</pdfrwt>
<pdfrwt beam="2">0</pdfrwt>
<totfact> 0.54687999E+00</totfact>
</mgrwt>
</event>
<event>
 6    1  0.1901260E-004  0.3000000E+03  0.7818608E-02  0.1093470E+00
          1   -1    0    0  502    0  0.00000000000E+00  0.00000000000E+00  0.30639574623E+02  0.30639574623E+02  0.00000000000E+00 0.  1.
         13   -1    0    0    0    0 -0.00000000000E+00 -0.00000000000E+00 -0.10000000000E+04  0.10000000000E+04  0.00000000000E+00 0.  1.
    9000005    2    1    2  501    0  0.69069114254E+01  0.78305553792E+01 -0.95669067356E+03  0.10142217296E+04  0.33657042200E+03 0.  0.
         13    1    3    3    0    0  0.12097169298E+03 -0.11435245348E+03 -0.54621054137E+03  0.57101365100E+03  0.00000000000E+00 0.  1.
          1    1    3    3  501    0 -0.11406478156E+03  0.12218300886E+03 -0.41048013219E+03  0.44320807864E+03  0.00000000000E+00 0.  1.
         21    1    1    2  502  501 -0.69069114254E+01 -0.78305553792E+01 -0.12669751814E+02  0.16417844987E+02  0.00000000000E+00 0.  1.
<mgrwt>
<rscale>  1 0.30000000E+03</rscale>
<asrwt>0</asrwt>
<pdfrwt beam="1">  1        1 0.11141687E+00 0.30000000E+03</pdfrwt>
<pdfrwt beam="2">0</pdfrwt>
<totfact> 0.29139790E+01</totfact>
</mgrwt>
</event>
<event>
 6    1  0.1901260E-004  0.3000000E+03  0.7818608E-02  0.1093470E+00
          1   -1    0    0  502    0  0.00000000000E+00  0.00000000000E+00  0.52492619571E+02  0.52492619571E+02  0.00000000000E+00 0.  1.
         13   -1    0    0    0    0 -0.00000000000E+00 -0.00000000000E+00 -0.10000000000E+04  0.10000000000E+04  0.00000000000E+00 0.  1.
    9000005    2    1    2  501    0  0.18570557119E+02  0.44665789733E+01 -0.97027249444E+03  0.10227761875E+04  0.32292042414E+03 0.  0.
         13    1    3    3    0    0 -0.17463621616E+02  0.99529341183E+02 -0.88308278870E+03  0.88884547563E+03  0.00000000000E+00 0.  1.
          1    1    3    3  501    0  0.36034178735E+02 -0.95062762210E+02 -0.87189705733E+02  0.13393071187E+03  0.00000000000E+00 0.  1.
         21    1    1    2  502  501 -0.18570557119E+02 -0.44665789733E+01  0.22765114008E+02  0.29716432074E+02  0.00000000000E+00 0. -1.
<mgrwt>
<rscale>  1 0.30000000E+03</rscale>
<asrwt>0</asrwt>
<pdfrwt beam="1">  1        1 0.19088266E+00 0.30000000E+03</pdfrwt>
<pdfrwt beam="2">0</pdfrwt>
<totfact> 0.11323044E+01</totfact>
</mgrwt>
</event>
<event>
 6    1  0.1901260E-004  0.3000000E+03  0.7818608E-02  0.1093470E+00
          3   -1    0    0  502    0  0.00000000000E+00  0.00000000000E+00  0.31823613966E+02  0.31823613966E+02  0.00000000000E+00 0.  1.
         13   -1    0    0    0    0 -0.00000000000E+00 -0.00000000000E+00 -0.10000000000E+04  0.10000000000E+04  0.00000000000E+00 0.  1.
    9000005    2    1    2  501    0  0.77034077175E+02 -0.79012178096E+02 -0.59836564515E+03  0.64589984247E+03  0.21672099084E+03 0.  0.
         13    1    3    3    0    0  0.10606999261E+02 -0.14742234986E+03 -0.35799760399E+03  0.38730884592E+03  0.00000000000E+00 0.  1.
          1    1    3    3  501    0  0.66427077914E+02  0.68410171765E+02 -0.24036804116E+03  0.25859099655E+03  0.00000000000E+00 0.  1.
         21    1    1    2  502  501 -0.77034077175E+02  0.79012178096E+02 -0.36981074088E+03  0.38592377150E+03  0.00000000000E+00 0. -1.
<mgrwt>
<rscale>  1 0.30000000E+03</rscale>
<asrwt>0</asrwt>
<pdfrwt beam="1">  1        3 0.11572248E+00 0.30000000E+03</pdfrwt>
<pdfrwt beam="2">0</pdfrwt>
<totfact> 0.25918148E+00</totfact>
</mgrwt>
</event>
<event>
 6    1  0.1901260E-004  0.3000000E+03  0.7818608E-02  0.1093470E+00
          1   -1    0    0  502    0  0.00000000000E+00  0.00000000000E+00  0.49449451767E+02  0.49449451767E+02  0.00000000000E+00 0.  1.
         13   -1    0    0    0    0 -0.00000000000E+00 -0.00000000000E+00 -0.10000000000E+04  0.10000000000E+04  0.00000000000E+00 0.  1.
    9000005    2    1    2  501    0  0.41819139145E+02  0.16471193643E+02 -0.95086466034E+03  0.10045023797E+04  0.32071995256E+03 0.  0.
         13    1    3    3    0    0  0.28672646040E+02  0.27749268216E+02 -0.97443519985E+03  0.97525181426E+03  0.00000000000E+00 0.  1.
          1    1    3    3  501    0  0.13146493105E+02 -0.11278074573E+02  0.23570539510E+02  0.29250565462E+02  0.00000000000E+00 0.  1.
         21    1    1    2  502  501 -0.41819139145E+02 -0.16471193643E+02  0.31411210582E+00  0.44947072043E+02  0.00000000000E+00 0.  1.
<mgrwt>
<rscale>  1 0.30000000E+03</rscale>
<asrwt>0</asrwt>
<pdfrwt beam="1">  1        1 0.17981657E+00 0.30000000E+03</pdfrwt>
<pdfrwt beam="2">0</pdfrwt>
<totfact> 0.12800577E+01</totfact>
</mgrwt>
</event>
<event>
 6    1  0.1901260E-004  0.3000000E+03  0.7818608E-02  0.1093470E+00
          1   -1    0    0  502    0  0.00000000000E+00  0.00000000000E+00  0.34307198251E+02  0.34307198251E+02  0.00000000000E+00 0.  1.
         13   -1    0    0    0    0 -0.00000000000E+00 -0.00000000000E+00 -0.10000000000E+04  0.10000000000E+04  0.00000000000E+00 0.  1.
    9000005    2    1    2  501    0  0.10473408137E+02  0.17947921292E+02 -0.96669879156E+03  0.10135025792E+04  0.30372537657E+03 0.  0.
         13    1    3    3    0    0 -0.11228170555E+03 -0.19880406144E+00 -0.14967456622E+03  0.18710878305E+03  0.00000000000E+00 0.  1.
          3    1    3    3  501    0  0.12275511369E+03  0.18146725354E+02 -0.81702422534E+03  0.82639379619E+03  0.00000000000E+00 0.  1.
         21    1    1    2  502  501 -0.10473408137E+02 -0.17947921292E+02  0.10059898080E+01  0.20804619012E+02  0.00000000000E+00 0. -1.
<mgrwt>
<rscale>  1 0.30000000E+03</rscale>
<asrwt>0</asrwt>
<pdfrwt beam="1">  1        1 0.12475371E+00 0.30000000E+03</pdfrwt>
<pdfrwt beam="2">0</pdfrwt>
<totfact> 0.24450720E+01</totfact>
</mgrwt>
</event>
<event>
 6    1  0.1901260E-004  0.3000000E+03  0.7818608E-02  0.1093470E+00
          1   -1    0    0  502    0  0.00000000000E+00  0.00000000000E+00  0.28351533367E+02  0.28351533367E+02  0.00000000000E+00 0.  1.
         13   -1    0    0    0    0 -0.00000000000E+00 -0.00000000000E+00 -0.10000000000E+04  0.10000000000E+04  0.00000000000E+00 0.  1.
    9000005    2    1    2  501    0 -0.31291612924E+01  0.11588210395E+02 -0.95398695381E+03  0.10069972058E+04  0.32219277798E+03 0.  0.
         13    1    3    3    0    0 -0.84771142757E+02  0.13671914797E+03 -0.63008131929E+03  0.65029281173E+03  0.00000000000E+00 0.  1.
          1    1    3    3  501    0  0.81641981464E+02 -0.12513093758E+03 -0.32390563452E+03  0.35670439407E+03  0.00000000000E+00 0.  1.
         21    1    1    2  502  501  0.31291612924E+01 -0.11588210395E+02 -0.17661512819E+02  0.21354327562E+02  0.00000000000E+00 0. -1.
<mgrwt>
<rscale>  1 0.30000000E+03</rscale>
<asrwt>0</asrwt>
<pdfrwt beam="1">  1        1 0.10309670E+00 0.30000000E+03</pdfrwt>
<pdfrwt beam="2">0</pdfrwt>
<totfact> 0.32727298E+01</totfact>
</mgrwt>
</event>
<event>
 6    1  0.1901260E-004  0.3000000E+03  0.7818608E-02  0.1093470E+00
          1   -1    0    0  502    0  0.00000000000E+00  0.00000000000E+00  0.58799499264E+02  0.58799499264E+02  0.00000000000E+00 0.  1.
         13   -1    0    0    0    0 -0.00000000000E+00 -0.00000000000E+00 -0.10000000000E+04  0.10000000000E+04  0.00000000000E+00 0.  1.
    9000005    2    1    2  501    0  0.10660980235E+03 -0.60745569797E+02 -0.78917598905E+03  0.86343541259E+03  0.32812542697E+03 0.  0.
         13    1    3    3    0    0  0.17061850998E+03 -0.74073970508E+02 -0.77437307569E+03  0.79639895116E+03  0.00000000000E+00 0.  1.
          3    1    3    3  501    0 -0.64008707628E+02  0.13328400711E+02 -0.14802913358E+02  0.67036461435E+02  0.00000000000E+00 0.  1.
         21    1    1    2  502  501 -0.10660980235E+03  0.60745569797E+02 -0.15202451169E+03  0.19536408667E+03  0.00000000000E+00 0.  1.
<mgrwt>
<rscale>  1 0.30000000E+03</rscale>
<asrwt>0</asrwt>
<pdfrwt beam="1">  1        1 0.21381681E+00 0.30000000E+03</pdfrwt>
<pdfrwt beam="2">0</pdfrwt>
<totfact> 0.88130793E+00</totfact>
</mgrwt>
</event>
<event>
 6    1  0.1901260E-004  0.3000000E+03  0.7818608E-02  0.1093470E+00
          1   -1    0    0  502    0  0.00000000000E+00  0.00000000000E+00  0.40920154054E+02  0.40920154054E+02  0.00000000000E+00 0.  1.
         13   -1    0    0    0    0 -0.00000000000E+00 -0.00000000000E+00 -0.10000000000E+04  0.10000000000E+04  0.00000000000E+00 0.  1.
    9000005    2    1    2  501    0  0.37826382622E+02  0.36230062153E+02 -0.91658118745E+03  0.97346951581E+03  0.32369487546E+03 0.  0.
         13    1    3    3    0    0  0.43443475149E+02 -0.13851122952E+03 -0.52365045177E+03  0.54339901719E+03  0.00000000000E+00 0.  1.
          1    1    3    3  501    0 -0.56170925277E+01  0.17474129168E+03 -0.39293073567E+03  0.43007049862E+03  0.00000000000E+00 0.  1.
         21    1    1    2  502  501 -0.37826382622E+02 -0.36230062153E+02 -0.42498658500E+02  0.67450638248E+02  0.00000000000E+00 0. -1.
<mgrwt>
<rscale>  1 0.30000000E+03</rscale>
<asrwt>0</asrwt>
<pdfrwt beam="1">  1        1 0.14880087E+00 0.30000000E+03</pdfrwt>
<pdfrwt beam="2">0</pdfrwt>
<totfact> 0.18219388E+01</totfact>
</mgrwt>
</event>
<event>
 6    1  0.1901260E-004  0.3000000E+03  0.7818608E-02  0.1093470E+00
          1   -1    0    0  502    0  0.00000000000E+00  0.00000000000E+00  0.42222950683E+02  0.42222950683E+02  0.00000000000E+00 0.  1.
         13   -1    0    0    0    0 -0.00000000000E+00 -0.00000000000E+00 -0.10000000000E+04  0.10000000000E+04  0.00000000000E+00 0.  1.
    9000005    2    1    2  501    0  0.41683960895E+02  0.12180061181E+01 -0.94170554038E+03  0.99753145782E+03  0.32637501196E+03 0.  0.
         13    1    3    3    0    0  0.87427833998E+02 -0.67022980077E+02 -0.89750681672E+03  0.90424233039E+03  0.00000000000E+00 0.  1.
          1    1    3    3  501    0 -0.45743873102E+02  0.68240986195E+02 -0.44198723658E+02  0.93289127428E+02  0.00000000000E+00 0.  1.
         21    1    1    2  502  501 -0.41683960895E+02 -0.12180061181E+01 -0.16071508941E+02  0.44691492865E+02  0.00000000000E+00 0.  1.
<mgrwt>
<rscale>  1 0.30000000E+03</rscale>
<asrwt>0</asrwt>
<pdfrwt beam="1">  1        1 0.15353833E+00 0.30000000E+03</pdfrwt>
<pdfrwt beam="2">0</pdfrwt>
<totfact> 0.17239280E+01</totfact>
</mgrwt>
</event>
<event>
 6    1  0.1901260E-004  0.3000000E+03  0.7818608E-02  0.1093470E+00
          1   -1    0    0  502    0  0.00000000000E+00  0.00000000000E+00  0.28910483752E+02  0.28910483752E+02  0.00000000000E+00 0.  1.
         13   -1    0    0    0    0 -0.00000000000E+00 -0.00000000000E+00 -0.10000000000E+04  0.10000000000E+04  0.00000000000E+00 0.  1.
    9000005    2    1    2  501    0 -0.17791617407E+01  0.11937023473E+02 -0.95218369491E+03  0.10064808599E+04  0.32588997305E+03 0.  0.
         13    1    3    3    0    0  0.79406237540E+02 -0.12873565137E+03 -0.59799907704E+03  0.61683151235E+03  0.00000000000E+00 0.  1.
          3    1    3    3  501    0 -0.81185399281E+02  0.14067267484E+03 -0.35418461788E+03  0.38964934755E+03  0.00000000000E+00 0.  1.
         21    1    1    2  502  501  0.17791617407E+01 -0.11937023473E+02 -0.18905821335E+02  0.22429623855E+02  0.00000000000E+00 0.  1.
<mgrwt>
<rscale>  1 0.30000000E+03</rscale>
<asrwt>0</asrwt>
<pdfrwt beam="1">  1        1 0.10512925E+00 0.30000000E+03</pdfrwt>
<pdfrwt beam="2">0</pdfrwt>
<totfact> 0.31794568E+01</totfact>
</mgrwt>
</event>
<event>
 6    1  0.1901260E-004  0.3000000E+03  0.7818608E-02  0.1093470E+00
          1   -1    0    0  502    0  0.00000000000E+00  0.00000000000E+00  0.29984730238E+02  0.29984730238E+02  0.00000000000E+00 0.  1.
         13   -1    0    0    0    0 -0.00000000000E+00 -0.00000000000E+00 -0.10000000000E+04  0.10000000000E+04  0.00000000000E+00 0.  1.
    9000005    2    1    2  501    0 -0.43821056953E+01 -0.69745496589E+01 -0.94481381793E+03  0.10034713305E+04  0.33795519424E+03 0.  0.
         13    1    3    3    0    0 -0.50894181489E+02 -0.10223563053E+03 -0.99297262810E+02  0.15133501994E+03  0.00000000000E+00 0.  1.
          1    1    3    3  501    0  0.46512075793E+02  0.95261080872E+02 -0.84551655512E+03  0.85213631052E+03  0.00000000000E+00 0.  1.
         21    1    1    2  502  501  0.43821056953E+01  0.69745496589E+01 -0.25201451830E+02  0.26513399775E+02  0.00000000000E+00 0.  1.
<mgrwt>
<rscale>  1 0.30000000E+03</rscale>
<asrwt>0</asrwt>
<pdfrwt beam="1">  1        1 0.10903561E+00 0.30000000E+03</pdfrwt>
<pdfrwt beam="2">0</pdfrwt>
<totfact> 0.30106593E+01</totfact>
</mgrwt>
</event>
<event>
 6    1  0.1901260E-004  0.3000000E+03  0.7818608E-02  0.1093470E+00
          1   -1    0    0  502    0  0.00000000000E+00  0.00000000000E+00  0.41937154197E+02  0.41937154197E+02  0.00000000000E+00 0.  1.
         13   -1    0    0    0    0 -0.00000000000E+00 -0.00000000000E+00 -0.10000000000E+04  0.10000000000E+04  0.00000000000E+00 0.  1.
    9000005    2    1    2  501    0  0.12278894885E+02  0.32848786713E+02 -0.95161383785E+03  0.10062804052E+04  0.32527149180E+03 0.  0.
         13    1    3    3    0    0 -0.47852254595E+02  0.10419673724E+03 -0.10797502156E+03  0.15749731300E+03  0.00000000000E+00 0.  1.
          1    1    3    3  501    0  0.60131149480E+02 -0.71347950530E+02 -0.84363881630E+03  0.84878309216E+03  0.00000000000E+00 0.  1.
         21    1    1    2  502  501 -0.12278894885E+02 -0.32848786713E+02 -0.64490079498E+01  0.35656749033E+02  0.00000000000E+00 0.  1.
<mgrwt>
<rscale>  1 0.30000000E+03</rscale>
<asrwt>0</asrwt>
<pdfrwt beam="1">  1        1 0.15249906E+00 0.30000000E+03</pdfrwt>
<pdfrwt beam="2">0</pdfrwt>
<totfact> 0.17448643E+01</totfact>
</mgrwt>
</event>
<event>
 6    1  0.1901260E-004  0.3000000E+03  0.7818608E-02  0.1093470E+00
          1   -1    0    0  502    0  0.00000000000E+00  0.00000000000E+00  0.66744789457E+02  0.66744789457E+02  0.00000000000E+00 0.  1.
         13   -1    0    0    0    0 -0.00000000000E+00 -0.00000000000E+00 -0.10000000000E+04  0.10000000000E+04  0.00000000000E+00 0.  1.
    9000005    2    1    2  501    0 -0.27514102802E+02  0.49306853132E+02 -0.95377072767E+03  0.10066691866E+04  0.31704267633E+03 0.  0.
         13    1    3    3    0    0 -0.14483044229E+03  0.32353825018E+02 -0.23320242888E+03  0.27641635234E+03  0.00000000000E+00 0.  1.
          1    1    3    3  501    0  0.11731633949E+03  0.16953028115E+02 -0.72056829879E+03  0.73025283423E+03  0.00000000000E+00 0.  1.
         21    1    1    2  502  501  0.27514102802E+02 -0.49306853132E+02  0.20515517128E+02  0.60075602884E+02  0.00000000000E+00 0.  1.
<mgrwt>
<rscale>  1 0.30000000E+03</rscale>
<asrwt>0</asrwt>
<pdfrwt beam="1">  1        1 0.24270884E+00 0.30000000E+03</pdfrwt>
<pdfrwt beam="2">0</pdfrwt>
<totfact> 0.64524542E+00</totfact>
</mgrwt>
</event>
<event>
 6    1  0.1901260E-004  0.3000000E+03  0.7818608E-02  0.1093470E+00
          1   -1    0    0  502    0  0.00000000000E+00  0.00000000000E+00  0.24263797925E+02  0.24263797925E+02  0.00000000000E+00 0.  1.
         13   -1    0    0    0    0 -0.00000000000E+00 -0.00000000000E+00 -0.10000000000E+04  0.10000000000E+04  0.00000000000E+00 0.  1.
    9000005    2    1    2  501    0  0.99609933537E+01  0.18593131641E+01 -0.96198033849E+03  0.10071786518E+04  0.29816100790E+03 0.  0.
         13    1    3    3    0    0 -0.32338983964E+02 -0.24730414732E+01  0.10253365249E+02  0.34015545224E+02  0.00000000000E+00 0.  1.
          3    1    3    3  501    0  0.42299977318E+02  0.43323546373E+01 -0.97223370374E+03  0.97316310661E+03  0.00000000000E+00 0.  1.
         21    1    1    2  502  501 -0.99609933537E+01 -0.18593131641E+01 -0.13755863588E+02  0.17085146095E+02  0.00000000000E+00 0. -1.
<mgrwt>
<rscale>  1 0.30000000E+03</rscale>
<asrwt>0</asrwt>
<pdfrwt beam="1">  1        1 0.88232179E-01 0.30000000E+03</pdfrwt>
<pdfrwt beam="2">0</pdfrwt>
<totfact> 0.40964931E+01</totfact>
</mgrwt>
</event>
<event>
 6    1  0.1901260E-004  0.3000000E+03  0.7818608E-02  0.1093470E+00
          1   -1    0    0  502    0  0.00000000000E+00  0.00000000000E+00  0.29117362391E+02  0.29117362391E+02  0.00000000000E+00 0.  1.
         13   -1    0    0    0    0 -0.00000000000E+00 -0.00000000000E+00 -0.10000000000E+04  0.10000000000E+04  0.00000000000E+00 0.  1.
    9000005    2    1    2  501    0  0.10606125058E+02 -0.58346702216E+01 -0.95330443140E+03  0.10077742933E+04  0.32660856390E+03 0.  0.
         13    1    3    3    0    0  0.13509190536E+03 -0.69107296703E+02 -0.26430973389E+03  0.30477085947E+03  0.00000000000E+00 0.  1.
          1    1    3    3  501    0 -0.12448578030E+03  0.63272626481E+02 -0.68899469751E+03  0.70300343382E+03  0.00000000000E+00 0.  1.
         21    1    1    2  502  501 -0.10606125058E+02  0.58346702216E+01 -0.17578206205E+02  0.21343069103E+02  0.00000000000E+00 0. -1.
<mgrwt>
<rscale>  1 0.30000000E+03</rscale>
<asrwt>0</asrwt>
<pdfrwt beam="1">  1        1 0.10588154E+00 0.30000000E+03</pdfrwt>
<pdfrwt beam="2">0</pdfrwt>
<totfact> 0.31459096E+01</totfact>
</mgrwt>
</event>
<event>
 6    1  0.1901260E-004  0.3000000E+03  0.7818608E-02  0.1093470E+00
          1   -1    0    0  502    0  0.00000000000E+00  0.00000000000E+00  0.40056357188E+02  0.40056357188E+02  0.00000000000E+00 0.  1.
         13   -1    0    0    0    0 -0.00000000000E+00 -0.00000000000E+00 -0.10000000000E+04  0.10000000000E+04  0.00000000000E+00 0.  1.
    9000005    2    1    2  501    0 -0.28623075185E+02 -0.56932152559E+01 -0.92144620336E+03  0.99174749695E+03  0.36557940162E+03 0.  0.
         13    1    3    3    0    0  0.15066145283E+03 -0.30019537450E+01 -0.21269097234E+03  0.26066325942E+03  0.00000000000E+00 0.  1.
          3    1    3    3  501    0 -0.17928452801E+03 -0.26912615109E+01 -0.70875523102E+03  0.73108423753E+03  0.00000000000E+00 0.  1.
         21    1    1    2  502  501  0.28623075185E+02  0.56932152559E+01 -0.38497439450E+02  0.48308860235E+02  0.00000000000E+00 0.  1.
<mgrwt>
<rscale>  1 0.30000000E+03</rscale>
<asrwt>0</asrwt>
<pdfrwt beam="1">  1        1 0.14565979E+00 0.30000000E+03</pdfrwt>
<pdfrwt beam="2">0</pdfrwt>
<totfact> 0.18907527E+01</totfact>
</mgrwt>
</event>
<event>
 6    1  0.1901260E-004  0.3000000E+03  0.7818608E-02  0.1093470E+00
          1   -1    0    0  502    0  0.00000000000E+00  0.00000000000E+00  0.37625767771E+02  0.37625767771E+02  0.00000000000E+00 0.  1.
         13   -1    0    0    0    0 -0.00000000000E+00 -0.00000000000E+00 -0.10000000000E+04  0.10000000000E+04  0.00000000000E+00 0.  1.
    9000005    2    1    2  501    0  0.16066378500E+02 -0.14844535547E+02 -0.94803262579E+03  0.10114691161E+04  0.35188836926E+03 0.  0.
         13    1    3    3    0    0  0.16601602617E+03 -0.24840563951E+02 -0.27766586782E+03  0.32446372481E+03  0.00000000000E+00 0.  1.
          3    1    3    3  501    0 -0.14994964767E+03  0.99960284046E+01 -0.67036675797E+03  0.68700539125E+03  0.00000000000E+00 0.  1.
         21    1    1    2  502  501 -0.16066378500E+02  0.14844535547E+02 -0.14341606442E+02  0.26156651717E+02  0.00000000000E+00 0. -1.
<mgrwt>
<rscale>  1 0.30000000E+03</rscale>
<asrwt>0</asrwt>
<pdfrwt beam="1">  1        1 0.13682126E+00 0.30000000E+03</pdfrwt>
<pdfrwt beam="2">0</pdfrwt>
<totfact> 0.21028163E+01</totfact>
</mgrwt>
</event>
<event>
 6    1  0.1901260E-004  0.3000000E+03  0.7818608E-02  0.1093470E+00
          1   -1    0    0  502    0  0.00000000000E+00  0.00000000000E+00  0.28721193460E+02  0.28721193460E+02  0.00000000000E+00 0.  1.
         13   -1    0    0    0    0 -0.00000000000E+00 -0.00000000000E+00 -0.10000000000E+04  0.10000000000E+04  0.00000000000E+00 0.  1.
    9000005    2    1    2  501    0  0.65533994751E+01  0.95717007406E+01 -0.96193357901E+03  0.10138249598E+04  0.31998480305E+03 0.  0.
         13    1    3    3    0    0  0.13042197774E+03  0.75342868562E+02 -0.28329867582E+03  0.32084977769E+03  0.00000000000E+00 0.  1.
          3    1    3    3  501    0 -0.12386857826E+03 -0.65771167821E+02 -0.67863490318E+03  0.69297518211E+03  0.00000000000E+00 0.  1.
         21    1    1    2  502  501 -0.65533994751E+01 -0.95717007406E+01 -0.93452275335E+01  0.14896233665E+02  0.00000000000E+00 0.  1.
<mgrwt>
<rscale>  1 0.30000000E+03</rscale>
<asrwt>0</asrwt>
<pdfrwt beam="1">  1        1 0.10444092E+00 0.30000000E+03</pdfrwt>
<pdfrwt beam="2">0</pdfrwt>
<totfact> 0.32106070E+01</totfact>
</mgrwt>
</event>
<event>
 6    1  0.1901260E-004  0.3000000E+03  0.7818608E-02  0.1093470E+00
          1   -1    0    0  502    0  0.00000000000E+00  0.00000000000E+00  0.32743072530E+02  0.32743072530E+02  0.00000000000E+00 0.  1.
         13   -1    0    0    0    0 -0.00000000000E+00 -0.00000000000E+00 -0.10000000000E+04  0.10000000000E+04  0.00000000000E+00 0.  1.
    9000005    2    1    2  501    0 -0.40766384622E+02 -0.17693330702E+02 -0.87539619944E+03  0.93069727193E+03  0.31289607526E+03 0.  0.
         13    1    3    3    0    0 -0.11934218907E+03  0.63611253297E+02 -0.17465297560E+03  0.22089049668E+03  0.00000000000E+00 0.  1.
          1    1    3    3  501    0  0.78575804452E+02 -0.81304583998E+02 -0.70074322384E+03  0.70980677524E+03  0.00000000000E+00 0.  1.
         21    1    1    2  502  501  0.40766384622E+02  0.17693330702E+02 -0.91860728032E+02  0.10204580060E+03  0.00000000000E+00 0.  1.
<mgrwt>
<rscale>  1 0.30000000E+03</rscale>
<asrwt>0</asrwt>
<pdfrwt beam="1">  1        1 0.11906597E+00 0.30000000E+03</pdfrwt>
<pdfrwt beam="2">0</pdfrwt>
<totfact> 0.26314743E+01</totfact>
</mgrwt>
</event>
<event>
 6    1  0.1901260E-004  0.3000000E+03  0.7818608E-02  0.1093470E+00
          1   -1    0    0  502    0  0.00000000000E+00  0.00000000000E+00  0.29707787783E+02  0.29707787783E+02  0.00000000000E+00 0.  1.
         13   -1    0    0    0    0 -0.00000000000E+00 -0.00000000000E+00 -0.10000000000E+04  0.10000000000E+04  0.00000000000E+00 0.  1.
    9000005    2    1    2  501    0  0.21510612895E+02  0.67105779032E+01 -0.91316389479E+03  0.96829620113E+03  0.32128102349E+03 0.  0.
         13    1    3    3    0    0  0.93382128255E+02  0.83439448483E+02 -0.81465471145E+03  0.82422367252E+03  0.00000000000E+00 0.  1.
          1    1    3    3  501    0 -0.71871515360E+02 -0.76728870579E+02 -0.98509183338E+02  0.14407252862E+03  0.00000000000E+00 0.  1.
         21    1    1    2  502  501 -0.21510612895E+02 -0.67105779032E+01 -0.57128317425E+02  0.61411586649E+02  0.00000000000E+00 0.  1.
<mgrwt>
<rscale>  1 0.30000000E+03</rscale>
<asrwt>0</asrwt>
<pdfrwt beam="1">  1        1 0.10802855E+00 0.30000000E+03</pdfrwt>
<pdfrwt beam="2">0</pdfrwt>
<totfact> 0.30529228E+01</totfact>
</mgrwt>
</event>
<event>
 6    1  0.1901260E-004  0.3000000E+03  0.7818608E-02  0.1093470E+00
          1   -1    0    0  502    0  0.00000000000E+00  0.00000000000E+00  0.42446270818E+02  0.42446270818E+02  0.00000000000E+00 0.  1.
         13   -1    0    0    0    0 -0.00000000000E+00 -0.00000000000E+00 -0.10000000000E+04  0.10000000000E+04  0.00000000000E+00 0.  1.
    9000005    2    1    2  501    0  0.79432476503E+01 -0.83153853930E+01 -0.97042433488E+03  0.10251866848E+04  0.33038176134E+03 0.  0.
         13    1    3    3    0    0 -0.63083459349E+02  0.95729975491E+02 -0.12182481417E+03  0.16728728702E+03  0.00000000000E+00 0.  1.
          1    1    3    3  501    0  0.71026706999E+02 -0.10404536088E+03 -0.84859952070E+03  0.85789939781E+03  0.00000000000E+00 0.  1.
         21    1    1    2  502  501 -0.79432476503E+01  0.83153853930E+01  0.12870605693E+02  0.17259585985E+02  0.00000000000E+00 0.  1.
<mgrwt>
<rscale>  1 0.30000000E+03</rscale>
<asrwt>0</asrwt>
<pdfrwt beam="1">  1        1 0.15435040E+00 0.30000000E+03</pdfrwt>
<pdfrwt beam="2">0</pdfrwt>
<totfact> 0.17077802E+01</totfact>
</mgrwt>
</event>
<event>
 6    1  0.1901260E-004  0.3000000E+03  0.7818608E-02  0.1093470E+00
          1   -1    0    0  502    0  0.00000000000E+00  0.00000000000E+00  0.31445947112E+02  0.31445947112E+02  0.00000000000E+00 0.  1.
         13   -1    0    0    0    0 -0.00000000000E+00 -0.00000000000E+00 -0.10000000000E+04  0.10000000000E+04  0.00000000000E+00 0.  1.
    9000005    2    1    2  501    0  0.15649046122E+02 -0.99294437745E+01 -0.95338873837E+03  0.10074986453E+04  0.32520754510E+03 0.  0.
         13    1    3    3    0    0  0.15110919620E+03  0.66393528043E+02 -0.58010100556E+03  0.60312458613E+03  0.00000000000E+00 0.  1.
          3    1    3    3  501    0 -0.13546015008E+03 -0.76322971817E+02 -0.37328773281E+03  0.40437405920E+03  0.00000000000E+00 0.  1.
         21    1    1    2  502  501 -0.15649046122E+02  0.99294437745E+01 -0.15165314518E+02  0.23947301782E+02  0.00000000000E+00 0.  1.
<mgrwt>
<rscale>  1 0.30000000E+03</rscale>
<asrwt>0</asrwt>
<pdfrwt beam="1">  1        1 0.11434914E+00 0.30000000E+03</pdfrwt>
<pdfrwt beam="2">0</pdfrwt>
<totfact> 0.28008720E+01</totfact>
</mgrwt>
</event>
<event>
 6    1  0.1901260E-004  0.3000000E+03  0.7818608E-02  0.1093470E+00
          1   -1    0    0  502    0  0.00000000000E+00  0.00000000000E+00  0.90368254993E+02  0.90368254993E+02  0.00000000000E+00 0.  1.
         13   -1    0    0    0    0 -0.00000000000E+00 -0.00000000000E+00 -0.10000000000E+04  0.10000000000E+04  0.00000000000E+00 0.  1.
    9000005    2    1    2  501    0  0.23512977504E+01  0.10000692618E+02 -0.97286024276E+03  0.10263105827E+04  0.32672743642E+03 0.  0.
         13    1    3    3    0    0  0.31353190251E+02  0.14942488501E+03 -0.72089675023E+03  0.73688733420E+03  0.00000000000E+00 0.  1.
          3    1    3    3  501    0 -0.29001892500E+02 -0.13942419239E+03 -0.25196349253E+03  0.28942324848E+03  0.00000000000E+00 0.  1.
         21    1    1    2  502  501 -0.23512977504E+01 -0.10000692618E+02  0.63228497758E+02  0.64057672317E+02  0.00000000000E+00 0.  1.
<mgrwt>
<rscale>  1 0.30000000E+03</rscale>
<asrwt>0</asrwt>
<pdfrwt beam="1">  1        1 0.32861253E+00 0.30000000E+03</pdfrwt>
<pdfrwt beam="2">0</pdfrwt>
<totfact> 0.25260213E+00</totfact>
</mgrwt>
</event>
<event>
 6    1  0.1901260E-004  0.3000000E+03  0.7818608E-02  0.1093470E+00
          1   -1    0    0  502    0  0.00000000000E+00  0.00000000000E+00  0.27473676856E+02  0.27473676856E+02  0.00000000000E+00 0.  1.
         13   -1    0    0    0    0 -0.00000000000E+00 -0.00000000000E+00 -0.10000000000E+04  0.10000000000E+04  0.00000000000E+00 0.  1.
    9000005    2    1    2  501    0  0.63376948948E+01 -0.22607060046E+02 -0.94502448055E+03  0.99131296770E+03  0.29846086101E+03 0.  0.
         13    1    3    3    0    0 -0.75815250878E+02 -0.52203221546E+02 -0.80186662905E+02  0.12207796490E+03  0.00000000000E+00 0.  1.
          3    1    3    3  501    0  0.82152945773E+02  0.29596161500E+02 -0.86483781764E+03  0.86923500280E+03  0.00000000000E+00 0.  1.
         21    1    1    2  502  501 -0.63376948948E+01  0.22607060046E+02 -0.27501842598E+02  0.36160709157E+02  0.00000000000E+00 0.  1.
<mgrwt>
<rscale>  1 0.30000000E+03</rscale>
<asrwt>0</asrwt>
<pdfrwt beam="1">  1        1 0.99904490E-01 0.30000000E+03</pdfrwt>
<pdfrwt beam="2">0</pdfrwt>
<totfact> 0.34274795E+01</totfact>
</mgrwt>
</event>
<event>
 6    1  0.1901260E-004  0.3000000E+03  0.7818608E-02  0.1093470E+00
          1   -1    0    0  502    0  0.00000000000E+00  0.00000000000E+00  0.29826094349E+02  0.29826094349E+02  0.00000000000E+00 0.  1.
         13   -1    0    0    0    0 -0.00000000000E+00 -0.00000000000E+00 -0.10000000000E+04  0.10000000000E+04  0.00000000000E+00 0.  1.
    9000005    2    1    2  501    0 -0.12015023656E+02 -0.38023744155E+01 -0.96042941462E+03  0.10138958103E+04  0.32465556336E+03 0.  0.
         13    1    3    3    0    0 -0.12918788313E+02  0.49043561612E+02 -0.95969792806E+03  0.96103708521E+03  0.00000000000E+00 0.  1.
          3    1    3    3  501    0  0.90376465719E+00 -0.52845936028E+02 -0.73148656365E+00  0.52858725087E+02  0.00000000000E+00 0.  1.
         21    1    1    2  502  501  0.12015023656E+02  0.38023744155E+01 -0.97444910301E+01  0.15930284055E+02  0.00000000000E+00 0. -1.
<mgrwt>
<rscale>  1 0.30000000E+03</rscale>
<asrwt>0</asrwt>
<pdfrwt beam="1">  1        1 0.10845875E+00 0.30000000E+03</pdfrwt>
<pdfrwt beam="2">0</pdfrwt>
<totfact> 0.30347654E+01</totfact>
</mgrwt>
</event>
<event>
 6    1  0.1901260E-004  0.3000000E+03  0.7818608E-02  0.1093470E+00
          1   -1    0    0  502    0  0.00000000000E+00  0.00000000000E+00  0.31588892460E+02  0.31588892460E+02  0.00000000000E+00 0.  1.
         13   -1    0    0    0    0 -0.00000000000E+00 -0.00000000000E+00 -0.10000000000E+04  0.10000000000E+04  0.00000000000E+00 0.  1.
    9000005    2    1    2  501    0  0.22549089489E+02  0.56592097815E+00 -0.96075342142E+03  0.10077682741E+04  0.30338255680E+03 0.  0.
         13    1    3    3    0    0 -0.30202888588E+02 -0.83965486187E+02 -0.75392355098E+02  0.11681791197E+03  0.00000000000E+00 0.  1.
          3    1    3    3  501    0  0.52751978077E+02  0.84531407165E+02 -0.88536106632E+03  0.89095036211E+03  0.00000000000E+00 0.  1.
         21    1    1    2  502  501 -0.22549089489E+02 -0.56592097815E+00 -0.76576861239E+01  0.23820618382E+02  0.00000000000E+00 0.  1.
<mgrwt>
<rscale>  1 0.30000000E+03</rscale>
<asrwt>0</asrwt>
<pdfrwt beam="1">  1        1 0.11486894E+00 0.30000000E+03</pdfrwt>
<pdfrwt beam="2">0</pdfrwt>
<totfact> 0.27814739E+01</totfact>
</mgrwt>
</event>
<event>
 6    1  0.1901260E-004  0.3000000E+03  0.7818608E-02  0.1093470E+00
          1   -1    0    0  502    0  0.00000000000E+00  0.00000000000E+00  0.53897183453E+02  0.53897183453E+02  0.00000000000E+00 0.  1.
         13   -1    0    0    0    0 -0.00000000000E+00 -0.00000000000E+00 -0.10000000000E+04  0.10000000000E+04  0.00000000000E+00 0.  1.
    9000005    2    1    2  501    0  0.17312017098E+02  0.11670870730E+02 -0.97075206335E+03  0.10215939247E+04  0.31758252986E+03 0.  0.
         13    1    3    3    0    0  0.56778474927E+02  0.44356120268E+02 -0.27764146906E+02  0.77214690789E+02  0.00000000000E+00 0.  1.
          1    1    3    3  501    0 -0.39466457828E+02 -0.32685249537E+02 -0.94298791645E+03  0.94437923389E+03  0.00000000000E+00 0.  1.
         21    1    1    2  502  501 -0.17312017098E+02 -0.11670870730E+02  0.24649246806E+02  0.32303258778E+02  0.00000000000E+00 0.  1.
<mgrwt>
<rscale>  1 0.30000000E+03</rscale>
<asrwt>0</asrwt>
<pdfrwt beam="1">  1        1 0.19599017E+00 0.30000000E+03</pdfrwt>
<pdfrwt beam="2">0</pdfrwt>
<totfact> 0.10703606E+01</totfact>
</mgrwt>
</event>
<event>
 6    1  0.1901260E-004  0.3000000E+03  0.7818608E-02  0.1093470E+00
          1   -1    0    0  502    0  0.00000000000E+00  0.00000000000E+00  0.41522490425E+02  0.41522490425E+02  0.00000000000E+00 0.  1.
         13   -1    0    0    0    0 -0.00000000000E+00 -0.00000000000E+00 -0.10000000000E+04  0.10000000000E+04  0.00000000000E+00 0.  1.
    9000005    2    1    2  501    0 -0.13060511788E+02 -0.84658877560E+01 -0.97026333676E+03  0.10219993261E+04  0.32067028491E+03 0.  0.
         13    1    3    3    0    0 -0.15107906847E+03 -0.31791750799E+02 -0.30133772679E+03  0.33858533036E+03  0.00000000000E+00 0.  1.
          3    1    3    3  501    0  0.13801855668E+03  0.23325863043E+02 -0.66892560997E+03  0.68341399572E+03  0.00000000000E+00 0.  1.
         21    1    1    2  502  501  0.13060511788E+02  0.84658877560E+01  0.11785827183E+02  0.19523164345E+02  0.00000000000E+00 0.  1.
<mgrwt>
<rscale>  1 0.30000000E+03</rscale>
<asrwt>0</asrwt>
<pdfrwt beam="1">  1        1 0.15099119E+00 0.30000000E+03</pdfrwt>
<pdfrwt beam="2">0</pdfrwt>
<totfact> 0.17757955E+01</totfact>
</mgrwt>
</event>
<event>
 6    1  0.1901260E-004  0.3000000E+03  0.7818608E-02  0.1093470E+00
          1   -1    0    0  502    0  0.00000000000E+00  0.00000000000E+00  0.31295514865E+02  0.31295514865E+02  0.00000000000E+00 0.  1.
         13   -1    0    0    0    0 -0.00000000000E+00 -0.00000000000E+00 -0.10000000000E+04  0.10000000000E+04  0.00000000000E+00 0.  1.
    9000005    2    1    2  501    0  0.21493075935E+02  0.81172914426E+01 -0.92111353156E+03  0.97844911862E+03  0.32921831203E+03 0.  0.
         13    1    3    3    0    0 -0.63005011577E+02  0.14402687349E+03 -0.32194533461E+03  0.35827666718E+03  0.00000000000E+00 0.  1.
          1    1    3    3  501    0  0.84498087512E+02 -0.13590958205E+03 -0.59916819695E+03  0.62017245144E+03  0.00000000000E+00 0.  1.
         21    1    1    2  502  501 -0.21493075935E+02 -0.81172914426E+01 -0.47590953576E+02  0.52846396242E+02  0.00000000000E+00 0. -1.
<mgrwt>
<rscale>  1 0.30000000E+03</rscale>
<asrwt>0</asrwt>
<pdfrwt beam="1">  1        1 0.11380211E+00 0.30000000E+03</pdfrwt>
<pdfrwt beam="2">0</pdfrwt>
<totfact> 0.28214928E+01</totfact>
</mgrwt>
</event>
<event>
 6    1  0.1901260E-004  0.3000000E+03  0.7818608E-02  0.1093470E+00
          1   -1    0    0  502    0  0.00000000000E+00  0.00000000000E+00  0.58491356212E+02  0.58491356212E+02  0.00000000000E+00 0.  1.
         13   -1    0    0    0    0 -0.00000000000E+00 -0.00000000000E+00 -0.10000000000E+04  0.10000000000E+04  0.00000000000E+00 0.  1.
    9000005    2    1    2  501    0  0.97335271509E+02 -0.17774083423E+02 -0.88315958177E+03  0.94362323113E+03  0.31727571974E+03 0.  0.
         13    1    3    3    0    0  0.20031455688E+03  0.53204417102E+02 -0.54634528569E+03  0.58433706274E+03  0.00000000000E+00 0.  1.
          1    1    3    3  501    0 -0.10297928537E+03 -0.70978500525E+02 -0.33681429608E+03  0.35928616839E+03  0.00000000000E+00 0.  1.
         21    1    1    2  502  501 -0.97335271509E+02  0.17774083423E+02 -0.58349062020E+02  0.11486812508E+03  0.00000000000E+00 0.  1.
<mgrwt>
<rscale>  1 0.30000000E+03</rscale>
<asrwt>0</asrwt>
<pdfrwt beam="1">  1        1 0.21269629E+00 0.30000000E+03</pdfrwt>
<pdfrwt beam="2">0</pdfrwt>
<totfact> 0.89206795E+00</totfact>
</mgrwt>
</event>
<event>
 6    1  0.1901260E-004  0.3000000E+03  0.7818608E-02  0.1093470E+00
          1   -1    0    0  502    0  0.00000000000E+00  0.00000000000E+00  0.27357643111E+02  0.27357643111E+02  0.00000000000E+00 0.  1.
         13   -1    0    0    0    0 -0.00000000000E+00 -0.00000000000E+00 -0.10000000000E+04  0.10000000000E+04  0.00000000000E+00 0.  1.
    9000005    2    1    2  501    0 -0.58574732148E+01  0.12553361626E+02 -0.92591290755E+03  0.97861814869E+03  0.31652309821E+03 0.  0.
         13    1    3    3    0    0  0.13138980961E+03  0.75788599861E+02 -0.60774857583E+03  0.62639087266E+03  0.00000000000E+00 0.  1.
          3    1    3    3  501    0 -0.13724728282E+03 -0.63235238235E+02 -0.31816433172E+03  0.35222727603E+03  0.00000000000E+00 0.  1.
         21    1    1    2  502  501  0.58574732148E+01 -0.12553361626E+02 -0.46729449342E+02  0.48739494421E+02  0.00000000000E+00 0. -1.
<mgrwt>
<rscale>  1 0.30000000E+03</rscale>
<asrwt>0</asrwt>
<pdfrwt beam="1">  1        1 0.99482548E-01 0.30000000E+03</pdfrwt>
<pdfrwt beam="2">0</pdfrwt>
<totfact> 0.34487352E+01</totfact>
</mgrwt>
</event>
<event>
 6    1  0.1901260E-004  0.3000000E+03  0.7818608E-02  0.1093470E+00
          1   -1    0    0  502    0  0.00000000000E+00  0.00000000000E+00  0.29415957244E+02  0.29415957244E+02  0.00000000000E+00 0.  1.
         13   -1    0    0    0    0 -0.00000000000E+00 -0.00000000000E+00 -0.10000000000E+04  0.10000000000E+04  0.00000000000E+00 0.  1.
    9000005    2    1    2  501    0  0.14451080649E+02  0.20666320304E+02 -0.88657127102E+03  0.94170007304E+03  0.31647192362E+03 0.  0.
         13    1    3    3    0    0 -0.46468066384E+02  0.15848851876E+03 -0.51098643500E+03  0.53701492393E+03  0.00000000000E+00 0.  1.
          3    1    3    3  501    0  0.60919147033E+02 -0.13782219845E+03 -0.37558483603E+03  0.40468514912E+03  0.00000000000E+00 0.  1.
         21    1    1    2  502  501 -0.14451080649E+02 -0.20666320304E+02 -0.84012771733E+02  0.87715884200E+02  0.00000000000E+00 0. -1.
<mgrwt>
<rscale>  1 0.30000000E+03</rscale>
<asrwt>0</asrwt>
<pdfrwt beam="1">  1        1 0.10696734E+00 0.30000000E+03</pdfrwt>
<pdfrwt beam="2">0</pdfrwt>
<totfact> 0.30983828E+01</totfact>
</mgrwt>
</event>
<event>
 6    1  0.1901260E-004  0.3000000E+03  0.7818608E-02  0.1093470E+00
          1   -1    0    0  502    0  0.00000000000E+00  0.00000000000E+00  0.30452479786E+02  0.30452479786E+02  0.00000000000E+00 0.  1.
         13   -1    0    0    0    0 -0.00000000000E+00 -0.00000000000E+00 -0.10000000000E+04  0.10000000000E+04  0.00000000000E+00 0.  1.
    9000005    2    1    2  501    0  0.34476497267E+02  0.39888294441E+00 -0.76927746990E+03  0.82723613934E+03  0.30223007223E+03 0.  0.
         13    1    3    3    0    0 -0.13318102292E+03  0.19893895595E+02 -0.31284972337E+03  0.34059932672E+03  0.00000000000E+00 0.  1.
          1    1    3    3  501    0  0.16765752019E+03 -0.19495012651E+02 -0.45642774653E+03  0.48663681262E+03  0.00000000000E+00 0.  1.
         21    1    1    2  502  501 -0.34476497267E+02 -0.39888294441E+00 -0.20027005032E+03  0.20321634045E+03  0.00000000000E+00 0.  1.
<mgrwt>
<rscale>  1 0.30000000E+03</rscale>
<asrwt>0</asrwt>
<pdfrwt beam="1">  1        1 0.11073652E+00 0.30000000E+03</pdfrwt>
<pdfrwt beam="2">0</pdfrwt>
<totfact> 0.29411469E+01</totfact>
</mgrwt>
</event>
<event>
 6    1  0.1901260E-004  0.3000000E+03  0.7818608E-02  0.1093470E+00
          1   -1    0    0  502    0  0.00000000000E+00  0.00000000000E+00  0.31282770336E+02  0.31282770336E+02  0.00000000000E+00 0.  1.
         13   -1    0    0    0    0 -0.00000000000E+00 -0.00000000000E+00 -0.10000000000E+04  0.10000000000E+04  0.00000000000E+00 0.  1.
    9000005    2    1    2  501    0 -0.11766971710E+02 -0.36975062888E+01 -0.96203487868E+03  0.10172546917E+04  0.33036928849E+03 0.  0.
         13    1    3    3    0    0 -0.32379928106E+02  0.46919368299E+02 -0.34489404286E+01  0.57112013235E+02  0.00000000000E+00 0.  1.
          3    1    3    3  501    0  0.20612956395E+02 -0.50616874588E+02 -0.95858593825E+03  0.96014267845E+03  0.00000000000E+00 0.  1.
         21    1    1    2  502  501  0.11766971710E+02  0.36975062888E+01 -0.66823509812E+01  0.14028078650E+02  0.00000000000E+00 0.  1.
<mgrwt>
<rscale>  1 0.30000000E+03</rscale>
<asrwt>0</asrwt>
<pdfrwt beam="1">  1        1 0.11375577E+00 0.30000000E+03</pdfrwt>
<pdfrwt beam="2">0</pdfrwt>
<totfact> 0.28232497E+01</totfact>
</mgrwt>
</event>
<event>
 6    1  0.1901260E-004  0.3000000E+03  0.7818608E-02  0.1093470E+00
          1   -1    0    0  502    0  0.00000000000E+00  0.00000000000E+00  0.46579728104E+02  0.46579728104E+02  0.00000000000E+00 0.  1.
         13   -1    0    0    0    0 -0.00000000000E+00 -0.00000000000E+00 -0.10000000000E+04  0.10000000000E+04  0.00000000000E+00 0.  1.
    9000005    2    1    2  501    0 -0.51820367658E+01 -0.43426050656E+02 -0.91889291315E+03  0.99085887131E+03  0.36813644430E+03 0.  0.
         13    1    3    3    0    0 -0.17480885240E+03 -0.45188107803E+02 -0.30970323833E+03  0.35849155610E+03  0.00000000000E+00 0.  1.
          3    1    3    3  501    0  0.16962681563E+03  0.17620571465E+01 -0.60918967482E+03  0.63236731521E+03  0.00000000000E+00 0.  1.
         21    1    1    2  502  501  0.51820367658E+01  0.43426050656E+02 -0.34527358743E+02  0.55720856799E+02  0.00000000000E+00 0.  1.
<mgrwt>
<rscale>  1 0.30000000E+03</rscale>
<asrwt>0</asrwt>
<pdfrwt beam="1">  1        1 0.16938119E+00 0.30000000E+03</pdfrwt>
<pdfrwt beam="2">0</pdfrwt>
<totfact> 0.14387080E+01</totfact>
</mgrwt>
</event>
<event>
 6    1  0.1901260E-004  0.3000000E+03  0.7818608E-02  0.1093470E+00
          1   -1    0    0  502    0  0.00000000000E+00  0.00000000000E+00  0.32599782715E+02  0.32599782715E+02  0.00000000000E+00 0.  1.
         13   -1    0    0    0    0 -0.00000000000E+00 -0.00000000000E+00 -0.10000000000E+04  0.10000000000E+04  0.00000000000E+00 0.  1.
    9000005    2    1    2  501    0  0.28719919419E+02 -0.54391330710E+01 -0.90836655169E+03  0.96672572399E+03  0.32950632049E+03 0.  0.
         13    1    3    3    0    0 -0.13282664544E+03  0.34580999137E+02 -0.22649642018E+03  0.26483842545E+03  0.00000000000E+00 0.  1.
          3    1    3    3  501    0  0.16154656486E+03 -0.40020132208E+02 -0.68187013151E+03  0.70188729853E+03  0.00000000000E+00 0.  1.
         21    1    1    2  502  501 -0.28719919419E+02  0.54391330710E+01 -0.59033665592E+02  0.65874058728E+02  0.00000000000E+00 0. -1.
<mgrwt>
<rscale>  1 0.30000000E+03</rscale>
<asrwt>0</asrwt>
<pdfrwt beam="1">  1        1 0.11854491E+00 0.30000000E+03</pdfrwt>
<pdfrwt beam="2">0</pdfrwt>
<totfact> 0.26494840E+01</totfact>
</mgrwt>
</event>
<event>
 6    1  0.1901260E-004  0.3000000E+03  0.7818608E-02  0.1093470E+00
          1   -1    0    0  502    0  0.00000000000E+00  0.00000000000E+00  0.26996481522E+02  0.26996481522E+02  0.00000000000E+00 0.  1.
         13   -1    0    0    0    0 -0.00000000000E+00 -0.00000000000E+00 -0.10000000000E+04  0.10000000000E+04  0.00000000000E+00 0.  1.
    9000005    2    1    2  501    0 -0.49165959891E+01  0.17355084831E+02 -0.92996859073E+03  0.98033411026E+03  0.30965790174E+03 0.  0.
         13    1    3    3    0    0 -0.42340476138E+02 -0.11979731257E+03 -0.20218257334E+03  0.23879259825E+03  0.00000000000E+00 0.  1.
          3    1    3    3  501    0  0.37423880149E+02  0.13715239740E+03 -0.72778601739E+03  0.74154151201E+03  0.00000000000E+00 0.  1.
         21    1    1    2  502  501  0.49165959891E+01 -0.17355084831E+02 -0.43034927752E+02  0.46662371267E+02  0.00000000000E+00 0. -1.
<mgrwt>
<rscale>  1 0.30000000E+03</rscale>
<asrwt>0</asrwt>
<pdfrwt beam="1">  1        1 0.98169231E-01 0.30000000E+03</pdfrwt>
<pdfrwt beam="2">0</pdfrwt>
<totfact> 0.35161532E+01</totfact>
</mgrwt>
</event>
<event>
 6    1  0.1901260E-004  0.3000000E+03  0.7818608E-02  0.1093470E+00
          1   -1    0    0  502    0  0.00000000000E+00  0.00000000000E+00  0.30696279047E+02  0.30696279047E+02  0.00000000000E+00 0.  1.
         13   -1    0    0    0    0 -0.00000000000E+00 -0.00000000000E+00 -0.10000000000E+04  0.10000000000E+04  0.00000000000E+00 0.  1.
    9000005    2    1    2  501    0  0.18837026699E+01  0.25930234683E+02 -0.93747764834E+03  0.98960097148E+03  0.31586360379E+03 0.  0.
         13    1    3    3    0    0  0.10081171781E+03 -0.82341140372E+02 -0.20683765548E+03  0.24438674589E+03  0.00000000000E+00 0.  1.
          1    1    3    3  501    0 -0.98928015141E+02  0.10827137505E+03 -0.73063999287E+03  0.74521422558E+03  0.00000000000E+00 0.  1.
         21    1    1    2  502  501 -0.18837026699E+01 -0.25930234683E+02 -0.31826072609E+02  0.41095307569E+02  0.00000000000E+00 0.  1.
<mgrwt>
<rscale>  1 0.30000000E+03</rscale>
<asrwt>0</asrwt>
<pdfrwt beam="1">  1        1 0.11162307E+00 0.30000000E+03</pdfrwt>
<pdfrwt beam="2">0</pdfrwt>
<totfact> 0.29058150E+01</totfact>
</mgrwt>
</event>
<event>
 6    1  0.1901260E-004  0.3000000E+03  0.7818608E-02  0.1093470E+00
          1   -1    0    0  502    0  0.00000000000E+00  0.00000000000E+00  0.32783372736E+02  0.32783372736E+02  0.00000000000E+00 0.  1.
         13   -1    0    0    0    0 -0.00000000000E+00 -0.00000000000E+00 -0.10000000000E+04  0.10000000000E+04  0.00000000000E+00 0.  1.
    9000005    2    1    2  501    0  0.34008698863E+01 -0.16667473275E+02 -0.96454595824E+03  0.10155641087E+04  0.31738333718E+03 0.  0.
         13    1    3    3    0    0 -0.12650343490E+03  0.77663844269E+02 -0.34547727780E+03  0.37601774057E+03  0.00000000000E+00 0.  1.
          1    1    3    3  501    0  0.12990430478E+03 -0.94331317544E+02 -0.61906868043E+03  0.63954636811E+03  0.00000000000E+00 0.  1.
         21    1    1    2  502  501 -0.34008698863E+01  0.16667473275E+02 -0.26706690257E+01  0.17219264049E+02  0.00000000000E+00 0.  1.
<mgrwt>
<rscale>  1 0.30000000E+03</rscale>
<asrwt>0</asrwt>
<pdfrwt beam="1">  1        1 0.11921252E+00 0.30000000E+03</pdfrwt>
<pdfrwt beam="2">0</pdfrwt>
<totfact> 0.26264390E+01</totfact>
</mgrwt>
</event>
<event>
 6    1  0.1901260E-004  0.3000000E+03  0.7818608E-02  0.1093470E+00
          1   -1    0    0  502    0  0.00000000000E+00  0.00000000000E+00  0.37901219802E+02  0.37901219802E+02  0.00000000000E+00 0.  1.
         13   -1    0    0    0    0 -0.00000000000E+00 -0.00000000000E+00 -0.10000000000E+04  0.10000000000E+04  0.00000000000E+00 0.  1.
    9000005    2    1    2  501    0  0.22362942597E+02  0.15300411935E+02 -0.92311183126E+03  0.99042295114E+03  0.35786584825E+03 0.  0.
         13    1    3    3    0    0 -0.12405355050E+03 -0.10679832434E+03 -0.34893204100E+03  0.38542020537E+03  0.00000000000E+00 0.  1.
          1    1    3    3  501    0  0.14641649310E+03  0.12209873628E+03 -0.57417979026E+03  0.60500274577E+03  0.00000000000E+00 0.  1.
         21    1    1    2  502  501 -0.22362942597E+02 -0.15300411935E+02 -0.38986948941E+02  0.47478268658E+02  0.00000000000E+00 0. -1.
<mgrwt>
<rscale>  1 0.30000000E+03</rscale>
<asrwt>0</asrwt>
<pdfrwt beam="1">  1        1 0.13782291E+00 0.30000000E+03</pdfrwt>
<pdfrwt beam="2">0</pdfrwt>
<totfact> 0.20773104E+01</totfact>
</mgrwt>
</event>
<event>
 6    1  0.1901260E-004  0.3000000E+03  0.7818608E-02  0.1093470E+00
          1   -1    0    0  502    0  0.00000000000E+00  0.00000000000E+00  0.28788018249E+02  0.28788018249E+02  0.00000000000E+00 0.  1.
         13   -1    0    0    0    0 -0.00000000000E+00 -0.00000000000E+00 -0.10000000000E+04  0.10000000000E+04  0.00000000000E+00 0.  1.
    9000005    2    1    2  501    0  0.40637358465E+01  0.15377897547E+02 -0.92878758608E+03  0.98347992813E+03  0.32300680380E+03 0.  0.
         13    1    3    3    0    0  0.61665641966E+02  0.73349198320E+02 -0.64900626157E+02  0.11573611178E+03  0.00000000000E+00 0.  1.
          3    1    3    3  501    0 -0.57601906120E+02 -0.57971300773E+02 -0.86388695992E+03  0.86774381635E+03  0.00000000000E+00 0.  1.
         21    1    1    2  502  501 -0.40637358465E+01 -0.15377897547E+02 -0.42424395676E+02  0.45308090121E+02  0.00000000000E+00 0. -1.
<mgrwt>
<rscale>  1 0.30000000E+03</rscale>
<asrwt>0</asrwt>
<pdfrwt beam="1">  1        1 0.10468392E+00 0.30000000E+03</pdfrwt>
<pdfrwt beam="2">0</pdfrwt>
<totfact> 0.31995599E+01</totfact>
</mgrwt>
</event>
<event>
 6    1  0.1901260E-004  0.3000000E+03  0.7818608E-02  0.1093470E+00
          1   -1    0    0  502    0  0.00000000000E+00  0.00000000000E+00  0.80724866226E+02  0.80724866226E+02  0.00000000000E+00 0.  1.
         13   -1    0    0    0    0 -0.00000000000E+00 -0.00000000000E+00 -0.10000000000E+04  0.10000000000E+04  0.00000000000E+00 0.  1.
    9000005    2    1    2  501    0 -0.75449653900E+02 -0.43079722880E+02 -0.93304234258E+03  0.99275868616E+03  0.32780067588E+03 0.  0.
         13    1    3    3    0    0 -0.17653315906E+03 -0.10090931202E+03 -0.41957895803E+03  0.46625438070E+03  0.00000000000E+00 0.  1.
          3    1    3    3  501    0  0.10108350516E+03  0.57829589139E+02 -0.51346338455E+03  0.52650430546E+03  0.00000000000E+00 0.  1.
         21    1    1    2  502  501  0.75449653900E+02  0.43079722880E+02  0.13767208803E+02  0.87966180066E+02  0.00000000000E+00 0.  1.
<mgrwt>
<rscale>  1 0.30000000E+03</rscale>
<asrwt>0</asrwt>
<pdfrwt beam="1">  1        1 0.29354559E+00 0.30000000E+03</pdfrwt>
<pdfrwt beam="2">0</pdfrwt>
<totfact> 0.37277750E+00</totfact>
</mgrwt>
</event>
<event>
 6    1  0.1901260E-004  0.3000000E+03  0.7818608E-02  0.1093470E+00
          1   -1    0    0  502    0  0.00000000000E+00  0.00000000000E+00  0.30066386017E+02  0.30066386017E+02  0.00000000000E+00 0.  1.
         13   -1    0    0    0    0 -0.00000000000E+00 -0.00000000000E+00 -0.10000000000E+04  0.10000000000E+04  0.00000000000E+00 0.  1.
    9000005    2    1    2  501    0  0.18822561240E+02 -0.63084650540E+01 -0.94300256713E+03  0.99660944611E+03  0.32184229201E+03 0.  0.
         13    1    3    3    0    0 -0.10056177542E+03 -0.63447214988E+02 -0.14412734658E+03  0.18684461939E+03  0.00000000000E+00 0.  1.
          3    1    3    3  501    0  0.11938433666E+03  0.57138749934E+02 -0.79887522055E+03  0.80976482672E+03  0.00000000000E+00 0.  1.
         21    1    1    2  502  501 -0.18822561240E+02  0.63084650540E+01 -0.26931046853E+02  0.33456939902E+02  0.00000000000E+00 0.  1.
<mgrwt>
<rscale>  1 0.30000000E+03</rscale>
<asrwt>0</asrwt>
<pdfrwt beam="1">  1        1 0.10933254E+00 0.30000000E+03</pdfrwt>
<pdfrwt beam="2">0</pdfrwt>
<totfact> 0.29983574E+01</totfact>
</mgrwt>
</event>
<event>
 6    1  0.1901260E-004  0.3000000E+03  0.7818608E-02  0.1093470E+00
          1   -1    0    0  502    0  0.00000000000E+00  0.00000000000E+00  0.29075018518E+02  0.29075018518E+02  0.00000000000E+00 0.  1.
         13   -1    0    0    0    0 -0.00000000000E+00 -0.00000000000E+00 -0.10000000000E+04  0.10000000000E+04  0.00000000000E+00 0.  1.
    9000005    2    1    2  501    0 -0.53725283096E+01 -0.67824185441E+01 -0.93155222225E+03  0.98876274457E+03  0.33134175258E+03 0.  0.
         13    1    3    3    0    0 -0.53810955261E+02  0.31403944649E+02 -0.76138298834E+01  0.62767802663E+02  0.00000000000E+00 0.  1.
          1    1    3    3  501    0  0.48438426952E+02 -0.38186363193E+02 -0.92393839237E+03  0.92599494190E+03  0.00000000000E+00 0.  1.
         21    1    1    2  502  501  0.53725283096E+01  0.67824185441E+01 -0.39372759232E+02  0.40312273953E+02  0.00000000000E+00 0.  1.
<mgrwt>
<rscale>  1 0.30000000E+03</rscale>
<asrwt>0</asrwt>
<pdfrwt beam="1">  1        1 0.10572756E+00 0.30000000E+03</pdfrwt>
<pdfrwt beam="2">0</pdfrwt>
<totfact> 0.31527343E+01</totfact>
</mgrwt>
</event>
<event>
 6    1  0.1901260E-004  0.3000000E+03  0.7818608E-02  0.1093470E+00
          1   -1    0    0  502    0  0.00000000000E+00  0.00000000000E+00  0.65177921821E+02  0.65177921821E+02  0.00000000000E+00 0.  1.
         13   -1    0    0    0    0 -0.00000000000E+00 -0.00000000000E+00 -0.10000000000E+04  0.10000000000E+04  0.00000000000E+00 0.  1.
    9000005    2    1    2  501    0  0.75251757257E+02  0.26569816994E+02 -0.92343698553E+03  0.98456525235E+03  0.33206036760E+03 0.  0.
         13    1    3    3    0    0 -0.48909179648E+02  0.15153071770E+03 -0.53198599298E+03  0.55530420761E+03  0.00000000000E+00 0.  1.
          1    1    3    3  501    0  0.12416093690E+03 -0.12496090071E+03 -0.39145099255E+03  0.42926104474E+03  0.00000000000E+00 0.  1.
         21    1    1    2  502  501 -0.75251757257E+02 -0.26569816994E+02 -0.11385092646E+02  0.80612669475E+02  0.00000000000E+00 0.  1.
<mgrwt>
<rscale>  1 0.30000000E+03</rscale>
<asrwt>0</asrwt>
<pdfrwt beam="1">  1        1 0.23701112E+00 0.30000000E+03</pdfrwt>
<pdfrwt beam="2">0</pdfrwt>
<totfact> 0.68617185E+00</totfact>
</mgrwt>
</event>
<event>
 6    1  0.1901260E-004  0.3000000E+03  0.7818608E-02  0.1093470E+00
          1   -1    0    0  502    0  0.00000000000E+00  0.00000000000E+00  0.43719816866E+02  0.43719816866E+02  0.00000000000E+00 0.  1.
         13   -1    0    0    0    0 -0.00000000000E+00 -0.00000000000E+00 -0.10000000000E+04  0.10000000000E+04  0.00000000000E+00 0.  1.
    9000005    2    1    2  501    0  0.15717424994E+02  0.53882150973E+01 -0.92350596946E+03  0.10069744853E+04  0.40107140025E+03 0.  0.
         13    1    3    3    0    0 -0.16933423798E+03 -0.86153139229E+02 -0.52195754245E+03  0.55546028091E+03  0.00000000000E+00 0.  1.
          3    1    3    3  501    0  0.18505166298E+03  0.91541354327E+02 -0.40154842702E+03  0.45151420439E+03  0.00000000000E+00 0.  1.
         21    1    1    2  502  501 -0.15717424994E+02 -0.53882150973E+01 -0.32774213670E+02  0.36745331569E+02  0.00000000000E+00 0.  1.
<mgrwt>
<rscale>  1 0.30000000E+03</rscale>
<asrwt>0</asrwt>
<pdfrwt beam="1">  1        1 0.15898149E+00 0.30000000E+03</pdfrwt>
<pdfrwt beam="2">0</pdfrwt>
<totfact> 0.16190763E+01</totfact>
</mgrwt>
</event>
<event>
 6    1  0.1901260E-004  0.3000000E+03  0.7818608E-02  0.1093470E+00
          1   -1    0    0  502    0  0.00000000000E+00  0.00000000000E+00  0.30807920742E+02  0.30807920742E+02  0.00000000000E+00 0.  1.
         13   -1    0    0    0    0 -0.00000000000E+00 -0.00000000000E+00 -0.10000000000E+04  0.10000000000E+04  0.00000000000E+00 0.  1.
    9000005    2    1    2  501    0  0.20306265445E+02  0.67098301488E+01 -0.95697674351E+03  0.10061790624E+04  0.31005556230E+03 0.  0.
         13    1    3    3    0    0  0.39055668510E+01 -0.13952267251E+03 -0.27368045803E+03  0.30721787497E+03  0.00000000000E+00 0.  1.
          3    1    3    3  501    0  0.16400698594E+02  0.14623250265E+03 -0.68329628548E+03  0.69896118740E+03  0.00000000000E+00 0.  1.
         21    1    1    2  502  501 -0.20306265445E+02 -0.67098301488E+01 -0.12215335751E+02  0.24628858367E+02  0.00000000000E+00 0. -1.
<mgrwt>
<rscale>  1 0.30000000E+03</rscale>
<asrwt>0</asrwt>
<pdfrwt beam="1">  1        1 0.11202904E+00 0.30000000E+03</pdfrwt>
<pdfrwt beam="2">0</pdfrwt>
<totfact> 0.28898356E+01</totfact>
</mgrwt>
</event>
<event>
 6    1  0.1901260E-004  0.3000000E+03  0.7818608E-02  0.1093470E+00
          1   -1    0    0  502    0  0.00000000000E+00  0.00000000000E+00  0.39532422970E+02  0.39532422970E+02  0.00000000000E+00 0.  1.
         13   -1    0    0    0    0 -0.00000000000E+00 -0.00000000000E+00 -0.10000000000E+04  0.10000000000E+04  0.00000000000E+00 0.  1.
    9000005    2    1    2  501    0  0.46420453791E+01 -0.33964433909E+02 -0.95663285211E+03  0.10050384167E+04  0.30623630398E+03 0.  0.
         13    1    3    3    0    0  0.10577583685E+03  0.95935690016E+02 -0.47877894784E+03  0.49962132178E+03  0.00000000000E+00 0.  1.
          3    1    3    3  501    0 -0.10113379148E+03 -0.12990012392E+03 -0.47785390427E+03  0.50541709488E+03  0.00000000000E+00 0.  1.
         21    1    1    2  502  501 -0.46420453791E+01  0.33964433909E+02 -0.38347249214E+01  0.34494006310E+02  0.00000000000E+00 0.  1.
<mgrwt>
<rscale>  1 0.30000000E+03</rscale>
<asrwt>0</asrwt>
<pdfrwt beam="1">  1        1 0.14375457E+00 0.30000000E+03</pdfrwt>
<pdfrwt beam="2">0</pdfrwt>
<totfact> 0.19340859E+01</totfact>
</mgrwt>
</event>
<event>
 6    1  0.1901260E-004  0.3000000E+03  0.7818608E-02  0.1093470E+00
          1   -1    0    0  502    0  0.00000000000E+00  0.00000000000E+00  0.40906520183E+02  0.40906520183E+02  0.00000000000E+00 0.  1.
         13   -1    0    0    0    0 -0.00000000000E+00 -0.00000000000E+00 -0.10000000000E+04  0.10000000000E+04  0.00000000000E+00 0.  1.
    9000005    2    1    2  501    0  0.32841462643E+02  0.63852401001E+01 -0.95610950828E+03  0.10073172802E+04  0.31531472867E+03 0.  0.
         13    1    3    3    0    0  0.98143139686E+02 -0.32227846190E+02 -0.87431327624E+02  0.13533272696E+03  0.00000000000E+00 0.  1.
          3    1    3    3  501    0 -0.65301677042E+02  0.38613086290E+02 -0.86867818065E+03  0.87198455319E+03  0.00000000000E+00 0.  1.
         21    1    1    2  502  501 -0.32841462643E+02 -0.63852401001E+01 -0.29839715394E+01  0.33589240031E+02  0.00000000000E+00 0.  1.
<mgrwt>
<rscale>  1 0.30000000E+03</rscale>
<asrwt>0</asrwt>
<pdfrwt beam="1">  1        1 0.14875130E+00 0.30000000E+03</pdfrwt>
<pdfrwt beam="2">0</pdfrwt>
<totfact> 0.18230003E+01</totfact>
</mgrwt>
</event>
<event>
 6    1  0.1901260E-004  0.3000000E+03  0.7818608E-02  0.1093470E+00
          1   -1    0    0  502    0  0.00000000000E+00  0.00000000000E+00  0.29434792085E+02  0.29434792085E+02  0.00000000000E+00 0.  1.
         13   -1    0    0    0    0 -0.00000000000E+00 -0.00000000000E+00 -0.10000000000E+04  0.10000000000E+04  0.00000000000E+00 0.  1.
    9000005    2    1    2  501    0  0.84366898322E+01 -0.44010395564E+01 -0.96204979034E+03  0.10166653277E+04  0.32860012561E+03 0.  0.
         13    1    3    3    0    0  0.62514513752E+02  0.86022902973E+01 -0.95888179138E+03  0.96095595824E+03  0.00000000000E+00 0.  1.
          1    1    3    3  501    0 -0.54077823920E+02 -0.13003329854E+02 -0.31679989561E+01  0.55709369450E+02  0.00000000000E+00 0.  1.
         21    1    1    2  502  501 -0.84366898322E+01  0.44010395564E+01 -0.85154175763E+01  0.12769464398E+02  0.00000000000E+00 0.  1.
<mgrwt>
<rscale>  1 0.30000000E+03</rscale>
<asrwt>0</asrwt>
<pdfrwt beam="1">  1        1 0.10703583E+00 0.30000000E+03</pdfrwt>
<pdfrwt beam="2">0</pdfrwt>
<totfact> 0.30954196E+01</totfact>
</mgrwt>
</event>
<event>
 6    1  0.1901260E-004  0.3000000E+03  0.7818608E-02  0.1093470E+00
          1   -1    0    0  502    0  0.00000000000E+00  0.00000000000E+00  0.31755951367E+02  0.31755951367E+02  0.00000000000E+00 0.  1.
         13   -1    0    0    0    0 -0.00000000000E+00 -0.00000000000E+00 -0.10000000000E+04  0.10000000000E+04  0.00000000000E+00 0.  1.
    9000005    2    1    2  501    0  0.87319487514E+01 -0.22826938165E+02 -0.91486681025E+03  0.97304951550E+03  0.33052498102E+03 0.  0.
         13    1    3    3    0    0  0.16194995838E+03 -0.48922268479E+02 -0.37788262957E+03  0.41402470832E+03  0.00000000000E+00 0.  1.
          3    1    3    3  501    0 -0.15321800962E+03  0.26095330315E+02 -0.53698418068E+03  0.55902480717E+03  0.00000000000E+00 0.  1.
         21    1    1    2  502  501 -0.87319487514E+01  0.22826938165E+02 -0.53377238385E+02  0.58706435870E+02  0.00000000000E+00 0.  1.
<mgrwt>
<rscale>  1 0.30000000E+03</rscale>
<asrwt>0</asrwt>
<pdfrwt beam="1">  1        1 0.11547643E+00 0.30000000E+03</pdfrwt>
<pdfrwt beam="2">0</pdfrwt>
<totfact> 0.27590418E+01</totfact>
</mgrwt>
</event>
<event>
 6    1  0.1901260E-004  0.3000000E+03  0.7818608E-02  0.1093470E+00
          1   -1    0    0  502    0  0.00000000000E+00  0.00000000000E+00  0.30963210356E+02  0.30963210356E+02  0.00000000000E+00 0.  1.
         13   -1    0    0    0    0 -0.00000000000E+00 -0.00000000000E+00 -0.10000000000E+04  0.10000000000E+04  0.00000000000E+00 0.  1.
    9000005    2    1    2  501    0  0.16384779863E+02  0.33374682022E+01 -0.95563115223E+03  0.10095316724E+04  0.32502876602E+03 0.  0.
         13    1    3    3    0    0  0.78962485146E+02  0.33705889965E+02 -0.46300019980E+02  0.97544107608E+02  0.00000000000E+00 0.  1.
          1    1    3    3  501    0 -0.62577705283E+02 -0.30368421763E+02 -0.90933113225E+03  0.91198756478E+03  0.00000000000E+00 0.  1.
         21    1    1    2  502  501 -0.16384779863E+02 -0.33374682022E+01 -0.13405637417E+02  0.21431537969E+02  0.00000000000E+00 0.  1.
<mgrwt>
<rscale>  1 0.30000000E+03</rscale>
<asrwt>0</asrwt>
<pdfrwt beam="1">  1        1 0.11259373E+00 0.30000000E+03</pdfrwt>
<pdfrwt beam="2">0</pdfrwt>
<totfact> 0.28678152E+01</totfact>
</mgrwt>
</event>
<event>
 6    1  0.1901260E-004  0.3000000E+03  0.7818608E-02  0.1093470E+00
          1   -1    0    0  502    0  0.00000000000E+00  0.00000000000E+00  0.29514565292E+02  0.29514565292E+02  0.00000000000E+00 0.  1.
         13   -1    0    0    0    0 -0.00000000000E+00 -0.00000000000E+00 -0.10000000000E+04  0.10000000000E+04  0.00000000000E+00 0.  1.
    9000005    2    1    2  501    0 -0.20094675641E+02 -0.96857552927E+01 -0.91768043898E+03  0.97219111966E+03  0.32018834336E+03 0.  0.
         13    1    3    3    0    0 -0.15221579351E+03  0.49172697931E+02 -0.32656924158E+03  0.36364140518E+03  0.00000000000E+00 0.  1.
          3    1    3    3  501    0  0.13212111787E+03 -0.58858453224E+02 -0.59111119740E+03  0.60854971448E+03  0.00000000000E+00 0.  1.
         21    1    1    2  502  501  0.20094675641E+02  0.96857552927E+01 -0.52804995730E+02  0.57323445629E+02  0.00000000000E+00 0.  1.
<mgrwt>
<rscale>  1 0.30000000E+03</rscale>
<asrwt>0</asrwt>
<pdfrwt beam="1">  1        1 0.10732592E+00 0.30000000E+03</pdfrwt>
<pdfrwt beam="2">0</pdfrwt>
<totfact> 0.30829142E+01</totfact>
</mgrwt>
</event>
<event>
 6    1  0.1901260E-004  0.3000000E+03  0.7818608E-02  0.1093470E+00
          3   -1    0    0  502    0  0.00000000000E+00  0.00000000000E+00  0.50678093855E+02  0.50678093855E+02  0.00000000000E+00 0.  1.
         13   -1    0    0    0    0 -0.00000000000E+00 -0.00000000000E+00 -0.10000000000E+04  0.10000000000E+04  0.00000000000E+00 0.  1.
    9000005    2    1    2  501    0 -0.34886987522E+02  0.47885209524E+02 -0.93370705483E+03  0.98940886201E+03  0.32188652781E+03 0.  0.
         13    1    3    3    0    0 -0.12036581973E+03 -0.81243260847E+02 -0.25682050931E+03  0.29503418784E+03  0.00000000000E+00 0.  1.
          3    1    3    3  501    0  0.85478832206E+02  0.12912847037E+03 -0.67688654553E+03  0.69437467417E+03  0.00000000000E+00 0.  1.
         21    1    1    2  502  501  0.34886987522E+02 -0.47885209524E+02 -0.15614851311E+02  0.61269231846E+02  0.00000000000E+00 0.  1.
<mgrwt>
<rscale>  1 0.30000000E+03</rscale>
<asrwt>0</asrwt>
<pdfrwt beam="1">  1        3 0.18428437E+00 0.30000000E+03</pdfrwt>
<pdfrwt beam="2">0</pdfrwt>
<totfact> 0.27225599E-01</totfact>
</mgrwt>
</event>
<event>
 6    1  0.1901260E-004  0.3000000E+03  0.7818608E-02  0.1093470E+00
          1   -1    0    0  502    0  0.00000000000E+00  0.00000000000E+00  0.26425531834E+02  0.26425531834E+02  0.00000000000E+00 0.  1.
         13   -1    0    0    0    0 -0.00000000000E+00 -0.00000000000E+00 -0.10000000000E+04  0.10000000000E+04  0.00000000000E+00 0.  1.
    9000005    2    1    2  501    0  0.71543967872E+01 -0.58141966845E+01 -0.95592258075E+03  0.10065112303E+04  0.31494743378E+03 0.  0.
         13    1    3    3    0    0  0.31471846478E+02  0.14606785231E+03 -0.60822586235E+03  0.62631062120E+03  0.00000000000E+00 0.  1.
          1    1    3    3  501    0 -0.24317449691E+02 -0.15188204900E+03 -0.34769671840E+03  0.38020060909E+03  0.00000000000E+00 0.  1.
         21    1    1    2  502  501 -0.71543967872E+01  0.58141966845E+01 -0.17651887420E+02  0.19914301543E+02  0.00000000000E+00 0. -1.
<mgrwt>
<rscale>  1 0.30000000E+03</rscale>
<asrwt>0</asrwt>
<pdfrwt beam="1">  1        1 0.96093046E-01 0.30000000E+03</pdfrwt>
<pdfrwt beam="2">0</pdfrwt>
<totfact> 0.36267789E+01</totfact>
</mgrwt>
</event>
<event>
 6    1  0.1901260E-004  0.3000000E+03  0.7818608E-02  0.1093470E+00
          1   -1    0    0  502    0  0.00000000000E+00  0.00000000000E+00  0.26076025715E+02  0.26076025715E+02  0.00000000000E+00 0.  1.
         13   -1    0    0    0    0 -0.00000000000E+00 -0.00000000000E+00 -0.10000000000E+04  0.10000000000E+04  0.00000000000E+00 0.  1.
    9000005    2    1    2  501    0 -0.70772791955E+01  0.71729877671E+01 -0.96712617181E+03  0.10139207901E+04  0.30430379026E+03 0.  0.
         13    1    3    3    0    0  0.92502943352E+02 -0.10709187850E+03 -0.60549093520E+03  0.62180763712E+03  0.00000000000E+00 0.  1.
          1    1    3    3  501    0 -0.99580222547E+02  0.11426486627E+03 -0.36163523660E+03  0.39211315298E+03  0.00000000000E+00 0.  1.
         21    1    1    2  502  501  0.70772791955E+01 -0.71729877671E+01 -0.67978024764E+01  0.12155235614E+02  0.00000000000E+00 0.  1.
<mgrwt>
<rscale>  1 0.30000000E+03</rscale>
<asrwt>0</asrwt>
<pdfrwt beam="1">  1        1 0.94822112E-01 0.30000000E+03</pdfrwt>
<pdfrwt beam="2">0</pdfrwt>
<totfact> 0.36970690E+01</totfact>
</mgrwt>
</event>
<event>
 6    1  0.1901260E-004  0.3000000E+03  0.7818608E-02  0.1093470E+00
          1   -1    0    0  502    0  0.00000000000E+00  0.00000000000E+00  0.28837367140E+02  0.28837367140E+02  0.00000000000E+00 0.  1.
         13   -1    0    0    0    0 -0.00000000000E+00 -0.00000000000E+00 -0.10000000000E+04  0.10000000000E+04  0.00000000000E+00 0.  1.
    9000005    2    1    2  501    0  0.18054644445E+01 -0.10918141200E+02 -0.95651088114E+03  0.10104760127E+04  0.32561670865E+03 0.  0.
         13    1    3    3    0    0 -0.97435017906E+02 -0.13525675459E+03 -0.48380473672E+03  0.51171769136E+03  0.00000000000E+00 0.  1.
          3    1    3    3  501    0  0.99240482350E+02  0.12433861339E+03 -0.47270614442E+03  0.49875832132E+03  0.00000000000E+00 0.  1.
         21    1    1    2  502  501 -0.18054644445E+01  0.10918141200E+02 -0.14651751721E+02  0.18361354460E+02  0.00000000000E+00 0.  1.
<mgrwt>
<rscale>  1 0.30000000E+03</rscale>
<asrwt>0</asrwt>
<pdfrwt beam="1">  1        1 0.10486337E+00 0.30000000E+03</pdfrwt>
<pdfrwt beam="2">0</pdfrwt>
<totfact> 0.31914370E+01</totfact>
</mgrwt>
</event>
<event>
 6    1  0.1901260E-004  0.3000000E+03  0.7818608E-02  0.1093470E+00
          1   -1    0    0  502    0  0.00000000000E+00  0.00000000000E+00  0.97660816293E+02  0.97660816293E+02  0.00000000000E+00 0.  1.
         13   -1    0    0    0    0 -0.00000000000E+00 -0.00000000000E+00 -0.10000000000E+04  0.10000000000E+04  0.00000000000E+00 0.  1.
    9000005    2    1    2  501    0 -0.22904748754E+02  0.16930008005E+02 -0.96947556504E+03  0.10247324515E+04  0.33073021235E+03 0.  0.
         13    1    3    3    0    0  0.28393081010E+02  0.62970872975E+02 -0.95081661837E+03  0.95332247411E+03  0.00000000000E+00 0.  1.
          3    1    3    3  501    0 -0.51297829764E+02 -0.46040864971E+02 -0.18658946672E+02  0.71409977431E+02  0.00000000000E+00 0.  1.
         21    1    1    2  502  501  0.22904748754E+02 -0.16930008005E+02  0.67136381330E+02  0.72928364747E+02  0.00000000000E+00 0.  1.
<mgrwt>
<rscale>  1 0.30000000E+03</rscale>
<asrwt>0</asrwt>
<pdfrwt beam="1">  1        1 0.35513099E+00 0.30000000E+03</pdfrwt>
<pdfrwt beam="2">0</pdfrwt>
<totfact> 0.18524780E+00</totfact>
</mgrwt>
</event>
<event>
 6    1  0.1901260E-004  0.3000000E+03  0.7818608E-02  0.1093470E+00
          3   -1    0    0  502    0  0.00000000000E+00  0.00000000000E+00  0.30507022899E+02  0.30507022899E+02  0.00000000000E+00 0.  1.
         13   -1    0    0    0    0 -0.00000000000E+00 -0.00000000000E+00 -0.10000000000E+04  0.10000000000E+04  0.00000000000E+00 0.  1.
    9000005    2    1    2  501    0  0.13941507503E+02  0.40226572407E+01 -0.95188171140E+03  0.10076880816E+04  0.33037241090E+03 0.  0.
         13    1    3    3    0    0  0.58396646207E+02 -0.11343397394E+03 -0.15400282272E+03  0.19998575984E+03  0.00000000000E+00 0.  1.
          1    1    3    3  501    0 -0.44455138703E+02  0.11745663118E+03 -0.79787888869E+03  0.80770232176E+03  0.00000000000E+00 0.  1.
         21    1    1    2  502  501 -0.13941507503E+02 -0.40226572407E+01 -0.17611265696E+02  0.22818941302E+02  0.00000000000E+00 0.  1.
<mgrwt>
<rscale>  1 0.30000000E+03</rscale>
<asrwt>0</asrwt>
<pdfrwt beam="1">  1        3 0.11093486E+00 0.30000000E+03</pdfrwt>
<pdfrwt beam="2">0</pdfrwt>
<totfact> 0.29405568E+00</totfact>
</mgrwt>
</event>
<event>
 6    1  0.1901260E-004  0.3000000E+03  0.7818608E-02  0.1093470E+00
          1   -1    0    0  502    0  0.00000000000E+00  0.00000000000E+00  0.51864131201E+02  0.51864131201E+02  0.00000000000E+00 0.  1.
         13   -1    0    0    0    0 -0.00000000000E+00 -0.00000000000E+00 -0.10000000000E+04  0.10000000000E+04  0.00000000000E+00 0.  1.
    9000005    2    1    2  501    0 -0.95069930332E+01  0.35855690812E+01 -0.97349356527E+03  0.10245465180E+04  0.31922187686E+03 0.  0.
         13    1    3    3    0    0  0.32020415969E+02  0.15634295387E+03 -0.43921136169E+03  0.46730615928E+03  0.00000000000E+00 0.  1.
          1    1    3    3  501    0 -0.41527409002E+02 -0.15275738479E+03 -0.53428220357E+03  0.55724035870E+03  0.00000000000E+00 0.  1.
         21    1    1    2  502  501  0.95069930332E+01 -0.35855690812E+01  0.25357696467E+02  0.27317613224E+02  0.00000000000E+00 0. -1.
<mgrwt>
<rscale>  1 0.30000000E+03</rscale>
<asrwt>0</asrwt>
<pdfrwt beam="1">  1        1 0.18859724E+00 0.30000000E+03</pdfrwt>
<pdfrwt beam="2">0</pdfrwt>
<totfact> 0.11612694E+01</totfact>
</mgrwt>
</event>
<event>
 6    1  0.1901260E-004  0.3000000E+03  0.7818608E-02  0.1093470E+00
          1   -1    0    0  502    0  0.00000000000E+00  0.00000000000E+00  0.31937599076E+02  0.31937599076E+02  0.00000000000E+00 0.  1.
         13   -1    0    0    0    0 -0.00000000000E+00 -0.00000000000E+00 -0.10000000000E+04  0.10000000000E+04  0.00000000000E+00 0.  1.
    9000005    2    1    2  501    0  0.12954243674E+02 -0.21017876028E+02 -0.94052128075E+03  0.99495007628E+03  0.32362912602E+03 0.  0.
         13    1    3    3    0    0 -0.51541231607E+02  0.14900038107E+02 -0.21660680174E+01  0.53695451780E+02  0.00000000000E+00 0.  1.
          1    1    3    3  501    0  0.64495475281E+02 -0.35917914135E+02 -0.93835521273E+03  0.94125462450E+03  0.00000000000E+00 0.  1.
         21    1    1    2  502  501 -0.12954243674E+02  0.21017876028E+02 -0.27541120176E+02  0.36987522794E+02  0.00000000000E+00 0.  1.
<mgrwt>
<rscale>  1 0.30000000E+03</rscale>
<asrwt>0</asrwt>
<pdfrwt beam="1">  1        1 0.11613697E+00 0.30000000E+03</pdfrwt>
<pdfrwt beam="2">0</pdfrwt>
<totfact> 0.27349364E+01</totfact>
</mgrwt>
</event>
<event>
 6    1  0.1901260E-004  0.3000000E+03  0.7818608E-02  0.1093470E+00
          1   -1    0    0  502    0  0.00000000000E+00  0.00000000000E+00  0.30756676119E+02  0.30756676119E+02  0.00000000000E+00 0.  1.
         13   -1    0    0    0    0 -0.00000000000E+00 -0.00000000000E+00 -0.10000000000E+04  0.10000000000E+04  0.00000000000E+00 0.  1.
    9000005    2    1    2  501    0  0.24028775518E+02 -0.12905029628E+02 -0.91720441526E+03  0.97200320939E+03  0.32059690866E+03 0.  0.
         13    1    3    3    0    0 -0.38332421176E+01  0.14151402960E+03 -0.61959301517E+03  0.63555992539E+03  0.00000000000E+00 0.  1.
          1    1    3    3  501    0  0.27862017635E+02 -0.15441905923E+03 -0.29761140009E+03  0.33644328400E+03  0.00000000000E+00 0.  1.
         21    1    1    2  502  501 -0.24028775518E+02  0.12905029628E+02 -0.52038908619E+02  0.58753466730E+02  0.00000000000E+00 0. -1.
<mgrwt>
<rscale>  1 0.30000000E+03</rscale>
<asrwt>0</asrwt>
<pdfrwt beam="1">  1        1 0.11184269E+00 0.30000000E+03</pdfrwt>
<pdfrwt beam="2">0</pdfrwt>
<totfact> 0.28971549E+01</totfact>
</mgrwt>
</event>
<event>
 6    1  0.1901260E-004  0.3000000E+03  0.7818608E-02  0.1093470E+00
          1   -1    0    0  502    0  0.00000000000E+00  0.00000000000E+00  0.22349420586E+02  0.22349420586E+02  0.00000000000E+00 0.  1.
         13   -1    0    0    0    0 -0.00000000000E+00 -0.00000000000E+00 -0.10000000000E+04  0.10000000000E+04  0.00000000000E+00 0.  1.
    9000005    2    1    2  501    0 -0.14573613693E+00  0.99424769727E+01 -0.97438023066E+03  0.10118818866E+04  0.27274391722E+03 0.  0.
         13    1    3    3    0    0 -0.40279669002E+02 -0.12422524831E+03 -0.40508661910E+03  0.42561665031E+03  0.00000000000E+00 0.  1.
          1    1    3    3  501    0  0.40133932865E+02  0.13416772528E+03 -0.56929361157E+03  0.58626523626E+03  0.00000000000E+00 0.  1.
         21    1    1    2  502  501  0.14573613693E+00 -0.99424769727E+01 -0.32703487506E+01  0.10467534014E+02  0.00000000000E+00 0.  1.
<mgrwt>
<rscale>  1 0.30000000E+03</rscale>
<asrwt>0</asrwt>
<pdfrwt beam="1">  1        1 0.81270792E-01 0.30000000E+03</pdfrwt>
<pdfrwt beam="2">0</pdfrwt>
<totfact> 0.45952098E+01</totfact>
</mgrwt>
</event>
<event>
 6    1  0.1901260E-004  0.3000000E+03  0.7818608E-02  0.1093470E+00
          1   -1    0    0  502    0  0.00000000000E+00  0.00000000000E+00  0.44119020933E+02  0.44119020933E+02  0.00000000000E+00 0.  1.
         13   -1    0    0    0    0 -0.00000000000E+00 -0.00000000000E+00 -0.10000000000E+04  0.10000000000E+04  0.00000000000E+00 0.  1.
    9000005    2    1    2  501    0  0.94029768448E+01 -0.26921618178E+02 -0.96244003381E+03  0.10148579427E+04  0.32067528084E+03 0.  0.
         13    1    3    3    0    0 -0.54112862188E+02  0.40232444239E+02 -0.23543386257E+02  0.71422282658E+02  0.00000000000E+00 0.  1.
          1    1    3    3  501    0  0.63515839033E+02 -0.67154062417E+02 -0.93889664755E+03  0.94343566007E+03  0.00000000000E+00 0.  1.
         21    1    1    2  502  501 -0.94029768448E+01  0.26921618178E+02  0.65590547382E+01  0.29261078208E+02  0.00000000000E+00 0.  1.
<mgrwt>
<rscale>  1 0.30000000E+03</rscale>
<asrwt>0</asrwt>
<pdfrwt beam="1">  1        1 0.16043314E+00 0.30000000E+03</pdfrwt>
<pdfrwt beam="2">0</pdfrwt>
<totfact> 0.15923985E+01</totfact>
</mgrwt>
</event>
<event>
 6    1  0.1901260E-004  0.3000000E+03  0.7818608E-02  0.1093470E+00
          1   -1    0    0  502    0  0.00000000000E+00  0.00000000000E+00  0.50464007556E+02  0.50464007556E+02  0.00000000000E+00 0.  1.
         13   -1    0    0    0    0 -0.00000000000E+00 -0.00000000000E+00 -0.10000000000E+04  0.10000000000E+04  0.00000000000E+00 0.  1.
    9000005    2    1    2  501    0 -0.49459140818E+02  0.31075948541E+02 -0.91660364718E+03  0.98340835491E+03  0.35145102828E+03 0.  0.
         13    1    3    3    0    0  0.14419415613E+03 -0.38938458277E+01 -0.53432622174E+03  0.55345426906E+03  0.00000000000E+00 0.  1.
          3    1    3    3  501    0 -0.19365329694E+03  0.34969794368E+02 -0.38227742544E+03  0.42995408585E+03  0.00000000000E+00 0.  1.
         21    1    1    2  502  501  0.49459140818E+02 -0.31075948541E+02 -0.32932345260E+02  0.67055652651E+02  0.00000000000E+00 0.  1.
<mgrwt>
<rscale>  1 0.30000000E+03</rscale>
<asrwt>0</asrwt>
<pdfrwt beam="1">  1        1 0.18350587E+00 0.30000000E+03</pdfrwt>
<pdfrwt beam="2">0</pdfrwt>
<totfact> 0.12286181E+01</totfact>
</mgrwt>
</event>
<event>
 6    1  0.1901260E-004  0.3000000E+03  0.7818608E-02  0.1093470E+00
          1   -1    0    0  502    0  0.00000000000E+00  0.00000000000E+00  0.35267076022E+02  0.35267076022E+02  0.00000000000E+00 0.  1.
         13   -1    0    0    0    0 -0.00000000000E+00 -0.00000000000E+00 -0.10000000000E+04  0.10000000000E+04  0.00000000000E+00 0.  1.
    9000005    2    1    2  501    0  0.14795631039E+02  0.92271884970E+01 -0.96948756070E+03  0.10171933859E+04  0.30736330653E+03 0.  0.
         13    1    3    3    0    0  0.73069690469E+01 -0.14723708984E+03 -0.54998207535E+03  0.56939655393E+03  0.00000000000E+00 0.  1.
          3    1    3    3  501    0  0.74886619924E+01  0.15646427834E+03 -0.41950548535E+03  0.44779683194E+03  0.00000000000E+00 0.  1.
         21    1    1    2  502  501 -0.14795631039E+02 -0.92271884970E+01  0.47546367208E+01  0.18073690153E+02  0.00000000000E+00 0. -1.
<mgrwt>
<rscale>  1 0.30000000E+03</rscale>
<asrwt>0</asrwt>
<pdfrwt beam="1">  1        1 0.12824418E+00 0.30000000E+03</pdfrwt>
<pdfrwt beam="2">0</pdfrwt>
<totfact> 0.23390704E+01</totfact>
</mgrwt>
</event>
<event>
 6    1  0.1901260E-004  0.3000000E+03  0.7818608E-02  0.1093470E+00
          1   -1    0    0  502    0  0.00000000000E+00  0.00000000000E+00  0.39490071223E+02  0.39490071223E+02  0.00000000000E+00 0.  1.
         13   -1    0    0    0    0 -0.00000000000E+00 -0.00000000000E+00 -0.10000000000E+04  0.10000000000E+04  0.00000000000E+00 0.  1.
    9000005    2    1    2  501    0 -0.21234713275E+02 -0.15631441778E+02 -0.95830906738E+03  0.10130306908E+04  0.32738304312E+03 0.  0.
         13    1    3    3    0    0  0.32535832793E+02 -0.11562233636E+03 -0.13006792765E+03  0.17704454492E+03  0.00000000000E+00 0.  1.
          1    1    3    3  501    0 -0.53770546068E+02  0.99990894584E+02 -0.82824113972E+03  0.83598614591E+03  0.00000000000E+00 0.  1.
         21    1    1    2  502  501  0.21234713275E+02  0.15631441778E+02 -0.22008614001E+01  0.26459380394E+02  0.00000000000E+00 0.  1.
<mgrwt>
<rscale>  1 0.30000000E+03</rscale>
<asrwt>0</asrwt>
<pdfrwt beam="1">  1        1 0.14360056E+00 0.30000000E+03</pdfrwt>
<pdfrwt beam="2">0</pdfrwt>
<totfact> 0.19376431E+01</totfact>
</mgrwt>
</event>
<event>
 6    1  0.1901260E-004  0.3000000E+03  0.7818608E-02  0.1093470E+00
          1   -1    0    0  502    0  0.00000000000E+00  0.00000000000E+00  0.52045188786E+02  0.52045188786E+02  0.00000000000E+00 0.  1.
         13   -1    0    0    0    0 -0.00000000000E+00 -0.00000000000E+00 -0.10000000000E+04  0.10000000000E+04  0.00000000000E+00 0.  1.
    9000005    2    1    2  501    0 -0.10309551705E+02  0.16270879866E+02 -0.97030123801E+03  0.10225427960E+04  0.32208422629E+03 0.  0.
         13    1    3    3    0    0  0.14951438694E+02  0.58404460612E+01 -0.98919040444E+03  0.98932063183E+03  0.00000000000E+00 0.  1.
          1    1    3    3  501    0 -0.25260990400E+02  0.10430433805E+02  0.18889166428E+02  0.33222164193E+02  0.00000000000E+00 0.  1.
         21    1    1    2  502  501  0.10309551705E+02 -0.16270879866E+02  0.22346426799E+02  0.29502392762E+02  0.00000000000E+00 0.  1.
<mgrwt>
<rscale>  1 0.30000000E+03</rscale>
<asrwt>0</asrwt>
<pdfrwt beam="1">  1        1 0.18925563E+00 0.30000000E+03</pdfrwt>
<pdfrwt beam="2">0</pdfrwt>
<totfact> 0.11528454E+01</totfact>
</mgrwt>
</event>
<event>
 6    1  0.1901260E-004  0.3000000E+03  0.7818608E-02  0.1093470E+00
          1   -1    0    0  502    0  0.00000000000E+00  0.00000000000E+00  0.32691769131E+02  0.32691769131E+02  0.00000000000E+00 0.  1.
         13   -1    0    0    0    0 -0.00000000000E+00 -0.00000000000E+00 -0.10000000000E+04  0.10000000000E+04  0.00000000000E+00 0.  1.
    9000005    2    1    2  501    0 -0.99762793786E+01 -0.66214897719E+00 -0.96142489762E+03  0.10210909846E+04  0.34378627152E+03 0.  0.
         13    1    3    3    0    0  0.10261636839E+03 -0.12587990677E+03 -0.33295840483E+03  0.37045535404E+03  0.00000000000E+00 0.  1.
          3    1    3    3  501    0 -0.11259264777E+03  0.12521775779E+03 -0.62846649279E+03  0.65063563056E+03  0.00000000000E+00 0.  1.
         21    1    1    2  502  501  0.99762793786E+01  0.66214897719E+00 -0.58833332455E+01  0.11600784525E+02  0.00000000000E+00 0.  1.
<mgrwt>
<rscale>  1 0.30000000E+03</rscale>
<asrwt>0</asrwt>
<pdfrwt beam="1">  1        1 0.11887941E+00 0.30000000E+03</pdfrwt>
<pdfrwt beam="2">0</pdfrwt>
<totfact> 0.26379034E+01</totfact>
</mgrwt>
</event>
<event>
 6    1  0.1901260E-004  0.3000000E+03  0.7818608E-02  0.1093470E+00
          1   -1    0    0  502    0  0.00000000000E+00  0.00000000000E+00  0.31517558258E+02  0.31517558258E+02  0.00000000000E+00 0.  1.
         13   -1    0    0    0    0 -0.00000000000E+00 -0.00000000000E+00 -0.10000000000E+04  0.10000000000E+04  0.00000000000E+00 0.  1.
    9000005    2    1    2  501    0  0.32306503231E+01 -0.15380122712E+02 -0.96149960969E+03  0.10143203137E+04  0.32267199154E+03 0.  0.
         13    1    3    3    0    0 -0.68672493350E+02  0.41863845288E+02 -0.42935773773E+02  0.91170025527E+02  0.00000000000E+00 0.  1.
          3    1    3    3  501    0  0.71903143673E+02 -0.57243968000E+02 -0.91856383591E+03  0.92315028819E+03  0.00000000000E+00 0.  1.
         21    1    1    2  502  501 -0.32306503231E+01  0.15380122712E+02 -0.69828320555E+01  0.17197244537E+02  0.00000000000E+00 0. -1.
<mgrwt>
<rscale>  1 0.30000000E+03</rscale>
<asrwt>0</asrwt>
<pdfrwt beam="1">  1        1 0.11460954E+00 0.30000000E+03</pdfrwt>
<pdfrwt beam="2">0</pdfrwt>
<totfact> 0.27911304E+01</totfact>
</mgrwt>
</event>
<event>
 6    1  0.1901260E-004  0.3000000E+03  0.7818608E-02  0.1093470E+00
          1   -1    0    0  502    0  0.00000000000E+00  0.00000000000E+00  0.41954003703E+02  0.41954003703E+02  0.00000000000E+00 0.  1.
         13   -1    0    0    0    0 -0.00000000000E+00 -0.00000000000E+00 -0.10000000000E+04  0.10000000000E+04  0.00000000000E+00 0.  1.
    9000005    2    1    2  501    0  0.22448535361E+02  0.26050514567E+02 -0.95205566683E+03  0.10070476992E+04  0.32642381900E+03 0.  0.
         13    1    3    3    0    0  0.62619284620E+02 -0.89051347288E+02 -0.82049981585E+03  0.82769031954E+03  0.00000000000E+00 0.  1.
          1    1    3    3  501    0 -0.40170749259E+02  0.11510186186E+03 -0.13155585098E+03  0.17935737962E+03  0.00000000000E+00 0.  1.
         21    1    1    2  502  501 -0.22448535361E+02 -0.26050514567E+02 -0.59903294682E+01  0.34906304534E+02  0.00000000000E+00 0.  1.
<mgrwt>
<rscale>  1 0.30000000E+03</rscale>
<asrwt>0</asrwt>
<pdfrwt beam="1">  1        1 0.15256034E+00 0.30000000E+03</pdfrwt>
<pdfrwt beam="2">0</pdfrwt>
<totfact> 0.17436214E+01</totfact>
</mgrwt>
</event>
<event>
 6    1  0.1901260E-004  0.3000000E+03  0.7818608E-02  0.1093470E+00
          1   -1    0    0  502    0  0.00000000000E+00  0.00000000000E+00  0.42856187224E+02  0.42856187224E+02  0.00000000000E+00 0.  1.
         13   -1    0    0    0    0 -0.00000000000E+00 -0.00000000000E+00 -0.10000000000E+04  0.10000000000E+04  0.00000000000E+00 0.  1.
    9000005    2    1    2  501    0 -0.20495611392E+02 -0.24926915236E+02 -0.95860131592E+03  0.10105522323E+04  0.31821048082E+03 0.  0.
         13    1    3    3    0    0 -0.63368136046E+02  0.13546320415E+03 -0.37277678188E+03  0.40165697984E+03  0.00000000000E+00 0.  1.
          3    1    3    3  501    0  0.42872524654E+02 -0.16039011939E+03 -0.58582453404E+03  0.60889525244E+03  0.00000000000E+00 0.  1.
         21    1    1    2  502  501  0.20495611392E+02  0.24926915236E+02  0.14575031409E+01  0.32303954943E+02  0.00000000000E+00 0.  1.
<mgrwt>
<rscale>  1 0.30000000E+03</rscale>
<asrwt>0</asrwt>
<pdfrwt beam="1">  1        1 0.15584101E+00 0.30000000E+03</pdfrwt>
<pdfrwt beam="2">0</pdfrwt>
<totfact> 0.16786113E+01</totfact>
</mgrwt>
</event>
<event>
 6    1  0.1901260E-004  0.3000000E+03  0.7818608E-02  0.1093470E+00
          1   -1    0    0  502    0  0.00000000000E+00  0.00000000000E+00  0.34350953539E+02  0.34350953539E+02  0.00000000000E+00 0.  1.
         13   -1    0    0    0    0 -0.00000000000E+00 -0.00000000000E+00 -0.10000000000E+04  0.10000000000E+04  0.00000000000E+00 0.  1.
    9000005    2    1    2  501    0 -0.92224554064E+01 -0.45650971109E+01 -0.96961875298E+03  0.10233213404E+04  0.32698646127E+03 0.  0.
         13    1    3    3    0    0 -0.10147296526E+03 -0.39578514440E+02 -0.88970653774E+03  0.89634867367E+03  0.00000000000E+00 0.  1.
          1    1    3    3  501    0  0.92250509852E+02  0.35013417329E+02 -0.79912215240E+02  0.12697266677E+03  0.00000000000E+00 0.  1.
         21    1    1    2  502  501  0.92224554064E+01  0.45650971109E+01  0.39697065234E+01  0.11029613105E+02  0.00000000000E+00 0.  1.
<mgrwt>
<rscale>  1 0.30000000E+03</rscale>
<asrwt>0</asrwt>
<pdfrwt beam="1">  1        1 0.12491282E+00 0.30000000E+03</pdfrwt>
<pdfrwt beam="2">0</pdfrwt>
<totfact> 0.24401085E+01</totfact>
</mgrwt>
</event>
<event>
 6    1  0.1901260E-004  0.3000000E+03  0.7818608E-02  0.1093470E+00
          1   -1    0    0  502    0  0.00000000000E+00  0.00000000000E+00  0.29246556943E+02  0.29246556943E+02  0.00000000000E+00 0.  1.
         13   -1    0    0    0    0 -0.00000000000E+00 -0.00000000000E+00 -0.10000000000E+04  0.10000000000E+04  0.00000000000E+00 0.  1.
    9000005    2    1    2  501    0 -0.40775731060E+01 -0.11302869122E+02 -0.91126673462E+03  0.96855842026E+03  0.32795421996E+03 0.  0.
         13    1    3    3    0    0 -0.96073919434E+02 -0.77027417377E+02 -0.12965743923E+03  0.17881407263E+03  0.00000000000E+00 0.  1.
          1    1    3    3  501    0  0.91996346328E+02  0.65724548254E+02 -0.78160929539E+03  0.78974434763E+03  0.00000000000E+00 0.  1.
         21    1    1    2  502  501  0.40775731060E+01  0.11302869122E+02 -0.59486708437E+02  0.60688136678E+02  0.00000000000E+00 0.  1.
<mgrwt>
<rscale>  1 0.30000000E+03</rscale>
<asrwt>0</asrwt>
<pdfrwt beam="1">  1        1 0.10635134E+00 0.30000000E+03</pdfrwt>
<pdfrwt beam="2">0</pdfrwt>
<totfact> 0.31252181E+01</totfact>
</mgrwt>
</event>
<event>
 6    1  0.1901260E-004  0.3000000E+03  0.7818608E-02  0.1093470E+00
          1   -1    0    0  502    0  0.00000000000E+00  0.00000000000E+00  0.69183452835E+02  0.69183452835E+02  0.00000000000E+00 0.  1.
         13   -1    0    0    0    0 -0.00000000000E+00 -0.00000000000E+00 -0.10000000000E+04  0.10000000000E+04  0.00000000000E+00 0.  1.
    9000005    2    1    2  501    0 -0.22824057345E+02  0.27577121362E+02 -0.95186430885E+03  0.10276570337E+04  0.38568365427E+03 0.  0.
         13    1    3    3    0    0  0.11437350352E+03  0.13261576315E+03 -0.70436733371E+03  0.72581098072E+03  0.00000000000E+00 0.  1.
          1    1    3    3  501    0 -0.13719756086E+03 -0.10503864179E+03 -0.24749697515E+03  0.30184605295E+03  0.00000000000E+00 0.  1.
         21    1    1    2  502  501  0.22824057345E+02 -0.27577121362E+02  0.21047761689E+02  0.41526419162E+02  0.00000000000E+00 0.  1.
<mgrwt>
<rscale>  1 0.30000000E+03</rscale>
<asrwt>0</asrwt>
<pdfrwt beam="1">  1        1 0.25157672E+00 0.30000000E+03</pdfrwt>
<pdfrwt beam="2">0</pdfrwt>
<totfact> 0.58660799E+00</totfact>
</mgrwt>
</event>
<event>
 6    1  0.1901260E-004  0.3000000E+03  0.7818608E-02  0.1093470E+00
          3   -1    0    0  502    0  0.00000000000E+00  0.00000000000E+00  0.29552155307E+02  0.29552155307E+02  0.00000000000E+00 0.  1.
         13   -1    0    0    0    0 -0.00000000000E+00 -0.00000000000E+00 -0.10000000000E+04  0.10000000000E+04  0.00000000000E+00 0.  1.
    9000005    2    1    2  501    0  0.84438401226E+00  0.15386907084E+02 -0.94912267175E+03  0.10032418361E+04  0.32468887545E+03 0.  0.
         13    1    3    3    0    0  0.84690740787E+02  0.51345264616E+02 -0.74647562853E+02  0.12402062898E+03  0.00000000000E+00 0.  1.
          3    1    3    3  501    0 -0.83846356774E+02 -0.35958357532E+02 -0.87447510890E+03  0.87922120715E+03  0.00000000000E+00 0.  1.
         21    1    1    2  502  501 -0.84438401226E+00 -0.15386907084E+02 -0.21325172941E+02  0.26310319172E+02  0.00000000000E+00 0. -1.
<mgrwt>
<rscale>  1 0.30000000E+03</rscale>
<asrwt>0</asrwt>
<pdfrwt beam="1">  1        3 0.10746261E+00 0.30000000E+03</pdfrwt>
<pdfrwt beam="2">0</pdfrwt>
<totfact> 0.32210238E+00</totfact>
</mgrwt>
</event>
<event>
 6    1  0.1901260E-004  0.3000000E+03  0.7818608E-02  0.1093470E+00
          1   -1    0    0  502    0  0.00000000000E+00  0.00000000000E+00  0.27772114555E+02  0.27772114555E+02  0.00000000000E+00 0.  1.
         13   -1    0    0    0    0 -0.00000000000E+00 -0.00000000000E+00 -0.10000000000E+04  0.10000000000E+04  0.00000000000E+00 0.  1.
    9000005    2    1    2  501    0  0.36271652082E+01 -0.82452863743E+01 -0.94407511673E+03  0.99821336862E+03  0.32414651346E+03 0.  0.
         13    1    3    3    0    0  0.16742820280E+02  0.31306600835E+02 -0.95457988927E+03  0.95523986008E+03  0.00000000000E+00 0.  1.
          1    1    3    3  501    0 -0.13115655072E+02 -0.39551887209E+02  0.10504772544E+02  0.42973508537E+02  0.00000000000E+00 0.  1.
         21    1    1    2  502  501 -0.36271652082E+01  0.82452863743E+01 -0.28152768720E+02  0.29558745938E+02  0.00000000000E+00 0.  1.
<mgrwt>
<rscale>  1 0.30000000E+03</rscale>
<asrwt>0</asrwt>
<pdfrwt beam="1">  1        1 0.10098972E+00 0.30000000E+03</pdfrwt>
<pdfrwt beam="2">0</pdfrwt>
<totfact> 0.33736883E+01</totfact>
</mgrwt>
</event>
<event>
 6    1  0.1901260E-004  0.3000000E+03  0.7818608E-02  0.1093470E+00
          3   -1    0    0  502    0  0.00000000000E+00  0.00000000000E+00  0.34189758215E+02  0.34189758215E+02  0.00000000000E+00 0.  1.
         13   -1    0    0    0    0 -0.00000000000E+00 -0.00000000000E+00 -0.10000000000E+04  0.10000000000E+04  0.00000000000E+00 0.  1.
    9000005    2    1    2  501    0 -0.42570550377E+02 -0.37684524196E+01 -0.88171829620E+03  0.93986103351E+03  0.32262231084E+03 0.  0.
         13    1    3    3    0    0  0.10736709884E+03  0.46025395911E+02 -0.64347803007E+03  0.65399541755E+03  0.00000000000E+00 0.  1.
          3    1    3    3  501    0 -0.14993764922E+03 -0.49793848330E+02 -0.23824026613E+03  0.28586561596E+03  0.00000000000E+00 0.  1.
         21    1    1    2  502  501  0.42570550377E+02  0.37684524196E+01 -0.84091945582E+02  0.94328724707E+02  0.00000000000E+00 0.  1.
<mgrwt>
<rscale>  1 0.30000000E+03</rscale>
<asrwt>0</asrwt>
<pdfrwt beam="1">  1        3 0.12432666E+00 0.30000000E+03</pdfrwt>
<pdfrwt beam="2">0</pdfrwt>
<totfact> 0.20602422E+00</totfact>
</mgrwt>
</event>
<event>
 6    1  0.1901260E-004  0.3000000E+03  0.7818608E-02  0.1093470E+00
          1   -1    0    0  502    0  0.00000000000E+00  0.00000000000E+00  0.29959143645E+02  0.29959143645E+02  0.00000000000E+00 0.  1.
         13   -1    0    0    0    0 -0.00000000000E+00 -0.00000000000E+00 -0.10000000000E+04  0.10000000000E+04  0.00000000000E+00 0.  1.
    9000005    2    1    2  501    0 -0.12606718839E+02  0.54444629600E+01 -0.88566630082E+03  0.94447442478E+03  0.32777823468E+03 0.  0.
         13    1    3    3    0    0 -0.44722241135E+02 -0.29998447180E+02 -0.89425966754E+03  0.89587964520E+03  0.00000000000E+00 0.  1.
          1    1    3    3  501    0  0.32115522296E+02  0.35442910140E+02  0.85933667229E+01  0.48594779587E+02  0.00000000000E+00 0.  1.
         21    1    1    2  502  501  0.12606718839E+02 -0.54444629600E+01 -0.84374555537E+02  0.85484718862E+02  0.00000000000E+00 0.  1.
<mgrwt>
<rscale>  1 0.30000000E+03</rscale>
<asrwt>0</asrwt>
<pdfrwt beam="1">  1        1 0.10894257E+00 0.30000000E+03</pdfrwt>
<pdfrwt beam="2">0</pdfrwt>
<totfact> 0.30145289E+01</totfact>
</mgrwt>
</event>
<event>
 6    1  0.1901260E-004  0.3000000E+03  0.7818608E-02  0.1093470E+00
          1   -1    0    0  502    0  0.00000000000E+00  0.00000000000E+00  0.28606776158E+02  0.28606776158E+02  0.00000000000E+00 0.  1.
         13   -1    0    0    0    0 -0.00000000000E+00 -0.00000000000E+00 -0.10000000000E+04  0.10000000000E+04  0.00000000000E+00 0.  1.
    9000005    2    1    2  501    0  0.21164614559E+01 -0.11400254562E+02 -0.96448545498E+03  0.10151100179E+04  0.31635693501E+03 0.  0.
         13    1    3    3    0    0  0.14323322343E+03 -0.43120049648E+02 -0.30194695446E+03  0.33696744396E+03  0.00000000000E+00 0.  1.
          3    1    3    3  501    0 -0.14111676197E+03  0.31719795085E+02 -0.66253850052E+03  0.67814257393E+03  0.00000000000E+00 0.  1.
         21    1    1    2  502  501 -0.21164614559E+01  0.11400254562E+02 -0.69077688574E+01  0.13496758269E+02  0.00000000000E+00 0. -1.
<mgrwt>
<rscale>  1 0.30000000E+03</rscale>
<asrwt>0</asrwt>
<pdfrwt beam="1">  1        1 0.10402486E+00 0.30000000E+03</pdfrwt>
<pdfrwt beam="2">0</pdfrwt>
<totfact> 0.32296508E+01</totfact>
</mgrwt>
</event>
<event>
 6    1  0.1901260E-004  0.3000000E+03  0.7818608E-02  0.1093470E+00
          1   -1    0    0  502    0  0.00000000000E+00  0.00000000000E+00  0.33559654796E+02  0.33559654796E+02  0.00000000000E+00 0.  1.
         13   -1    0    0    0    0 -0.00000000000E+00 -0.00000000000E+00 -0.10000000000E+04  0.10000000000E+04  0.00000000000E+00 0.  1.
    9000005    2    1    2  501    0  0.35532033589E+01  0.13307154884E+02 -0.96184083814E+03  0.10190385980E+04  0.33632151384E+03 0.  0.
         13    1    3    3    0    0  0.96236053333E+02  0.14548918209E+03 -0.53291879232E+03  0.56074140143E+03  0.00000000000E+00 0.  1.
          3    1    3    3  501    0 -0.92682849974E+02 -0.13218202720E+03 -0.42892204582E+03  0.45829719658E+03  0.00000000000E+00 0.  1.
         21    1    1    2  502  501 -0.35532033589E+01 -0.13307154884E+02 -0.45995070591E+01  0.14521056794E+02  0.00000000000E+00 0. -1.
<mgrwt>
<rscale>  1 0.30000000E+03</rscale>
<asrwt>0</asrwt>
<pdfrwt beam="1">  1        1 0.12203537E+00 0.30000000E+03</pdfrwt>
<pdfrwt beam="2">0</pdfrwt>
<totfact> 0.25319135E+01</totfact>
</mgrwt>
</event>
<event>
 6    1  0.1901260E-004  0.3000000E+03  0.7818608E-02  0.1093470E+00
          1   -1    0    0  502    0  0.00000000000E+00  0.00000000000E+00  0.79335382714E+02  0.79335382714E+02  0.00000000000E+00 0.  1.
         13   -1    0    0    0    0 -0.00000000000E+00 -0.00000000000E+00 -0.10000000000E+04  0.10000000000E+04  0.00000000000E+00 0.  1.
    9000005    2    1    2  501    0 -0.28656878002E+01  0.31469110858E+02 -0.95367000597E+03  0.10336421361E+04  0.39740542034E+03 0.  0.
         13    1    3    3    0    0  0.13114168432E+03  0.63174841195E+02 -0.11993063754E+03  0.18860689210E+03  0.00000000000E+00 0.  1.
          3    1    3    3  501    0 -0.13400737213E+03 -0.31705730337E+02 -0.83373936843E+03  0.84503524399E+03  0.00000000000E+00 0.  1.
         21    1    1    2  502  501  0.28656878002E+01 -0.31469110858E+02  0.33005388682E+02  0.45693246622E+02  0.00000000000E+00 0.  1.
<mgrwt>
<rscale>  1 0.30000000E+03</rscale>
<asrwt>0</asrwt>
<pdfrwt beam="1">  1        1 0.28849291E+00 0.30000000E+03</pdfrwt>
<pdfrwt beam="2">0</pdfrwt>
<totfact> 0.39386666E+00</totfact>
</mgrwt>
</event>
<event>
 6    1  0.1901260E-004  0.3000000E+03  0.7818608E-02  0.1093470E+00
          1   -1    0    0  502    0  0.00000000000E+00  0.00000000000E+00  0.31794546697E+02  0.31794546697E+02  0.00000000000E+00 0.  1.
         13   -1    0    0    0    0 -0.00000000000E+00 -0.00000000000E+00 -0.10000000000E+04  0.10000000000E+04  0.00000000000E+00 0.  1.
    9000005    2    1    2  501    0 -0.15253942811E+02 -0.61245329898E+01 -0.96177793531E+03  0.10141450237E+04  0.32125245446E+03 0.  0.
         13    1    3    3    0    0 -0.84134901241E+02 -0.85091429963E+02 -0.85924997557E+03  0.86754236414E+03  0.00000000000E+00 0.  1.
          1    1    3    3  501    0  0.68880958429E+02  0.78966896974E+02 -0.10252795975E+03  0.14660265953E+03  0.00000000000E+00 0.  1.
         21    1    1    2  502  501  0.15253942811E+02  0.61245329898E+01 -0.64275179896E+01  0.17649523029E+02  0.00000000000E+00 0. -1.
<mgrwt>
<rscale>  1 0.30000000E+03</rscale>
<asrwt>0</asrwt>
<pdfrwt beam="1">  1        1 0.11561678E+00 0.30000000E+03</pdfrwt>
<pdfrwt beam="2">0</pdfrwt>
<totfact> 0.27538954E+01</totfact>
</mgrwt>
</event>
<event>
 6    1  0.1901260E-004  0.3000000E+03  0.7818608E-02  0.1093470E+00
          1   -1    0    0  502    0  0.00000000000E+00  0.00000000000E+00  0.40961455325E+02  0.40961455325E+02  0.00000000000E+00 0.  1.
         13   -1    0    0    0    0 -0.00000000000E+00 -0.00000000000E+00 -0.10000000000E+04  0.10000000000E+04  0.00000000000E+00 0.  1.
    9000005    2    1    2  501    0 -0.13227785307E+02 -0.39871062369E+02 -0.94847872732E+03  0.99764649646E+03  0.30646689839E+03 0.  0.
         13    1    3    3    0    0 -0.13350558413E+03 -0.53556214022E+02 -0.76104375894E+03  0.77451895527E+03  0.00000000000E+00 0.  1.
          1    1    3    3  501    0  0.12027779883E+03  0.13685151652E+02 -0.18743496838E+03  0.22312754119E+03  0.00000000000E+00 0.  1.
         21    1    1    2  502  501  0.13227785307E+02  0.39871062369E+02 -0.10559817354E+02  0.43314958861E+02  0.00000000000E+00 0.  1.
<mgrwt>
<rscale>  1 0.30000000E+03</rscale>
<asrwt>0</asrwt>
<pdfrwt beam="1">  1        1 0.14895106E+00 0.30000000E+03</pdfrwt>
<pdfrwt beam="2">0</pdfrwt>
<totfact> 0.18187277E+01</totfact>
</mgrwt>
</event>
<event>
 6    1  0.1901260E-004  0.3000000E+03  0.7818608E-02  0.1093470E+00
          3   -1    0    0  502    0  0.00000000000E+00  0.00000000000E+00  0.31779883281E+02  0.31779883281E+02  0.00000000000E+00 0.  1.
         13   -1    0    0    0    0 -0.00000000000E+00 -0.00000000000E+00 -0.10000000000E+04  0.10000000000E+04  0.00000000000E+00 0.  1.
    9000005    2    1    2  501    0 -0.21947805775E+02  0.12605495523E+02 -0.93346004418E+03  0.98878142588E+03  0.32511605527E+03 0.  0.
         13    1    3    3    0    0 -0.43805512451E+02  0.15891097034E+03 -0.35020995611E+03  0.38706411972E+03  0.00000000000E+00 0.  1.
          1    1    3    3  501    0  0.21857706676E+02 -0.14630547482E+03 -0.58325008807E+03  0.60171730616E+03  0.00000000000E+00 0.  1.
         21    1    1    2  502  501  0.21947805775E+02 -0.12605495523E+02 -0.34760072537E+02  0.42998457397E+02  0.00000000000E+00 0. -1.
<mgrwt>
<rscale>  1 0.30000000E+03</rscale>
<asrwt>0</asrwt>
<pdfrwt beam="1">  1        3 0.11556346E+00 0.30000000E+03</pdfrwt>
<pdfrwt beam="2">0</pdfrwt>
<totfact> 0.26027614E+00</totfact>
</mgrwt>
</event>
<event>
 6    1  0.1901260E-004  0.3000000E+03  0.7818608E-02  0.1093470E+00
          1   -1    0    0  502    0  0.00000000000E+00  0.00000000000E+00  0.26293686594E+02  0.26293686594E+02  0.00000000000E+00 0.  1.
         13   -1    0    0    0    0 -0.00000000000E+00 -0.00000000000E+00 -0.10000000000E+04  0.10000000000E+04  0.00000000000E+00 0.  1.
    9000005    2    1    2  501    0  0.92872578716E+01 -0.85792673999E+01 -0.95922250030E+03  0.10070677190E+04  0.30645999507E+03 0.  0.
         13    1    3    3    0    0  0.94286389689E+02  0.11148948260E+03 -0.62623500933E+03  0.64303197037E+03  0.00000000000E+00 0.  1.
          3    1    3    3  501    0 -0.84999131818E+02 -0.12006875000E+03 -0.33298749097E+03  0.36403574863E+03  0.00000000000E+00 0.  1.
         21    1    1    2  502  501 -0.92872578716E+01  0.85792673999E+01 -0.14483813107E+02  0.19225967596E+02  0.00000000000E+00 0.  1.
<mgrwt>
<rscale>  1 0.30000000E+03</rscale>
<asrwt>0</asrwt>
<pdfrwt beam="1">  1        1 0.95613607E-01 0.30000000E+03</pdfrwt>
<pdfrwt beam="2">0</pdfrwt>
<totfact> 0.36530590E+01</totfact>
</mgrwt>
</event>
<event>
 6    1  0.1901260E-004  0.3000000E+03  0.7818608E-02  0.1093470E+00
          1   -1    0    0  502    0  0.00000000000E+00  0.00000000000E+00  0.29714324817E+02  0.29714324817E+02  0.00000000000E+00 0.  1.
         13   -1    0    0    0    0 -0.00000000000E+00 -0.00000000000E+00 -0.10000000000E+04  0.10000000000E+04  0.00000000000E+00 0.  1.
    9000005    2    1    2  501    0 -0.22313403582E+02 -0.19937489765E+02 -0.93200740258E+03  0.98112813716E+03  0.30508889129E+03 0.  0.
         13    1    3    3    0    0 -0.67206544085E+02  0.35606347801E+02 -0.39376627395E+02  0.85644908527E+02  0.00000000000E+00 0.  1.
          3    1    3    3  501    0  0.44893140503E+02 -0.55543837566E+02 -0.89263077518E+03  0.89548322863E+03  0.00000000000E+00 0.  1.
         21    1    1    2  502  501  0.22313403582E+02  0.19937489765E+02 -0.38278272604E+02  0.48586187658E+02  0.00000000000E+00 0.  1.
<mgrwt>
<rscale>  1 0.30000000E+03</rscale>
<asrwt>0</asrwt>
<pdfrwt beam="1">  1        1 0.10805232E+00 0.30000000E+03</pdfrwt>
<pdfrwt beam="2">0</pdfrwt>
<totfact> 0.30519155E+01</totfact>
</mgrwt>
</event>
<event>
 6    1  0.1901260E-004  0.3000000E+03  0.7818608E-02  0.1093470E+00
          1   -1    0    0  502    0  0.00000000000E+00  0.00000000000E+00  0.23783812056E+02  0.23783812056E+02  0.00000000000E+00 0.  1.
         13   -1    0    0    0    0 -0.00000000000E+00 -0.00000000000E+00 -0.10000000000E+04  0.10000000000E+04  0.00000000000E+00 0.  1.
    9000005    2    1    2  501    0 -0.16473043325E+02  0.11706172861E+02 -0.91867884028E+03  0.96280068311E+03  0.28741250527E+03 0.  0.
         13    1    3    3    0    0  0.10939394511E+03  0.85391470071E+02 -0.52295159924E+03  0.54105185845E+03  0.00000000000E+00 0.  1.
          3    1    3    3  501    0 -0.12586698843E+03 -0.73685297210E+02 -0.39572724104E+03  0.42174882466E+03  0.00000000000E+00 0.  1.
         21    1    1    2  502  501  0.16473043325E+02 -0.11706172861E+02 -0.57537347667E+02  0.60983128946E+02  0.00000000000E+00 0. -1.
<mgrwt>
<rscale>  1 0.30000000E+03</rscale>
<asrwt>0</asrwt>
<pdfrwt beam="1">  1        1 0.86486772E-01 0.30000000E+03</pdfrwt>
<pdfrwt beam="2">0</pdfrwt>
<totfact> 0.42132897E+01</totfact>
</mgrwt>
</event>
<event>
 6    1  0.1901260E-004  0.3000000E+03  0.7818608E-02  0.1093470E+00
          1   -1    0    0  502    0  0.00000000000E+00  0.00000000000E+00  0.35939249884E+02  0.35939249884E+02  0.00000000000E+00 0.  1.
         13   -1    0    0    0    0 -0.00000000000E+00 -0.00000000000E+00 -0.10000000000E+04  0.10000000000E+04  0.00000000000E+00 0.  1.
    9000005    2    1    2  501    0  0.19779763950E+02  0.21797928665E+02 -0.94676405532E+03  0.10017988866E+04  0.32614788661E+03 0.  0.
         13    1    3    3    0    0 -0.64848631271E+02 -0.13206170059E+03 -0.34813070559E+03  0.37794262251E+03  0.00000000000E+00 0.  1.
          3    1    3    3  501    0  0.84628395221E+02  0.15385962926E+03 -0.59863334973E+03  0.62385626406E+03  0.00000000000E+00 0.  1.
         21    1    1    2  502  501 -0.19779763950E+02 -0.21797928665E+02 -0.17296694797E+02  0.34140363310E+02  0.00000000000E+00 0.  1.
<mgrwt>
<rscale>  1 0.30000000E+03</rscale>
<asrwt>0</asrwt>
<pdfrwt beam="1">  1        1 0.13068846E+00 0.30000000E+03</pdfrwt>
<pdfrwt beam="2">0</pdfrwt>
<totfact> 0.22683400E+01</totfact>
</mgrwt>
</event>
<event>
 6    1  0.1901260E-004  0.3000000E+03  0.7818608E-02  0.1093470E+00
          1   -1    0    0  502    0  0.00000000000E+00  0.00000000000E+00  0.27708478421E+02  0.27708478421E+02  0.00000000000E+00 0.  1.
         13   -1    0    0    0    0 -0.00000000000E+00 -0.00000000000E+00 -0.10000000000E+04  0.10000000000E+04  0.00000000000E+00 0.  1.
    9000005    2    1    2  501    0 -0.62529274660E+01 -0.75437483498E+01 -0.94688433245E+03  0.10004773840E+04  0.32290718437E+03 0.  0.
         13    1    3    3    0    0  0.32779255327E+02 -0.15653337390E+03 -0.36392474252E+03  0.39751527637E+03  0.00000000000E+00 0.  1.
          1    1    3    3  501    0 -0.39032182793E+02  0.14898962555E+03 -0.58295958992E+03  0.60296210768E+03  0.00000000000E+00 0.  1.
         21    1    1    2  502  501  0.62529274660E+01  0.75437483498E+01 -0.25407189133E+02  0.27231094372E+02  0.00000000000E+00 0.  1.
<mgrwt>
<rscale>  1 0.30000000E+03</rscale>
<asrwt>0</asrwt>
<pdfrwt beam="1">  1        1 0.10075832E+00 0.30000000E+03</pdfrwt>
<pdfrwt beam="2">0</pdfrwt>
<totfact> 0.33850535E+01</totfact>
</mgrwt>
</event>
<event>
 6    1  0.1901260E-004  0.3000000E+03  0.7818608E-02  0.1093470E+00
          1   -1    0    0  502    0  0.00000000000E+00  0.00000000000E+00  0.34225042306E+02  0.34225042306E+02  0.00000000000E+00 0.  1.
         13   -1    0    0    0    0 -0.00000000000E+00 -0.00000000000E+00 -0.10000000000E+04  0.10000000000E+04  0.00000000000E+00 0.  1.
    9000005    2    1    2  501    0  0.10535263403E+02 -0.19654787681E+02 -0.94250731166E+03  0.10019963935E+04  0.33938096226E+03 0.  0.
         13    1    3    3    0    0  0.71778115705E+02 -0.74434833397E+02 -0.90634220906E+03  0.91222192598E+03  0.00000000000E+00 0.  1.
          1    1    3    3  501    0 -0.61242852302E+02  0.54780045716E+02 -0.36165102597E+02  0.89774467487E+02  0.00000000000E+00 0.  1.
         21    1    1    2  502  501 -0.10535263403E+02  0.19654787681E+02 -0.23267646036E+02  0.32228648836E+02  0.00000000000E+00 0. -1.
<mgrwt>
<rscale>  1 0.30000000E+03</rscale>
<asrwt>0</asrwt>
<pdfrwt beam="1">  1        1 0.12445496E+00 0.30000000E+03</pdfrwt>
<pdfrwt beam="2">0</pdfrwt>
<totfact> 0.24544262E+01</totfact>
</mgrwt>
</event>
<event>
 6    1  0.1901260E-004  0.3000000E+03  0.7818608E-02  0.1093470E+00
          1   -1    0    0  502    0  0.00000000000E+00  0.00000000000E+00  0.46974003807E+02  0.46974003807E+02  0.00000000000E+00 0.  1.
         13   -1    0    0    0    0 -0.00000000000E+00 -0.00000000000E+00 -0.10000000000E+04  0.10000000000E+04  0.00000000000E+00 0.  1.
    9000005    2    1    2  501    0  0.54256301340E+01 -0.72745076815E+02 -0.84336073851E+03  0.91526313711E+03  0.34803446845E+03 0.  0.
         13    1    3    3    0    0  0.16608212880E+03 -0.41865192586E+02 -0.58416055790E+03  0.60875243347E+03  0.00000000000E+00 0.  1.
          1    1    3    3  501    0 -0.16065649867E+03 -0.30879884229E+02 -0.25920018062E+03  0.30651070364E+03  0.00000000000E+00 0.  1.
         21    1    1    2  502  501 -0.54256301340E+01  0.72745076815E+02 -0.10966525768E+03  0.13171086669E+03  0.00000000000E+00 0.  1.
<mgrwt>
<rscale>  1 0.30000000E+03</rscale>
<asrwt>0</asrwt>
<pdfrwt beam="1">  1        1 0.17081492E+00 0.30000000E+03</pdfrwt>
<pdfrwt beam="2">0</pdfrwt>
<totfact> 0.14156839E+01</totfact>
</mgrwt>
</event>
<event>
 6    1  0.1901260E-004  0.3000000E+03  0.7818608E-02  0.1093470E+00
          1   -1    0    0  502    0  0.00000000000E+00  0.00000000000E+00  0.24104270513E+02  0.24104270513E+02  0.00000000000E+00 0.  1.
         13   -1    0    0    0    0 -0.00000000000E+00 -0.00000000000E+00 -0.10000000000E+04  0.10000000000E+04  0.00000000000E+00 0.  1.
    9000005    2    1    2  501    0 -0.10212090639E+01 -0.99936512002E+01 -0.95314908178E+03  0.99923811049E+03  0.29980445865E+03 0.  0.
         13    1    3    3    0    0  0.66880157182E+02  0.68969645371E+02 -0.96103822671E+02  0.13588860195E+03  0.00000000000E+00 0.  1.
          1    1    3    3  501    0 -0.67901366245E+02 -0.78963296571E+02 -0.85704525911E+03  0.86334950854E+03  0.00000000000E+00 0.  1.
         21    1    1    2  502  501  0.10212090639E+01  0.99936512002E+01 -0.22746647710E+02  0.24866160023E+02  0.00000000000E+00 0.  1.
<mgrwt>
<rscale>  1 0.30000000E+03</rscale>
<asrwt>0</asrwt>
<pdfrwt beam="1">  1        1 0.87652078E-01 0.30000000E+03</pdfrwt>
<pdfrwt beam="2">0</pdfrwt>
<totfact> 0.41347484E+01</totfact>
</mgrwt>
</event>
<event>
 6    1  0.1901260E-004  0.3000000E+03  0.7818608E-02  0.1093470E+00
          3   -1    0    0  502    0  0.00000000000E+00  0.00000000000E+00  0.30744953983E+02  0.30744953983E+02  0.00000000000E+00 0.  1.
         13   -1    0    0    0    0 -0.00000000000E+00 -0.00000000000E+00 -0.10000000000E+04  0.10000000000E+04  0.00000000000E+00 0.  1.
    9000005    2    1    2  501    0  0.16642847375E+02  0.30605520500E+02 -0.92529738181E+03  0.97465610931E+03  0.30424596034E+03 0.  0.
         13    1    3    3    0    0  0.10156594470E+03  0.24843471227E+02 -0.99020497758E+02  0.14400659069E+03  0.00000000000E+00 0.  1.
          3    1    3    3  501    0 -0.84923097327E+02  0.57620492727E+01 -0.82627688405E+03  0.83064951862E+03  0.00000000000E+00 0.  1.
         21    1    1    2  502  501 -0.16642847375E+02 -0.30605520500E+02 -0.43957664208E+02  0.56088844670E+02  0.00000000000E+00 0. -1.
<mgrwt>
<rscale>  1 0.30000000E+03</rscale>
<asrwt>0</asrwt>
<pdfrwt beam="1">  1        3 0.11180007E+00 0.30000000E+03</pdfrwt>
<pdfrwt beam="2">0</pdfrwt>
<totfact> 0.28744778E+00</totfact>
</mgrwt>
</event>
<event>
 6    1  0.1901260E-004  0.3000000E+03  0.7818608E-02  0.1093470E+00
          1   -1    0    0  502    0  0.00000000000E+00  0.00000000000E+00  0.40914818881E+02  0.40914818881E+02  0.00000000000E+00 0.  1.
         13   -1    0    0    0    0 -0.00000000000E+00 -0.00000000000E+00 -0.10000000000E+04  0.10000000000E+04  0.00000000000E+00 0.  1.
    9000005    2    1    2  501    0 -0.25424136060E+01 -0.44455612494E+02 -0.93404506325E+03  0.98982888293E+03  0.32455858015E+03 0.  0.
         13    1    3    3    0    0  0.98813009590E+02 -0.30322773775E+02 -0.85312995953E+03  0.85936849449E+03  0.00000000000E+00 0.  1.
          3    1    3    3  501    0 -0.10135542320E+03 -0.14132838719E+02 -0.80915103723E+02  0.13046038844E+03  0.00000000000E+00 0.  1.
         21    1    1    2  502  501  0.25424136060E+01  0.44455612494E+02 -0.25040117865E+02  0.51085935949E+02  0.00000000000E+00 0.  1.
<mgrwt>
<rscale>  1 0.30000000E+03</rscale>
<asrwt>0</asrwt>
<pdfrwt beam="1">  1        1 0.14878147E+00 0.30000000E+03</pdfrwt>
<pdfrwt beam="2">0</pdfrwt>
<totfact> 0.18223541E+01</totfact>
</mgrwt>
</event>
<event>
 6    1  0.1901260E-004  0.3000000E+03  0.7818608E-02  0.1093470E+00
          3   -1    0    0  502    0  0.00000000000E+00  0.00000000000E+00  0.27440268449E+02  0.27440268449E+02  0.00000000000E+00 0.  1.
         13   -1    0    0    0    0 -0.00000000000E+00 -0.00000000000E+00 -0.10000000000E+04  0.10000000000E+04  0.00000000000E+00 0.  1.
    9000005    2    1    2  501    0 -0.77888561365E+01  0.62900176104E+01 -0.95965773184E+03  0.10111095551E+04  0.31827557173E+03 0.  0.
         13    1    3    3    0    0 -0.12381028586E+03 -0.88450837101E+02 -0.64376264847E+03  0.66150048000E+03  0.00000000000E+00 0.  1.
          1    1    3    3  501    0  0.11602142973E+03  0.94740854712E+02 -0.31589508337E+03  0.34960907512E+03  0.00000000000E+00 0.  1.
         21    1    1    2  502  501  0.77888561365E+01 -0.62900176104E+01 -0.12901999710E+02  0.16330713334E+02  0.00000000000E+00 0. -1.
<mgrwt>
<rscale>  1 0.30000000E+03</rscale>
<asrwt>0</asrwt>
<pdfrwt beam="1">  1        3 0.99783005E-01 0.30000000E+03</pdfrwt>
<pdfrwt beam="2">0</pdfrwt>
<totfact> 0.39394253E+00</totfact>
</mgrwt>
</event>
<event>
 6    1  0.1901260E-004  0.3000000E+03  0.7818608E-02  0.1093470E+00
          1   -1    0    0  502    0  0.00000000000E+00  0.00000000000E+00  0.29310100729E+02  0.29310100729E+02  0.00000000000E+00 0.  1.
         13   -1    0    0    0    0 -0.00000000000E+00 -0.00000000000E+00 -0.10000000000E+04  0.10000000000E+04  0.00000000000E+00 0.  1.
    9000005    2    1    2  501    0 -0.31864297556E+01 -0.10659613810E+02 -0.96490793579E+03  0.10167716876E+04  0.32039594181E+03 0.  0.
         13    1    3    3    0    0 -0.18417719263E+02 -0.16019032220E+03 -0.61825539158E+03  0.63893652339E+03  0.00000000000E+00 0.  1.
          1    1    3    3  501    0  0.15231289507E+02  0.14953070839E+03 -0.34665254421E+03  0.37783516425E+03  0.00000000000E+00 0.  1.
         21    1    1    2  502  501  0.31864297556E+01  0.10659613810E+02 -0.57819634815E+01  0.12538413092E+02  0.00000000000E+00 0. -1.
<mgrwt>
<rscale>  1 0.30000000E+03</rscale>
<asrwt>0</asrwt>
<pdfrwt beam="1">  1        1 0.10658241E+00 0.30000000E+03</pdfrwt>
<pdfrwt beam="2">0</pdfrwt>
<totfact> 0.31151129E+01</totfact>
</mgrwt>
</event>
<event>
 6    1  0.1901260E-004  0.3000000E+03  0.7818608E-02  0.1093470E+00
          1   -1    0    0  502    0  0.00000000000E+00  0.00000000000E+00  0.31297341857E+02  0.31297341857E+02  0.00000000000E+00 0.  1.
         13   -1    0    0    0    0 -0.00000000000E+00 -0.00000000000E+00 -0.10000000000E+04  0.10000000000E+04  0.00000000000E+00 0.  1.
    9000005    2    1    2  501    0 -0.44128044099E+01  0.10294529178E+02 -0.96788475311E+03  0.10200670639E+04  0.32188580186E+03 0.  0.
         13    1    3    3    0    0  0.30405167963E+01  0.11502636850E+03 -0.12204628986E+03  0.16773671948E+03  0.00000000000E+00 0.  1.
          3    1    3    3  501    0 -0.74533212062E+01 -0.10473183932E+03 -0.84583846324E+03  0.85233034445E+03  0.00000000000E+00 0.  1.
         21    1    1    2  502  501  0.44128044099E+01 -0.10294529178E+02 -0.81790503762E+00  0.11230277931E+02  0.00000000000E+00 0.  1.
<mgrwt>
<rscale>  1 0.30000000E+03</rscale>
<asrwt>0</asrwt>
<pdfrwt beam="1">  1        1 0.11380876E+00 0.30000000E+03</pdfrwt>
<pdfrwt beam="2">0</pdfrwt>
<totfact> 0.28212411E+01</totfact>
</mgrwt>
</event>
<event>
 6    1  0.1901260E-004  0.3000000E+03  0.7818608E-02  0.1093470E+00
          1   -1    0    0  502    0  0.00000000000E+00  0.00000000000E+00  0.34855730578E+02  0.34855730578E+02  0.00000000000E+00 0.  1.
         13   -1    0    0    0    0 -0.00000000000E+00 -0.00000000000E+00 -0.10000000000E+04  0.10000000000E+04  0.00000000000E+00 0.  1.
    9000005    2    1    2  501    0  0.99753513690E+01 -0.20312022668E+02 -0.95573880992E+03  0.10103496381E+04  0.32689085722E+03 0.  0.
         13    1    3    3    0    0  0.10946359337E+03 -0.47078803184E+01 -0.98858000554E+02  0.14757149686E+03  0.00000000000E+00 0.  1.
          1    1    3    3  501    0 -0.99488242005E+02 -0.15604142349E+02 -0.85688080937E+03  0.86277814125E+03  0.00000000000E+00 0.  1.
         21    1    1    2  502  501 -0.99753513690E+01  0.20312022668E+02 -0.94054595014E+01  0.24506092472E+02  0.00000000000E+00 0.  1.
<mgrwt>
<rscale>  1 0.30000000E+03</rscale>
<asrwt>0</asrwt>
<pdfrwt beam="1">  1        1 0.12674838E+00 0.30000000E+03</pdfrwt>
<pdfrwt beam="2">0</pdfrwt>
<totfact> 0.23837626E+01</totfact>
</mgrwt>
</event>
<event>
 6    1  0.1901260E-004  0.3000000E+03  0.7818608E-02  0.1093470E+00
          1   -1    0    0  502    0  0.00000000000E+00  0.00000000000E+00  0.26862850816E+02  0.26862850816E+02  0.00000000000E+00 0.  1.
         13   -1    0    0    0    0 -0.00000000000E+00 -0.00000000000E+00 -0.10000000000E+04  0.10000000000E+04  0.00000000000E+00 0.  1.
    9000005    2    1    2  501    0 -0.12166127024E+02 -0.17905254530E+01 -0.95023524150E+03  0.10008682744E+04  0.31406857190E+03 0.  0.
         13    1    3    3    0    0 -0.13019319829E+03 -0.36227066030E+02 -0.20484389861E+03  0.24540515886E+03  0.00000000000E+00 0.  1.
          1    1    3    3  501    0  0.11802707126E+03  0.34436540578E+02 -0.74539134289E+03  0.75546311553E+03  0.00000000000E+00 0.  1.
         21    1    1    2  502  501  0.12166127024E+02  0.17905254530E+01 -0.22901907681E+02  0.25994576427E+02  0.00000000000E+00 0. -1.
<mgrwt>
<rscale>  1 0.30000000E+03</rscale>
<asrwt>0</asrwt>
<pdfrwt beam="1">  1        1 0.97683300E-01 0.30000000E+03</pdfrwt>
<pdfrwt beam="2">0</pdfrwt>
<totfact> 0.35415923E+01</totfact>
</mgrwt>
</event>
<event>
 6    1  0.1901260E-004  0.3000000E+03  0.7818608E-02  0.1093470E+00
          1   -1    0    0  502    0  0.00000000000E+00  0.00000000000E+00  0.29488430842E+02  0.29488430842E+02  0.00000000000E+00 0.  1.
         13   -1    0    0    0    0 -0.00000000000E+00 -0.00000000000E+00 -0.10000000000E+04  0.10000000000E+04  0.00000000000E+00 0.  1.
    9000005    2    1    2  501    0 -0.15792326983E+02  0.55869358040E+00 -0.95028569966E+03  0.10038214184E+04  0.32305544317E+03 0.  0.
         13    1    3    3    0    0  0.11159758824E+03 -0.62472806220E+02 -0.18165870520E+03  0.22216380981E+03  0.00000000000E+00 0.  1.
          3    1    3    3  501    0 -0.12738991522E+03  0.63031499801E+02 -0.76862699446E+03  0.78165760860E+03  0.00000000000E+00 0.  1.
         21    1    1    2  502  501  0.15792326983E+02 -0.55869358040E+00 -0.20225869501E+02  0.25667012431E+02  0.00000000000E+00 0.  1.
<mgrwt>
<rscale>  1 0.30000000E+03</rscale>
<asrwt>0</asrwt>
<pdfrwt beam="1">  1        1 0.10723088E+00 0.30000000E+03</pdfrwt>
<pdfrwt beam="2">0</pdfrwt>
<totfact> 0.30870031E+01</totfact>
</mgrwt>
</event>
<event>
 6    1  0.1901260E-004  0.3000000E+03  0.7818608E-02  0.1093470E+00
          1   -1    0    0  502    0  0.00000000000E+00  0.00000000000E+00  0.27516084156E+02  0.27516084156E+02  0.00000000000E+00 0.  1.
         13   -1    0    0    0    0 -0.00000000000E+00 -0.00000000000E+00 -0.10000000000E+04  0.10000000000E+04  0.00000000000E+00 0.  1.
    9000005    2    1    2  501    0  0.32500995423E+01  0.29042209090E+02 -0.89689952147E+03  0.94647897088E+03  0.30089811837E+03 0.  0.
         13    1    3    3    0    0 -0.70860505733E+01  0.95064466431E+02 -0.86875195546E+03  0.87396648963E+03  0.00000000000E+00 0.  1.
          3    1    3    3  501    0  0.10336150116E+02 -0.66022257341E+02 -0.28147566015E+02  0.72512481245E+02  0.00000000000E+00 0.  1.
         21    1    1    2  502  501 -0.32500995423E+01 -0.29042209090E+02 -0.75584394372E+02  0.81037113278E+02  0.00000000000E+00 0.  1.
<mgrwt>
<rscale>  1 0.30000000E+03</rscale>
<asrwt>0</asrwt>
<pdfrwt beam="1">  1        1 0.10005870E+00 0.30000000E+03</pdfrwt>
<pdfrwt beam="2">0</pdfrwt>
<totfact> 0.34197593E+01</totfact>
</mgrwt>
</event>
<event>
 6    1  0.1901260E-004  0.3000000E+03  0.7818608E-02  0.1093470E+00
          3   -1    0    0  502    0  0.00000000000E+00  0.00000000000E+00  0.35192065394E+02  0.35192065394E+02  0.00000000000E+00 0.  1.
         13   -1    0    0    0    0 -0.00000000000E+00 -0.00000000000E+00 -0.10000000000E+04  0.10000000000E+04  0.00000000000E+00 0.  1.
    9000005    2    1    2  501    0 -0.19487504212E+02  0.99910336684E+01 -0.94854714480E+03  0.10079157596E+04  0.34010720209E+03 0.  0.
         13    1    3    3    0    0  0.66119232276E+02 -0.12411341690E+02 -0.13405436157E+02  0.68596647133E+02  0.00000000000E+00 0.  1.
          3    1    3    3  501    0 -0.85606736488E+02  0.22402375358E+02 -0.93514170864E+03  0.93931911244E+03  0.00000000000E+00 0.  1.
         21    1    1    2  502  501  0.19487504212E+02 -0.99910336684E+01 -0.16260789811E+02  0.27276305825E+02  0.00000000000E+00 0.  1.
<mgrwt>
<rscale>  1 0.30000000E+03</rscale>
<asrwt>0</asrwt>
<pdfrwt beam="1">  1        3 0.12797142E+00 0.30000000E+03</pdfrwt>
<pdfrwt beam="2">0</pdfrwt>
<totfact> 0.18686397E+00</totfact>
</mgrwt>
</event>
<event>
 6    1  0.1901260E-004  0.3000000E+03  0.7818608E-02  0.1093470E+00
          1   -1    0    0  502    0  0.00000000000E+00  0.00000000000E+00  0.33591006488E+02  0.33591006488E+02  0.00000000000E+00 0.  1.
         13   -1    0    0    0    0 -0.00000000000E+00 -0.00000000000E+00 -0.10000000000E+04  0.10000000000E+04  0.00000000000E+00 0.  1.
    9000005    2    1    2  501    0  0.17229452129E+02  0.11217428650E+02 -0.95779376135E+03  0.10112995967E+04  0.32393718562E+03 0.  0.
         13    1    3    3    0    0  0.66421584437E+02  0.81010200612E+02 -0.86566024867E+02  0.13589759433E+03  0.00000000000E+00 0.  1.
          1    1    3    3  501    0 -0.49192132308E+02 -0.69792771962E+02 -0.87122773649E+03  0.87540200235E+03  0.00000000000E+00 0.  1.
         21    1    1    2  502  501 -0.17229452129E+02 -0.11217428650E+02 -0.86152321594E+01  0.22291409811E+02  0.00000000000E+00 0.  1.
<mgrwt>
<rscale>  1 0.30000000E+03</rscale>
<asrwt>0</asrwt>
<pdfrwt beam="1">  1        1 0.12214937E+00 0.30000000E+03</pdfrwt>
<pdfrwt beam="2">0</pdfrwt>
<totfact> 0.25281913E+01</totfact>
</mgrwt>
</event>
<event>
 6    1  0.1901260E-004  0.3000000E+03  0.7818608E-02  0.1093470E+00
          1   -1    0    0  502    0  0.00000000000E+00  0.00000000000E+00  0.38956443957E+02  0.38956443957E+02  0.00000000000E+00 0.  1.
         13   -1    0    0    0    0 -0.00000000000E+00 -0.00000000000E+00 -0.10000000000E+04  0.10000000000E+04  0.00000000000E+00 0.  1.
    9000005    2    1    2  501    0  0.13041827669E+02 -0.15542812834E+02 -0.96496483767E+03  0.10182913829E+04  0.32457438933E+03 0.  0.
         13    1    3    3    0    0 -0.49244514524E+02  0.51694768534E+02 -0.27739868442E+02  0.76595506433E+02  0.00000000000E+00 0.  1.
          3    1    3    3  501    0  0.62286342193E+02 -0.67237581368E+02 -0.93722496923E+03  0.94169587645E+03  0.00000000000E+00 0.  1.
         21    1    1    2  502  501 -0.13041827669E+02  0.15542812834E+02  0.39212816275E+01  0.20665061077E+02  0.00000000000E+00 0.  1.
<mgrwt>
<rscale>  1 0.30000000E+03</rscale>
<asrwt>0</asrwt>
<pdfrwt beam="1">  1        1 0.14166009E+00 0.30000000E+03</pdfrwt>
<pdfrwt beam="2">0</pdfrwt>
<totfact> 0.19831816E+01</totfact>
</mgrwt>
</event>
<event>
 6    1  0.1901260E-004  0.3000000E+03  0.7818608E-02  0.1093470E+00
          1   -1    0    0  502    0  0.00000000000E+00  0.00000000000E+00  0.53414367800E+02  0.53414367800E+02  0.00000000000E+00 0.  1.
         13   -1    0    0    0    0 -0.00000000000E+00 -0.00000000000E+00 -0.10000000000E+04  0.10000000000E+04  0.00000000000E+00 0.  1.
    9000005    2    1    2  501    0 -0.32572394904E+02  0.16999535481E+02 -0.95718329245E+03  0.10151749180E+04  0.33619981220E+03 0.  0.
         13    1    3    3    0    0 -0.84625694033E+02 -0.70741647935E+01 -0.95396158591E+03  0.95773391883E+03  0.00000000000E+00 0.  1.
          1    1    3    3  501    0  0.52053299130E+02  0.24073700274E+02 -0.32217065451E+01  0.57440999193E+02  0.00000000000E+00 0.  1.
         21    1    1    2  502  501  0.32572394904E+02 -0.16999535481E+02  0.10597660250E+02  0.38239449775E+02  0.00000000000E+00 0. -1.
<mgrwt>
<rscale>  1 0.30000000E+03</rscale>
<asrwt>0</asrwt>
<pdfrwt beam="1">  1        1 0.19423447E+00 0.30000000E+03</pdfrwt>
<pdfrwt beam="2">0</pdfrwt>
<totfact> 0.10912219E+01</totfact>
</mgrwt>
</event>
<event>
 6    1  0.1901260E-004  0.3000000E+03  0.7818608E-02  0.1093470E+00
          1   -1    0    0  502    0  0.00000000000E+00  0.00000000000E+00  0.34173605788E+02  0.34173605788E+02  0.00000000000E+00 0.  1.
         13   -1    0    0    0    0 -0.00000000000E+00 -0.00000000000E+00 -0.10000000000E+04  0.10000000000E+04  0.00000000000E+00 0.  1.
    9000005    2    1    2  501    0 -0.96574457557E+01  0.23707002831E+02 -0.94480820637E+03  0.10010518235E+04  0.32982861954E+03 0.  0.
         13    1    3    3    0    0 -0.22230397829E+02  0.11536630406E+03 -0.88067956919E+03  0.88848189531E+03  0.00000000000E+00 0.  1.
          3    1    3    3  501    0  0.12572952073E+02 -0.91659301233E+02 -0.64128637174E+02  0.11256992819E+03  0.00000000000E+00 0.  1.
         21    1    1    2  502  501  0.96574457557E+01 -0.23707002831E+02 -0.21018187844E+02  0.33121782289E+02  0.00000000000E+00 0.  1.
<mgrwt>
<rscale>  1 0.30000000E+03</rscale>
<asrwt>0</asrwt>
<pdfrwt beam="1">  1        1 0.12426792E+00 0.30000000E+03</pdfrwt>
<pdfrwt beam="2">0</pdfrwt>
<totfact> 0.24603057E+01</totfact>
</mgrwt>
</event>
<event>
 6    1  0.1901260E-004  0.3000000E+03  0.7818608E-02  0.1093470E+00
          1   -1    0    0  502    0  0.00000000000E+00  0.00000000000E+00  0.38603815069E+02  0.38603815069E+02  0.00000000000E+00 0.  1.
         13   -1    0    0    0    0 -0.00000000000E+00 -0.00000000000E+00 -0.10000000000E+04  0.10000000000E+04  0.00000000000E+00 0.  1.
    9000005    2    1    2  501    0 -0.86346081672E+01 -0.14266123871E+02 -0.96679885131E+03  0.10210747663E+04  0.32804813768E+03 0.  0.
         13    1    3    3    0    0  0.17584379769E+02 -0.16942088422E+03 -0.46717571693E+03  0.49725827988E+03  0.00000000000E+00 0.  1.
          1    1    3    3  501    0 -0.26218987937E+02  0.15515476035E+03 -0.49962313437E+03  0.52381648637E+03  0.00000000000E+00 0.  1.
         21    1    1    2  502  501  0.86346081672E+01  0.14266123871E+02  0.54026663770E+01  0.17529048819E+02  0.00000000000E+00 0.  1.
<mgrwt>
<rscale>  1 0.30000000E+03</rscale>
<asrwt>0</asrwt>
<pdfrwt beam="1">  1        1 0.14037781E+00 0.30000000E+03</pdfrwt>
<pdfrwt beam="2">0</pdfrwt>
<totfact> 0.20140208E+01</totfact>
</mgrwt>
</event>
<event>
 6    1  0.1901260E-004  0.3000000E+03  0.7818608E-02  0.1093470E+00
          1   -1    0    0  502    0  0.00000000000E+00  0.00000000000E+00  0.47404372875E+02  0.47404372875E+02  0.00000000000E+00 0.  1.
         13   -1    0    0    0    0 -0.00000000000E+00 -0.00000000000E+00 -0.10000000000E+04  0.10000000000E+04  0.00000000000E+00 0.  1.
    9000005    2    1    2  501    0 -0.72517923817E+01 -0.14979065293E+02 -0.97122446940E+03  0.10224244879E+04  0.31905783575E+03 0.  0.
         13    1    3    3    0    0  0.10084271230E+03  0.11164028968E+03 -0.39685033207E+03  0.42440899256E+03  0.00000000000E+00 0.  1.
          1    1    3    3  501    0 -0.10809450468E+03 -0.12661935498E+03 -0.57437413733E+03  0.59801549531E+03  0.00000000000E+00 0.  1.
         21    1    1    2  502  501  0.72517923817E+01  0.14979065293E+02  0.18628842280E+02  0.24979884997E+02  0.00000000000E+00 0. -1.
<mgrwt>
<rscale>  1 0.30000000E+03</rscale>
<asrwt>0</asrwt>
<pdfrwt beam="1">  1        1 0.17237990E+00 0.30000000E+03</pdfrwt>
<pdfrwt beam="2">0</pdfrwt>
<totfact> 0.13910224E+01</totfact>
</mgrwt>
</event>
<event>
 6    1  0.1901260E-004  0.3000000E+03  0.7818608E-02  0.1093470E+00
          1   -1    0    0  502    0  0.00000000000E+00  0.00000000000E+00  0.53559248455E+02  0.53559248455E+02  0.00000000000E+00 0.  1.
         13   -1    0    0    0    0 -0.00000000000E+00 -0.00000000000E+00 -0.10000000000E+04  0.10000000000E+04  0.00000000000E+00 0.  1.
    9000005    2    1    2  501    0 -0.22134275162E+02  0.98901941466E+02 -0.54788358768E+03  0.64231803818E+03  0.31956926692E+03 0.  0.
         13    1    3    3    0    0 -0.12966614401E+03  0.16034909556E+03 -0.39476271065E+03  0.44537932043E+03  0.00000000000E+00 0.  1.
          3    1    3    3  501    0  0.10753186885E+03 -0.61447154096E+02 -0.15312087703E+03  0.19693871775E+03  0.00000000000E+00 0.  1.
         21    1    1    2  502  501  0.22134275162E+02 -0.98901941466E+02 -0.39855716386E+03  0.41124121028E+03  0.00000000000E+00 0. -1.
<mgrwt>
<rscale>  1 0.30000000E+03</rscale>
<asrwt>0</asrwt>
<pdfrwt beam="1">  1        1 0.19476131E+00 0.30000000E+03</pdfrwt>
<pdfrwt beam="2">0</pdfrwt>
<totfact> 0.10849147E+01</totfact>
</mgrwt>
</event>
<event>
 6    1  0.1901260E-004  0.3000000E+03  0.7818608E-02  0.1093470E+00
          1   -1    0    0  502    0  0.00000000000E+00  0.00000000000E+00  0.27718043865E+02  0.27718043865E+02  0.00000000000E+00 0.  1.
         13   -1    0    0    0    0 -0.00000000000E+00 -0.00000000000E+00 -0.10000000000E+04  0.10000000000E+04  0.00000000000E+00 0.  1.
    9000005    2    1    2  501    0 -0.88675943600E+01  0.64856478020E+01 -0.95037048402E+03  0.10032066084E+04  0.32108993200E+03 0.  0.
         13    1    3    3    0    0 -0.22093740319E+02  0.36049358259E+02  0.90506991926E+01  0.43238926305E+02  0.00000000000E+00 0.  1.
          3    1    3    3  501    0  0.13226145959E+02 -0.29563710457E+02 -0.95942118322E+03  0.95996768212E+03  0.00000000000E+00 0.  1.
         21    1    1    2  502  501  0.88675943600E+01 -0.64856478020E+01 -0.21911472112E+02  0.24511435438E+02  0.00000000000E+00 0.  1.
<mgrwt>
<rscale>  1 0.30000000E+03</rscale>
<asrwt>0</asrwt>
<pdfrwt beam="1">  1        1 0.10079310E+00 0.30000000E+03</pdfrwt>
<pdfrwt beam="2">0</pdfrwt>
<totfact> 0.33833416E+01</totfact>
</mgrwt>
</event>
<event>
 6    1  0.1901260E-004  0.3000000E+03  0.7818608E-02  0.1093470E+00
          1   -1    0    0  502    0  0.00000000000E+00  0.00000000000E+00  0.64804829420E+02  0.64804829420E+02  0.00000000000E+00 0.  1.
         13   -1    0    0    0    0 -0.00000000000E+00 -0.00000000000E+00 -0.10000000000E+04  0.10000000000E+04  0.00000000000E+00 0.  1.
    9000005    2    1    2  501    0  0.27827768356E+02  0.11245890644E+02 -0.96822683199E+03  0.10201736138E+04  0.31998460815E+03 0.  0.
         13    1    3    3    0    0 -0.13210469376E+02  0.13631180600E+03 -0.77092748182E+03  0.78299719487E+03  0.00000000000E+00 0.  1.
          3    1    3    3  501    0  0.41038237732E+02 -0.12506591535E+03 -0.19729935017E+03  0.23717641897E+03  0.00000000000E+00 0.  1.
         21    1    1    2  502  501 -0.27827768356E+02 -0.11245890644E+02  0.33031661410E+02  0.44631215573E+02  0.00000000000E+00 0.  1.
<mgrwt>
<rscale>  1 0.30000000E+03</rscale>
<asrwt>0</asrwt>
<pdfrwt beam="1">  1        1 0.23565442E+00 0.30000000E+03</pdfrwt>
<pdfrwt beam="2">0</pdfrwt>
<totfact> 0.69629075E+00</totfact>
</mgrwt>
</event>
<event>
 6    1  0.1901260E-004  0.3000000E+03  0.7818608E-02  0.1093470E+00
          3   -1    0    0  502    0  0.00000000000E+00  0.00000000000E+00  0.33113227625E+02  0.33113227625E+02  0.00000000000E+00 0.  1.
         13   -1    0    0    0    0 -0.00000000000E+00 -0.00000000000E+00 -0.10000000000E+04  0.10000000000E+04  0.00000000000E+00 0.  1.
    9000005    2    1    2  501    0 -0.22078705514E+02  0.17476915261E+02 -0.88995156687E+03  0.95118681155E+03  0.33458877342E+03 0.  0.
         13    1    3    3    0    0 -0.69029363662E+02  0.72223617137E+02 -0.87087198160E+03  0.87658388774E+03  0.00000000000E+00 0.  1.
          3    1    3    3  501    0  0.46950658148E+02 -0.54746701875E+02 -0.19079585271E+02  0.74602923809E+02  0.00000000000E+00 0.  1.
         21    1    1    2  502  501  0.22078705514E+02 -0.17476915261E+02 -0.76935205505E+02  0.81926416072E+02  0.00000000000E+00 0.  1.
<mgrwt>
<rscale>  1 0.30000000E+03</rscale>
<asrwt>0</asrwt>
<pdfrwt beam="1">  1        3 0.12041199E+00 0.30000000E+03</pdfrwt>
<pdfrwt beam="2">0</pdfrwt>
<totfact> 0.22876831E+00</totfact>
</mgrwt>
</event>
<event>
 6    1  0.1901260E-004  0.3000000E+03  0.7818608E-02  0.1093470E+00
          1   -1    0    0  502    0  0.00000000000E+00  0.00000000000E+00  0.27505977534E+02  0.27505977534E+02  0.00000000000E+00 0.  1.
         13   -1    0    0    0    0 -0.00000000000E+00 -0.00000000000E+00 -0.10000000000E+04  0.10000000000E+04  0.00000000000E+00 0.  1.
    9000005    2    1    2  501    0 -0.59201759547E+01 -0.69206024317E+01 -0.95154943595E+03  0.10046669993E+04  0.32222120857E+03 0.  0.
         13    1    3    3    0    0 -0.14181746944E+03 -0.16087637202E+02 -0.23236789631E+03  0.27270101934E+03  0.00000000000E+00 0.  1.
          1    1    3    3  501    0  0.13589729349E+03  0.91670347705E+01 -0.71918153964E+03  0.73196597999E+03  0.00000000000E+00 0.  1.
         21    1    1    2  502  501  0.59201759547E+01  0.69206024317E+01 -0.20944586512E+02  0.22838978206E+02  0.00000000000E+00 0.  1.
<mgrwt>
<rscale>  1 0.30000000E+03</rscale>
<asrwt>0</asrwt>
<pdfrwt beam="1">  1        1 0.10002195E+00 0.30000000E+03</pdfrwt>
<pdfrwt beam="2">0</pdfrwt>
<totfact> 0.34215969E+01</totfact>
</mgrwt>
</event>
<event>
 6    1  0.1901260E-004  0.3000000E+03  0.7818608E-02  0.1093470E+00
          1   -1    0    0  502    0  0.00000000000E+00  0.00000000000E+00  0.48512899458E+02  0.48512899458E+02  0.00000000000E+00 0.  1.
         13   -1    0    0    0    0 -0.00000000000E+00 -0.00000000000E+00 -0.10000000000E+04  0.10000000000E+04  0.00000000000E+00 0.  1.
    9000005    2    1    2  501    0  0.12782302430E+02 -0.10332867693E+02 -0.97042566169E+03  0.10234365259E+04  0.32469401345E+03 0.  0.
         13    1    3    3    0    0 -0.87785226533E+01 -0.11280549674E+02 -0.99247795437E+03  0.99258087992E+03  0.00000000000E+00 0.  1.
          3    1    3    3  501    0  0.21560825083E+02  0.94768198106E+00  0.22052292683E+02  0.30855646031E+02  0.00000000000E+00 0.  1.
         21    1    1    2  502  501 -0.12782302430E+02  0.10332867693E+02  0.18938561147E+02  0.25076373511E+02  0.00000000000E+00 0.  1.
<mgrwt>
<rscale>  1 0.30000000E+03</rscale>
<asrwt>0</asrwt>
<pdfrwt beam="1">  1        1 0.17641092E+00 0.30000000E+03</pdfrwt>
<pdfrwt beam="2">0</pdfrwt>
<totfact> 0.13296378E+01</totfact>
</mgrwt>
</event>
<event>
 6    1  0.1901260E-004  0.3000000E+03  0.7818608E-02  0.1093470E+00
          1   -1    0    0  502    0  0.00000000000E+00  0.00000000000E+00  0.30036221045E+02  0.30036221045E+02  0.00000000000E+00 0.  1.
         13   -1    0    0    0    0 -0.00000000000E+00 -0.00000000000E+00 -0.10000000000E+04  0.10000000000E+04  0.00000000000E+00 0.  1.
    9000005    2    1    2  501    0 -0.99988196037E+01  0.75971780927E+01 -0.96828652726E+03  0.10173670979E+04  0.31192838836E+03 0.  0.
         13    1    3    3    0    0  0.80186690742E+02  0.43577316849E+02 -0.73098450282E+02  0.11692848819E+03  0.00000000000E+00 0.  1.
          1    1    3    3  501    0 -0.90185510346E+02 -0.35980138757E+02 -0.89518807698E+03  0.90043860970E+03  0.00000000000E+00 0.  1.
         21    1    1    2  502  501  0.99988196037E+01 -0.75971780927E+01 -0.16772516905E+01  0.12669123161E+02  0.00000000000E+00 0.  1.
<mgrwt>
<rscale>  1 0.30000000E+03</rscale>
<asrwt>0</asrwt>
<pdfrwt beam="1">  1        1 0.10922285E+00 0.30000000E+03</pdfrwt>
<pdfrwt beam="2">0</pdfrwt>
<totfact> 0.30028936E+01</totfact>
</mgrwt>
</event>
<event>
 6    1  0.1901260E-004  0.3000000E+03  0.7818608E-02  0.1093470E+00
          1   -1    0    0  502    0  0.00000000000E+00  0.00000000000E+00  0.66549459848E+02  0.66549459848E+02  0.00000000000E+00 0.  1.
         13   -1    0    0    0    0 -0.00000000000E+00 -0.00000000000E+00 -0.10000000000E+04  0.10000000000E+04  0.00000000000E+00 0.  1.
    9000005    2    1    2  501    0 -0.11303150015E+03  0.70505813054E+02 -0.81295341591E+03  0.88691998940E+03  0.32861317908E+03 0.  0.
         13    1    3    3    0    0 -0.51584363187E+02  0.10828455915E+01  0.15047225231E+02  0.53745121334E+02  0.00000000000E+00 0.  1.
          1    1    3    3  501    0 -0.61447136966E+02  0.69422967463E+02 -0.82800064114E+03  0.83317486807E+03  0.00000000000E+00 0.  1.
         21    1    1    2  502  501  0.11303150015E+03 -0.70505813054E+02 -0.12049712424E+03  0.17962947044E+03  0.00000000000E+00 0. -1.
<mgrwt>
<rscale>  1 0.30000000E+03</rscale>
<asrwt>0</asrwt>
<pdfrwt beam="1">  1        1 0.24199855E+00 0.30000000E+03</pdfrwt>
<pdfrwt beam="2">0</pdfrwt>
<totfact> 0.65020760E+00</totfact>
</mgrwt>
</event>
<event>
 6    1  0.1901260E-004  0.3000000E+03  0.7818608E-02  0.1093470E+00
          1   -1    0    0  502    0  0.00000000000E+00  0.00000000000E+00  0.34534413628E+02  0.34534413628E+02  0.00000000000E+00 0.  1.
         13   -1    0    0    0    0 -0.00000000000E+00 -0.00000000000E+00 -0.10000000000E+04  0.10000000000E+04  0.00000000000E+00 0.  1.
    9000005    2    1    2  501    0  0.71812949336E+01  0.11079366245E+02 -0.96773553031E+03  0.10211375484E+04  0.32563094557E+03 0.  0.
         13    1    3    3    0    0  0.41163035371E+02 -0.14463988483E+03 -0.62974858333E+03  0.64745530345E+03  0.00000000000E+00 0.  1.
          1    1    3    3  501    0 -0.33981740437E+02  0.15571925107E+03 -0.33798694698E+03  0.37368224492E+03  0.00000000000E+00 0.  1.
         21    1    1    2  502  501 -0.71812949336E+01 -0.11079366245E+02  0.22699439359E+01  0.13396865260E+02  0.00000000000E+00 0.  1.
<mgrwt>
<rscale>  1 0.30000000E+03</rscale>
<asrwt>0</asrwt>
<pdfrwt beam="1">  1        1 0.12557995E+00 0.30000000E+03</pdfrwt>
<pdfrwt beam="2">0</pdfrwt>
<totfact> 0.24194357E+01</totfact>
</mgrwt>
</event>
<event>
 6    1  0.1901260E-004  0.3000000E+03  0.7818608E-02  0.1093470E+00
          1   -1    0    0  502    0  0.00000000000E+00  0.00000000000E+00  0.29677302461E+02  0.29677302461E+02  0.00000000000E+00 0.  1.
         13   -1    0    0    0    0 -0.00000000000E+00 -0.00000000000E+00 -0.10000000000E+04  0.10000000000E+04  0.00000000000E+00 0.  1.
    9000005    2    1    2  501    0 -0.73431076649E+01 -0.14235445274E+02 -0.96092923055E+03  0.10111083403E+04  0.31416320701E+03 0.  0.
         13    1    3    3    0    0 -0.63706173985E+02  0.47767830569E+02 -0.90910299339E+03  0.91258341802E+03  0.00000000000E+00 0.  1.
          3    1    3    3  501    0  0.56363066320E+02 -0.62003275843E+02 -0.51826237158E+02  0.98524922320E+02  0.00000000000E+00 0.  1.
         21    1    1    2  502  501  0.73431076649E+01  0.14235445274E+02 -0.93934669877E+01  0.18568962124E+02  0.00000000000E+00 0.  1.
<mgrwt>
<rscale>  1 0.30000000E+03</rscale>
<asrwt>0</asrwt>
<pdfrwt beam="1">  1        1 0.10791769E+00 0.30000000E+03</pdfrwt>
<pdfrwt beam="2">0</pdfrwt>
<totfact> 0.30576268E+01</totfact>
</mgrwt>
</event>
<event>
 6    1  0.1901260E-004  0.3000000E+03  0.7818608E-02  0.1093470E+00
          1   -1    0    0  502    0  0.00000000000E+00  0.00000000000E+00  0.65275787159E+02  0.65275787159E+02  0.00000000000E+00 0.  1.
         13   -1    0    0    0    0 -0.00000000000E+00 -0.00000000000E+00 -0.10000000000E+04  0.10000000000E+04  0.00000000000E+00 0.  1.
    9000005    2    1    2  501    0 -0.24912199653E+02  0.11707091047E+02 -0.97264481992E+03  0.10184180651E+04  0.30063222717E+03 0.  0.
         13    1    3    3    0    0  0.76231152891E+01  0.62690305242E+02 -0.23553127194E+02  0.67401306060E+02  0.00000000000E+00 0.  1.
          3    1    3    3  501    0 -0.32535314942E+02 -0.50983214194E+02 -0.94909169272E+03  0.95101675907E+03  0.00000000000E+00 0.  1.
         21    1    1    2  502  501  0.24912199653E+02 -0.11707091047E+02  0.37920607075E+02  0.46857722024E+02  0.00000000000E+00 0.  1.
<mgrwt>
<rscale>  1 0.30000000E+03</rscale>
<asrwt>0</asrwt>
<pdfrwt beam="1">  1        1 0.23736700E+00 0.30000000E+03</pdfrwt>
<pdfrwt beam="2">0</pdfrwt>
<totfact> 0.68354114E+00</totfact>
</mgrwt>
</event>
<event>
 6    1  0.1901260E-004  0.3000000E+03  0.7818608E-02  0.1093470E+00
          3   -1    0    0  502    0  0.00000000000E+00  0.00000000000E+00  0.39048269261E+02  0.39048269261E+02  0.00000000000E+00 0.  1.
         13   -1    0    0    0    0 -0.00000000000E+00 -0.00000000000E+00 -0.10000000000E+04  0.10000000000E+04  0.00000000000E+00 0.  1.
    9000005    2    1    2  501    0 -0.28142513057E+02  0.89326597896E+01 -0.94602109050E+03  0.10059617543E+04  0.34078050716E+03 0.  0.
         13    1    3    3    0    0 -0.25869586148E+02 -0.16484273477E+03 -0.50902609979E+03  0.53567707900E+03  0.00000000000E+00 0.  1.
          3    1    3    3  501    0 -0.22729269091E+01  0.17377539456E+03 -0.43699499071E+03  0.47028467534E+03  0.00000000000E+00 0.  1.
         21    1    1    2  502  501  0.28142513057E+02 -0.89326597896E+01 -0.14930640239E+02  0.33086514927E+02  0.00000000000E+00 0.  1.
<mgrwt>
<rscale>  1 0.30000000E+03</rscale>
<asrwt>0</asrwt>
<pdfrwt beam="1">  1        3 0.14199401E+00 0.30000000E+03</pdfrwt>
<pdfrwt beam="2">0</pdfrwt>
<totfact> 0.12634916E+00</totfact>
</mgrwt>
</event>
<event>
 6    1  0.1901260E-004  0.3000000E+03  0.7818608E-02  0.1093470E+00
          1   -1    0    0  502    0  0.00000000000E+00  0.00000000000E+00  0.31116118002E+02  0.31116118002E+02  0.00000000000E+00 0.  1.
         13   -1    0    0    0    0 -0.00000000000E+00 -0.00000000000E+00 -0.10000000000E+04  0.10000000000E+04  0.00000000000E+00 0.  1.
    9000005    2    1    2  501    0  0.12757967479E+02  0.32868358612E+01 -0.96304539358E+03  0.10167058102E+04  0.32566962610E+03 0.  0.
         13    1    3    3    0    0 -0.61075922686E+02  0.10877284460E+03 -0.79640958210E+03  0.80612035238E+03  0.00000000000E+00 0.  1.
          1    1    3    3  501    0  0.73833890165E+02 -0.10548600874E+03 -0.16663581147E+03  0.21058545781E+03  0.00000000000E+00 0.  1.
         21    1    1    2  502  501 -0.12757967479E+02 -0.32868358612E+01 -0.58384884216E+01  0.14410307811E+02  0.00000000000E+00 0.  1.
<mgrwt>
<rscale>  1 0.30000000E+03</rscale>
<asrwt>0</asrwt>
<pdfrwt beam="1">  1        1 0.11314976E+00 0.30000000E+03</pdfrwt>
<pdfrwt beam="2">0</pdfrwt>
<totfact> 0.28463666E+01</totfact>
</mgrwt>
</event>
<event>
 6    1  0.1901260E-004  0.3000000E+03  0.7818608E-02  0.1093470E+00
          1   -1    0    0  502    0  0.00000000000E+00  0.00000000000E+00  0.45903557605E+02  0.45903557605E+02  0.00000000000E+00 0.  1.
         13   -1    0    0    0    0 -0.00000000000E+00 -0.00000000000E+00 -0.10000000000E+04  0.10000000000E+04  0.00000000000E+00 0.  1.
    9000005    2    1    2  501    0 -0.37912125137E+02  0.18181508408E+02 -0.94199450662E+03  0.10021502340E+04  0.33938701279E+03 0.  0.
         13    1    3    3    0    0 -0.66399619099E+02 -0.84720397163E+02 -0.86210416127E+03  0.86879804327E+03  0.00000000000E+00 0.  1.
          3    1    3    3  501    0  0.28487493962E+02  0.10290190557E+03 -0.79890345349E+02  0.13335219069E+03  0.00000000000E+00 0.  1.
         21    1    1    2  502  501  0.37912125137E+02 -0.18181508408E+02 -0.12101935778E+02  0.43753323644E+02  0.00000000000E+00 0.  1.
<mgrwt>
<rscale>  1 0.30000000E+03</rscale>
<asrwt>0</asrwt>
<pdfrwt beam="1">  1        1 0.16692238E+00 0.30000000E+03</pdfrwt>
<pdfrwt beam="2">0</pdfrwt>
<totfact> 0.14791838E+01</totfact>
</mgrwt>
</event>
<event>
 6    1  0.1901260E-004  0.3000000E+03  0.7818608E-02  0.1093470E+00
          1   -1    0    0  502    0  0.00000000000E+00  0.00000000000E+00  0.29148323415E+02  0.29148323415E+02  0.00000000000E+00 0.  1.
         13   -1    0    0    0    0 -0.00000000000E+00 -0.00000000000E+00 -0.10000000000E+04  0.10000000000E+04  0.00000000000E+00 0.  1.
    9000005    2    1    2  501    0  0.10952045867E+02 -0.59331341460E+00 -0.96148429544E+03  0.10147244835E+04  0.32418116483E+03 0.  0.
         13    1    3    3    0    0 -0.52105007227E+02  0.11963845303E+03 -0.76406713554E+03  0.77513023347E+03  0.00000000000E+00 0.  1.
          1    1    3    3  501    0  0.63057053094E+02 -0.12023176645E+03 -0.19741715989E+03  0.23959424999E+03  0.00000000000E+00 0.  1.
         21    1    1    2  502  501 -0.10952045867E+02  0.59331341460E+00 -0.93673811490E+01  0.14423839956E+02  0.00000000000E+00 0.  1.
<mgrwt>
<rscale>  1 0.30000000E+03</rscale>
<asrwt>0</asrwt>
<pdfrwt beam="1">  1        1 0.10599413E+00 0.30000000E+03</pdfrwt>
<pdfrwt beam="2">0</pdfrwt>
<totfact> 0.31409330E+01</totfact>
</mgrwt>
</event>
<event>
 6    1  0.1901260E-004  0.3000000E+03  0.7818608E-02  0.1093470E+00
          1   -1    0    0  502    0  0.00000000000E+00  0.00000000000E+00  0.32730501771E+02  0.32730501771E+02  0.00000000000E+00 0.  1.
         13   -1    0    0    0    0 -0.00000000000E+00 -0.00000000000E+00 -0.10000000000E+04  0.10000000000E+04  0.00000000000E+00 0.  1.
    9000005    2    1    2  501    0 -0.15170534618E+02 -0.25535871630E+01 -0.95590700263E+03  0.10136053290E+04  0.33675050012E+03 0.  0.
         13    1    3    3    0    0 -0.16209633983E+03 -0.36001430129E+02 -0.32509168770E+03  0.36504236982E+03  0.00000000000E+00 0.  1.
          3    1    3    3  501    0  0.14692580521E+03  0.33447842966E+02 -0.63081531494E+03  0.64856295916E+03  0.00000000000E+00 0.  1.
         21    1    1    2  502  501  0.15170534618E+02  0.25535871630E+01 -0.11362495594E+02  0.19125172787E+02  0.00000000000E+00 0.  1.
<mgrwt>
<rscale>  1 0.30000000E+03</rscale>
<asrwt>0</asrwt>
<pdfrwt beam="1">  1        1 0.11902026E+00 0.30000000E+03</pdfrwt>
<pdfrwt beam="2">0</pdfrwt>
<totfact> 0.26330477E+01</totfact>
</mgrwt>
</event>
<event>
 6    1  0.1901260E-004  0.3000000E+03  0.7818608E-02  0.1093470E+00
          3   -1    0    0  502    0  0.00000000000E+00  0.00000000000E+00  0.39839346156E+02  0.39839346156E+02  0.00000000000E+00 0.  1.
         13   -1    0    0    0    0 -0.00000000000E+00 -0.00000000000E+00 -0.10000000000E+04  0.10000000000E+04  0.00000000000E+00 0.  1.
    9000005    2    1    2  501    0 -0.14799006414E+02 -0.76282262031E+01 -0.96909210130E+03  0.10209456652E+04  0.32080110676E+03 0.  0.
         13    1    3    3    0    0  0.79339262200E+02 -0.79680112246E+02 -0.12324714756E+03  0.16683374418E+03  0.00000000000E+00 0.  1.
          3    1    3    3  501    0 -0.94138268614E+02  0.72051886043E+02 -0.84584495374E+03  0.85411192104E+03  0.00000000000E+00 0.  1.
         21    1    1    2  502  501  0.14799006414E+02  0.76282262031E+01  0.89314474532E+01  0.18893680940E+02  0.00000000000E+00 0.  1.
<mgrwt>
<rscale>  1 0.30000000E+03</rscale>
<asrwt>0</asrwt>
<pdfrwt beam="1">  1        3 0.14487066E+00 0.30000000E+03</pdfrwt>
<pdfrwt beam="2">0</pdfrwt>
<totfact> 0.11596685E+00</totfact>
</mgrwt>
</event>
<event>
 6    1  0.1901260E-004  0.3000000E+03  0.7818608E-02  0.1093470E+00
          1   -1    0    0  502    0  0.00000000000E+00  0.00000000000E+00  0.38215297484E+02  0.38215297484E+02  0.00000000000E+00 0.  1.
         13   -1    0    0    0    0 -0.00000000000E+00 -0.00000000000E+00 -0.10000000000E+04  0.10000000000E+04  0.00000000000E+00 0.  1.
    9000005    2    1    2  501    0 -0.13528233567E+02 -0.16681962715E+02 -0.96594266508E+03  0.10163386059E+04  0.31533732503E+03 0.  0.
         13    1    3    3    0    0 -0.23149458886E+02 -0.26080701609E+02  0.13064157037E+02  0.37239396373E+02  0.00000000000E+00 0.  1.
          1    1    3    3  501    0  0.96212253191E+01  0.93987388945E+01 -0.97900682212E+03  0.97909920949E+03  0.00000000000E+00 0.  1.
         21    1    1    2  502  501  0.13528233567E+02  0.16681962715E+02  0.41579625679E+01  0.21876691618E+02  0.00000000000E+00 0. -1.
<mgrwt>
<rscale>  1 0.30000000E+03</rscale>
<asrwt>0</asrwt>
<pdfrwt beam="1">  1        1 0.13896501E+00 0.30000000E+03</pdfrwt>
<pdfrwt beam="2">0</pdfrwt>
<totfact> 0.20487091E+01</totfact>
</mgrwt>
</event>
<event>
 6    1  0.1901260E-004  0.3000000E+03  0.7818608E-02  0.1093470E+00
          1   -1    0    0  502    0  0.00000000000E+00  0.00000000000E+00  0.56773290889E+02  0.56773290889E+02  0.00000000000E+00 0.  1.
         13   -1    0    0    0    0 -0.00000000000E+00 -0.00000000000E+00 -0.10000000000E+04  0.10000000000E+04  0.00000000000E+00 0.  1.
    9000005    2    1    2  501    0  0.81514297551E+01  0.18405381707E+02 -0.97056478930E+03  0.10228237031E+04  0.32212903236E+03 0.  0.
         13    1    3    3    0    0 -0.12472282726E+02  0.16110792779E+03 -0.34660997593E+03  0.38242619895E+03  0.00000000000E+00 0.  1.
          3    1    3    3  501    0  0.20623712481E+02 -0.14270254608E+03 -0.62395481338E+03  0.64039750414E+03  0.00000000000E+00 0.  1.
         21    1    1    2  502  501 -0.81514297551E+01 -0.18405381707E+02  0.27338080193E+02  0.33949587795E+02  0.00000000000E+00 0.  1.
<mgrwt>
<rscale>  1 0.30000000E+03</rscale>
<asrwt>0</asrwt>
<pdfrwt beam="1">  1        1 0.20644877E+00 0.30000000E+03</pdfrwt>
<pdfrwt beam="2">0</pdfrwt>
<totfact> 0.95468344E+00</totfact>
</mgrwt>
</event>
<event>
 6    1  0.1901260E-004  0.3000000E+03  0.7818608E-02  0.1093470E+00
          1   -1    0    0  502    0  0.00000000000E+00  0.00000000000E+00  0.43658031125E+02  0.43658031125E+02  0.00000000000E+00 0.  1.
         13   -1    0    0    0    0 -0.00000000000E+00 -0.00000000000E+00 -0.10000000000E+04  0.10000000000E+04  0.00000000000E+00 0.  1.
    9000005    2    1    2  501    0  0.12443056635E+02  0.97915777374E+01 -0.97015236299E+03  0.10226477565E+04  0.32305126817E+03 0.  0.
         13    1    3    3    0    0  0.93315917397E+02 -0.51565854639E+02 -0.98653072047E+02  0.14525607192E+03  0.00000000000E+00 0.  1.
          1    1    3    3  501    0 -0.80872860762E+02  0.61357432377E+02 -0.87149929094E+03  0.87739168461E+03  0.00000000000E+00 0.  1.
         21    1    1    2  502  501 -0.12443056635E+02 -0.97915777374E+01  0.13810394113E+02  0.21010274596E+02  0.00000000000E+00 0. -1.
<mgrwt>
<rscale>  1 0.30000000E+03</rscale>
<asrwt>0</asrwt>
<pdfrwt beam="1">  1        1 0.15875681E+00 0.30000000E+03</pdfrwt>
<pdfrwt beam="2">0</pdfrwt>
<totfact> 0.16232519E+01</totfact>
</mgrwt>
</event>
<event>
 6    1  0.1901260E-004  0.3000000E+03  0.7818608E-02  0.1093470E+00
          1   -1    0    0  502    0  0.00000000000E+00  0.00000000000E+00  0.25432634810E+02  0.25432634810E+02  0.00000000000E+00 0.  1.
         13   -1    0    0    0    0 -0.00000000000E+00 -0.00000000000E+00 -0.10000000000E+04  0.10000000000E+04  0.00000000000E+00 0.  1.
    9000005    2    1    2  501    0  0.12375566135E+02  0.74934292967E+01 -0.96133361820E+03  0.10058255397E+04  0.29548838333E+03 0.  0.
         13    1    3    3    0    0  0.19442570196E+02 -0.14298710264E+03 -0.50942969385E+03  0.52947326470E+03  0.00000000000E+00 0.  1.
          3    1    3    3  501    0 -0.70670040606E+01  0.15048053194E+03 -0.45190392435E+03  0.47635227498E+03  0.00000000000E+00 0.  1.
         21    1    1    2  502  501 -0.12375566135E+02 -0.74934292967E+01 -0.13233746989E+02  0.19607095123E+02  0.00000000000E+00 0. -1.
<mgrwt>
<rscale>  1 0.30000000E+03</rscale>
<asrwt>0</asrwt>
<pdfrwt beam="1">  1        1 0.92482503E-01 0.30000000E+03</pdfrwt>
<pdfrwt beam="2">0</pdfrwt>
<totfact> 0.38318930E+01</totfact>
</mgrwt>
</event>
<event>
 6    1  0.1901260E-004  0.3000000E+03  0.7818608E-02  0.1093470E+00
          1   -1    0    0  502    0  0.00000000000E+00  0.00000000000E+00  0.27787115097E+02  0.27787115097E+02  0.00000000000E+00 0.  1.
         13   -1    0    0    0    0 -0.00000000000E+00 -0.00000000000E+00 -0.10000000000E+04  0.10000000000E+04  0.00000000000E+00 0.  1.
    9000005    2    1    2  501    0 -0.11177133384E+02  0.61970719060E+01 -0.94985184292E+03  0.10020315679E+04  0.31888149466E+03 0.  0.
         13    1    3    3    0    0 -0.12135375898E+03  0.48233822305E+02 -0.17551243008E+03  0.21876436992E+03  0.00000000000E+00 0.  1.
          3    1    3    3  501    0  0.11017662560E+03 -0.42036750399E+02 -0.77433941284E+03  0.78326719802E+03  0.00000000000E+00 0.  1.
         21    1    1    2  502  501  0.11177133384E+02 -0.61970719060E+01 -0.22361041980E+02  0.25755547156E+02  0.00000000000E+00 0. -1.
<mgrwt>
<rscale>  1 0.30000000E+03</rscale>
<asrwt>0</asrwt>
<pdfrwt beam="1">  1        1 0.10104427E+00 0.30000000E+03</pdfrwt>
<pdfrwt beam="2">0</pdfrwt>
<totfact> 0.33710174E+01</totfact>
</mgrwt>
</event>
<event>
 6    1  0.1901260E-004  0.3000000E+03  0.7818608E-02  0.1093470E+00
          1   -1    0    0  502    0  0.00000000000E+00  0.00000000000E+00  0.73420715470E+02  0.73420715470E+02  0.00000000000E+00 0.  1.
         13   -1    0    0    0    0 -0.00000000000E+00 -0.00000000000E+00 -0.10000000000E+04  0.10000000000E+04  0.00000000000E+00 0.  1.
    9000005    2    1    2  501    0  0.69554610649E+02 -0.22717296738E+02 -0.94041657240E+03  0.99895334027E+03  0.32889288066E+03 0.  0.
         13    1    3    3    0    0 -0.10333000748E+03  0.78964521047E+02 -0.27951112621E+03  0.30828388817E+03  0.00000000000E+00 0.  1.
          3    1    3    3  501    0  0.17288461813E+03 -0.10168181779E+03 -0.66090544620E+03  0.69066945210E+03  0.00000000000E+00 0.  1.
         21    1    1    2  502  501 -0.69554610649E+02  0.22717296738E+02  0.13837287875E+02  0.74467375201E+02  0.00000000000E+00 0.  1.
<mgrwt>
<rscale>  1 0.30000000E+03</rscale>
<asrwt>0</asrwt>
<pdfrwt beam="1">  1        1 0.26698498E+00 0.30000000E+03</pdfrwt>
<pdfrwt beam="2">0</pdfrwt>
<totfact> 0.49675601E+00</totfact>
</mgrwt>
</event>
<event>
 6    1  0.1901260E-004  0.3000000E+03  0.7818608E-02  0.1093470E+00
          1   -1    0    0  502    0  0.00000000000E+00  0.00000000000E+00  0.78061928349E+02  0.78061928349E+02  0.00000000000E+00 0.  1.
         13   -1    0    0    0    0 -0.00000000000E+00 -0.00000000000E+00 -0.10000000000E+04  0.10000000000E+04  0.00000000000E+00 0.  1.
    9000005    2    1    2  501    0 -0.10114448504E+03  0.78063888326E+02 -0.80845960953E+03  0.90717735070E+03  0.39120279634E+03 0.  0.
         13    1    3    3    0    0 -0.23362629417E+03 -0.56376021690E+01 -0.61692675377E+03  0.65970572788E+03  0.00000000000E+00 0.  1.
          1    1    3    3  501    0  0.13248180913E+03  0.83701490495E+02 -0.19153285576E+03  0.24747162281E+03  0.00000000000E+00 0.  1.
         21    1    1    2  502  501  0.10114448504E+03 -0.78063888326E+02 -0.11347846212E+03  0.17088457765E+03  0.00000000000E+00 0. -1.
<mgrwt>
<rscale>  1 0.30000000E+03</rscale>
<asrwt>0</asrwt>
<pdfrwt beam="1">  1        1 0.28386216E+00 0.30000000E+03</pdfrwt>
<pdfrwt beam="2">0</pdfrwt>
<totfact> 0.41417049E+00</totfact>
</mgrwt>
</event>
<event>
 6    1  0.1901260E-004  0.3000000E+03  0.7818608E-02  0.1093470E+00
          1   -1    0    0  502    0  0.00000000000E+00  0.00000000000E+00  0.35605072183E+02  0.35605072183E+02  0.00000000000E+00 0.  1.
         13   -1    0    0    0    0 -0.00000000000E+00 -0.00000000000E+00 -0.10000000000E+04  0.10000000000E+04  0.00000000000E+00 0.  1.
    9000005    2    1    2  501    0 -0.27974632894E+01 -0.32039656214E+02 -0.93696284764E+03  0.99333351680E+03  0.32829519092E+03 0.  0.
         13    1    3    3    0    0 -0.10547297906E+03 -0.13945947692E+03 -0.60221810942E+03  0.62708862717E+03  0.00000000000E+00 0.  1.
          3    1    3    3  501    0  0.10267551577E+03  0.10741982071E+03 -0.33474473822E+03  0.36624488963E+03  0.00000000000E+00 0.  1.
         21    1    1    2  502  501  0.27974632894E+01  0.32039656214E+02 -0.27432080182E+02  0.42271555381E+02  0.00000000000E+00 0.  1.
<mgrwt>
<rscale>  1 0.30000000E+03</rscale>
<asrwt>0</asrwt>
<pdfrwt beam="1">  1        1 0.12947326E+00 0.30000000E+03</pdfrwt>
<pdfrwt beam="2">0</pdfrwt>
<totfact> 0.23031524E+01</totfact>
</mgrwt>
</event>
<event>
 6    1  0.1901260E-004  0.3000000E+03  0.7818608E-02  0.1093470E+00
          1   -1    0    0  502    0  0.00000000000E+00  0.00000000000E+00  0.36701721193E+02  0.36701721193E+02  0.00000000000E+00 0.  1.
         13   -1    0    0    0    0 -0.00000000000E+00 -0.00000000000E+00 -0.10000000000E+04  0.10000000000E+04  0.00000000000E+00 0.  1.
    9000005    2    1    2  501    0 -0.82284340727E+01 -0.18984791860E+02 -0.95733488659E+03  0.10151682241E+04  0.33711764823E+03 0.  0.
         13    1    3    3    0    0  0.31382020746E+00  0.96648837976E+02 -0.85522029537E+03  0.86066419117E+03  0.00000000000E+00 0.  1.
          1    1    3    3  501    0 -0.85422542802E+01 -0.11563362984E+03 -0.10211459122E+03  0.15450403295E+03  0.00000000000E+00 0.  1.
         21    1    1    2  502  501  0.82284340727E+01  0.18984791860E+02 -0.59633922193E+01  0.21533497069E+02  0.00000000000E+00 0.  1.
<mgrwt>
<rscale>  1 0.30000000E+03</rscale>
<asrwt>0</asrwt>
<pdfrwt beam="1">  1        1 0.13346109E+00 0.30000000E+03</pdfrwt>
<pdfrwt beam="2">0</pdfrwt>
<totfact> 0.21914485E+01</totfact>
</mgrwt>
</event>
<event>
 6    1  0.1901260E-004  0.3000000E+03  0.7818608E-02  0.1093470E+00
          1   -1    0    0  502    0  0.00000000000E+00  0.00000000000E+00  0.34231191094E+02  0.34231191094E+02  0.00000000000E+00 0.  1.
         13   -1    0    0    0    0 -0.00000000000E+00 -0.00000000000E+00 -0.10000000000E+04  0.10000000000E+04  0.00000000000E+00 0.  1.
    9000005    2    1    2  501    0  0.10478129592E+02 -0.69758327374E+01 -0.96951846066E+03  0.10210967581E+04  0.32017821658E+03 0.  0.
         13    1    3    3    0    0 -0.13437858446E+03  0.40817957694E+02 -0.26143154414E+03  0.29676617378E+03  0.00000000000E+00 0.  1.
          1    1    3    3  501    0  0.14485671405E+03 -0.47793790432E+02 -0.70808691652E+03  0.72433058430E+03  0.00000000000E+00 0.  1.
         21    1    1    2  502  501 -0.10478129592E+02  0.69758327374E+01  0.37496517559E+01  0.13134433007E+02  0.00000000000E+00 0.  1.
<mgrwt>
<rscale>  1 0.30000000E+03</rscale>
<asrwt>0</asrwt>
<pdfrwt beam="1">  1        1 0.12447732E+00 0.30000000E+03</pdfrwt>
<pdfrwt beam="2">0</pdfrwt>
<totfact> 0.24537245E+01</totfact>
</mgrwt>
</event>
<event>
 6    1  0.1901260E-004  0.3000000E+03  0.7818608E-02  0.1093470E+00
          1   -1    0    0  502    0  0.00000000000E+00  0.00000000000E+00  0.42316412722E+02  0.42316412722E+02  0.00000000000E+00 0.  1.
         13   -1    0    0    0    0 -0.00000000000E+00 -0.00000000000E+00 -0.10000000000E+04  0.10000000000E+04  0.00000000000E+00 0.  1.
    9000005    2    1    2  501    0  0.23159322703E+01  0.14385756378E+02 -0.96835897201E+03  0.10242532633E+04  0.33341166015E+03 0.  0.
         13    1    3    3    0    0  0.85024909004E+02  0.15142099495E+03 -0.50784746929E+03  0.53671836649E+03  0.00000000000E+00 0.  1.
          1    1    3    3  501    0 -0.82708976734E+02 -0.13703523857E+03 -0.46051150272E+03  0.48753489678E+03  0.00000000000E+00 0.  1.
         21    1    1    2  502  501 -0.23159322703E+01 -0.14385756378E+02  0.10675384732E+02  0.18063149449E+02  0.00000000000E+00 0.  1.
<mgrwt>
<rscale>  1 0.30000000E+03</rscale>
<asrwt>0</asrwt>
<pdfrwt beam="1">  1        1 0.15387819E+00 0.30000000E+03</pdfrwt>
<pdfrwt beam="2">0</pdfrwt>
<totfact> 0.17171476E+01</totfact>
</mgrwt>
</event>
<event>
 6    1  0.1901260E-004  0.3000000E+03  0.7818608E-02  0.1093470E+00
          1   -1    0    0  502    0  0.00000000000E+00  0.00000000000E+00  0.29547690397E+02  0.29547690397E+02  0.00000000000E+00 0.  1.
         13   -1    0    0    0    0 -0.00000000000E+00 -0.00000000000E+00 -0.10000000000E+04  0.10000000000E+04  0.00000000000E+00 0.  1.
    9000005    2    1    2  501    0 -0.90298385223E+01  0.67950744917E+01 -0.95587238757E+03  0.10111008710E+04  0.32940133409E+03 0.  0.
         13    1    3    3    0    0  0.94136961588E+01  0.10788014451E+03 -0.94810817381E+02  0.14392996334E+03  0.00000000000E+00 0.  1.
          1    1    3    3  501    0 -0.18443534681E+02 -0.10108507002E+03 -0.86106157019E+03  0.86717090761E+03  0.00000000000E+00 0.  1.
         21    1    1    2  502  501  0.90298385223E+01 -0.67950744917E+01 -0.14579922032E+02  0.18446819442E+02  0.00000000000E+00 0. -1.
<mgrwt>
<rscale>  1 0.30000000E+03</rscale>
<asrwt>0</asrwt>
<pdfrwt beam="1">  1        1 0.10744637E+00 0.30000000E+03</pdfrwt>
<pdfrwt beam="2">0</pdfrwt>
<totfact> 0.30777427E+01</totfact>
</mgrwt>
</event>
<event>
 6    1  0.1901260E-004  0.3000000E+03  0.7818608E-02  0.1093470E+00
          1   -1    0    0  502    0  0.00000000000E+00  0.00000000000E+00  0.34894306578E+02  0.34894306578E+02  0.00000000000E+00 0.  1.
         13   -1    0    0    0    0 -0.00000000000E+00 -0.00000000000E+00 -0.10000000000E+04  0.10000000000E+04  0.00000000000E+00 0.  1.
    9000005    2    1    2  501    0  0.19689093348E+02 -0.29796873298E+02 -0.92961424833E+03  0.98454396666E+03  0.32228660775E+03 0.  0.
         13    1    3    3    0    0 -0.76371964182E+02 -0.32286562544E+02 -0.86450015399E+03  0.86846739448E+03  0.00000000000E+00 0.  1.
          1    1    3    3  501    0  0.96061057530E+02  0.24896892466E+01 -0.65114094339E+02  0.11607657218E+03  0.00000000000E+00 0.  1.
         21    1    1    2  502  501 -0.19689093348E+02  0.29796873298E+02 -0.35491445093E+02  0.50350339919E+02  0.00000000000E+00 0.  1.
<mgrwt>
<rscale>  1 0.30000000E+03</rscale>
<asrwt>0</asrwt>
<pdfrwt beam="1">  1        1 0.12688866E+00 0.30000000E+03</pdfrwt>
<pdfrwt beam="2">0</pdfrwt>
<totfact> 0.23795251E+01</totfact>
</mgrwt>
</event>
<event>
 6    1  0.1901260E-004  0.3000000E+03  0.7818608E-02  0.1093470E+00
          1   -1    0    0  502    0  0.00000000000E+00  0.00000000000E+00  0.25951432074E+02  0.25951432074E+02  0.00000000000E+00 0.  1.
         13   -1    0    0    0    0 -0.00000000000E+00 -0.00000000000E+00 -0.10000000000E+04  0.10000000000E+04  0.00000000000E+00 0.  1.
    9000005    2    1    2  501    0 -0.10006053846E+02 -0.38045181001E+01 -0.93426823927E+03  0.98475592237E+03  0.31108276756E+03 0.  0.
         13    1    3    3    0    0  0.64271371818E+02  0.32520328186E+02 -0.32189588062E+02  0.78895820931E+02  0.00000000000E+00 0.  1.
          3    1    3    3  501    0 -0.74277425664E+02 -0.36324846286E+02 -0.90207865121E+03  0.90586010144E+03  0.00000000000E+00 0.  1.
         21    1    1    2  502  501  0.10006053846E+02  0.38045181001E+01 -0.39780328657E+02  0.41195509702E+02  0.00000000000E+00 0.  1.
<mgrwt>
<rscale>  1 0.30000000E+03</rscale>
<asrwt>0</asrwt>
<pdfrwt beam="1">  1        1 0.94369043E-01 0.30000000E+03</pdfrwt>
<pdfrwt beam="2">0</pdfrwt>
<totfact> 0.37226181E+01</totfact>
</mgrwt>
</event>
<event>
 6    1  0.1901260E-004  0.3000000E+03  0.7818608E-02  0.1093470E+00
          1   -1    0    0  502    0  0.00000000000E+00  0.00000000000E+00  0.28072811425E+02  0.28072811425E+02  0.00000000000E+00 0.  1.
         13   -1    0    0    0    0 -0.00000000000E+00 -0.00000000000E+00 -0.10000000000E+04  0.10000000000E+04  0.00000000000E+00 0.  1.
    9000005    2    1    2  501    0 -0.30713996997E+02 -0.11001395417E+02 -0.86002123504E+03  0.91150813947E+03  0.30024353995E+03 0.  0.
         13    1    3    3    0    0 -0.86423855183E+02  0.89245079768E+02 -0.71940648393E+03  0.73005441998E+03  0.00000000000E+00 0.  1.
          1    1    3    3  501    0  0.55709858186E+02 -0.10024647519E+03 -0.14061475111E+03  0.18145371949E+03  0.00000000000E+00 0.  1.
         21    1    1    2  502  501  0.30713996997E+02  0.11001395417E+02 -0.11190595353E+03  0.11656467196E+03  0.00000000000E+00 0. -1.
<mgrwt>
<rscale>  1 0.30000000E+03</rscale>
<asrwt>0</asrwt>
<pdfrwt beam="1">  1        1 0.10208317E+00 0.30000000E+03</pdfrwt>
<pdfrwt beam="2">0</pdfrwt>
<totfact> 0.33207347E+01</totfact>
</mgrwt>
</event>
<event>
 6    1  0.1901260E-004  0.3000000E+03  0.7818608E-02  0.1093470E+00
          1   -1    0    0  502    0  0.00000000000E+00  0.00000000000E+00  0.30711732821E+02  0.30711732821E+02  0.00000000000E+00 0.  1.
         13   -1    0    0    0    0 -0.00000000000E+00 -0.00000000000E+00 -0.10000000000E+04  0.10000000000E+04  0.00000000000E+00 0.  1.
    9000005    2    1    2  501    0  0.13925099744E+02  0.17647869350E+02 -0.95342910437E+03  0.10032004853E+04  0.31125359586E+03 0.  0.
         13    1    3    3    0    0  0.60252848682E+02  0.10683332194E+03 -0.85066529096E+03  0.85946215839E+03  0.00000000000E+00 0.  1.
          3    1    3    3  501    0 -0.46327748938E+02 -0.89185452592E+02 -0.10276381341E+03  0.14373832691E+03  0.00000000000E+00 0.  1.
         21    1    1    2  502  501 -0.13925099744E+02 -0.17647869350E+02 -0.15859162809E+02  0.27511247527E+02  0.00000000000E+00 0.  1.
<mgrwt>
<rscale>  1 0.30000000E+03</rscale>
<asrwt>0</asrwt>
<pdfrwt beam="1">  1        1 0.11167926E+00 0.30000000E+03</pdfrwt>
<pdfrwt beam="2">0</pdfrwt>
<totfact> 0.29035957E+01</totfact>
</mgrwt>
</event>
<event>
 6    1  0.1901260E-004  0.3000000E+03  0.7818608E-02  0.1093470E+00
          3   -1    0    0  502    0  0.00000000000E+00  0.00000000000E+00  0.27594797074E+02  0.27594797074E+02  0.00000000000E+00 0.  1.
         13   -1    0    0    0    0 -0.00000000000E+00 -0.00000000000E+00 -0.10000000000E+04  0.10000000000E+04  0.00000000000E+00 0.  1.
    9000005    2    1    2  501    0  0.65153471130E+01  0.68848100548E+01 -0.95774865417E+03  0.10101401479E+04  0.32095293021E+03 0.  0.
         13    1    3    3    0    0  0.13504993371E+03 -0.88118657076E+02 -0.48337728424E+03  0.50956548278E+03  0.00000000000E+00 0.  1.
          3    1    3    3  501    0 -0.12853458660E+03  0.95003467130E+02 -0.47437136993E+03  0.50057466509E+03  0.00000000000E+00 0.  1.
         21    1    1    2  502  501 -0.65153471130E+01 -0.68848100548E+01 -0.14656548759E+02  0.17454649209E+02  0.00000000000E+00 0. -1.
<mgrwt>
<rscale>  1 0.30000000E+03</rscale>
<asrwt>0</asrwt>
<pdfrwt beam="1">  1        3 0.10034493E+00 0.30000000E+03</pdfrwt>
<pdfrwt beam="2">0</pdfrwt>
<totfact> 0.38817671E+00</totfact>
</mgrwt>
</event>
<event>
 6    1  0.1901260E-004  0.3000000E+03  0.7818608E-02  0.1093470E+00
          1   -1    0    0  502    0  0.00000000000E+00  0.00000000000E+00  0.68639204570E+02  0.68639204570E+02  0.00000000000E+00 0.  1.
         13   -1    0    0    0    0 -0.00000000000E+00 -0.00000000000E+00 -0.10000000000E+04  0.10000000000E+04  0.00000000000E+00 0.  1.
    9000005    2    1    2  501    0 -0.93179366108E+00  0.14405574020E+02 -0.97371134906E+03  0.10238959571E+04  0.31629219222E+03 0.  0.
         13    1    3    3    0    0 -0.13854365771E+03 -0.69886483389E+02 -0.46631427817E+03  0.49145444517E+03  0.00000000000E+00 0.  1.
          1    1    3    3  501    0  0.13761186405E+03  0.84292057409E+02 -0.50739707089E+03  0.53244151192E+03  0.00000000000E+00 0.  1.
         21    1    1    2  502  501  0.93179366108E+00 -0.14405574020E+02  0.42350553628E+02  0.44743247478E+02  0.00000000000E+00 0.  1.
<mgrwt>
<rscale>  1 0.30000000E+03</rscale>
<asrwt>0</asrwt>
<pdfrwt beam="1">  1        1 0.24959763E+00 0.30000000E+03</pdfrwt>
<pdfrwt beam="2">0</pdfrwt>
<totfact> 0.59918691E+00</totfact>
</mgrwt>
</event>
<event>
 6    1  0.1901260E-004  0.3000000E+03  0.7818608E-02  0.1093470E+00
          1   -1    0    0  502    0  0.00000000000E+00  0.00000000000E+00  0.41559768981E+02  0.41559768981E+02  0.00000000000E+00 0.  1.
         13   -1    0    0    0    0 -0.00000000000E+00 -0.00000000000E+00 -0.10000000000E+04  0.10000000000E+04  0.00000000000E+00 0.  1.
    9000005    2    1    2  501    0 -0.85810740133E+01 -0.13383827113E+02 -0.97016672395E+03  0.10218044584E+04  0.32032501823E+03 0.  0.
         13    1    3    3    0    0 -0.10998231982E+03 -0.12694680702E+03 -0.48003811727E+03  0.50857467153E+03  0.00000000000E+00 0.  1.
          1    1    3    3  501    0  0.10140124581E+03  0.11356297991E+03 -0.49012860668E+03  0.51322978688E+03  0.00000000000E+00 0.  1.
         21    1    1    2  502  501  0.85810740133E+01  0.13383827113E+02  0.11726492930E+02  0.19755310573E+02  0.00000000000E+00 0.  1.
<mgrwt>
<rscale>  1 0.30000000E+03</rscale>
<asrwt>0</asrwt>
<pdfrwt beam="1">  1        1 0.15112675E+00 0.30000000E+03</pdfrwt>
<pdfrwt beam="2">0</pdfrwt>
<totfact> 0.17729874E+01</totfact>
</mgrwt>
</event>
<event>
 6    1  0.1901260E-004  0.3000000E+03  0.7818608E-02  0.1093470E+00
          1   -1    0    0  502    0  0.00000000000E+00  0.00000000000E+00  0.29989554766E+02  0.29989554766E+02  0.00000000000E+00 0.  1.
         13   -1    0    0    0    0 -0.00000000000E+00 -0.00000000000E+00 -0.10000000000E+04  0.10000000000E+04  0.00000000000E+00 0.  1.
    9000005    2    1    2  501    0  0.11286298144E+02  0.72718626016E+01 -0.95083115641E+03  0.10065778989E+04  0.33005896141E+03 0.  0.
         13    1    3    3    0    0  0.85461373115E+02 -0.48782578577E+02 -0.89010887131E+03  0.89553179120E+03  0.00000000000E+00 0.  1.
          3    1    3    3  501    0 -0.74175074971E+02  0.56054441179E+02 -0.60722285097E+02  0.11104610768E+03  0.00000000000E+00 0.  1.
         21    1    1    2  502  501 -0.11286298144E+02 -0.72718626016E+01 -0.19179288828E+02  0.23411655888E+02  0.00000000000E+00 0.  1.
<mgrwt>
<rscale>  1 0.30000000E+03</rscale>
<asrwt>0</asrwt>
<pdfrwt beam="1">  1        1 0.10905316E+00 0.30000000E+03</pdfrwt>
<pdfrwt beam="2">0</pdfrwt>
<totfact> 0.30099305E+01</totfact>
</mgrwt>
</event>
<event>
 6    1  0.1901260E-004  0.3000000E+03  0.7818608E-02  0.1093470E+00
          1   -1    0    0  502    0  0.00000000000E+00  0.00000000000E+00  0.27653649444E+02  0.27653649444E+02  0.00000000000E+00 0.  1.
         13   -1    0    0    0    0 -0.00000000000E+00 -0.00000000000E+00 -0.10000000000E+04  0.10000000000E+04  0.00000000000E+00 0.  1.
    9000005    2    1    2  501    0 -0.82322115338E+01 -0.69830691134E+01 -0.94667910214E+03  0.99980871809E+03  0.32140257898E+03 0.  0.
         13    1    3    3    0    0 -0.18482974211E+02  0.38097104781E+02  0.87693246457E+01  0.43242465044E+02  0.00000000000E+00 0.  1.
          3    1    3    3  501    0  0.10250762678E+02 -0.45080173894E+02 -0.95544842679E+03  0.95656625305E+03  0.00000000000E+00 0.  1.
         21    1    1    2  502  501  0.82322115338E+01  0.69830691134E+01 -0.25667248414E+02  0.27844931354E+02  0.00000000000E+00 0. -1.
<mgrwt>
<rscale>  1 0.30000000E+03</rscale>
<asrwt>0</asrwt>
<pdfrwt beam="1">  1        1 0.10055894E+00 0.30000000E+03</pdfrwt>
<pdfrwt beam="2">0</pdfrwt>
<totfact> 0.33948911E+01</totfact>
</mgrwt>
</event>
<event>
 6    1  0.1901260E-004  0.3000000E+03  0.7818608E-02  0.1093470E+00
          1   -1    0    0  502    0  0.00000000000E+00  0.00000000000E+00  0.37025077003E+02  0.37025077003E+02  0.00000000000E+00 0.  1.
         13   -1    0    0    0    0 -0.00000000000E+00 -0.00000000000E+00 -0.10000000000E+04  0.10000000000E+04  0.00000000000E+00 0.  1.
    9000005    2    1    2  501    0 -0.99103992008E+00 -0.10580465631E+02 -0.96737891958E+03  0.10255218775E+04  0.34023553422E+03 0.  0.
         13    1    3    3    0    0 -0.17986642032E+02  0.37771591970E+02  0.12996435797E+02  0.43807759529E+02  0.00000000000E+00 0.  1.
          3    1    3    3  501    0  0.16995602112E+02 -0.48352057601E+02 -0.98037535538E+03  0.98171411796E+03  0.00000000000E+00 0.  1.
         21    1    1    2  502  501  0.99103992008E+00  0.10580465631E+02  0.44039965873E+01  0.11503199513E+02  0.00000000000E+00 0.  1.
<mgrwt>
<rscale>  1 0.30000000E+03</rscale>
<asrwt>0</asrwt>
<pdfrwt beam="1">  1        1 0.13463693E+00 0.30000000E+03</pdfrwt>
<pdfrwt beam="2">0</pdfrwt>
<totfact> 0.21598773E+01</totfact>
</mgrwt>
</event>
<event>
 6    1  0.1901260E-004  0.3000000E+03  0.7818608E-02  0.1093470E+00
          1   -1    0    0  502    0  0.00000000000E+00  0.00000000000E+00  0.12416336814E+02  0.12416336814E+02  0.00000000000E+00 0.  1.
         13   -1    0    0    0    0 -0.00000000000E+00 -0.00000000000E+00 -0.10000000000E+04  0.10000000000E+04  0.00000000000E+00 0.  1.
    9000005    2    1    2  501    0 -0.34701045888E+00 -0.20243587006E+02 -0.93462869192E+03  0.95572284325E+03  0.19865910025E+03 0.  0.
         13    1    3    3    0    0 -0.54519406980E+02 -0.86573311188E+02 -0.66488836427E+03  0.67271378824E+03  0.00000000000E+00 0.  1.
          3    1    3    3  501    0  0.54172396521E+02  0.66329724182E+02 -0.26974032766E+03  0.28300905501E+03  0.00000000000E+00 0.  1.
         21    1    1    2  502  501  0.34701045888E+00  0.20243587006E+02 -0.52954971263E+02  0.56693493565E+02  0.00000000000E+00 0.  1.
<mgrwt>
<rscale>  1 0.30000000E+03</rscale>
<asrwt>0</asrwt>
<pdfrwt beam="1">  1        1 0.45150411E-01 0.30000000E+03</pdfrwt>
<pdfrwt beam="2">0</pdfrwt>
<totfact> 0.10087843E+02</totfact>
</mgrwt>
</event>
<event>
 6    1  0.1901260E-004  0.3000000E+03  0.7818608E-02  0.1093470E+00
          1   -1    0    0  502    0  0.00000000000E+00  0.00000000000E+00  0.45853920517E+02  0.45853920517E+02  0.00000000000E+00 0.  1.
         13   -1    0    0    0    0 -0.00000000000E+00 -0.00000000000E+00 -0.10000000000E+04  0.10000000000E+04  0.00000000000E+00 0.  1.
    9000005    2    1    2  501    0 -0.17391272585E+02 -0.12596039074E+01 -0.97127955347E+03  0.10214080846E+04  0.31557322650E+03 0.  0.
         13    1    3    3    0    0  0.50962096450E+02  0.14123545664E+02 -0.94515452002E+03  0.94663280977E+03  0.00000000000E+00 0.  1.
          1    1    3    3  501    0 -0.68353369035E+02 -0.15383149571E+02 -0.26125033445E+02  0.74775274802E+02  0.00000000000E+00 0.  1.
         21    1    1    2  502  501  0.17391272585E+02  0.12596039074E+01  0.17133473985E+02  0.24445835943E+02  0.00000000000E+00 0.  1.
<mgrwt>
<rscale>  1 0.30000000E+03</rscale>
<asrwt>0</asrwt>
<pdfrwt beam="1">  1        1 0.16674188E+00 0.30000000E+03</pdfrwt>
<pdfrwt beam="2">0</pdfrwt>
<totfact> 0.14822055E+01</totfact>
</mgrwt>
</event>
<event>
 6    1  0.1901260E-004  0.3000000E+03  0.7818608E-02  0.1093470E+00
          1   -1    0    0  502    0  0.00000000000E+00  0.00000000000E+00  0.41867621581E+02  0.41867621581E+02  0.00000000000E+00 0.  1.
         13   -1    0    0    0    0 -0.00000000000E+00 -0.00000000000E+00 -0.10000000000E+04  0.10000000000E+04  0.00000000000E+00 0.  1.
    9000005    2    1    2  501    0  0.23601642277E+02 -0.72905027978E+01 -0.96159386383E+03  0.10169242692E+04  0.32994245147E+03 0.  0.
         13    1    3    3    0    0  0.95620674161E+01 -0.90446789392E+02 -0.54731130639E+02  0.10614872352E+03  0.00000000000E+00 0.  1.
          3    1    3    3  501    0  0.14039574861E+02  0.83156286594E+02 -0.90686273319E+03  0.91077554563E+03  0.00000000000E+00 0.  1.
         21    1    1    2  502  501 -0.23601642277E+02  0.72905027978E+01  0.34614854114E+01  0.24943352431E+02  0.00000000000E+00 0.  1.
<mgrwt>
<rscale>  1 0.30000000E+03</rscale>
<asrwt>0</asrwt>
<pdfrwt beam="1">  1        1 0.15224622E+00 0.30000000E+03</pdfrwt>
<pdfrwt beam="2">0</pdfrwt>
<totfact> 0.17500047E+01</totfact>
</mgrwt>
</event>
<event>
 6    1  0.1901260E-004  0.3000000E+03  0.7818608E-02  0.1093470E+00
          1   -1    0    0  502    0  0.00000000000E+00  0.00000000000E+00  0.27382355272E+02  0.27382355272E+02  0.00000000000E+00 0.  1.
         13   -1    0    0    0    0 -0.00000000000E+00 -0.00000000000E+00 -0.10000000000E+04  0.10000000000E+04  0.00000000000E+00 0.  1.
    9000005    2    1    2  501    0  0.83783029969E+01 -0.70372160912E+01 -0.96668962312E+03  0.10149380871E+04  0.30901581630E+03 0.  0.
         13    1    3    3    0    0 -0.73909798764E+02  0.31765947524E+02 -0.89631531262E+03  0.89991825930E+03  0.00000000000E+00 0.  1.
          3    1    3    3  501    0  0.82288101761E+02 -0.38803163615E+02 -0.70374310498E+02  0.11501982775E+03  0.00000000000E+00 0.  1.
         21    1    1    2  502  501 -0.83783029969E+01  0.70372160912E+01 -0.59280216059E+01  0.12444268222E+02  0.00000000000E+00 0. -1.
<mgrwt>
<rscale>  1 0.30000000E+03</rscale>
<asrwt>0</asrwt>
<pdfrwt beam="1">  1        1 0.99572411E-01 0.30000000E+03</pdfrwt>
<pdfrwt beam="2">0</pdfrwt>
<totfact> 0.34441920E+01</totfact>
</mgrwt>
</event>
<event>
 6    1  0.1901260E-004  0.3000000E+03  0.7818608E-02  0.1093470E+00
          1   -1    0    0  502    0  0.00000000000E+00  0.00000000000E+00  0.29905419611E+02  0.29905419611E+02  0.00000000000E+00 0.  1.
         13   -1    0    0    0    0 -0.00000000000E+00 -0.00000000000E+00 -0.10000000000E+04  0.10000000000E+04  0.00000000000E+00 0.  1.
    9000005    2    1    2  501    0 -0.17805708504E+01 -0.17751763451E+02 -0.93549379183E+03  0.99097586648E+03  0.32644484657E+03 0.  0.
         13    1    3    3    0    0 -0.82473157768E+02 -0.83647329252E+02 -0.11670569183E+03  0.16558658143E+03  0.00000000000E+00 0.  1.
          1    1    3    3  501    0  0.80692586918E+02  0.65895565801E+02 -0.81878810001E+03  0.82538928506E+03  0.00000000000E+00 0.  1.
         21    1    1    2  502  501  0.17805708504E+01  0.17751763451E+02 -0.34600788556E+02  0.38929553130E+02  0.00000000000E+00 0. -1.
<mgrwt>
<rscale>  1 0.30000000E+03</rscale>
<asrwt>0</asrwt>
<pdfrwt beam="1">  1        1 0.10874721E+00 0.30000000E+03</pdfrwt>
<pdfrwt beam="2">0</pdfrwt>
<totfact> 0.30226769E+01</totfact>
</mgrwt>
</event>
<event>
 6    1  0.1901260E-004  0.3000000E+03  0.7818608E-02  0.1093470E+00
          1   -1    0    0  502    0  0.00000000000E+00  0.00000000000E+00  0.71192759104E+02  0.71192759104E+02  0.00000000000E+00 0.  1.
         13   -1    0    0    0    0 -0.00000000000E+00 -0.00000000000E+00 -0.10000000000E+04  0.10000000000E+04  0.00000000000E+00 0.  1.
    9000005    2    1    2  501    0 -0.32738475493E+02  0.35884047448E+02 -0.95831305866E+03  0.10143590902E+04  0.32893916282E+03 0.  0.
         13    1    3    3    0    0  0.10926552469E+03 -0.88424809640E+02 -0.34078748881E+03  0.36863805334E+03  0.00000000000E+00 0.  1.
          1    1    3    3  501    0 -0.14200400018E+03  0.12430885709E+03 -0.61752556986E+03  0.64572103686E+03  0.00000000000E+00 0.  1.
         21    1    1    2  502  501  0.32738475493E+02 -0.35884047448E+02  0.29505817765E+02  0.56833668902E+02  0.00000000000E+00 0.  1.
<mgrwt>
<rscale>  1 0.30000000E+03</rscale>
<asrwt>0</asrwt>
<pdfrwt beam="1">  1        1 0.25888331E+00 0.30000000E+03</pdfrwt>
<pdfrwt beam="2">0</pdfrwt>
<totfact> 0.54233198E+00</totfact>
</mgrwt>
</event>
<event>
 6    1  0.1901260E-004  0.3000000E+03  0.7818608E-02  0.1093470E+00
          1   -1    0    0  502    0  0.00000000000E+00  0.00000000000E+00  0.32527845160E+02  0.32527845160E+02  0.00000000000E+00 0.  1.
         13   -1    0    0    0    0 -0.00000000000E+00 -0.00000000000E+00 -0.10000000000E+04  0.10000000000E+04  0.00000000000E+00 0.  1.
    9000005    2    1    2  501    0  0.62266938797E+01 -0.77316460889E+01 -0.95999888429E+03  0.10201020719E+04  0.34483594538E+03 0.  0.
         13    1    3    3    0    0 -0.77216751298E+02 -0.81872618149E+01 -0.92719533741E+03  0.93044110596E+03  0.00000000000E+00 0.  1.
          3    1    3    3  501    0  0.83443445178E+02  0.45561572603E+00 -0.32803546871E+02  0.89660965956E+02  0.00000000000E+00 0.  1.
         21    1    1    2  502  501 -0.62266938797E+01  0.77316460889E+01 -0.74732705542E+01  0.12425773243E+02  0.00000000000E+00 0. -1.
<mgrwt>
<rscale>  1 0.30000000E+03</rscale>
<asrwt>0</asrwt>
<pdfrwt beam="1">  1        1 0.11828332E+00 0.30000000E+03</pdfrwt>
<pdfrwt beam="2">0</pdfrwt>
<totfact> 0.26585887E+01</totfact>
</mgrwt>
</event>
<event>
 6    1  0.1901260E-004  0.3000000E+03  0.7818608E-02  0.1093470E+00
          1   -1    0    0  502    0  0.00000000000E+00  0.00000000000E+00  0.37989116720E+02  0.37989116720E+02  0.00000000000E+00 0.  1.
         13   -1    0    0    0    0 -0.00000000000E+00 -0.00000000000E+00 -0.10000000000E+04  0.10000000000E+04  0.00000000000E+00 0.  1.
    9000005    2    1    2  501    0  0.12831795699E+02 -0.31776440374E+02 -0.94377021230E+03  0.99916748330E+03  0.32628062908E+03 0.  0.
         13    1    3    3    0    0 -0.14372214658E+03  0.27170798104E+02 -0.58969124669E+03  0.60756075755E+03  0.00000000000E+00 0.  1.
          3    1    3    3  501    0  0.15655394228E+03 -0.58947238478E+02 -0.35407896561E+03  0.39160672575E+03  0.00000000000E+00 0.  1.
         21    1    1    2  502  501 -0.12831795699E+02  0.31776440374E+02 -0.18240670980E+02  0.38821633421E+02  0.00000000000E+00 0.  1.
<mgrwt>
<rscale>  1 0.30000000E+03</rscale>
<asrwt>0</asrwt>
<pdfrwt beam="1">  1        1 0.13814253E+00 0.30000000E+03</pdfrwt>
<pdfrwt beam="2">0</pdfrwt>
<totfact> 0.20692549E+01</totfact>
</mgrwt>
</event>
<event>
 6    1  0.1901260E-004  0.3000000E+03  0.7818608E-02  0.1093470E+00
          1   -1    0    0  502    0  0.00000000000E+00  0.00000000000E+00  0.33767337932E+02  0.33767337932E+02  0.00000000000E+00 0.  1.
         13   -1    0    0    0    0 -0.00000000000E+00 -0.00000000000E+00 -0.10000000000E+04  0.10000000000E+04  0.00000000000E+00 0.  1.
    9000005    2    1    2  501    0  0.20650234410E+02 -0.12565518007E+02 -0.95287992210E+03  0.10061517610E+04  0.32214421588E+03 0.  0.
         13    1    3    3    0    0 -0.14297004210E+03 -0.55862775076E+02 -0.47493410352E+03  0.49912271564E+03  0.00000000000E+00 0.  1.
          3    1    3    3  501    0  0.16362027651E+03  0.43297257069E+02 -0.47794581858E+03  0.50702904537E+03  0.00000000000E+00 0.  1.
         21    1    1    2  502  501 -0.20650234410E+02  0.12565518007E+02 -0.13352739969E+02  0.27615576921E+02  0.00000000000E+00 0. -1.
<mgrwt>
<rscale>  1 0.30000000E+03</rscale>
<asrwt>0</asrwt>
<pdfrwt beam="1">  1        1 0.12279058E+00 0.30000000E+03</pdfrwt>
<pdfrwt beam="2">0</pdfrwt>
<totfact> 0.25073902E+01</totfact>
</mgrwt>
</event>
<event>
 6    1  0.1901260E-004  0.3000000E+03  0.7818608E-02  0.1093470E+00
          1   -1    0    0  502    0  0.00000000000E+00  0.00000000000E+00  0.30131617137E+02  0.30131617137E+02  0.00000000000E+00 0.  1.
         13   -1    0    0    0    0 -0.00000000000E+00 -0.00000000000E+00 -0.10000000000E+04  0.10000000000E+04  0.00000000000E+00 0.  1.
    9000005    2    1    2  501    0  0.84332523780E+01 -0.78152547466E+01 -0.97208745617E+03  0.10184216966E+04  0.30347410390E+03 0.  0.
         13    1    3    3    0    0  0.14470729368E+03  0.34314010035E+02 -0.35176496657E+03  0.38191130362E+03  0.00000000000E+00 0.  1.
          3    1    3    3  501    0 -0.13627404130E+03 -0.42129264782E+02 -0.62032248960E+03  0.63651039299E+03  0.00000000000E+00 0.  1.
         21    1    1    2  502  501 -0.84332523780E+01  0.78152547466E+01  0.22190733036E+01  0.11709920527E+02  0.00000000000E+00 0.  1.
<mgrwt>
<rscale>  1 0.30000000E+03</rscale>
<asrwt>0</asrwt>
<pdfrwt beam="1">  1        1 0.10956975E+00 0.30000000E+03</pdfrwt>
<pdfrwt beam="2">0</pdfrwt>
<totfact> 0.29885812E+01</totfact>
</mgrwt>
</event>
<event>
 6    1  0.1901260E-004  0.3000000E+03  0.7818608E-02  0.1093470E+00
          1   -1    0    0  502    0  0.00000000000E+00  0.00000000000E+00  0.35737514301E+02  0.35737514301E+02  0.00000000000E+00 0.  1.
         13   -1    0    0    0    0 -0.00000000000E+00 -0.00000000000E+00 -0.10000000000E+04  0.10000000000E+04  0.00000000000E+00 0.  1.
    9000005    2    1    2  501    0  0.22393522838E+02  0.69310066999E+01 -0.95594177056E+03  0.10108629687E+04  0.32782581357E+03 0.  0.
         13    1    3    3    0    0  0.61433369465E+02  0.11453855627E+03 -0.15725788089E+03  0.20401759939E+03  0.00000000000E+00 0.  1.
          3    1    3    3  501    0 -0.39039846628E+02 -0.10760754957E+03 -0.79868388967E+03  0.80684536930E+03  0.00000000000E+00 0.  1.
         21    1    1    2  502  501 -0.22393522838E+02 -0.69310066999E+01 -0.83207151354E+01  0.24874545610E+02  0.00000000000E+00 0.  1.
<mgrwt>
<rscale>  1 0.30000000E+03</rscale>
<asrwt>0</asrwt>
<pdfrwt beam="1">  1        1 0.12995487E+00 0.30000000E+03</pdfrwt>
<pdfrwt beam="2">0</pdfrwt>
<totfact> 0.22892729E+01</totfact>
</mgrwt>
</event>
<event>
 6    1  0.1901260E-004  0.3000000E+03  0.7818608E-02  0.1093470E+00
          1   -1    0    0  502    0  0.00000000000E+00  0.00000000000E+00  0.27912187736E+02  0.27912187736E+02  0.00000000000E+00 0.  1.
         13   -1    0    0    0    0 -0.00000000000E+00 -0.00000000000E+00 -0.10000000000E+04  0.10000000000E+04  0.00000000000E+00 0.  1.
    9000005    2    1    2  501    0  0.72233148224E+01 -0.86390040944E+01 -0.97091653238E+03  0.10165905021E+04  0.30108226030E+03 0.  0.
         13    1    3    3    0    0 -0.46788028210E+02  0.13307097959E+03 -0.34849168490E+03  0.37595672575E+03  0.00000000000E+00 0.  1.
          1    1    3    3  501    0  0.54011343033E+02 -0.14170998369E+03 -0.62242484748E+03  0.64063377636E+03  0.00000000000E+00 0.  1.
         21    1    1    2  502  501 -0.72233148224E+01  0.86390040944E+01 -0.11712798824E+01  0.11321685622E+02  0.00000000000E+00 0. -1.
<mgrwt>
<rscale>  1 0.30000000E+03</rscale>
<asrwt>0</asrwt>
<pdfrwt beam="1">  1        1 0.10149908E+00 0.30000000E+03</pdfrwt>
<pdfrwt beam="2">0</pdfrwt>
<totfact> 0.33488681E+01</totfact>
</mgrwt>
</event>
<event>
 6    1  0.1901260E-004  0.3000000E+03  0.7818608E-02  0.1093470E+00
          1   -1    0    0  502    0  0.00000000000E+00  0.00000000000E+00  0.31223482258E+02  0.31223482258E+02  0.00000000000E+00 0.  1.
         13   -1    0    0    0    0 -0.00000000000E+00 -0.00000000000E+00 -0.10000000000E+04  0.10000000000E+04  0.00000000000E+00 0.  1.
    9000005    2    1    2  501    0 -0.22100084030E+01 -0.13033358099E+02 -0.95919307028E+03  0.10148957443E+04  0.33134162617E+03 0.  0.
         13    1    3    3    0    0 -0.55841317280E+02  0.47334110469E+02 -0.25201812594E+02  0.77420295062E+02  0.00000000000E+00 0.  1.
          1    1    3    3  501    0  0.53631308877E+02 -0.60367468568E+02 -0.93399125769E+03  0.93747544927E+03  0.00000000000E+00 0.  1.
         21    1    1    2  502  501  0.22100084030E+01  0.13033358099E+02 -0.95834474616E+01  0.16327737925E+02  0.00000000000E+00 0. -1.
<mgrwt>
<rscale>  1 0.30000000E+03</rscale>
<asrwt>0</asrwt>
<pdfrwt beam="1">  1        1 0.11354017E+00 0.30000000E+03</pdfrwt>
<pdfrwt beam="2">0</pdfrwt>
<totfact> 0.28314430E+01</totfact>
</mgrwt>
</event>
<event>
 6    1  0.1901260E-004  0.3000000E+03  0.7818608E-02  0.1093470E+00
          1   -1    0    0  502    0  0.00000000000E+00  0.00000000000E+00  0.32191868852E+02  0.32191868852E+02  0.00000000000E+00 0.  1.
         13   -1    0    0    0    0 -0.00000000000E+00 -0.00000000000E+00 -0.10000000000E+04  0.10000000000E+04  0.00000000000E+00 0.  1.
    9000005    2    1    2  501    0 -0.10146654425E+02 -0.74365760297E+00 -0.96826996020E+03  0.10220075226E+04  0.32687788666E+03 0.  0.
         13    1    3    3    0    0  0.12157967080E+03 -0.61375169173E+02 -0.21211822354E+03  0.25207671154E+03  0.00000000000E+00 0.  1.
          1    1    3    3  501    0 -0.13172632523E+03  0.60631511570E+02 -0.75615173666E+03  0.76993081105E+03  0.00000000000E+00 0.  1.
         21    1    1    2  502  501  0.10146654425E+02  0.74365760297E+00  0.46182905236E+00  0.10184346259E+02  0.00000000000E+00 0. -1.
<mgrwt>
<rscale>  1 0.30000000E+03</rscale>
<asrwt>0</asrwt>
<pdfrwt beam="1">  1        1 0.11706159E+00 0.30000000E+03</pdfrwt>
<pdfrwt beam="2">0</pdfrwt>
<totfact> 0.27016819E+01</totfact>
</mgrwt>
</event>
<event>
 6    1  0.1901260E-004  0.3000000E+03  0.7818608E-02  0.1093470E+00
          1   -1    0    0  502    0  0.00000000000E+00  0.00000000000E+00  0.30233133410E+02  0.30233133410E+02  0.00000000000E+00 0.  1.
         13   -1    0    0    0    0 -0.00000000000E+00 -0.00000000000E+00 -0.10000000000E+04  0.10000000000E+04  0.00000000000E+00 0.  1.
    9000005    2    1    2  501    0  0.24376695262E+00 -0.12585724236E+02 -0.95947330120E+03  0.10139722181E+04  0.32770746646E+03 0.  0.
         13    1    3    3    0    0 -0.14694139703E+03 -0.70822510235E+02 -0.58741903326E+03  0.60964639157E+03  0.00000000000E+00 0.  1.
          1    1    3    3  501    0  0.14718516399E+03  0.58236785999E+02 -0.37205426794E+03  0.40432582658E+03  0.00000000000E+00 0.  1.
         21    1    1    2  502  501 -0.24376695262E+00  0.12585724236E+02 -0.10293565388E+02  0.16260915265E+02  0.00000000000E+00 0. -1.
<mgrwt>
<rscale>  1 0.30000000E+03</rscale>
<asrwt>0</asrwt>
<pdfrwt beam="1">  1        1 0.10993890E+00 0.30000000E+03</pdfrwt>
<pdfrwt beam="2">0</pdfrwt>
<totfact> 0.29734570E+01</totfact>
</mgrwt>
</event>
<event>
 6    1  0.1901260E-004  0.3000000E+03  0.7818608E-02  0.1093470E+00
          1   -1    0    0  502    0  0.00000000000E+00  0.00000000000E+00  0.20550921658E+02  0.20550921658E+02  0.00000000000E+00 0.  1.
         13   -1    0    0    0    0 -0.00000000000E+00 -0.00000000000E+00 -0.10000000000E+04  0.10000000000E+04  0.00000000000E+00 0.  1.
    9000005    2    1    2  501    0 -0.26291780432E+01  0.14439708487E+02 -0.96583765660E+03  0.10005337151E+04  0.26078711298E+03 0.  0.
         13    1    3    3    0    0  0.58326614180E+02 -0.56267382823E+02 -0.95712336203E+02  0.12541476625E+03  0.00000000000E+00 0.  1.
          1    1    3    3  501    0 -0.60955792223E+02  0.70707091310E+02 -0.87012532040E+03  0.87511894881E+03  0.00000000000E+00 0.  1.
         21    1    1    2  502  501  0.26291780432E+01 -0.14439708487E+02 -0.13611421744E+02  0.20017206605E+02  0.00000000000E+00 0. -1.
<mgrwt>
<rscale>  1 0.30000000E+03</rscale>
<asrwt>0</asrwt>
<pdfrwt beam="1">  1        1 0.74730782E-01 0.30000000E+03</pdfrwt>
<pdfrwt beam="2">0</pdfrwt>
<totfact> 0.51578414E+01</totfact>
</mgrwt>
</event>
<event>
 6    1  0.1901260E-004  0.3000000E+03  0.7818608E-02  0.1093470E+00
          3   -1    0    0  502    0  0.00000000000E+00  0.00000000000E+00  0.35891095940E+02  0.35891095940E+02  0.00000000000E+00 0.  1.
         13   -1    0    0    0    0 -0.00000000000E+00 -0.00000000000E+00 -0.10000000000E+04  0.10000000000E+04  0.00000000000E+00 0.  1.
    9000005    2    1    2  501    0  0.76926650792E+01  0.62813487638E+01 -0.96891837962E+03  0.10248564463E+04  0.33381024046E+03 0.  0.
         13    1    3    3    0    0  0.43418490185E+02 -0.15750712831E+03 -0.41053792594E+03  0.44185410419E+03  0.00000000000E+00 0.  1.
          1    1    3    3  501    0 -0.35725825106E+02  0.16378847707E+03 -0.55838045369E+03  0.58300234207E+03  0.00000000000E+00 0.  1.
         21    1    1    2  502  501 -0.76926650792E+01 -0.62813487638E+01  0.48094755642E+01  0.11034649678E+02  0.00000000000E+00 0. -1.
<mgrwt>
<rscale>  1 0.30000000E+03</rscale>
<asrwt>0</asrwt>
<pdfrwt beam="1">  1        3 0.13051335E+00 0.30000000E+03</pdfrwt>
<pdfrwt beam="2">0</pdfrwt>
<totfact> 0.17450389E+00</totfact>
</mgrwt>
</event>
<event>
 6    1  0.1901260E-004  0.3000000E+03  0.7818608E-02  0.1093470E+00
          1   -1    0    0  502    0  0.00000000000E+00  0.00000000000E+00  0.55676928608E+02  0.55676928608E+02  0.00000000000E+00 0.  1.
         13   -1    0    0    0    0 -0.00000000000E+00 -0.00000000000E+00 -0.10000000000E+04  0.10000000000E+04  0.00000000000E+00 0.  1.
    9000005    2    1    2  501    0 -0.31529199593E+01  0.24883336596E+02 -0.92894936442E+03  0.10262580195E+04  0.43546467099E+03 0.  0.
         13    1    3    3    0    0  0.14263462454E+03 -0.56622457421E+02 -0.80177153394E+03  0.81632611832E+03  0.00000000000E+00 0.  1.
          3    1    3    3  501    0 -0.14578754450E+03  0.81505794017E+02 -0.12717783048E+03  0.20993190123E+03  0.00000000000E+00 0.  1.
         21    1    1    2  502  501  0.31529199593E+01 -0.24883336596E+02 -0.15373706968E+02  0.29418909061E+02  0.00000000000E+00 0.  1.
<mgrwt>
<rscale>  1 0.30000000E+03</rscale>
<asrwt>0</asrwt>
<pdfrwt beam="1">  1        1 0.20246199E+00 0.30000000E+03</pdfrwt>
<pdfrwt beam="2">0</pdfrwt>
<totfact> 0.99712622E+00</totfact>
</mgrwt>
</event>
<event>
 6    1  0.1901260E-004  0.3000000E+03  0.7818608E-02  0.1093470E+00
          1   -1    0    0  502    0  0.00000000000E+00  0.00000000000E+00  0.47394849257E+02  0.47394849257E+02  0.00000000000E+00 0.  1.
         13   -1    0    0    0    0 -0.00000000000E+00 -0.00000000000E+00 -0.10000000000E+04  0.10000000000E+04  0.00000000000E+00 0.  1.
    9000005    2    1    2  501    0 -0.94879203871E+01 -0.14201586555E+02 -0.97004745448E+03  0.10229829740E+04  0.32436151967E+03 0.  0.
         13    1    3    3    0    0 -0.14886591639E+03 -0.56938645285E+02 -0.32907552295E+03  0.36564158707E+03  0.00000000000E+00 0.  1.
          1    1    3    3  501    0  0.13937799600E+03  0.42737058730E+02 -0.64097193153E+03  0.65734138693E+03  0.00000000000E+00 0.  1.
         21    1    1    2  502  501  0.94879203871E+01  0.14201586555E+02  0.17442303740E+02  0.24411875260E+02  0.00000000000E+00 0.  1.
<mgrwt>
<rscale>  1 0.30000000E+03</rscale>
<asrwt>0</asrwt>
<pdfrwt beam="1">  1        1 0.17234527E+00 0.30000000E+03</pdfrwt>
<pdfrwt beam="2">0</pdfrwt>
<totfact> 0.13915629E+01</totfact>
</mgrwt>
</event>
<event>
 6    1  0.1901260E-004  0.3000000E+03  0.7818608E-02  0.1093470E+00
          1   -1    0    0  502    0  0.00000000000E+00  0.00000000000E+00  0.10980949085E+03  0.10980949085E+03  0.00000000000E+00 0.  1.
         13   -1    0    0    0    0 -0.00000000000E+00 -0.00000000000E+00 -0.10000000000E+04  0.10000000000E+04  0.00000000000E+00 0.  1.
    9000005    2    1    2  501    0 -0.11639228123E+03  0.12542795115E+03 -0.85008638284E+03  0.93406059326E+03  0.34719302920E+03 0.  0.
         13    1    3    3    0    0  0.12126582694E+03  0.47030613121E+02 -0.37789606323E+03  0.39965324214E+03  0.00000000000E+00 0.  1.
          3    1    3    3  501    0 -0.23765810817E+03  0.78397338031E+02 -0.47219031961E+03  0.53440735111E+03  0.00000000000E+00 0.  1.
         21    1    1    2  502  501  0.11639228123E+03 -0.12542795115E+03 -0.40104126308E+02  0.17574889760E+03  0.00000000000E+00 0.  1.
<mgrwt>
<rscale>  1 0.30000000E+03</rscale>
<asrwt>0</asrwt>
<pdfrwt beam="1">  1        1 0.39930808E+00 0.30000000E+03</pdfrwt>
<pdfrwt beam="2">0</pdfrwt>
<totfact> 0.10627713E+00</totfact>
</mgrwt>
</event>
<event>
 6    1  0.1901260E-004  0.3000000E+03  0.7818608E-02  0.1093470E+00
          1   -1    0    0  502    0  0.00000000000E+00  0.00000000000E+00  0.31632180236E+02  0.31632180236E+02  0.00000000000E+00 0.  1.
         13   -1    0    0    0    0 -0.00000000000E+00 -0.00000000000E+00 -0.10000000000E+04  0.10000000000E+04  0.00000000000E+00 0.  1.
    9000005    2    1    2  501    0 -0.16591254749E+02  0.61830234097E+01 -0.95218431089E+03  0.10076445694E+04  0.32920983717E+03 0.  0.
         13    1    3    3    0    0  0.64868385773E+02 -0.89433466409E+01 -0.15484735014E+02  0.67287947958E+02  0.00000000000E+00 0.  1.
          3    1    3    3  501    0 -0.81459640522E+02  0.15126370051E+02 -0.93669957587E+03  0.94035662147E+03  0.00000000000E+00 0.  1.
         21    1    1    2  502  501  0.16591254749E+02 -0.61830234097E+01 -0.16183508878E+02  0.23987610807E+02  0.00000000000E+00 0.  1.
<mgrwt>
<rscale>  1 0.30000000E+03</rscale>
<asrwt>0</asrwt>
<pdfrwt beam="1">  1        1 0.11502635E+00 0.30000000E+03</pdfrwt>
<pdfrwt beam="2">0</pdfrwt>
<totfact> 0.27756369E+01</totfact>
</mgrwt>
</event>
<event>
 6    1  0.1901260E-004  0.3000000E+03  0.7818608E-02  0.1093470E+00
          1   -1    0    0  502    0  0.00000000000E+00  0.00000000000E+00  0.46856836340E+02  0.46856836340E+02  0.00000000000E+00 0.  1.
         13   -1    0    0    0    0 -0.00000000000E+00 -0.00000000000E+00 -0.10000000000E+04  0.10000000000E+04  0.00000000000E+00 0.  1.
    9000005    2    1    2  501    0  0.20480872932E+02  0.14564375382E+02 -0.96401787328E+03  0.10194735112E+04  0.33070257462E+03 0.  0.
         13    1    3    3    0    0 -0.80298616722E+02  0.14412425109E+03 -0.54608177229E+03  0.57046031380E+03  0.00000000000E+00 0.  1.
          3    1    3    3  501    0  0.10077948965E+03 -0.12955987571E+03 -0.41793610099E+03  0.44901319740E+03  0.00000000000E+00 0.  1.
         21    1    1    2  502  501 -0.20480872932E+02 -0.14564375382E+02  0.10874709617E+02  0.27383325137E+02  0.00000000000E+00 0.  1.
<mgrwt>
<rscale>  1 0.30000000E+03</rscale>
<asrwt>0</asrwt>
<pdfrwt beam="1">  1        1 0.17038886E+00 0.30000000E+03</pdfrwt>
<pdfrwt beam="2">0</pdfrwt>
<totfact> 0.14224825E+01</totfact>
</mgrwt>
</event>
<event>
 6    1  0.1901260E-004  0.3000000E+03  0.7818608E-02  0.1093470E+00
          1   -1    0    0  502    0  0.00000000000E+00  0.00000000000E+00  0.35752386804E+02  0.35752386804E+02  0.00000000000E+00 0.  1.
         13   -1    0    0    0    0 -0.00000000000E+00 -0.00000000000E+00 -0.10000000000E+04  0.10000000000E+04  0.00000000000E+00 0.  1.
    9000005    2    1    2  501    0 -0.20599641699E+02  0.13609803199E+01 -0.96299260228E+03  0.10150697236E+04  0.32028985962E+03 0.  0.
         13    1    3    3    0    0  0.93852458721E+02  0.32941467937E+02 -0.90310634905E+02  0.13434818605E+03  0.00000000000E+00 0.  1.
          3    1    3    3  501    0 -0.11445210042E+03 -0.31580487617E+02 -0.87268196738E+03  0.88072153753E+03  0.00000000000E+00 0.  1.
         21    1    1    2  502  501  0.20599641699E+02 -0.13609803199E+01 -0.12550109136E+01  0.20682663222E+02  0.00000000000E+00 0. -1.
<mgrwt>
<rscale>  1 0.30000000E+03</rscale>
<asrwt>0</asrwt>
<pdfrwt beam="1">  1        1 0.13000895E+00 0.30000000E+03</pdfrwt>
<pdfrwt beam="2">0</pdfrwt>
<totfact> 0.22877211E+01</totfact>
</mgrwt>
</event>
<event>
 6    1  0.1901260E-004  0.3000000E+03  0.7818608E-02  0.1093470E+00
          1   -1    0    0  502    0  0.00000000000E+00  0.00000000000E+00  0.32831302441E+02  0.32831302441E+02  0.00000000000E+00 0.  1.
         13   -1    0    0    0    0 -0.00000000000E+00 -0.00000000000E+00 -0.10000000000E+04  0.10000000000E+04  0.00000000000E+00 0.  1.
    9000005    2    1    2  501    0 -0.44030038255E+01  0.88911234954E+01 -0.97071911140E+03  0.10222935627E+04  0.32045295544E+03 0.  0.
         13    1    3    3    0    0  0.36441685550E+02  0.12635140605E+03 -0.18605421661E+03  0.22783512849E+03  0.00000000000E+00 0.  1.
          3    1    3    3  501    0 -0.40844689376E+02 -0.11746028255E+03 -0.78466489478E+03  0.79445843424E+03  0.00000000000E+00 0.  1.
         21    1    1    2  502  501  0.44030038255E+01 -0.88911234954E+01  0.35504138404E+01  0.10537739707E+02  0.00000000000E+00 0.  1.
<mgrwt>
<rscale>  1 0.30000000E+03</rscale>
<asrwt>0</asrwt>
<pdfrwt beam="1">  1        1 0.11938681E+00 0.30000000E+03</pdfrwt>
<pdfrwt beam="2">0</pdfrwt>
<totfact> 0.26204673E+01</totfact>
</mgrwt>
</event>
<event>
 6    1  0.1901260E-004  0.3000000E+03  0.7818608E-02  0.1093470E+00
          1   -1    0    0  502    0  0.00000000000E+00  0.00000000000E+00  0.17192166459E+02  0.17192166459E+02  0.00000000000E+00 0.  1.
         13   -1    0    0    0    0 -0.00000000000E+00 -0.00000000000E+00 -0.10000000000E+04  0.10000000000E+04  0.00000000000E+00 0.  1.
    9000005    2    1    2  501    0  0.87039019843E+01 -0.79698839319E+01 -0.96606254590E+03  0.99670603413E+03  0.24496285212E+03 0.  0.
         13    1    3    3    0    0  0.69091154195E+01 -0.12528838852E+03 -0.42888979301E+03  0.44686840426E+03  0.00000000000E+00 0.  1.
          3    1    3    3  501    0  0.17947865647E+01  0.11731850459E+03 -0.53717275288E+03  0.54983762987E+03  0.00000000000E+00 0.  1.
         21    1    1    2  502  501 -0.87039019843E+01  0.79698839319E+01 -0.16745287644E+02  0.20486132332E+02  0.00000000000E+00 0.  1.
<mgrwt>
<rscale>  1 0.30000000E+03</rscale>
<asrwt>0</asrwt>
<pdfrwt beam="1">  1        1 0.62517101E-01 0.30000000E+03</pdfrwt>
<pdfrwt beam="2">0</pdfrwt>
<totfact> 0.65649086E+01</totfact>
</mgrwt>
</event>
<event>
 6    1  0.1901260E-004  0.3000000E+03  0.7818608E-02  0.1093470E+00
          1   -1    0    0  502    0  0.00000000000E+00  0.00000000000E+00  0.41758946012E+02  0.41758946012E+02  0.00000000000E+00 0.  1.
         13   -1    0    0    0    0 -0.00000000000E+00 -0.00000000000E+00 -0.10000000000E+04  0.10000000000E+04  0.00000000000E+00 0.  1.
    9000005    2    1    2  501    0  0.21861555700E+02  0.25983999347E+02 -0.95427163486E+03  0.10075704665E+04  0.32157549056E+03 0.  0.
         13    1    3    3    0    0 -0.62647191115E+02  0.12858528985E+03 -0.22739421711E+03  0.26863912094E+03  0.00000000000E+00 0.  1.
          1    1    3    3  501    0  0.84508746815E+02 -0.10260129051E+03 -0.72687741774E+03  0.73893134561E+03  0.00000000000E+00 0.  1.
         21    1    1    2  502  501 -0.21861555700E+02 -0.25983999347E+02 -0.39694191300E+01  0.34188479462E+02  0.00000000000E+00 0.  1.
<mgrwt>
<rscale>  1 0.30000000E+03</rscale>
<asrwt>0</asrwt>
<pdfrwt beam="1">  1        1 0.15185103E+00 0.30000000E+03</pdfrwt>
<pdfrwt beam="2">0</pdfrwt>
<totfact> 0.17580760E+01</totfact>
</mgrwt>
</event>
<event>
 6    1  0.1901260E-004  0.3000000E+03  0.7818608E-02  0.1093470E+00
          1   -1    0    0  502    0  0.00000000000E+00  0.00000000000E+00  0.33836942087E+02  0.33836942087E+02  0.00000000000E+00 0.  1.
         13   -1    0    0    0    0 -0.00000000000E+00 -0.00000000000E+00 -0.10000000000E+04  0.10000000000E+04  0.00000000000E+00 0.  1.
    9000005    2    1    2  501    0  0.10083268466E+02  0.83340939017E+00 -0.96941362052E+03  0.10232099467E+04  0.32725137198E+03 0.  0.
         13    1    3    3    0    0  0.16815057147E+02 -0.19491011039E+02  0.20596967096E+02  0.32967873935E+02  0.00000000000E+00 0.  1.
          1    1    3    3  501    0 -0.67317886810E+01  0.20324420429E+02 -0.99001058761E+03  0.99024207274E+03  0.00000000000E+00 0.  1.
         21    1    1    2  502  501 -0.10083268466E+02 -0.83340939017E+00  0.32505626041E+01  0.10626995409E+02  0.00000000000E+00 0. -1.
<mgrwt>
<rscale>  1 0.30000000E+03</rscale>
<asrwt>0</asrwt>
<pdfrwt beam="1">  1        1 0.12304369E+00 0.30000000E+03</pdfrwt>
<pdfrwt beam="2">0</pdfrwt>
<totfact> 0.24992409E+01</totfact>
</mgrwt>
</event>
<event>
 6    1  0.1901260E-004  0.3000000E+03  0.7818608E-02  0.1093470E+00
          1   -1    0    0  502    0  0.00000000000E+00  0.00000000000E+00  0.46592068511E+02  0.46592068511E+02  0.00000000000E+00 0.  1.
         13   -1    0    0    0    0 -0.00000000000E+00 -0.00000000000E+00 -0.10000000000E+04  0.10000000000E+04  0.00000000000E+00 0.  1.
    9000005    2    1    2  501    0  0.95140464650E+01 -0.14175613604E+02 -0.97251045692E+03  0.10209723187E+04  0.31034887092E+03 0.  0.
         13    1    3    3    0    0 -0.77449258641E+02  0.10892972337E+03 -0.66754244206E+03  0.68079143961E+03  0.00000000000E+00 0.  1.
          3    1    3    3  501    0  0.86963305106E+02 -0.12310533697E+03 -0.30496801486E+03  0.34018087912E+03  0.00000000000E+00 0.  1.
         21    1    1    2  502  501 -0.95140464650E+01  0.14175613604E+02  0.19102525432E+02  0.25619749785E+02  0.00000000000E+00 0.  1.
<mgrwt>
<rscale>  1 0.30000000E+03</rscale>
<asrwt>0</asrwt>
<pdfrwt beam="1">  1        1 0.16942606E+00 0.30000000E+03</pdfrwt>
<pdfrwt beam="2">0</pdfrwt>
<totfact> 0.14379810E+01</totfact>
</mgrwt>
</event>
<event>
 6    1  0.1901260E-004  0.3000000E+03  0.7818608E-02  0.1093470E+00
          1   -1    0    0  502    0  0.00000000000E+00  0.00000000000E+00  0.62081444877E+02  0.62081444877E+02  0.00000000000E+00 0.  1.
         13   -1    0    0    0    0 -0.00000000000E+00 -0.00000000000E+00 -0.10000000000E+04  0.10000000000E+04  0.00000000000E+00 0.  1.
    9000005    2    1    2  501    0  0.25799133227E+02 -0.28454564538E+02 -0.96246370515E+03  0.10164994099E+04  0.32474514495E+03 0.  0.
         13    1    3    3    0    0  0.77878704515E+02 -0.16394607138E+03 -0.51131440984E+03  0.54257334310E+03  0.00000000000E+00 0.  1.
          1    1    3    3  501    0 -0.52079571287E+02  0.13549150684E+03 -0.45114929532E+03  0.47392606685E+03  0.00000000000E+00 0.  1.
         21    1    1    2  502  501 -0.25799133227E+02  0.28454564538E+02  0.24545150030E+02  0.45582034930E+02  0.00000000000E+00 0.  1.
<mgrwt>
<rscale>  1 0.30000000E+03</rscale>
<asrwt>0</asrwt>
<pdfrwt beam="1">  1        1 0.22575118E+00 0.30000000E+03</pdfrwt>
<pdfrwt beam="2">0</pdfrwt>
<totfact> 0.77473486E+00</totfact>
</mgrwt>
</event>
<event>
 6    1  0.1901260E-004  0.3000000E+03  0.7818608E-02  0.1093470E+00
          1   -1    0    0  502    0  0.00000000000E+00  0.00000000000E+00  0.27345812831E+02  0.27345812831E+02  0.00000000000E+00 0.  1.
         13   -1    0    0    0    0 -0.00000000000E+00 -0.00000000000E+00 -0.10000000000E+04  0.10000000000E+04  0.00000000000E+00 0.  1.
    9000005    2    1    2  501    0  0.52795569066E+01 -0.80890479828E+01 -0.95851882068E+03  0.10102252111E+04  0.31890961273E+03 0.  0.
         13    1    3    3    0    0 -0.87650813439E+01  0.11088728964E+03 -0.12170254383E+03  0.16487670190E+03  0.00000000000E+00 0.  1.
          1    1    3    3  501    0  0.14044638251E+02 -0.11897633762E+03 -0.83681627685E+03  0.84534850918E+03  0.00000000000E+00 0.  1.
         21    1    1    2  502  501 -0.52795569066E+01  0.80890479828E+01 -0.14135366492E+02  0.17120601749E+02  0.00000000000E+00 0. -1.
<mgrwt>
<rscale>  1 0.30000000E+03</rscale>
<asrwt>0</asrwt>
<pdfrwt beam="1">  1        1 0.99439529E-01 0.30000000E+03</pdfrwt>
<pdfrwt beam="2">0</pdfrwt>
<totfact> 0.34509132E+01</totfact>
</mgrwt>
</event>
<event>
 6    1  0.1901260E-004  0.3000000E+03  0.7818608E-02  0.1093470E+00
          1   -1    0    0  502    0  0.00000000000E+00  0.00000000000E+00  0.75315152042E+02  0.75315152042E+02  0.00000000000E+00 0.  1.
         13   -1    0    0    0    0 -0.00000000000E+00 -0.00000000000E+00 -0.10000000000E+04  0.10000000000E+04  0.00000000000E+00 0.  1.
    9000005    2    1    2  501    0 -0.23258264679E+02 -0.34324214892E+01 -0.96783633761E+03  0.10261747465E+04  0.34025682307E+03 0.  0.
         13    1    3    3    0    0  0.67072377213E+02 -0.15208739911E+03 -0.51021146078E+03  0.53660508334E+03  0.00000000000E+00 0.  1.
          3    1    3    3  501    0 -0.90330641892E+02  0.14865497762E+03 -0.45762487683E+03  0.48956966321E+03  0.00000000000E+00 0.  1.
         21    1    1    2  502  501  0.23258264679E+02  0.34324214892E+01  0.43151489655E+02  0.49140405499E+02  0.00000000000E+00 0. -1.
<mgrwt>
<rscale>  1 0.30000000E+03</rscale>
<asrwt>0</asrwt>
<pdfrwt beam="1">  1        1 0.27387386E+00 0.30000000E+03</pdfrwt>
<pdfrwt beam="2">0</pdfrwt>
<totfact> 0.46117681E+00</totfact>
</mgrwt>
</event>
<event>
 6    1  0.1901260E-004  0.3000000E+03  0.7818608E-02  0.1093470E+00
          1   -1    0    0  502    0  0.00000000000E+00  0.00000000000E+00  0.32127575494E+02  0.32127575494E+02  0.00000000000E+00 0.  1.
         13   -1    0    0    0    0 -0.00000000000E+00 -0.00000000000E+00 -0.10000000000E+04  0.10000000000E+04  0.00000000000E+00 0.  1.
    9000005    2    1    2  501    0 -0.17612491501E+02  0.39030253200E+01 -0.87396771278E+03  0.93650577699E+03  0.33600308615E+03 0.  0.
         13    1    3    3    0    0 -0.67421023886E+01 -0.64793170132E+01  0.30506107463E+02  0.31907053862E+02  0.00000000000E+00 0.  1.
          3    1    3    3  501    0 -0.10870389112E+02  0.10382342333E+02 -0.90447382024E+03  0.90459872313E+03  0.00000000000E+00 0.  1.
         21    1    1    2  502  501  0.17612491501E+02 -0.39030253200E+01 -0.93904711730E+02  0.95621798501E+02  0.00000000000E+00 0.  1.
<mgrwt>
<rscale>  1 0.30000000E+03</rscale>
<asrwt>0</asrwt>
<pdfrwt beam="1">  1        1 0.11682779E+00 0.30000000E+03</pdfrwt>
<pdfrwt beam="2">0</pdfrwt>
<totfact> 0.27100375E+01</totfact>
</mgrwt>
</event>
<event>
 6    1  0.1901260E-004  0.3000000E+03  0.7818608E-02  0.1093470E+00
          1   -1    0    0  502    0  0.00000000000E+00  0.00000000000E+00  0.42951922473E+02  0.42951922473E+02  0.00000000000E+00 0.  1.
         13   -1    0    0    0    0 -0.00000000000E+00 -0.00000000000E+00 -0.10000000000E+04  0.10000000000E+04  0.00000000000E+00 0.  1.
    9000005    2    1    2  501    0  0.34211839847E+02  0.60199284457E+02 -0.66229735790E+03  0.74017743452E+03  0.32315699042E+03 0.  0.
         13    1    3    3    0    0 -0.12248008647E+03  0.80413205144E+02 -0.17680529050E+03  0.22962527276E+03  0.00000000000E+00 0.  1.
          3    1    3    3  501    0  0.15669192632E+03 -0.20213920686E+02 -0.48549206741E+03  0.51055216176E+03  0.00000000000E+00 0.  1.
         21    1    1    2  502  501 -0.34211839847E+02 -0.60199284457E+02 -0.29475071962E+03  0.30277448795E+03  0.00000000000E+00 0. -1.
<mgrwt>
<rscale>  1 0.30000000E+03</rscale>
<asrwt>0</asrwt>
<pdfrwt beam="1">  1        1 0.15618914E+00 0.30000000E+03</pdfrwt>
<pdfrwt beam="2">0</pdfrwt>
<totfact> 0.16718852E+01</totfact>
</mgrwt>
</event>
<event>
 6    1  0.1901260E-004  0.3000000E+03  0.7818608E-02  0.1093470E+00
          1   -1    0    0  502    0  0.00000000000E+00  0.00000000000E+00  0.55609176552E+02  0.55609176552E+02  0.00000000000E+00 0.  1.
         13   -1    0    0    0    0 -0.00000000000E+00 -0.00000000000E+00 -0.10000000000E+04  0.10000000000E+04  0.00000000000E+00 0.  1.
    9000005    2    1    2  501    0  0.12529918681E+03  0.17078224763E+02 -0.75880614258E+03  0.83103574592E+03  0.31439162997E+03 0.  0.
         13    1    3    3    0    0 -0.10639247429E+03  0.68659423556E+01 -0.25656257663E+03  0.27783242337E+03  0.00000000000E+00 0.  1.
          3    1    3    3  501    0  0.23169166109E+03  0.10212282408E+02 -0.50224356595E+03  0.55320332255E+03  0.00000000000E+00 0.  1.
         21    1    1    2  502  501 -0.12529918681E+03 -0.17078224763E+02 -0.18558468086E+03  0.22457343063E+03  0.00000000000E+00 0.  1.
<mgrwt>
<rscale>  1 0.30000000E+03</rscale>
<asrwt>0</asrwt>
<pdfrwt beam="1">  1        1 0.20221561E+00 0.30000000E+03</pdfrwt>
<pdfrwt beam="2">0</pdfrwt>
<totfact> 0.99981477E+00</totfact>
</mgrwt>
</event>
<event>
 6    1  0.1901260E-004  0.3000000E+03  0.7818608E-02  0.1093470E+00
          1   -1    0    0  502    0  0.00000000000E+00  0.00000000000E+00  0.29380614580E+02  0.29380614580E+02  0.00000000000E+00 0.  1.
         13   -1    0    0    0    0 -0.00000000000E+00 -0.00000000000E+00 -0.10000000000E+04  0.10000000000E+04  0.00000000000E+00 0.  1.
    9000005    2    1    2  501    0 -0.28372902842E+01  0.10688557842E+02 -0.96602853152E+03  0.10174068339E+04  0.31903486709E+03 0.  0.
         13    1    3    3    0    0  0.12132062661E+03  0.97783017756E+02 -0.62578984931E+03  0.64489778144E+03  0.00000000000E+00 0.  1.
          3    1    3    3  501    0 -0.12415791690E+03 -0.87094459914E+02 -0.34023868221E+03  0.37250905244E+03  0.00000000000E+00 0.  1.
         21    1    1    2  502  501  0.28372902842E+01 -0.10688557842E+02 -0.45908539011E+01  0.11973780708E+02  0.00000000000E+00 0. -1.
<mgrwt>
<rscale>  1 0.30000000E+03</rscale>
<asrwt>0</asrwt>
<pdfrwt beam="1">  1        1 0.10683882E+00 0.30000000E+03</pdfrwt>
<pdfrwt beam="2">0</pdfrwt>
<totfact> 0.31039541E+01</totfact>
</mgrwt>
</event>
<event>
 6    1  0.1901260E-004  0.3000000E+03  0.7818608E-02  0.1093470E+00
          3   -1    0    0  502    0  0.00000000000E+00  0.00000000000E+00  0.31200691236E+02  0.31200691236E+02  0.00000000000E+00 0.  1.
         13   -1    0    0    0    0 -0.00000000000E+00 -0.00000000000E+00 -0.10000000000E+04  0.10000000000E+04  0.00000000000E+00 0.  1.
    9000005    2    1    2  501    0 -0.88548239466E+01 -0.97521736936E+01 -0.91429753403E+03  0.97512969830E+03  0.33876899945E+03 0.  0.
         13    1    3    3    0    0  0.12620328440E+03 -0.12925859444E+02 -0.13916094472E+03  0.18830856425E+03  0.00000000000E+00 0.  1.
          3    1    3    3  501    0 -0.13505810834E+03  0.31736857506E+01 -0.77513658930E+03  0.78682113405E+03  0.00000000000E+00 0.  1.
         21    1    1    2  502  501  0.88548239466E+01  0.97521736936E+01 -0.54501774739E+02  0.56070992934E+02  0.00000000000E+00 0. -1.
<mgrwt>
<rscale>  1 0.30000000E+03</rscale>
<asrwt>0</asrwt>
<pdfrwt beam="1">  1        3 0.11345730E+00 0.30000000E+03</pdfrwt>
<pdfrwt beam="2">0</pdfrwt>
<totfact> 0.27517995E+00</totfact>
</mgrwt>
</event>
<event>
 6    1  0.1901260E-004  0.3000000E+03  0.7818608E-02  0.1093470E+00
          1   -1    0    0  502    0  0.00000000000E+00  0.00000000000E+00  0.87205305064E+02  0.87205305064E+02  0.00000000000E+00 0.  1.
         13   -1    0    0    0    0 -0.00000000000E+00 -0.00000000000E+00 -0.10000000000E+04  0.10000000000E+04  0.00000000000E+00 0.  1.
    9000005    2    1    2  501    0 -0.59103679529E+02 -0.21955389356E+01 -0.95913267390E+03  0.10120702692E+04  0.31757310694E+03 0.  0.
         13    1    3    3    0    0 -0.11195669208E+03 -0.73280614062E+02 -0.88920042932E+03  0.89921173969E+03  0.00000000000E+00 0.  1.
          1    1    3    3  501    0  0.52853012551E+02  0.71085075127E+02 -0.69932244581E+02  0.11285852947E+03  0.00000000000E+00 0.  1.
         21    1    1    2  502  501  0.59103679529E+02  0.21955389356E+01  0.46337978967E+02  0.75135035901E+02  0.00000000000E+00 0.  1.
<mgrwt>
<rscale>  1 0.30000000E+03</rscale>
<asrwt>0</asrwt>
<pdfrwt beam="1">  1        1 0.31711087E+00 0.30000000E+03</pdfrwt>
<pdfrwt beam="2">0</pdfrwt>
<totfact> 0.28761716E+00</totfact>
</mgrwt>
</event>
<event>
 6    1  0.1901260E-004  0.3000000E+03  0.7818608E-02  0.1093470E+00
          1   -1    0    0  502    0  0.00000000000E+00  0.00000000000E+00  0.33862677948E+02  0.33862677948E+02  0.00000000000E+00 0.  1.
         13   -1    0    0    0    0 -0.00000000000E+00 -0.00000000000E+00 -0.10000000000E+04  0.10000000000E+04  0.00000000000E+00 0.  1.
    9000005    2    1    2  501    0 -0.82236835179E+01 -0.96144713993E+01 -0.96539410214E+03  0.10211891068E+04  0.33268807053E+03 0.  0.
         13    1    3    3    0    0 -0.40722741775E+02  0.14097264871E+03 -0.69192682015E+03  0.70731489015E+03  0.00000000000E+00 0.  1.
          1    1    3    3  501    0  0.32499058257E+02 -0.15058712011E+03 -0.27346728200E+03  0.31387421661E+03  0.00000000000E+00 0.  1.
         21    1    1    2  502  501  0.82236835179E+01  0.96144713993E+01 -0.74321990674E+00  0.12673571190E+02  0.00000000000E+00 0.  1.
<mgrwt>
<rscale>  1 0.30000000E+03</rscale>
<asrwt>0</asrwt>
<pdfrwt beam="1">  1        1 0.12313727E+00 0.30000000E+03</pdfrwt>
<pdfrwt beam="2">0</pdfrwt>
<totfact> 0.24962364E+01</totfact>
</mgrwt>
</event>
<event>
 6    1  0.1901260E-004  0.3000000E+03  0.7818608E-02  0.1093470E+00
          1   -1    0    0  502    0  0.00000000000E+00  0.00000000000E+00  0.33106497734E+02  0.33106497734E+02  0.00000000000E+00 0.  1.
         13   -1    0    0    0    0 -0.00000000000E+00 -0.00000000000E+00 -0.10000000000E+04  0.10000000000E+04  0.00000000000E+00 0.  1.
    9000005    2    1    2  501    0  0.41140041686E+01  0.20982893617E+02 -0.94845953577E+03  0.10048749909E+04  0.33127186656E+03 0.  0.
         13    1    3    3    0    0 -0.14183821395E+03  0.91146175298E+02 -0.53012783115E+03  0.55629238856E+03  0.00000000000E+00 0.  1.
          1    1    3    3  501    0  0.14595221812E+03 -0.70163281681E+02 -0.41833170463E+03  0.44858260239E+03  0.00000000000E+00 0.  1.
         21    1    1    2  502  501 -0.41140041686E+01 -0.20982893617E+02 -0.18433966491E+02  0.28231506786E+02  0.00000000000E+00 0.  1.
<mgrwt>
<rscale>  1 0.30000000E+03</rscale>
<asrwt>0</asrwt>
<pdfrwt beam="1">  1        1 0.12038752E+00 0.30000000E+03</pdfrwt>
<pdfrwt beam="2">0</pdfrwt>
<totfact> 0.25865308E+01</totfact>
</mgrwt>
</event>
<event>
 6    1  0.1901260E-004  0.3000000E+03  0.7818608E-02  0.1093470E+00
          1   -1    0    0  502    0  0.00000000000E+00  0.00000000000E+00  0.26580051545E+02  0.26580051545E+02  0.00000000000E+00 0.  1.
         13   -1    0    0    0    0 -0.00000000000E+00 -0.00000000000E+00 -0.10000000000E+04  0.10000000000E+04  0.00000000000E+00 0.  1.
    9000005    2    1    2  501    0 -0.85133655997E+01 -0.46364850068E+01 -0.95530550935E+03  0.10060348017E+04  0.31528309763E+03 0.  0.
         13    1    3    3    0    0 -0.35925714047E+02 -0.95255800320E+02 -0.90964568229E+02  0.13652427292E+03  0.00000000000E+00 0.  1.
          1    1    3    3  501    0  0.27412348447E+02  0.90619315313E+02 -0.86434094112E+03  0.86951052877E+03  0.00000000000E+00 0.  1.
         21    1    1    2  502  501  0.85133655997E+01  0.46364850068E+01 -0.18114439107E+02  0.20545249846E+02  0.00000000000E+00 0.  1.
<mgrwt>
<rscale>  1 0.30000000E+03</rscale>
<asrwt>0</asrwt>
<pdfrwt beam="1">  1        1 0.96654937E-01 0.30000000E+03</pdfrwt>
<pdfrwt beam="2">0</pdfrwt>
<totfact> 0.35963355E+01</totfact>
</mgrwt>
</event>
<event>
 6    1  0.1901260E-004  0.3000000E+03  0.7818608E-02  0.1093470E+00
          1   -1    0    0  502    0  0.00000000000E+00  0.00000000000E+00  0.51192498282E+02  0.51192498282E+02  0.00000000000E+00 0.  1.
         13   -1    0    0    0    0 -0.00000000000E+00 -0.00000000000E+00 -0.10000000000E+04  0.10000000000E+04  0.00000000000E+00 0.  1.
    9000005    2    1    2  501    0 -0.45400101362E+01  0.14954828285E+02 -0.97067833152E+03  0.10243114310E+04  0.32673112164E+03 0.  0.
         13    1    3    3    0    0  0.12032265893E+03  0.10558998475E+03 -0.63507233516E+03  0.65493790394E+03  0.00000000000E+00 0.  1.
          3    1    3    3  501    0 -0.12486266907E+03 -0.90635156463E+02 -0.33560599636E+03  0.36937352708E+03  0.00000000000E+00 0.  1.
         21    1    1    2  502  501  0.45400101362E+01 -0.14954828285E+02  0.21870829801E+02  0.26881067265E+02  0.00000000000E+00 0.  1.
<mgrwt>
<rscale>  1 0.30000000E+03</rscale>
<asrwt>0</asrwt>
<pdfrwt beam="1">  1        1 0.18615493E+00 0.30000000E+03</pdfrwt>
<pdfrwt beam="2">0</pdfrwt>
<totfact> 0.11930829E+01</totfact>
</mgrwt>
</event>
<event>
 6    1  0.1901260E-004  0.3000000E+03  0.7818608E-02  0.1093470E+00
          3   -1    0    0  502    0  0.00000000000E+00  0.00000000000E+00  0.28254928138E+02  0.28254928138E+02  0.00000000000E+00 0.  1.
         13   -1    0    0    0    0 -0.00000000000E+00 -0.00000000000E+00 -0.10000000000E+04  0.10000000000E+04  0.00000000000E+00 0.  1.
    9000005    2    1    2  501    0 -0.90547123484E+01  0.21662652157E+01 -0.93548044418E+03  0.99081425852E+03  0.32634728882E+03 0.  0.
         13    1    3    3    0    0  0.10824149350E+03 -0.64164829406E+01 -0.81595751744E+03  0.82313064724E+03  0.00000000000E+00 0.  1.
          1    1    3    3  501    0 -0.11729620585E+03  0.85827481563E+01 -0.11952292675E+03  0.16768361128E+03  0.00000000000E+00 0.  1.
         21    1    1    2  502  501  0.90547123484E+01 -0.21662652157E+01 -0.36264627678E+02  0.37440669616E+02  0.00000000000E+00 0.  1.
<mgrwt>
<rscale>  1 0.30000000E+03</rscale>
<asrwt>0</asrwt>
<pdfrwt beam="1">  1        3 0.10274541E+00 0.30000000E+03</pdfrwt>
<pdfrwt beam="2">0</pdfrwt>
<totfact> 0.36449451E+00</totfact>
</mgrwt>
</event>
<event>
 6    1  0.1901260E-004  0.3000000E+03  0.7818608E-02  0.1093470E+00
          1   -1    0    0  502    0  0.00000000000E+00  0.00000000000E+00  0.51456289082E+02  0.51456289082E+02  0.00000000000E+00 0.  1.
         13   -1    0    0    0    0 -0.00000000000E+00 -0.00000000000E+00 -0.10000000000E+04  0.10000000000E+04  0.00000000000E+00 0.  1.
    9000005    2    1    2  501    0  0.21574482960E+02 -0.16402035007E+02 -0.96633151463E+03  0.10190388396E+04  0.32234930661E+03 0.  0.
         13    1    3    3    0    0 -0.68708512726E+02  0.12203685855E+03 -0.27979651257E+03  0.31288966588E+03  0.00000000000E+00 0.  1.
          1    1    3    3  501    0  0.90282995686E+02 -0.13843889356E+03 -0.68653500206E+03  0.70614917377E+03  0.00000000000E+00 0.  1.
         21    1    1    2  502  501 -0.21574482960E+02  0.16402035007E+02  0.17787803710E+02  0.32417449440E+02  0.00000000000E+00 0. -1.
<mgrwt>
<rscale>  1 0.30000000E+03</rscale>
<asrwt>0</asrwt>
<pdfrwt beam="1">  1        1 0.18711417E+00 0.30000000E+03</pdfrwt>
<pdfrwt beam="2">0</pdfrwt>
<totfact> 0.11804816E+01</totfact>
</mgrwt>
</event>
<event>
 6    1  0.1901260E-004  0.3000000E+03  0.7818608E-02  0.1093470E+00
          1   -1    0    0  502    0  0.00000000000E+00  0.00000000000E+00  0.44090679649E+02  0.44090679649E+02  0.00000000000E+00 0.  1.
         13   -1    0    0    0    0 -0.00000000000E+00 -0.00000000000E+00 -0.10000000000E+04  0.10000000000E+04  0.00000000000E+00 0.  1.
    9000005    2    1    2  501    0  0.51677358689E+02 -0.61285196245E+02 -0.85126164738E+03  0.91226670559E+03  0.31805302253E+03 0.  0.
         13    1    3    3    0    0  0.11414623890E+03 -0.41911808279E+02 -0.98005203929E+02  0.15617612982E+03  0.00000000000E+00 0.  1.
          1    1    3    3  501    0 -0.62468880215E+02 -0.19373387966E+02 -0.75325644345E+03  0.75609057576E+03  0.00000000000E+00 0.  1.
         21    1    1    2  502  501 -0.51677358689E+02  0.61285196245E+02 -0.10464767297E+03  0.13182397406E+03  0.00000000000E+00 0.  1.
<mgrwt>
<rscale>  1 0.30000000E+03</rscale>
<asrwt>0</asrwt>
<pdfrwt beam="1">  1        1 0.16033008E+00 0.30000000E+03</pdfrwt>
<pdfrwt beam="2">0</pdfrwt>
<totfact> 0.15942755E+01</totfact>
</mgrwt>
</event>
<event>
 6    1  0.1901260E-004  0.3000000E+03  0.7818608E-02  0.1093470E+00
          1   -1    0    0  502    0  0.00000000000E+00  0.00000000000E+00  0.53041299711E+02  0.53041299711E+02  0.00000000000E+00 0.  1.
         13   -1    0    0    0    0 -0.00000000000E+00 -0.00000000000E+00 -0.10000000000E+04  0.10000000000E+04  0.00000000000E+00 0.  1.
    9000005    2    1    2  501    0  0.82817469279E+01  0.13190818271E+02 -0.94793594133E+03  0.10374355309E+04  0.42124499639E+03 0.  0.
         13    1    3    3    0    0 -0.49118505865E+02 -0.19138919900E+03 -0.33762192125E+03  0.39119178777E+03  0.00000000000E+00 0.  1.
          3    1    3    3  501    0  0.57400252793E+02  0.20458001727E+03 -0.61031402008E+03  0.64624374317E+03  0.00000000000E+00 0.  1.
         21    1    1    2  502  501 -0.82817469279E+01 -0.13190818271E+02  0.97724103768E+00  0.15605768770E+02  0.00000000000E+00 0.  1.
<mgrwt>
<rscale>  1 0.30000000E+03</rscale>
<asrwt>0</asrwt>
<pdfrwt beam="1">  1        1 0.19287786E+00 0.30000000E+03</pdfrwt>
<pdfrwt beam="2">0</pdfrwt>
<totfact> 0.11076503E+01</totfact>
</mgrwt>
</event>
<event>
 6    1  0.1901260E-004  0.3000000E+03  0.7818608E-02  0.1093470E+00
          1   -1    0    0  502    0  0.00000000000E+00  0.00000000000E+00  0.36906975404E+02  0.36906975404E+02  0.00000000000E+00 0.  1.
         13   -1    0    0    0    0 -0.00000000000E+00 -0.00000000000E+00 -0.10000000000E+04  0.10000000000E+04  0.00000000000E+00 0.  1.
    9000005    2    1    2  501    0 -0.17399438137E+01  0.13088673134E+02 -0.96942981861E+03  0.10222613028E+04  0.32411364847E+03 0.  0.
         13    1    3    3    0    0 -0.15155980312E+03 -0.50595410467E+02 -0.42636312527E+03  0.45531943081E+03  0.00000000000E+00 0.  1.
          1    1    3    3  501    0  0.14981985931E+03  0.63684083601E+02 -0.54306669334E+03  0.56694187194E+03  0.00000000000E+00 0.  1.
         21    1    1    2  502  501  0.17399438137E+01 -0.13088673134E+02  0.63367940187E+01  0.14645672648E+02  0.00000000000E+00 0. -1.
<mgrwt>
<rscale>  1 0.30000000E+03</rscale>
<asrwt>0</asrwt>
<pdfrwt beam="1">  1        1 0.13420747E+00 0.30000000E+03</pdfrwt>
<pdfrwt beam="2">0</pdfrwt>
<totfact> 0.21713379E+01</totfact>
</mgrwt>
</event>
<event>
 6    1  0.1901260E-004  0.3000000E+03  0.7818608E-02  0.1093470E+00
          1   -1    0    0  502    0  0.00000000000E+00  0.00000000000E+00  0.49214520945E+02  0.49214520945E+02  0.00000000000E+00 0.  1.
         13   -1    0    0    0    0 -0.00000000000E+00 -0.00000000000E+00 -0.10000000000E+04  0.10000000000E+04  0.00000000000E+00 0.  1.
    9000005    2    1    2  501    0 -0.20372846053E+02 -0.50469601559E+01 -0.96728298727E+03  0.10225182208E+04  0.33085738585E+03 0.  0.
         13    1    3    3    0    0  0.11720713779E+03 -0.10803264032E+03 -0.48596131280E+03  0.51143617594E+03  0.00000000000E+00 0.  1.
          1    1    3    3  501    0 -0.13757998384E+03  0.10298568017E+03 -0.48132167447E+03  0.51108204487E+03  0.00000000000E+00 0.  1.
         21    1    1    2  502  501  0.20372846053E+02  0.50469601559E+01  0.16497508220E+02  0.26696300129E+02  0.00000000000E+00 0.  1.
<mgrwt>
<rscale>  1 0.30000000E+03</rscale>
<asrwt>0</asrwt>
<pdfrwt beam="1">  1        1 0.17896227E+00 0.30000000E+03</pdfrwt>
<pdfrwt beam="2">0</pdfrwt>
<totfact> 0.12923027E+01</totfact>
</mgrwt>
</event>
<event>
 6    1  0.1901260E-004  0.3000000E+03  0.7818608E-02  0.1093470E+00
          1   -1    0    0  502    0  0.00000000000E+00  0.00000000000E+00  0.33996515221E+02  0.33996515221E+02  0.00000000000E+00 0.  1.
         13   -1    0    0    0    0 -0.00000000000E+00 -0.00000000000E+00 -0.10000000000E+04  0.10000000000E+04  0.00000000000E+00 0.  1.
    9000005    2    1    2  501    0 -0.95222737287E+01 -0.32257906456E+01 -0.96664041855E+03  0.10239225335E+04  0.33752418655E+03 0.  0.
         13    1    3    3    0    0 -0.96716262427E+02  0.15085485732E+02 -0.64124413669E+02  0.11701943311E+03  0.00000000000E+00 0.  1.
          3    1    3    3  501    0  0.87193988698E+02 -0.18311276378E+02 -0.90251600488E+03  0.90690310043E+03  0.00000000000E+00 0.  1.
         21    1    1    2  502  501  0.95222737287E+01  0.32257906456E+01  0.63693376683E+00  0.10073981679E+02  0.00000000000E+00 0. -1.
<mgrwt>
<rscale>  1 0.30000000E+03</rscale>
<asrwt>0</asrwt>
<pdfrwt beam="1">  1        1 0.12362395E+00 0.30000000E+03</pdfrwt>
<pdfrwt beam="2">0</pdfrwt>
<totfact> 0.24806875E+01</totfact>
</mgrwt>
</event>
<event>
 6    1  0.1901260E-004  0.3000000E+03  0.7818608E-02  0.1093470E+00
          1   -1    0    0  502    0  0.00000000000E+00  0.00000000000E+00  0.39696961827E+02  0.39696961827E+02  0.00000000000E+00 0.  1.
         13   -1    0    0    0    0 -0.00000000000E+00 -0.00000000000E+00 -0.10000000000E+04  0.10000000000E+04  0.00000000000E+00 0.  1.
    9000005    2    1    2  501    0 -0.27901721127E+02 -0.15415307841E+01 -0.95165587788E+03  0.10104453680E+04  0.33848197810E+03 0.  0.
         13    1    3    3    0    0  0.14430716204E+03 -0.23749028980E+02 -0.60891203433E+03  0.62622874331E+03  0.00000000000E+00 0.  1.
          1    1    3    3  501    0 -0.17220888317E+03  0.22207498196E+02 -0.34274384355E+03  0.38421662472E+03  0.00000000000E+00 0.  1.
         21    1    1    2  502  501  0.27901721127E+02  0.15415307841E+01 -0.86471602959E+01  0.29251593806E+02  0.00000000000E+00 0.  1.
<mgrwt>
<rscale>  1 0.30000000E+03</rscale>
<asrwt>0</asrwt>
<pdfrwt beam="1">  1        1 0.14435289E+00 0.30000000E+03</pdfrwt>
<pdfrwt beam="2">0</pdfrwt>
<totfact> 0.19203437E+01</totfact>
</mgrwt>
</event>
<event>
 6    1  0.1901260E-004  0.3000000E+03  0.7818608E-02  0.1093470E+00
          1   -1    0    0  502    0  0.00000000000E+00  0.00000000000E+00  0.31788232528E+02  0.31788232528E+02  0.00000000000E+00 0.  1.
         13   -1    0    0    0    0 -0.00000000000E+00 -0.00000000000E+00 -0.10000000000E+04  0.10000000000E+04  0.00000000000E+00 0.  1.
    9000005    2    1    2  501    0  0.24933115237E+01  0.10121088687E+02 -0.96822903183E+03  0.10213645414E+04  0.32497602270E+03 0.  0.
         13    1    3    3    0    0 -0.55005513444E+02 -0.56606331332E+02 -0.91510247508E+03  0.91850009426E+03  0.00000000000E+00 0.  1.
          3    1    3    3  501    0  0.57498824967E+02  0.66727420019E+02 -0.53126556746E+02  0.10286444715E+03  0.00000000000E+00 0.  1.
         21    1    1    2  502  501 -0.24933115237E+01 -0.10121088687E+02  0.17264355873E-01  0.10423691122E+02  0.00000000000E+00 0.  1.
<mgrwt>
<rscale>  1 0.30000000E+03</rscale>
<asrwt>0</asrwt>
<pdfrwt beam="1">  1        1 0.11559382E+00 0.30000000E+03</pdfrwt>
<pdfrwt beam="2">0</pdfrwt>
<totfact> 0.27547364E+01</totfact>
</mgrwt>
</event>
<event>
 6    1  0.1901260E-004  0.3000000E+03  0.7818608E-02  0.1093470E+00
          3   -1    0    0  502    0  0.00000000000E+00  0.00000000000E+00  0.31683837434E+02  0.31683837434E+02  0.00000000000E+00 0.  1.
         13   -1    0    0    0    0 -0.00000000000E+00 -0.00000000000E+00 -0.10000000000E+04  0.10000000000E+04  0.00000000000E+00 0.  1.
    9000005    2    1    2  501    0 -0.32609900134E+02  0.13229488308E+02 -0.90437108626E+03  0.95869481270E+03  0.31618073516E+03 0.  0.
         13    1    3    3    0    0  0.10515971397E+02  0.10117746015E+03 -0.82403600765E+02  0.13091148733E+03  0.00000000000E+00 0.  1.
          1    1    3    3  501    0 -0.43125871530E+02 -0.87947971841E+02 -0.82196748549E+03  0.82778332537E+03  0.00000000000E+00 0.  1.
         21    1    1    2  502  501  0.32609900134E+02 -0.13229488308E+02 -0.63945076307E+02  0.72989024733E+02  0.00000000000E+00 0. -1.
<mgrwt>
<rscale>  1 0.30000000E+03</rscale>
<asrwt>0</asrwt>
<pdfrwt beam="1">  1        3 0.11521420E+00 0.30000000E+03</pdfrwt>
<pdfrwt beam="2">0</pdfrwt>
<totfact> 0.26269531E+00</totfact>
</mgrwt>
</event>
<event>
 6    1  0.1901260E-004  0.3000000E+03  0.7818608E-02  0.1093470E+00
          3   -1    0    0  502    0  0.00000000000E+00  0.00000000000E+00  0.29365020002E+02  0.29365020002E+02  0.00000000000E+00 0.  1.
         13   -1    0    0    0    0 -0.00000000000E+00 -0.00000000000E+00 -0.10000000000E+04  0.10000000000E+04  0.00000000000E+00 0.  1.
    9000005    2    1    2  501    0 -0.95635919811E+01  0.12083549929E+02 -0.92273563399E+03  0.97904780805E+03  0.32688849130E+03 0.  0.
         13    1    3    3    0    0 -0.13993058602E+02  0.15395505885E+02  0.24303803812E+02  0.31992220464E+02  0.00000000000E+00 0.  1.
          3    1    3    3  501    0  0.44294666207E+01 -0.33119559554E+01 -0.94703943780E+03  0.94705558759E+03  0.00000000000E+00 0.  1.
         21    1    1    2  502  501  0.95635919811E+01 -0.12083549929E+02 -0.47899346008E+02  0.50317211950E+02  0.00000000000E+00 0. -1.
<mgrwt>
<rscale>  1 0.30000000E+03</rscale>
<asrwt>0</asrwt>
<pdfrwt beam="1">  1        3 0.10678212E+00 0.30000000E+03</pdfrwt>
<pdfrwt beam="2">0</pdfrwt>
<totfact> 0.32790013E+00</totfact>
</mgrwt>
</event>
<event>
 6    1  0.1901260E-004  0.3000000E+03  0.7818608E-02  0.1093470E+00
          1   -1    0    0  502    0  0.00000000000E+00  0.00000000000E+00  0.35923926657E+02  0.35923926657E+02  0.00000000000E+00 0.  1.
         13   -1    0    0    0    0 -0.00000000000E+00 -0.00000000000E+00 -0.10000000000E+04  0.10000000000E+04  0.00000000000E+00 0.  1.
    9000005    2    1    2  501    0  0.13178874287E+02  0.10082919685E+02 -0.96637924553E+03  0.10191712374E+04  0.32333545562E+03 0.  0.
         13    1    3    3    0    0 -0.62973351890E+02 -0.99167668420E+02 -0.78722936774E+03  0.79594594473E+03  0.00000000000E+00 0.  1.
          1    1    3    3  501    0  0.76152226177E+02  0.10925058810E+03 -0.17914987779E+03  0.22322529262E+03  0.00000000000E+00 0.  1.
         21    1    1    2  502  501 -0.13178874287E+02 -0.10082919685E+02  0.23031721846E+01  0.16752689305E+02  0.00000000000E+00 0.  1.
<mgrwt>
<rscale>  1 0.30000000E+03</rscale>
<asrwt>0</asrwt>
<pdfrwt beam="1">  1        1 0.13063274E+00 0.30000000E+03</pdfrwt>
<pdfrwt beam="2">0</pdfrwt>
<totfact> 0.22699212E+01</totfact>
</mgrwt>
</event>
<event>
 6    1  0.1901260E-004  0.3000000E+03  0.7818608E-02  0.1093470E+00
          1   -1    0    0  502    0  0.00000000000E+00  0.00000000000E+00  0.40602773240E+02  0.40602773240E+02  0.00000000000E+00 0.  1.
         13   -1    0    0    0    0 -0.00000000000E+00 -0.00000000000E+00 -0.10000000000E+04  0.10000000000E+04  0.00000000000E+00 0.  1.
    9000005    2    1    2  501    0  0.36164395000E+02  0.11555627898E+01 -0.95482980536E+03  0.10041327838E+04  0.30866404312E+03 0.  0.
         13    1    3    3    0    0  0.14667530436E+03 -0.85907167691E+02 -0.50910336692E+03  0.53673077476E+03  0.00000000000E+00 0.  1.
          1    1    3    3  501    0 -0.11051090936E+03  0.87062730481E+02 -0.44572643844E+03  0.46740200904E+03  0.00000000000E+00 0.  1.
         21    1    1    2  502  501 -0.36164395000E+02 -0.11555627898E+01 -0.45674213972E+01  0.36469989434E+02  0.00000000000E+00 0.  1.
<mgrwt>
<rscale>  1 0.30000000E+03</rscale>
<asrwt>0</asrwt>
<pdfrwt beam="1">  1        1 0.14764676E+00 0.30000000E+03</pdfrwt>
<pdfrwt beam="2">0</pdfrwt>
<totfact> 0.18468524E+01</totfact>
</mgrwt>
</event>
<event>
 6    1  0.1901260E-004  0.3000000E+03  0.7818608E-02  0.1093470E+00
          1   -1    0    0  502    0  0.00000000000E+00  0.00000000000E+00  0.29457439583E+02  0.29457439583E+02  0.00000000000E+00 0.  1.
         13   -1    0    0    0    0 -0.00000000000E+00 -0.00000000000E+00 -0.10000000000E+04  0.10000000000E+04  0.00000000000E+00 0.  1.
    9000005    2    1    2  501    0 -0.92598786232E+01  0.75736128502E+01 -0.95481418120E+03  0.10096966988E+04  0.32813746810E+03 0.  0.
         13    1    3    3    0    0 -0.64449262643E+02  0.50396243432E+02 -0.37970240756E+02  0.90195498726E+02  0.00000000000E+00 0.  1.
          3    1    3    3  501    0  0.55189384020E+02 -0.42822630582E+02 -0.91684394044E+03  0.91950120007E+03  0.00000000000E+00 0.  1.
         21    1    1    2  502  501  0.92598786232E+01 -0.75736128502E+01 -0.15728379216E+02  0.19760740788E+02  0.00000000000E+00 0.  1.
<mgrwt>
<rscale>  1 0.30000000E+03</rscale>
<asrwt>0</asrwt>
<pdfrwt beam="1">  1        1 0.10711819E+00 0.30000000E+03</pdfrwt>
<pdfrwt beam="2">0</pdfrwt>
<totfact> 0.30918619E+01</totfact>
</mgrwt>
</event>
<event>
 6    1  0.1901260E-004  0.3000000E+03  0.7818608E-02  0.1093470E+00
          1   -1    0    0  502    0  0.00000000000E+00  0.00000000000E+00  0.31076241712E+02  0.31076241712E+02  0.00000000000E+00 0.  1.
         13   -1    0    0    0    0 -0.00000000000E+00 -0.00000000000E+00 -0.10000000000E+04  0.10000000000E+04  0.00000000000E+00 0.  1.
    9000005    2    1    2  501    0  0.45857220186E+01 -0.16827334613E+02 -0.93365975589E+03  0.99173494151E+03  0.33393632088E+03 0.  0.
         13    1    3    3    0    0  0.29951373646E+02 -0.17240058394E+03 -0.43989021821E+03  0.47341572661E+03  0.00000000000E+00 0.  1.
          3    1    3    3  501    0 -0.25365651628E+02  0.15557324933E+03 -0.49376953768E+03  0.51831921490E+03  0.00000000000E+00 0.  1.
         21    1    1    2  502  501 -0.45857220186E+01  0.16827334613E+02 -0.35264002397E+02  0.39341300203E+02  0.00000000000E+00 0.  1.
<mgrwt>
<rscale>  1 0.30000000E+03</rscale>
<asrwt>0</asrwt>
<pdfrwt beam="1">  1        1 0.11300475E+00 0.30000000E+03</pdfrwt>
<pdfrwt beam="2">0</pdfrwt>
<totfact> 0.28519380E+01</totfact>
</mgrwt>
</event>
<event>
 6    1  0.1901260E-004  0.3000000E+03  0.7818608E-02  0.1093470E+00
          1   -1    0    0  502    0  0.00000000000E+00  0.00000000000E+00  0.71861794030E+02  0.71861794030E+02  0.00000000000E+00 0.  1.
         13   -1    0    0    0    0 -0.00000000000E+00 -0.00000000000E+00 -0.10000000000E+04  0.10000000000E+04  0.00000000000E+00 0.  1.
    9000005    2    1    2  501    0 -0.17303439068E+02  0.84490689725E+01 -0.97104192056E+03  0.10248349454E+04  0.32709854475E+03 0.  0.
         13    1    3    3    0    0  0.97296360783E+02 -0.53108465909E+02 -0.11787398569E+03  0.16180657427E+03  0.00000000000E+00 0.  1.
          1    1    3    3  501    0 -0.11459979985E+03  0.61557534882E+02 -0.85316793487E+03  0.86302837110E+03  0.00000000000E+00 0.  1.
         21    1    1    2  502  501  0.17303439068E+02 -0.84490689725E+01  0.42903714591E+02  0.47026848670E+02  0.00000000000E+00 0.  1.
<mgrwt>
<rscale>  1 0.30000000E+03</rscale>
<asrwt>0</asrwt>
<pdfrwt beam="1">  1        1 0.26131617E+00 0.30000000E+03</pdfrwt>
<pdfrwt beam="2">0</pdfrwt>
<totfact> 0.52825470E+00</totfact>
</mgrwt>
</event>
<event>
 6    1  0.1901260E-004  0.3000000E+03  0.7818608E-02  0.1093470E+00
          3   -1    0    0  502    0  0.00000000000E+00  0.00000000000E+00  0.33092295909E+02  0.33092295909E+02  0.00000000000E+00 0.  1.
         13   -1    0    0    0    0 -0.00000000000E+00 -0.00000000000E+00 -0.10000000000E+04  0.10000000000E+04  0.00000000000E+00 0.  1.
    9000005    2    1    2  501    0  0.79005103989E+01 -0.13296455870E+02 -0.96321159123E+03  0.10171902503E+04  0.32658876601E+03 0.  0.
         13    1    3    3    0    0  0.70014857842E+02 -0.13303783600E+03 -0.25311624959E+03  0.29439596114E+03  0.00000000000E+00 0.  1.
          1    1    3    3  501    0 -0.62114347443E+02  0.11974138013E+03 -0.71009534164E+03  0.72279428919E+03  0.00000000000E+00 0.  1.
         21    1    1    2  502  501 -0.79005103989E+01  0.13296455870E+02 -0.36961128613E+01  0.15902045578E+02  0.00000000000E+00 0.  1.
<mgrwt>
<rscale>  1 0.30000000E+03</rscale>
<asrwt>0</asrwt>
<pdfrwt beam="1">  1        3 0.12033588E+00 0.30000000E+03</pdfrwt>
<pdfrwt beam="2">0</pdfrwt>
<totfact> 0.22923379E+00</totfact>
</mgrwt>
</event>
<event>
 6    1  0.1901260E-004  0.3000000E+03  0.7818608E-02  0.1093470E+00
          1   -1    0    0  502    0  0.00000000000E+00  0.00000000000E+00  0.61249463991E+02  0.61249463991E+02  0.00000000000E+00 0.  1.
         13   -1    0    0    0    0 -0.00000000000E+00 -0.00000000000E+00 -0.10000000000E+04  0.10000000000E+04  0.00000000000E+00 0.  1.
    9000005    2    1    2  501    0 -0.88067275015E+01 -0.11749472745E+02 -0.97138971275E+03  0.10254594596E+04  0.32825831384E+03 0.  0.
         13    1    3    3    0    0  0.91735048359E+02 -0.33308349425E+02 -0.74722362180E+02  0.12291540444E+03  0.00000000000E+00 0.  1.
          3    1    3    3  501    0 -0.10054177586E+03  0.21558876681E+02 -0.89666735057E+03  0.90254405512E+03  0.00000000000E+00 0.  1.
         21    1    1    2  502  501  0.88067275015E+01  0.11749472745E+02  0.32639176739E+02  0.35790004432E+02  0.00000000000E+00 0.  1.
<mgrwt>
<rscale>  1 0.30000000E+03</rscale>
<asrwt>0</asrwt>
<pdfrwt beam="1">  1        1 0.22272579E+00 0.30000000E+03</pdfrwt>
<pdfrwt beam="2">0</pdfrwt>
<totfact> 0.80043502E+00</totfact>
</mgrwt>
</event>
<event>
 6    1  0.1901260E-004  0.3000000E+03  0.7818608E-02  0.1093470E+00
          1   -1    0    0  502    0  0.00000000000E+00  0.00000000000E+00  0.45222176649E+02  0.45222176649E+02  0.00000000000E+00 0.  1.
         13   -1    0    0    0    0 -0.00000000000E+00 -0.00000000000E+00 -0.10000000000E+04  0.10000000000E+04  0.00000000000E+00 0.  1.
    9000005    2    1    2  501    0 -0.99043136838E+02 -0.18917534871E+02 -0.74120135517E+03  0.80903935796E+03  0.30821716005E+03 0.  0.
         13    1    3    3    0    0 -0.16736006347E+03 -0.11117211600E+03 -0.37732155416E+03  0.42748121064E+03  0.00000000000E+00 0.  1.
          1    1    3    3  501    0  0.68316926634E+02  0.92254581128E+02 -0.36387980101E+03  0.38155814732E+03  0.00000000000E+00 0.  1.
         21    1    1    2  502  501  0.99043136838E+02  0.18917534871E+02 -0.21357646818E+03  0.23618281868E+03  0.00000000000E+00 0. -1.
<mgrwt>
<rscale>  1 0.30000000E+03</rscale>
<asrwt>0</asrwt>
<pdfrwt beam="1">  1        1 0.16444463E+00 0.30000000E+03</pdfrwt>
<pdfrwt beam="2">0</pdfrwt>
<totfact> 0.15212855E+01</totfact>
</mgrwt>
</event>
<event>
 6    1  0.1901260E-004  0.3000000E+03  0.7818608E-02  0.1093470E+00
          1   -1    0    0  502    0  0.00000000000E+00  0.00000000000E+00  0.37780941837E+02  0.37780941837E+02  0.00000000000E+00 0.  1.
         13   -1    0    0    0    0 -0.00000000000E+00 -0.00000000000E+00 -0.10000000000E+04  0.10000000000E+04  0.00000000000E+00 0.  1.
    9000005    2    1    2  501    0 -0.14588536157E+01 -0.10590433696E+02 -0.97097293883E+03  0.10239637074E+04  0.32495990627E+03 0.  0.
         13    1    3    3    0    0  0.65333935104E+02 -0.26783782172E+02 -0.94926733908E+03  0.95188989652E+03  0.00000000000E+00 0.  1.
          1    1    3    3  501    0 -0.66792788720E+02  0.16193348475E+02 -0.21705599750E+02  0.72073810918E+02  0.00000000000E+00 0.  1.
         21    1    1    2  502  501  0.14588536157E+01  0.10590433696E+02  0.87538806621E+01  0.13817234397E+02  0.00000000000E+00 0.  1.
<mgrwt>
<rscale>  1 0.30000000E+03</rscale>
<asrwt>0</asrwt>
<pdfrwt beam="1">  1        1 0.13738553E+00 0.30000000E+03</pdfrwt>
<pdfrwt beam="2">0</pdfrwt>
<totfact> 0.20883986E+01</totfact>
</mgrwt>
</event>
<event>
 6    1  0.1901260E-004  0.3000000E+03  0.7818608E-02  0.1093470E+00
          1   -1    0    0  502    0  0.00000000000E+00  0.00000000000E+00  0.40859872155E+02  0.40859872155E+02  0.00000000000E+00 0.  1.
         13   -1    0    0    0    0 -0.00000000000E+00 -0.00000000000E+00 -0.10000000000E+04  0.10000000000E+04  0.00000000000E+00 0.  1.
    9000005    2    1    2  501    0  0.16180465990E+02  0.25981547229E+02 -0.94292186982E+03  0.10062205857E+04  0.34991622730E+03 0.  0.
         13    1    3    3    0    0  0.15838968271E+02  0.68888383450E+02 -0.89346095626E+01  0.71248224808E+02  0.00000000000E+00 0.  1.
          3    1    3    3  501    0  0.34149771879E+00 -0.42906836221E+02 -0.93398726026E+03  0.93497236085E+03  0.00000000000E+00 0.  1.
         21    1    1    2  502  501 -0.16180465990E+02 -0.25981547229E+02 -0.16218258021E+02  0.34639286501E+02  0.00000000000E+00 0.  1.
<mgrwt>
<rscale>  1 0.30000000E+03</rscale>
<asrwt>0</asrwt>
<pdfrwt beam="1">  1        1 0.14858167E+00 0.30000000E+03</pdfrwt>
<pdfrwt beam="2">0</pdfrwt>
<totfact> 0.18266383E+01</totfact>
</mgrwt>
</event>
<event>
 6    1  0.1901260E-004  0.3000000E+03  0.7818608E-02  0.1093470E+00
          1   -1    0    0  502    0  0.00000000000E+00  0.00000000000E+00  0.30917742031E+02  0.30917742031E+02  0.00000000000E+00 0.  1.
         13   -1    0    0    0    0 -0.00000000000E+00 -0.00000000000E+00 -0.10000000000E+04  0.10000000000E+04  0.00000000000E+00 0.  1.
    9000005    2    1    2  501    0  0.18070215740E+02 -0.75057940519E+01 -0.92868308271E+03  0.98602940275E+03  0.33078519517E+03 0.  0.
         13    1    3    3    0    0 -0.58868819762E+02 -0.29784781088E+02 -0.89773949061E+03  0.90016046577E+03  0.00000000000E+00 0.  1.
          1    1    3    3  501    0  0.76939035502E+02  0.22278987036E+02 -0.30943592094E+02  0.85868936985E+02  0.00000000000E+00 0.  1.
         21    1    1    2  502  501 -0.18070215740E+02  0.75057940519E+01 -0.40399175263E+02  0.44888339278E+02  0.00000000000E+00 0. -1.
<mgrwt>
<rscale>  1 0.30000000E+03</rscale>
<asrwt>0</asrwt>
<pdfrwt beam="1">  1        1 0.11242839E+00 0.30000000E+03</pdfrwt>
<pdfrwt beam="2">0</pdfrwt>
<totfact> 0.28742377E+01</totfact>
</mgrwt>
</event>
<event>
 6    1  0.1901260E-004  0.3000000E+03  0.7818608E-02  0.1093470E+00
          1   -1    0    0  502    0  0.00000000000E+00  0.00000000000E+00  0.35835884452E+02  0.35835884452E+02  0.00000000000E+00 0.  1.
         13   -1    0    0    0    0 -0.00000000000E+00 -0.00000000000E+00 -0.10000000000E+04  0.10000000000E+04  0.00000000000E+00 0.  1.
    9000005    2    1    2  501    0 -0.23824615426E+02 -0.26059284585E+01 -0.94415888801E+03  0.10046171034E+04  0.34241074080E+03 0.  0.
         13    1    3    3    0    0 -0.13062118938E+03  0.79545152204E+02 -0.76669400821E+03  0.78179858569E+03  0.00000000000E+00 0.  1.
          1    1    3    3  501    0  0.10679657395E+03 -0.82151080662E+02 -0.17746487980E+03  0.22281851769E+03  0.00000000000E+00 0.  1.
         21    1    1    2  502  501  0.23824615426E+02  0.26059284585E+01 -0.20005227533E+02  0.31218781077E+02  0.00000000000E+00 0. -1.
<mgrwt>
<rscale>  1 0.30000000E+03</rscale>
<asrwt>0</asrwt>
<pdfrwt beam="1">  1        1 0.13031258E+00 0.30000000E+03</pdfrwt>
<pdfrwt beam="2">0</pdfrwt>
<totfact> 0.22790343E+01</totfact>
</mgrwt>
</event>
<event>
 6    1  0.1901260E-004  0.3000000E+03  0.7818608E-02  0.1093470E+00
          1   -1    0    0  502    0  0.00000000000E+00  0.00000000000E+00  0.57086789627E+02  0.57086789627E+02  0.00000000000E+00 0.  1.
         13   -1    0    0    0    0 -0.00000000000E+00 -0.00000000000E+00 -0.10000000000E+04  0.10000000000E+04  0.00000000000E+00 0.  1.
    9000005    2    1    2  501    0 -0.17561814187E+02 -0.47509747027E+01 -0.97309537629E+03  0.10218454472E+04  0.31132381451E+03 0.  0.
         13    1    3    3    0    0 -0.15357314524E+03  0.39988928878E+02 -0.63803819796E+03  0.65747742732E+03  0.00000000000E+00 0.  1.
          1    1    3    3  501    0  0.13601133105E+03 -0.44739903581E+02 -0.33505717833E+03  0.36436801986E+03  0.00000000000E+00 0.  1.
         21    1    1    2  502  501  0.17561814187E+02  0.47509747027E+01  0.30182165918E+02  0.35241342450E+02  0.00000000000E+00 0.  1.
<mgrwt>
<rscale>  1 0.30000000E+03</rscale>
<asrwt>0</asrwt>
<pdfrwt beam="1">  1        1 0.20758876E+00 0.30000000E+03</pdfrwt>
<pdfrwt beam="2">0</pdfrwt>
<totfact> 0.94291064E+00</totfact>
</mgrwt>
</event>
<event>
 6    1  0.1901260E-004  0.3000000E+03  0.7818608E-02  0.1093470E+00
          1   -1    0    0  502    0  0.00000000000E+00  0.00000000000E+00  0.33827316379E+02  0.33827316379E+02  0.00000000000E+00 0.  1.
         13   -1    0    0    0    0 -0.00000000000E+00 -0.00000000000E+00 -0.10000000000E+04  0.10000000000E+04  0.00000000000E+00 0.  1.
    9000005    2    1    2  501    0 -0.10305496773E+02 -0.41654535956E+02 -0.85589695445E+03  0.91549710015E+03  0.32207769266E+03 0.  0.
         13    1    3    3    0    0 -0.92535919120E+02  0.11486625204E+03 -0.41743613015E+03  0.44273025076E+03  0.00000000000E+00 0.  1.
          3    1    3    3  501    0  0.82230422347E+02 -0.15652078799E+03 -0.43846082431E+03  0.47276684939E+03  0.00000000000E+00 0.  1.
         21    1    1    2  502  501  0.10305496773E+02  0.41654535956E+02 -0.11027572917E+03  0.11833021623E+03  0.00000000000E+00 0. -1.
<mgrwt>
<rscale>  1 0.30000000E+03</rscale>
<asrwt>0</asrwt>
<pdfrwt beam="1">  1        1 0.12300868E+00 0.30000000E+03</pdfrwt>
<pdfrwt beam="2">0</pdfrwt>
<totfact> 0.25003658E+01</totfact>
</mgrwt>
</event>
<event>
 6    1  0.1901260E-004  0.3000000E+03  0.7818608E-02  0.1093470E+00
          1   -1    0    0  502    0  0.00000000000E+00  0.00000000000E+00  0.29273588114E+02  0.29273588114E+02  0.00000000000E+00 0.  1.
         13   -1    0    0    0    0 -0.00000000000E+00 -0.00000000000E+00 -0.10000000000E+04  0.10000000000E+04  0.00000000000E+00 0.  1.
    9000005    2    1    2  501    0 -0.14468296940E+02 -0.71660197526E+01 -0.95257921523E+03  0.10049835860E+04  0.31988148339E+03 0.  0.
         13    1    3    3    0    0 -0.16139422392E+03  0.23536302436E+02 -0.39015609170E+03  0.42287566605E+03  0.00000000000E+00 0.  1.
          3    1    3    3  501    0  0.14692592698E+03 -0.30702322189E+02 -0.56242312353E+03  0.58210791997E+03  0.00000000000E+00 0.  1.
         21    1    1    2  502  501  0.14468296940E+02  0.71660197526E+01 -0.18147196653E+02  0.24290002095E+02  0.00000000000E+00 0.  1.
<mgrwt>
<rscale>  1 0.30000000E+03</rscale>
<asrwt>0</asrwt>
<pdfrwt beam="1">  1        1 0.10644964E+00 0.30000000E+03</pdfrwt>
<pdfrwt beam="2">0</pdfrwt>
<totfact> 0.31209136E+01</totfact>
</mgrwt>
</event>
<event>
 6    1  0.1901260E-004  0.3000000E+03  0.7818608E-02  0.1093470E+00
          1   -1    0    0  502    0  0.00000000000E+00  0.00000000000E+00  0.30206844882E+02  0.30206844882E+02  0.00000000000E+00 0.  1.
         13   -1    0    0    0    0 -0.00000000000E+00 -0.00000000000E+00 -0.10000000000E+04  0.10000000000E+04  0.00000000000E+00 0.  1.
    9000005    2    1    2  501    0  0.60622795243E+01  0.80402307305E+01 -0.97032045763E+03  0.10201234630E+04  0.31468824673E+03 0.  0.
         13    1    3    3    0    0  0.12661610092E+03  0.87552213280E+02 -0.66193188129E+03  0.67959608779E+03  0.00000000000E+00 0.  1.
          3    1    3    3  501    0 -0.12055382140E+03 -0.79511982549E+02 -0.30838857633E+03  0.34052737516E+03  0.00000000000E+00 0.  1.
         21    1    1    2  502  501 -0.60622795243E+01 -0.80402307305E+01  0.52730250951E+00  0.10083381931E+02  0.00000000000E+00 0.  1.
<mgrwt>
<rscale>  1 0.30000000E+03</rscale>
<asrwt>0</asrwt>
<pdfrwt beam="1">  1        1 0.10984330E+00 0.30000000E+03</pdfrwt>
<pdfrwt beam="2">0</pdfrwt>
<totfact> 0.29773631E+01</totfact>
</mgrwt>
</event>
<event>
 6    1  0.1901260E-004  0.3000000E+03  0.7818608E-02  0.1093470E+00
          1   -1    0    0  502    0  0.00000000000E+00  0.00000000000E+00  0.40577849107E+02  0.40577849107E+02  0.00000000000E+00 0.  1.
         13   -1    0    0    0    0 -0.00000000000E+00 -0.00000000000E+00 -0.10000000000E+04  0.10000000000E+04  0.00000000000E+00 0.  1.
    9000005    2    1    2  501    0  0.92575885138E+01 -0.43171456473E+02 -0.93738257965E+03  0.99122989778E+03  0.31921956712E+03 0.  0.
         13    1    3    3    0    0 -0.86465749794E+02 -0.94012742606E+02 -0.15261466112E+03  0.19901245300E+03  0.00000000000E+00 0.  1.
          3    1    3    3  501    0  0.95723338308E+02  0.50841286133E+02 -0.78476791852E+03  0.79221744478E+03  0.00000000000E+00 0.  1.
         21    1    1    2  502  501 -0.92575885138E+01  0.43171456473E+02 -0.22039571246E+02  0.49347951323E+02  0.00000000000E+00 0.  1.
<mgrwt>
<rscale>  1 0.30000000E+03</rscale>
<asrwt>0</asrwt>
<pdfrwt beam="1">  1        1 0.14755613E+00 0.30000000E+03</pdfrwt>
<pdfrwt beam="2">0</pdfrwt>
<totfact> 0.18488269E+01</totfact>
</mgrwt>
</event>
<event>
 6    1  0.1901260E-004  0.3000000E+03  0.7818608E-02  0.1093470E+00
          1   -1    0    0  502    0  0.00000000000E+00  0.00000000000E+00  0.34548169194E+02  0.34548169194E+02  0.00000000000E+00 0.  1.
         13   -1    0    0    0    0 -0.00000000000E+00 -0.00000000000E+00 -0.10000000000E+04  0.10000000000E+04  0.00000000000E+00 0.  1.
    9000005    2    1    2  501    0  0.90533467057E+01  0.48294401358E+01 -0.96869628612E+03  0.10237865211E+04  0.33115111286E+03 0.  0.
         13    1    3    3    0    0  0.82193977177E+02  0.12280361216E+03 -0.75245439625E+03  0.76682735702E+03  0.00000000000E+00 0.  1.
          1    1    3    3  501    0 -0.73140630472E+02 -0.11797417202E+03 -0.21624188987E+03  0.25695916412E+03  0.00000000000E+00 0.  1.
         21    1    1    2  502  501 -0.90533467057E+01 -0.48294401358E+01  0.32444553115E+01  0.10761648055E+02  0.00000000000E+00 0.  1.
<mgrwt>
<rscale>  1 0.30000000E+03</rscale>
<asrwt>0</asrwt>
<pdfrwt beam="1">  1        1 0.12562997E+00 0.30000000E+03</pdfrwt>
<pdfrwt beam="2">0</pdfrwt>
<totfact> 0.24178946E+01</totfact>
</mgrwt>
</event>
<event>
 6    1  0.1901260E-004  0.3000000E+03  0.7818608E-02  0.1093470E+00
          1   -1    0    0  502    0  0.00000000000E+00  0.00000000000E+00  0.34026709339E+02  0.34026709339E+02  0.00000000000E+00 0.  1.
         13   -1    0    0    0    0 -0.00000000000E+00 -0.00000000000E+00 -0.10000000000E+04  0.10000000000E+04  0.00000000000E+00 0.  1.
    9000005    2    1    2  501    0  0.12945053649E+02 -0.48695094567E+01 -0.95952586561E+03  0.10187670951E+04  0.34206025901E+03 0.  0.
         13    1    3    3    0    0  0.12403362105E+03 -0.58329517600E+02 -0.16395348226E+03  0.21369935919E+03  0.00000000000E+00 0.  1.
          1    1    3    3  501    0 -0.11108856741E+03  0.53460008143E+02 -0.79557238335E+03  0.80506773593E+03  0.00000000000E+00 0.  1.
         21    1    1    2  502  501 -0.12945053649E+02  0.48695094567E+01 -0.64474250551E+01  0.15259614221E+02  0.00000000000E+00 0. -1.
<mgrwt>
<rscale>  1 0.30000000E+03</rscale>
<asrwt>0</asrwt>
<pdfrwt beam="1">  1        1 0.12373375E+00 0.30000000E+03</pdfrwt>
<pdfrwt beam="2">0</pdfrwt>
<totfact> 0.24771970E+01</totfact>
</mgrwt>
</event>
<event>
 6    1  0.1901260E-004  0.3000000E+03  0.7818608E-02  0.1093470E+00
          1   -1    0    0  502    0  0.00000000000E+00  0.00000000000E+00  0.36381831796E+02  0.36381831796E+02  0.00000000000E+00 0.  1.
         13   -1    0    0    0    0 -0.00000000000E+00 -0.00000000000E+00 -0.10000000000E+04  0.10000000000E+04  0.00000000000E+00 0.  1.
    9000005    2    1    2  501    0  0.34621709867E+01  0.10402572041E+02 -0.97103633803E+03  0.10231444085E+04  0.32216876113E+03 0.  0.
         13    1    3    3    0    0 -0.11029147590E+03 -0.10927703001E+03 -0.52734975916E+03  0.54973034065E+03  0.00000000000E+00 0.  1.
          1    1    3    3  501    0  0.11375364689E+03  0.11967960205E+03 -0.44368657887E+03  0.47341406781E+03  0.00000000000E+00 0.  1.
         21    1    1    2  502  501 -0.34621709867E+01 -0.10402572041E+02  0.74181698285E+01  0.13237423338E+02  0.00000000000E+00 0.  1.
<mgrwt>
<rscale>  1 0.30000000E+03</rscale>
<asrwt>0</asrwt>
<pdfrwt beam="1">  1        1 0.13229785E+00 0.30000000E+03</pdfrwt>
<pdfrwt beam="2">0</pdfrwt>
<totfact> 0.22232843E+01</totfact>
</mgrwt>
</event>
<event>
 6    1  0.1901260E-004  0.3000000E+03  0.7818608E-02  0.1093470E+00
          1   -1    0    0  502    0  0.00000000000E+00  0.00000000000E+00  0.35300955112E+02  0.35300955112E+02  0.00000000000E+00 0.  1.
         13   -1    0    0    0    0 -0.00000000000E+00 -0.00000000000E+00 -0.10000000000E+04  0.10000000000E+04  0.00000000000E+00 0.  1.
    9000005    2    1    2  501    0  0.91646021214E+00  0.27899561383E+02 -0.94098754862E+03  0.99867500147E+03  0.33333911635E+03 0.  0.
         13    1    3    3    0    0 -0.99747944297E+01  0.13719310929E+03 -0.16439075114E+03  0.21434963219E+03  0.00000000000E+00 0.  1.
          1    1    3    3  501    0  0.10891254642E+02 -0.10929354791E+03 -0.77659679747E+03  0.78432536928E+03  0.00000000000E+00 0.  1.
         21    1    1    2  502  501 -0.91646021214E+00 -0.27899561383E+02 -0.23711496271E+02  0.36625953641E+02  0.00000000000E+00 0. -1.
<mgrwt>
<rscale>  1 0.30000000E+03</rscale>
<asrwt>0</asrwt>
<pdfrwt beam="1">  1        1 0.12836738E+00 0.30000000E+03</pdfrwt>
<pdfrwt beam="2">0</pdfrwt>
<totfact> 0.23354377E+01</totfact>
</mgrwt>
</event>
<event>
 6    1  0.1901260E-004  0.3000000E+03  0.7818608E-02  0.1093470E+00
          1   -1    0    0  502    0  0.00000000000E+00  0.00000000000E+00  0.38688087212E+02  0.38688087212E+02  0.00000000000E+00 0.  1.
         13   -1    0    0    0    0 -0.00000000000E+00 -0.00000000000E+00 -0.10000000000E+04  0.10000000000E+04  0.00000000000E+00 0.  1.
    9000005    2    1    2  501    0  0.23909275186E+02 -0.21535553684E+02 -0.86970692361E+03  0.94159582411E+03  0.35941219997E+03 0.  0.
         13    1    3    3    0    0 -0.18477990375E+02 -0.17832018839E+03 -0.30288355330E+03  0.35196302728E+03  0.00000000000E+00 0.  1.
          1    1    3    3  501    0  0.42387265561E+02  0.15678463470E+03 -0.56682337031E+03  0.58963279683E+03  0.00000000000E+00 0.  1.
         21    1    1    2  502  501 -0.23909275186E+02  0.21535553684E+02 -0.91604989175E+02  0.97092263101E+02  0.00000000000E+00 0. -1.
<mgrwt>
<rscale>  1 0.30000000E+03</rscale>
<asrwt>0</asrwt>
<pdfrwt beam="1">  1        1 0.14068425E+00 0.30000000E+03</pdfrwt>
<pdfrwt beam="2">0</pdfrwt>
<totfact> 0.20065956E+01</totfact>
</mgrwt>
</event>
<event>
 6    1  0.1901260E-004  0.3000000E+03  0.7818608E-02  0.1093470E+00
          1   -1    0    0  502    0  0.00000000000E+00  0.00000000000E+00  0.57897335169E+02  0.57897335169E+02  0.00000000000E+00 0.  1.
         13   -1    0    0    0    0 -0.00000000000E+00 -0.00000000000E+00 -0.10000000000E+04  0.10000000000E+04  0.00000000000E+00 0.  1.
    9000005    2    1    2  501    0  0.10395115367E+02  0.14752103432E+02 -0.97011423270E+03  0.10245757069E+04  0.32910191677E+03 0.  0.
         13    1    3    3    0    0 -0.51381861477E+02  0.16197910590E+03 -0.49944960654E+03  0.52756728094E+03  0.00000000000E+00 0.  1.
          3    1    3    3  501    0  0.61776976844E+02 -0.14722700247E+03 -0.47066462615E+03  0.49700842592E+03  0.00000000000E+00 0.  1.
         21    1    1    2  502  501 -0.10395115367E+02 -0.14752103432E+02  0.28011567865E+02  0.33321628313E+02  0.00000000000E+00 0.  1.
<mgrwt>
<rscale>  1 0.30000000E+03</rscale>
<asrwt>0</asrwt>
<pdfrwt beam="1">  1        1 0.21053621E+00 0.30000000E+03</pdfrwt>
<pdfrwt beam="2">0</pdfrwt>
<totfact> 0.91320335E+00</totfact>
</mgrwt>
</event>
<event>
 6    1  0.1901260E-004  0.3000000E+03  0.7818608E-02  0.1093470E+00
          1   -1    0    0  502    0  0.00000000000E+00  0.00000000000E+00  0.29185690154E+02  0.29185690154E+02  0.00000000000E+00 0.  1.
         13   -1    0    0    0    0 -0.00000000000E+00 -0.00000000000E+00 -0.10000000000E+04  0.10000000000E+04  0.00000000000E+00 0.  1.
    9000005    2    1    2  501    0 -0.29611260595E+00  0.89503828575E+01 -0.94680589049E+03  0.10035614587E+04  0.33258684603E+03 0.  0.
         13    1    3    3    0    0 -0.63963815085E+02 -0.76225331760E+02 -0.73259866394E+02  0.12356649573E+03  0.00000000000E+00 0.  1.
          3    1    3    3  501    0  0.63667702479E+02  0.85175714618E+02 -0.87354602409E+03  0.87999496300E+03  0.00000000000E+00 0.  1.
         21    1    1    2  502  501  0.29611260595E+00 -0.89503828575E+01 -0.24008419358E+02  0.25624231424E+02  0.00000000000E+00 0. -1.
<mgrwt>
<rscale>  1 0.30000000E+03</rscale>
<asrwt>0</asrwt>
<pdfrwt beam="1">  1        1 0.10613001E+00 0.30000000E+03</pdfrwt>
<pdfrwt beam="2">0</pdfrwt>
<totfact> 0.31349419E+01</totfact>
</mgrwt>
</event>
<event>
 6    1  0.1901260E-004  0.3000000E+03  0.7818608E-02  0.1093470E+00
          1   -1    0    0  502    0  0.00000000000E+00  0.00000000000E+00  0.18625932806E+02  0.18625932806E+02  0.00000000000E+00 0.  1.
         13   -1    0    0    0    0 -0.00000000000E+00 -0.00000000000E+00 -0.10000000000E+04  0.10000000000E+04  0.00000000000E+00 0.  1.
    9000005    2    1    2  501    0 -0.10611220246E+02 -0.37146758677E+01 -0.98526361597E+03  0.10067294879E+04  0.20647874470E+03 0.  0.
         13    1    3    3    0    0 -0.93209351255E+01 -0.84303301966E+02 -0.80266431769E+03  0.80713315720E+03  0.00000000000E+00 0.  1.
          1    1    3    3  501    0 -0.12902851203E+01  0.80588626099E+02 -0.18259929828E+03  0.19959633069E+03  0.00000000000E+00 0.  1.
         21    1    1    2  502  501  0.10611220246E+02  0.37146758677E+01  0.38895487802E+01  0.11896444915E+02  0.00000000000E+00 0.  1.
<mgrwt>
<rscale>  1 0.30000000E+03</rscale>
<asrwt>0</asrwt>
<pdfrwt beam="1">  1        1 0.67730808E-01 0.30000000E+03</pdfrwt>
<pdfrwt beam="2">0</pdfrwt>
<totfact> 0.58957195E+01</totfact>
</mgrwt>
</event>
<event>
 6    1  0.1901260E-004  0.3000000E+03  0.7818608E-02  0.1093470E+00
          1   -1    0    0  502    0  0.00000000000E+00  0.00000000000E+00  0.33779263723E+02  0.33779263723E+02  0.00000000000E+00 0.  1.
         13   -1    0    0    0    0 -0.00000000000E+00 -0.00000000000E+00 -0.10000000000E+04  0.10000000000E+04  0.00000000000E+00 0.  1.
    9000005    2    1    2  501    0  0.12827687396E+02 -0.64361775170E+01 -0.96498439789E+03  0.10193743174E+04  0.32821203044E+03 0.  0.
         13    1    3    3    0    0  0.14818232519E+03 -0.71844889629E+02 -0.64724895191E+03  0.66787041813E+03  0.00000000000E+00 0.  1.
          3    1    3    3  501    0 -0.13535463779E+03  0.65408712111E+02 -0.31773544599E+03  0.35150389931E+03  0.00000000000E+00 0.  1.
         21    1    1    2  502  501 -0.12827687396E+02  0.64361775170E+01 -0.12363383824E+01  0.14404946288E+02  0.00000000000E+00 0.  1.
<mgrwt>
<rscale>  1 0.30000000E+03</rscale>
<asrwt>0</asrwt>
<pdfrwt beam="1">  1        1 0.12283395E+00 0.30000000E+03</pdfrwt>
<pdfrwt beam="2">0</pdfrwt>
<totfact> 0.25059914E+01</totfact>
</mgrwt>
</event>
<event>
 6    1  0.1901260E-004  0.3000000E+03  0.7818608E-02  0.1093470E+00
          3   -1    0    0  502    0  0.00000000000E+00  0.00000000000E+00  0.18990457197E+02  0.18990457197E+02  0.00000000000E+00 0.  1.
         13   -1    0    0    0    0 -0.00000000000E+00 -0.00000000000E+00 -0.10000000000E+04  0.10000000000E+04  0.00000000000E+00 0.  1.
    9000005    2    1    2  501    0 -0.34639230259E+01  0.90463864552E+01 -0.95366205838E+03  0.98997803270E+03  0.26550206736E+03 0.  0.
         13    1    3    3    0    0  0.55603849696E+02 -0.10717059140E+03 -0.29890298861E+03  0.32236674823E+03  0.00000000000E+00 0.  1.
          3    1    3    3  501    0 -0.59067772722E+02  0.11621697786E+03 -0.65475906976E+03  0.66761128447E+03  0.00000000000E+00 0.  1.
         21    1    1    2  502  501  0.34639230259E+01 -0.90463864552E+01 -0.27347484426E+02  0.29012424495E+02  0.00000000000E+00 0.  1.
<mgrwt>
<rscale>  1 0.30000000E+03</rscale>
<asrwt>0</asrwt>
<pdfrwt beam="1">  1        3 0.69056354E-01 0.30000000E+03</pdfrwt>
<pdfrwt beam="2">0</pdfrwt>
<totfact> 0.91786326E+00</totfact>
</mgrwt>
</event>
<event>
 6    1  0.1901260E-004  0.3000000E+03  0.7818608E-02  0.1093470E+00
          1   -1    0    0  502    0  0.00000000000E+00  0.00000000000E+00  0.72792616280E+02  0.72792616280E+02  0.00000000000E+00 0.  1.
         13   -1    0    0    0    0 -0.00000000000E+00 -0.00000000000E+00 -0.10000000000E+04  0.10000000000E+04  0.00000000000E+00 0.  1.
    9000005    2    1    2  501    0 -0.46089789341E+02  0.30514308318E+01 -0.95320605838E+03  0.10197877958E+04  0.35948821786E+03 0.  0.
         13    1    3    3    0    0  0.17563778801E+02  0.14315394190E+03 -0.75606041809E+03  0.76969402570E+03  0.00000000000E+00 0.  1.
          3    1    3    3  501    0 -0.63653568142E+02 -0.14010251107E+03 -0.19714564030E+03  0.25009377008E+03  0.00000000000E+00 0.  1.
         21    1    1    2  502  501  0.46089789341E+02 -0.30514308318E+01  0.25998674664E+02  0.53004820497E+02  0.00000000000E+00 0. -1.
<mgrwt>
<rscale>  1 0.30000000E+03</rscale>
<asrwt>0</asrwt>
<pdfrwt beam="1">  1        1 0.26470098E+00 0.30000000E+03</pdfrwt>
<pdfrwt beam="2">0</pdfrwt>
<totfact> 0.50921660E+00</totfact>
</mgrwt>
</event>
<event>
 6    1  0.1901260E-004  0.3000000E+03  0.7818608E-02  0.1093470E+00
          1   -1    0    0  502    0  0.00000000000E+00  0.00000000000E+00  0.40400677060E+02  0.40400677060E+02  0.00000000000E+00 0.  1.
         13   -1    0    0    0    0 -0.00000000000E+00 -0.00000000000E+00 -0.10000000000E+04  0.10000000000E+04  0.00000000000E+00 0.  1.
    9000005    2    1    2  501    0 -0.23351781113E+02  0.50694978896E+02 -0.85954223249E+03  0.92582883098E+03  0.33945675462E+03 0.  0.
         13    1    3    3    0    0 -0.59855013885E+02  0.16925013033E+03 -0.70584956572E+03  0.72832124694E+03  0.00000000000E+00 0.  1.
          3    1    3    3  501    0  0.36503232771E+02 -0.11855515144E+03 -0.15369266677E+03  0.19750758404E+03  0.00000000000E+00 0.  1.
         21    1    1    2  502  501  0.23351781113E+02 -0.50694978896E+02 -0.10005709045E+03  0.11457184608E+03  0.00000000000E+00 0. -1.
<mgrwt>
<rscale>  1 0.30000000E+03</rscale>
<asrwt>0</asrwt>
<pdfrwt beam="1">  1        1 0.14691186E+00 0.30000000E+03</pdfrwt>
<pdfrwt beam="2">0</pdfrwt>
<totfact> 0.18629388E+01</totfact>
</mgrwt>
</event>
<event>
 6    1  0.1901260E-004  0.3000000E+03  0.7818608E-02  0.1093470E+00
          1   -1    0    0  502    0  0.00000000000E+00  0.00000000000E+00  0.52642514961E+02  0.52642514961E+02  0.00000000000E+00 0.  1.
         13   -1    0    0    0    0 -0.00000000000E+00 -0.00000000000E+00 -0.10000000000E+04  0.10000000000E+04  0.00000000000E+00 0.  1.
    9000005    2    1    2  501    0  0.13058594055E+02  0.11587791648E+02 -0.90135844818E+03  0.10034417509E+04  0.44061717115E+03 0.  0.
         13    1    3    3    0    0  0.11911014736E+02 -0.20964312325E+03 -0.33455716288E+03  0.39499443873E+03  0.00000000000E+00 0.  1.
          3    1    3    3  501    0  0.11475793191E+01  0.22123091489E+03 -0.56680128530E+03  0.60844731215E+03  0.00000000000E+00 0.  1.
         21    1    1    2  502  501 -0.13058594055E+02 -0.11587791648E+02 -0.45999036859E+02  0.49200764079E+02  0.00000000000E+00 0.  1.
<mgrwt>
<rscale>  1 0.30000000E+03</rscale>
<asrwt>0</asrwt>
<pdfrwt beam="1">  1        1 0.19142773E+00 0.30000000E+03</pdfrwt>
<pdfrwt beam="2">0</pdfrwt>
<totfact> 0.11255107E+01</totfact>
</mgrwt>
</event>
<event>
 6    1  0.1901260E-004  0.3000000E+03  0.7818608E-02  0.1093470E+00
          1   -1    0    0  502    0  0.00000000000E+00  0.00000000000E+00  0.32976633794E+02  0.32976633794E+02  0.00000000000E+00 0.  1.
         13   -1    0    0    0    0 -0.00000000000E+00 -0.00000000000E+00 -0.10000000000E+04  0.10000000000E+04  0.00000000000E+00 0.  1.
    9000005    2    1    2  501    0  0.84281024301E+01  0.10745652229E+02 -0.96475107180E+03  0.10191323110E+04  0.32817607284E+03 0.  0.
         13    1    3    3    0    0 -0.20723491133E+02  0.12913818598E+03 -0.81776093286E+03  0.82815401796E+03  0.00000000000E+00 0.  1.
          3    1    3    3  501    0  0.29151593563E+02 -0.11839253375E+03 -0.14699013894E+03  0.19097829301E+03  0.00000000000E+00 0.  1.
         21    1    1    2  502  501 -0.84281024301E+01 -0.10745652229E+02 -0.22722944067E+01  0.13844322818E+02  0.00000000000E+00 0.  1.
<mgrwt>
<rscale>  1 0.30000000E+03</rscale>
<asrwt>0</asrwt>
<pdfrwt beam="1">  1        1 0.11991528E+00 0.30000000E+03</pdfrwt>
<pdfrwt beam="2">0</pdfrwt>
<totfact> 0.26024714E+01</totfact>
</mgrwt>
</event>
<event>
 6    1  0.1901260E-004  0.3000000E+03  0.7818608E-02  0.1093470E+00
          1   -1    0    0  502    0  0.00000000000E+00  0.00000000000E+00  0.42858283130E+02  0.42858283130E+02  0.00000000000E+00 0.  1.
         13   -1    0    0    0    0 -0.00000000000E+00 -0.00000000000E+00 -0.10000000000E+04  0.10000000000E+04  0.00000000000E+00 0.  1.
    9000005    2    1    2  501    0  0.33489353843E+02 -0.63269338038E+02 -0.83863968368E+03  0.90441234485E+03  0.33093900422E+03 0.  0.
         13    1    3    3    0    0 -0.10283893021E+03  0.14006649008E+02 -0.65423479903E+03  0.66241618643E+03  0.00000000000E+00 0.  1.
          1    1    3    3  501    0  0.13632828405E+03 -0.77275987046E+02 -0.18440488466E+03  0.24199615843E+03  0.00000000000E+00 0.  1.
         21    1    1    2  502  501 -0.33489353843E+02  0.63269338038E+02 -0.11850203319E+03  0.13844593828E+03  0.00000000000E+00 0.  1.
<mgrwt>
<rscale>  1 0.30000000E+03</rscale>
<asrwt>0</asrwt>
<pdfrwt beam="1">  1        1 0.15584863E+00 0.30000000E+03</pdfrwt>
<pdfrwt beam="2">0</pdfrwt>
<totfact> 0.16784637E+01</totfact>
</mgrwt>
</event>
<event>
 6    1  0.1901260E-004  0.3000000E+03  0.7818608E-02  0.1093470E+00
          3   -1    0    0  502    0  0.00000000000E+00  0.00000000000E+00  0.29249902038E+02  0.29249902038E+02  0.00000000000E+00 0.  1.
         13   -1    0    0    0    0 -0.00000000000E+00 -0.00000000000E+00 -0.10000000000E+04  0.10000000000E+04  0.00000000000E+00 0.  1.
    9000005    2    1    2  501    0 -0.10709077191E+02 -0.89111056913E+01 -0.90423788068E+03  0.96129427544E+03  0.32595467015E+03 0.  0.
         13    1    3    3    0    0 -0.29675770033E+02  0.93234251627E+02 -0.82461752167E+03  0.83040191116E+03  0.00000000000E+00 0.  1.
          1    1    3    3  501    0  0.18966692842E+02 -0.10214535732E+03 -0.79620359012E+02  0.13089236429E+03  0.00000000000E+00 0.  1.
         21    1    1    2  502  501  0.10709077191E+02  0.89111056913E+01 -0.66512217277E+02  0.67955626596E+02  0.00000000000E+00 0.  1.
<mgrwt>
<rscale>  1 0.30000000E+03</rscale>
<asrwt>0</asrwt>
<pdfrwt beam="1">  1        3 0.10636350E+00 0.30000000E+03</pdfrwt>
<pdfrwt beam="2">0</pdfrwt>
<totfact> 0.33151795E+00</totfact>
</mgrwt>
</event>
<event>
 6    1  0.1901260E-004  0.3000000E+03  0.7818608E-02  0.1093470E+00
          1   -1    0    0  502    0  0.00000000000E+00  0.00000000000E+00  0.58507620644E+02  0.58507620644E+02  0.00000000000E+00 0.  1.
         13   -1    0    0    0    0 -0.00000000000E+00 -0.00000000000E+00 -0.10000000000E+04  0.10000000000E+04  0.00000000000E+00 0.  1.
    9000005    2    1    2  501    0  0.13944399312E+02 -0.13480855030E+02 -0.96744350062E+03  0.10261094661E+04  0.34143451754E+03 0.  0.
         13    1    3    3    0    0 -0.52139678612E+02 -0.47992456286E+02 -0.17169057143E+02  0.72915008533E+02  0.00000000000E+00 0.  1.
          3    1    3    3  501    0  0.66084077924E+02  0.34511601255E+02 -0.95027444347E+03  0.95319445755E+03  0.00000000000E+00 0.  1.
         21    1    1    2  502  501 -0.13944399312E+02  0.13480855030E+02  0.25951121262E+02  0.32398154566E+02  0.00000000000E+00 0.  1.
<mgrwt>
<rscale>  1 0.30000000E+03</rscale>
<asrwt>0</asrwt>
<pdfrwt beam="1">  1        1 0.21275543E+00 0.30000000E+03</pdfrwt>
<pdfrwt beam="2">0</pdfrwt>
<totfact> 0.89149657E+00</totfact>
</mgrwt>
</event>
<event>
 6    1  0.1901260E-004  0.3000000E+03  0.7818608E-02  0.1093470E+00
          1   -1    0    0  502    0  0.00000000000E+00  0.00000000000E+00  0.68241678204E+02  0.68241678204E+02  0.00000000000E+00 0.  1.
         13   -1    0    0    0    0 -0.00000000000E+00 -0.00000000000E+00 -0.10000000000E+04  0.10000000000E+04  0.00000000000E+00 0.  1.
    9000005    2    1    2  501    0  0.49081369143E+02 -0.88646215972E+01 -0.95830906063E+03  0.10117394301E+04  0.32058205867E+03 0.  0.
         13    1    3    3    0    0 -0.11678331772E+03  0.64854359984E+02 -0.52963795256E+03  0.54622412259E+03  0.00000000000E+00 0.  1.
          1    1    3    3  501    0  0.16586468687E+03 -0.73718981581E+02 -0.42867110807E+03  0.46551530746E+03  0.00000000000E+00 0.  1.
         21    1    1    2  502  501 -0.49081369143E+02  0.88646215972E+01  0.26550738833E+02  0.56502248146E+02  0.00000000000E+00 0.  1.
<mgrwt>
<rscale>  1 0.30000000E+03</rscale>
<asrwt>0</asrwt>
<pdfrwt beam="1">  1        1 0.24815208E+00 0.30000000E+03</pdfrwt>
<pdfrwt beam="2">0</pdfrwt>
<totfact> 0.60854990E+00</totfact>
</mgrwt>
</event>
<event>
 6    1  0.1901260E-004  0.3000000E+03  0.7818608E-02  0.1093470E+00
          1   -1    0    0  502    0  0.00000000000E+00  0.00000000000E+00  0.43152096949E+02  0.43152096949E+02  0.00000000000E+00 0.  1.
         13   -1    0    0    0    0 -0.00000000000E+00 -0.00000000000E+00 -0.10000000000E+04  0.10000000000E+04  0.00000000000E+00 0.  1.
    9000005    2    1    2  501    0  0.15847446641E+02 -0.10859987732E+02 -0.96182514535E+03  0.10233063458E+04  0.34882543798E+03 0.  0.
         13    1    3    3    0    0  0.10534236724E+03 -0.12932397150E+02 -0.70313635368E+02  0.12731169840E+03  0.00000000000E+00 0.  1.
          3    1    3    3  501    0 -0.89494920596E+02  0.20724094180E+01 -0.89151150999E+03  0.89599464738E+03  0.00000000000E+00 0.  1.
         21    1    1    2  502  501 -0.15847446641E+02  0.10859987732E+02  0.49772423024E+01  0.19845751170E+02  0.00000000000E+00 0.  1.
<mgrwt>
<rscale>  1 0.30000000E+03</rscale>
<asrwt>0</asrwt>
<pdfrwt beam="1">  1        1 0.15691705E+00 0.30000000E+03</pdfrwt>
<pdfrwt beam="2">0</pdfrwt>
<totfact> 0.16579249E+01</totfact>
</mgrwt>
</event>
<event>
 6    1  0.1901260E-004  0.3000000E+03  0.7818608E-02  0.1093470E+00
          1   -1    0    0  502    0  0.00000000000E+00  0.00000000000E+00  0.89905948975E+02  0.89905948975E+02  0.00000000000E+00 0.  1.
         13   -1    0    0    0    0 -0.00000000000E+00 -0.00000000000E+00 -0.10000000000E+04  0.10000000000E+04  0.00000000000E+00 0.  1.
    9000005    2    1    2  501    0  0.59318534089E+02  0.12003163250E+03 -0.88133400549E+03  0.95296281659E+03  0.33684153440E+03 0.  0.
         13    1    3    3    0    0 -0.97348125286E+02 -0.65691198539E+02 -0.24132929028E+03  0.26838743899E+03  0.00000000000E+00 0.  1.
          1    1    3    3  501    0  0.15666665938E+03  0.18572283104E+03 -0.64000471521E+03  0.68457537760E+03  0.00000000000E+00 0.  1.
         21    1    1    2  502  501 -0.59318534089E+02 -0.12003163250E+03 -0.28760045539E+02  0.13694313238E+03  0.00000000000E+00 0.  1.
<mgrwt>
<rscale>  1 0.30000000E+03</rscale>
<asrwt>0</asrwt>
<pdfrwt beam="1">  1        1 0.32693141E+00 0.30000000E+03</pdfrwt>
<pdfrwt beam="2">0</pdfrwt>
<totfact> 0.25748505E+00</totfact>
</mgrwt>
</event>
<event>
 6    1  0.1901260E-004  0.3000000E+03  0.7818608E-02  0.1093470E+00
          1   -1    0    0  502    0  0.00000000000E+00  0.00000000000E+00  0.39271011774E+02  0.39271011774E+02  0.00000000000E+00 0.  1.
         13   -1    0    0    0    0 -0.00000000000E+00 -0.00000000000E+00 -0.10000000000E+04  0.10000000000E+04  0.00000000000E+00 0.  1.
    9000005    2    1    2  501    0 -0.35293484199E+02  0.57073410177E+02 -0.73017119028E+03  0.79914624759E+03  0.31777626368E+03 0.  0.
         13    1    3    3    0    0 -0.12637593670E+03  0.14825086747E+03 -0.40674899950E+03  0.45099217917E+03  0.00000000000E+00 0.  1.
          3    1    3    3  501    0  0.91082452503E+02 -0.91177457290E+02 -0.32342219077E+03  0.34815406842E+03  0.00000000000E+00 0.  1.
         21    1    1    2  502  501  0.35293484199E+02 -0.57073410177E+02 -0.23055779795E+03  0.24012476418E+03  0.00000000000E+00 0.  1.
<mgrwt>
<rscale>  1 0.30000000E+03</rscale>
<asrwt>0</asrwt>
<pdfrwt beam="1">  1        1 0.14280398E+00 0.30000000E+03</pdfrwt>
<pdfrwt beam="2">0</pdfrwt>
<totfact> 0.19561753E+01</totfact>
</mgrwt>
</event>
<event>
 6    1  0.1901260E-004  0.3000000E+03  0.7818608E-02  0.1093470E+00
          1   -1    0    0  502    0  0.00000000000E+00  0.00000000000E+00  0.36529807614E+02  0.36529807614E+02  0.00000000000E+00 0.  1.
         13   -1    0    0    0    0 -0.00000000000E+00 -0.00000000000E+00 -0.10000000000E+04  0.10000000000E+04  0.00000000000E+00 0.  1.
    9000005    2    1    2  501    0  0.10896334869E+02 -0.78302595998E+01 -0.96974352721E+03  0.10217177244E+04  0.32144137371E+03 0.  0.
         13    1    3    3    0    0 -0.14803802868E+03 -0.49217274135E+02 -0.52148033874E+03  0.54431547994E+03  0.00000000000E+00 0.  1.
          1    1    3    3  501    0  0.15893436355E+03  0.41387014536E+02 -0.44826318847E+03  0.47740224447E+03  0.00000000000E+00 0.  1.
         21    1    1    2  502  501 -0.10896334869E+02  0.78302595998E+01  0.62733348240E+01  0.14812083203E+02  0.00000000000E+00 0. -1.
<mgrwt>
<rscale>  1 0.30000000E+03</rscale>
<asrwt>0</asrwt>
<pdfrwt beam="1">  1        1 0.13283594E+00 0.30000000E+03</pdfrwt>
<pdfrwt beam="2">0</pdfrwt>
<totfact> 0.22084823E+01</totfact>
</mgrwt>
</event>
<event>
 6    1  0.1901260E-004  0.3000000E+03  0.7818608E-02  0.1093470E+00
          1   -1    0    0  502    0  0.00000000000E+00  0.00000000000E+00  0.29270448190E+02  0.29270448190E+02  0.00000000000E+00 0.  1.
         13   -1    0    0    0    0 -0.00000000000E+00 -0.00000000000E+00 -0.10000000000E+04  0.10000000000E+04  0.00000000000E+00 0.  1.
    9000005    2    1    2  501    0 -0.14273556217E+02 -0.30795183600E+01 -0.96506627337E+03  0.10136086934E+04  0.30957463317E+03 0.  0.
         13    1    3    3    0    0  0.14304709959E+03 -0.76488028974E+01 -0.58414987341E+03  0.60145827079E+03  0.00000000000E+00 0.  1.
          3    1    3    3  501    0 -0.15732065581E+03  0.45692845374E+01 -0.38091639996E+03  0.41215042261E+03  0.00000000000E+00 0.  1.
         21    1    1    2  502  501  0.14273556217E+02  0.30795183600E+01 -0.56632784411E+01  0.15661754790E+02  0.00000000000E+00 0. -1.
<mgrwt>
<rscale>  1 0.30000000E+03</rscale>
<asrwt>0</asrwt>
<pdfrwt beam="1">  1        1 0.10643822E+00 0.30000000E+03</pdfrwt>
<pdfrwt beam="2">0</pdfrwt>
<totfact> 0.31214132E+01</totfact>
</mgrwt>
</event>
<event>
 6    1  0.1901260E-004  0.3000000E+03  0.7818608E-02  0.1093470E+00
          1   -1    0    0  502    0  0.00000000000E+00  0.00000000000E+00  0.38146433503E+02  0.38146433503E+02  0.00000000000E+00 0.  1.
         13   -1    0    0    0    0 -0.00000000000E+00 -0.00000000000E+00 -0.10000000000E+04  0.10000000000E+04  0.00000000000E+00 0.  1.
    9000005    2    1    2  501    0 -0.10961878375E+02  0.31391591357E+01 -0.97008512212E+03  0.10240831620E+04  0.32794993738E+03 0.  0.
         13    1    3    3    0    0 -0.16004205443E+03 -0.90040614101E+01 -0.66842812024E+03  0.68737957799E+03  0.00000000000E+00 0.  1.
          3    1    3    3  501    0  0.14908017606E+03  0.12143220546E+02 -0.30165700188E+03  0.33670358400E+03  0.00000000000E+00 0.  1.
         21    1    1    2  502  501  0.10961878375E+02 -0.31391591357E+01  0.82315556211E+01  0.14063271509E+02  0.00000000000E+00 0. -1.
<mgrwt>
<rscale>  1 0.30000000E+03</rscale>
<asrwt>0</asrwt>
<pdfrwt beam="1">  1        1 0.13871460E+00 0.30000000E+03</pdfrwt>
<pdfrwt beam="2">0</pdfrwt>
<totfact> 0.20549368E+01</totfact>
</mgrwt>
</event>
<event>
 6    1  0.1901260E-004  0.3000000E+03  0.7818608E-02  0.1093470E+00
          1   -1    0    0  502    0  0.00000000000E+00  0.00000000000E+00  0.28680704737E+02  0.28680704737E+02  0.00000000000E+00 0.  1.
         13   -1    0    0    0    0 -0.00000000000E+00 -0.00000000000E+00 -0.10000000000E+04  0.10000000000E+04  0.00000000000E+00 0.  1.
    9000005    2    1    2  501    0 -0.12740075959E+02 -0.11775530707E+02 -0.90164325120E+03  0.95687733591E+03  0.31992610222E+03 0.  0.
         13    1    3    3    0    0 -0.89372689121E+02  0.11491801335E+03 -0.25624286232E+03  0.29471008100E+03  0.00000000000E+00 0.  1.
          1    1    3    3  501    0  0.76632613162E+02 -0.12669354406E+03 -0.64540038888E+03  0.66216725491E+03  0.00000000000E+00 0.  1.
         21    1    1    2  502  501  0.12740075959E+02  0.11775530707E+02 -0.69676044060E+02  0.71803368825E+02  0.00000000000E+00 0.  1.
<mgrwt>
<rscale>  1 0.30000000E+03</rscale>
<asrwt>0</asrwt>
<pdfrwt beam="1">  1        1 0.10429369E+00 0.30000000E+03</pdfrwt>
<pdfrwt beam="2">0</pdfrwt>
<totfact> 0.32173274E+01</totfact>
</mgrwt>
</event>
<event>
 6    1  0.1901260E-004  0.3000000E+03  0.7818608E-02  0.1093470E+00
          1   -1    0    0  502    0  0.00000000000E+00  0.00000000000E+00  0.44648395092E+02  0.44648395092E+02  0.00000000000E+00 0.  1.
         13   -1    0    0    0    0 -0.00000000000E+00 -0.00000000000E+00 -0.10000000000E+04  0.10000000000E+04  0.00000000000E+00 0.  1.
    9000005    2    1    2  501    0 -0.73462025681E+02  0.22970684119E+02 -0.85585269906E+03  0.91885350723E+03  0.32539760866E+03 0.  0.
         13    1    3    3    0    0  0.98962135361E+02 -0.76237664454E+02 -0.44772882402E+03  0.46482984583E+03  0.00000000000E+00 0.  1.
          1    1    3    3  501    0 -0.17242416104E+03  0.99208348573E+02 -0.40812387504E+03  0.45402366140E+03  0.00000000000E+00 0.  1.
         21    1    1    2  502  501  0.73462025681E+02 -0.22970684119E+02 -0.99498905851E+02  0.12579488786E+03  0.00000000000E+00 0.  1.
<mgrwt>
<rscale>  1 0.30000000E+03</rscale>
<asrwt>0</asrwt>
<pdfrwt beam="1">  1        1 0.16235814E+00 0.30000000E+03</pdfrwt>
<pdfrwt beam="2">0</pdfrwt>
<totfact> 0.15578055E+01</totfact>
</mgrwt>
</event>
<event>
 6    1  0.1901260E-004  0.3000000E+03  0.7818608E-02  0.1093470E+00
          1   -1    0    0  502    0  0.00000000000E+00  0.00000000000E+00  0.35347817251E+02  0.35347817251E+02  0.00000000000E+00 0.  1.
         13   -1    0    0    0    0 -0.00000000000E+00 -0.00000000000E+00 -0.10000000000E+04  0.10000000000E+04  0.00000000000E+00 0.  1.
    9000005    2    1    2  501    0 -0.22289810508E+02 -0.30618508240E+02 -0.74279923841E+03  0.81028547564E+03  0.32152373902E+03 0.  0.
         13    1    3    3    0    0 -0.28152984048E+02 -0.17351881136E+03 -0.47854698610E+03  0.50981230498E+03  0.00000000000E+00 0.  1.
          3    1    3    3  501    0  0.58631735397E+01  0.14290030312E+03 -0.26425225231E+03  0.30047317066E+03  0.00000000000E+00 0.  1.
         21    1    1    2  502  501  0.22289810508E+02  0.30618508240E+02 -0.22185294434E+03  0.22506234161E+03  0.00000000000E+00 0. -1.
<mgrwt>
<rscale>  1 0.30000000E+03</rscale>
<asrwt>0</asrwt>
<pdfrwt beam="1">  1        1 0.12853779E+00 0.30000000E+03</pdfrwt>
<pdfrwt beam="2">0</pdfrwt>
<totfact> 0.23304248E+01</totfact>
</mgrwt>
</event>
<event>
 6    1  0.1901260E-004  0.3000000E+03  0.7818608E-02  0.1093470E+00
          1   -1    0    0  502    0  0.00000000000E+00  0.00000000000E+00  0.36311889104E+02  0.36311889104E+02  0.00000000000E+00 0.  1.
         13   -1    0    0    0    0 -0.00000000000E+00 -0.00000000000E+00 -0.10000000000E+04  0.10000000000E+04  0.00000000000E+00 0.  1.
    9000005    2    1    2  501    0  0.82197802758E+01 -0.21557142995E+02 -0.95870031338E+03  0.10127077936E+04  0.32548196429E+03 0.  0.
         13    1    3    3    0    0  0.99042897969E+02  0.11989716664E+03 -0.39626806020E+03  0.42569143959E+03  0.00000000000E+00 0.  1.
          3    1    3    3  501    0 -0.90823117693E+02 -0.14145430964E+03 -0.56243225318E+03  0.58701635398E+03  0.00000000000E+00 0.  1.
         21    1    1    2  502  501 -0.82197802758E+01  0.21557142995E+02 -0.49877975149E+01  0.23604095533E+02  0.00000000000E+00 0.  1.
<mgrwt>
<rscale>  1 0.30000000E+03</rscale>
<asrwt>0</asrwt>
<pdfrwt beam="1">  1        1 0.13204351E+00 0.30000000E+03</pdfrwt>
<pdfrwt beam="2">0</pdfrwt>
<totfact> 0.22303260E+01</totfact>
</mgrwt>
</event>
<event>
 6    1  0.1901260E-004  0.3000000E+03  0.7818608E-02  0.1093470E+00
          1   -1    0    0  502    0  0.00000000000E+00  0.00000000000E+00  0.31289877964E+02  0.31289877964E+02  0.00000000000E+00 0.  1.
         13   -1    0    0    0    0 -0.00000000000E+00 -0.00000000000E+00 -0.10000000000E+04  0.10000000000E+04  0.00000000000E+00 0.  1.
    9000005    2    1    2  501    0  0.94772959243E+01  0.15006069245E+02 -0.95562681338E+03  0.10092405193E+04  0.32408149914E+03 0.  0.
         13    1    3    3    0    0  0.15623805986E+03 -0.23575940445E+02 -0.63728676545E+03  0.65658249880E+03  0.00000000000E+00 0.  1.
          1    1    3    3  501    0 -0.14676076394E+03  0.38582009690E+02 -0.31834004794E+03  0.35265802050E+03  0.00000000000E+00 0.  1.
         21    1    1    2  502  501 -0.94772959243E+01 -0.15006069245E+02 -0.13083308653E+02  0.22049358665E+02  0.00000000000E+00 0. -1.
<mgrwt>
<rscale>  1 0.30000000E+03</rscale>
<asrwt>0</asrwt>
<pdfrwt beam="1">  1        1 0.11378161E+00 0.30000000E+03</pdfrwt>
<pdfrwt beam="2">0</pdfrwt>
<totfact> 0.28222697E+01</totfact>
</mgrwt>
</event>
<event>
 6    1  0.1901260E-004  0.3000000E+03  0.7818608E-02  0.1093470E+00
          1   -1    0    0  502    0  0.00000000000E+00  0.00000000000E+00  0.47851122201E+02  0.47851122201E+02  0.00000000000E+00 0.  1.
         13   -1    0    0    0    0 -0.00000000000E+00 -0.00000000000E+00 -0.10000000000E+04  0.10000000000E+04  0.00000000000E+00 0.  1.
    9000005    2    1    2  501    0  0.18727117693E+02  0.58753196724E+02 -0.92019992086E+03  0.97840057208E+03  0.32664528474E+03 0.  0.
         13    1    3    3    0    0 -0.98275587475E+02  0.38609958221E+02 -0.87080560104E+02  0.13686432667E+03  0.00000000000E+00 0.  1.
          3    1    3    3  501    0  0.11700270517E+03  0.20143238502E+02 -0.83311936075E+03  0.84153624541E+03  0.00000000000E+00 0.  1.
         21    1    1    2  502  501 -0.18727117693E+02 -0.58753196724E+02 -0.31948956942E+02  0.69450550120E+02  0.00000000000E+00 0.  1.
<mgrwt>
<rscale>  1 0.30000000E+03</rscale>
<asrwt>0</asrwt>
<pdfrwt beam="1">  1        1 0.17400445E+00 0.30000000E+03</pdfrwt>
<pdfrwt beam="2">0</pdfrwt>
<totfact> 0.13659242E+01</totfact>
</mgrwt>
</event>
<event>
 6    1  0.1901260E-004  0.3000000E+03  0.7818608E-02  0.1093470E+00
          1   -1    0    0  502    0  0.00000000000E+00  0.00000000000E+00  0.56264835329E+02  0.56264835329E+02  0.00000000000E+00 0.  1.
         13   -1    0    0    0    0 -0.00000000000E+00 -0.00000000000E+00 -0.10000000000E+04  0.10000000000E+04  0.00000000000E+00 0.  1.
    9000005    2    1    2  501    0  0.77722620694E+01  0.63224830075E+01 -0.97299881561E+03  0.10253335710E+04  0.32323653061E+03 0.  0.
         13    1    3    3    0    0 -0.73072403065E+02  0.12259520322E+03 -0.73218806313E+03  0.74596817609E+03  0.00000000000E+00 0.  1.
          3    1    3    3  501    0  0.80844665134E+02 -0.11627272021E+03 -0.24081075248E+03  0.27936539488E+03  0.00000000000E+00 0.  1.
         21    1    1    2  502  501 -0.77722620694E+01 -0.63224830075E+01  0.29263650938E+02  0.30931264366E+02  0.00000000000E+00 0.  1.
<mgrwt>
<rscale>  1 0.30000000E+03</rscale>
<asrwt>0</asrwt>
<pdfrwt beam="1">  1        1 0.20459983E+00 0.30000000E+03</pdfrwt>
<pdfrwt beam="2">0</pdfrwt>
<totfact> 0.97411933E+00</totfact>
</mgrwt>
</event>
<event>
 6    1  0.1901260E-004  0.3000000E+03  0.7818608E-02  0.1093470E+00
          1   -1    0    0  502    0  0.00000000000E+00  0.00000000000E+00  0.31153772763E+02  0.31153772763E+02  0.00000000000E+00 0.  1.
         13   -1    0    0    0    0 -0.00000000000E+00 -0.00000000000E+00 -0.10000000000E+04  0.10000000000E+04  0.00000000000E+00 0.  1.
    9000005    2    1    2  501    0  0.95329083196E+01  0.79296608334E+01 -0.96542781165E+03  0.10182913691E+04  0.32359341322E+03 0.  0.
         13    1    3    3    0    0  0.64339306264E+01  0.16206111800E+03 -0.60316406783E+03  0.62458954054E+03  0.00000000000E+00 0.  1.
          3    1    3    3  501    0  0.30989776932E+01 -0.15413145717E+03 -0.36226374382E+03  0.39370182859E+03  0.00000000000E+00 0.  1.
         21    1    1    2  502  501 -0.95329083196E+01 -0.79296608334E+01 -0.34184155837E+01  0.12862403627E+02  0.00000000000E+00 0. -1.
<mgrwt>
<rscale>  1 0.30000000E+03</rscale>
<asrwt>0</asrwt>
<pdfrwt beam="1">  1        1 0.11328669E+00 0.30000000E+03</pdfrwt>
<pdfrwt beam="2">0</pdfrwt>
<totfact> 0.28411199E+01</totfact>
</mgrwt>
</event>
<event>
 6    1  0.1901260E-004  0.3000000E+03  0.7818608E-02  0.1093470E+00
          1   -1    0    0  502    0  0.00000000000E+00  0.00000000000E+00  0.36518041170E+02  0.36518041170E+02  0.00000000000E+00 0.  1.
         13   -1    0    0    0    0 -0.00000000000E+00 -0.00000000000E+00 -0.10000000000E+04  0.10000000000E+04  0.00000000000E+00 0.  1.
    9000005    2    1    2  501    0 -0.17064613871E+02 -0.40989126306E+01 -0.96534393695E+03  0.10188695542E+04  0.32542011255E+03 0.  0.
         13    1    3    3    0    0 -0.49571680130E+02  0.49217749403E+02 -0.21680381204E+02  0.73142171531E+02  0.00000000000E+00 0.  1.
          1    1    3    3  501    0  0.32507066259E+02 -0.53316662034E+02 -0.94366355575E+03  0.94572738263E+03  0.00000000000E+00 0.  1.
         21    1    1    2  502  501  0.17064613871E+02  0.40989126306E+01  0.18619781187E+01  0.17648487012E+02  0.00000000000E+00 0.  1.
<mgrwt>
<rscale>  1 0.30000000E+03</rscale>
<asrwt>0</asrwt>
<pdfrwt beam="1">  1        1 0.13279316E+00 0.30000000E+03</pdfrwt>
<pdfrwt beam="2">0</pdfrwt>
<totfact> 0.22096545E+01</totfact>
</mgrwt>
</event>
<event>
 6    1  0.1901260E-004  0.3000000E+03  0.7818608E-02  0.1093470E+00
          1   -1    0    0  502    0  0.00000000000E+00  0.00000000000E+00  0.32605665992E+02  0.32605665992E+02  0.00000000000E+00 0.  1.
         13   -1    0    0    0    0 -0.00000000000E+00 -0.00000000000E+00 -0.10000000000E+04  0.10000000000E+04  0.00000000000E+00 0.  1.
    9000005    2    1    2  501    0 -0.10152639238E+02 -0.21327053264E+02 -0.92363355821E+03  0.98287715522E+03  0.33524712248E+03 0.  0.
         13    1    3    3    0    0  0.12968269740E+03 -0.10987095854E+03 -0.49724911028E+03  0.52549586793E+03  0.00000000000E+00 0.  1.
          3    1    3    3  501    0 -0.13983533664E+03  0.88543905272E+02 -0.42638444793E+03  0.45738128729E+03  0.00000000000E+00 0.  1.
         21    1    1    2  502  501  0.10152639238E+02  0.21327053264E+02 -0.43760775803E+02  0.49728510769E+02  0.00000000000E+00 0. -1.
<mgrwt>
<rscale>  1 0.30000000E+03</rscale>
<asrwt>0</asrwt>
<pdfrwt beam="1">  1        1 0.11856631E+00 0.30000000E+03</pdfrwt>
<pdfrwt beam="2">0</pdfrwt>
<totfact> 0.26487412E+01</totfact>
</mgrwt>
</event>
<event>
 6    1  0.1901260E-004  0.3000000E+03  0.7818608E-02  0.1093470E+00
          1   -1    0    0  502    0  0.00000000000E+00  0.00000000000E+00  0.29443816402E+02  0.29443816402E+02  0.00000000000E+00 0.  1.
         13   -1    0    0    0    0 -0.00000000000E+00 -0.00000000000E+00 -0.10000000000E+04  0.10000000000E+04  0.00000000000E+00 0.  1.
    9000005    2    1    2  501    0 -0.21418619071E+02 -0.41684646218E+01 -0.94804843348E+03  0.99809525733E+03  0.31132326792E+03 0.  0.
         13    1    3    3    0    0 -0.61001038328E+02  0.32009726642E+02 -0.94156280412E+03  0.94407958530E+03  0.00000000000E+00 0.  1.
          3    1    3    3  501    0  0.39582419257E+02 -0.36178191264E+02 -0.64856293619E+01  0.54015672036E+02  0.00000000000E+00 0.  1.
         21    1    1    2  502  501  0.21418619071E+02  0.41684646218E+01 -0.22507750118E+02  0.31348559067E+02  0.00000000000E+00 0. -1.
<mgrwt>
<rscale>  1 0.30000000E+03</rscale>
<asrwt>0</asrwt>
<pdfrwt beam="1">  1        1 0.10706865E+00 0.30000000E+03</pdfrwt>
<pdfrwt beam="2">0</pdfrwt>
<totfact> 0.30940013E+01</totfact>
</mgrwt>
</event>
<event>
 6    1  0.1901260E-004  0.3000000E+03  0.7818608E-02  0.1093470E+00
          1   -1    0    0  502    0  0.00000000000E+00  0.00000000000E+00  0.32119707539E+02  0.32119707539E+02  0.00000000000E+00 0.  1.
         13   -1    0    0    0    0 -0.00000000000E+00 -0.00000000000E+00 -0.10000000000E+04  0.10000000000E+04  0.00000000000E+00 0.  1.
    9000005    2    1    2  501    0 -0.19889489923E+02 -0.13938396345E+02 -0.87511114797E+03  0.93622400967E+03  0.33182224799E+03 0.  0.
         13    1    3    3    0    0  0.11532559785E+03  0.71986955726E+02 -0.62190974365E+03  0.63659551095E+03  0.00000000000E+00 0.  1.
          3    1    3    3  501    0 -0.13521508777E+03 -0.85925352071E+02 -0.25320140432E+03  0.29962849871E+03  0.00000000000E+00 0.  1.
         21    1    1    2  502  501  0.19889489923E+02  0.13938396345E+02 -0.92769144486E+02  0.95895697874E+02  0.00000000000E+00 0.  1.
<mgrwt>
<rscale>  1 0.30000000E+03</rscale>
<asrwt>0</asrwt>
<pdfrwt beam="1">  1        1 0.11679918E+00 0.30000000E+03</pdfrwt>
<pdfrwt beam="2">0</pdfrwt>
<totfact> 0.27110624E+01</totfact>
</mgrwt>
</event>
<event>
 6    1  0.1901260E-004  0.3000000E+03  0.7818608E-02  0.1093470E+00
          1   -1    0    0  502    0  0.00000000000E+00  0.00000000000E+00  0.54373833824E+02  0.54373833824E+02  0.00000000000E+00 0.  1.
         13   -1    0    0    0    0 -0.00000000000E+00 -0.00000000000E+00 -0.10000000000E+04  0.10000000000E+04  0.00000000000E+00 0.  1.
    9000005    2    1    2  501    0 -0.81295838451E+02  0.80926717750E+02 -0.77456641709E+03  0.84841368051E+03  0.32664122795E+03 0.  0.
         13    1    3    3    0    0  0.79589211356E+02 -0.64291405839E+02 -0.11389227979E+03  0.15309891843E+03  0.00000000000E+00 0.  1.
          1    1    3    3  501    0 -0.16088504981E+03  0.14521812359E+03 -0.66067413730E+03  0.69531476208E+03  0.00000000000E+00 0.  1.
         21    1    1    2  502  501  0.81295838451E+02 -0.80926717750E+02 -0.17105974908E+03  0.20596015331E+03  0.00000000000E+00 0.  1.
<mgrwt>
<rscale>  1 0.30000000E+03</rscale>
<asrwt>0</asrwt>
<pdfrwt beam="1">  1        1 0.19772345E+00 0.30000000E+03</pdfrwt>
<pdfrwt beam="2">0</pdfrwt>
<totfact> 0.10502039E+01</totfact>
</mgrwt>
</event>
<event>
 6    1  0.1901260E-004  0.3000000E+03  0.7818608E-02  0.1093470E+00
          3   -1    0    0  502    0  0.00000000000E+00  0.00000000000E+00  0.27788372062E+02  0.27788372062E+02  0.00000000000E+00 0.  1.
         13   -1    0    0    0    0 -0.00000000000E+00 -0.00000000000E+00 -0.10000000000E+04  0.10000000000E+04  0.00000000000E+00 0.  1.
    9000005    2    1    2  501    0  0.68897473498E+00 -0.11782592263E+02 -0.96525316758E+03  0.10140871189E+04  0.31067620299E+03 0.  0.
         13    1    3    3    0    0  0.56245616158E+02 -0.34209686564E+01 -0.95538422874E+03  0.95704456369E+03  0.00000000000E+00 0.  1.
          1    1    3    3  501    0 -0.55556641423E+02 -0.83616236066E+01 -0.98689388418E+01  0.57042555250E+02  0.00000000000E+00 0.  1.
         21    1    1    2  502  501 -0.68897473498E+00  0.11782592263E+02 -0.69584603598E+01  0.13701253125E+02  0.00000000000E+00 0.  1.
<mgrwt>
<rscale>  1 0.30000000E+03</rscale>
<asrwt>0</asrwt>
<pdfrwt beam="1">  1        3 0.10104884E+00 0.30000000E+03</pdfrwt>
<pdfrwt beam="2">0</pdfrwt>
<totfact> 0.38107491E+00</totfact>
</mgrwt>
</event>
<event>
 6    1  0.1901260E-004  0.3000000E+03  0.7818608E-02  0.1093470E+00
          1   -1    0    0  502    0  0.00000000000E+00  0.00000000000E+00  0.47844007616E+02  0.47844007616E+02  0.00000000000E+00 0.  1.
         13   -1    0    0    0    0 -0.00000000000E+00 -0.00000000000E+00 -0.10000000000E+04  0.10000000000E+04  0.00000000000E+00 0.  1.
    9000005    2    1    2  501    0 -0.66355643660E+01 -0.80354160398E+01 -0.97136144103E+03  0.10259934268E+04  0.33016793307E+03 0.  0.
         13    1    3    3    0    0 -0.93796477652E+02 -0.10673320043E+03 -0.78530634237E+03  0.79805752090E+03  0.00000000000E+00 0.  1.
          1    1    3    3  501    0  0.87160913286E+02  0.98697784393E+02 -0.18605509866E+03  0.22793590588E+03  0.00000000000E+00 0.  1.
         21    1    1    2  502  501  0.66355643660E+01  0.80354160398E+01  0.19205448648E+02  0.21850580843E+02  0.00000000000E+00 0.  1.
<mgrwt>
<rscale>  1 0.30000000E+03</rscale>
<asrwt>0</asrwt>
<pdfrwt beam="1">  1        1 0.17397858E+00 0.30000000E+03</pdfrwt>
<pdfrwt beam="2">0</pdfrwt>
<totfact> 0.13663200E+01</totfact>
</mgrwt>
</event>
<event>
 6    1  0.1901260E-004  0.3000000E+03  0.7818608E-02  0.1093470E+00
          1   -1    0    0  502    0  0.00000000000E+00  0.00000000000E+00  0.36979106589E+02  0.36979106589E+02  0.00000000000E+00 0.  1.
         13   -1    0    0    0    0 -0.00000000000E+00 -0.00000000000E+00 -0.10000000000E+04  0.10000000000E+04  0.00000000000E+00 0.  1.
    9000005    2    1    2  501    0 -0.53308549258E+02  0.49012856808E+01 -0.89166462052E+03  0.94777405233E+03  0.31677126566E+03 0.  0.
         13    1    3    3    0    0  0.73335039630E+02 -0.12152367538E+03 -0.37165473019E+03  0.39783573266E+03  0.00000000000E+00 0.  1.
          3    1    3    3  501    0 -0.12664358889E+03  0.12642496106E+03 -0.52000989034E+03  0.54993831966E+03  0.00000000000E+00 0.  1.
         21    1    1    2  502  501  0.53308549258E+02 -0.49012856808E+01 -0.71356272887E+02  0.89205054261E+02  0.00000000000E+00 0. -1.
<mgrwt>
<rscale>  1 0.30000000E+03</rscale>
<asrwt>0</asrwt>
<pdfrwt beam="1">  1        1 0.13446976E+00 0.30000000E+03</pdfrwt>
<pdfrwt beam="2">0</pdfrwt>
<totfact> 0.21643287E+01</totfact>
</mgrwt>
</event>
<event>
 6    1  0.1901260E-004  0.3000000E+03  0.7818608E-02  0.1093470E+00
          1   -1    0    0  502    0  0.00000000000E+00  0.00000000000E+00  0.29794097182E+02  0.29794097182E+02  0.00000000000E+00 0.  1.
         13   -1    0    0    0    0 -0.00000000000E+00 -0.00000000000E+00 -0.10000000000E+04  0.10000000000E+04  0.00000000000E+00 0.  1.
    9000005    2    1    2  501    0  0.13932731875E+02 -0.60600470010E+01 -0.92456024085E+03  0.98168618054E+03  0.32964416105E+03 0.  0.
         13    1    3    3    0    0 -0.93608489792E+02 -0.83709248784E+02 -0.76008431936E+03  0.77038818802E+03  0.00000000000E+00 0.  1.
          3    1    3    3  501    0  0.10754122167E+03  0.77649201783E+02 -0.16447592148E+03  0.21129799252E+03  0.00000000000E+00 0.  1.
         21    1    1    2  502  501 -0.13932731875E+02  0.60600470010E+01 -0.45645661972E+02  0.48107916647E+02  0.00000000000E+00 0.  1.
<mgrwt>
<rscale>  1 0.30000000E+03</rscale>
<asrwt>0</asrwt>
<pdfrwt beam="1">  1        1 0.10834240E+00 0.30000000E+03</pdfrwt>
<pdfrwt beam="2">0</pdfrwt>
<totfact> 0.30396610E+01</totfact>
</mgrwt>
</event>
<event>
 6    1  0.1901260E-004  0.3000000E+03  0.7818608E-02  0.1093470E+00
          1   -1    0    0  502    0  0.00000000000E+00  0.00000000000E+00  0.42027721647E+02  0.42027721647E+02  0.00000000000E+00 0.  1.
         13   -1    0    0    0    0 -0.00000000000E+00 -0.00000000000E+00 -0.10000000000E+04  0.10000000000E+04  0.00000000000E+00 0.  1.
    9000005    2    1    2  501    0  0.40538864036E+02 -0.90220297674E+01 -0.93505434833E+03  0.99459326123E+03  0.33639905534E+03 0.  0.
         13    1    3    3    0    0  0.66918192479E+02  0.17088441181E+02 -0.95149525096E+03  0.95399857018E+03  0.00000000000E+00 0.  1.
          1    1    3    3  501    0 -0.26379328442E+02 -0.26110470948E+02  0.16440902629E+02  0.40594691050E+02  0.00000000000E+00 0.  1.
         21    1    1    2  502  501 -0.40538864036E+02  0.90220297674E+01 -0.22917930022E+02  0.47434460416E+02  0.00000000000E+00 0. -1.
<mgrwt>
<rscale>  1 0.30000000E+03</rscale>
<asrwt>0</asrwt>
<pdfrwt beam="1">  1        1 0.15282840E+00 0.30000000E+03</pdfrwt>
<pdfrwt beam="2">0</pdfrwt>
<totfact> 0.17381964E+01</totfact>
</mgrwt>
</event>
<event>
 6    1  0.1901260E-004  0.3000000E+03  0.7818608E-02  0.1093470E+00
          1   -1    0    0  502    0  0.00000000000E+00  0.00000000000E+00  0.58495367816E+02  0.58495367816E+02  0.00000000000E+00 0.  1.
         13   -1    0    0    0    0 -0.00000000000E+00 -0.00000000000E+00 -0.10000000000E+04  0.10000000000E+04  0.00000000000E+00 0.  1.
    9000005    2    1    2  501    0  0.13030396615E+02 -0.97239565573E+02 -0.87778024477E+03  0.94150766804E+03  0.32605706020E+03 0.  0.
         13    1    3    3    0    0 -0.12529017511E+03 -0.94775834752E+02 -0.69353804692E+03  0.71110836682E+03  0.00000000000E+00 0.  1.
          1    1    3    3  501    0  0.13832057173E+03 -0.24637308212E+01 -0.18424219785E+03  0.23039930122E+03  0.00000000000E+00 0.  1.
         21    1    1    2  502  501 -0.13030396615E+02  0.97239565573E+02 -0.63724387411E+02  0.11698769978E+03  0.00000000000E+00 0.  1.
<mgrwt>
<rscale>  1 0.30000000E+03</rscale>
<asrwt>0</asrwt>
<pdfrwt beam="1">  1        1 0.21271088E+00 0.30000000E+03</pdfrwt>
<pdfrwt beam="2">0</pdfrwt>
<totfact> 0.89192699E+00</totfact>
</mgrwt>
</event>
<event>
 6    1  0.1901260E-004  0.3000000E+03  0.7818608E-02  0.1093470E+00
          1   -1    0    0  502    0  0.00000000000E+00  0.00000000000E+00  0.48254486040E+02  0.48254486040E+02  0.00000000000E+00 0.  1.
         13   -1    0    0    0    0 -0.00000000000E+00 -0.00000000000E+00 -0.10000000000E+04  0.10000000000E+04  0.00000000000E+00 0.  1.
    9000005    2    1    2  501    0  0.25968841877E+02 -0.48910841819E+02 -0.93821521639E+03  0.99124816930E+03  0.31505315375E+03 0.  0.
         13    1    3    3    0    0 -0.89681818838E+02 -0.39635276392E+02 -0.83770503295E+02  0.12896232391E+03  0.00000000000E+00 0.  1.
          1    1    3    3  501    0  0.11565066072E+03 -0.92755654270E+01 -0.85444471309E+03  0.86228584540E+03  0.00000000000E+00 0.  1.
         21    1    1    2  502  501 -0.25968841877E+02  0.48910841819E+02 -0.13530297573E+02  0.57006316740E+02  0.00000000000E+00 0.  1.
<mgrwt>
<rscale>  1 0.30000000E+03</rscale>
<asrwt>0</asrwt>
<pdfrwt beam="1">  1        1 0.17547123E+00 0.30000000E+03</pdfrwt>
<pdfrwt beam="2">0</pdfrwt>
<totfact> 0.13436819E+01</totfact>
</mgrwt>
</event>
<event>
 6    1  0.1901260E-004  0.3000000E+03  0.7818608E-02  0.1093470E+00
          1   -1    0    0  502    0  0.00000000000E+00  0.00000000000E+00  0.30505875458E+02  0.30505875458E+02  0.00000000000E+00 0.  1.
         13   -1    0    0    0    0 -0.00000000000E+00 -0.00000000000E+00 -0.10000000000E+04  0.10000000000E+04  0.00000000000E+00 0.  1.
    9000005    2    1    2  501    0  0.91758212186E+01  0.20911306752E+01 -0.95033092852E+03  0.10091564819E+04  0.33938085212E+03 0.  0.
         13    1    3    3    0    0 -0.88336494071E+01  0.18871215806E+02 -0.97446268246E+03  0.97468542395E+03  0.00000000000E+00 0.  1.
          1    1    3    3  501    0  0.18009470626E+02 -0.16780085130E+02  0.24131753945E+02  0.34471057972E+02  0.00000000000E+00 0.  1.
         21    1    1    2  502  501 -0.91758212186E+01 -0.20911306752E+01 -0.19163196025E+02  0.21349393537E+02  0.00000000000E+00 0. -1.
<mgrwt>
<rscale>  1 0.30000000E+03</rscale>
<asrwt>0</asrwt>
<pdfrwt beam="1">  1        1 0.11093069E+00 0.30000000E+03</pdfrwt>
<pdfrwt beam="2">0</pdfrwt>
<totfact> 0.29333570E+01</totfact>
</mgrwt>
</event>
<event>
 6    1  0.1901260E-004  0.3000000E+03  0.7818608E-02  0.1093470E+00
          1   -1    0    0  502    0  0.00000000000E+00  0.00000000000E+00  0.31901372959E+02  0.31901372959E+02  0.00000000000E+00 0.  1.
         13   -1    0    0    0    0 -0.00000000000E+00 -0.00000000000E+00 -0.10000000000E+04  0.10000000000E+04  0.00000000000E+00 0.  1.
    9000005    2    1    2  501    0  0.10308785686E+02  0.29320148958E+01 -0.96174503694E+03  0.10194420038E+04  0.33792545802E+03 0.  0.
         13    1    3    3    0    0 -0.43890737865E+02  0.14810610265E+03 -0.27485104622E+03  0.31528544546E+03  0.00000000000E+00 0.  1.
          1    1    3    3  501    0  0.54199523551E+02 -0.14517408775E+03 -0.68689399072E+03  0.70415655830E+03  0.00000000000E+00 0.  1.
         21    1    1    2  502  501 -0.10308785686E+02 -0.29320148958E+01 -0.63535901039E+01  0.12459369201E+02  0.00000000000E+00 0.  1.
<mgrwt>
<rscale>  1 0.30000000E+03</rscale>
<asrwt>0</asrwt>
<pdfrwt beam="1">  1        1 0.11600524E+00 0.30000000E+03</pdfrwt>
<pdfrwt beam="2">0</pdfrwt>
<totfact> 0.27397203E+01</totfact>
</mgrwt>
</event>
<event>
 6    1  0.1901260E-004  0.3000000E+03  0.7818608E-02  0.1093470E+00
          1   -1    0    0  502    0  0.00000000000E+00  0.00000000000E+00  0.36013478585E+02  0.36013478585E+02  0.00000000000E+00 0.  1.
         13   -1    0    0    0    0 -0.00000000000E+00 -0.00000000000E+00 -0.10000000000E+04  0.10000000000E+04  0.00000000000E+00 0.  1.
    9000005    2    1    2  501    0  0.23625599494E+02  0.61486593632E+01 -0.95613944323E+03  0.10103707096E+04  0.32565374406E+03 0.  0.
         13    1    3    3    0    0 -0.13630847534E+03 -0.65011177413E+02 -0.41509876117E+03  0.44171646468E+03  0.00000000000E+00 0.  1.
          1    1    3    3  501    0  0.15993407484E+03  0.71159836776E+02 -0.54104068206E+03  0.56865424496E+03  0.00000000000E+00 0.  1.
         21    1    1    2  502  501 -0.23625599494E+02 -0.61486593632E+01 -0.78470781825E+01  0.25642768950E+02  0.00000000000E+00 0. -1.
<mgrwt>
<rscale>  1 0.30000000E+03</rscale>
<asrwt>0</asrwt>
<pdfrwt beam="1">  1        1 0.13095838E+00 0.30000000E+03</pdfrwt>
<pdfrwt beam="2">0</pdfrwt>
<totfact> 0.22607005E+01</totfact>
</mgrwt>
</event>
<event>
 6    1  0.1901260E-004  0.3000000E+03  0.7818608E-02  0.1093470E+00
          1   -1    0    0  502    0  0.00000000000E+00  0.00000000000E+00  0.43935560718E+02  0.43935560718E+02  0.00000000000E+00 0.  1.
         13   -1    0    0    0    0 -0.00000000000E+00 -0.00000000000E+00 -0.10000000000E+04  0.10000000000E+04  0.00000000000E+00 0.  1.
    9000005    2    1    2  501    0 -0.38167068482E+01 -0.60862456813E+02 -0.90693697415E+03  0.96562646973E+03  0.32585425894E+03 0.  0.
         13    1    3    3    0    0 -0.13771498717E+03  0.47038545504E+02 -0.28034775212E+03  0.31586849253E+03  0.00000000000E+00 0.  1.
          1    1    3    3  501    0  0.13389828032E+03 -0.10790100232E+03 -0.62658922203E+03  0.64975797720E+03  0.00000000000E+00 0.  1.
         21    1    1    2  502  501  0.38167068482E+01  0.60862456813E+02 -0.49127465134E+02  0.78309090986E+02  0.00000000000E+00 0.  1.
<mgrwt>
<rscale>  1 0.30000000E+03</rscale>
<asrwt>0</asrwt>
<pdfrwt beam="1">  1        1 0.15976601E+00 0.30000000E+03</pdfrwt>
<pdfrwt beam="2">0</pdfrwt>
<totfact> 0.16045945E+01</totfact>
</mgrwt>
</event>
<event>
 6    1  0.1901260E-004  0.3000000E+03  0.7818608E-02  0.1093470E+00
          1   -1    0    0  502    0  0.00000000000E+00  0.00000000000E+00  0.33124663564E+02  0.33124663564E+02  0.00000000000E+00 0.  1.
         13   -1    0    0    0    0 -0.00000000000E+00 -0.00000000000E+00 -0.10000000000E+04  0.10000000000E+04  0.00000000000E+00 0.  1.
    9000005    2    1    2  501    0  0.10285872359E+02 -0.12777859633E+02 -0.93597414441E+03  0.99813957338E+03  0.34636099097E+03 0.  0.
         13    1    3    3    0    0 -0.90249219824E+02  0.38967538542E+02 -0.60573052946E+02  0.11546638248E+03  0.00000000000E+00 0.  1.
          1    1    3    3  501    0  0.10053509218E+03 -0.51745398175E+02 -0.87540109147E+03  0.88267319090E+03  0.00000000000E+00 0.  1.
         21    1    1    2  502  501 -0.10285872359E+02  0.12777859633E+02 -0.30901192023E+02  0.34985090187E+02  0.00000000000E+00 0. -1.
<mgrwt>
<rscale>  1 0.30000000E+03</rscale>
<asrwt>0</asrwt>
<pdfrwt beam="1">  1        1 0.12045358E+00 0.30000000E+03</pdfrwt>
<pdfrwt beam="2">0</pdfrwt>
<totfact> 0.25843114E+01</totfact>
</mgrwt>
</event>
<event>
 6    1  0.1901260E-004  0.3000000E+03  0.7818608E-02  0.1093470E+00
          3   -1    0    0  502    0  0.00000000000E+00  0.00000000000E+00  0.30881256121E+02  0.30881256121E+02  0.00000000000E+00 0.  1.
         13   -1    0    0    0    0 -0.00000000000E+00 -0.00000000000E+00 -0.10000000000E+04  0.10000000000E+04  0.00000000000E+00 0.  1.
    9000005    2    1    2  501    0  0.82093526614E+01  0.12744864992E+02 -0.96134969771E+03  0.10138464936E+04  0.32165454497E+03 0.  0.
         13    1    3    3    0    0  0.10403959565E+03  0.12923529041E+03 -0.41165258508E+03  0.44382862521E+03  0.00000000000E+00 0.  1.
          1    1    3    3  501    0 -0.95830242984E+02 -0.11649042542E+03 -0.54969711263E+03  0.57001786842E+03  0.00000000000E+00 0.  1.
         21    1    1    2  502  501 -0.82093526614E+01 -0.12744864992E+02 -0.77690461695E+01  0.17034762492E+02  0.00000000000E+00 0. -1.
<mgrwt>
<rscale>  1 0.30000000E+03</rscale>
<asrwt>0</asrwt>
<pdfrwt beam="1">  1        3 0.11229571E+00 0.30000000E+03</pdfrwt>
<pdfrwt beam="2">0</pdfrwt>
<totfact> 0.28372747E+00</totfact>
</mgrwt>
</event>
<event>
 6    1  0.1901260E-004  0.3000000E+03  0.7818608E-02  0.1093470E+00
          1   -1    0    0  502    0  0.00000000000E+00  0.00000000000E+00  0.37751287365E+02  0.37751287365E+02  0.00000000000E+00 0.  1.
         13   -1    0    0    0    0 -0.00000000000E+00 -0.00000000000E+00 -0.10000000000E+04  0.10000000000E+04  0.00000000000E+00 0.  1.
    9000005    2    1    2  501    0 -0.22565610646E+01 -0.10557112251E+02 -0.97338453398E+03  0.10222415742E+04  0.31206384004E+03 0.  0.
         13    1    3    3    0    0 -0.59380111046E+02  0.13079704919E+03 -0.31150012649E+03  0.34302506391E+03  0.00000000000E+00 0.  1.
          3    1    3    3  501    0  0.57123549981E+02 -0.14135416144E+03 -0.66188440749E+03  0.67921651025E+03  0.00000000000E+00 0.  1.
         21    1    1    2  502  501  0.22565610646E+01  0.10557112251E+02  0.11135821341E+02  0.15509713210E+02  0.00000000000E+00 0.  1.
<mgrwt>
<rscale>  1 0.30000000E+03</rscale>
<asrwt>0</asrwt>
<pdfrwt beam="1">  1        1 0.13727770E+00 0.30000000E+03</pdfrwt>
<pdfrwt beam="2">0</pdfrwt>
<totfact> 0.20911441E+01</totfact>
</mgrwt>
</event>
<event>
 6    1  0.1901260E-004  0.3000000E+03  0.7818608E-02  0.1093470E+00
          1   -1    0    0  502    0  0.00000000000E+00  0.00000000000E+00  0.26533472763E+02  0.26533472763E+02  0.00000000000E+00 0.  1.
         13   -1    0    0    0    0 -0.00000000000E+00 -0.00000000000E+00 -0.10000000000E+04  0.10000000000E+04  0.00000000000E+00 0.  1.
    9000005    2    1    2  501    0 -0.18706757835E+02 -0.98925705914E+00 -0.93643059342E+03  0.98502947523E+03  0.30500801521E+03 0.  0.
         13    1    3    3    0    0  0.42255927263E+02 -0.12767314960E+03 -0.67427269712E+03  0.68755339182E+03  0.00000000000E+00 0.  1.
          1    1    3    3  501    0 -0.60962685099E+02  0.12668389254E+03 -0.26215789630E+03  0.29747608340E+03  0.00000000000E+00 0.  1.
         21    1    1    2  502  501  0.18706757835E+02  0.98925705914E+00 -0.37035933812E+02  0.41503997537E+02  0.00000000000E+00 0.  1.
<mgrwt>
<rscale>  1 0.30000000E+03</rscale>
<asrwt>0</asrwt>
<pdfrwt beam="1">  1        1 0.96485559E-01 0.30000000E+03</pdfrwt>
<pdfrwt beam="2">0</pdfrwt>
<totfact> 0.36054723E+01</totfact>
</mgrwt>
</event>
<event>
 6    1  0.1901260E-004  0.3000000E+03  0.7818608E-02  0.1093470E+00
          1   -1    0    0  502    0  0.00000000000E+00  0.00000000000E+00  0.38699892340E+02  0.38699892340E+02  0.00000000000E+00 0.  1.
         13   -1    0    0    0    0 -0.00000000000E+00 -0.00000000000E+00 -0.10000000000E+04  0.10000000000E+04  0.00000000000E+00 0.  1.
    9000005    2    1    2  501    0  0.10624189210E+02  0.13922875161E+02 -0.96581982937E+03  0.10206126666E+04  0.32944734428E+03 0.  0.
         13    1    3    3    0    0  0.94777465266E+02  0.92963793805E+02 -0.16626453786E+03  0.21276496758E+03  0.00000000000E+00 0.  1.
          1    1    3    3  501    0 -0.84153276056E+02 -0.79040918644E+02 -0.79955529151E+03  0.80784769906E+03  0.00000000000E+00 0.  1.
         21    1    1    2  502  501 -0.10624189210E+02 -0.13922875161E+02  0.45197217106E+01  0.18087225698E+02  0.00000000000E+00 0.  1.
<mgrwt>
<rscale>  1 0.30000000E+03</rscale>
<asrwt>0</asrwt>
<pdfrwt beam="1">  1        1 0.14072718E+00 0.30000000E+03</pdfrwt>
<pdfrwt beam="2">0</pdfrwt>
<totfact> 0.20055583E+01</totfact>
</mgrwt>
</event>
<event>
 6    1  0.1901260E-004  0.3000000E+03  0.7818608E-02  0.1093470E+00
          1   -1    0    0  502    0  0.00000000000E+00  0.00000000000E+00  0.54444921906E+02  0.54444921906E+02  0.00000000000E+00 0.  1.
         13   -1    0    0    0    0 -0.00000000000E+00 -0.00000000000E+00 -0.10000000000E+04  0.10000000000E+04  0.00000000000E+00 0.  1.
    9000005    2    1    2  501    0  0.23810210899E+02  0.52519648272E+01 -0.96763172927E+03  0.10215528590E+04  0.32659542388E+03 0.  0.
         13    1    3    3    0    0 -0.13189651226E+03 -0.75077434156E+02 -0.42026459467E+03  0.44682842412E+03  0.00000000000E+00 0.  1.
          1    1    3    3  501    0  0.15570672316E+03  0.80329398984E+02 -0.54736713459E+03  0.57472443485E+03  0.00000000000E+00 0.  1.
         21    1    1    2  502  501 -0.23810210899E+02 -0.52519648272E+01  0.22076651171E+02  0.32892062942E+02  0.00000000000E+00 0.  1.
<mgrwt>
<rscale>  1 0.30000000E+03</rscale>
<asrwt>0</asrwt>
<pdfrwt beam="1">  1        1 0.19798195E+00 0.30000000E+03</pdfrwt>
<pdfrwt beam="2">0</pdfrwt>
<totfact> 0.10472333E+01</totfact>
</mgrwt>
</event>
<event>
 6    1  0.1901260E-004  0.3000000E+03  0.7818608E-02  0.1093470E+00
          1   -1    0    0  502    0  0.00000000000E+00  0.00000000000E+00  0.29698865161E+02  0.29698865161E+02  0.00000000000E+00 0.  1.
         13   -1    0    0    0    0 -0.00000000000E+00 -0.00000000000E+00 -0.10000000000E+04  0.10000000000E+04  0.00000000000E+00 0.  1.
    9000005    2    1    2  501    0 -0.95497053400E+00 -0.14366451322E+02 -0.94547815393E+03  0.10010023972E+04  0.32843500536E+03 0.  0.
         13    1    3    3    0    0  0.11120774499E+03  0.75197023377E+02 -0.72903212495E+03  0.74128914337E+03  0.00000000000E+00 0.  1.
          3    1    3    3  501    0 -0.11216271552E+03 -0.89563474699E+02 -0.21644602898E+03  0.25971325383E+03  0.00000000000E+00 0.  1.
         21    1    1    2  502  501  0.95497053400E+00  0.14366451322E+02 -0.24822980905E+02  0.28696467959E+02  0.00000000000E+00 0. -1.
<mgrwt>
<rscale>  1 0.30000000E+03</rscale>
<asrwt>0</asrwt>
<pdfrwt beam="1">  1        1 0.10799610E+00 0.30000000E+03</pdfrwt>
<pdfrwt beam="2">0</pdfrwt>
<totfact> 0.30542985E+01</totfact>
</mgrwt>
</event>
<event>
 6    1  0.1901260E-004  0.3000000E+03  0.7818608E-02  0.1093470E+00
          1   -1    0    0  502    0  0.00000000000E+00  0.00000000000E+00  0.39986580275E+02  0.39986580275E+02  0.00000000000E+00 0.  1.
         13   -1    0    0    0    0 -0.00000000000E+00 -0.00000000000E+00 -0.10000000000E+04  0.10000000000E+04  0.00000000000E+00 0.  1.
    9000005    2    1    2  501    0 -0.42976233741E+02  0.22927850128E+02 -0.90480524201E+03  0.96636195216E+03  0.33587237701E+03 0.  0.
         13    1    3    3    0    0  0.10594294385E+03 -0.81693249239E+01 -0.95450772698E+02  0.14283380283E+03  0.00000000000E+00 0.  1.
          3    1    3    3  501    0 -0.14891917759E+03  0.31097175052E+02 -0.80935446931E+03  0.82352814933E+03  0.00000000000E+00 0.  1.
         21    1    1    2  502  501  0.42976233741E+02 -0.22927850128E+02 -0.55208177718E+02  0.73624628114E+02  0.00000000000E+00 0.  1.
<mgrwt>
<rscale>  1 0.30000000E+03</rscale>
<asrwt>0</asrwt>
<pdfrwt beam="1">  1        1 0.14540605E+00 0.30000000E+03</pdfrwt>
<pdfrwt beam="2">0</pdfrwt>
<totfact> 0.18964527E+01</totfact>
</mgrwt>
</event>
<event>
 6    1  0.1901260E-004  0.3000000E+03  0.7818608E-02  0.1093470E+00
          1   -1    0    0  502    0  0.00000000000E+00  0.00000000000E+00  0.26345915633E+02  0.26345915633E+02  0.00000000000E+00 0.  1.
         13   -1    0    0    0    0 -0.00000000000E+00 -0.00000000000E+00 -0.10000000000E+04  0.10000000000E+04  0.00000000000E+00 0.  1.
    9000005    2    1    2  501    0  0.14297459417E+02  0.12201906119E+02 -0.90556381353E+03  0.95570889389E+03  0.30492682010E+03 0.  0.
         13    1    3    3    0    0 -0.14311416701E+03  0.32223200081E+02 -0.42116345701E+03  0.44598055669E+03  0.00000000000E+00 0.  1.
          1    1    3    3  501    0  0.15741162643E+03 -0.20021293962E+02 -0.48440035652E+03  0.50972833720E+03  0.00000000000E+00 0.  1.
         21    1    1    2  502  501 -0.14297459417E+02 -0.12201906119E+02 -0.68090270833E+02  0.70637021744E+02  0.00000000000E+00 0.  1.
<mgrwt>
<rscale>  1 0.30000000E+03</rscale>
<asrwt>0</asrwt>
<pdfrwt beam="1">  1        1 0.95803532E-01 0.30000000E+03</pdfrwt>
<pdfrwt beam="2">0</pdfrwt>
<totfact> 0.36426147E+01</totfact>
</mgrwt>
</event>
<event>
 6    1  0.1901260E-004  0.3000000E+03  0.7818608E-02  0.1093470E+00
          1   -1    0    0  502    0  0.00000000000E+00  0.00000000000E+00  0.38967941817E+02  0.38967941817E+02  0.00000000000E+00 0.  1.
         13   -1    0    0    0    0 -0.00000000000E+00 -0.00000000000E+00 -0.10000000000E+04  0.10000000000E+04  0.00000000000E+00 0.  1.
    9000005    2    1    2  501    0  0.62779427905E+01 -0.13852065432E+02 -0.97054562382E+03  0.10210291511E+04  0.31671821406E+03 0.  0.
         13    1    3    3    0    0 -0.35996894241E+02  0.11588673151E+03 -0.76336710142E+03  0.77295203116E+03  0.00000000000E+00 0.  1.
          1    1    3    3  501    0  0.42274837031E+02 -0.12973879694E+03 -0.20717852240E+03  0.24807711991E+03  0.00000000000E+00 0.  1.
         21    1    1    2  502  501 -0.62779427905E+01  0.13852065432E+02  0.95135656415E+01  0.17938790752E+02  0.00000000000E+00 0.  1.
<mgrwt>
<rscale>  1 0.30000000E+03</rscale>
<asrwt>0</asrwt>
<pdfrwt beam="1">  1        1 0.14170191E+00 0.30000000E+03</pdfrwt>
<pdfrwt beam="2">0</pdfrwt>
<totfact> 0.19821862E+01</totfact>
</mgrwt>
</event>
<event>
 6    1  0.1901260E-004  0.3000000E+03  0.7818608E-02  0.1093470E+00
          1   -1    0    0  502    0  0.00000000000E+00  0.00000000000E+00  0.29803852104E+02  0.29803852104E+02  0.00000000000E+00 0.  1.
         13   -1    0    0    0    0 -0.00000000000E+00 -0.00000000000E+00 -0.10000000000E+04  0.10000000000E+04  0.00000000000E+00 0.  1.
    9000005    2    1    2  501    0  0.16202043921E+02 -0.88214796375E+01 -0.93978917617E+03  0.99423829771E+03  0.32398421604E+03 0.  0.
         13    1    3    3    0    0 -0.13503813600E+03 -0.80173415739E+02 -0.43614673009E+03  0.46355910619E+03  0.00000000000E+00 0.  1.
          1    1    3    3  501    0  0.15124017992E+03  0.71351936101E+02 -0.50364244609E+03  0.53067919152E+03  0.00000000000E+00 0.  1.
         21    1    1    2  502  501 -0.16202043921E+02  0.88214796375E+01 -0.30406971724E+02  0.35565554398E+02  0.00000000000E+00 0.  1.
<mgrwt>
<rscale>  1 0.30000000E+03</rscale>
<asrwt>0</asrwt>
<pdfrwt beam="1">  1        1 0.10837787E+00 0.30000000E+03</pdfrwt>
<pdfrwt beam="2">0</pdfrwt>
<totfact> 0.30381673E+01</totfact>
</mgrwt>
</event>
<event>
 6    1  0.1901260E-004  0.3000000E+03  0.7818608E-02  0.1093470E+00
          1   -1    0    0  502    0  0.00000000000E+00  0.00000000000E+00  0.37422881052E+02  0.37422881052E+02  0.00000000000E+00 0.  1.
         13   -1    0    0    0    0 -0.00000000000E+00 -0.00000000000E+00 -0.10000000000E+04  0.10000000000E+04  0.00000000000E+00 0.  1.
    9000005    2    1    2  501    0 -0.15977926783E+02 -0.33420175129E+02 -0.93706758524E+03  0.99244579177E+03  0.32477805969E+03 0.  0.
         13    1    3    3    0    0 -0.78662545650E+02 -0.12146348564E+03 -0.19651331676E+03  0.24404642611E+03  0.00000000000E+00 0.  1.
          3    1    3    3  501    0  0.62684618868E+02  0.88043310510E+02 -0.74055426847E+03  0.74839936566E+03  0.00000000000E+00 0.  1.
         21    1    1    2  502  501  0.15977926783E+02  0.33420175129E+02 -0.25509533709E+02  0.44977089279E+02  0.00000000000E+00 0.  1.
<mgrwt>
<rscale>  1 0.30000000E+03</rscale>
<asrwt>0</asrwt>
<pdfrwt beam="1">  1        1 0.13608349E+00 0.30000000E+03</pdfrwt>
<pdfrwt beam="2">0</pdfrwt>
<totfact> 0.21218617E+01</totfact>
</mgrwt>
</event>
<event>
 6    1  0.1901260E-004  0.3000000E+03  0.7818608E-02  0.1093470E+00
          1   -1    0    0  502    0  0.00000000000E+00  0.00000000000E+00  0.27997157798E+02  0.27997157798E+02  0.00000000000E+00 0.  1.
         13   -1    0    0    0    0 -0.00000000000E+00 -0.00000000000E+00 -0.10000000000E+04  0.10000000000E+04  0.00000000000E+00 0.  1.
    9000005    2    1    2  501    0 -0.33356513245E+01 -0.90351098496E+01 -0.94958760591E+03  0.10036003835E+04  0.32466035886E+03 0.  0.
         13    1    3    3    0    0 -0.18860795324E+02  0.15409780864E+03 -0.55585532733E+03  0.57712824325E+03  0.00000000000E+00 0.  1.
          1    1    3    3  501    0  0.15525143999E+02 -0.16313291849E+03 -0.39373227857E+03  0.42647214022E+03  0.00000000000E+00 0.  1.
         21    1    1    2  502  501  0.33356513245E+01  0.90351098496E+01 -0.22415236294E+02  0.24396774333E+02  0.00000000000E+00 0. -1.
<mgrwt>
<rscale>  1 0.30000000E+03</rscale>
<asrwt>0</asrwt>
<pdfrwt beam="1">  1        1 0.10180806E+00 0.30000000E+03</pdfrwt>
<pdfrwt beam="2">0</pdfrwt>
<totfact> 0.33339422E+01</totfact>
</mgrwt>
</event>
<event>
 6    1  0.1901260E-004  0.3000000E+03  0.7818608E-02  0.1093470E+00
          3   -1    0    0  502    0  0.00000000000E+00  0.00000000000E+00  0.32601428628E+02  0.32601428628E+02  0.00000000000E+00 0.  1.
         13   -1    0    0    0    0 -0.00000000000E+00 -0.00000000000E+00 -0.10000000000E+04  0.10000000000E+04  0.00000000000E+00 0.  1.
    9000005    2    1    2  501    0  0.18716115564E+02 -0.27039030018E+02 -0.91701172746E+03  0.97243303024E+03  0.32192248735E+03 0.  0.
         13    1    3    3    0    0 -0.11900111268E+03 -0.43885041067E+02 -0.72226919951E+03  0.73332118353E+03  0.00000000000E+00 0.  1.
          3    1    3    3  501    0  0.13771722824E+03  0.16846011049E+02 -0.19474252795E+03  0.23911184671E+03  0.00000000000E+00 0.  1.
         21    1    1    2  502  501 -0.18716115564E+02  0.27039030018E+02 -0.50386843907E+02  0.60168398392E+02  0.00000000000E+00 0. -1.
<mgrwt>
<rscale>  1 0.30000000E+03</rscale>
<asrwt>0</asrwt>
<pdfrwt beam="1">  1        3 0.11855090E+00 0.30000000E+03</pdfrwt>
<pdfrwt beam="2">0</pdfrwt>
<totfact> 0.24041215E+00</totfact>
</mgrwt>
</event>
<event>
 6    1  0.1901260E-004  0.3000000E+03  0.7818608E-02  0.1093470E+00
          1   -1    0    0  502    0  0.00000000000E+00  0.00000000000E+00  0.27922602903E+02  0.27922602903E+02  0.00000000000E+00 0.  1.
         13   -1    0    0    0    0 -0.00000000000E+00 -0.00000000000E+00 -0.10000000000E+04  0.10000000000E+04  0.00000000000E+00 0.  1.
    9000005    2    1    2  501    0  0.89676067949E+01 -0.91947481782E+01 -0.91519930624E+03  0.96961241010E+03  0.31998983469E+03 0.  0.
         13    1    3    3    0    0  0.59044918203E+02 -0.15403946102E+03 -0.52858953705E+03  0.55373401250E+03  0.00000000000E+00 0.  1.
          1    1    3    3  501    0 -0.50077311408E+02  0.14484471284E+03 -0.38660976919E+03  0.41587839760E+03  0.00000000000E+00 0.  1.
         21    1    1    2  502  501 -0.89676067949E+01  0.91947481782E+01 -0.56878090856E+02  0.58310192807E+02  0.00000000000E+00 0. -1.
<mgrwt>
<rscale>  1 0.30000000E+03</rscale>
<asrwt>0</asrwt>
<pdfrwt beam="1">  1        1 0.10153695E+00 0.30000000E+03</pdfrwt>
<pdfrwt beam="2">0</pdfrwt>
<totfact> 0.33470333E+01</totfact>
</mgrwt>
</event>
<event>
 6    1  0.1901260E-004  0.3000000E+03  0.7818608E-02  0.1093470E+00
          1   -1    0    0  502    0  0.00000000000E+00  0.00000000000E+00  0.30504250197E+02  0.30504250197E+02  0.00000000000E+00 0.  1.
         13   -1    0    0    0    0 -0.00000000000E+00 -0.00000000000E+00 -0.10000000000E+04  0.10000000000E+04  0.00000000000E+00 0.  1.
    9000005    2    1    2  501    0  0.73514137031E+01  0.75993436635E+01 -0.96700499036E+03  0.10196415990E+04  0.32320047309E+03 0.  0.
         13    1    3    3    0    0 -0.14357761766E+03  0.64126250213E+02 -0.56666578443E+03  0.58807892286E+03  0.00000000000E+00 0.  1.
          3    1    3    3  501    0  0.15092903137E+03 -0.56526906550E+02 -0.40033920593E+03  0.43156267618E+03  0.00000000000E+00 0.  1.
         21    1    1    2  502  501 -0.73514137031E+01 -0.75993436635E+01 -0.24907594432E+01  0.10862651157E+02  0.00000000000E+00 0.  1.
<mgrwt>
<rscale>  1 0.30000000E+03</rscale>
<asrwt>0</asrwt>
<pdfrwt beam="1">  1        1 0.11092478E+00 0.30000000E+03</pdfrwt>
<pdfrwt beam="2">0</pdfrwt>
<totfact> 0.29335936E+01</totfact>
</mgrwt>
</event>
<event>
 6    1  0.1901260E-004  0.3000000E+03  0.7818608E-02  0.1093470E+00
          1   -1    0    0  502    0  0.00000000000E+00  0.00000000000E+00  0.23524595624E+02  0.23524595624E+02  0.00000000000E+00 0.  1.
         13   -1    0    0    0    0 -0.00000000000E+00 -0.00000000000E+00 -0.10000000000E+04  0.10000000000E+04  0.00000000000E+00 0.  1.
    9000005    2    1    2  501    0  0.61125329041E+01  0.73144371600E+01 -0.96647189327E+03  0.10097066984E+04  0.29214522458E+03 0.  0.
         13    1    3    3    0    0  0.12511454667E+03 -0.74133906037E+02 -0.41720590125E+03  0.44182604026E+03  0.00000000000E+00 0.  1.
          1    1    3    3  501    0 -0.11900201377E+03  0.81448343197E+02 -0.54926599202E+03  0.56788065813E+03  0.00000000000E+00 0.  1.
         21    1    1    2  502  501 -0.61125329041E+01 -0.73144371600E+01 -0.10003511101E+02  0.13817897229E+02  0.00000000000E+00 0.  1.
<mgrwt>
<rscale>  1 0.30000000E+03</rscale>
<asrwt>0</asrwt>
<pdfrwt beam="1">  1        1 0.85544164E-01 0.30000000E+03</pdfrwt>
<pdfrwt beam="2">0</pdfrwt>
<totfact> 0.42785336E+01</totfact>
</mgrwt>
</event>
<event>
 6    1  0.1901260E-004  0.3000000E+03  0.7818608E-02  0.1093470E+00
          1   -1    0    0  502    0  0.00000000000E+00  0.00000000000E+00  0.31933076980E+02  0.31933076980E+02  0.00000000000E+00 0.  1.
         13   -1    0    0    0    0 -0.00000000000E+00 -0.00000000000E+00 -0.10000000000E+04  0.10000000000E+04  0.00000000000E+00 0.  1.
    9000005    2    1    2  501    0 -0.23032066156E+02  0.60905502353E+00 -0.95233425817E+03  0.10040339056E+04  0.31719504619E+03 0.  0.
         13    1    3    3    0    0 -0.15138002046E+03  0.75727756179E+02 -0.51592763594E+03  0.54298428078E+03  0.00000000000E+00 0.  1.
          1    1    3    3  501    0  0.12834795430E+03 -0.75118701155E+02 -0.43640662223E+03  0.46104962483E+03  0.00000000000E+00 0.  1.
         21    1    1    2  502  501  0.23032066156E+02 -0.60905502353E+00 -0.15732664854E+02  0.27899171365E+02  0.00000000000E+00 0.  1.
<mgrwt>
<rscale>  1 0.30000000E+03</rscale>
<asrwt>0</asrwt>
<pdfrwt beam="1">  1        1 0.11612052E+00 0.30000000E+03</pdfrwt>
<pdfrwt beam="2">0</pdfrwt>
<totfact> 0.27355330E+01</totfact>
</mgrwt>
</event>
<event>
 6    1  0.1901260E-004  0.3000000E+03  0.7818608E-02  0.1093470E+00
          1   -1    0    0  502    0  0.00000000000E+00  0.00000000000E+00  0.35563864534E+02  0.35563864534E+02  0.00000000000E+00 0.  1.
         13   -1    0    0    0    0 -0.00000000000E+00 -0.00000000000E+00 -0.10000000000E+04  0.10000000000E+04  0.00000000000E+00 0.  1.
    9000005    2    1    2  501    0 -0.44156127440E+02 -0.11427786375E+01 -0.91681557602E+03  0.97061167277E+03  0.31557114783E+03 0.  0.
         13    1    3    3    0    0 -0.17021194452E+03 -0.34472400271E+01 -0.69422626807E+03  0.71479654504E+03  0.00000000000E+00 0.  1.
          1    1    3    3  501    0  0.12605581708E+03  0.23044613896E+01 -0.22258930795E+03  0.25581512773E+03  0.00000000000E+00 0.  1.
         21    1    1    2  502  501  0.44156127440E+02  0.11427786375E+01 -0.47620559442E+02  0.64952191765E+02  0.00000000000E+00 0.  1.
<mgrwt>
<rscale>  1 0.30000000E+03</rscale>
<asrwt>0</asrwt>
<pdfrwt beam="1">  1        1 0.12932342E+00 0.30000000E+03</pdfrwt>
<pdfrwt beam="2">0</pdfrwt>
<totfact> 0.23074930E+01</totfact>
</mgrwt>
</event>
<event>
 6    1  0.1901260E-004  0.3000000E+03  0.7818608E-02  0.1093470E+00
          1   -1    0    0  502    0  0.00000000000E+00  0.00000000000E+00  0.34467471545E+02  0.34467471545E+02  0.00000000000E+00 0.  1.
         13   -1    0    0    0    0 -0.00000000000E+00 -0.00000000000E+00 -0.10000000000E+04  0.10000000000E+04  0.00000000000E+00 0.  1.
    9000005    2    1    2  501    0  0.32599686392E+02  0.85613417867E+01 -0.93968757601E+03  0.99199397754E+03  0.31607479312E+03 0.  0.
         13    1    3    3    0    0  0.77614798135E+02  0.12222766359E+03 -0.76618301461E+03  0.77974359280E+03  0.00000000000E+00 0.  1.
          1    1    3    3  501    0 -0.45015111743E+02 -0.11366632180E+03 -0.17350456140E+03  0.21225038474E+03  0.00000000000E+00 0.  1.
         21    1    1    2  502  501 -0.32599686392E+02 -0.85613417867E+01 -0.25844952450E+02  0.42473494007E+02  0.00000000000E+00 0.  1.
<mgrwt>
<rscale>  1 0.30000000E+03</rscale>
<asrwt>0</asrwt>
<pdfrwt beam="1">  1        1 0.12533652E+00 0.30000000E+03</pdfrwt>
<pdfrwt beam="2">0</pdfrwt>
<totfact> 0.24269531E+01</totfact>
</mgrwt>
</event>
<event>
 6    1  0.1901260E-004  0.3000000E+03  0.7818608E-02  0.1093470E+00
          1   -1    0    0  502    0  0.00000000000E+00  0.00000000000E+00  0.35963472897E+02  0.35963472897E+02  0.00000000000E+00 0.  1.
         13   -1    0    0    0    0 -0.00000000000E+00 -0.00000000000E+00 -0.10000000000E+04  0.10000000000E+04  0.00000000000E+00 0.  1.
    9000005    2    1    2  501    0  0.21465601524E+02 -0.58656191832E+01 -0.95712155299E+03  0.10126612326E+04  0.33000898051E+03 0.  0.
         13    1    3    3    0    0 -0.66948938817E+02 -0.12754034300E+03 -0.23976641732E+03  0.27970812355E+03  0.00000000000E+00 0.  1.
          1    1    3    3  501    0  0.88414540342E+02  0.12167472382E+03 -0.71735513567E+03  0.73295310903E+03  0.00000000000E+00 0.  1.
         21    1    1    2  502  501 -0.21465601524E+02  0.58656191832E+01 -0.69149741134E+01  0.23302240326E+02  0.00000000000E+00 0.  1.
<mgrwt>
<rscale>  1 0.30000000E+03</rscale>
<asrwt>0</asrwt>
<pdfrwt beam="1">  1        1 0.13077654E+00 0.30000000E+03</pdfrwt>
<pdfrwt beam="2">0</pdfrwt>
<totfact> 0.22658433E+01</totfact>
</mgrwt>
</event>
<event>
 6    1  0.1901260E-004  0.3000000E+03  0.7818608E-02  0.1093470E+00
          3   -1    0    0  502    0  0.00000000000E+00  0.00000000000E+00  0.31686501395E+02  0.31686501395E+02  0.00000000000E+00 0.  1.
         13   -1    0    0    0    0 -0.00000000000E+00 -0.00000000000E+00 -0.10000000000E+04  0.10000000000E+04  0.00000000000E+00 0.  1.
    9000005    2    1    2  501    0 -0.80020227651E+01  0.92021031041E+01 -0.90793258498E+03  0.97008645432E+03  0.34143438449E+03 0.  0.
         13    1    3    3    0    0 -0.10850384160E+03 -0.53923433298E+01 -0.77453946179E+02  0.13342141802E+03  0.00000000000E+00 0.  1.
          1    1    3    3  501    0  0.10050181883E+03  0.14594446434E+02 -0.83047863880E+03  0.83666503629E+03  0.00000000000E+00 0.  1.
         21    1    1    2  502  501  0.80020227651E+01 -0.92021031041E+01 -0.60380913626E+02  0.61600047080E+02  0.00000000000E+00 0. -1.
<mgrwt>
<rscale>  1 0.30000000E+03</rscale>
<asrwt>0</asrwt>
<pdfrwt beam="1">  1        3 0.11522388E+00 0.30000000E+03</pdfrwt>
<pdfrwt beam="2">0</pdfrwt>
<totfact> 0.26262793E+00</totfact>
</mgrwt>
</event>
<event>
 6    1  0.1901260E-004  0.3000000E+03  0.7818608E-02  0.1093470E+00
          1   -1    0    0  502    0  0.00000000000E+00  0.00000000000E+00  0.33843910881E+02  0.33843910881E+02  0.00000000000E+00 0.  1.
         13   -1    0    0    0    0 -0.00000000000E+00 -0.00000000000E+00 -0.10000000000E+04  0.10000000000E+04  0.00000000000E+00 0.  1.
    9000005    2    1    2  501    0 -0.72998582779E+01  0.36646633611E+02 -0.92415326487E+03  0.97762557819E+03  0.31669583274E+03 0.  0.
         13    1    3    3    0    0 -0.28592027083E+02 -0.13147817249E+03 -0.26718527318E+03  0.29915210856E+03  0.00000000000E+00 0.  1.
          1    1    3    3  501    0  0.21292168805E+02  0.16812480610E+03 -0.65696799169E+03  0.67847346963E+03  0.00000000000E+00 0.  1.
         21    1    1    2  502  501  0.72998582779E+01 -0.36646633611E+02 -0.42002824249E+02  0.56218332693E+02  0.00000000000E+00 0.  1.
<mgrwt>
<rscale>  1 0.30000000E+03</rscale>
<asrwt>0</asrwt>
<pdfrwt beam="1">  1        1 0.12306903E+00 0.30000000E+03</pdfrwt>
<pdfrwt beam="2">0</pdfrwt>
<totfact> 0.24984268E+01</totfact>
</mgrwt>
</event>
<event>
 6    1  0.1901260E-004  0.3000000E+03  0.7818608E-02  0.1093470E+00
          3   -1    0    0  502    0  0.00000000000E+00  0.00000000000E+00  0.85309335844E+01  0.85309335844E+01  0.00000000000E+00 0.  1.
         13   -1    0    0    0    0 -0.00000000000E+00 -0.00000000000E+00 -0.10000000000E+04  0.10000000000E+04  0.00000000000E+00 0.  1.
    9000005    2    1    2  501    0  0.50151083245E+01 -0.14462560680E+02 -0.95229770831E+03  0.96647487256E+03  0.16422069622E+03 0.  0.
         13    1    3    3    0    0  0.80162885428E+02  0.79745720376E+01 -0.35348818109E+03  0.36255148072E+03  0.00000000000E+00 0.  1.
          3    1    3    3  501    0 -0.75147777104E+02 -0.22437132717E+02 -0.59880952722E+03  0.60392339185E+03  0.00000000000E+00 0.  1.
         21    1    1    2  502  501 -0.50151083245E+01  0.14462560680E+02 -0.39171358103E+02  0.42056061021E+02  0.00000000000E+00 0.  1.
<mgrwt>
<rscale>  1 0.30000000E+03</rscale>
<asrwt>0</asrwt>
<pdfrwt beam="1">  1        3 0.31021642E-01 0.30000000E+03</pdfrwt>
<pdfrwt beam="2">0</pdfrwt>
<totfact> 0.43875611E+01</totfact>
</mgrwt>
</event>
<event>
 6    1  0.1901260E-004  0.3000000E+03  0.7818608E-02  0.1093470E+00
          1   -1    0    0  502    0  0.00000000000E+00  0.00000000000E+00  0.52518786466E+02  0.52518786466E+02  0.00000000000E+00 0.  1.
         13   -1    0    0    0    0 -0.00000000000E+00 -0.00000000000E+00 -0.10000000000E+04  0.10000000000E+04  0.00000000000E+00 0.  1.
    9000005    2    1    2  501    0 -0.29603328640E+02 -0.54311798373E+01 -0.96373569350E+03  0.10183126043E+04  0.32751827173E+03 0.  0.
         13    1    3    3    0    0  0.37929528184E+02  0.42933972372E+02 -0.67001414665E+01  0.57678999536E+02  0.00000000000E+00 0.  1.
          1    1    3    3  501    0 -0.67532856823E+02 -0.48365152209E+02 -0.95703555203E+03  0.96063360474E+03  0.00000000000E+00 0.  1.
         21    1    1    2  502  501  0.29603328640E+02  0.54311798373E+01  0.16254479967E+02  0.34206182190E+02  0.00000000000E+00 0.  1.
<mgrwt>
<rscale>  1 0.30000000E+03</rscale>
<asrwt>0</asrwt>
<pdfrwt beam="1">  1        1 0.19097781E+00 0.30000000E+03</pdfrwt>
<pdfrwt beam="2">0</pdfrwt>
<totfact> 0.11311153E+01</totfact>
</mgrwt>
</event>
<event>
 6    1  0.1901260E-004  0.3000000E+03  0.7818608E-02  0.1093470E+00
          1   -1    0    0  502    0  0.00000000000E+00  0.00000000000E+00  0.32217578910E+02  0.32217578910E+02  0.00000000000E+00 0.  1.
         13   -1    0    0    0    0 -0.00000000000E+00 -0.00000000000E+00 -0.10000000000E+04  0.10000000000E+04  0.00000000000E+00 0.  1.
    9000005    2    1    2  501    0 -0.35062407843E+01 -0.10857431994E+02 -0.96188314005E+03  0.10193731610E+04  0.33730148051E+03 0.  0.
         13    1    3    3    0    0 -0.16473848036E+03 -0.48733078729E+02 -0.47880485281E+03  0.50869221239E+03  0.00000000000E+00 0.  1.
          3    1    3    3  501    0  0.16123223958E+03  0.37875646735E+02 -0.48307828725E+03  0.51068094864E+03  0.00000000000E+00 0.  1.
         21    1    1    2  502  501  0.35062407843E+01  0.10857431994E+02 -0.58992810353E+01  0.12844417880E+02  0.00000000000E+00 0.  1.
<mgrwt>
<rscale>  1 0.30000000E+03</rscale>
<asrwt>0</asrwt>
<pdfrwt beam="1">  1        1 0.11715508E+00 0.30000000E+03</pdfrwt>
<pdfrwt beam="2">0</pdfrwt>
<totfact> 0.26983505E+01</totfact>
</mgrwt>
</event>
<event>
 6    1  0.1901260E-004  0.3000000E+03  0.7818608E-02  0.1093470E+00
          1   -1    0    0  502    0  0.00000000000E+00  0.00000000000E+00  0.27966451351E+02  0.27966451351E+02  0.00000000000E+00 0.  1.
         13   -1    0    0    0    0 -0.00000000000E+00 -0.00000000000E+00 -0.10000000000E+04  0.10000000000E+04  0.00000000000E+00 0.  1.
    9000005    2    1    2  501    0 -0.14873445712E+02  0.11460650376E+02 -0.93119000594E+03  0.98301357741E+03  0.31440149542E+03 0.  0.
         13    1    3    3    0    0 -0.73988556699E+02  0.13385071499E+03 -0.68430341358E+03  0.70118576872E+03  0.00000000000E+00 0.  1.
          1    1    3    3  501    0  0.59115110988E+02 -0.12239006461E+03 -0.24688659236E+03  0.28182780869E+03  0.00000000000E+00 0.  1.
         21    1    1    2  502  501  0.14873445712E+02 -0.11460650376E+02 -0.40843542710E+02  0.44952873940E+02  0.00000000000E+00 0. -1.
<mgrwt>
<rscale>  1 0.30000000E+03</rscale>
<asrwt>0</asrwt>
<pdfrwt beam="1">  1        1 0.10169640E+00 0.30000000E+03</pdfrwt>
<pdfrwt beam="2">0</pdfrwt>
<totfact> 0.33393249E+01</totfact>
</mgrwt>
</event>
<event>
 6    1  0.1901260E-004  0.3000000E+03  0.7818608E-02  0.1093470E+00
          1   -1    0    0  502    0  0.00000000000E+00  0.00000000000E+00  0.68253825139E+02  0.68253825139E+02  0.00000000000E+00 0.  1.
         13   -1    0    0    0    0 -0.00000000000E+00 -0.00000000000E+00 -0.10000000000E+04  0.10000000000E+04  0.00000000000E+00 0.  1.
    9000005    2    1    2  501    0 -0.31856660637E+01 -0.18266585768E+02 -0.96552052223E+03  0.10297243148E+04  0.35743316730E+03 0.  0.
         13    1    3    3    0    0 -0.15070608748E+03 -0.88028836553E+02 -0.66762830042E+03  0.69006445234E+03  0.00000000000E+00 0.  1.
          3    1    3    3  501    0  0.14752042142E+03  0.69762250785E+02 -0.29789222181E+03  0.33965986249E+03  0.00000000000E+00 0.  1.
         21    1    1    2  502  501  0.31856660637E+01  0.18266585768E+02  0.33774347372E+02  0.38529510304E+02  0.00000000000E+00 0.  1.
<mgrwt>
<rscale>  1 0.30000000E+03</rscale>
<asrwt>0</asrwt>
<pdfrwt beam="1">  1        1 0.24819625E+00 0.30000000E+03</pdfrwt>
<pdfrwt beam="2">0</pdfrwt>
<totfact> 0.60826154E+00</totfact>
</mgrwt>
</event>
<event>
 6    1  0.1901260E-004  0.3000000E+03  0.7818608E-02  0.1093470E+00
          1   -1    0    0  502    0  0.00000000000E+00  0.00000000000E+00  0.39220275879E+02  0.39220275879E+02  0.00000000000E+00 0.  1.
         13   -1    0    0    0    0 -0.00000000000E+00 -0.00000000000E+00 -0.10000000000E+04  0.10000000000E+04  0.00000000000E+00 0.  1.
    9000005    2    1    2  501    0 -0.10676902528E+02  0.12993729637E+01 -0.93836916017E+03  0.10143623195E+04  0.38506953903E+03 0.  0.
         13    1    3    3    0    0 -0.13972013432E+03 -0.32144667868E+02 -0.83076651450E+03  0.84304685352E+03  0.00000000000E+00 0.  1.
          3    1    3    3  501    0  0.12904323179E+03  0.33444040832E+02 -0.10760264566E+03  0.17131546600E+03  0.00000000000E+00 0.  1.
         21    1    1    2  502  501  0.10676902528E+02 -0.12993729637E+01 -0.22410563954E+02  0.24857956360E+02  0.00000000000E+00 0.  1.
<mgrwt>
<rscale>  1 0.30000000E+03</rscale>
<asrwt>0</asrwt>
<pdfrwt beam="1">  1        1 0.14261949E+00 0.30000000E+03</pdfrwt>
<pdfrwt beam="2">0</pdfrwt>
<totfact> 0.19604994E+01</totfact>
</mgrwt>
</event>
<event>
 6    1  0.1901260E-004  0.3000000E+03  0.7818608E-02  0.1093470E+00
          1   -1    0    0  502    0  0.00000000000E+00  0.00000000000E+00  0.30522137602E+02  0.30522137602E+02  0.00000000000E+00 0.  1.
         13   -1    0    0    0    0 -0.00000000000E+00 -0.00000000000E+00 -0.10000000000E+04  0.10000000000E+04  0.00000000000E+00 0.  1.
    9000005    2    1    2  501    0 -0.44938794666E+01  0.15888909213E+02 -0.95460745126E+03  0.10083009424E+04  0.32422639014E+03 0.  0.
         13    1    3    3    0    0 -0.59240468460E+02 -0.11353439936E+03 -0.17915315001E+03  0.22021658453E+03  0.00000000000E+00 0.  1.
          1    1    3    3  501    0  0.54746588993E+02  0.12942330857E+03 -0.77545430124E+03  0.78808435787E+03  0.00000000000E+00 0.  1.
         21    1    1    2  502  501  0.44938794666E+01 -0.15888909213E+02 -0.14870411141E+02  0.22221195200E+02  0.00000000000E+00 0.  1.
<mgrwt>
<rscale>  1 0.30000000E+03</rscale>
<asrwt>0</asrwt>
<pdfrwt beam="1">  1        1 0.11098983E+00 0.30000000E+03</pdfrwt>
<pdfrwt beam="2">0</pdfrwt>
<totfact> 0.29309903E+01</totfact>
</mgrwt>
</event>
<event>
 6    1  0.1901260E-004  0.3000000E+03  0.7818608E-02  0.1093470E+00
          3   -1    0    0  502    0  0.00000000000E+00  0.00000000000E+00  0.32874753298E+02  0.32874753298E+02  0.00000000000E+00 0.  1.
         13   -1    0    0    0    0 -0.00000000000E+00 -0.00000000000E+00 -0.10000000000E+04  0.10000000000E+04  0.00000000000E+00 0.  1.
    9000005    2    1    2  501    0 -0.27711431468E+02  0.31530729441E+02 -0.90706411836E+03  0.95959822587E+03  0.31032455585E+03 0.  0.
         13    1    3    3    0    0 -0.33785946208E+02  0.71427477319E+02 -0.91505334356E+03  0.91845848912E+03  0.00000000000E+00 0.  1.
          3    1    3    3  501    0  0.60745147400E+01 -0.39896747878E+02  0.79892252069E+01  0.41139736752E+02  0.00000000000E+00 0.  1.
         21    1    1    2  502  501  0.27711431468E+02 -0.31530729441E+02 -0.60061128347E+02  0.73276527424E+02  0.00000000000E+00 0.  1.
<mgrwt>
<rscale>  1 0.30000000E+03</rscale>
<asrwt>0</asrwt>
<pdfrwt beam="1">  1        3 0.11954481E+00 0.30000000E+03</pdfrwt>
<pdfrwt beam="2">0</pdfrwt>
<totfact> 0.23412542E+00</totfact>
</mgrwt>
</event>
<event>
 6    1  0.1901260E-004  0.3000000E+03  0.7818608E-02  0.1093470E+00
          1   -1    0    0  502    0  0.00000000000E+00  0.00000000000E+00  0.17820185227E+02  0.17820185227E+02  0.00000000000E+00 0.  1.
         13   -1    0    0    0    0 -0.00000000000E+00 -0.00000000000E+00 -0.10000000000E+04  0.10000000000E+04  0.00000000000E+00 0.  1.
    9000005    2    1    2  501    0 -0.10451227120E+02 -0.25723785192E+01 -0.96717497880E+03  0.99935426033E+03  0.25132777951E+03 0.  0.
         13    1    3    3    0    0 -0.11321979737E+03  0.59546443785E+02 -0.41483173262E+03  0.43410812924E+03  0.00000000000E+00 0.  1.
          3    1    3    3  501    0  0.10276857025E+03 -0.62118822304E+02 -0.55234324618E+03  0.56524613109E+03  0.00000000000E+00 0.  1.
         21    1    1    2  502  501  0.10451227120E+02  0.25723785192E+01 -0.15004835973E+02  0.18465924893E+02  0.00000000000E+00 0. -1.
<mgrwt>
<rscale>  1 0.30000000E+03</rscale>
<asrwt>0</asrwt>
<pdfrwt beam="1">  1        1 0.64800810E-01 0.30000000E+03</pdfrwt>
<pdfrwt beam="2">0</pdfrwt>
<totfact> 0.62572047E+01</totfact>
</mgrwt>
</event>
<event>
 6    1  0.1901260E-004  0.3000000E+03  0.7818608E-02  0.1093470E+00
          1   -1    0    0  502    0  0.00000000000E+00  0.00000000000E+00  0.42677938798E+02  0.42677938798E+02  0.00000000000E+00 0.  1.
         13   -1    0    0    0    0 -0.00000000000E+00 -0.00000000000E+00 -0.10000000000E+04  0.10000000000E+04  0.00000000000E+00 0.  1.
    9000005    2    1    2  501    0 -0.23296510077E+02 -0.39256798608E+02 -0.93468853355E+03  0.99172599877E+03  0.32831993279E+03 0.  0.
         13    1    3    3    0    0  0.70603323212E+02 -0.44745354297E+02 -0.87786209170E+03  0.88183265307E+03  0.00000000000E+00 0.  1.
          3    1    3    3  501    0 -0.93899833289E+02  0.54885556893E+01 -0.56826441847E+02  0.10989334570E+03  0.00000000000E+00 0.  1.
         21    1    1    2  502  501  0.23296510077E+02  0.39256798608E+02 -0.22633527652E+02  0.50951940028E+02  0.00000000000E+00 0.  1.
<mgrwt>
<rscale>  1 0.30000000E+03</rscale>
<asrwt>0</asrwt>
<pdfrwt beam="1">  1        1 0.15519283E+00 0.30000000E+03</pdfrwt>
<pdfrwt beam="2">0</pdfrwt>
<totfact> 0.16912211E+01</totfact>
</mgrwt>
</event>
<event>
 6    1  0.1901260E-004  0.3000000E+03  0.7818608E-02  0.1093470E+00
          1   -1    0    0  502    0  0.00000000000E+00  0.00000000000E+00  0.43059796957E+02  0.43059796957E+02  0.00000000000E+00 0.  1.
         13   -1    0    0    0    0 -0.00000000000E+00 -0.00000000000E+00 -0.10000000000E+04  0.10000000000E+04  0.00000000000E+00 0.  1.
    9000005    2    1    2  501    0  0.18959839425E-01  0.11852193641E+02 -0.97280759417E+03  0.10232545210E+04  0.31710364970E+03 0.  0.
         13    1    3    3    0    0 -0.12249084728E+03  0.73622852232E+02 -0.73448875077E+03  0.74826336075E+03  0.00000000000E+00 0.  1.
          3    1    3    3  501    0  0.12250980712E+03 -0.61770658591E+02 -0.23831884341E+03  0.27499116027E+03  0.00000000000E+00 0.  1.
         21    1    1    2  502  501 -0.18959839425E-01 -0.11852193641E+02  0.15867391132E+02  0.19805275936E+02  0.00000000000E+00 0.  1.
<mgrwt>
<rscale>  1 0.30000000E+03</rscale>
<asrwt>0</asrwt>
<pdfrwt beam="1">  1        1 0.15658141E+00 0.30000000E+03</pdfrwt>
<pdfrwt beam="2">0</pdfrwt>
<totfact> 0.16643447E+01</totfact>
</mgrwt>
</event>
<event>
 6    1  0.1901260E-004  0.3000000E+03  0.7818608E-02  0.1093470E+00
          1   -1    0    0  502    0  0.00000000000E+00  0.00000000000E+00  0.26074214454E+02  0.26074214454E+02  0.00000000000E+00 0.  1.
         13   -1    0    0    0    0 -0.00000000000E+00 -0.00000000000E+00 -0.10000000000E+04  0.10000000000E+04  0.00000000000E+00 0.  1.
    9000005    2    1    2  501    0  0.19661829970E+02  0.91237239467E+01 -0.96686556263E+03  0.10032777971E+04  0.26695971993E+03 0.  0.
         13    1    3    3    0    0  0.11194301430E+03  0.72855873567E+02 -0.71789260272E+03  0.73021161713E+03  0.00000000000E+00 0.  1.
          3    1    3    3  501    0 -0.92281184325E+02 -0.63732149620E+02 -0.24897295991E+03  0.27306617997E+03  0.00000000000E+00 0.  1.
         21    1    1    2  502  501 -0.19661829970E+02 -0.91237239467E+01 -0.70602229197E+01  0.22796417353E+02  0.00000000000E+00 0.  1.
<mgrwt>
<rscale>  1 0.30000000E+03</rscale>
<asrwt>0</asrwt>
<pdfrwt beam="1">  1        1 0.94815525E-01 0.30000000E+03</pdfrwt>
<pdfrwt beam="2">0</pdfrwt>
<totfact> 0.36974386E+01</totfact>
</mgrwt>
</event>
<event>
 6    1  0.1901260E-004  0.3000000E+03  0.7818608E-02  0.1093470E+00
          1   -1    0    0  502    0  0.00000000000E+00  0.00000000000E+00  0.40845935280E+02  0.40845935280E+02  0.00000000000E+00 0.  1.
         13   -1    0    0    0    0 -0.00000000000E+00 -0.00000000000E+00 -0.10000000000E+04  0.10000000000E+04  0.00000000000E+00 0.  1.
    9000005    2    1    2  501    0  0.61596760589E+02  0.17615531532E+02 -0.87541309339E+03  0.93540866414E+03  0.32332153811E+03 0.  0.
         13    1    3    3    0    0 -0.13366683323E+03  0.70040202761E+01 -0.33958578985E+03  0.36501285905E+03  0.00000000000E+00 0.  1.
          1    1    3    3  501    0  0.19526359382E+03  0.10611511256E+02 -0.53582730354E+03  0.57039580509E+03  0.00000000000E+00 0.  1.
         21    1    1    2  502  501 -0.61596760589E+02 -0.17615531532E+02 -0.83740971335E+02  0.10543727114E+03  0.00000000000E+00 0.  1.
<mgrwt>
<rscale>  1 0.30000000E+03</rscale>
<asrwt>0</asrwt>
<pdfrwt beam="1">  1        1 0.14853099E+00 0.30000000E+03</pdfrwt>
<pdfrwt beam="2">0</pdfrwt>
<totfact> 0.18277270E+01</totfact>
</mgrwt>
</event>
<event>
 6    1  0.1901260E-004  0.3000000E+03  0.7818608E-02  0.1093470E+00
          1   -1    0    0  502    0  0.00000000000E+00  0.00000000000E+00  0.47512652938E+02  0.47512652938E+02  0.00000000000E+00 0.  1.
         13   -1    0    0    0    0 -0.00000000000E+00 -0.00000000000E+00 -0.10000000000E+04  0.10000000000E+04  0.00000000000E+00 0.  1.
    9000005    2    1    2  501    0  0.14752921762E+01 -0.11371626232E+02 -0.97342106385E+03  0.10236440361E+04  0.31649179258E+03 0.  0.
         13    1    3    3    0    0 -0.12729083250E+03 -0.98437665873E+02 -0.47113415108E+03  0.49785572048E+03  0.00000000000E+00 0.  1.
          1    1    3    3  501    0  0.12876612468E+03  0.87066039641E+02 -0.50228691277E+03  0.52578831564E+03  0.00000000000E+00 0.  1.
         21    1    1    2  502  501 -0.14752921762E+01  0.11371626232E+02  0.20933716788E+02  0.23868616817E+02  0.00000000000E+00 0.  1.
<mgrwt>
<rscale>  1 0.30000000E+03</rscale>
<asrwt>0</asrwt>
<pdfrwt beam="1">  1        1 0.17277365E+00 0.30000000E+03</pdfrwt>
<pdfrwt beam="2">0</pdfrwt>
<totfact> 0.13848934E+01</totfact>
</mgrwt>
</event>
<event>
 6    1  0.1901260E-004  0.3000000E+03  0.7818608E-02  0.1093470E+00
          1   -1    0    0  502    0  0.00000000000E+00  0.00000000000E+00  0.38760005352E+02  0.38760005352E+02  0.00000000000E+00 0.  1.
         13   -1    0    0    0    0 -0.00000000000E+00 -0.00000000000E+00 -0.10000000000E+04  0.10000000000E+04  0.00000000000E+00 0.  1.
    9000005    2    1    2  501    0  0.37948605209E+02 -0.17278101634E+02 -0.92629979219E+03  0.98435920406E+03  0.33044380487E+03 0.  0.
         13    1    3    3    0    0 -0.14305621679E+03 -0.44777660682E+02 -0.40615833350E+03  0.43293730716E+03  0.00000000000E+00 0.  1.
          3    1    3    3  501    0  0.18100482200E+03  0.27499559048E+02 -0.52014145869E+03  0.55142189690E+03  0.00000000000E+00 0.  1.
         21    1    1    2  502  501 -0.37948605209E+02  0.17278101634E+02 -0.34940202458E+02  0.54400801292E+02  0.00000000000E+00 0. -1.
<mgrwt>
<rscale>  1 0.30000000E+03</rscale>
<asrwt>0</asrwt>
<pdfrwt beam="1">  1        1 0.14094577E+00 0.30000000E+03</pdfrwt>
<pdfrwt beam="2">0</pdfrwt>
<totfact> 0.20002865E+01</totfact>
</mgrwt>
</event>
<event>
 6    1  0.1901260E-004  0.3000000E+03  0.7818608E-02  0.1093470E+00
          1   -1    0    0  502    0  0.00000000000E+00  0.00000000000E+00  0.48096045938E+02  0.48096045938E+02  0.00000000000E+00 0.  1.
         13   -1    0    0    0    0 -0.00000000000E+00 -0.00000000000E+00 -0.10000000000E+04  0.10000000000E+04  0.00000000000E+00 0.  1.
    9000005    2    1    2  501    0  0.13635756400E+02 -0.40963038999E+01 -0.97455137348E+03  0.10213449868E+04  0.30527444858E+03 0.  0.
         13    1    3    3    0    0  0.26223284124E+02 -0.91793469491E+02 -0.86315067386E+02  0.12870117532E+03  0.00000000000E+00 0.  1.
          1    1    3    3  501    0 -0.12587527724E+02  0.87697165591E+02 -0.88823630610E+03  0.89264381148E+03  0.00000000000E+00 0.  1.
         21    1    1    2  502  501 -0.13635756400E+02  0.40963038999E+01  0.22647419422E+02  0.26751059133E+02  0.00000000000E+00 0. -1.
<mgrwt>
<rscale>  1 0.30000000E+03</rscale>
<asrwt>0</asrwt>
<pdfrwt beam="1">  1        1 0.17489508E+00 0.30000000E+03</pdfrwt>
<pdfrwt beam="2">0</pdfrwt>
<totfact> 0.13523717E+01</totfact>
</mgrwt>
</event>
<event>
 6    1  0.1901260E-004  0.3000000E+03  0.7818608E-02  0.1093470E+00
          1   -1    0    0  502    0  0.00000000000E+00  0.00000000000E+00  0.32108960658E+02  0.32108960658E+02  0.00000000000E+00 0.  1.
         13   -1    0    0    0    0 -0.00000000000E+00 -0.00000000000E+00 -0.10000000000E+04  0.10000000000E+04  0.00000000000E+00 0.  1.
    9000005    2    1    2  501    0 -0.12046118526E+02  0.46354129682E+01 -0.97010739155E+03  0.10190128451E+04  0.31162835456E+03 0.  0.
         13    1    3    3    0    0 -0.10886860507E+03  0.30291767506E+02 -0.12708368281E+03  0.17005948014E+03  0.00000000000E+00 0.  1.
          3    1    3    3  501    0  0.96822486541E+02 -0.25656354538E+02 -0.84302370874E+03  0.84895336499E+03  0.00000000000E+00 0.  1.
         21    1    1    2  502  501  0.12046118526E+02 -0.46354129682E+01  0.22163522080E+01  0.13096115533E+02  0.00000000000E+00 0.  1.
<mgrwt>
<rscale>  1 0.30000000E+03</rscale>
<asrwt>0</asrwt>
<pdfrwt beam="1">  1        1 0.11676010E+00 0.30000000E+03</pdfrwt>
<pdfrwt beam="2">0</pdfrwt>
<totfact> 0.27124633E+01</totfact>
</mgrwt>
</event>
<event>
 6    1  0.1901260E-004  0.3000000E+03  0.7818608E-02  0.1093470E+00
          1   -1    0    0  502    0  0.00000000000E+00  0.00000000000E+00  0.31030194166E+02  0.31030194166E+02  0.00000000000E+00 0.  1.
         13   -1    0    0    0    0 -0.00000000000E+00 -0.00000000000E+00 -0.10000000000E+04  0.10000000000E+04  0.00000000000E+00 0.  1.
    9000005    2    1    2  501    0  0.10011365829E+02  0.96706268973E+01 -0.96506656194E+03  0.10165739228E+04  0.31917913931E+03 0.  0.
         13    1    3    3    0    0 -0.20155855967E+02  0.13354286617E+02 -0.98165325317E+03  0.98195096872E+03  0.00000000000E+00 0.  1.
          1    1    3    3  501    0  0.30167221796E+02 -0.36836597194E+01  0.16586691233E+02  0.34622954032E+02  0.00000000000E+00 0.  1.
         21    1    1    2  502  501 -0.10011365829E+02 -0.96706268973E+01 -0.39032438921E+01  0.14456271415E+02  0.00000000000E+00 0.  1.
<mgrwt>
<rscale>  1 0.30000000E+03</rscale>
<asrwt>0</asrwt>
<pdfrwt beam="1">  1        1 0.11283731E+00 0.30000000E+03</pdfrwt>
<pdfrwt beam="2">0</pdfrwt>
<totfact> 0.28583909E+01</totfact>
</mgrwt>
</event>
<event>
 6    1  0.1901260E-004  0.3000000E+03  0.7818608E-02  0.1093470E+00
          1   -1    0    0  502    0  0.00000000000E+00  0.00000000000E+00  0.54988204861E+02  0.54988204861E+02  0.00000000000E+00 0.  1.
         13   -1    0    0    0    0 -0.00000000000E+00 -0.00000000000E+00 -0.10000000000E+04  0.10000000000E+04  0.00000000000E+00 0.  1.
    9000005    2    1    2  501    0  0.49112064450E+02 -0.25295272032E+02 -0.94147430463E+03  0.99963154762E+03  0.33141743928E+03 0.  0.
         13    1    3    3    0    0 -0.69524141921E+01  0.32166793423E+02 -0.91427582021E+03  0.91486792166E+03  0.00000000000E+00 0.  1.
          3    1    3    3  501    0  0.56064478642E+02 -0.57462065455E+02 -0.27198484423E+02  0.84763625965E+02  0.00000000000E+00 0.  1.
         21    1    1    2  502  501 -0.49112064450E+02  0.25295272032E+02 -0.35374905109E+01  0.55356657240E+02  0.00000000000E+00 0.  1.
<mgrwt>
<rscale>  1 0.30000000E+03</rscale>
<asrwt>0</asrwt>
<pdfrwt beam="1">  1        1 0.19995753E+00 0.30000000E+03</pdfrwt>
<pdfrwt beam="2">0</pdfrwt>
<totfact> 0.10248180E+01</totfact>
</mgrwt>
</event>
<event>
 6    1  0.1901260E-004  0.3000000E+03  0.7818608E-02  0.1093470E+00
          1   -1    0    0  502    0  0.00000000000E+00  0.00000000000E+00  0.34716402396E+02  0.34716402396E+02  0.00000000000E+00 0.  1.
         13   -1    0    0    0    0 -0.00000000000E+00 -0.00000000000E+00 -0.10000000000E+04  0.10000000000E+04  0.00000000000E+00 0.  1.
    9000005    2    1    2  501    0  0.40707003617E+00 -0.86999080250E+01 -0.94700131619E+03  0.10144655772E+04  0.36366613871E+03 0.  0.
         13    1    3    3    0    0 -0.18331323721E+02 -0.79291682957E+02 -0.18970084148E+02  0.83564780309E+02  0.00000000000E+00 0.  1.
          1    1    3    3  501    0  0.18738393757E+02  0.70591774932E+02 -0.92803123204E+03  0.93090079694E+03  0.00000000000E+00 0.  1.
         21    1    1    2  502  501 -0.40707003617E+00  0.86999080250E+01 -0.18282281412E+02  0.20250825151E+02  0.00000000000E+00 0.  1.
<mgrwt>
<rscale>  1 0.30000000E+03</rscale>
<asrwt>0</asrwt>
<pdfrwt beam="1">  1        1 0.12624173E+00 0.30000000E+03</pdfrwt>
<pdfrwt beam="2">0</pdfrwt>
<totfact> 0.23991481E+01</totfact>
</mgrwt>
</event>
<event>
 6    1  0.1901260E-004  0.3000000E+03  0.7818608E-02  0.1093470E+00
          1   -1    0    0  502    0  0.00000000000E+00  0.00000000000E+00  0.31432877268E+02  0.31432877268E+02  0.00000000000E+00 0.  1.
         13   -1    0    0    0    0 -0.00000000000E+00 -0.00000000000E+00 -0.10000000000E+04  0.10000000000E+04  0.00000000000E+00 0.  1.
    9000005    2    1    2  501    0  0.97372431451E+00  0.11525779841E+02 -0.94748086692E+03  0.10073824734E+04  0.34200243111E+03 0.  0.
         13    1    3    3    0    0  0.13512867853E+03 -0.37497948624E+02 -0.75378556520E+03  0.76671933210E+03  0.00000000000E+00 0.  1.
          3    1    3    3  501    0 -0.13415495421E+03  0.49023728464E+02 -0.19369530172E+03  0.24066314134E+03  0.00000000000E+00 0.  1.
         21    1    1    2  502  501 -0.97372431451E+00 -0.11525779841E+02 -0.21086255813E+02  0.24050403826E+02  0.00000000000E+00 0. -1.
<mgrwt>
<rscale>  1 0.30000000E+03</rscale>
<asrwt>0</asrwt>
<pdfrwt beam="1">  1        1 0.11430161E+00 0.30000000E+03</pdfrwt>
<pdfrwt beam="2">0</pdfrwt>
<totfact> 0.28026551E+01</totfact>
</mgrwt>
</event>
<event>
 6    1  0.1901260E-004  0.3000000E+03  0.7818608E-02  0.1093470E+00
          1   -1    0    0  502    0  0.00000000000E+00  0.00000000000E+00  0.38129875762E+02  0.38129875762E+02  0.00000000000E+00 0.  1.
         13   -1    0    0    0    0 -0.00000000000E+00 -0.00000000000E+00 -0.10000000000E+04  0.10000000000E+04  0.00000000000E+00 0.  1.
    9000005    2    1    2  501    0  0.97909353687E+01 -0.89807737731E+01 -0.97141239981E+03  0.10217722556E+04  0.31654379661E+03 0.  0.
         13    1    3    3    0    0 -0.80870547583E+02 -0.10328800035E+03 -0.19891417462E+03  0.23827569189E+03  0.00000000000E+00 0.  1.
          1    1    3    3  501    0  0.90661482952E+02  0.94307226577E+02 -0.77249822519E+03  0.78349656375E+03  0.00000000000E+00 0.  1.
         21    1    1    2  502  501 -0.97909353687E+01  0.89807737731E+01  0.95422755743E+01  0.16357620123E+02  0.00000000000E+00 0.  1.
<mgrwt>
<rscale>  1 0.30000000E+03</rscale>
<asrwt>0</asrwt>
<pdfrwt beam="1">  1        1 0.13865439E+00 0.30000000E+03</pdfrwt>
<pdfrwt beam="2">0</pdfrwt>
<totfact> 0.20564378E+01</totfact>
</mgrwt>
</event>
<event>
 6    1  0.1901260E-004  0.3000000E+03  0.7818608E-02  0.1093470E+00
          1   -1    0    0  502    0  0.00000000000E+00  0.00000000000E+00  0.24616001762E+02  0.24616001762E+02  0.00000000000E+00 0.  1.
         13   -1    0    0    0    0 -0.00000000000E+00 -0.00000000000E+00 -0.10000000000E+04  0.10000000000E+04  0.00000000000E+00 0.  1.
    9000005    2    1    2  501    0  0.56378313385E+01 -0.78920351453E+01 -0.96476107752E+03  0.10102314335E+04  0.29951551391E+03 0.  0.
         13    1    3    3    0    0 -0.75349479193E+02  0.98101859601E+02 -0.72838637849E+03  0.73881542704E+03  0.00000000000E+00 0.  1.
          3    1    3    3  501    0  0.80987310532E+02 -0.10599389475E+03 -0.23637469903E+03  0.27141600641E+03  0.00000000000E+00 0.  1.
         21    1    1    2  502  501 -0.56378313385E+01  0.78920351453E+01 -0.10622920716E+02  0.14384568311E+02  0.00000000000E+00 0.  1.
<mgrwt>
<rscale>  1 0.30000000E+03</rscale>
<asrwt>0</asrwt>
<pdfrwt beam="1">  1        1 0.89512922E-01 0.30000000E+03</pdfrwt>
<pdfrwt beam="2">0</pdfrwt>
<totfact> 0.40139268E+01</totfact>
</mgrwt>
</event>
<event>
 6    1  0.1901260E-004  0.3000000E+03  0.7818608E-02  0.1093470E+00
          1   -1    0    0  502    0  0.00000000000E+00  0.00000000000E+00  0.31364847196E+02  0.31364847196E+02  0.00000000000E+00 0.  1.
         13   -1    0    0    0    0 -0.00000000000E+00 -0.00000000000E+00 -0.10000000000E+04  0.10000000000E+04  0.00000000000E+00 0.  1.
    9000005    2    1    2  501    0 -0.40773176061E+02  0.16351780741E+02 -0.92048566689E+03  0.96618658691E+03  0.29033226683E+03 0.  0.
         13    1    3    3    0    0  0.17815295121E+02  0.14813733582E+03 -0.44978170043E+03  0.47388356486E+03  0.00000000000E+00 0.  1.
          3    1    3    3  501    0 -0.58588471182E+02 -0.13178555508E+03 -0.47070396645E+03  0.49230302205E+03  0.00000000000E+00 0.  1.
         21    1    1    2  502  501  0.40773176061E+02 -0.16351780741E+02 -0.48149485919E+02  0.65178260285E+02  0.00000000000E+00 0.  1.
<mgrwt>
<rscale>  1 0.30000000E+03</rscale>
<asrwt>0</asrwt>
<pdfrwt beam="1">  1        1 0.11405423E+00 0.30000000E+03</pdfrwt>
<pdfrwt beam="2">0</pdfrwt>
<totfact> 0.28119623E+01</totfact>
</mgrwt>
</event>
<event>
 6    1  0.1901260E-004  0.3000000E+03  0.7818608E-02  0.1093470E+00
          1   -1    0    0  502    0  0.00000000000E+00  0.00000000000E+00  0.29343698962E+02  0.29343698962E+02  0.00000000000E+00 0.  1.
         13   -1    0    0    0    0 -0.00000000000E+00 -0.00000000000E+00 -0.10000000000E+04  0.10000000000E+04  0.00000000000E+00 0.  1.
    9000005    2    1    2  501    0 -0.25615860157E+02 -0.12735331554E+02 -0.89710903460E+03  0.95042879947E+03  0.31255706989E+03 0.  0.
         13    1    3    3    0    0 -0.42622258917E+02  0.12678303897E+03 -0.20917517873E+03  0.24828381204E+03  0.00000000000E+00 0.  1.
          1    1    3    3  501    0  0.17006398760E+02 -0.13951837053E+03 -0.68793385587E+03  0.70214498743E+03  0.00000000000E+00 0.  1.
         21    1    1    2  502  501  0.25615860157E+02  0.12735331554E+02 -0.73547266440E+02  0.78914899494E+02  0.00000000000E+00 0. -1.
<mgrwt>
<rscale>  1 0.30000000E+03</rscale>
<asrwt>0</asrwt>
<pdfrwt beam="1">  1        1 0.10670458E+00 0.30000000E+03</pdfrwt>
<pdfrwt beam="2">0</pdfrwt>
<totfact> 0.31097888E+01</totfact>
</mgrwt>
</event>
<event>
 6    1  0.1901260E-004  0.3000000E+03  0.7818608E-02  0.1093470E+00
          1   -1    0    0  502    0  0.00000000000E+00  0.00000000000E+00  0.28983166410E+02  0.28983166410E+02  0.00000000000E+00 0.  1.
         13   -1    0    0    0    0 -0.00000000000E+00 -0.00000000000E+00 -0.10000000000E+04  0.10000000000E+04  0.00000000000E+00 0.  1.
    9000005    2    1    2  501    0 -0.29677493182E+01  0.79382529167E+01 -0.95554821758E+03  0.10113450975E+04  0.33117168753E+03 0.  0.
         13    1    3    3    0    0 -0.75417171225E+02  0.52652938201E+02 -0.91029182521E+03  0.91492693077E+03  0.00000000000E+00 0.  1.
          3    1    3    3  501    0  0.72449421907E+02 -0.44714685284E+02 -0.45256392375E+02  0.96418166678E+02  0.00000000000E+00 0.  1.
         21    1    1    2  502  501  0.29677493182E+01 -0.79382529167E+01 -0.15468616007E+02  0.17638068958E+02  0.00000000000E+00 0.  1.
<mgrwt>
<rscale>  1 0.30000000E+03</rscale>
<asrwt>0</asrwt>
<pdfrwt beam="1">  1        1 0.10539355E+00 0.30000000E+03</pdfrwt>
<pdfrwt beam="2">0</pdfrwt>
<totfact> 0.31676121E+01</totfact>
</mgrwt>
</event>
<event>
 6    1  0.1901260E-004  0.3000000E+03  0.7818608E-02  0.1093470E+00
          1   -1    0    0  502    0  0.00000000000E+00  0.00000000000E+00  0.52027440275E+02  0.52027440275E+02  0.00000000000E+00 0.  1.
         13   -1    0    0    0    0 -0.00000000000E+00 -0.00000000000E+00 -0.10000000000E+04  0.10000000000E+04  0.00000000000E+00 0.  1.
    9000005    2    1    2  501    0 -0.33473795563E+02  0.12408964718E+02 -0.95927395429E+03  0.10145814937E+04  0.32847315054E+03 0.  0.
         13    1    3    3    0    0  0.64181831283E+02  0.46001476326E+02 -0.38169920662E+02  0.87706249118E+02  0.00000000000E+00 0.  1.
          1    1    3    3  501    0 -0.97655626846E+02 -0.33592511608E+02 -0.92110403362E+03  0.92687524460E+03  0.00000000000E+00 0.  1.
         21    1    1    2  502  501  0.33473795563E+02 -0.12408964718E+02  0.11301394560E+02  0.37445946560E+02  0.00000000000E+00 0.  1.
<mgrwt>
<rscale>  1 0.30000000E+03</rscale>
<asrwt>0</asrwt>
<pdfrwt beam="1">  1        1 0.18919109E+00 0.30000000E+03</pdfrwt>
<pdfrwt beam="2">0</pdfrwt>
<totfact> 0.11536683E+01</totfact>
</mgrwt>
</event>
<event>
 6    1  0.1901260E-004  0.3000000E+03  0.7818608E-02  0.1093470E+00
          1   -1    0    0  502    0  0.00000000000E+00  0.00000000000E+00  0.30204814311E+02  0.30204814311E+02  0.00000000000E+00 0.  1.
         13   -1    0    0    0    0 -0.00000000000E+00 -0.00000000000E+00 -0.10000000000E+04  0.10000000000E+04  0.00000000000E+00 0.  1.
    9000005    2    1    2  501    0  0.85633767935E+01 -0.20140199679E+02 -0.91088539530E+03  0.96736117924E+03  0.32495613345E+03 0.  0.
         13    1    3    3    0    0  0.10891726729E+03  0.11245267509E+02 -0.95702177922E+02  0.14542466783E+03  0.00000000000E+00 0.  1.
          1    1    3    3  501    0 -0.10035389050E+03 -0.31385467188E+02 -0.81518321738E+03  0.82193651141E+03  0.00000000000E+00 0.  1.
         21    1    1    2  502  501 -0.85633767935E+01  0.20140199679E+02 -0.58909790390E+02  0.62843635071E+02  0.00000000000E+00 0.  1.
<mgrwt>
<rscale>  1 0.30000000E+03</rscale>
<asrwt>0</asrwt>
<pdfrwt beam="1">  1        1 0.10983592E+00 0.30000000E+03</pdfrwt>
<pdfrwt beam="2">0</pdfrwt>
<totfact> 0.29776651E+01</totfact>
</mgrwt>
</event>
<event>
 6    1  0.1901260E-004  0.3000000E+03  0.7818608E-02  0.1093470E+00
          1   -1    0    0  502    0  0.00000000000E+00  0.00000000000E+00  0.57197762618E+02  0.57197762618E+02  0.00000000000E+00 0.  1.
         13   -1    0    0    0    0 -0.00000000000E+00 -0.00000000000E+00 -0.10000000000E+04  0.10000000000E+04  0.00000000000E+00 0.  1.
    9000005    2    1    2  501    0  0.55128114596E+01  0.84344586087E+01 -0.97233298812E+03  0.10259952560E+04  0.32731222756E+03 0.  0.
         13    1    3    3    0    0  0.13272253166E+03  0.97937411263E+02 -0.60514425208E+03  0.62722131084E+03  0.00000000000E+00 0.  1.
          1    1    3    3  501    0 -0.12720972020E+03 -0.89502952654E+02 -0.36718873603E+03  0.39877394513E+03  0.00000000000E+00 0.  1.
         21    1    1    2  502  501 -0.55128114596E+01 -0.84344586087E+01  0.29530750735E+02  0.31202506649E+02  0.00000000000E+00 0.  1.
<mgrwt>
<rscale>  1 0.30000000E+03</rscale>
<asrwt>0</asrwt>
<pdfrwt beam="1">  1        1 0.20799230E+00 0.30000000E+03</pdfrwt>
<pdfrwt beam="2">0</pdfrwt>
<totfact> 0.93878149E+00</totfact>
</mgrwt>
</event>
<event>
 6    1  0.1901260E-004  0.3000000E+03  0.7818608E-02  0.1093470E+00
          1   -1    0    0  502    0  0.00000000000E+00  0.00000000000E+00  0.73841276542E+02  0.73841276542E+02  0.00000000000E+00 0.  1.
         13   -1    0    0    0    0 -0.00000000000E+00 -0.00000000000E+00 -0.10000000000E+04  0.10000000000E+04  0.00000000000E+00 0.  1.
    9000005    2    1    2  501    0  0.64757048234E+02 -0.66192476876E+02 -0.92427069690E+03  0.98122117108E+03  0.31613880833E+03 0.  0.
         13    1    3    3    0    0  0.14718745127E+03 -0.14559240634E+03 -0.69163539590E+03  0.72195624207E+03  0.00000000000E+00 0.  1.
          1    1    3    3  501    0 -0.82430403037E+02  0.79399929468E+02 -0.23263530100E+03  0.25926492901E+03  0.00000000000E+00 0.  1.
         21    1    1    2  502  501 -0.64757048234E+02  0.66192476876E+02 -0.18880265538E+01  0.92620105459E+02  0.00000000000E+00 0.  1.
<mgrwt>
<rscale>  1 0.30000000E+03</rscale>
<asrwt>0</asrwt>
<pdfrwt beam="1">  1        1 0.26851430E+00 0.30000000E+03</pdfrwt>
<pdfrwt beam="2">0</pdfrwt>
<totfact> 0.48859569E+00</totfact>
</mgrwt>
</event>
<event>
 6    1  0.1901260E-004  0.3000000E+03  0.7818608E-02  0.1093470E+00
          1   -1    0    0  502    0  0.00000000000E+00  0.00000000000E+00  0.41203560090E+02  0.41203560090E+02  0.00000000000E+00 0.  1.
         13   -1    0    0    0    0 -0.00000000000E+00 -0.00000000000E+00 -0.10000000000E+04  0.10000000000E+04  0.00000000000E+00 0.  1.
    9000005    2    1    2  501    0  0.71193832671E+02 -0.97868448455E+01 -0.82691283423E+03  0.89101158431E+03  0.32396367669E+03 0.  0.
         13    1    3    3    0    0  0.70816581588E+02  0.35698689452E+02 -0.83995586168E+03  0.84369143306E+03  0.00000000000E+00 0.  1.
          1    1    3    3  501    0  0.37725108260E+00 -0.45485534297E+02  0.13043027449E+02  0.47320151244E+02  0.00000000000E+00 0.  1.
         21    1    1    2  502  501 -0.71193832671E+02  0.97868448455E+01 -0.13188360568E+03  0.15019197578E+03  0.00000000000E+00 0. -1.
<mgrwt>
<rscale>  1 0.30000000E+03</rscale>
<asrwt>0</asrwt>
<pdfrwt beam="1">  1        1 0.14983144E+00 0.30000000E+03</pdfrwt>
<pdfrwt beam="2">0</pdfrwt>
<totfact> 0.18000452E+01</totfact>
</mgrwt>
</event>
<event>
 6    1  0.1901260E-004  0.3000000E+03  0.7818608E-02  0.1093470E+00
          1   -1    0    0  502    0  0.00000000000E+00  0.00000000000E+00  0.25825784695E+02  0.25825784695E+02  0.00000000000E+00 0.  1.
         13   -1    0    0    0    0 -0.00000000000E+00 -0.00000000000E+00 -0.10000000000E+04  0.10000000000E+04  0.00000000000E+00 0.  1.
    9000005    2    1    2  501    0 -0.90654983010E+01  0.99122534421E+01 -0.96489698377E+03  0.10095008635E+04  0.29645466441E+03 0.  0.
         13    1    3    3    0    0 -0.17189990393E+02  0.28584658340E+02  0.96640465838E+01  0.34727111289E+02  0.00000000000E+00 0.  1.
          3    1    3    3  501    0  0.81244920921E+01 -0.18672404897E+02 -0.97456103035E+03  0.97477375219E+03  0.00000000000E+00 0.  1.
         21    1    1    2  502  501  0.90654983010E+01 -0.99122534421E+01 -0.92772315377E+01  0.16324921217E+02  0.00000000000E+00 0.  1.
<mgrwt>
<rscale>  1 0.30000000E+03</rscale>
<asrwt>0</asrwt>
<pdfrwt beam="1">  1        1 0.93912142E-01 0.30000000E+03</pdfrwt>
<pdfrwt beam="2">0</pdfrwt>
<totfact> 0.37486512E+01</totfact>
</mgrwt>
</event>
<event>
 6    1  0.1901260E-004  0.3000000E+03  0.7818608E-02  0.1093470E+00
          1   -1    0    0  502    0  0.00000000000E+00  0.00000000000E+00  0.38422413105E+02  0.38422413105E+02  0.00000000000E+00 0.  1.
         13   -1    0    0    0    0 -0.00000000000E+00 -0.00000000000E+00 -0.10000000000E+04  0.10000000000E+04  0.00000000000E+00 0.  1.
    9000005    2    1    2  501    0 -0.35627127727E+02 -0.25178617319E+02 -0.92393567468E+03  0.98080150930E+03  0.32620731859E+03 0.  0.
         13    1    3    3    0    0  0.13393342574E+03 -0.55526155354E+02 -0.29500765851E+03  0.32871086845E+03  0.00000000000E+00 0.  1.
          3    1    3    3  501    0 -0.16956055347E+03  0.30347538035E+02 -0.62892801617E+03  0.65209064085E+03  0.00000000000E+00 0.  1.
         21    1    1    2  502  501  0.35627127727E+02  0.25178617319E+02 -0.37641912218E+02  0.57620903807E+02  0.00000000000E+00 0.  1.
<mgrwt>
<rscale>  1 0.30000000E+03</rscale>
<asrwt>0</asrwt>
<pdfrwt beam="1">  1        1 0.13971816E+00 0.30000000E+03</pdfrwt>
<pdfrwt beam="2">0</pdfrwt>
<totfact> 0.20301231E+01</totfact>
</mgrwt>
</event>
<event>
 6    1  0.1901260E-004  0.3000000E+03  0.7818608E-02  0.1093470E+00
          1   -1    0    0  502    0  0.00000000000E+00  0.00000000000E+00  0.49995707932E+02  0.49995707932E+02  0.00000000000E+00 0.  1.
         13   -1    0    0    0    0 -0.00000000000E+00 -0.00000000000E+00 -0.10000000000E+04  0.10000000000E+04  0.00000000000E+00 0.  1.
    9000005    2    1    2  501    0 -0.55598960595E+02 -0.14707511496E+02 -0.93358474770E+03  0.99018637128E+03  0.32493232128E+03 0.  0.
         13    1    3    3    0    0  0.27480783532E+01 -0.10765566326E+03 -0.92473483238E+02  0.14194590120E+03  0.00000000000E+00 0.  1.
          3    1    3    3  501    0 -0.58347038948E+02  0.92948151761E+02 -0.84111126446E+03  0.84824047008E+03  0.00000000000E+00 0.  1.
         21    1    1    2  502  501  0.55598960595E+02  0.14707511496E+02 -0.16419544368E+02  0.59809336653E+02  0.00000000000E+00 0.  1.
<mgrwt>
<rscale>  1 0.30000000E+03</rscale>
<asrwt>0</asrwt>
<pdfrwt beam="1">  1        1 0.18180296E+00 0.30000000E+03</pdfrwt>
<pdfrwt beam="2">0</pdfrwt>
<totfact> 0.12520737E+01</totfact>
</mgrwt>
</event>
<event>
 6    1  0.1901260E-004  0.3000000E+03  0.7818608E-02  0.1093470E+00
          1   -1    0    0  502    0  0.00000000000E+00  0.00000000000E+00  0.34940431898E+02  0.34940431898E+02  0.00000000000E+00 0.  1.
         13   -1    0    0    0    0 -0.00000000000E+00 -0.00000000000E+00 -0.10000000000E+04  0.10000000000E+04  0.00000000000E+00 0.  1.
    9000005    2    1    2  501    0 -0.29951244067E+02 -0.28857916212E+02 -0.81803825727E+03  0.88214932552E+03  0.32752249665E+03 0.  0.
         13    1    3    3    0    0 -0.25122344018E+02  0.66846182800E+02 -0.14438246974E+02  0.72856072496E+02  0.00000000000E+00 0.  1.
          3    1    3    3  501    0 -0.48289000486E+01 -0.95704099012E+02 -0.80360001030E+03  0.80929325302E+03  0.00000000000E+00 0.  1.
         21    1    1    2  502  501  0.29951244067E+02  0.28857916212E+02 -0.14702131083E+03  0.15279110638E+03  0.00000000000E+00 0. -1.
<mgrwt>
<rscale>  1 0.30000000E+03</rscale>
<asrwt>0</asrwt>
<pdfrwt beam="1">  1        1 0.12705638E+00 0.30000000E+03</pdfrwt>
<pdfrwt beam="2">0</pdfrwt>
<totfact> 0.23744709E+01</totfact>
</mgrwt>
</event>
<event>
 6    1  0.1901260E-004  0.3000000E+03  0.7818608E-02  0.1093470E+00
          1   -1    0    0  502    0  0.00000000000E+00  0.00000000000E+00  0.67350939485E+02  0.67350939485E+02  0.00000000000E+00 0.  1.
         13   -1    0    0    0    0 -0.00000000000E+00 -0.00000000000E+00 -0.10000000000E+04  0.10000000000E+04  0.00000000000E+00 0.  1.
    9000005    2    1    2  501    0 -0.56206322386E+01 -0.13607987513E+02 -0.96192736998E+03  0.10345791797E+04  0.38056936978E+03 0.  0.
         13    1    3    3    0    0 -0.10263344580E+03 -0.13234496223E+03 -0.21741224992E+03  0.27443924581E+03  0.00000000000E+00 0.  1.
          3    1    3    3  501    0  0.97012813566E+02  0.11873697472E+03 -0.74451512007E+03  0.76013993394E+03  0.00000000000E+00 0.  1.
         21    1    1    2  502  501  0.56206322386E+01  0.13607987513E+02  0.29278309468E+02  0.32771759737E+02  0.00000000000E+00 0.  1.
<mgrwt>
<rscale>  1 0.30000000E+03</rscale>
<asrwt>0</asrwt>
<pdfrwt beam="1">  1        1 0.24491302E+00 0.30000000E+03</pdfrwt>
<pdfrwt beam="2">0</pdfrwt>
<totfact> 0.63010277E+00</totfact>
</mgrwt>
</event>
<event>
 6    1  0.1901260E-004  0.3000000E+03  0.7818608E-02  0.1093470E+00
          1   -1    0    0  502    0  0.00000000000E+00  0.00000000000E+00  0.28890475485E+02  0.28890475485E+02  0.00000000000E+00 0.  1.
         13   -1    0    0    0    0 -0.00000000000E+00 -0.00000000000E+00 -0.10000000000E+04  0.10000000000E+04  0.00000000000E+00 0.  1.
    9000005    2    1    2  501    0 -0.29050927615E+01 -0.10827030755E+02 -0.95448422682E+03  0.10088389249E+04  0.32648150470E+03 0.  0.
         13    1    3    3    0    0 -0.85960803644E+02 -0.72175438215E+01 -0.91089477038E+03  0.91497029209E+03  0.00000000000E+00 0.  1.
          1    1    3    3  501    0  0.83055710883E+02 -0.36094869337E+01 -0.43589456446E+02  0.93868632777E+02  0.00000000000E+00 0.  1.
         21    1    1    2  502  501  0.29050927615E+01  0.10827030755E+02 -0.16625297694E+02  0.20051550622E+02  0.00000000000E+00 0.  1.
<mgrwt>
<rscale>  1 0.30000000E+03</rscale>
<asrwt>0</asrwt>
<pdfrwt beam="1">  1        1 0.10505650E+00 0.30000000E+03</pdfrwt>
<pdfrwt beam="2">0</pdfrwt>
<totfact> 0.31827287E+01</totfact>
</mgrwt>
</event>
<event>
 6    1  0.1901260E-004  0.3000000E+03  0.7818608E-02  0.1093470E+00
          1   -1    0    0  502    0  0.00000000000E+00  0.00000000000E+00  0.33396691560E+02  0.33396691560E+02  0.00000000000E+00 0.  1.
         13   -1    0    0    0    0 -0.00000000000E+00 -0.00000000000E+00 -0.10000000000E+04  0.10000000000E+04  0.00000000000E+00 0.  1.
    9000005    2    1    2  501    0  0.14063319542E+02 -0.89069098716E+00 -0.95735128047E+03  0.10165393398E+04  0.34151454558E+03 0.  0.
         13    1    3    3    0    0 -0.44083549944E+02  0.16046478009E+03 -0.39523103062E+03  0.42883548429E+03  0.00000000000E+00 0.  1.
          3    1    3    3  501    0  0.58146869487E+02 -0.16135547108E+03 -0.56212024985E+03  0.58770385550E+03  0.00000000000E+00 0.  1.
         21    1    1    2  502  501 -0.14063319542E+02  0.89069098716E+00 -0.92520279731E+01  0.16857351767E+02  0.00000000000E+00 0. -1.
<mgrwt>
<rscale>  1 0.30000000E+03</rscale>
<asrwt>0</asrwt>
<pdfrwt beam="1">  1        1 0.12144277E+00 0.30000000E+03</pdfrwt>
<pdfrwt beam="2">0</pdfrwt>
<totfact> 0.25513774E+01</totfact>
</mgrwt>
</event>
<event>
 6    1  0.1901260E-004  0.3000000E+03  0.7818608E-02  0.1093470E+00
          1   -1    0    0  502    0  0.00000000000E+00  0.00000000000E+00  0.36855040669E+02  0.36855040669E+02  0.00000000000E+00 0.  1.
         13   -1    0    0    0    0 -0.00000000000E+00 -0.00000000000E+00 -0.10000000000E+04  0.10000000000E+04  0.00000000000E+00 0.  1.
    9000005    2    1    2  501    0  0.26576074305E+02 -0.26436040355E+01 -0.94049008258E+03  0.10018333359E+04  0.34414409921E+03 0.  0.
         13    1    3    3    0    0  0.16223995132E+03  0.59114562274E+01 -0.24998813783E+03  0.29807854028E+03  0.00000000000E+00 0.  1.
          3    1    3    3  501    0 -0.13566387702E+03 -0.85550602629E+01 -0.69050194475E+03  0.70375479557E+03  0.00000000000E+00 0.  1.
         21    1    1    2  502  501 -0.26576074305E+02  0.26436040355E+01 -0.22654876747E+02  0.35021704815E+02  0.00000000000E+00 0. -1.
<mgrwt>
<rscale>  1 0.30000000E+03</rscale>
<asrwt>0</asrwt>
<pdfrwt beam="1">  1        1 0.13401861E+00 0.30000000E+03</pdfrwt>
<pdfrwt beam="2">0</pdfrwt>
<totfact> 0.21764032E+01</totfact>
</mgrwt>
</event>
<event>
 6    1  0.1901260E-004  0.3000000E+03  0.7818608E-02  0.1093470E+00
          3   -1    0    0  502    0  0.00000000000E+00  0.00000000000E+00  0.30849640339E+02  0.30849640339E+02  0.00000000000E+00 0.  1.
         13   -1    0    0    0    0 -0.00000000000E+00 -0.00000000000E+00 -0.10000000000E+04  0.10000000000E+04  0.00000000000E+00 0.  1.
    9000005    2    1    2  501    0 -0.12998414991E+02  0.11350640794E+02 -0.89558277626E+03  0.95528519654E+03  0.33196912773E+03 0.  0.
         13    1    3    3    0    0 -0.14164480923E+03  0.78383969901E+02 -0.28560009215E+03  0.32829058981E+03  0.00000000000E+00 0.  1.
          1    1    3    3  501    0  0.12864639424E+03 -0.67033329107E+02 -0.60998268410E+03  0.62699460673E+03  0.00000000000E+00 0.  1.
         21    1    1    2  502  501  0.12998414991E+02 -0.11350640794E+02 -0.73567583405E+02  0.75564443800E+02  0.00000000000E+00 0. -1.
<mgrwt>
<rscale>  1 0.30000000E+03</rscale>
<asrwt>0</asrwt>
<pdfrwt beam="1">  1        3 0.11218075E+00 0.30000000E+03</pdfrwt>
<pdfrwt beam="2">0</pdfrwt>
<totfact> 0.28458632E+00</totfact>
</mgrwt>
</event>
<event>
 6    1  0.1901260E-004  0.3000000E+03  0.7818608E-02  0.1093470E+00
          1   -1    0    0  502    0  0.00000000000E+00  0.00000000000E+00  0.28390243522E+02  0.28390243522E+02  0.00000000000E+00 0.  1.
         13   -1    0    0    0    0 -0.00000000000E+00 -0.00000000000E+00 -0.10000000000E+04  0.10000000000E+04  0.00000000000E+00 0.  1.
    9000005    2    1    2  501    0 -0.16963055344E+02 -0.95901003758E+01 -0.95722741058E+03  0.10041710952E+04  0.30281274347E+03 0.  0.
         13    1    3    3    0    0 -0.76534965497E+02 -0.50114169297E+02 -0.91719843985E+03  0.92174942852E+03  0.00000000000E+00 0.  1.
          3    1    3    3  501    0  0.59571910153E+02  0.40524068921E+02 -0.40028970723E+02  0.82421666680E+02  0.00000000000E+00 0.  1.
         21    1    1    2  502  501  0.16963055344E+02  0.95901003758E+01 -0.14382345901E+02  0.24219148322E+02  0.00000000000E+00 0.  1.
<mgrwt>
<rscale>  1 0.30000000E+03</rscale>
<asrwt>0</asrwt>
<pdfrwt beam="1">  1        1 0.10323747E+00 0.30000000E+03</pdfrwt>
<pdfrwt beam="2">0</pdfrwt>
<totfact> 0.32661428E+01</totfact>
</mgrwt>
</event>
<event>
 6    1  0.1901260E-004  0.3000000E+03  0.7818608E-02  0.1093470E+00
          1   -1    0    0  502    0  0.00000000000E+00  0.00000000000E+00  0.34907558004E+02  0.34907558004E+02  0.00000000000E+00 0.  1.
         13   -1    0    0    0    0 -0.00000000000E+00 -0.00000000000E+00 -0.10000000000E+04  0.10000000000E+04  0.00000000000E+00 0.  1.
    9000005    2    1    2  501    0 -0.12806513691E+02 -0.66070802631E+01 -0.96544571825E+03  0.10204928049E+04  0.33032176690E+03 0.  0.
         13    1    3    3    0    0  0.14512162808E+03  0.38384388774E+02 -0.62129768414E+03  0.63917482785E+03  0.00000000000E+00 0.  1.
          3    1    3    3  501    0 -0.15792814177E+03 -0.44991469037E+02 -0.34414803411E+03  0.38131797706E+03  0.00000000000E+00 0.  1.
         21    1    1    2  502  501  0.12806513691E+02  0.66070802631E+01  0.35327625661E+00  0.14414753090E+02  0.00000000000E+00 0.  1.
<mgrwt>
<rscale>  1 0.30000000E+03</rscale>
<asrwt>0</asrwt>
<pdfrwt beam="1">  1        1 0.12693684E+00 0.30000000E+03</pdfrwt>
<pdfrwt beam="2">0</pdfrwt>
<totfact> 0.23780716E+01</totfact>
</mgrwt>
</event>
<event>
 6    1  0.1901260E-004  0.3000000E+03  0.7818608E-02  0.1093470E+00
          1   -1    0    0  502    0  0.00000000000E+00  0.00000000000E+00  0.39982123768E+02  0.39982123768E+02  0.00000000000E+00 0.  1.
         13   -1    0    0    0    0 -0.00000000000E+00 -0.00000000000E+00 -0.10000000000E+04  0.10000000000E+04  0.00000000000E+00 0.  1.
    9000005    2    1    2  501    0  0.80728913294E+01  0.90435134820E+01 -0.97167236904E+03  0.10231659437E+04  0.32027238221E+03 0.  0.
         13    1    3    3    0    0  0.16390215327E+02  0.15679657450E+03 -0.65372399290E+03  0.67246476772E+03  0.00000000000E+00 0.  1.
          1    1    3    3  501    0 -0.83173239973E+01 -0.14775306101E+03 -0.31794837614E+03  0.35070117595E+03  0.00000000000E+00 0.  1.
         21    1    1    2  502  501 -0.80728913294E+01 -0.90435134820E+01  0.11654492812E+02  0.16816180102E+02  0.00000000000E+00 0.  1.
<mgrwt>
<rscale>  1 0.30000000E+03</rscale>
<asrwt>0</asrwt>
<pdfrwt beam="1">  1        1 0.14538985E+00 0.30000000E+03</pdfrwt>
<pdfrwt beam="2">0</pdfrwt>
<totfact> 0.18968174E+01</totfact>
</mgrwt>
</event>
<event>
 6    1  0.1901260E-004  0.3000000E+03  0.7818608E-02  0.1093470E+00
          1   -1    0    0  502    0  0.00000000000E+00  0.00000000000E+00  0.48573859220E+02  0.48573859220E+02  0.00000000000E+00 0.  1.
         13   -1    0    0    0    0 -0.00000000000E+00 -0.00000000000E+00 -0.10000000000E+04  0.10000000000E+04  0.00000000000E+00 0.  1.
    9000005    2    1    2  501    0  0.21700924134E+02 -0.38604453068E+01 -0.96805594625E+03  0.10209625649E+04  0.32364550147E+03 0.  0.
         13    1    3    3    0    0  0.27509780550E+02  0.15850879817E+03 -0.52257333254E+03  0.54677665917E+03  0.00000000000E+00 0.  1.
          1    1    3    3  501    0 -0.58088564164E+01 -0.16236924348E+03 -0.44548261371E+03  0.47418590569E+03  0.00000000000E+00 0.  1.
         21    1    1    2  502  501 -0.21700924134E+02  0.38604453068E+01  0.16629805473E+02  0.27611294361E+02  0.00000000000E+00 0.  1.
<mgrwt>
<rscale>  1 0.30000000E+03</rscale>
<asrwt>0</asrwt>
<pdfrwt beam="1">  1        1 0.17663259E+00 0.30000000E+03</pdfrwt>
<pdfrwt beam="2">0</pdfrwt>
<totfact> 0.13263480E+01</totfact>
</mgrwt>
</event>
<event>
 6    1  0.1901260E-004  0.3000000E+03  0.7818608E-02  0.1093470E+00
          1   -1    0    0  502    0  0.00000000000E+00  0.00000000000E+00  0.32086986811E+02  0.32086986811E+02  0.00000000000E+00 0.  1.
         13   -1    0    0    0    0 -0.00000000000E+00 -0.00000000000E+00 -0.10000000000E+04  0.10000000000E+04  0.00000000000E+00 0.  1.
    9000005    2    1    2  501    0 -0.27122038927E+02 -0.11570662331E+02 -0.94908466405E+03  0.99710139044E+03  0.30426961408E+03 0.  0.
         13    1    3    3    0    0  0.65824539856E+02  0.11715009393E+03 -0.57915069561E+03  0.59453556898E+03  0.00000000000E+00 0.  1.
          3    1    3    3  501    0 -0.92946578784E+02 -0.12872075626E+03 -0.36993396844E+03  0.40256582146E+03  0.00000000000E+00 0.  1.
         21    1    1    2  502  501  0.27122038927E+02  0.11570662331E+02 -0.18828349141E+02  0.34985596375E+02  0.00000000000E+00 0. -1.
<mgrwt>
<rscale>  1 0.30000000E+03</rscale>
<asrwt>0</asrwt>
<pdfrwt beam="1">  1        1 0.11668020E+00 0.30000000E+03</pdfrwt>
<pdfrwt beam="2">0</pdfrwt>
<totfact> 0.27153307E+01</totfact>
</mgrwt>
</event>
<event>
 6    1  0.1901260E-004  0.3000000E+03  0.7818608E-02  0.1093470E+00
          1   -1    0    0  502    0  0.00000000000E+00  0.00000000000E+00  0.42998516816E+02  0.42998516816E+02  0.00000000000E+00 0.  1.
         13   -1    0    0    0    0 -0.00000000000E+00 -0.00000000000E+00 -0.10000000000E+04  0.10000000000E+04  0.00000000000E+00 0.  1.
    9000005    2    1    2  501    0  0.18467557495E+01  0.12038230667E+02 -0.96528542291E+03  0.10282691868E+04  0.35413732281E+03 0.  0.
         13    1    3    3    0    0  0.13179527891E+03  0.36977648326E+01 -0.83033758290E+03  0.84074025156E+03  0.00000000000E+00 0.  1.
          1    1    3    3  501    0 -0.12994852316E+03  0.83404658342E+01 -0.13494784001E+03  0.18752893528E+03  0.00000000000E+00 0.  1.
         21    1    1    2  502  501 -0.18467557495E+01 -0.12038230667E+02  0.82839397245E+01  0.14729329983E+02  0.00000000000E+00 0.  1.
<mgrwt>
<rscale>  1 0.30000000E+03</rscale>
<asrwt>0</asrwt>
<pdfrwt beam="1">  1        1 0.15635857E+00 0.30000000E+03</pdfrwt>
<pdfrwt beam="2">0</pdfrwt>
<totfact> 0.16686232E+01</totfact>
</mgrwt>
</event>
<event>
 6    1  0.1901260E-004  0.3000000E+03  0.7818608E-02  0.1093470E+00
          1   -1    0    0  502    0  0.00000000000E+00  0.00000000000E+00  0.47274194850E+02  0.47274194850E+02  0.00000000000E+00 0.  1.
         13   -1    0    0    0    0 -0.00000000000E+00 -0.00000000000E+00 -0.10000000000E+04  0.10000000000E+04  0.00000000000E+00 0.  1.
    9000005    2    1    2  501    0  0.79600075539E+02  0.78830218587E+01 -0.86416456539E+03  0.92793682749E+03  0.32846315727E+03 0.  0.
         13    1    3    3    0    0  0.55325619095E+02 -0.40218685486E+02 -0.66395625128E+01  0.68720816212E+02  0.00000000000E+00 0.  1.
          3    1    3    3  501    0  0.24274456444E+02  0.48101707345E+02 -0.85752500287E+03  0.85921601128E+03  0.00000000000E+00 0.  1.
         21    1    1    2  502  501 -0.79600075539E+02 -0.78830218587E+01 -0.88561239763E+02  0.11933736736E+03  0.00000000000E+00 0.  1.
<mgrwt>
<rscale>  1 0.30000000E+03</rscale>
<asrwt>0</asrwt>
<pdfrwt beam="1">  1        1 0.17190653E+00 0.30000000E+03</pdfrwt>
<pdfrwt beam="2">0</pdfrwt>
<totfact> 0.13984310E+01</totfact>
</mgrwt>
</event>
<event>
 6    1  0.1901260E-004  0.3000000E+03  0.7818608E-02  0.1093470E+00
          1   -1    0    0  502    0  0.00000000000E+00  0.00000000000E+00  0.74235746794E+02  0.74235746794E+02  0.00000000000E+00 0.  1.
         13   -1    0    0    0    0 -0.00000000000E+00 -0.00000000000E+00 -0.10000000000E+04  0.10000000000E+04  0.00000000000E+00 0.  1.
    9000005    2    1    2  501    0  0.33060402893E+02  0.62925221195E+02 -0.94419522890E+03  0.10008036382E+04  0.32411528557E+03 0.  0.
         13    1    3    3    0    0  0.26214353114E+02  0.13715986272E+03 -0.15712258302E+03  0.21020829277E+03  0.00000000000E+00 0.  1.
          1    1    3    3  501    0  0.68460497789E+01 -0.74234641530E+02 -0.78707264587E+03  0.79059534547E+03  0.00000000000E+00 0.  1.
         21    1    1    2  502  501 -0.33060402893E+02 -0.62925221195E+02  0.18430975692E+02  0.73432108555E+02  0.00000000000E+00 0.  1.
<mgrwt>
<rscale>  1 0.30000000E+03</rscale>
<asrwt>0</asrwt>
<pdfrwt beam="1">  1        1 0.26994874E+00 0.30000000E+03</pdfrwt>
<pdfrwt beam="2">0</pdfrwt>
<totfact> 0.48107941E+00</totfact>
</mgrwt>
</event>
<event>
 6    1  0.1901260E-004  0.3000000E+03  0.7818608E-02  0.1093470E+00
          1   -1    0    0  502    0  0.00000000000E+00  0.00000000000E+00  0.37015159873E+02  0.37015159873E+02  0.00000000000E+00 0.  1.
         13   -1    0    0    0    0 -0.00000000000E+00 -0.00000000000E+00 -0.10000000000E+04  0.10000000000E+04  0.00000000000E+00 0.  1.
    9000005    2    1    2  501    0  0.93183389514E+01 -0.34443063163E+02 -0.92756274924E+03  0.98673712726E+03  0.33467050735E+03 0.  0.
         13    1    3    3    0    0 -0.48351097553E+02 -0.54398308892E+00  0.78052996781E+01  0.48980069980E+02  0.00000000000E+00 0.  1.
          1    1    3    3  501    0  0.57669436504E+02 -0.33899080074E+02 -0.93536804892E+03  0.93775705728E+03  0.00000000000E+00 0.  1.
         21    1    1    2  502  501 -0.93183389514E+01  0.34443063163E+02 -0.35422090887E+02  0.50278032615E+02  0.00000000000E+00 0.  1.
<mgrwt>
<rscale>  1 0.30000000E+03</rscale>
<asrwt>0</asrwt>
<pdfrwt beam="1">  1        1 0.13460087E+00 0.30000000E+03</pdfrwt>
<pdfrwt beam="2">0</pdfrwt>
<totfact> 0.21608366E+01</totfact>
</mgrwt>
</event>
<event>
 6    1  0.1901260E-004  0.3000000E+03  0.7818608E-02  0.1093470E+00
          1   -1    0    0  502    0  0.00000000000E+00  0.00000000000E+00  0.43336505471E+02  0.43336505471E+02  0.00000000000E+00 0.  1.
         13   -1    0    0    0    0 -0.00000000000E+00 -0.00000000000E+00 -0.10000000000E+04  0.10000000000E+04  0.00000000000E+00 0.  1.
    9000005    2    1    2  501    0 -0.19756091227E+01  0.10761408183E+02 -0.97526445028E+03  0.10217562716E+04  0.30450848871E+03 0.  0.
         13    1    3    3    0    0  0.11140723806E+02 -0.27294555617E+00 -0.99531527937E+03  0.99537766479E+03  0.00000000000E+00 0.  1.
          3    1    3    3  501    0 -0.13116332929E+02  0.11034353739E+02  0.20050829083E+02  0.26378606840E+02  0.00000000000E+00 0.  1.
         21    1    1    2  502  501  0.19756091227E+01 -0.10761408183E+02  0.18600955755E+02  0.21580233838E+02  0.00000000000E+00 0.  1.
<mgrwt>
<rscale>  1 0.30000000E+03</rscale>
<asrwt>0</asrwt>
<pdfrwt beam="1">  1        1 0.15758762E+00 0.30000000E+03</pdfrwt>
<pdfrwt beam="2">0</pdfrwt>
<totfact> 0.16451865E+01</totfact>
</mgrwt>
</event>
<event>
 6    1  0.1901260E-004  0.3000000E+03  0.7818608E-02  0.1093470E+00
          1   -1    0    0  502    0  0.00000000000E+00  0.00000000000E+00  0.41171835283E+02  0.41171835283E+02  0.00000000000E+00 0.  1.
         13   -1    0    0    0    0 -0.00000000000E+00 -0.00000000000E+00 -0.10000000000E+04  0.10000000000E+04  0.00000000000E+00 0.  1.
    9000005    2    1    2  501    0 -0.50760346638E+02  0.28224866932E+02 -0.89234084860E+03  0.95288922596E+03  0.32916930442E+03 0.  0.
         13    1    3    3    0    0 -0.85378116193E+02 -0.11636113206E+03 -0.21179890190E+03  0.25629691888E+03  0.00000000000E+00 0.  1.
          1    1    3    3  501    0  0.34617769555E+02  0.14458599900E+03 -0.68054194669E+03  0.69659230708E+03  0.00000000000E+00 0.  1.
         21    1    1    2  502  501  0.50760346638E+02 -0.28224866932E+02 -0.66487316120E+02  0.88282609323E+02  0.00000000000E+00 0.  1.
<mgrwt>
<rscale>  1 0.30000000E+03</rscale>
<asrwt>0</asrwt>
<pdfrwt beam="1">  1        1 0.14971608E+00 0.30000000E+03</pdfrwt>
<pdfrwt beam="2">0</pdfrwt>
<totfact> 0.18024797E+01</totfact>
</mgrwt>
</event>
<event>
 6    1  0.1901260E-004  0.3000000E+03  0.7818608E-02  0.1093470E+00
          1   -1    0    0  502    0  0.00000000000E+00  0.00000000000E+00  0.47349392001E+02  0.47349392001E+02  0.00000000000E+00 0.  1.
         13   -1    0    0    0    0 -0.00000000000E+00 -0.00000000000E+00 -0.10000000000E+04  0.10000000000E+04  0.00000000000E+00 0.  1.
    9000005    2    1    2  501    0  0.12354750926E+02  0.47331263077E+01 -0.97012082924E+03  0.10254347625E+04  0.33197437628E+03 0.  0.
         13    1    3    3    0    0  0.14702240502E+02  0.71439271522E+02 -0.23739599313E+02  0.76702633377E+02  0.00000000000E+00 0.  1.
          1    1    3    3  501    0 -0.23474895758E+01 -0.66706145214E+02 -0.94638122992E+03  0.94873212914E+03  0.00000000000E+00 0.  1.
         21    1    1    2  502  501 -0.12354750926E+02 -0.47331263077E+01  0.17470221239E+02  0.21914629479E+02  0.00000000000E+00 0.  1.
<mgrwt>
<rscale>  1 0.30000000E+03</rscale>
<asrwt>0</asrwt>
<pdfrwt beam="1">  1        1 0.17217997E+00 0.30000000E+03</pdfrwt>
<pdfrwt beam="2">0</pdfrwt>
<totfact> 0.13941461E+01</totfact>
</mgrwt>
</event>
<event>
 6    1  0.1901260E-004  0.3000000E+03  0.7818608E-02  0.1093470E+00
          3   -1    0    0  502    0  0.00000000000E+00  0.00000000000E+00  0.34856691659E+02  0.34856691659E+02  0.00000000000E+00 0.  1.
         13   -1    0    0    0    0 -0.00000000000E+00 -0.00000000000E+00 -0.10000000000E+04  0.10000000000E+04  0.00000000000E+00 0.  1.
    9000005    2    1    2  501    0  0.21376004683E+02  0.63893460925E+01 -0.96127077385E+03  0.10122126231E+04  0.31628331648E+03 0.  0.
         13    1    3    3    0    0 -0.40057954640E+02  0.12057324977E+03 -0.77446536639E+03  0.78481791011E+03  0.00000000000E+00 0.  1.
          1    1    3    3  501    0  0.61433959323E+02 -0.11418390368E+03 -0.18680540746E+03  0.22739471294E+03  0.00000000000E+00 0.  1.
         21    1    1    2  502  501 -0.21376004683E+02 -0.63893460925E+01 -0.38725344886E+01  0.22644068607E+02  0.00000000000E+00 0.  1.
<mgrwt>
<rscale>  1 0.30000000E+03</rscale>
<asrwt>0</asrwt>
<pdfrwt beam="1">  1        3 0.12675187E+00 0.30000000E+03</pdfrwt>
<pdfrwt beam="2">0</pdfrwt>
<totfact> 0.19307329E+00</totfact>
</mgrwt>
</event>
<event>
 6    1  0.1901260E-004  0.3000000E+03  0.7818608E-02  0.1093470E+00
          1   -1    0    0  502    0  0.00000000000E+00  0.00000000000E+00  0.16944360865E+02  0.16944360865E+02  0.00000000000E+00 0.  1.
         13   -1    0    0    0    0 -0.00000000000E+00 -0.00000000000E+00 -0.10000000000E+04  0.10000000000E+04  0.00000000000E+00 0.  1.
    9000005    2    1    2  501    0 -0.35731744781E+01  0.14312956164E+02 -0.92692408824E+03  0.95890662060E+03  0.24514488240E+03 0.  0.
         13    1    3    3    0    0  0.40595351398E+02 -0.32586950417E+02 -0.30832921925E+02  0.60502569921E+02  0.00000000000E+00 0.  1.
          1    1    3    3  501    0 -0.44168525876E+02  0.46899906582E+02 -0.89609116632E+03  0.89840405068E+03  0.00000000000E+00 0.  1.
         21    1    1    2  502  501  0.35731744781E+01 -0.14312956164E+02 -0.56131550891E+02  0.58037740269E+02  0.00000000000E+00 0.  1.
<mgrwt>
<rscale>  1 0.30000000E+03</rscale>
<asrwt>0</asrwt>
<pdfrwt beam="1">  1        1 0.61615988E-01 0.30000000E+03</pdfrwt>
<pdfrwt beam="2">0</pdfrwt>
<totfact> 0.66933000E+01</totfact>
</mgrwt>
</event>
<event>
 6    1  0.1901260E-004  0.3000000E+03  0.7818608E-02  0.1093470E+00
          1   -1    0    0  502    0  0.00000000000E+00  0.00000000000E+00  0.46470913673E+02  0.46470913673E+02  0.00000000000E+00 0.  1.
         13   -1    0    0    0    0 -0.00000000000E+00 -0.00000000000E+00 -0.10000000000E+04  0.10000000000E+04  0.00000000000E+00 0.  1.
    9000005    2    1    2  501    0 -0.16756659452E+02  0.89794915473E+02 -0.75014458374E+03  0.82351538363E+03  0.32728699652E+03 0.  0.
         13    1    3    3    0    0 -0.15064917202E+03  0.87094335901E+02 -0.58804611127E+03  0.61325266030E+03  0.00000000000E+00 0.  1.
          3    1    3    3  501    0  0.13389251257E+03  0.27005795725E+01 -0.16209847246E+03  0.21026272334E+03  0.00000000000E+00 0.  1.
         21    1    1    2  502  501  0.16756659452E+02 -0.89794915473E+02 -0.20338450259E+03  0.22295553004E+03  0.00000000000E+00 0.  1.
<mgrwt>
<rscale>  1 0.30000000E+03</rscale>
<asrwt>0</asrwt>
<pdfrwt beam="1">  1        1 0.16898550E+00 0.30000000E+03</pdfrwt>
<pdfrwt beam="2">0</pdfrwt>
<totfact> 0.14451363E+01</totfact>
</mgrwt>
</event>
<event>
 6    1  0.1901260E-004  0.3000000E+03  0.7818608E-02  0.1093470E+00
          1   -1    0    0  502    0  0.00000000000E+00  0.00000000000E+00  0.45632866295E+02  0.45632866295E+02  0.00000000000E+00 0.  1.
         13   -1    0    0    0    0 -0.00000000000E+00 -0.00000000000E+00 -0.10000000000E+04  0.10000000000E+04  0.00000000000E+00 0.  1.
    9000005    2    1    2  501    0 -0.27368558496E+02  0.90330238704E+01 -0.96075913341E+03  0.10161118369E+04  0.32953682526E+03 0.  0.
         13    1    3    3    0    0  0.11849665838E+03 -0.16791714079E+02 -0.14981817976E+03  0.19175220128E+03  0.00000000000E+00 0.  1.
          1    1    3    3  501    0 -0.14586521687E+03  0.25824737950E+02 -0.81094095365E+03  0.82435963565E+03  0.00000000000E+00 0.  1.
         21    1    1    2  502  501  0.27368558496E+02 -0.90330238704E+01  0.63919997068E+01  0.29521029363E+02  0.00000000000E+00 0.  1.
<mgrwt>
<rscale>  1 0.30000000E+03</rscale>
<asrwt>0</asrwt>
<pdfrwt beam="1">  1        1 0.16593805E+00 0.30000000E+03</pdfrwt>
<pdfrwt beam="2">0</pdfrwt>
<totfact> 0.14957483E+01</totfact>
</mgrwt>
</event>
<event>
 6    1  0.1901260E-004  0.3000000E+03  0.7818608E-02  0.1093470E+00
          1   -1    0    0  502    0  0.00000000000E+00  0.00000000000E+00  0.28572572199E+02  0.28572572199E+02  0.00000000000E+00 0.  1.
         13   -1    0    0    0    0 -0.00000000000E+00 -0.00000000000E+00 -0.10000000000E+04  0.10000000000E+04  0.00000000000E+00 0.  1.
    9000005    2    1    2  501    0 -0.10610420957E+02 -0.56011972043E+01 -0.93452890027E+03  0.98977236889E+03  0.32582375962E+03 0.  0.
         13    1    3    3    0    0  0.10141657688E+03 -0.11401843373E+03 -0.30261835871E+03  0.33891502818E+03  0.00000000000E+00 0.  1.
          3    1    3    3  501    0 -0.11202699784E+03  0.10841723653E+03 -0.63191054156E+03  0.65085734071E+03  0.00000000000E+00 0.  1.
         21    1    1    2  502  501  0.10610420957E+02  0.56011972043E+01 -0.36898527526E+02  0.38800203306E+02  0.00000000000E+00 0. -1.
<mgrwt>
<rscale>  1 0.30000000E+03</rscale>
<asrwt>0</asrwt>
<pdfrwt beam="1">  1        1 0.10390048E+00 0.30000000E+03</pdfrwt>
<pdfrwt beam="2">0</pdfrwt>
<totfact> 0.32353756E+01</totfact>
</mgrwt>
</event>
<event>
 6    1  0.1901260E-004  0.3000000E+03  0.7818608E-02  0.1093470E+00
          1   -1    0    0  502    0  0.00000000000E+00  0.00000000000E+00  0.52462006963E+02  0.52462006963E+02  0.00000000000E+00 0.  1.
         13   -1    0    0    0    0 -0.00000000000E+00 -0.00000000000E+00 -0.10000000000E+04  0.10000000000E+04  0.00000000000E+00 0.  1.
    9000005    2    1    2  501    0  0.42428574496E+02  0.12505642833E+03 -0.73811368457E+03  0.80487801076E+03  0.29253633390E+03 0.  0.
         13    1    3    3    0    0 -0.38201112579E+02  0.80347022325E+02 -0.34772837222E+02  0.95520255482E+02  0.00000000000E+00 0.  1.
          1    1    3    3  501    0  0.80629687075E+02  0.44709406001E+02 -0.70334084735E+03  0.70935775528E+03  0.00000000000E+00 0.  1.
         21    1    1    2  502  501 -0.42428574496E+02 -0.12505642833E+03 -0.20942430846E+03  0.24758399620E+03  0.00000000000E+00 0.  1.
<mgrwt>
<rscale>  1 0.30000000E+03</rscale>
<asrwt>0</asrwt>
<pdfrwt beam="1">  1        1 0.19077134E+00 0.30000000E+03</pdfrwt>
<pdfrwt beam="2">0</pdfrwt>
<totfact> 0.11336973E+01</totfact>
</mgrwt>
</event>
<event>
 6    1  0.1901260E-004  0.3000000E+03  0.7818608E-02  0.1093470E+00
          1   -1    0    0  502    0  0.00000000000E+00  0.00000000000E+00  0.41055561621E+02  0.41055561621E+02  0.00000000000E+00 0.  1.
         13   -1    0    0    0    0 -0.00000000000E+00 -0.00000000000E+00 -0.10000000000E+04  0.10000000000E+04  0.00000000000E+00 0.  1.
    9000005    2    1    2  501    0 -0.90953157496E+01 -0.19220785823E+02 -0.96499069795E+03  0.10189485349E+04  0.32649181651E+03 0.  0.
         13    1    3    3    0    0  0.83977967511E+02 -0.14198172922E+03 -0.61125744034E+03  0.63312460767E+03  0.00000000000E+00 0.  1.
          1    1    3    3  501    0 -0.93073283261E+02  0.12276094339E+03 -0.35373325761E+03  0.38582392722E+03  0.00000000000E+00 0.  1.
         21    1    1    2  502  501  0.90953157496E+01  0.19220785823E+02  0.60462595689E+01  0.22107026734E+02  0.00000000000E+00 0.  1.
<mgrwt>
<rscale>  1 0.30000000E+03</rscale>
<asrwt>0</asrwt>
<pdfrwt beam="1">  1        1 0.14929327E+00 0.30000000E+03</pdfrwt>
<pdfrwt beam="2">0</pdfrwt>
<totfact> 0.18114373E+01</totfact>
</mgrwt>
</event>
<event>
 6    1  0.1901260E-004  0.3000000E+03  0.7818608E-02  0.1093470E+00
          1   -1    0    0  502    0  0.00000000000E+00  0.00000000000E+00  0.43499619258E+02  0.43499619258E+02  0.00000000000E+00 0.  1.
         13   -1    0    0    0    0 -0.00000000000E+00 -0.00000000000E+00 -0.10000000000E+04  0.10000000000E+04  0.00000000000E+00 0.  1.
    9000005    2    1    2  501    0  0.24812173522E+02  0.84068988024E+02 -0.87866163577E+03  0.92627287776E+03  0.27973547363E+03 0.  0.
         13    1    3    3    0    0  0.80268460354E+02 -0.46268704463E+01 -0.58412120097E+02  0.99380125940E+02  0.00000000000E+00 0.  1.
          3    1    3    3  501    0 -0.55456286832E+02  0.88695858470E+02 -0.82024951567E+03  0.82689275182E+03  0.00000000000E+00 0.  1.
         21    1    1    2  502  501 -0.24812173522E+02 -0.84068988024E+02 -0.77838744974E+02  0.11722674149E+03  0.00000000000E+00 0.  1.
<mgrwt>
<rscale>  1 0.30000000E+03</rscale>
<asrwt>0</asrwt>
<pdfrwt beam="1">  1        1 0.15818077E+00 0.30000000E+03</pdfrwt>
<pdfrwt beam="2">0</pdfrwt>
<totfact> 0.16340155E+01</totfact>
</mgrwt>
</event>
<event>
 6    1  0.1901260E-004  0.3000000E+03  0.7818608E-02  0.1093470E+00
          1   -1    0    0  502    0  0.00000000000E+00  0.00000000000E+00  0.47734160666E+02  0.47734160666E+02  0.00000000000E+00 0.  1.
         13   -1    0    0    0    0 -0.00000000000E+00 -0.00000000000E+00 -0.10000000000E+04  0.10000000000E+04  0.00000000000E+00 0.  1.
    9000005    2    1    2  501    0  0.80362953215E+02 -0.40227199350E+02 -0.81386195071E+03  0.88271274325E+03  0.32974851096E+03 0.  0.
         13    1    3    3    0    0 -0.24829694719E+02  0.11769795847E+03 -0.15005190686E+03  0.19231458062E+03  0.00000000000E+00 0.  1.
          1    1    3    3  501    0  0.10519264793E+03 -0.15792515782E+03 -0.66381004385E+03  0.69039816263E+03  0.00000000000E+00 0.  1.
         21    1    1    2  502  501 -0.80362953215E+02  0.40227199350E+02 -0.13840388863E+03  0.16502141741E+03  0.00000000000E+00 0.  1.
<mgrwt>
<rscale>  1 0.30000000E+03</rscale>
<asrwt>0</asrwt>
<pdfrwt beam="1">  1        1 0.17357913E+00 0.30000000E+03</pdfrwt>
<pdfrwt beam="2">0</pdfrwt>
<totfact> 0.13724475E+01</totfact>
</mgrwt>
</event>
<event>
 6    1  0.1901260E-004  0.3000000E+03  0.7818608E-02  0.1093470E+00
          1   -1    0    0  502    0  0.00000000000E+00  0.00000000000E+00  0.32436794198E+02  0.32436794198E+02  0.00000000000E+00 0.  1.
         13   -1    0    0    0    0 -0.00000000000E+00 -0.00000000000E+00 -0.10000000000E+04  0.10000000000E+04  0.00000000000E+00 0.  1.
    9000005    2    1    2  501    0  0.16805346690E+01 -0.14449710080E+02 -0.95670383107E+03  0.10142834381E+04  0.33656656711E+03 0.  0.
         13    1    3    3    0    0  0.72034976103E+02 -0.11241173894E+02 -0.93878544341E+03  0.94161218690E+03  0.00000000000E+00 0.  1.
          1    1    3    3  501    0 -0.70354441434E+02 -0.32085361852E+01 -0.17918387668E+02  0.72671251197E+02  0.00000000000E+00 0.  1.
         21    1    1    2  502  501 -0.16805346690E+01  0.14449710080E+02 -0.10859374729E+02  0.18153356099E+02  0.00000000000E+00 0.  1.
<mgrwt>
<rscale>  1 0.30000000E+03</rscale>
<asrwt>0</asrwt>
<pdfrwt beam="1">  1        1 0.11795223E+00 0.30000000E+03</pdfrwt>
<pdfrwt beam="2">0</pdfrwt>
<totfact> 0.26701737E+01</totfact>
</mgrwt>
</event>
<event>
 6    1  0.1901260E-004  0.3000000E+03  0.7818608E-02  0.1093470E+00
          3   -1    0    0  502    0  0.00000000000E+00  0.00000000000E+00  0.42281004497E+02  0.42281004497E+02  0.00000000000E+00 0.  1.
         13   -1    0    0    0    0 -0.00000000000E+00 -0.00000000000E+00 -0.10000000000E+04  0.10000000000E+04  0.00000000000E+00 0.  1.
    9000005    2    1    2  501    0  0.19374571228E+02  0.15753967454E+02 -0.96021993693E+03  0.10171848652E+04  0.33469263686E+03 0.  0.
         13    1    3    3    0    0  0.77701410289E+02  0.12230181403E+03 -0.19804622305E+03  0.24539264321E+03  0.00000000000E+00 0.  1.
          3    1    3    3  501    0 -0.58326839061E+02 -0.10654784658E+03 -0.76217371388E+03  0.77179222197E+03  0.00000000000E+00 0.  1.
         21    1    1    2  502  501 -0.19374571228E+02 -0.15753967454E+02  0.25009414237E+01  0.25096139321E+02  0.00000000000E+00 0.  1.
<mgrwt>
<rscale>  1 0.30000000E+03</rscale>
<asrwt>0</asrwt>
<pdfrwt beam="1">  1        3 0.15374943E+00 0.30000000E+03</pdfrwt>
<pdfrwt beam="2">0</pdfrwt>
<totfact> 0.87661235E-01</totfact>
</mgrwt>
</event>
<event>
 6    1  0.1901260E-004  0.3000000E+03  0.7818608E-02  0.1093470E+00
          1   -1    0    0  502    0  0.00000000000E+00  0.00000000000E+00  0.40583304895E+02  0.40583304895E+02  0.00000000000E+00 0.  1.
         13   -1    0    0    0    0 -0.00000000000E+00 -0.00000000000E+00 -0.10000000000E+04  0.10000000000E+04  0.00000000000E+00 0.  1.
    9000005    2    1    2  501    0  0.55924525187E+02 -0.17031132183E+02 -0.87382879830E+03  0.93693534273E+03  0.33294662597E+03 0.  0.
         13    1    3    3    0    0  0.52817791467E+02  0.72797101585E+02 -0.83364010710E+03  0.83847776671E+03  0.00000000000E+00 0.  1.
          1    1    3    3  501    0  0.31067337194E+01 -0.89828233768E+02 -0.40188691194E+02  0.98457576022E+02  0.00000000000E+00 0.  1.
         21    1    1    2  502  501 -0.55924525187E+02  0.17031132183E+02 -0.85587896809E+02  0.10364796216E+03  0.00000000000E+00 0.  1.
<mgrwt>
<rscale>  1 0.30000000E+03</rscale>
<asrwt>0</asrwt>
<pdfrwt beam="1">  1        1 0.14757597E+00 0.30000000E+03</pdfrwt>
<pdfrwt beam="2">0</pdfrwt>
<totfact> 0.18483944E+01</totfact>
</mgrwt>
</event>
<event>
 6    1  0.1901260E-004  0.3000000E+03  0.7818608E-02  0.1093470E+00
          1   -1    0    0  502    0  0.00000000000E+00  0.00000000000E+00  0.28856226858E+02  0.28856226858E+02  0.00000000000E+00 0.  1.
         13   -1    0    0    0    0 -0.00000000000E+00 -0.00000000000E+00 -0.10000000000E+04  0.10000000000E+04  0.00000000000E+00 0.  1.
    9000005    2    1    2  501    0 -0.10848431711E+02 -0.75340429477E+00 -0.96180247848E+03  0.10145204020E+04  0.32259786478E+03 0.  0.
         13    1    3    3    0    0  0.12413037345E+03  0.58861399899E+02 -0.22930515526E+03  0.26730856373E+03  0.00000000000E+00 0.  1.
          1    1    3    3  501    0 -0.13497880517E+03 -0.59614804194E+02 -0.73249732322E+03  0.74721183827E+03  0.00000000000E+00 0.  1.
         21    1    1    2  502  501  0.10848431711E+02  0.75340429477E+00 -0.93412946613E+01  0.14335824866E+02  0.00000000000E+00 0.  1.
<mgrwt>
<rscale>  1 0.30000000E+03</rscale>
<asrwt>0</asrwt>
<pdfrwt beam="1">  1        1 0.10493196E+00 0.30000000E+03</pdfrwt>
<pdfrwt beam="2">0</pdfrwt>
<totfact> 0.31883406E+01</totfact>
</mgrwt>
</event>
<event>
 6    1  0.1901260E-004  0.3000000E+03  0.7818608E-02  0.1093470E+00
          1   -1    0    0  502    0  0.00000000000E+00  0.00000000000E+00  0.28460314787E+02  0.28460314787E+02  0.00000000000E+00 0.  1.
         13   -1    0    0    0    0 -0.00000000000E+00 -0.00000000000E+00 -0.10000000000E+04  0.10000000000E+04  0.00000000000E+00 0.  1.
    9000005    2    1    2  501    0 -0.14088065218E+01 -0.75807901566E+01 -0.95228600101E+03  0.10077200768E+04  0.32953250584E+03 0.  0.
         13    1    3    3    0    0  0.14344747113E+03 -0.73023295418E+02 -0.60032683949E+03  0.62153189207E+03  0.00000000000E+00 0.  1.
          3    1    3    3  501    0 -0.14485627765E+03  0.65442505261E+02 -0.35195916152E+03  0.38618818476E+03  0.00000000000E+00 0.  1.
         21    1    1    2  502  501  0.14088065218E+01  0.75807901566E+01 -0.19253684200E+02  0.20740237956E+02  0.00000000000E+00 0.  1.
<mgrwt>
<rscale>  1 0.30000000E+03</rscale>
<asrwt>0</asrwt>
<pdfrwt beam="1">  1        1 0.10349227E+00 0.30000000E+03</pdfrwt>
<pdfrwt beam="2">0</pdfrwt>
<totfact> 0.32542684E+01</totfact>
</mgrwt>
</event>
<event>
 6    1  0.1901260E-004  0.3000000E+03  0.7818608E-02  0.1093470E+00
          1   -1    0    0  502    0  0.00000000000E+00  0.00000000000E+00  0.33062703993E+02  0.33062703993E+02  0.00000000000E+00 0.  1.
         13   -1    0    0    0    0 -0.00000000000E+00 -0.00000000000E+00 -0.10000000000E+04  0.10000000000E+04  0.00000000000E+00 0.  1.
    9000005    2    1    2  501    0  0.26109468323E+02  0.31440905531E+02 -0.89369008520E+03  0.94918547962E+03  0.31717640434E+03 0.  0.
         13    1    3    3    0    0 -0.34704929394E+02 -0.23330675508E+02 -0.85945284778E+03  0.86046961021E+03  0.00000000000E+00 0.  1.
          1    1    3    3  501    0  0.60814397718E+02  0.54771581039E+02 -0.34237237420E+02  0.88715869411E+02  0.00000000000E+00 0.  1.
         21    1    1    2  502  501 -0.26109468323E+02 -0.31440905531E+02 -0.73247210811E+02  0.83877224372E+02  0.00000000000E+00 0.  1.
<mgrwt>
<rscale>  1 0.30000000E+03</rscale>
<asrwt>0</asrwt>
<pdfrwt beam="1">  1        1 0.12022827E+00 0.30000000E+03</pdfrwt>
<pdfrwt beam="2">0</pdfrwt>
<totfact> 0.25918918E+01</totfact>
</mgrwt>
</event>
<event>
 6    1  0.1901260E-004  0.3000000E+03  0.7818608E-02  0.1093470E+00
          3   -1    0    0  502    0  0.00000000000E+00  0.00000000000E+00  0.41776437016E+02  0.41776437016E+02  0.00000000000E+00 0.  1.
         13   -1    0    0    0    0 -0.00000000000E+00 -0.00000000000E+00 -0.10000000000E+04  0.10000000000E+04  0.00000000000E+00 0.  1.
    9000005    2    1    2  501    0  0.17564489731E+02 -0.19764167222E+02 -0.95908909843E+03  0.10153211397E+04  0.33215355537E+03 0.  0.
         13    1    3    3    0    0  0.14058848065E+03  0.88180863774E+02 -0.40856383923E+03  0.44098230844E+03  0.00000000000E+00 0.  1.
          3    1    3    3  501    0 -0.12302399092E+03 -0.10794503100E+03 -0.55052525920E+03  0.57433883125E+03  0.00000000000E+00 0.  1.
         21    1    1    2  502  501 -0.17564489731E+02  0.19764167222E+02  0.86553544811E+00  0.26455297335E+02  0.00000000000E+00 0.  1.
<mgrwt>
<rscale>  1 0.30000000E+03</rscale>
<asrwt>0</asrwt>
<pdfrwt beam="1">  1        3 0.15191464E+00 0.30000000E+03</pdfrwt>
<pdfrwt beam="2">0</pdfrwt>
<totfact> 0.93100267E-01</totfact>
</mgrwt>
</event>
<event>
 6    1  0.1901260E-004  0.3000000E+03  0.7818608E-02  0.1093470E+00
          1   -1    0    0  502    0  0.00000000000E+00  0.00000000000E+00  0.33956515692E+02  0.33956515692E+02  0.00000000000E+00 0.  1.
         13   -1    0    0    0    0 -0.00000000000E+00 -0.00000000000E+00 -0.10000000000E+04  0.10000000000E+04  0.00000000000E+00 0.  1.
    9000005    2    1    2  501    0 -0.30860871923E+01  0.47066035464E+02 -0.87321742897E+03  0.92983441344E+03  0.31600414954E+03 0.  0.
         13    1    3    3    0    0  0.11263622412E+03 -0.24146920363E+02 -0.70132499839E+03  0.71072269284E+03  0.00000000000E+00 0.  1.
          3    1    3    3  501    0 -0.11572231132E+03  0.71212955827E+02 -0.17189243059E+03  0.21911172061E+03  0.00000000000E+00 0.  1.
         21    1    1    2  502  501  0.30860871923E+01 -0.47066035464E+02 -0.92826055333E+02  0.10412210225E+03  0.00000000000E+00 0.  1.
<mgrwt>
<rscale>  1 0.30000000E+03</rscale>
<asrwt>0</asrwt>
<pdfrwt beam="1">  1        1 0.12347850E+00 0.30000000E+03</pdfrwt>
<pdfrwt beam="2">0</pdfrwt>
<totfact> 0.24853214E+01</totfact>
</mgrwt>
</event>
<event>
 6    1  0.1901260E-004  0.3000000E+03  0.7818608E-02  0.1093470E+00
          1   -1    0    0  502    0  0.00000000000E+00  0.00000000000E+00  0.30691145121E+02  0.30691145121E+02  0.00000000000E+00 0.  1.
         13   -1    0    0    0    0 -0.00000000000E+00 -0.00000000000E+00 -0.10000000000E+04  0.10000000000E+04  0.00000000000E+00 0.  1.
    9000005    2    1    2  501    0 -0.15430054714E+02 -0.71329899591E+01 -0.95366606135E+03  0.10075899953E+04  0.32476095193E+03 0.  0.
         13    1    3    3    0    0 -0.10805938596E+03  0.45501503135E+02 -0.12229547988E+03  0.16942078409E+03  0.00000000000E+00 0.  1.
          3    1    3    3  501    0  0.92629331248E+02 -0.52634493094E+02 -0.83137058147E+03  0.83816921120E+03  0.00000000000E+00 0.  1.
         21    1    1    2  502  501  0.15430054714E+02  0.71329899591E+01 -0.15642793530E+02  0.23101149834E+02  0.00000000000E+00 0.  1.
<mgrwt>
<rscale>  1 0.30000000E+03</rscale>
<asrwt>0</asrwt>
<pdfrwt beam="1">  1        1 0.11160440E+00 0.30000000E+03</pdfrwt>
<pdfrwt beam="2">0</pdfrwt>
<totfact> 0.29065529E+01</totfact>
</mgrwt>
</event>
<event>
 6    1  0.1901260E-004  0.3000000E+03  0.7818608E-02  0.1093470E+00
          1   -1    0    0  502    0  0.00000000000E+00  0.00000000000E+00  0.15569492248E+02  0.15569492248E+02  0.00000000000E+00 0.  1.
         13   -1    0    0    0    0 -0.00000000000E+00 -0.00000000000E+00 -0.10000000000E+04  0.10000000000E+04  0.00000000000E+00 0.  1.
    9000005    2    1    2  501    0  0.93156041275E+01 -0.77466877655E+01 -0.93707465657E+03  0.96668832724E+03  0.23712996095E+03 0.  0.
         13    1    3    3    0    0  0.11880653541E+02 -0.12128114929E+03 -0.54755815009E+03  0.56095471727E+03  0.00000000000E+00 0.  1.
          1    1    3    3  501    0 -0.25650494136E+01  0.11353446153E+03 -0.38951650648E+03  0.40573360996E+03  0.00000000000E+00 0.  1.
         21    1    1    2  502  501 -0.93156041275E+01  0.77466877655E+01 -0.47355851182E+02  0.48881165011E+02  0.00000000000E+00 0. -1.
<mgrwt>
<rscale>  1 0.30000000E+03</rscale>
<asrwt>0</asrwt>
<pdfrwt beam="1">  1        1 0.56616455E-01 0.30000000E+03</pdfrwt>
<pdfrwt beam="2">0</pdfrwt>
<totfact> 0.74895782E+01</totfact>
</mgrwt>
</event>
<event>
 6    1  0.1901260E-004  0.3000000E+03  0.7818608E-02  0.1093470E+00
          1   -1    0    0  502    0  0.00000000000E+00  0.00000000000E+00  0.33434882535E+02  0.33434882535E+02  0.00000000000E+00 0.  1.
         13   -1    0    0    0    0 -0.00000000000E+00 -0.00000000000E+00 -0.10000000000E+04  0.10000000000E+04  0.00000000000E+00 0.  1.
    9000005    2    1    2  501    0 -0.12996998018E+02  0.16163386439E+02 -0.95288898492E+03  0.10085910982E+04  0.32989151060E+03 0.  0.
         13    1    3    3    0    0 -0.16605787326E+03 -0.14326297656E+02 -0.38252071936E+03  0.41725598955E+03  0.00000000000E+00 0.  1.
          1    1    3    3  501    0  0.15306087524E+03  0.30489684095E+02 -0.57036826556E+03  0.59133510865E+03  0.00000000000E+00 0.  1.
         21    1    1    2  502  501  0.12996998018E+02 -0.16163386439E+02 -0.13676132543E+02  0.24843784333E+02  0.00000000000E+00 0.  1.
<mgrwt>
<rscale>  1 0.30000000E+03</rscale>
<asrwt>0</asrwt>
<pdfrwt beam="1">  1        1 0.12158165E+00 0.30000000E+03</pdfrwt>
<pdfrwt beam="2">0</pdfrwt>
<totfact> 0.25467983E+01</totfact>
</mgrwt>
</event>
<event>
 6    1  0.1901260E-004  0.3000000E+03  0.7818608E-02  0.1093470E+00
          1   -1    0    0  502    0  0.00000000000E+00  0.00000000000E+00  0.52356028326E+02  0.52356028326E+02  0.00000000000E+00 0.  1.
         13   -1    0    0    0    0 -0.00000000000E+00 -0.00000000000E+00 -0.10000000000E+04  0.10000000000E+04  0.00000000000E+00 0.  1.
    9000005    2    1    2  501    0 -0.15329442094E+02 -0.35886698000E+01 -0.96917206017E+03  0.10256852777E+04  0.33539221261E+03 0.  0.
         13    1    3    3    0    0 -0.15148693351E+03 -0.39484689262E+02 -0.74260784482E+03  0.75892933986E+03  0.00000000000E+00 0.  1.
          1    1    3    3  501    0  0.13615749142E+03  0.35896019462E+02 -0.22656421536E+03  0.26675593782E+03  0.00000000000E+00 0.  1.
         21    1    1    2  502  501  0.15329442094E+02  0.35886698000E+01  0.21528088497E+02  0.26670750649E+02  0.00000000000E+00 0.  1.
<mgrwt>
<rscale>  1 0.30000000E+03</rscale>
<asrwt>0</asrwt>
<pdfrwt beam="1">  1        1 0.19038596E+00 0.30000000E+03</pdfrwt>
<pdfrwt beam="2">0</pdfrwt>
<totfact> 0.11385335E+01</totfact>
</mgrwt>
</event>
<event>
 6    1  0.1901260E-004  0.3000000E+03  0.7818608E-02  0.1093470E+00
          1   -1    0    0  502    0  0.00000000000E+00  0.00000000000E+00  0.36362618418E+02  0.36362618418E+02  0.00000000000E+00 0.  1.
         13   -1    0    0    0    0 -0.00000000000E+00 -0.00000000000E+00 -0.10000000000E+04  0.10000000000E+04  0.00000000000E+00 0.  1.
    9000005    2    1    2  501    0 -0.18709766465E+02  0.65622955636E+01 -0.96868056619E+03  0.10159040555E+04  0.30549286677E+03 0.  0.
         13    1    3    3    0    0 -0.11938565609E+03  0.10699469747E+03 -0.59035554155E+03  0.61173561741E+03  0.00000000000E+00 0.  1.
          3    1    3    3  501    0  0.10067588963E+03 -0.10043240191E+03 -0.37832502464E+03  0.40416843812E+03  0.00000000000E+00 0.  1.
         21    1    1    2  502  501  0.18709766465E+02 -0.65622955636E+01  0.50431846101E+01  0.20458562884E+02  0.00000000000E+00 0.  1.
<mgrwt>
<rscale>  1 0.30000000E+03</rscale>
<asrwt>0</asrwt>
<pdfrwt beam="1">  1        1 0.13222798E+00 0.30000000E+03</pdfrwt>
<pdfrwt beam="2">0</pdfrwt>
<totfact> 0.22252157E+01</totfact>
</mgrwt>
</event>
<event>
 6    1  0.1901260E-004  0.3000000E+03  0.7818608E-02  0.1093470E+00
          1   -1    0    0  502    0  0.00000000000E+00  0.00000000000E+00  0.43141831023E+02  0.43141831023E+02  0.00000000000E+00 0.  1.
         13   -1    0    0    0    0 -0.00000000000E+00 -0.00000000000E+00 -0.10000000000E+04  0.10000000000E+04  0.00000000000E+00 0.  1.
    9000005    2    1    2  501    0  0.10551807777E+02  0.10784195227E+02 -0.97024018968E+03  0.10229745805E+04  0.32385695491E+03 0.  0.
         13    1    3    3    0    0  0.54226381686E+02 -0.17442984983E+02 -0.96929125930E+03  0.97096359538E+03  0.00000000000E+00 0.  1.
          1    1    3    3  501    0 -0.43674573908E+02  0.28227180210E+02 -0.94893038358E+00  0.52010985162E+02  0.00000000000E+00 0.  1.
         21    1    1    2  502  501 -0.10551807777E+02 -0.10784195227E+02  0.13382020703E+02  0.20167250486E+02  0.00000000000E+00 0.  1.
<mgrwt>
<rscale>  1 0.30000000E+03</rscale>
<asrwt>0</asrwt>
<pdfrwt beam="1">  1        1 0.15687972E+00 0.30000000E+03</pdfrwt>
<pdfrwt beam="2">0</pdfrwt>
<totfact> 0.16586375E+01</totfact>
</mgrwt>
</event>
<event>
 6    1  0.1901260E-004  0.3000000E+03  0.7818608E-02  0.1093470E+00
          1   -1    0    0  502    0  0.00000000000E+00  0.00000000000E+00  0.36537555299E+02  0.36537555299E+02  0.00000000000E+00 0.  1.
         13   -1    0    0    0    0 -0.00000000000E+00 -0.00000000000E+00 -0.10000000000E+04  0.10000000000E+04  0.00000000000E+00 0.  1.
    9000005    2    1    2  501    0  0.23998819388E+01  0.10223455732E+02 -0.96318077038E+03  0.10260324222E+04  0.35343324199E+03 0.  0.
         13    1    3    3    0    0 -0.32752244311E+02 -0.16621743959E+03 -0.54689466871E+03  0.57253360198E+03  0.00000000000E+00 0.  1.
          1    1    3    3  501    0  0.35152126250E+02  0.17644089532E+03 -0.41628610167E+03  0.45349882025E+03  0.00000000000E+00 0.  1.
         21    1    1    2  502  501 -0.23998819388E+01 -0.10223455732E+02 -0.28167431816E+00  0.10505133071E+02  0.00000000000E+00 0. -1.
<mgrwt>
<rscale>  1 0.30000000E+03</rscale>
<asrwt>0</asrwt>
<pdfrwt beam="1">  1        1 0.13286412E+00 0.30000000E+03</pdfrwt>
<pdfrwt beam="2">0</pdfrwt>
<totfact> 0.22077108E+01</totfact>
</mgrwt>
</event>
<event>
 6    1  0.1901260E-004  0.3000000E+03  0.7818608E-02  0.1093470E+00
          1   -1    0    0  502    0  0.00000000000E+00  0.00000000000E+00  0.29175468022E+02  0.29175468022E+02  0.00000000000E+00 0.  1.
         13   -1    0    0    0    0 -0.00000000000E+00 -0.00000000000E+00 -0.10000000000E+04  0.10000000000E+04  0.00000000000E+00 0.  1.
    9000005    2    1    2  501    0 -0.85373754195E+01 -0.34681697261E+01 -0.95837235523E+03  0.10136844485E+04  0.33014190111E+03 0.  0.
         13    1    3    3    0    0 -0.91955993600E+02  0.65473540785E+02 -0.10724768112E+03  0.15570727153E+03  0.00000000000E+00 0.  1.
          3    1    3    3  501    0  0.83418618181E+02 -0.68941710511E+02 -0.85112467411E+03  0.85797717696E+03  0.00000000000E+00 0.  1.
         21    1    1    2  502  501  0.85373754195E+01  0.34681697261E+01 -0.12452176747E+02  0.15491019528E+02  0.00000000000E+00 0.  1.
<mgrwt>
<rscale>  1 0.30000000E+03</rscale>
<asrwt>0</asrwt>
<pdfrwt beam="1">  1        1 0.10609283E+00 0.30000000E+03</pdfrwt>
<pdfrwt beam="2">0</pdfrwt>
<totfact> 0.31365792E+01</totfact>
</mgrwt>
</event>
<event>
 6    1  0.1901260E-004  0.3000000E+03  0.7818608E-02  0.1093470E+00
          1   -1    0    0  502    0  0.00000000000E+00  0.00000000000E+00  0.32474627788E+02  0.32474627788E+02  0.00000000000E+00 0.  1.
         13   -1    0    0    0    0 -0.00000000000E+00 -0.00000000000E+00 -0.10000000000E+04  0.10000000000E+04  0.00000000000E+00 0.  1.
    9000005    2    1    2  501    0  0.16344196620E+02 -0.17467714815E+02 -0.93126326475E+03  0.98903277859E+03  0.33220824046E+03 0.  0.
         13    1    3    3    0    0  0.11475658961E+03  0.11508500111E+03 -0.37297528686E+03  0.40684665041E+03  0.00000000000E+00 0.  1.
          1    1    3    3  501    0 -0.98412392991E+02 -0.13255271592E+03 -0.55828797789E+03  0.58218612819E+03  0.00000000000E+00 0.  1.
         21    1    1    2  502  501 -0.16344196620E+02  0.17467714815E+02 -0.36262107463E+02  0.43441849197E+02  0.00000000000E+00 0. -1.
<mgrwt>
<rscale>  1 0.30000000E+03</rscale>
<asrwt>0</asrwt>
<pdfrwt beam="1">  1        1 0.11808980E+00 0.30000000E+03</pdfrwt>
<pdfrwt beam="2">0</pdfrwt>
<totfact> 0.26653515E+01</totfact>
</mgrwt>
</event>
<event>
 6    1  0.1901260E-004  0.3000000E+03  0.7818608E-02  0.1093470E+00
          1   -1    0    0  502    0  0.00000000000E+00  0.00000000000E+00  0.30465327381E+02  0.30465327381E+02  0.00000000000E+00 0.  1.
         13   -1    0    0    0    0 -0.00000000000E+00 -0.00000000000E+00 -0.10000000000E+04  0.10000000000E+04  0.00000000000E+00 0.  1.
    9000005    2    1    2  501    0 -0.24965722498E+02 -0.24093338797E+02 -0.89093047340E+03  0.94454445443E+03  0.31177450454E+03 0.  0.
         13    1    3    3    0    0  0.27582537971E+02  0.51844076806E+02 -0.83398939943E+03  0.83605437805E+03  0.00000000000E+00 0.  1.
          1    1    3    3  501    0 -0.52548260469E+02 -0.75937415603E+02 -0.56941073969E+02  0.10849007637E+03  0.00000000000E+00 0.  1.
         21    1    1    2  502  501  0.24965722498E+02  0.24093338797E+02 -0.78604199219E+02  0.85920872954E+02  0.00000000000E+00 0.  1.
<mgrwt>
<rscale>  1 0.30000000E+03</rscale>
<asrwt>0</asrwt>
<pdfrwt beam="1">  1        1 0.11078324E+00 0.30000000E+03</pdfrwt>
<pdfrwt beam="2">0</pdfrwt>
<totfact> 0.29392699E+01</totfact>
</mgrwt>
</event>
<event>
 6    1  0.1901260E-004  0.3000000E+03  0.7818608E-02  0.1093470E+00
          1   -1    0    0  502    0  0.00000000000E+00  0.00000000000E+00  0.31194327147E+02  0.31194327147E+02  0.00000000000E+00 0.  1.
         13   -1    0    0    0    0 -0.00000000000E+00 -0.00000000000E+00 -0.10000000000E+04  0.10000000000E+04  0.00000000000E+00 0.  1.
    9000005    2    1    2  501    0  0.25858914831E+02 -0.15918841153E+02 -0.90978220021E+03  0.96481764975E+03  0.31976139927E+03 0.  0.
         13    1    3    3    0    0  0.19752128219E+02  0.14060822138E+03 -0.25815464457E+03  0.29462627005E+03  0.00000000000E+00 0.  1.
          3    1    3    3  501    0  0.61067866118E+01 -0.15652706254E+03 -0.65162755565E+03  0.67019137970E+03  0.00000000000E+00 0.  1.
         21    1    1    2  502  501 -0.25858914831E+02  0.15918841153E+02 -0.59023472639E+02  0.66376677397E+02  0.00000000000E+00 0.  1.
<mgrwt>
<rscale>  1 0.30000000E+03</rscale>
<asrwt>0</asrwt>
<pdfrwt beam="1">  1        1 0.11343416E+00 0.30000000E+03</pdfrwt>
<pdfrwt beam="2">0</pdfrwt>
<totfact> 0.28354846E+01</totfact>
</mgrwt>
</event>
<event>
 6    1  0.2936372E-004  0.3000000E+03  0.7818608E-02  0.1093470E+00
          1   -1    0    0  502    0  0.00000000000E+00  0.00000000000E+00  0.58622173123E+02  0.58622173123E+02  0.00000000000E+00 0.  1.
         13   -1    0    0    0    0 -0.00000000000E+00 -0.00000000000E+00 -0.10000000000E+04  0.10000000000E+04  0.00000000000E+00 0.  1.
    9000005    2    1    2  501    0 -0.64635892174E+01 -0.74155426350E+01 -0.93250196917E+03  0.10453726785E+04  0.47238474378E+03 0.  0.
         13    1    3    3    0    0  0.10663651262E+03  0.84860725054E+02 -0.87963004577E+03  0.89012454517E+03  0.00000000000E+00 0.  1.
          1    1    3    3  501    0 -0.11310010184E+03 -0.92276267689E+02 -0.52871923396E+02  0.15524813332E+03  0.00000000000E+00 0.  1.
         21    1    1    2  502  501  0.64635892174E+01  0.74155426350E+01 -0.88758577089E+01  0.13249494640E+02  0.00000000000E+00 0. -1.
<mgrwt>
<rscale>  1 0.30000000E+03</rscale>
<asrwt>0</asrwt>
<pdfrwt beam="1">  1        1 0.21317199E+00 0.30000000E+03</pdfrwt>
<pdfrwt beam="2">0</pdfrwt>
<totfact> 0.88748318E+00</totfact>
</mgrwt>
</event>
<event>
 6    1  0.1901260E-004  0.3000000E+03  0.7818608E-02  0.1093470E+00
          1   -1    0    0  502    0  0.00000000000E+00  0.00000000000E+00  0.32305616425E+02  0.32305616425E+02  0.00000000000E+00 0.  1.
         13   -1    0    0    0    0 -0.00000000000E+00 -0.00000000000E+00 -0.10000000000E+04  0.10000000000E+04  0.00000000000E+00 0.  1.
    9000005    2    1    2  501    0  0.11651987521E+02 -0.28995562212E+00 -0.95476695086E+03  0.10148995427E+04  0.34395537260E+03 0.  0.
         13    1    3    3    0    0  0.28693972514E+02 -0.14219984342E+03 -0.75767225439E+03  0.77143462756E+03  0.00000000000E+00 0.  1.
          1    1    3    3  501    0 -0.17041984993E+02  0.14190988779E+03 -0.19709469647E+03  0.24346491510E+03  0.00000000000E+00 0.  1.
         21    1    1    2  502  501 -0.11651987521E+02  0.28995562212E+00 -0.12927432714E+02  0.17406073768E+02  0.00000000000E+00 0.  1.
<mgrwt>
<rscale>  1 0.30000000E+03</rscale>
<asrwt>0</asrwt>
<pdfrwt beam="1">  1        1 0.11747522E+00 0.30000000E+03</pdfrwt>
<pdfrwt beam="2">0</pdfrwt>
<totfact> 0.26869859E+01</totfact>
</mgrwt>
</event>
<event>
 6    1  0.1901260E-004  0.3000000E+03  0.7818608E-02  0.1093470E+00
          1   -1    0    0  502    0  0.00000000000E+00  0.00000000000E+00  0.29395854288E+02  0.29395854288E+02  0.00000000000E+00 0.  1.
         13   -1    0    0    0    0 -0.00000000000E+00 -0.00000000000E+00 -0.10000000000E+04  0.10000000000E+04  0.00000000000E+00 0.  1.
    9000005    2    1    2  501    0 -0.34529660746E+01 -0.89996844347E+01 -0.96452276186E+03  0.10179984632E+04  0.32545936088E+03 0.  0.
         13    1    3    3    0    0  0.92582844092E+02 -0.12848723469E+03 -0.63675250282E+03  0.65615112767E+03  0.00000000000E+00 0.  1.
          3    1    3    3  501    0 -0.96035810166E+02  0.11948755025E+03 -0.32777025904E+03  0.36184733550E+03  0.00000000000E+00 0.  1.
         21    1    1    2  502  501  0.34529660746E+01  0.89996844347E+01 -0.60813838504E+01  0.11397391113E+02  0.00000000000E+00 0. -1.
<mgrwt>
<rscale>  1 0.30000000E+03</rscale>
<asrwt>0</asrwt>
<pdfrwt beam="1">  1        1 0.10689424E+00 0.30000000E+03</pdfrwt>
<pdfrwt beam="2">0</pdfrwt>
<totfact> 0.31015500E+01</totfact>
</mgrwt>
</event>
<event>
 6    1  0.1901260E-004  0.3000000E+03  0.7818608E-02  0.1093470E+00
          1   -1    0    0  502    0  0.00000000000E+00  0.00000000000E+00  0.28421304280E+02  0.28421304280E+02  0.00000000000E+00 0.  1.
         13   -1    0    0    0    0 -0.00000000000E+00 -0.00000000000E+00 -0.10000000000E+04  0.10000000000E+04  0.00000000000E+00 0.  1.
    9000005    2    1    2  501    0 -0.50177580200E+01  0.74227100374E+01 -0.95709430079E+03  0.10113897977E+04  0.32680200087E+03 0.  0.
         13    1    3    3    0    0  0.38223224418E+02 -0.13265415618E+03 -0.71628419268E+03  0.72946636983E+03  0.00000000000E+00 0.  1.
          1    1    3    3  501    0 -0.43240982438E+02  0.14007686622E+03 -0.24081010811E+03  0.28192342787E+03  0.00000000000E+00 0.  1.
         21    1    1    2  502  501  0.50177580200E+01 -0.74227100374E+01 -0.14484394930E+02  0.17031506578E+02  0.00000000000E+00 0. -1.
<mgrwt>
<rscale>  1 0.30000000E+03</rscale>
<asrwt>0</asrwt>
<pdfrwt beam="1">  1        1 0.10335042E+00 0.30000000E+03</pdfrwt>
<pdfrwt beam="2">0</pdfrwt>
<totfact> 0.32608714E+01</totfact>
</mgrwt>
</event>
<event>
 6    1  0.1901260E-004  0.3000000E+03  0.7818608E-02  0.1093470E+00
          3   -1    0    0  502    0  0.00000000000E+00  0.00000000000E+00  0.28544861007E+02  0.28544861007E+02  0.00000000000E+00 0.  1.
         13   -1    0    0    0    0 -0.00000000000E+00 -0.00000000000E+00 -0.10000000000E+04  0.10000000000E+04  0.00000000000E+00 0.  1.
    9000005    2    1    2  501    0  0.67930892013E+01  0.35526600624E+01 -0.95265897050E+03  0.10082455161E+04  0.33006232619E+03 0.  0.
         13    1    3    3    0    0 -0.40032502657E+02 -0.47305482252E+02 -0.96641668717E+01  0.62720060917E+02  0.00000000000E+00 0.  1.
          3    1    3    3  501    0  0.46825591858E+02  0.50858142315E+02 -0.94299480363E+03  0.94552545516E+03  0.00000000000E+00 0.  1.
         21    1    1    2  502  501 -0.67930892013E+01 -0.35526600624E+01 -0.18796168495E+02  0.20299344928E+02  0.00000000000E+00 0. -1.
<mgrwt>
<rscale>  1 0.30000000E+03</rscale>
<asrwt>0</asrwt>
<pdfrwt beam="1">  1        3 0.10379971E+00 0.30000000E+03</pdfrwt>
<pdfrwt beam="2">0</pdfrwt>
<totfact> 0.35455963E+00</totfact>
</mgrwt>
</event>
<event>
 6    1  0.1901260E-004  0.3000000E+03  0.7818608E-02  0.1093470E+00
          1   -1    0    0  502    0  0.00000000000E+00  0.00000000000E+00  0.35088569292E+02  0.35088569292E+02  0.00000000000E+00 0.  1.
         13   -1    0    0    0    0 -0.00000000000E+00 -0.00000000000E+00 -0.10000000000E+04  0.10000000000E+04  0.00000000000E+00 0.  1.
    9000005    2    1    2  501    0  0.10014377507E+02  0.75029375668E+01 -0.96333971500E+03  0.10224769826E+04  0.34246049639E+03 0.  0.
         13    1    3    3    0    0  0.24572632587E+02 -0.43295038226E+02 -0.96813759610E+03  0.96941666975E+03  0.00000000000E+00 0.  1.
          3    1    3    3  501    0 -0.14558255080E+02  0.50797975793E+02  0.47978810936E+01  0.53060312839E+02  0.00000000000E+00 0.  1.
         21    1    1    2  502  501 -0.10014377507E+02 -0.75029375668E+01 -0.15717157057E+01  0.12611586706E+02  0.00000000000E+00 0. -1.
<mgrwt>
<rscale>  1 0.30000000E+03</rscale>
<asrwt>0</asrwt>
<pdfrwt beam="1">  1        1 0.12759507E+00 0.30000000E+03</pdfrwt>
<pdfrwt beam="2">0</pdfrwt>
<totfact> 0.23583316E+01</totfact>
</mgrwt>
</event>
<event>
 6    1  0.1901260E-004  0.3000000E+03  0.7818608E-02  0.1093470E+00
          1   -1    0    0  502    0  0.00000000000E+00  0.00000000000E+00  0.51404645435E+02  0.51404645435E+02  0.00000000000E+00 0.  1.
         13   -1    0    0    0    0 -0.00000000000E+00 -0.00000000000E+00 -0.10000000000E+04  0.10000000000E+04  0.00000000000E+00 0.  1.
    9000005    2    1    2  501    0  0.20325779925E+02  0.57786006316E+02 -0.92693457513E+03  0.98643119531E+03  0.33179276159E+03 0.  0.
         13    1    3    3    0    0  0.16994395028E+03 -0.11305479965E+02 -0.41376459157E+03  0.44744820633E+03  0.00000000000E+00 0.  1.
          3    1    3    3  501    0 -0.14961817035E+03  0.69091486281E+02 -0.51316998356E+03  0.53898298898E+03  0.00000000000E+00 0.  1.
         21    1    1    2  502  501 -0.20325779925E+02 -0.57786006316E+02 -0.21660779432E+02  0.64973450125E+02  0.00000000000E+00 0.  1.
<mgrwt>
<rscale>  1 0.30000000E+03</rscale>
<asrwt>0</asrwt>
<pdfrwt beam="1">  1        1 0.18692638E+00 0.30000000E+03</pdfrwt>
<pdfrwt beam="2">0</pdfrwt>
<totfact> 0.11829378E+01</totfact>
</mgrwt>
</event>
<event>
 6    1  0.1901260E-004  0.3000000E+03  0.7818608E-02  0.1093470E+00
          1   -1    0    0  502    0  0.00000000000E+00  0.00000000000E+00  0.38575916758E+02  0.38575916758E+02  0.00000000000E+00 0.  1.
         13   -1    0    0    0    0 -0.00000000000E+00 -0.00000000000E+00 -0.10000000000E+04  0.10000000000E+04  0.00000000000E+00 0.  1.
    9000005    2    1    2  501    0 -0.34320527312E+02  0.27582692083E+02 -0.92540492759E+03  0.98168933599E+03  0.32465515381E+03 0.  0.
         13    1    3    3    0    0 -0.62467408911E+02  0.12960337914E+03 -0.18803002472E+03  0.23675832247E+03  0.00000000000E+00 0.  1.
          1    1    3    3  501    0  0.28146881599E+02 -0.10202068706E+03 -0.73737490287E+03  0.74493101352E+03  0.00000000000E+00 0.  1.
         21    1    1    2  502  501  0.34320527312E+02 -0.27582692083E+02 -0.36019155651E+02  0.56886580766E+02  0.00000000000E+00 0.  1.
<mgrwt>
<rscale>  1 0.30000000E+03</rscale>
<asrwt>0</asrwt>
<pdfrwt beam="1">  1        1 0.14027636E+00 0.30000000E+03</pdfrwt>
<pdfrwt beam="2">0</pdfrwt>
<totfact> 0.20164866E+01</totfact>
</mgrwt>
</event>
<event>
 6    1  0.1901260E-004  0.3000000E+03  0.7818608E-02  0.1093470E+00
          1   -1    0    0  502    0  0.00000000000E+00  0.00000000000E+00  0.28041719276E+02  0.28041719276E+02  0.00000000000E+00 0.  1.
         13   -1    0    0    0    0 -0.00000000000E+00 -0.00000000000E+00 -0.10000000000E+04  0.10000000000E+04  0.00000000000E+00 0.  1.
    9000005    2    1    2  501    0 -0.36729238135E+01  0.10521393280E+02 -0.96039780383E+03  0.10119844869E+04  0.31878593134E+03 0.  0.
         13    1    3    3    0    0 -0.88771554959E+01  0.19006108998E+02 -0.98511504036E+03  0.98533835752E+03  0.00000000000E+00 0.  1.
          3    1    3    3  501    0  0.52042316823E+01 -0.84847157178E+01  0.24717236532E+02  0.26646129362E+02  0.00000000000E+00 0.  1.
         21    1    1    2  502  501  0.36729238135E+01 -0.10521393280E+02 -0.11560476897E+02  0.16057232389E+02  0.00000000000E+00 0.  1.
<mgrwt>
<rscale>  1 0.30000000E+03</rscale>
<asrwt>0</asrwt>
<pdfrwt beam="1">  1        1 0.10197010E+00 0.30000000E+03</pdfrwt>
<pdfrwt beam="2">0</pdfrwt>
<totfact> 0.33261534E+01</totfact>
</mgrwt>
</event>
<event>
 6    1  0.1901260E-004  0.3000000E+03  0.7818608E-02  0.1093470E+00
          1   -1    0    0  502    0  0.00000000000E+00  0.00000000000E+00  0.43146280194E+02  0.43146280194E+02  0.00000000000E+00 0.  1.
         13   -1    0    0    0    0 -0.00000000000E+00 -0.00000000000E+00 -0.10000000000E+04  0.10000000000E+04  0.00000000000E+00 0.  1.
    9000005    2    1    2  501    0  0.22458058142E+02  0.39495205178E+01 -0.96309119758E+03  0.10195058653E+04  0.33365789578E+03 0.  0.
         13    1    3    3    0    0  0.16698365701E+02 -0.14530304686E+03 -0.23924866427E+03  0.28041350574E+03  0.00000000000E+00 0.  1.
          1    1    3    3  501    0  0.57596924408E+01  0.14925256738E+03 -0.72384253331E+03  0.73909235955E+03  0.00000000000E+00 0.  1.
         21    1    1    2  502  501 -0.22458058142E+02 -0.39495205178E+01  0.62374777749E+01  0.23640414904E+02  0.00000000000E+00 0. -1.
<mgrwt>
<rscale>  1 0.30000000E+03</rscale>
<asrwt>0</asrwt>
<pdfrwt beam="1">  1        1 0.15689590E+00 0.30000000E+03</pdfrwt>
<pdfrwt beam="2">0</pdfrwt>
<totfact> 0.16583286E+01</totfact>
</mgrwt>
</event>
<event>
 6    1  0.1901260E-004  0.3000000E+03  0.7818608E-02  0.1093470E+00
          1   -1    0    0  502    0  0.00000000000E+00  0.00000000000E+00  0.83893182912E+02  0.83893182912E+02  0.00000000000E+00 0.  1.
         13   -1    0    0    0    0 -0.00000000000E+00 -0.00000000000E+00 -0.10000000000E+04  0.10000000000E+04  0.00000000000E+00 0.  1.
    9000005    2    1    2  501    0  0.13280594048E+02 -0.63945172070E+01 -0.97318985150E+03  0.10249378028E+04  0.32121915957E+03 0.  0.
         13    1    3    3    0    0  0.13966208958E+03  0.60879955399E+02 -0.29745942091E+03  0.33420648606E+03  0.00000000000E+00 0.  1.
          1    1    3    3  501    0 -0.12638149553E+03 -0.67274472606E+02 -0.67573043059E+03  0.69073131672E+03  0.00000000000E+00 0.  1.
         21    1    1    2  502  501 -0.13280594048E+02  0.63945172070E+01  0.57083034413E+02  0.58955380131E+02  0.00000000000E+00 0.  1.
<mgrwt>
<rscale>  1 0.30000000E+03</rscale>
<asrwt>0</asrwt>
<pdfrwt beam="1">  1        1 0.30506676E+00 0.30000000E+03</pdfrwt>
<pdfrwt beam="2">0</pdfrwt>
<totfact> 0.32868431E+00</totfact>
</mgrwt>
</event>
<event>
 6    1  0.1901260E-004  0.3000000E+03  0.7818608E-02  0.1093470E+00
          1   -1    0    0  502    0  0.00000000000E+00  0.00000000000E+00  0.44079162617E+02  0.44079162617E+02  0.00000000000E+00 0.  1.
         13   -1    0    0    0    0 -0.00000000000E+00 -0.00000000000E+00 -0.10000000000E+04  0.10000000000E+04  0.00000000000E+00 0.  1.
    9000005    2    1    2  501    0 -0.19945315852E+02 -0.74626018634E+01 -0.96240327387E+03  0.10218187036E+04  0.34269504739E+03 0.  0.
         13    1    3    3    0    0  0.15105881466E+03  0.41901618783E+02 -0.33874351969E+03  0.37325819921E+03  0.00000000000E+00 0.  1.
          3    1    3    3  501    0 -0.17100413051E+03 -0.49364220647E+02 -0.62365975418E+03  0.64856050443E+03  0.00000000000E+00 0.  1.
         21    1    1    2  502  501  0.19945315852E+02  0.74626018634E+01  0.64824364850E+01  0.22260458975E+02  0.00000000000E+00 0.  1.
<mgrwt>
<rscale>  1 0.30000000E+03</rscale>
<asrwt>0</asrwt>
<pdfrwt beam="1">  1        1 0.16028820E+00 0.30000000E+03</pdfrwt>
<pdfrwt beam="2">0</pdfrwt>
<totfact> 0.15950390E+01</totfact>
</mgrwt>
</event>
<event>
 6    1  0.1901260E-004  0.3000000E+03  0.7818608E-02  0.1093470E+00
          1   -1    0    0  502    0  0.00000000000E+00  0.00000000000E+00  0.29531182098E+02  0.29531182098E+02  0.00000000000E+00 0.  1.
         13   -1    0    0    0    0 -0.00000000000E+00 -0.00000000000E+00 -0.10000000000E+04  0.10000000000E+04  0.00000000000E+00 0.  1.
    9000005    2    1    2  501    0 -0.27826848569E+01  0.13304141374E+02 -0.93576207748E+03  0.99225784923E+03  0.32975783568E+03 0.  0.
         13    1    3    3    0    0 -0.62139856975E+02 -0.32259651477E+02 -0.19136096457E+02  0.72582622754E+02  0.00000000000E+00 0.  1.
          1    1    3    3  501    0  0.59357172118E+02  0.45563792850E+02 -0.91662598102E+03  0.91967522647E+03  0.00000000000E+00 0.  1.
         21    1    1    2  502  501  0.27826848569E+01 -0.13304141374E+02 -0.34706740421E+02  0.37273332872E+02  0.00000000000E+00 0.  1.
<mgrwt>
<rscale>  1 0.30000000E+03</rscale>
<asrwt>0</asrwt>
<pdfrwt beam="1">  1        1 0.10738634E+00 0.30000000E+03</pdfrwt>
<pdfrwt beam="2">0</pdfrwt>
<totfact> 0.30803184E+01</totfact>
</mgrwt>
</event>
<event>
 6    1  0.1901260E-004  0.3000000E+03  0.7818608E-02  0.1093470E+00
          1   -1    0    0  502    0  0.00000000000E+00  0.00000000000E+00  0.28900607111E+02  0.28900607111E+02  0.00000000000E+00 0.  1.
         13   -1    0    0    0    0 -0.00000000000E+00 -0.00000000000E+00 -0.10000000000E+04  0.10000000000E+04  0.00000000000E+00 0.  1.
    9000005    2    1    2  501    0 -0.11135863875E+02  0.32362601122E+01 -0.95325142418E+03  0.10076160862E+04  0.32629345474E+03 0.  0.
         13    1    3    3    0    0  0.14756394268E+03 -0.29193776913E+02 -0.60682960984E+03  0.62519562472E+03  0.00000000000E+00 0.  1.
          1    1    3    3  501    0 -0.15869980655E+03  0.32430037025E+02 -0.34642181435E+03  0.38242046148E+03  0.00000000000E+00 0.  1.
         21    1    1    2  502  501  0.11135863875E+02 -0.32362601122E+01 -0.17847968706E+02  0.21284520917E+02  0.00000000000E+00 0.  1.
<mgrwt>
<rscale>  1 0.30000000E+03</rscale>
<asrwt>0</asrwt>
<pdfrwt beam="1">  1        1 0.10509334E+00 0.30000000E+03</pdfrwt>
<pdfrwt beam="2">0</pdfrwt>
<totfact> 0.31810713E+01</totfact>
</mgrwt>
</event>
<event>
 6    1  0.1901260E-004  0.3000000E+03  0.7818608E-02  0.1093470E+00
          1   -1    0    0  502    0  0.00000000000E+00  0.00000000000E+00  0.27694837975E+02  0.27694837975E+02  0.00000000000E+00 0.  1.
         13   -1    0    0    0    0 -0.00000000000E+00 -0.00000000000E+00 -0.10000000000E+04  0.10000000000E+04  0.00000000000E+00 0.  1.
    9000005    2    1    2  501    0 -0.13060659190E+02 -0.66787056483E+01 -0.95518846636E+03  0.10051522738E+04  0.31261941942E+03 0.  0.
         13    1    3    3    0    0  0.31391621572E+02  0.14817505926E+03 -0.48802667494E+03  0.51099052588E+03  0.00000000000E+00 0.  1.
          3    1    3    3  501    0 -0.44452280762E+02 -0.15485376491E+03 -0.46716179142E+03  0.49416174795E+03  0.00000000000E+00 0.  1.
         21    1    1    2  502  501  0.13060659190E+02  0.66787056483E+01 -0.17116695665E+02  0.22542564142E+02  0.00000000000E+00 0.  1.
<mgrwt>
<rscale>  1 0.30000000E+03</rscale>
<asrwt>0</asrwt>
<pdfrwt beam="1">  1        1 0.10070871E+00 0.30000000E+03</pdfrwt>
<pdfrwt beam="2">0</pdfrwt>
<totfact> 0.33874970E+01</totfact>
</mgrwt>
</event>
<event>
 6    1  0.1901260E-004  0.3000000E+03  0.7818608E-02  0.1093470E+00
          1   -1    0    0  502    0  0.00000000000E+00  0.00000000000E+00  0.39858444082E+02  0.39858444082E+02  0.00000000000E+00 0.  1.
         13   -1    0    0    0    0 -0.00000000000E+00 -0.00000000000E+00 -0.10000000000E+04  0.10000000000E+04  0.00000000000E+00 0.  1.
    9000005    2    1    2  501    0  0.10483578078E+02 -0.80083360057E+01 -0.94938961685E+03  0.10228395414E+04  0.38037618749E+03 0.  0.
         13    1    3    3    0    0  0.92969623280E+02 -0.88382787059E+02 -0.87803787665E+03  0.88735865394E+03  0.00000000000E+00 0.  1.
          1    1    3    3  501    0 -0.82486045202E+02  0.80374451053E+02 -0.71351740202E+02  0.13548088745E+03  0.00000000000E+00 0.  1.
         21    1    1    2  502  501 -0.10483578078E+02  0.80083360057E+01 -0.10751939071E+02  0.17018902687E+02  0.00000000000E+00 0.  1.
<mgrwt>
<rscale>  1 0.30000000E+03</rscale>
<asrwt>0</asrwt>
<pdfrwt beam="1">  1        1 0.14494010E+00 0.30000000E+03</pdfrwt>
<pdfrwt beam="2">0</pdfrwt>
<totfact> 0.19069763E+01</totfact>
</mgrwt>
</event>
<event>
 6    1  0.1901260E-004  0.3000000E+03  0.7818608E-02  0.1093470E+00
          1   -1    0    0  502    0  0.00000000000E+00  0.00000000000E+00  0.29488794526E+02  0.29488794526E+02  0.00000000000E+00 0.  1.
         13   -1    0    0    0    0 -0.00000000000E+00 -0.00000000000E+00 -0.10000000000E+04  0.10000000000E+04  0.00000000000E+00 0.  1.
    9000005    2    1    2  501    0  0.12747355108E+02  0.63550612348E+01 -0.93523348743E+03  0.99144409377E+03  0.32878082850E+03 0.  0.
         13    1    3    3    0    0  0.60571413763E+01  0.11595532386E+02 -0.96265091002E+03  0.96273979864E+03  0.00000000000E+00 0.  1.
          3    1    3    3  501    0  0.66902137321E+01 -0.52404711509E+01  0.27417422583E+02  0.28704295128E+02  0.00000000000E+00 0.  1.
         21    1    1    2  502  501 -0.12747355108E+02 -0.63550612348E+01 -0.35277718040E+02  0.38044700757E+02  0.00000000000E+00 0.  1.
<mgrwt>
<rscale>  1 0.30000000E+03</rscale>
<asrwt>0</asrwt>
<pdfrwt beam="1">  1        1 0.10723221E+00 0.30000000E+03</pdfrwt>
<pdfrwt beam="2">0</pdfrwt>
<totfact> 0.30869461E+01</totfact>
</mgrwt>
</event>
<event>
 6    1  0.1901260E-004  0.3000000E+03  0.7818608E-02  0.1093470E+00
          1   -1    0    0  502    0  0.00000000000E+00  0.00000000000E+00  0.83892449132E+02  0.83892449132E+02  0.00000000000E+00 0.  1.
         13   -1    0    0    0    0 -0.00000000000E+00 -0.00000000000E+00 -0.10000000000E+04  0.10000000000E+04  0.00000000000E+00 0.  1.
    9000005    2    1    2  501    0 -0.10752051947E+03 -0.11640404830E+03 -0.82721527790E+03  0.90219929912E+03  0.32336959470E+03 0.  0.
         13    1    3    3    0    0 -0.63811465481E+02  0.10180148121E+03 -0.43458076395E+03  0.45088344957E+03  0.00000000000E+00 0.  1.
          3    1    3    3  501    0 -0.43709053990E+02 -0.21820552951E+03 -0.39263451395E+03  0.45131584955E+03  0.00000000000E+00 0.  1.
         21    1    1    2  502  501  0.10752051947E+03  0.11640404830E+03 -0.88892272966E+02  0.18169315001E+03  0.00000000000E+00 0.  1.
<mgrwt>
<rscale>  1 0.30000000E+03</rscale>
<asrwt>0</asrwt>
<pdfrwt beam="1">  1        1 0.30506409E+00 0.30000000E+03</pdfrwt>
<pdfrwt beam="2">0</pdfrwt>
<totfact> 0.32869395E+00</totfact>
</mgrwt>
</event>
<event>
 6    1  0.1901260E-004  0.3000000E+03  0.7818608E-02  0.1093470E+00
          1   -1    0    0  502    0  0.00000000000E+00  0.00000000000E+00  0.35657874365E+02  0.35657874365E+02  0.00000000000E+00 0.  1.
         13   -1    0    0    0    0 -0.00000000000E+00 -0.00000000000E+00 -0.10000000000E+04  0.10000000000E+04  0.00000000000E+00 0.  1.
    9000005    2    1    2  501    0  0.12793750926E+02 -0.13650360351E+02 -0.96519274190E+03  0.10169299287E+04  0.31968646905E+03 0.  0.
         13    1    3    3    0    0 -0.92619611694E+02  0.13160369606E+02 -0.86179280901E+03  0.86685548591E+03  0.00000000000E+00 0.  1.
          3    1    3    3  501    0  0.10541336262E+03 -0.26810729957E+02 -0.10339993289E+03  0.15007444280E+03  0.00000000000E+00 0.  1.
         21    1    1    2  502  501 -0.12793750926E+02  0.13650360351E+02  0.85061626064E+00  0.18727945656E+02  0.00000000000E+00 0.  1.
<mgrwt>
<rscale>  1 0.30000000E+03</rscale>
<asrwt>0</asrwt>
<pdfrwt beam="1">  1        1 0.12966527E+00 0.30000000E+03</pdfrwt>
<pdfrwt beam="2">0</pdfrwt>
<totfact> 0.22976058E+01</totfact>
</mgrwt>
</event>
<event>
 6    1  0.1901260E-004  0.3000000E+03  0.7818608E-02  0.1093470E+00
          1   -1    0    0  502    0  0.00000000000E+00  0.00000000000E+00  0.38340475432E+02  0.38340475432E+02  0.00000000000E+00 0.  1.
         13   -1    0    0    0    0 -0.00000000000E+00 -0.00000000000E+00 -0.10000000000E+04  0.10000000000E+04  0.00000000000E+00 0.  1.
    9000005    2    1    2  501    0 -0.70035420644E+01  0.30034387342E+02 -0.94046106174E+03  0.10009173696E+04  0.34120002649E+03 0.  0.
         13    1    3    3    0    0  0.12516232390E+03  0.12509437979E+03 -0.42534509619E+03  0.46068716287E+03  0.00000000000E+00 0.  1.
          1    1    3    3  501    0 -0.13216586597E+03 -0.95059992448E+02 -0.51511596555E+03  0.54023020672E+03  0.00000000000E+00 0.  1.
         21    1    1    2  502  501  0.70035420644E+01 -0.30034387342E+02 -0.21198462828E+02  0.37423105840E+02  0.00000000000E+00 0.  1.
<mgrwt>
<rscale>  1 0.30000000E+03</rscale>
<asrwt>0</asrwt>
<pdfrwt beam="1">  1        1 0.13942020E+00 0.30000000E+03</pdfrwt>
<pdfrwt beam="2">0</pdfrwt>
<totfact> 0.20374501E+01</totfact>
</mgrwt>
</event>
<event>
 6    1  0.1901260E-004  0.3000000E+03  0.7818608E-02  0.1093470E+00
          1   -1    0    0  502    0  0.00000000000E+00  0.00000000000E+00  0.57303474083E+02  0.57303474083E+02  0.00000000000E+00 0.  1.
         13   -1    0    0    0    0 -0.00000000000E+00 -0.00000000000E+00 -0.10000000000E+04  0.10000000000E+04  0.00000000000E+00 0.  1.
    9000005    2    1    2  501    0 -0.12299540169E+03  0.35215677248E+02 -0.79257969193E+03  0.86006484550E+03  0.30848169742E+03 0.  0.
         13    1    3    3    0    0  0.48259206040E+02 -0.92506711063E+02 -0.39700415110E+03  0.41048597851E+03  0.00000000000E+00 0.  1.
          1    1    3    3  501    0 -0.17125460773E+03  0.12772238831E+03 -0.39557554083E+03  0.44957886699E+03  0.00000000000E+00 0.  1.
         21    1    1    2  502  501  0.12299540169E+03 -0.35215677248E+02 -0.15011683399E+03  0.19723862859E+03  0.00000000000E+00 0.  1.
<mgrwt>
<rscale>  1 0.30000000E+03</rscale>
<asrwt>0</asrwt>
<pdfrwt beam="1">  1        1 0.20837671E+00 0.30000000E+03</pdfrwt>
<pdfrwt beam="2">0</pdfrwt>
<totfact> 0.93486660E+00</totfact>
</mgrwt>
</event>
<event>
 6    1  0.1901260E-004  0.3000000E+03  0.7818608E-02  0.1093470E+00
          1   -1    0    0  502    0  0.00000000000E+00  0.00000000000E+00  0.47105218468E+02  0.47105218468E+02  0.00000000000E+00 0.  1.
         13   -1    0    0    0    0 -0.00000000000E+00 -0.00000000000E+00 -0.10000000000E+04  0.10000000000E+04  0.00000000000E+00 0.  1.
    9000005    2    1    2  501    0  0.36553764265E+02  0.10398112804E+02 -0.95651812615E+03  0.10089289555E+04  0.31869485886E+03 0.  0.
         13    1    3    3    0    0 -0.13516621935E+03 -0.66832844839E+01 -0.56647620011E+03  0.58241725458E+03  0.00000000000E+00 0.  1.
          1    1    3    3  501    0  0.17171998362E+03  0.17081397288E+02 -0.39004192604E+03  0.42651170087E+03  0.00000000000E+00 0.  1.
         21    1    1    2  502  501 -0.36553764265E+02 -0.10398112804E+02  0.36233446176E+01  0.38176263018E+02  0.00000000000E+00 0. -1.
<mgrwt>
<rscale>  1 0.30000000E+03</rscale>
<asrwt>0</asrwt>
<pdfrwt beam="1">  1        1 0.17129206E+00 0.30000000E+03</pdfrwt>
<pdfrwt beam="2">0</pdfrwt>
<totfact> 0.14081134E+01</totfact>
</mgrwt>
</event>
<event>
 6    1  0.1901260E-004  0.3000000E+03  0.7818608E-02  0.1093470E+00
          1   -1    0    0  502    0  0.00000000000E+00  0.00000000000E+00  0.31907636299E+02  0.31907636299E+02  0.00000000000E+00 0.  1.
         13   -1    0    0    0    0 -0.00000000000E+00 -0.00000000000E+00 -0.10000000000E+04  0.10000000000E+04  0.00000000000E+00 0.  1.
    9000005    2    1    2  501    0 -0.37768589080E+01 -0.13788114050E+02 -0.96405055061E+03  0.10170512234E+04  0.32372109919E+03 0.  0.
         13    1    3    3    0    0 -0.42576358987E+02 -0.12541777447E+03 -0.17642401949E+03  0.22060779485E+03  0.00000000000E+00 0.  1.
          1    1    3    3  501    0  0.38799500079E+02  0.11162966042E+03 -0.78762653112E+03  0.79644342851E+03  0.00000000000E+00 0.  1.
         21    1    1    2  502  501  0.37768589080E+01  0.13788114050E+02 -0.40418130903E+01  0.14856412936E+02  0.00000000000E+00 0. -1.
<mgrwt>
<rscale>  1 0.30000000E+03</rscale>
<asrwt>0</asrwt>
<pdfrwt beam="1">  1        1 0.11602801E+00 0.30000000E+03</pdfrwt>
<pdfrwt beam="2">0</pdfrwt>
<totfact> 0.27388924E+01</totfact>
</mgrwt>
</event>
<event>
 6    1  0.1901260E-004  0.3000000E+03  0.7818608E-02  0.1093470E+00
          1   -1    0    0  502    0  0.00000000000E+00  0.00000000000E+00  0.33018846078E+02  0.33018846078E+02  0.00000000000E+00 0.  1.
         13   -1    0    0    0    0 -0.00000000000E+00 -0.00000000000E+00 -0.10000000000E+04  0.10000000000E+04  0.00000000000E+00 0.  1.
    9000005    2    1    2  501    0  0.27433572352E+02 -0.17690210959E+02 -0.91753519428E+03  0.97376981756E+03  0.32448617904E+03 0.  0.
         13    1    3    3    0    0 -0.13875618137E+03 -0.65083878239E+02 -0.42304754082E+03  0.44995378748E+03  0.00000000000E+00 0.  1.
          3    1    3    3  501    0  0.16618975372E+03  0.47393667281E+02 -0.49448765347E+03  0.52381603008E+03  0.00000000000E+00 0.  1.
         21    1    1    2  502  501 -0.27433572352E+02  0.17690210959E+02 -0.49445959640E+02  0.59249028519E+02  0.00000000000E+00 0.  1.
<mgrwt>
<rscale>  1 0.30000000E+03</rscale>
<asrwt>0</asrwt>
<pdfrwt beam="1">  1        1 0.12006878E+00 0.30000000E+03</pdfrwt>
<pdfrwt beam="2">0</pdfrwt>
<totfact> 0.25972755E+01</totfact>
</mgrwt>
</event>
<event>
 6    1  0.1901260E-004  0.3000000E+03  0.7818608E-02  0.1093470E+00
          3   -1    0    0  502    0  0.00000000000E+00  0.00000000000E+00  0.28207160217E+02  0.28207160217E+02  0.00000000000E+00 0.  1.
         13   -1    0    0    0    0 -0.00000000000E+00 -0.00000000000E+00 -0.10000000000E+04  0.10000000000E+04  0.00000000000E+00 0.  1.
    9000005    2    1    2  501    0 -0.15771098291E+02  0.10914811127E+02 -0.92922427654E+03  0.98151729815E+03  0.31551638597E+03 0.  0.
         13    1    3    3    0    0 -0.59138771140E+02 -0.41078548218E+02 -0.90758599879E+03  0.91043790924E+03  0.00000000000E+00 0.  1.
          1    1    3    3  501    0  0.43367672849E+02  0.51993359346E+02 -0.21638277750E+02  0.71079388914E+02  0.00000000000E+00 0.  1.
         21    1    1    2  502  501  0.15771098291E+02 -0.10914811127E+02 -0.42568563240E+02  0.46689862064E+02  0.00000000000E+00 0. -1.
<mgrwt>
<rscale>  1 0.30000000E+03</rscale>
<asrwt>0</asrwt>
<pdfrwt beam="1">  1        3 0.10257171E+00 0.30000000E+03</pdfrwt>
<pdfrwt beam="2">0</pdfrwt>
<totfact> 0.36615803E+00</totfact>
</mgrwt>
</event>
<event>
 6    1  0.1901260E-004  0.3000000E+03  0.7818608E-02  0.1093470E+00
          1   -1    0    0  502    0  0.00000000000E+00  0.00000000000E+00  0.28500073502E+02  0.28500073502E+02  0.00000000000E+00 0.  1.
         13   -1    0    0    0    0 -0.00000000000E+00 -0.00000000000E+00 -0.10000000000E+04  0.10000000000E+04  0.00000000000E+00 0.  1.
    9000005    2    1    2  501    0 -0.57087340054E+00  0.10871597107E+02 -0.94025451626E+03  0.99541241445E+03  0.32657128163E+03 0.  0.
         13    1    3    3    0    0  0.45473463533E+02 -0.14996635378E+03 -0.39067872845E+03  0.42093658907E+03  0.00000000000E+00 0.  1.
          3    1    3    3  501    0 -0.46044336933E+02  0.16083795089E+03 -0.54957578781E+03  0.57447582539E+03  0.00000000000E+00 0.  1.
         21    1    1    2  502  501  0.57087340054E+00 -0.10871597107E+02 -0.31245410243E+02  0.33087659049E+02  0.00000000000E+00 0.  1.
<mgrwt>
<rscale>  1 0.30000000E+03</rscale>
<asrwt>0</asrwt>
<pdfrwt beam="1">  1        1 0.10363685E+00 0.30000000E+03</pdfrwt>
<pdfrwt beam="2">0</pdfrwt>
<totfact> 0.32475588E+01</totfact>
</mgrwt>
</event>
<event>
 6    1  0.1901260E-004  0.3000000E+03  0.7818608E-02  0.1093470E+00
          1   -1    0    0  502    0  0.00000000000E+00  0.00000000000E+00  0.46064080496E+02  0.46064080496E+02  0.00000000000E+00 0.  1.
         13   -1    0    0    0    0 -0.00000000000E+00 -0.00000000000E+00 -0.10000000000E+04  0.10000000000E+04  0.00000000000E+00 0.  1.
    9000005    2    1    2  501    0 -0.12466026365E+02  0.68988253598E+01 -0.97222459853E+03  0.10228806514E+04  0.31758646286E+03 0.  0.
         13    1    3    3    0    0 -0.10220834186E+03  0.12087567177E+03 -0.35262534033E+03  0.38652568325E+03  0.00000000000E+00 0.  1.
          1    1    3    3  501    0  0.89742315494E+02 -0.11397684641E+03 -0.61959925820E+03  0.63635496813E+03  0.00000000000E+00 0.  1.
         21    1    1    2  502  501  0.12466026365E+02 -0.68988253598E+01  0.18288679026E+02  0.23183429108E+02  0.00000000000E+00 0.  1.
<mgrwt>
<rscale>  1 0.30000000E+03</rscale>
<asrwt>0</asrwt>
<pdfrwt beam="1">  1        1 0.16750610E+00 0.30000000E+03</pdfrwt>
<pdfrwt beam="2">0</pdfrwt>
<totfact> 0.14694594E+01</totfact>
</mgrwt>
</event>
<event>
 6    1  0.1901260E-004  0.3000000E+03  0.7818608E-02  0.1093470E+00
          1   -1    0    0  502    0  0.00000000000E+00  0.00000000000E+00  0.58446638529E+02  0.58446638529E+02  0.00000000000E+00 0.  1.
         13   -1    0    0    0    0 -0.00000000000E+00 -0.00000000000E+00 -0.10000000000E+04  0.10000000000E+04  0.00000000000E+00 0.  1.
    9000005    2    1    2  501    0  0.14609318641E+02 -0.11524504216E+02 -0.97097852054E+03  0.10236316077E+04  0.32353691360E+03 0.  0.
         13    1    3    3    0    0  0.27229088640E+02 -0.15692089172E+03 -0.33236480397E+03  0.36855386641E+03  0.00000000000E+00 0.  1.
          1    1    3    3  501    0 -0.12619770000E+02  0.14539638750E+03 -0.63861371657E+03  0.65507774125E+03  0.00000000000E+00 0.  1.
         21    1    1    2  502  501 -0.14609318641E+02  0.11524504216E+02  0.29425159066E+02  0.34815030872E+02  0.00000000000E+00 0.  1.
<mgrwt>
<rscale>  1 0.30000000E+03</rscale>
<asrwt>0</asrwt>
<pdfrwt beam="1">  1        1 0.21253368E+00 0.30000000E+03</pdfrwt>
<pdfrwt beam="2">0</pdfrwt>
<totfact> 0.89364090E+00</totfact>
</mgrwt>
</event>
<event>
 6    1  0.1901260E-004  0.3000000E+03  0.7818608E-02  0.1093470E+00
          3   -1    0    0  502    0  0.00000000000E+00  0.00000000000E+00  0.30179840518E+02  0.30179840518E+02  0.00000000000E+00 0.  1.
         13   -1    0    0    0    0 -0.00000000000E+00 -0.00000000000E+00 -0.10000000000E+04  0.10000000000E+04  0.00000000000E+00 0.  1.
    9000005    2    1    2  501    0 -0.22715066721E+02  0.10578220505E+02 -0.91657262997E+03  0.97133111577E+03  0.32054777717E+03 0.  0.
         13    1    3    3    0    0 -0.25040390969E+02 -0.15403744927E+03 -0.48104666561E+03  0.50572764553E+03  0.00000000000E+00 0.  1.
          3    1    3    3  501    0  0.23253242477E+01  0.16461566978E+03 -0.43552596435E+03  0.46560347023E+03  0.00000000000E+00 0.  1.
         21    1    1    2  502  501  0.22715066721E+02 -0.10578220505E+02 -0.53247529517E+02  0.58848724751E+02  0.00000000000E+00 0. -1.
<mgrwt>
<rscale>  1 0.30000000E+03</rscale>
<asrwt>0</asrwt>
<pdfrwt beam="1">  1        3 0.10974511E+00 0.30000000E+03</pdfrwt>
<pdfrwt beam="2">0</pdfrwt>
<totfact> 0.30338476E+00</totfact>
</mgrwt>
</event>
<event>
 6    1  0.1901260E-004  0.3000000E+03  0.7818608E-02  0.1093470E+00
          1   -1    0    0  502    0  0.00000000000E+00  0.00000000000E+00  0.17983696982E+02  0.17983696982E+02  0.00000000000E+00 0.  1.
         13   -1    0    0    0    0 -0.00000000000E+00 -0.00000000000E+00 -0.10000000000E+04  0.10000000000E+04  0.00000000000E+00 0.  1.
    9000005    2    1    2  501    0 -0.80093551832E+01 -0.47396220821E+01 -0.91727494110E+03  0.95257683396E+03  0.25675414940E+03 0.  0.
         13    1    3    3    0    0  0.35086751019E+02  0.13930386565E+02 -0.90257438427E+03  0.90336352312E+03  0.00000000000E+00 0.  1.
          3    1    3    3  501    0 -0.43096106202E+02 -0.18670008648E+02 -0.14700556836E+02  0.49213310841E+02  0.00000000000E+00 0.  1.
         21    1    1    2  502  501  0.80093551832E+01  0.47396220821E+01 -0.64741361913E+02  0.65406863021E+02  0.00000000000E+00 0. -1.
<mgrwt>
<rscale>  1 0.30000000E+03</rscale>
<asrwt>0</asrwt>
<pdfrwt beam="1">  1        1 0.65395400E-01 0.30000000E+03</pdfrwt>
<pdfrwt beam="2">0</pdfrwt>
<totfact> 0.61809743E+01</totfact>
</mgrwt>
</event>
<event>
 6    1  0.1901260E-004  0.3000000E+03  0.7818608E-02  0.1093470E+00
          1   -1    0    0  502    0  0.00000000000E+00  0.00000000000E+00  0.67383209437E+02  0.67383209437E+02  0.00000000000E+00 0.  1.
         13   -1    0    0    0    0 -0.00000000000E+00 -0.00000000000E+00 -0.10000000000E+04  0.10000000000E+04  0.00000000000E+00 0.  1.
    9000005    2    1    2  501    0  0.44909575648E+02 -0.30034371375E+02 -0.95318922952E+03  0.10095718032E+04  0.32824774951E+03 0.  0.
         13    1    3    3    0    0 -0.13817531440E+03  0.19588605697E+02 -0.47684587065E+03  0.49684818137E+03  0.00000000000E+00 0.  1.
          3    1    3    3  501    0  0.18308489004E+03 -0.49622977072E+02 -0.47634335887E+03  0.51272362181E+03  0.00000000000E+00 0.  1.
         21    1    1    2  502  501 -0.44909575648E+02  0.30034371375E+02  0.20572438957E+02  0.57811406257E+02  0.00000000000E+00 0.  1.
<mgrwt>
<rscale>  1 0.30000000E+03</rscale>
<asrwt>0</asrwt>
<pdfrwt beam="1">  1        1 0.24503037E+00 0.30000000E+03</pdfrwt>
<pdfrwt beam="2">0</pdfrwt>
<totfact> 0.62930751E+00</totfact>
</mgrwt>
</event>
<event>
 6    1  0.1901260E-004  0.3000000E+03  0.7818608E-02  0.1093470E+00
          1   -1    0    0  502    0  0.00000000000E+00  0.00000000000E+00  0.49079231306E+02  0.49079231306E+02  0.00000000000E+00 0.  1.
         13   -1    0    0    0    0 -0.00000000000E+00 -0.00000000000E+00 -0.10000000000E+04  0.10000000000E+04  0.00000000000E+00 0.  1.
    9000005    2    1    2  501    0 -0.26048518546E+02 -0.23483771369E+02 -0.95670237967E+03  0.10135343321E+04  0.33277978632E+03 0.  0.
         13    1    3    3    0    0  0.12174212024E+03 -0.36843807259E+02 -0.74025555929E+03  0.75110378978E+03  0.00000000000E+00 0.  1.
          3    1    3    3  501    0 -0.14779063878E+03  0.13360035890E+02 -0.21644682038E+03  0.26243054229E+03  0.00000000000E+00 0.  1.
         21    1    1    2  502  501  0.26048518546E+02  0.23483771369E+02  0.57816109747E+01  0.35544899235E+02  0.00000000000E+00 0. -1.
<mgrwt>
<rscale>  1 0.30000000E+03</rscale>
<asrwt>0</asrwt>
<pdfrwt beam="1">  1        1 0.17847031E+00 0.30000000E+03</pdfrwt>
<pdfrwt beam="2">0</pdfrwt>
<totfact> 0.12994122E+01</totfact>
</mgrwt>
</event>
<event>
 6    1  0.1901260E-004  0.3000000E+03  0.7818608E-02  0.1093470E+00
          1   -1    0    0  502    0  0.00000000000E+00  0.00000000000E+00  0.61107496378E+02  0.61107496378E+02  0.00000000000E+00 0.  1.
         13   -1    0    0    0    0 -0.00000000000E+00 -0.00000000000E+00 -0.10000000000E+04  0.10000000000E+04  0.00000000000E+00 0.  1.
    9000005    2    1    2  501    0 -0.16031574755E+02  0.53606736253E+02 -0.91807993957E+03  0.10014094530E+04  0.39600432265E+03 0.  0.
         13    1    3    3    0    0  0.11134576077E+02  0.81790358400E+02 -0.49474521192E-01  0.82544799711E+02  0.00000000000E+00 0.  1.
          3    1    3    3  501    0 -0.27166150832E+02 -0.28183622147E+02 -0.91803046505E+03  0.91886465329E+03  0.00000000000E+00 0.  1.
         21    1    1    2  502  501  0.16031574755E+02 -0.53606736253E+02 -0.20812564053E+02  0.59698043379E+02  0.00000000000E+00 0.  1.
<mgrwt>
<rscale>  1 0.30000000E+03</rscale>
<asrwt>0</asrwt>
<pdfrwt beam="1">  1        1 0.22220955E+00 0.30000000E+03</pdfrwt>
<pdfrwt beam="2">0</pdfrwt>
<totfact> 0.80490535E+00</totfact>
</mgrwt>
</event>
<event>
 6    1  0.1901260E-004  0.3000000E+03  0.7818608E-02  0.1093470E+00
          1   -1    0    0  502    0  0.00000000000E+00  0.00000000000E+00  0.51552926307E+02  0.51552926307E+02  0.00000000000E+00 0.  1.
         13   -1    0    0    0    0 -0.00000000000E+00 -0.00000000000E+00 -0.10000000000E+04  0.10000000000E+04  0.00000000000E+00 0.  1.
    9000005    2    1    2  501    0  0.24267263014E+02 -0.10913162298E+02 -0.96688379528E+03  0.10191814903E+04  0.32118318674E+03 0.  0.
         13    1    3    3    0    0  0.48850468233E+02  0.12681413671E+03 -0.74191538300E+03  0.75425899335E+03  0.00000000000E+00 0.  1.
          3    1    3    3  501    0 -0.24583205219E+02 -0.13772729901E+03 -0.22496841228E+03  0.26492249696E+03  0.00000000000E+00 0.  1.
         21    1    1    2  502  501 -0.24267263014E+02  0.10913162298E+02  0.18436721590E+02  0.32371435997E+02  0.00000000000E+00 0.  1.
<mgrwt>
<rscale>  1 0.30000000E+03</rscale>
<asrwt>0</asrwt>
<pdfrwt beam="1">  1        1 0.18746558E+00 0.30000000E+03</pdfrwt>
<pdfrwt beam="2">0</pdfrwt>
<totfact> 0.11758996E+01</totfact>
</mgrwt>
</event>
<event>
 6    1  0.1901260E-004  0.3000000E+03  0.7818608E-02  0.1093470E+00
          3   -1    0    0  502    0  0.00000000000E+00  0.00000000000E+00  0.34250327230E+02  0.34250327230E+02  0.00000000000E+00 0.  1.
         13   -1    0    0    0    0 -0.00000000000E+00 -0.00000000000E+00 -0.10000000000E+04  0.10000000000E+04  0.00000000000E+00 0.  1.
    9000005    2    1    2  501    0 -0.15113209758E+02  0.99118176279E+01 -0.95927741865E+03  0.10150528453E+04  0.33134945247E+03 0.  0.
         13    1    3    3    0    0 -0.94607908918E+02 -0.63096654115E+02 -0.10757375769E+03  0.15653739979E+03  0.00000000000E+00 0.  1.
          3    1    3    3  501    0  0.79494699160E+02  0.73008471743E+02 -0.85170366096E+03  0.85851544554E+03  0.00000000000E+00 0.  1.
         21    1    1    2  502  501  0.15113209758E+02 -0.99118176279E+01 -0.64722541236E+01  0.19197481900E+02  0.00000000000E+00 0. -1.
<mgrwt>
<rscale>  1 0.30000000E+03</rscale>
<asrwt>0</asrwt>
<pdfrwt beam="1">  1        3 0.12454691E+00 0.30000000E+03</pdfrwt>
<pdfrwt beam="2">0</pdfrwt>
<totfact> 0.20481279E+00</totfact>
</mgrwt>
</event>
<event>
 6    1  0.1901260E-004  0.3000000E+03  0.7818608E-02  0.1093470E+00
          1   -1    0    0  502    0  0.00000000000E+00  0.00000000000E+00  0.84988504984E+02  0.84988504984E+02  0.00000000000E+00 0.  1.
         13   -1    0    0    0    0 -0.00000000000E+00 -0.00000000000E+00 -0.10000000000E+04  0.10000000000E+04  0.00000000000E+00 0.  1.
    9000005    2    1    2  501    0 -0.18360090070E+02  0.54647201446E+01 -0.97325240946E+03  0.10236781454E+04  0.31674869667E+03 0.  0.
         13    1    3    3    0    0 -0.43170052279E+02  0.13090128295E+03 -0.77912304145E+03  0.79122153219E+03  0.00000000000E+00 0.  1.
          3    1    3    3  501    0  0.24809962209E+02 -0.12543656281E+03 -0.19412936801E+03  0.23245661324E+03  0.00000000000E+00 0.  1.
         21    1    1    2  502  501  0.18360090070E+02 -0.54647201446E+01  0.58240914441E+02  0.61310359554E+02  0.00000000000E+00 0.  1.
<mgrwt>
<rscale>  1 0.30000000E+03</rscale>
<asrwt>0</asrwt>
<pdfrwt beam="1">  1        1 0.30904976E+00 0.30000000E+03</pdfrwt>
<pdfrwt beam="2">0</pdfrwt>
<totfact> 0.31457160E+00</totfact>
</mgrwt>
</event>
<event>
 6    1  0.1901260E-004  0.3000000E+03  0.7818608E-02  0.1093470E+00
          1   -1    0    0  502    0  0.00000000000E+00  0.00000000000E+00  0.28327131017E+02  0.28327131017E+02  0.00000000000E+00 0.  1.
         13   -1    0    0    0    0 -0.00000000000E+00 -0.00000000000E+00 -0.10000000000E+04  0.10000000000E+04  0.00000000000E+00 0.  1.
    9000005    2    1    2  501    0 -0.40368262150E+01 -0.84460111258E+01 -0.94145296861E+03  0.99669054700E+03  0.32706379087E+03 0.  0.
         13    1    3    3    0    0  0.36620726324E+02 -0.50762840043E+02 -0.93562718676E+03  0.93771860178E+03  0.00000000000E+00 0.  1.
          3    1    3    3  501    0 -0.40657552539E+02  0.42316828917E+02 -0.58257818486E+01  0.58971945213E+02  0.00000000000E+00 0.  1.
         21    1    1    2  502  501  0.40368262150E+01  0.84460111258E+01 -0.30219900373E+02  0.31636584019E+02  0.00000000000E+00 0. -1.
<mgrwt>
<rscale>  1 0.30000000E+03</rscale>
<asrwt>0</asrwt>
<pdfrwt beam="1">  1        1 0.10300797E+00 0.30000000E+03</pdfrwt>
<pdfrwt beam="2">0</pdfrwt>
<totfact> 0.32768921E+01</totfact>
</mgrwt>
</event>
<event>
 6    1  0.1901260E-004  0.3000000E+03  0.7818608E-02  0.1093470E+00
          1   -1    0    0  502    0  0.00000000000E+00  0.00000000000E+00  0.39157240906E+02  0.39157240906E+02  0.00000000000E+00 0.  1.
         13   -1    0    0    0    0 -0.00000000000E+00 -0.00000000000E+00 -0.10000000000E+04  0.10000000000E+04  0.00000000000E+00 0.  1.
    9000005    2    1    2  501    0 -0.10243872823E+02 -0.12515084580E+01 -0.97047626313E+03  0.10250396064E+04  0.32981133120E+03 0.  0.
         13    1    3    3    0    0 -0.50783672813E+02  0.14419849523E+03 -0.68756188728E+03  0.70435327520E+03  0.00000000000E+00 0.  1.
          1    1    3    3  501    0  0.40539799990E+02 -0.14545000368E+03 -0.28291437585E+03  0.32068633120E+03  0.00000000000E+00 0.  1.
         21    1    1    2  502  501  0.10243872823E+02  0.12515084580E+01  0.96335040385E+01  0.14117634501E+02  0.00000000000E+00 0.  1.
<mgrwt>
<rscale>  1 0.30000000E+03</rscale>
<asrwt>0</asrwt>
<pdfrwt beam="1">  1        1 0.14239027E+00 0.30000000E+03</pdfrwt>
<pdfrwt beam="2">0</pdfrwt>
<totfact> 0.19658886E+01</totfact>
</mgrwt>
</event>
<event>
 6    1  0.1901260E-004  0.3000000E+03  0.7818608E-02  0.1093470E+00
          1   -1    0    0  502    0  0.00000000000E+00  0.00000000000E+00  0.44772777227E+02  0.44772777227E+02  0.00000000000E+00 0.  1.
         13   -1    0    0    0    0 -0.00000000000E+00 -0.00000000000E+00 -0.10000000000E+04  0.10000000000E+04  0.00000000000E+00 0.  1.
    9000005    2    1    2  501    0 -0.26821257164E+02  0.49965831242E+02 -0.88980866476E+03  0.95819592200E+03  0.35094729083E+03 0.  0.
         13    1    3    3    0    0 -0.85255626347E+02  0.41051428451E+02 -0.34302203905E+02  0.10064980275E+03  0.00000000000E+00 0.  1.
          1    1    3    3  501    0  0.58434369183E+02  0.89144027909E+01 -0.85550646085E+03  0.85754611925E+03  0.00000000000E+00 0.  1.
         21    1    1    2  502  501  0.26821257164E+02 -0.49965831242E+02 -0.65418558017E+02  0.86576855225E+02  0.00000000000E+00 0. -1.
<mgrwt>
<rscale>  1 0.30000000E+03</rscale>
<asrwt>0</asrwt>
<pdfrwt beam="1">  1        1 0.16281044E+00 0.30000000E+03</pdfrwt>
<pdfrwt beam="2">0</pdfrwt>
<totfact> 0.15498039E+01</totfact>
</mgrwt>
</event>
<event>
 6    1  0.1901260E-004  0.3000000E+03  0.7818608E-02  0.1093470E+00
          1   -1    0    0  502    0  0.00000000000E+00  0.00000000000E+00  0.31191495064E+02  0.31191495064E+02  0.00000000000E+00 0.  1.
         13   -1    0    0    0    0 -0.00000000000E+00 -0.00000000000E+00 -0.10000000000E+04  0.10000000000E+04  0.00000000000E+00 0.  1.
    9000005    2    1    2  501    0 -0.83120482255E+01  0.65803253314E+01 -0.96667657673E+03  0.10203778026E+04  0.32648869073E+03 0.  0.
         13    1    3    3    0    0  0.14472651088E+03 -0.31687643538E+02 -0.64892337662E+03  0.66562107721E+03  0.00000000000E+00 0.  1.
          3    1    3    3  501    0 -0.15303855911E+03  0.38267968869E+02 -0.31775320012E+03  0.35475672538E+03  0.00000000000E+00 0.  1.
         21    1    1    2  502  501  0.83120482255E+01 -0.65803253314E+01 -0.21319282017E+01  0.10813692479E+02  0.00000000000E+00 0. -1.
<mgrwt>
<rscale>  1 0.30000000E+03</rscale>
<asrwt>0</asrwt>
<pdfrwt beam="1">  1        1 0.11342386E+00 0.30000000E+03</pdfrwt>
<pdfrwt beam="2">0</pdfrwt>
<totfact> 0.28358776E+01</totfact>
</mgrwt>
</event>
<event>
 6    1  0.1901260E-004  0.3000000E+03  0.7818608E-02  0.1093470E+00
          1   -1    0    0  502    0  0.00000000000E+00  0.00000000000E+00  0.28883704140E+02  0.28883704140E+02  0.00000000000E+00 0.  1.
         13   -1    0    0    0    0 -0.00000000000E+00 -0.00000000000E+00 -0.10000000000E+04  0.10000000000E+04  0.00000000000E+00 0.  1.
    9000005    2    1    2  501    0 -0.74909773302E+01  0.10539610688E+02 -0.94792124221E+03  0.10023279393E+04  0.32548336093E+03 0.  0.
         13    1    3    3    0    0  0.14883201493E+03 -0.51493703974E+02 -0.44799862927E+03  0.47487402755E+03  0.00000000000E+00 0.  1.
          3    1    3    3  501    0 -0.15632299226E+03  0.62033314662E+02 -0.49992261294E+03  0.52745391170E+03  0.00000000000E+00 0.  1.
         21    1    1    2  502  501  0.74909773302E+01 -0.10539610688E+02 -0.23195053651E+02  0.26555764886E+02  0.00000000000E+00 0. -1.
<mgrwt>
<rscale>  1 0.30000000E+03</rscale>
<asrwt>0</asrwt>
<pdfrwt beam="1">  1        1 0.10503187E+00 0.30000000E+03</pdfrwt>
<pdfrwt beam="2">0</pdfrwt>
<totfact> 0.31838371E+01</totfact>
</mgrwt>
</event>
<event>
 6    1  0.1901260E-004  0.3000000E+03  0.7818608E-02  0.1093470E+00
          1   -1    0    0  502    0  0.00000000000E+00  0.00000000000E+00  0.31883774590E+02  0.31883774590E+02  0.00000000000E+00 0.  1.
         13   -1    0    0    0    0 -0.00000000000E+00 -0.00000000000E+00 -0.10000000000E+04  0.10000000000E+04  0.00000000000E+00 0.  1.
    9000005    2    1    2  501    0  0.85873256687E+01 -0.11601972094E+02 -0.96019741614E+03  0.10154200126E+04  0.32998541803E+03 0.  0.
         13    1    3    3    0    0 -0.13349204851E+02 -0.40799607669E+02 -0.97505052152E+03  0.97599504546E+03  0.00000000000E+00 0.  1.
          1    1    3    3  501    0  0.21936530520E+02  0.29197635574E+02  0.14853105379E+02  0.39424967137E+02  0.00000000000E+00 0.  1.
         21    1    1    2  502  501 -0.85873256687E+01  0.11601972094E+02 -0.79188092742E+01  0.16463761992E+02  0.00000000000E+00 0.  1.
<mgrwt>
<rscale>  1 0.30000000E+03</rscale>
<asrwt>0</asrwt>
<pdfrwt beam="1">  1        1 0.11594124E+00 0.30000000E+03</pdfrwt>
<pdfrwt beam="2">0</pdfrwt>
<totfact> 0.27420485E+01</totfact>
</mgrwt>
</event>
<event>
 6    1  0.1901260E-004  0.3000000E+03  0.7818608E-02  0.1093470E+00
          1   -1    0    0  502    0  0.00000000000E+00  0.00000000000E+00  0.32668617444E+02  0.32668617444E+02  0.00000000000E+00 0.  1.
         13   -1    0    0    0    0 -0.00000000000E+00 -0.00000000000E+00 -0.10000000000E+04  0.10000000000E+04  0.00000000000E+00 0.  1.
    9000005    2    1    2  501    0 -0.13565898350E+02 -0.53521029578E+00 -0.96553325365E+03  0.10189736068E+04  0.32537428827E+03 0.  0.
         13    1    3    3    0    0 -0.82999033950E+02  0.83048568905E+02 -0.85835644292E+03  0.86634963354E+03  0.00000000000E+00 0.  1.
          3    1    3    3  501    0  0.69433135600E+02 -0.83583779201E+02 -0.10717681073E+03  0.15262397329E+03  0.00000000000E+00 0.  1.
         21    1    1    2  502  501  0.13565898350E+02  0.53521029578E+00 -0.17981289059E+01  0.13695010612E+02  0.00000000000E+00 0. -1.
<mgrwt>
<rscale>  1 0.30000000E+03</rscale>
<asrwt>0</asrwt>
<pdfrwt beam="1">  1        1 0.11879522E+00 0.30000000E+03</pdfrwt>
<pdfrwt beam="2">0</pdfrwt>
<totfact> 0.26408116E+01</totfact>
</mgrwt>
</event>
<event>
 6    1  0.1901260E-004  0.3000000E+03  0.7818608E-02  0.1093470E+00
          3   -1    0    0  502    0  0.00000000000E+00  0.00000000000E+00  0.30548777157E+02  0.30548777157E+02  0.00000000000E+00 0.  1.
         13   -1    0    0    0    0 -0.00000000000E+00 -0.00000000000E+00 -0.10000000000E+04  0.10000000000E+04  0.00000000000E+00 0.  1.
    9000005    2    1    2  501    0  0.33837210409E+02 -0.14871257129E+01 -0.87031492609E+03  0.92578631401E+03  0.31382329467E+03 0.  0.
         13    1    3    3    0    0  0.54842419037E+02  0.12807827469E+03 -0.68296980533E+03  0.69703621883E+03  0.00000000000E+00 0.  1.
          1    1    3    3  501    0 -0.21005208628E+02 -0.12956540040E+03 -0.18734512077E+03  0.22875009518E+03  0.00000000000E+00 0.  1.
         21    1    1    2  502  501 -0.33837210409E+02  0.14871257129E+01 -0.99136296752E+02  0.10476246315E+03  0.00000000000E+00 0. -1.
<mgrwt>
<rscale>  1 0.30000000E+03</rscale>
<asrwt>0</asrwt>
<pdfrwt beam="1">  1        3 0.11108670E+00 0.30000000E+03</pdfrwt>
<pdfrwt beam="2">0</pdfrwt>
<totfact> 0.29288546E+00</totfact>
</mgrwt>
</event>
<event>
 6    1  0.1901260E-004  0.3000000E+03  0.7818608E-02  0.1093470E+00
          1   -1    0    0  502    0  0.00000000000E+00  0.00000000000E+00  0.75752511089E+02  0.75752511089E+02  0.00000000000E+00 0.  1.
         13   -1    0    0    0    0 -0.00000000000E+00 -0.00000000000E+00 -0.10000000000E+04  0.10000000000E+04  0.00000000000E+00 0.  1.
    9000005    2    1    2  501    0 -0.98993357972E+01  0.30768305416E+02 -0.96811778651E+03  0.10212613331E+04  0.32353976023E+03 0.  0.
         13    1    3    3    0    0 -0.59948556911E+02  0.16223868059E+03 -0.39639558673E+03  0.43248662423E+03  0.00000000000E+00 0.  1.
          1    1    3    3  501    0  0.50049221113E+02 -0.13147037517E+03 -0.57172219978E+03  0.58877470887E+03  0.00000000000E+00 0.  1.
         21    1    1    2  502  501  0.98993357972E+01 -0.30768305416E+02  0.43870297601E+02  0.54491177993E+02  0.00000000000E+00 0.  1.
<mgrwt>
<rscale>  1 0.30000000E+03</rscale>
<asrwt>0</asrwt>
<pdfrwt beam="1">  1        1 0.27546426E+00 0.30000000E+03</pdfrwt>
<pdfrwt beam="2">0</pdfrwt>
<totfact> 0.45336633E+00</totfact>
</mgrwt>
</event>
<event>
 6    1  0.1901260E-004  0.3000000E+03  0.7818608E-02  0.1093470E+00
          1   -1    0    0  502    0  0.00000000000E+00  0.00000000000E+00  0.47913820380E+02  0.47913820380E+02  0.00000000000E+00 0.  1.
         13   -1    0    0    0    0 -0.00000000000E+00 -0.00000000000E+00 -0.10000000000E+04  0.10000000000E+04  0.00000000000E+00 0.  1.
    9000005    2    1    2  501    0  0.67799062691E+02 -0.25982816166E+02 -0.89156771908E+03  0.95339237464E+03  0.32983663030E+03 0.  0.
         13    1    3    3    0    0 -0.19465086863E+02  0.14084560699E+03 -0.28876388844E+03  0.32187102678E+03  0.00000000000E+00 0.  1.
          1    1    3    3  501    0  0.87264149554E+02 -0.16682842316E+03 -0.60280383064E+03  0.63152134786E+03  0.00000000000E+00 0.  1.
         21    1    1    2  502  501 -0.67799062691E+02  0.25982816166E+02 -0.60518460544E+02  0.94521445737E+02  0.00000000000E+00 0. -1.
<mgrwt>
<rscale>  1 0.30000000E+03</rscale>
<asrwt>0</asrwt>
<pdfrwt beam="1">  1        1 0.17423244E+00 0.30000000E+03</pdfrwt>
<pdfrwt beam="2">0</pdfrwt>
<totfact> 0.13624410E+01</totfact>
</mgrwt>
</event>
<event>
 6    1  0.1901260E-004  0.3000000E+03  0.7818608E-02  0.1093470E+00
          1   -1    0    0  502    0  0.00000000000E+00  0.00000000000E+00  0.30176494600E+02  0.30176494600E+02  0.00000000000E+00 0.  1.
         13   -1    0    0    0    0 -0.00000000000E+00 -0.00000000000E+00 -0.10000000000E+04  0.10000000000E+04  0.00000000000E+00 0.  1.
    9000005    2    1    2  501    0 -0.82353616841E+01 -0.12710394732E+02 -0.95350661927E+03  0.10079140579E+04  0.32632269265E+03 0.  0.
         13    1    3    3    0    0 -0.37814119550E+02 -0.67502460619E+02 -0.94128525978E+03  0.94445986156E+03  0.00000000000E+00 0.  1.
          1    1    3    3  501    0  0.29578757866E+02  0.54792065887E+02 -0.12221359495E+02  0.63454196307E+02  0.00000000000E+00 0.  1.
         21    1    1    2  502  501  0.82353616841E+01  0.12710394732E+02 -0.16316886125E+02  0.22262436730E+02  0.00000000000E+00 0.  1.
<mgrwt>
<rscale>  1 0.30000000E+03</rscale>
<asrwt>0</asrwt>
<pdfrwt beam="1">  1        1 0.10973294E+00 0.30000000E+03</pdfrwt>
<pdfrwt beam="2">0</pdfrwt>
<totfact> 0.29818818E+01</totfact>
</mgrwt>
</event>
<event>
 6    1  0.1901260E-004  0.3000000E+03  0.7818608E-02  0.1093470E+00
          1   -1    0    0  502    0  0.00000000000E+00  0.00000000000E+00  0.41927850087E+02  0.41927850087E+02  0.00000000000E+00 0.  1.
         13   -1    0    0    0    0 -0.00000000000E+00 -0.00000000000E+00 -0.10000000000E+04  0.10000000000E+04  0.00000000000E+00 0.  1.
    9000005    2    1    2  501    0 -0.43075423970E+02  0.81612947932E+02 -0.82490553862E+03  0.87991083931E+03  0.29198933552E+03 0.  0.
         13    1    3    3    0    0 -0.15672194594E+03  0.93101085538E+02 -0.60838183836E+03  0.63510474862E+03  0.00000000000E+00 0.  1.
          1    1    3    3  501    0  0.11364652197E+03 -0.11488137607E+02 -0.21652370026E+03  0.24480609069E+03  0.00000000000E+00 0.  1.
         21    1    1    2  502  501  0.43075423970E+02 -0.81612947932E+02 -0.13316661129E+03  0.16201701078E+03  0.00000000000E+00 0.  1.
<mgrwt>
<rscale>  1 0.30000000E+03</rscale>
<asrwt>0</asrwt>
<pdfrwt beam="1">  1        1 0.15246523E+00 0.30000000E+03</pdfrwt>
<pdfrwt beam="2">0</pdfrwt>
<totfact> 0.17455511E+01</totfact>
</mgrwt>
</event>
<event>
 6    1  0.1901260E-004  0.3000000E+03  0.7818608E-02  0.1093470E+00
          1   -1    0    0  502    0  0.00000000000E+00  0.00000000000E+00  0.77461600383E+02  0.77461600383E+02  0.00000000000E+00 0.  1.
         13   -1    0    0    0    0 -0.00000000000E+00 -0.00000000000E+00 -0.10000000000E+04  0.10000000000E+04  0.00000000000E+00 0.  1.
    9000005    2    1    2  501    0  0.13033949258E+02  0.57750578910E-01 -0.96201234628E+03  0.10358914232E+04  0.38397057054E+03 0.  0.
         13    1    3    3    0    0 -0.23305006694E+02 -0.57773059427E+02 -0.96549477957E+03  0.96750246465E+03  0.00000000000E+00 0.  1.
          3    1    3    3  501    0  0.36338955952E+02  0.57830810006E+02  0.34824332933E+01  0.68388958519E+02  0.00000000000E+00 0.  1.
         21    1    1    2  502  501 -0.13033949258E+02 -0.57750578910E-01  0.39473946661E+02  0.41570177211E+02  0.00000000000E+00 0.  1.
<mgrwt>
<rscale>  1 0.30000000E+03</rscale>
<asrwt>0</asrwt>
<pdfrwt beam="1">  1        1 0.28167914E+00 0.30000000E+03</pdfrwt>
<pdfrwt beam="2">0</pdfrwt>
<totfact> 0.42405877E+00</totfact>
</mgrwt>
</event>
<event>
 6    1  0.1901260E-004  0.3000000E+03  0.7818608E-02  0.1093470E+00
          1   -1    0    0  502    0  0.00000000000E+00  0.00000000000E+00  0.33795191564E+02  0.33795191564E+02  0.00000000000E+00 0.  1.
         13   -1    0    0    0    0 -0.00000000000E+00 -0.00000000000E+00 -0.10000000000E+04  0.10000000000E+04  0.00000000000E+00 0.  1.
    9000005    2    1    2  501    0 -0.18513606187E+02  0.21432551848E+01 -0.96018148310E+03  0.10142087778E+04  0.32607302445E+03 0.  0.
         13    1    3    3    0    0  0.10676154854E+03 -0.22555776540E+02 -0.80897696693E+03  0.81630296111E+03  0.00000000000E+00 0.  1.
          3    1    3    3  501    0 -0.12527515472E+03  0.24699031725E+02 -0.15120451618E+03  0.19790581667E+03  0.00000000000E+00 0.  1.
         21    1    1    2  502  501  0.18513606187E+02 -0.21432551848E+01 -0.60233253306E+01  0.19586413783E+02  0.00000000000E+00 0.  1.
<mgrwt>
<rscale>  1 0.30000000E+03</rscale>
<asrwt>0</asrwt>
<pdfrwt beam="1">  1        1 0.12289186E+00 0.30000000E+03</pdfrwt>
<pdfrwt beam="2">0</pdfrwt>
<totfact> 0.25041249E+01</totfact>
</mgrwt>
</event>
<event>
 6    1  0.1901260E-004  0.3000000E+03  0.7818608E-02  0.1093470E+00
          1   -1    0    0  502    0  0.00000000000E+00  0.00000000000E+00  0.30027023292E+02  0.30027023292E+02  0.00000000000E+00 0.  1.
         13   -1    0    0    0    0 -0.00000000000E+00 -0.00000000000E+00 -0.10000000000E+04  0.10000000000E+04  0.00000000000E+00 0.  1.
    9000005    2    1    2  501    0  0.19117399240E+02 -0.64464454364E+01 -0.93030739005E+03  0.98552544605E+03  0.32462521962E+03 0.  0.
         13    1    3    3    0    0 -0.12481997241E+03 -0.94272378438E+02 -0.46563474840E+03  0.49120568580E+03  0.00000000000E+00 0.  1.
          1    1    3    3  501    0  0.14393737165E+03  0.87825933002E+02 -0.46467264166E+03  0.49431976025E+03  0.00000000000E+00 0.  1.
         21    1    1    2  502  501 -0.19117399240E+02  0.64464454364E+01 -0.39665586655E+02  0.44501577243E+02  0.00000000000E+00 0.  1.
<mgrwt>
<rscale>  1 0.30000000E+03</rscale>
<asrwt>0</asrwt>
<pdfrwt beam="1">  1        1 0.10918941E+00 0.30000000E+03</pdfrwt>
<pdfrwt beam="2">0</pdfrwt>
<totfact> 0.30042787E+01</totfact>
</mgrwt>
</event>
<event>
 6    1  0.1901260E-004  0.3000000E+03  0.7818608E-02  0.1093470E+00
          1   -1    0    0  502    0  0.00000000000E+00  0.00000000000E+00  0.37614431167E+02  0.37614431167E+02  0.00000000000E+00 0.  1.
         13   -1    0    0    0    0 -0.00000000000E+00 -0.00000000000E+00 -0.10000000000E+04  0.10000000000E+04  0.00000000000E+00 0.  1.
    9000005    2    1    2  501    0 -0.90560689518E+01  0.89766328365E+01 -0.96783600557E+03  0.10237472187E+04  0.33345050868E+03 0.  0.
         13    1    3    3    0    0 -0.13387489053E+03  0.10987696201E+03 -0.50368773506E+03  0.53263192502E+03  0.00000000000E+00 0.  1.
          1    1    3    3  501    0  0.12481882157E+03 -0.10090032917E+03 -0.46414827050E+03  0.49111529365E+03  0.00000000000E+00 0.  1.
         21    1    1    2  502  501  0.90560689518E+01 -0.89766328365E+01  0.54504367331E+01  0.13867212500E+02  0.00000000000E+00 0.  1.
<mgrwt>
<rscale>  1 0.30000000E+03</rscale>
<asrwt>0</asrwt>
<pdfrwt beam="1">  1        1 0.13678004E+00 0.30000000E+03</pdfrwt>
<pdfrwt beam="2">0</pdfrwt>
<totfact> 0.21038746E+01</totfact>
</mgrwt>
</event>
<event>
 6    1  0.1901260E-004  0.3000000E+03  0.7818608E-02  0.1093470E+00
          1   -1    0    0  502    0  0.00000000000E+00  0.00000000000E+00  0.34914431137E+02  0.34914431137E+02  0.00000000000E+00 0.  1.
         13   -1    0    0    0    0 -0.00000000000E+00 -0.00000000000E+00 -0.10000000000E+04  0.10000000000E+04  0.00000000000E+00 0.  1.
    9000005    2    1    2  501    0  0.18029255747E+02 -0.21520442170E+02 -0.94621726940E+03  0.10010884615E+04  0.32567284725E+03 0.  0.
         13    1    3    3    0    0 -0.10830862916E+01 -0.17170317207E+03 -0.57792400248E+03  0.60289244896E+03  0.00000000000E+00 0.  1.
          1    1    3    3  501    0  0.19112342039E+02  0.15018272990E+03 -0.36829326692E+03  0.39819601258E+03  0.00000000000E+00 0.  1.
         21    1    1    2  502  501 -0.18029255747E+02  0.21520442170E+02 -0.18868299462E+02  0.33825969588E+02  0.00000000000E+00 0.  1.
<mgrwt>
<rscale>  1 0.30000000E+03</rscale>
<asrwt>0</asrwt>
<pdfrwt beam="1">  1        1 0.12696184E+00 0.30000000E+03</pdfrwt>
<pdfrwt beam="2">0</pdfrwt>
<totfact> 0.23773182E+01</totfact>
</mgrwt>
</event>
<event>
 6    1  0.1901260E-004  0.3000000E+03  0.7818608E-02  0.1093470E+00
          1   -1    0    0  502    0  0.00000000000E+00  0.00000000000E+00  0.40305742805E+02  0.40305742805E+02  0.00000000000E+00 0.  1.
         13   -1    0    0    0    0 -0.00000000000E+00 -0.00000000000E+00 -0.10000000000E+04  0.10000000000E+04  0.00000000000E+00 0.  1.
    9000005    2    1    2  501    0  0.14346815508E+02 -0.14497978036E+01 -0.97176127115E+03  0.10215029277E+04  0.31454781867E+03 0.  0.
         13    1    3    3    0    0 -0.28697148535E+02  0.12475994668E+03 -0.19425687603E+03  0.23264630776E+03  0.00000000000E+00 0.  1.
          3    1    3    3  501    0  0.43043964042E+02 -0.12620974448E+03 -0.77750439512E+03  0.78885661997E+03  0.00000000000E+00 0.  1.
         21    1    1    2  502  501 -0.14346815508E+02  0.14497978036E+01  0.12067013954E+02  0.18802815073E+02  0.00000000000E+00 0. -1.
<mgrwt>
<rscale>  1 0.30000000E+03</rscale>
<asrwt>0</asrwt>
<pdfrwt beam="1">  1        1 0.14656665E+00 0.30000000E+03</pdfrwt>
<pdfrwt beam="2">0</pdfrwt>
<totfact> 0.18705559E+01</totfact>
</mgrwt>
</event>
<event>
 6    1  0.1901260E-004  0.3000000E+03  0.7818608E-02  0.1093470E+00
          1   -1    0    0  502    0  0.00000000000E+00  0.00000000000E+00  0.38489369967E+02  0.38489369967E+02  0.00000000000E+00 0.  1.
         13   -1    0    0    0    0 -0.00000000000E+00 -0.00000000000E+00 -0.10000000000E+04  0.10000000000E+04  0.00000000000E+00 0.  1.
    9000005    2    1    2  501    0 -0.12691268978E+02 -0.40202403256E+01 -0.96677550477E+03  0.10241733109E+04  0.33778523287E+03 0.  0.
         13    1    3    3    0    0 -0.10467340642E+03 -0.87572379515E+02 -0.17114565744E+03  0.21889787511E+03  0.00000000000E+00 0.  1.
          3    1    3    3  501    0  0.91982137441E+02  0.83552139189E+02 -0.79562984733E+03  0.80527543582E+03  0.00000000000E+00 0.  1.
         21    1    1    2  502  501  0.12691268978E+02  0.40202403256E+01  0.52648747361E+01  0.14316059044E+02  0.00000000000E+00 0.  1.
<mgrwt>
<rscale>  1 0.30000000E+03</rscale>
<asrwt>0</asrwt>
<pdfrwt beam="1">  1        1 0.13996164E+00 0.30000000E+03</pdfrwt>
<pdfrwt beam="2">0</pdfrwt>
<totfact> 0.20241606E+01</totfact>
</mgrwt>
</event>
<event>
 6    1  0.1901260E-004  0.3000000E+03  0.7818608E-02  0.1093470E+00
          1   -1    0    0  502    0  0.00000000000E+00  0.00000000000E+00  0.74306650683E+02  0.74306650683E+02  0.00000000000E+00 0.  1.
         13   -1    0    0    0    0 -0.00000000000E+00 -0.00000000000E+00 -0.10000000000E+04  0.10000000000E+04  0.00000000000E+00 0.  1.
    9000005    2    1    2  501    0 -0.53623773595E+02 -0.77085635051E+02 -0.92112254305E+03  0.98029284055E+03  0.32200871060E+03 0.  0.
         13    1    3    3    0    0 -0.18218057763E+03 -0.32907878296E+02 -0.38488636149E+03  0.42709507440E+03  0.00000000000E+00 0.  1.
          1    1    3    3  501    0  0.12855680404E+03 -0.44177756755E+02 -0.53623618156E+03  0.55319776615E+03  0.00000000000E+00 0.  1.
         21    1    1    2  502  501  0.53623773595E+02  0.77085635051E+02 -0.45708062710E+01  0.94013810133E+02  0.00000000000E+00 0.  1.
<mgrwt>
<rscale>  1 0.30000000E+03</rscale>
<asrwt>0</asrwt>
<pdfrwt beam="1">  1        1 0.27020657E+00 0.30000000E+03</pdfrwt>
<pdfrwt beam="2">0</pdfrwt>
<totfact> 0.47974280E+00</totfact>
</mgrwt>
</event>
<event>
 6    1  0.1901260E-004  0.3000000E+03  0.7818608E-02  0.1093470E+00
          1   -1    0    0  502    0  0.00000000000E+00  0.00000000000E+00  0.33310163811E+02  0.33310163811E+02  0.00000000000E+00 0.  1.
         13   -1    0    0    0    0 -0.00000000000E+00 -0.00000000000E+00 -0.10000000000E+04  0.10000000000E+04  0.00000000000E+00 0.  1.
    9000005    2    1    2  501    0  0.10681673909E+02  0.14084870735E+02 -0.96208907068E+03  0.10150441083E+04  0.32308927576E+03 0.  0.
         13    1    3    3    0    0  0.14413244244E+03 -0.34747382628E+02 -0.71317069184E+03  0.72841881995E+03  0.00000000000E+00 0.  1.
          1    1    3    3  501    0 -0.13345076853E+03  0.48832253363E+02 -0.24891837884E+03  0.28662528834E+03  0.00000000000E+00 0.  1.
         21    1    1    2  502  501 -0.10681673909E+02 -0.14084870735E+02 -0.46007655130E+01  0.18266055525E+02  0.00000000000E+00 0. -1.
<mgrwt>
<rscale>  1 0.30000000E+03</rscale>
<asrwt>0</asrwt>
<pdfrwt beam="1">  1        1 0.12112812E+00 0.30000000E+03</pdfrwt>
<pdfrwt beam="2">0</pdfrwt>
<totfact> 0.25617924E+01</totfact>
</mgrwt>
</event>
<event>
 6    1  0.1901260E-004  0.3000000E+03  0.7818608E-02  0.1093470E+00
          1   -1    0    0  502    0  0.00000000000E+00  0.00000000000E+00  0.44967783770E+02  0.44967783770E+02  0.00000000000E+00 0.  1.
         13   -1    0    0    0    0 -0.00000000000E+00 -0.00000000000E+00 -0.10000000000E+04  0.10000000000E+04  0.00000000000E+00 0.  1.
    9000005    2    1    2  501    0 -0.19338453075E+02  0.22347915709E+02 -0.96002731446E+03  0.10149951945E+04  0.32816062400E+03 0.  0.
         13    1    3    3    0    0 -0.29655316214E+02  0.17361630943E+03 -0.46361982815E+03  0.49594899509E+03  0.00000000000E+00 0.  1.
          1    1    3    3  501    0  0.10316863139E+02 -0.15126839372E+03 -0.49640748631E+03  0.51904619936E+03  0.00000000000E+00 0.  1.
         21    1    1    2  502  501  0.19338453075E+02 -0.22347915709E+02  0.49950982330E+01  0.29972589315E+02  0.00000000000E+00 0. -1.
<mgrwt>
<rscale>  1 0.30000000E+03</rscale>
<asrwt>0</asrwt>
<pdfrwt beam="1">  1        1 0.16351956E+00 0.30000000E+03</pdfrwt>
<pdfrwt beam="2">0</pdfrwt>
<totfact> 0.15373542E+01</totfact>
</mgrwt>
</event>
<event>
 6    1  0.1901260E-004  0.3000000E+03  0.7818608E-02  0.1093470E+00
          1   -1    0    0  502    0  0.00000000000E+00  0.00000000000E+00  0.34048636341E+02  0.34048636341E+02  0.00000000000E+00 0.  1.
         13   -1    0    0    0    0 -0.00000000000E+00 -0.00000000000E+00 -0.10000000000E+04  0.10000000000E+04  0.00000000000E+00 0.  1.
    9000005    2    1    2  501    0  0.10756886064E+02 -0.73497206339E+00 -0.96853200537E+03  0.10229621358E+04  0.32906083809E+03 0.  0.
         13    1    3    3    0    0 -0.14330671217E+03 -0.39447725432E+02 -0.28750923808E+03  0.32365799662E+03  0.00000000000E+00 0.  1.
          3    1    3    3  501    0  0.15406359823E+03  0.38712753368E+02 -0.68102276729E+03  0.69930413922E+03  0.00000000000E+00 0.  1.
         21    1    1    2  502  501 -0.10756886064E+02  0.73497206339E+00  0.25806417066E+01  0.11086500500E+02  0.00000000000E+00 0.  1.
<mgrwt>
<rscale>  1 0.30000000E+03</rscale>
<asrwt>0</asrwt>
<pdfrwt beam="1">  1        1 0.12381348E+00 0.30000000E+03</pdfrwt>
<pdfrwt beam="2">0</pdfrwt>
<totfact> 0.24746662E+01</totfact>
</mgrwt>
</event>
<event>
 6    1  0.1901260E-004  0.3000000E+03  0.7818608E-02  0.1093470E+00
          1   -1    0    0  502    0  0.00000000000E+00  0.00000000000E+00  0.64208171278E+02  0.64208171278E+02  0.00000000000E+00 0.  1.
         13   -1    0    0    0    0 -0.00000000000E+00 -0.00000000000E+00 -0.10000000000E+04  0.10000000000E+04  0.00000000000E+00 0.  1.
    9000005    2    1    2  501    0  0.49793322656E+02  0.14866642914E+02 -0.95234059001E+03  0.10096714538E+04  0.33133586163E+03 0.  0.
         13    1    3    3    0    0 -0.14339216018E+02 -0.80204675200E+02 -0.41123675802E+02  0.91266421818E+02  0.00000000000E+00 0.  1.
          3    1    3    3  501    0  0.64132538675E+02  0.95071318115E+02 -0.91121691421E+03  0.91840503199E+03  0.00000000000E+00 0.  1.
         21    1    1    2  502  501 -0.49793322656E+02 -0.14866642914E+02  0.16548761286E+02  0.54536717473E+02  0.00000000000E+00 0.  1.
<mgrwt>
<rscale>  1 0.30000000E+03</rscale>
<asrwt>0</asrwt>
<pdfrwt beam="1">  1        1 0.23348475E+00 0.30000000E+03</pdfrwt>
<pdfrwt beam="2">0</pdfrwt>
<totfact> 0.71276656E+00</totfact>
</mgrwt>
</event>
<event>
 6    1  0.1901260E-004  0.3000000E+03  0.7818608E-02  0.1093470E+00
          1   -1    0    0  502    0  0.00000000000E+00  0.00000000000E+00  0.28725148589E+02  0.28725148589E+02  0.00000000000E+00 0.  1.
         13   -1    0    0    0    0 -0.00000000000E+00 -0.00000000000E+00 -0.10000000000E+04  0.10000000000E+04  0.00000000000E+00 0.  1.
    9000005    2    1    2  501    0  0.10013553632E+02  0.95341333706E+00 -0.95695545838E+03  0.10112258552E+04  0.32666925259E+03 0.  0.
         13    1    3    3    0    0 -0.36828137920E+02  0.15799812232E+03 -0.50935430952E+03  0.53456667594E+03  0.00000000000E+00 0.  1.
          1    1    3    3  501    0  0.46841691551E+02 -0.15704470898E+03 -0.44760114886E+03  0.47665917923E+03  0.00000000000E+00 0.  1.
         21    1    1    2  502  501 -0.10013553632E+02 -0.95341333706E+00 -0.14319393028E+02  0.17499293415E+02  0.00000000000E+00 0.  1.
<mgrwt>
<rscale>  1 0.30000000E+03</rscale>
<asrwt>0</asrwt>
<pdfrwt beam="1">  1        1 0.10445531E+00 0.30000000E+03</pdfrwt>
<pdfrwt beam="2">0</pdfrwt>
<totfact> 0.32099516E+01</totfact>
</mgrwt>
</event>
<event>
 6    1  0.1901260E-004  0.3000000E+03  0.7818608E-02  0.1093470E+00
          1   -1    0    0  502    0  0.00000000000E+00  0.00000000000E+00  0.39922225876E+02  0.39922225876E+02  0.00000000000E+00 0.  1.
         13   -1    0    0    0    0 -0.00000000000E+00 -0.00000000000E+00 -0.10000000000E+04  0.10000000000E+04  0.00000000000E+00 0.  1.
    9000005    2    1    2  501    0 -0.10505031951E+02 -0.32301646910E+02 -0.95069718513E+03  0.10046837875E+04  0.32312632663E+03 0.  0.
         13    1    3    3    0    0  0.79820027921E+02  0.11397002674E+03 -0.57382361293E+03  0.59045232035E+03  0.00000000000E+00 0.  1.
          1    1    3    3  501    0 -0.90325059872E+02 -0.14627167365E+03 -0.37687357220E+03  0.41423146715E+03  0.00000000000E+00 0.  1.
         21    1    1    2  502  501  0.10505031951E+02  0.32301646910E+02 -0.93805889962E+01  0.35238438378E+02  0.00000000000E+00 0. -1.
<mgrwt>
<rscale>  1 0.30000000E+03</rscale>
<asrwt>0</asrwt>
<pdfrwt beam="1">  1        1 0.14517204E+00 0.30000000E+03</pdfrwt>
<pdfrwt beam="2">0</pdfrwt>
<totfact> 0.19017289E+01</totfact>
</mgrwt>
</event>
<event>
 6    1  0.1901260E-004  0.3000000E+03  0.7818608E-02  0.1093470E+00
          1   -1    0    0  502    0  0.00000000000E+00  0.00000000000E+00  0.29240163871E+02  0.29240163871E+02  0.00000000000E+00 0.  1.
         13   -1    0    0    0    0 -0.00000000000E+00 -0.00000000000E+00 -0.10000000000E+04  0.10000000000E+04  0.00000000000E+00 0.  1.
    9000005    2    1    2  501    0 -0.16474901217E+01 -0.11797821352E+02 -0.94682825268E+03  0.10025077211E+04  0.32923561153E+03 0.  0.
         13    1    3    3    0    0  0.11468011777E+03 -0.83870877777E+02 -0.74650565515E+03  0.75990561698E+03  0.00000000000E+00 0.  1.
          1    1    3    3  501    0 -0.11632760790E+03  0.72073056424E+02 -0.20032259753E+03  0.24260210408E+03  0.00000000000E+00 0.  1.
         21    1    1    2  502  501  0.16474901217E+01  0.11797821352E+02 -0.23931583444E+02  0.26732442808E+02  0.00000000000E+00 0.  1.
<mgrwt>
<rscale>  1 0.30000000E+03</rscale>
<asrwt>0</asrwt>
<pdfrwt beam="1">  1        1 0.10632809E+00 0.30000000E+03</pdfrwt>
<pdfrwt beam="2">0</pdfrwt>
<totfact> 0.31262374E+01</totfact>
</mgrwt>
</event>
<event>
 6    1  0.1901260E-004  0.3000000E+03  0.7818608E-02  0.1093470E+00
          1   -1    0    0  502    0  0.00000000000E+00  0.00000000000E+00  0.40991749040E+02  0.40991749040E+02  0.00000000000E+00 0.  1.
         13   -1    0    0    0    0 -0.00000000000E+00 -0.00000000000E+00 -0.10000000000E+04  0.10000000000E+04  0.00000000000E+00 0.  1.
    9000005    2    1    2  501    0 -0.15896471876E+02  0.68764006861E-01 -0.96906236845E+03  0.10221825006E+04  0.32484225116E+03 0.  0.
         13    1    3    3    0    0 -0.10652725760E+03 -0.71208362338E+02 -0.16018676284E+03  0.20513041332E+03  0.00000000000E+00 0.  1.
          3    1    3    3  501    0  0.90630785724E+02  0.71277126345E+02 -0.80887560561E+03  0.81705208733E+03  0.00000000000E+00 0.  1.
         21    1    1    2  502  501  0.15896471876E+02 -0.68764006861E-01  0.10054117489E+02  0.18809248393E+02  0.00000000000E+00 0.  1.
<mgrwt>
<rscale>  1 0.30000000E+03</rscale>
<asrwt>0</asrwt>
<pdfrwt beam="1">  1        1 0.14906122E+00 0.30000000E+03</pdfrwt>
<pdfrwt beam="2">0</pdfrwt>
<totfact> 0.18163768E+01</totfact>
</mgrwt>
</event>
<event>
 6    1  0.1901260E-004  0.3000000E+03  0.7818608E-02  0.1093470E+00
          1   -1    0    0  502    0  0.00000000000E+00  0.00000000000E+00  0.34649744544E+02  0.34649744544E+02  0.00000000000E+00 0.  1.
         13   -1    0    0    0    0 -0.00000000000E+00 -0.00000000000E+00 -0.10000000000E+04  0.10000000000E+04  0.00000000000E+00 0.  1.
    9000005    2    1    2  501    0 -0.20764807970E+02 -0.15932862765E+02 -0.94994330055E+03  0.10042785802E+04  0.32480480133E+03 0.  0.
         13    1    3    3    0    0 -0.14625917466E+03 -0.90407147513E+02 -0.40184760306E+03  0.43708888636E+03  0.00000000000E+00 0.  1.
          1    1    3    3  501    0  0.12549436669E+03  0.74474284748E+02 -0.54809569749E+03  0.56718969381E+03  0.00000000000E+00 0.  1.
         21    1    1    2  502  501  0.20764807970E+02  0.15932862765E+02 -0.15406954905E+02  0.30371164372E+02  0.00000000000E+00 0.  1.
<mgrwt>
<rscale>  1 0.30000000E+03</rscale>
<asrwt>0</asrwt>
<pdfrwt beam="1">  1        1 0.12599934E+00 0.30000000E+03</pdfrwt>
<pdfrwt beam="2">0</pdfrwt>
<totfact> 0.24065537E+01</totfact>
</mgrwt>
</event>
<event>
 6    1  0.1901260E-004  0.3000000E+03  0.7818608E-02  0.1093470E+00
          1   -1    0    0  502    0  0.00000000000E+00  0.00000000000E+00  0.33119058106E+02  0.33119058106E+02  0.00000000000E+00 0.  1.
         13   -1    0    0    0    0 -0.00000000000E+00 -0.00000000000E+00 -0.10000000000E+04  0.10000000000E+04  0.00000000000E+00 0.  1.
    9000005    2    1    2  501    0  0.13396955118E+01 -0.17938728756E+02 -0.95485506127E+03  0.10114807916E+04  0.33319905601E+03 0.  0.
         13    1    3    3    0    0  0.64420244165E+02 -0.13120586814E+03 -0.21267014446E+03  0.25805723791E+03  0.00000000000E+00 0.  1.
          3    1    3    3  501    0 -0.63080548653E+02  0.11326713938E+03 -0.74218491682E+03  0.75342355368E+03  0.00000000000E+00 0.  1.
         21    1    1    2  502  501 -0.13396955118E+01  0.17938728756E+02 -0.12025880619E+02  0.21638266523E+02  0.00000000000E+00 0.  1.
<mgrwt>
<rscale>  1 0.30000000E+03</rscale>
<asrwt>0</asrwt>
<pdfrwt beam="1">  1        1 0.12043319E+00 0.30000000E+03</pdfrwt>
<pdfrwt beam="2">0</pdfrwt>
<totfact> 0.25849959E+01</totfact>
</mgrwt>
</event>
<event>
 6    1  0.1901260E-004  0.3000000E+03  0.7818608E-02  0.1093470E+00
          1   -1    0    0  502    0  0.00000000000E+00  0.00000000000E+00  0.44340767317E+02  0.44340767317E+02  0.00000000000E+00 0.  1.
         13   -1    0    0    0    0 -0.00000000000E+00 -0.00000000000E+00 -0.10000000000E+04  0.10000000000E+04  0.00000000000E+00 0.  1.
    9000005    2    1    2  501    0 -0.49874050249E+02 -0.25425849885E+02 -0.90982997379E+03  0.97199288759E+03  0.33741028079E+03 0.  0.
         13    1    3    3    0    0  0.68082887243E+02  0.53095450732E+02 -0.48387205135E+02  0.98973370381E+02  0.00000000000E+00 0.  1.
          3    1    3    3  501    0 -0.11795693749E+03 -0.78521300618E+02 -0.86144276866E+03  0.87301951721E+03  0.00000000000E+00 0.  1.
         21    1    1    2  502  501  0.49874050249E+02  0.25425849885E+02 -0.45829258889E+02  0.72347879726E+02  0.00000000000E+00 0.  1.
<mgrwt>
<rscale>  1 0.30000000E+03</rscale>
<asrwt>0</asrwt>
<pdfrwt beam="1">  1        1 0.16123949E+00 0.30000000E+03</pdfrwt>
<pdfrwt beam="2">0</pdfrwt>
<totfact> 0.15778009E+01</totfact>
</mgrwt>
</event>
<event>
 6    1  0.1901260E-004  0.3000000E+03  0.7818608E-02  0.1093470E+00
          1   -1    0    0  502    0  0.00000000000E+00  0.00000000000E+00  0.35712965085E+02  0.35712965085E+02  0.00000000000E+00 0.  1.
         13   -1    0    0    0    0 -0.00000000000E+00 -0.00000000000E+00 -0.10000000000E+04  0.10000000000E+04  0.00000000000E+00 0.  1.
    9000005    2    1    2  501    0  0.73598062625E+01  0.11841785346E+02 -0.96714838569E+03  0.10214798362E+04  0.32840624428E+03 0.  0.
         13    1    3    3    0    0 -0.15094154408E+03 -0.96553203245E+01 -0.63700925435E+03  0.65471930250E+03  0.00000000000E+00 0.  1.
          3    1    3    3  501    0  0.15830135034E+03  0.21497105671E+02 -0.33013913134E+03  0.36676053374E+03  0.00000000000E+00 0.  1.
         21    1    1    2  502  501 -0.73598062625E+01 -0.11841785346E+02  0.28613507717E+01  0.14233128843E+02  0.00000000000E+00 0.  1.
<mgrwt>
<rscale>  1 0.30000000E+03</rscale>
<asrwt>0</asrwt>
<pdfrwt beam="1">  1        1 0.12986560E+00 0.30000000E+03</pdfrwt>
<pdfrwt beam="2">0</pdfrwt>
<totfact> 0.22918374E+01</totfact>
</mgrwt>
</event>
<event>
 6    1  0.1901260E-004  0.3000000E+03  0.7818608E-02  0.1093470E+00
          1   -1    0    0  502    0  0.00000000000E+00  0.00000000000E+00  0.32118403194E+02  0.32118403194E+02  0.00000000000E+00 0.  1.
         13   -1    0    0    0    0 -0.00000000000E+00 -0.00000000000E+00 -0.10000000000E+04  0.10000000000E+04  0.00000000000E+00 0.  1.
    9000005    2    1    2  501    0  0.13522882040E+02 -0.20410519665E+02 -0.93668273418E+03  0.99245952423E+03  0.32711145664E+03 0.  0.
         13    1    3    3    0    0 -0.11515354602E+03 -0.11483827926E+03 -0.37975254605E+03  0.41311035544E+03  0.00000000000E+00 0.  1.
          1    1    3    3  501    0  0.12867642806E+03  0.94427759591E+02 -0.55693018813E+03  0.57934916879E+03  0.00000000000E+00 0.  1.
         21    1    1    2  502  501 -0.13522882040E+02  0.20410519665E+02 -0.31198862622E+02  0.39658878962E+02  0.00000000000E+00 0.  1.
<mgrwt>
<rscale>  1 0.30000000E+03</rscale>
<asrwt>0</asrwt>
<pdfrwt beam="1">  1        1 0.11679444E+00 0.30000000E+03</pdfrwt>
<pdfrwt beam="2">0</pdfrwt>
<totfact> 0.27112324E+01</totfact>
</mgrwt>
</event>
<event>
 6    1  0.1901260E-004  0.3000000E+03  0.7818608E-02  0.1093470E+00
          1   -1    0    0  502    0  0.00000000000E+00  0.00000000000E+00  0.30331536196E+02  0.30331536196E+02  0.00000000000E+00 0.  1.
         13   -1    0    0    0    0 -0.00000000000E+00 -0.00000000000E+00 -0.10000000000E+04  0.10000000000E+04  0.00000000000E+00 0.  1.
    9000005    2    1    2  501    0 -0.21510814206E+02 -0.36210808665E+01 -0.91977775921E+03  0.97588055127E+03  0.32538576591E+03 0.  0.
         13    1    3    3    0    0  0.11336036971E+03  0.84181942665E+02 -0.61743025690E+03  0.63336979327E+03  0.00000000000E+00 0.  1.
          1    1    3    3  501    0 -0.13487118392E+03 -0.87803023532E+02 -0.30234750230E+03  0.34251075799E+03  0.00000000000E+00 0.  1.
         21    1    1    2  502  501  0.21510814206E+02  0.36210808665E+01 -0.49890704597E+02  0.54450984928E+02  0.00000000000E+00 0.  1.
<mgrwt>
<rscale>  1 0.30000000E+03</rscale>
<asrwt>0</asrwt>
<pdfrwt beam="1">  1        1 0.11029673E+00 0.30000000E+03</pdfrwt>
<pdfrwt beam="2">0</pdfrwt>
<totfact> 0.29589002E+01</totfact>
</mgrwt>
</event>
<event>
 6    1  0.1901260E-004  0.3000000E+03  0.7818608E-02  0.1093470E+00
          1   -1    0    0  502    0  0.00000000000E+00  0.00000000000E+00  0.26547322615E+02  0.26547322615E+02  0.00000000000E+00 0.  1.
         13   -1    0    0    0    0 -0.00000000000E+00 -0.00000000000E+00 -0.10000000000E+04  0.10000000000E+04  0.00000000000E+00 0.  1.
    9000005    2    1    2  501    0 -0.12103701112E+02 -0.68709530022E+00 -0.93571970676E+03  0.98691464982E+03  0.31349989590E+03 0.  0.
         13    1    3    3    0    0  0.40364689174E+02  0.60906297913E+02 -0.32316250306E+02  0.79895089282E+02  0.00000000000E+00 0.  1.
          3    1    3    3  501    0 -0.52468390286E+02 -0.61593393213E+02 -0.90340345646E+03  0.90701956054E+03  0.00000000000E+00 0.  1.
         21    1    1    2  502  501  0.12103701112E+02  0.68709530022E+00 -0.37732970624E+02  0.39632672793E+02  0.00000000000E+00 0. -1.
<mgrwt>
<rscale>  1 0.30000000E+03</rscale>
<asrwt>0</asrwt>
<pdfrwt beam="1">  1        1 0.96535922E-01 0.30000000E+03</pdfrwt>
<pdfrwt beam="2">0</pdfrwt>
<totfact> 0.36027520E+01</totfact>
</mgrwt>
</event>
<event>
 6    1  0.1901260E-004  0.3000000E+03  0.7818608E-02  0.1093470E+00
          1   -1    0    0  502    0  0.00000000000E+00  0.00000000000E+00  0.31956275391E+02  0.31956275391E+02  0.00000000000E+00 0.  1.
         13   -1    0    0    0    0 -0.00000000000E+00 -0.00000000000E+00 -0.10000000000E+04  0.10000000000E+04  0.00000000000E+00 0.  1.
    9000005    2    1    2  501    0 -0.17602945922E+02 -0.34782282099E+01 -0.94529472853E+03  0.10029825183E+04  0.33476834748E+03 0.  0.
         13    1    3    3    0    0  0.26989921113E+00  0.16273239779E+03 -0.55569818779E+03  0.57903573469E+03  0.00000000000E+00 0.  1.
          3    1    3    3  501    0 -0.17872845133E+02 -0.16621062600E+03 -0.38959654074E+03  0.42394678362E+03  0.00000000000E+00 0.  1.
         21    1    1    2  502  501  0.17602945922E+02  0.34782282099E+01 -0.22748996080E+02  0.28973757079E+02  0.00000000000E+00 0.  1.
<mgrwt>
<rscale>  1 0.30000000E+03</rscale>
<asrwt>0</asrwt>
<pdfrwt beam="1">  1        1 0.11620488E+00 0.30000000E+03</pdfrwt>
<pdfrwt beam="2">0</pdfrwt>
<totfact> 0.27324746E+01</totfact>
</mgrwt>
</event>
<event>
 6    1  0.1901260E-004  0.3000000E+03  0.7818608E-02  0.1093470E+00
          1   -1    0    0  502    0  0.00000000000E+00  0.00000000000E+00  0.39608363363E+02  0.39608363363E+02  0.00000000000E+00 0.  1.
         13   -1    0    0    0    0 -0.00000000000E+00 -0.00000000000E+00 -0.10000000000E+04  0.10000000000E+04  0.00000000000E+00 0.  1.
    9000005    2    1    2  501    0 -0.34914409276E+01  0.35573692922E+02 -0.94533979766E+03  0.10008238865E+04  0.32665492648E+03 0.  0.
         13    1    3    3    0    0 -0.96443189796E+02 -0.46251393819E+02 -0.81135870749E+03  0.81837853864E+03  0.00000000000E+00 0.  1.
          1    1    3    3  501    0  0.92951748869E+02  0.81825086741E+02 -0.13398109017E+03  0.18244534787E+03  0.00000000000E+00 0.  1.
         21    1    1    2  502  501  0.34914409276E+01 -0.35573692922E+02 -0.15051838981E+02  0.38784476850E+02  0.00000000000E+00 0.  1.
<mgrwt>
<rscale>  1 0.30000000E+03</rscale>
<asrwt>0</asrwt>
<pdfrwt beam="1">  1        1 0.14403072E+00 0.30000000E+03</pdfrwt>
<pdfrwt beam="2">0</pdfrwt>
<totfact> 0.19277280E+01</totfact>
</mgrwt>
</event>
<event>
 6    1  0.1901260E-004  0.3000000E+03  0.7818608E-02  0.1093470E+00
          1   -1    0    0  502    0  0.00000000000E+00  0.00000000000E+00  0.43100455960E+02  0.43100455960E+02  0.00000000000E+00 0.  1.
         13   -1    0    0    0    0 -0.00000000000E+00 -0.00000000000E+00 -0.10000000000E+04  0.10000000000E+04  0.00000000000E+00 0.  1.
    9000005    2    1    2  501    0 -0.77226277729E+01 -0.22768410299E+02 -0.95170627901E+03  0.10185035153E+04  0.36197586897E+03 0.  0.
         13    1    3    3    0    0 -0.16310610160E+03 -0.86123462917E+02 -0.61868983383E+03  0.64559891707E+03  0.00000000000E+00 0.  1.
          1    1    3    3  501    0  0.15538347382E+03  0.63355052618E+02 -0.33301644519E+03  0.37290459825E+03  0.00000000000E+00 0.  1.
         21    1    1    2  502  501  0.77226277729E+01  0.22768410299E+02 -0.51932650258E+01  0.24596940641E+02  0.00000000000E+00 0.  1.
<mgrwt>
<rscale>  1 0.30000000E+03</rscale>
<asrwt>0</asrwt>
<pdfrwt beam="1">  1        1 0.15672926E+00 0.30000000E+03</pdfrwt>
<pdfrwt beam="2">0</pdfrwt>
<totfact> 0.16615131E+01</totfact>
</mgrwt>
</event>
<event>
 6    1  0.1901260E-004  0.3000000E+03  0.7818608E-02  0.1093470E+00
          1   -1    0    0  502    0  0.00000000000E+00  0.00000000000E+00  0.33298344272E+02  0.33298344272E+02  0.00000000000E+00 0.  1.
         13   -1    0    0    0    0 -0.00000000000E+00 -0.00000000000E+00 -0.10000000000E+04  0.10000000000E+04  0.00000000000E+00 0.  1.
    9000005    2    1    2  501    0  0.10562003184E+02 -0.52950265627E+01 -0.96652912936E+03  0.10214821273E+04  0.33031437348E+03 0.  0.
         13    1    3    3    0    0  0.79682686575E+02 -0.13347805550E+03 -0.70696744739E+03  0.72385681838E+03  0.00000000000E+00 0.  1.
          3    1    3    3  501    0 -0.69120683392E+02  0.12818302894E+03 -0.25956168197E+03  0.29762530895E+03  0.00000000000E+00 0.  1.
         21    1    1    2  502  501 -0.10562003184E+02  0.52950265627E+01 -0.17252636896E+00  0.11816216945E+02  0.00000000000E+00 0.  1.
<mgrwt>
<rscale>  1 0.30000000E+03</rscale>
<asrwt>0</asrwt>
<pdfrwt beam="1">  1        1 0.12108514E+00 0.30000000E+03</pdfrwt>
<pdfrwt beam="2">0</pdfrwt>
<totfact> 0.25632194E+01</totfact>
</mgrwt>
</event>
<event>
 6    1  0.1901260E-004  0.3000000E+03  0.7818608E-02  0.1093470E+00
          1   -1    0    0  502    0  0.00000000000E+00  0.00000000000E+00  0.32045454870E+02  0.32045454870E+02  0.00000000000E+00 0.  1.
         13   -1    0    0    0    0 -0.00000000000E+00 -0.00000000000E+00 -0.10000000000E+04  0.10000000000E+04  0.00000000000E+00 0.  1.
    9000005    2    1    2  501    0  0.14943756433E+02 -0.57235782831E+01 -0.96335104722E+03  0.10153941066E+04  0.32050565741E+03 0.  0.
         13    1    3    3    0    0 -0.14065143271E+03 -0.60532176467E+02 -0.39700709148E+03  0.42551333775E+03  0.00000000000E+00 0.  1.
          3    1    3    3  501    0  0.15559518915E+03  0.54808598184E+02 -0.56634395573E+03  0.58988076890E+03  0.00000000000E+00 0.  1.
         21    1    1    2  502  501 -0.14943756433E+02  0.57235782831E+01 -0.46034979122E+01  0.16651348225E+02  0.00000000000E+00 0.  1.
<mgrwt>
<rscale>  1 0.30000000E+03</rscale>
<asrwt>0</asrwt>
<pdfrwt beam="1">  1        1 0.11652917E+00 0.30000000E+03</pdfrwt>
<pdfrwt beam="2">0</pdfrwt>
<totfact> 0.27207618E+01</totfact>
</mgrwt>
</event>
<event>
 6    1  0.1901260E-004  0.3000000E+03  0.7818608E-02  0.1093470E+00
          1   -1    0    0  502    0  0.00000000000E+00  0.00000000000E+00  0.31631729157E+02  0.31631729157E+02  0.00000000000E+00 0.  1.
         13   -1    0    0    0    0 -0.00000000000E+00 -0.00000000000E+00 -0.10000000000E+04  0.10000000000E+04  0.00000000000E+00 0.  1.
    9000005    2    1    2  501    0 -0.42042597914E+01 -0.11661701180E+02 -0.96467488695E+03  0.10186968090E+04  0.32709613279E+03 0.  0.
         13    1    3    3    0    0 -0.11041127731E+03 -0.53058810903E+02 -0.13935261178E+03  0.18553985551E+03  0.00000000000E+00 0.  1.
          1    1    3    3  501    0  0.10620701752E+03  0.41397109723E+02 -0.82532227517E+03  0.83315695350E+03  0.00000000000E+00 0.  1.
         21    1    1    2  502  501  0.42042597914E+01  0.11661701180E+02 -0.36933838912E+01  0.12934920153E+02  0.00000000000E+00 0. -1.
<mgrwt>
<rscale>  1 0.30000000E+03</rscale>
<asrwt>0</asrwt>
<pdfrwt beam="1">  1        1 0.11502471E+00 0.30000000E+03</pdfrwt>
<pdfrwt beam="2">0</pdfrwt>
<totfact> 0.27756977E+01</totfact>
</mgrwt>
</event>
<event>
 6    1  0.1901260E-004  0.3000000E+03  0.7818608E-02  0.1093470E+00
          1   -1    0    0  502    0  0.00000000000E+00  0.00000000000E+00  0.45771270408E+02  0.45771270408E+02  0.00000000000E+00 0.  1.
         13   -1    0    0    0    0 -0.00000000000E+00 -0.00000000000E+00 -0.10000000000E+04  0.10000000000E+04  0.00000000000E+00 0.  1.
    9000005    2    1    2  501    0  0.14490118576E+01  0.14669720366E+02 -0.96468771434E+03  0.10276966835E+04  0.35400676077E+03 0.  0.
         13    1    3    3    0    0  0.84979915551E+02 -0.74041146405E+01 -0.32140952865E+02  0.91156172648E+02  0.00000000000E+00 0.  1.
          1    1    3    3  501    0 -0.83530903693E+02  0.22073835007E+02 -0.93254676148E+03  0.93654051082E+03  0.00000000000E+00 0.  1.
         21    1    1    2  502  501 -0.14490118576E+01 -0.14669720366E+02  0.10458984752E+02  0.18074586939E+02  0.00000000000E+00 0.  1.
<mgrwt>
<rscale>  1 0.30000000E+03</rscale>
<asrwt>0</asrwt>
<pdfrwt beam="1">  1        1 0.16644133E+00 0.30000000E+03</pdfrwt>
<pdfrwt beam="2">0</pdfrwt>
<totfact> 0.14872526E+01</totfact>
</mgrwt>
</event>
<event>
 6    1  0.1901260E-004  0.3000000E+03  0.7818608E-02  0.1093470E+00
          1   -1    0    0  502    0  0.00000000000E+00  0.00000000000E+00  0.27872903214E+02  0.27872903214E+02  0.00000000000E+00 0.  1.
         13   -1    0    0    0    0 -0.00000000000E+00 -0.00000000000E+00 -0.10000000000E+04  0.10000000000E+04  0.00000000000E+00 0.  1.
    9000005    2    1    2  501    0  0.11979654363E+02  0.64153012079E+01 -0.93850729053E+03  0.99161053179E+03  0.31986066370E+03 0.  0.
         13    1    3    3    0    0 -0.59167251878E+02  0.99278393285E+02 -0.80849847662E+03  0.81671705612E+03  0.00000000000E+00 0.  1.
          1    1    3    3  501    0  0.71146906241E+02 -0.92863092077E+02 -0.13000881391E+03  0.17489347567E+03  0.00000000000E+00 0.  1.
         21    1    1    2  502  501 -0.11979654363E+02 -0.64153012079E+01 -0.33619806260E+02  0.36262371423E+02  0.00000000000E+00 0. -1.
<mgrwt>
<rscale>  1 0.30000000E+03</rscale>
<asrwt>0</asrwt>
<pdfrwt beam="1">  1        1 0.10135623E+00 0.30000000E+03</pdfrwt>
<pdfrwt beam="2">0</pdfrwt>
<totfact> 0.33558020E+01</totfact>
</mgrwt>
</event>
<event>
 6    1  0.1901260E-004  0.3000000E+03  0.7818608E-02  0.1093470E+00
          1   -1    0    0  502    0  0.00000000000E+00  0.00000000000E+00  0.29550518162E+02  0.29550518162E+02  0.00000000000E+00 0.  1.
         13   -1    0    0    0    0 -0.00000000000E+00 -0.00000000000E+00 -0.10000000000E+04  0.10000000000E+04  0.00000000000E+00 0.  1.
    9000005    2    1    2  501    0  0.14707130359E+02  0.18345591993E+01 -0.94051944322E+03  0.99615182803E+03  0.32790543777E+03 0.  0.
         13    1    3    3    0    0 -0.10340494852E+03 -0.11217604098E+03 -0.58491146644E+03  0.60448115861E+03  0.00000000000E+00 0.  1.
          1    1    3    3  501    0  0.11811207888E+03  0.11401060018E+03 -0.35560797678E+03  0.39167066942E+03  0.00000000000E+00 0.  1.
         21    1    1    2  502  501 -0.14707130359E+02 -0.18345591993E+01 -0.29930038616E+02  0.33398690130E+02  0.00000000000E+00 0.  1.
<mgrwt>
<rscale>  1 0.30000000E+03</rscale>
<asrwt>0</asrwt>
<pdfrwt beam="1">  1        1 0.10745666E+00 0.30000000E+03</pdfrwt>
<pdfrwt beam="2">0</pdfrwt>
<totfact> 0.30773018E+01</totfact>
</mgrwt>
</event>
<event>
 6    1  0.1901260E-004  0.3000000E+03  0.7818608E-02  0.1093470E+00
          1   -1    0    0  502    0  0.00000000000E+00  0.00000000000E+00  0.33557685174E+02  0.33557685174E+02  0.00000000000E+00 0.  1.
         13   -1    0    0    0    0 -0.00000000000E+00 -0.00000000000E+00 -0.10000000000E+04  0.10000000000E+04  0.00000000000E+00 0.  1.
    9000005    2    1    2  501    0 -0.91077280615E+01  0.15253057283E+02 -0.98079728102E+03  0.10107175555E+04  0.24345649338E+03 0.  0.
         13    1    3    3    0    0  0.97744572430E+02  0.90743693548E+01 -0.20188252222E+03  0.22448362612E+03  0.00000000000E+00 0.  1.
          3    1    3    3  501    0 -0.10685230049E+03  0.61786879281E+01 -0.77891475880E+03  0.78623392943E+03  0.00000000000E+00 0.  1.
         21    1    1    2  502  501  0.91077280615E+01 -0.15253057283E+02  0.14354966193E+02  0.22840129626E+02  0.00000000000E+00 0.  1.
<mgrwt>
<rscale>  1 0.30000000E+03</rscale>
<asrwt>0</asrwt>
<pdfrwt beam="1">  1        1 0.12202820E+00 0.30000000E+03</pdfrwt>
<pdfrwt beam="2">0</pdfrwt>
<totfact> 0.25321475E+01</totfact>
</mgrwt>
</event>
<event>
 6    1  0.1901260E-004  0.3000000E+03  0.7818608E-02  0.1093470E+00
          1   -1    0    0  502    0  0.00000000000E+00  0.00000000000E+00  0.33663636457E+02  0.33663636457E+02  0.00000000000E+00 0.  1.
         13   -1    0    0    0    0 -0.00000000000E+00 -0.00000000000E+00 -0.10000000000E+04  0.10000000000E+04  0.00000000000E+00 0.  1.
    9000005    2    1    2  501    0  0.10682156587E+02  0.87743108113E+01 -0.96138374449E+03  0.10189794465E+04  0.33744527140E+03 0.  0.
         13    1    3    3    0    0  0.96847692047E+02 -0.42839006391E+02 -0.88872657498E+03  0.89501373230E+03  0.00000000000E+00 0.  1.
          3    1    3    3  501    0 -0.86165535459E+02  0.51613317203E+02 -0.72657169515E+02  0.12396571419E+03  0.00000000000E+00 0.  1.
         21    1    1    2  502  501 -0.10682156587E+02 -0.87743108113E+01 -0.49526190489E+01  0.14684189968E+02  0.00000000000E+00 0.  1.
<mgrwt>
<rscale>  1 0.30000000E+03</rscale>
<asrwt>0</asrwt>
<pdfrwt beam="1">  1        1 0.12241348E+00 0.30000000E+03</pdfrwt>
<pdfrwt beam="2">0</pdfrwt>
<totfact> 0.25195962E+01</totfact>
</mgrwt>
</event>
<event>
 6    1  0.1901260E-004  0.3000000E+03  0.7818608E-02  0.1093470E+00
          1   -1    0    0  502    0  0.00000000000E+00  0.00000000000E+00  0.44242630037E+02  0.44242630037E+02  0.00000000000E+00 0.  1.
         13   -1    0    0    0    0 -0.00000000000E+00 -0.00000000000E+00 -0.10000000000E+04  0.10000000000E+04  0.00000000000E+00 0.  1.
    9000005    2    1    2  501    0 -0.46560886936E+02  0.32490705787E+02 -0.95479494452E+03  0.98745805099E+03  0.24539041186E+03 0.  0.
         13    1    3    3    0    0  0.81560753143E+02 -0.44062545602E+02 -0.50814177087E+03  0.51652853133E+03  0.00000000000E+00 0.  1.
          1    1    3    3  501    0 -0.12812164008E+03  0.76553251388E+02 -0.44665317365E+03  0.47092951966E+03  0.00000000000E+00 0.  1.
         21    1    1    2  502  501  0.46560886936E+02 -0.32490705787E+02 -0.96242544616E+00  0.56784579047E+02  0.00000000000E+00 0.  1.
<mgrwt>
<rscale>  1 0.30000000E+03</rscale>
<asrwt>0</asrwt>
<pdfrwt beam="1">  1        1 0.16088263E+00 0.30000000E+03</pdfrwt>
<pdfrwt beam="2">0</pdfrwt>
<totfact> 0.15842421E+01</totfact>
</mgrwt>
</event>
<event>
 6    1  0.1901260E-004  0.3000000E+03  0.7818608E-02  0.1093470E+00
          3   -1    0    0  502    0  0.00000000000E+00  0.00000000000E+00  0.32588397921E+02  0.32588397921E+02  0.00000000000E+00 0.  1.
         13   -1    0    0    0    0 -0.00000000000E+00 -0.00000000000E+00 -0.10000000000E+04  0.10000000000E+04  0.00000000000E+00 0.  1.
    9000005    2    1    2  501    0 -0.12049672510E+02  0.35750103741E+01 -0.95077352971E+03  0.10117365213E+04  0.34566241973E+03 0.  0.
         13    1    3    3    0    0 -0.59387408649E+02  0.11316791200E+03 -0.12990893449E+03  0.18223658215E+03  0.00000000000E+00 0.  1.
          1    1    3    3  501    0  0.47337736140E+02 -0.10959290163E+03 -0.82086459522E+03  0.82949993915E+03  0.00000000000E+00 0.  1.
         21    1    1    2  502  501  0.12049672510E+02 -0.35750103741E+01 -0.16638072369E+02  0.20851876629E+02  0.00000000000E+00 0. -1.
<mgrwt>
<rscale>  1 0.30000000E+03</rscale>
<asrwt>0</asrwt>
<pdfrwt beam="1">  1        3 0.11850352E+00 0.30000000E+03</pdfrwt>
<pdfrwt beam="2">0</pdfrwt>
<totfact> 0.24071583E+00</totfact>
</mgrwt>
</event>
<event>
 6    1  0.1901260E-004  0.3000000E+03  0.7818608E-02  0.1093470E+00
          3   -1    0    0  502    0  0.00000000000E+00  0.00000000000E+00  0.31551112514E+02  0.31551112514E+02  0.00000000000E+00 0.  1.
         13   -1    0    0    0    0 -0.00000000000E+00 -0.00000000000E+00 -0.10000000000E+04  0.10000000000E+04  0.00000000000E+00 0.  1.
    9000005    2    1    2  501    0 -0.27152548301E+02 -0.61422831921E+01 -0.91698157491E+03  0.97303724419E+03  0.32430122007E+03 0.  0.
         13    1    3    3    0    0 -0.78499927284E+02 -0.15123318017E+03 -0.44007502416E+03  0.47191073336E+03  0.00000000000E+00 0.  1.
          3    1    3    3  501    0  0.51347378983E+02  0.14509089698E+03 -0.47690655075E+03  0.50112651084E+03  0.00000000000E+00 0.  1.
         21    1    1    2  502  501  0.27152548301E+02  0.61422831921E+01 -0.51467312575E+02  0.58513868320E+02  0.00000000000E+00 0. -1.
<mgrwt>
<rscale>  1 0.30000000E+03</rscale>
<asrwt>0</asrwt>
<pdfrwt beam="1">  1        3 0.11473156E+00 0.30000000E+03</pdfrwt>
<pdfrwt beam="2">0</pdfrwt>
<totfact> 0.26607235E+00</totfact>
</mgrwt>
</event>
<event>
 6    1  0.1901260E-004  0.3000000E+03  0.7818608E-02  0.1093470E+00
          1   -1    0    0  502    0  0.00000000000E+00  0.00000000000E+00  0.28672079417E+02  0.28672079417E+02  0.00000000000E+00 0.  1.
         13   -1    0    0    0    0 -0.00000000000E+00 -0.00000000000E+00 -0.10000000000E+04  0.10000000000E+04  0.00000000000E+00 0.  1.
    9000005    2    1    2  501    0 -0.14379529682E+02 -0.42594734444E+01 -0.90447197924E+03  0.96015470293E+03  0.32187354402E+03 0.  0.
         13    1    3    3    0    0  0.15162289850E+03 -0.64624101961E+01 -0.51189254196E+03  0.53391501253E+03  0.00000000000E+00 0.  1.
          3    1    3    3  501    0 -0.16600242818E+03  0.22029367518E+01 -0.39257943729E+03  0.42623969040E+03  0.00000000000E+00 0.  1.
         21    1    1    2  502  501  0.14379529682E+02  0.42594734444E+01 -0.66855941339E+02  0.68517376484E+02  0.00000000000E+00 0.  1.
<mgrwt>
<rscale>  1 0.30000000E+03</rscale>
<asrwt>0</asrwt>
<pdfrwt beam="1">  1        1 0.10426233E+00 0.30000000E+03</pdfrwt>
<pdfrwt beam="2">0</pdfrwt>
<totfact> 0.32187616E+01</totfact>
</mgrwt>
</event>
<event>
 6    1  0.1901260E-004  0.3000000E+03  0.7818608E-02  0.1093470E+00
          3   -1    0    0  502    0  0.00000000000E+00  0.00000000000E+00  0.33884688892E+02  0.33884688892E+02  0.00000000000E+00 0.  1.
         13   -1    0    0    0    0 -0.00000000000E+00 -0.00000000000E+00 -0.10000000000E+04  0.10000000000E+04  0.00000000000E+00 0.  1.
    9000005    2    1    2  501    0 -0.57430113602E+01 -0.14504616322E+02 -0.95618716231E+03  0.10153932257E+04  0.34130066988E+03 0.  0.
         13    1    3    3    0    0  0.88935138553E+02  0.46381344042E+02 -0.70546153299E+02  0.12262727140E+03  0.00000000000E+00 0.  1.
          1    1    3    3  501    0 -0.94678149913E+02 -0.60885960363E+02 -0.88564100901E+03  0.89276595426E+03  0.00000000000E+00 0.  1.
         21    1    1    2  502  501  0.57430113602E+01  0.14504616322E+02 -0.99281487961E+01  0.18491463237E+02  0.00000000000E+00 0.  1.
<mgrwt>
<rscale>  1 0.30000000E+03</rscale>
<asrwt>0</asrwt>
<pdfrwt beam="1">  1        3 0.12321731E+00 0.30000000E+03</pdfrwt>
<pdfrwt beam="2">0</pdfrwt>
<totfact> 0.21223505E+00</totfact>
</mgrwt>
</event>
<event>
 6    1  0.1901260E-004  0.3000000E+03  0.7818608E-02  0.1093470E+00
          1   -1    0    0  502    0  0.00000000000E+00  0.00000000000E+00  0.32066120238E+02  0.32066120238E+02  0.00000000000E+00 0.  1.
         13   -1    0    0    0    0 -0.00000000000E+00 -0.00000000000E+00 -0.10000000000E+04  0.10000000000E+04  0.00000000000E+00 0.  1.
    9000005    2    1    2  501    0 -0.12672483382E+02 -0.81378631833E+00 -0.95792695582E+03  0.10158984794E+04  0.33803019642E+03 0.  0.
         13    1    3    3    0    0  0.10947587566E+03  0.90737777886E+02 -0.21718493176E+03  0.25959122919E+03  0.00000000000E+00 0.  1.
          3    1    3    3  501    0 -0.12214835905E+03 -0.91551564205E+02 -0.74074202405E+03  0.75630725021E+03  0.00000000000E+00 0.  1.
         21    1    1    2  502  501  0.12672483382E+02  0.81378631833E+00 -0.10006923945E+02  0.16167640832E+02  0.00000000000E+00 0. -1.
<mgrwt>
<rscale>  1 0.30000000E+03</rscale>
<asrwt>0</asrwt>
<pdfrwt beam="1">  1        1 0.11660432E+00 0.30000000E+03</pdfrwt>
<pdfrwt beam="2">0</pdfrwt>
<totfact> 0.27180576E+01</totfact>
</mgrwt>
</event>
<event>
 6    1  0.1901260E-004  0.3000000E+03  0.7818608E-02  0.1093470E+00
          1   -1    0    0  502    0  0.00000000000E+00  0.00000000000E+00  0.48329598028E+02  0.48329598028E+02  0.00000000000E+00 0.  1.
         13   -1    0    0    0    0 -0.00000000000E+00 -0.00000000000E+00 -0.10000000000E+04  0.10000000000E+04  0.00000000000E+00 0.  1.
    9000005    2    1    2  501    0 -0.61620217877E+02  0.60339176343E+02 -0.64250789068E+03  0.72736336018E+03  0.32985330177E+03 0.  0.
         13    1    3    3    0    0  0.11224252485E+03 -0.59825984581E+02 -0.20074925973E+03  0.23765057984E+03  0.00000000000E+00 0.  1.
          1    1    3    3  501    0 -0.17386274272E+03  0.12016516092E+03 -0.44175863095E+03  0.48971278034E+03  0.00000000000E+00 0.  1.
         21    1    1    2  502  501  0.61620217877E+02 -0.60339176343E+02 -0.30916251129E+03  0.32096623785E+03  0.00000000000E+00 0.  1.
<mgrwt>
<rscale>  1 0.30000000E+03</rscale>
<asrwt>0</asrwt>
<pdfrwt beam="1">  1        1 0.17574436E+00 0.30000000E+03</pdfrwt>
<pdfrwt beam="2">0</pdfrwt>
<totfact> 0.13395833E+01</totfact>
</mgrwt>
</event>
<event>
 6    1  0.1901260E-004  0.3000000E+03  0.7818608E-02  0.1093470E+00
          1   -1    0    0  502    0  0.00000000000E+00  0.00000000000E+00  0.30364926625E+02  0.30364926625E+02  0.00000000000E+00 0.  1.
         13   -1    0    0    0    0 -0.00000000000E+00 -0.00000000000E+00 -0.10000000000E+04  0.10000000000E+04  0.00000000000E+00 0.  1.
    9000005    2    1    2  501    0  0.15296541774E+02  0.10531782253E+02 -0.91639087415E+03  0.97397479115E+03  0.32940819198E+03 0.  0.
         13    1    3    3    0    0 -0.50918400998E+02  0.86205934303E+02 -0.71278673862E+02  0.12290157044E+03  0.00000000000E+00 0.  1.
          3    1    3    3  501    0  0.66214942771E+02 -0.75674152050E+02 -0.84511220028E+03  0.85107322071E+03  0.00000000000E+00 0.  1.
         21    1    1    2  502  501 -0.15296541774E+02 -0.10531782253E+02 -0.53244199230E+02  0.56390135479E+02  0.00000000000E+00 0. -1.
<mgrwt>
<rscale>  1 0.30000000E+03</rscale>
<asrwt>0</asrwt>
<pdfrwt beam="1">  1        1 0.11041815E+00 0.30000000E+03</pdfrwt>
<pdfrwt beam="2">0</pdfrwt>
<totfact> 0.29539837E+01</totfact>
</mgrwt>
</event>
<event>
 6    1  0.1901260E-004  0.3000000E+03  0.7818608E-02  0.1093470E+00
          1   -1    0    0  502    0  0.00000000000E+00  0.00000000000E+00  0.40094362913E+02  0.40094362913E+02  0.00000000000E+00 0.  1.
         13   -1    0    0    0    0 -0.00000000000E+00 -0.00000000000E+00 -0.10000000000E+04  0.10000000000E+04  0.00000000000E+00 0.  1.
    9000005    2    1    2  501    0 -0.72665813741E+02  0.17459371593E+02 -0.81716459085E+03  0.87897280500E+03  0.31503979629E+03 0.  0.
         13    1    3    3    0    0 -0.11652494436E+03 -0.59867416235E+01 -0.83150031717E+02  0.14327536951E+03  0.00000000000E+00 0.  1.
          1    1    3    3  501    0  0.43859130623E+02  0.23446113216E+02 -0.73401455913E+03  0.73569743549E+03  0.00000000000E+00 0.  1.
         21    1    1    2  502  501  0.72665813741E+02 -0.17459371593E+02 -0.14274104624E+03  0.16112155791E+03  0.00000000000E+00 0.  1.
<mgrwt>
<rscale>  1 0.30000000E+03</rscale>
<asrwt>0</asrwt>
<pdfrwt beam="1">  1        1 0.14579799E+00 0.30000000E+03</pdfrwt>
<pdfrwt beam="2">0</pdfrwt>
<totfact> 0.18876571E+01</totfact>
</mgrwt>
</event>
<event>
 6    1  0.1901260E-004  0.3000000E+03  0.7818608E-02  0.1093470E+00
          1   -1    0    0  502    0  0.00000000000E+00  0.00000000000E+00  0.38485617388E+02  0.38485617388E+02  0.00000000000E+00 0.  1.
         13   -1    0    0    0    0 -0.00000000000E+00 -0.00000000000E+00 -0.10000000000E+04  0.10000000000E+04  0.00000000000E+00 0.  1.
    9000005    2    1    2  501    0  0.50263347481E+01  0.93191327568E+01 -0.94721251128E+03  0.10206908485E+04  0.38011334678E+03 0.  0.
         13    1    3    3    0    0  0.36103621095E+02 -0.16669192017E+03 -0.26256259926E+03  0.31309549060E+03  0.00000000000E+00 0.  1.
          1    1    3    3  501    0 -0.31077286347E+02  0.17601105293E+03 -0.68464991202E+03  0.70759535789E+03  0.00000000000E+00 0.  1.
         21    1    1    2  502  501 -0.50263347481E+01 -0.93191327568E+01 -0.14301871331E+02  0.17794768892E+02  0.00000000000E+00 0. -1.
<mgrwt>
<rscale>  1 0.30000000E+03</rscale>
<asrwt>0</asrwt>
<pdfrwt beam="1">  1        1 0.13994799E+00 0.30000000E+03</pdfrwt>
<pdfrwt beam="2">0</pdfrwt>
<totfact> 0.20244941E+01</totfact>
</mgrwt>
</event>
<event>
 6    1  0.1901260E-004  0.3000000E+03  0.7818608E-02  0.1093470E+00
          1   -1    0    0  502    0  0.00000000000E+00  0.00000000000E+00  0.32470931786E+02  0.32470931786E+02  0.00000000000E+00 0.  1.
         13   -1    0    0    0    0 -0.00000000000E+00 -0.00000000000E+00 -0.10000000000E+04  0.10000000000E+04  0.00000000000E+00 0.  1.
    9000005    2    1    2  501    0  0.87589818819E+01  0.84518138422E+01 -0.96807835241E+03  0.10202867357E+04  0.32196455355E+03 0.  0.
         13    1    3    3    0    0 -0.34714889846E+02 -0.12781008833E+03 -0.73488819581E+03  0.74672699335E+03  0.00000000000E+00 0.  1.
          3    1    3    3  501    0  0.43473871728E+02  0.13626190217E+03 -0.23319015660E+03  0.27355974236E+03  0.00000000000E+00 0.  1.
         21    1    1    2  502  501 -0.87589818819E+01 -0.84518138422E+01  0.54928419823E+00  0.12184196074E+02  0.00000000000E+00 0.  1.
<mgrwt>
<rscale>  1 0.30000000E+03</rscale>
<asrwt>0</asrwt>
<pdfrwt beam="1">  1        1 0.11807636E+00 0.30000000E+03</pdfrwt>
<pdfrwt beam="2">0</pdfrwt>
<totfact> 0.26658221E+01</totfact>
</mgrwt>
</event>
<event>
 6    1  0.1901260E-004  0.3000000E+03  0.7818608E-02  0.1093470E+00
          1   -1    0    0  502    0  0.00000000000E+00  0.00000000000E+00  0.31515435075E+02  0.31515435075E+02  0.00000000000E+00 0.  1.
         13   -1    0    0    0    0 -0.00000000000E+00 -0.00000000000E+00 -0.10000000000E+04  0.10000000000E+04  0.00000000000E+00 0.  1.
    9000005    2    1    2  501    0 -0.83992701207E+01 -0.94258855890E+01 -0.96836868792E+03  0.10188897278E+04  0.31660537982E+03 0.  0.
         13    1    3    3    0    0 -0.56787983280E+01  0.13561005791E+03 -0.23559625938E+03  0.27189691795E+03  0.00000000000E+00 0.  1.
          1    1    3    3  501    0 -0.27204717927E+01 -0.14503594350E+03 -0.73277242854E+03  0.74699280981E+03  0.00000000000E+00 0.  1.
         21    1    1    2  502  501  0.83992701207E+01  0.94258855890E+01 -0.11587700105E+00  0.12625707314E+02  0.00000000000E+00 0. -1.
<mgrwt>
<rscale>  1 0.30000000E+03</rscale>
<asrwt>0</asrwt>
<pdfrwt beam="1">  1        1 0.11460182E+00 0.30000000E+03</pdfrwt>
<pdfrwt beam="2">0</pdfrwt>
<totfact> 0.27914186E+01</totfact>
</mgrwt>
</event>
<event>
 6    1  0.1901260E-004  0.3000000E+03  0.7818608E-02  0.1093470E+00
          1   -1    0    0  502    0  0.00000000000E+00  0.00000000000E+00  0.26352275622E+02  0.26352275622E+02  0.00000000000E+00 0.  1.
         13   -1    0    0    0    0 -0.00000000000E+00 -0.00000000000E+00 -0.10000000000E+04  0.10000000000E+04  0.00000000000E+00 0.  1.
    9000005    2    1    2  501    0  0.75930652020E+01  0.67089248313E+01 -0.96675745132E+03  0.10140991056E+04  0.30606267673E+03 0.  0.
         13    1    3    3    0    0  0.80511725738E+02 -0.99168094712E+02 -0.75980490433E+03  0.77046735274E+03  0.00000000000E+00 0.  1.
          1    1    3    3  501    0 -0.72918660536E+02  0.10587701954E+03 -0.20695254699E+03  0.24363175291E+03  0.00000000000E+00 0.  1.
         21    1    1    2  502  501 -0.75930652020E+01 -0.67089248313E+01 -0.68902730612E+01  0.12253169974E+02  0.00000000000E+00 0. -1.
<mgrwt>
<rscale>  1 0.30000000E+03</rscale>
<asrwt>0</asrwt>
<pdfrwt beam="1">  1        1 0.95826659E-01 0.30000000E+03</pdfrwt>
<pdfrwt beam="2">0</pdfrwt>
<totfact> 0.36413459E+01</totfact>
</mgrwt>
</event>
<event>
 6    1  0.1901260E-004  0.3000000E+03  0.7818608E-02  0.1093470E+00
          1   -1    0    0  502    0  0.00000000000E+00  0.00000000000E+00  0.34249844312E+02  0.34249844312E+02  0.00000000000E+00 0.  1.
         13   -1    0    0    0    0 -0.00000000000E+00 -0.00000000000E+00 -0.10000000000E+04  0.10000000000E+04  0.00000000000E+00 0.  1.
    9000005    2    1    2  501    0 -0.35900264028E+02  0.16497079313E+02 -0.85310265955E+03  0.91487463344E+03  0.32810130235E+03 0.  0.
         13    1    3    3    0    0  0.94992090128E+02  0.19674451158E+02 -0.72581256390E+03  0.73226665848E+03  0.00000000000E+00 0.  1.
          3    1    3    3  501    0 -0.13089235416E+03 -0.31773718446E+01 -0.12729009565E+03  0.18260797496E+03  0.00000000000E+00 0.  1.
         21    1    1    2  502  501  0.35900264028E+02 -0.16497079313E+02 -0.11264749614E+03  0.11937521087E+03  0.00000000000E+00 0. -1.
<mgrwt>
<rscale>  1 0.30000000E+03</rscale>
<asrwt>0</asrwt>
<pdfrwt beam="1">  1        1 0.12454515E+00 0.30000000E+03</pdfrwt>
<pdfrwt beam="2">0</pdfrwt>
<totfact> 0.24515975E+01</totfact>
</mgrwt>
</event>
<event>
 6    1  0.1901260E-004  0.3000000E+03  0.7818608E-02  0.1093470E+00
          1   -1    0    0  502    0  0.00000000000E+00  0.00000000000E+00  0.41517498005E+02  0.41517498005E+02  0.00000000000E+00 0.  1.
         13   -1    0    0    0    0 -0.00000000000E+00 -0.00000000000E+00 -0.10000000000E+04  0.10000000000E+04  0.00000000000E+00 0.  1.
    9000005    2    1    2  501    0  0.35329258075E+02  0.35103158303E+02 -0.94283189756E+03  0.98931280839E+03  0.29551219532E+03 0.  0.
         13    1    3    3    0    0  0.55501058055E+02  0.14281614193E+03 -0.29643218138E+03  0.33368976010E+03  0.00000000000E+00 0.  1.
          3    1    3    3  501    0 -0.20171799980E+02 -0.10771298363E+03 -0.64639971618E+03  0.65562304828E+03  0.00000000000E+00 0.  1.
         21    1    1    2  502  501 -0.35329258075E+02 -0.35103158303E+02 -0.15650604434E+02  0.52204689618E+02  0.00000000000E+00 0.  1.
<mgrwt>
<rscale>  1 0.30000000E+03</rscale>
<asrwt>0</asrwt>
<pdfrwt beam="1">  1        1 0.15097304E+00 0.30000000E+03</pdfrwt>
<pdfrwt beam="2">0</pdfrwt>
<totfact> 0.17761720E+01</totfact>
</mgrwt>
</event>
<event>
 6    1  0.1901260E-004  0.3000000E+03  0.7818608E-02  0.1093470E+00
          1   -1    0    0  502    0  0.00000000000E+00  0.00000000000E+00  0.39441986672E+02  0.39441986672E+02  0.00000000000E+00 0.  1.
         13   -1    0    0    0    0 -0.00000000000E+00 -0.00000000000E+00 -0.10000000000E+04  0.10000000000E+04  0.00000000000E+00 0.  1.
    9000005    2    1    2  501    0 -0.84055612222E+01  0.22789711562E+02 -0.96330996435E+03  0.10149961763E+04  0.31884341924E+03 0.  0.
         13    1    3    3    0    0  0.14654115873E+03  0.25440450668E+02 -0.31392840246E+03  0.34737957568E+03  0.00000000000E+00 0.  1.
          1    1    3    3  501    0 -0.15494671995E+03 -0.26507391069E+01 -0.64938156189E+03  0.66761660057E+03  0.00000000000E+00 0.  1.
         21    1    1    2  502  501  0.84055612222E+01 -0.22789711562E+02  0.27519510177E+01  0.24445810417E+02  0.00000000000E+00 0.  1.
<mgrwt>
<rscale>  1 0.30000000E+03</rscale>
<asrwt>0</asrwt>
<pdfrwt beam="1">  1        1 0.14342571E+00 0.30000000E+03</pdfrwt>
<pdfrwt beam="2">0</pdfrwt>
<totfact> 0.19416919E+01</totfact>
</mgrwt>
</event>
<event>
 6    1  0.1901260E-004  0.3000000E+03  0.7818608E-02  0.1093470E+00
          1   -1    0    0  502    0  0.00000000000E+00  0.00000000000E+00  0.27050530351E+02  0.27050530351E+02  0.00000000000E+00 0.  1.
         13   -1    0    0    0    0 -0.00000000000E+00 -0.00000000000E+00 -0.10000000000E+04  0.10000000000E+04  0.00000000000E+00 0.  1.
    9000005    2    1    2  501    0 -0.82318451957E+01  0.74920165975E+00 -0.95495146309E+03  0.10072451569E+04  0.32022208639E+03 0.  0.
         13    1    3    3    0    0 -0.53822677527E+02 -0.69729988469E+02 -0.90559742165E+03  0.90987133267E+03  0.00000000000E+00 0.  1.
          1    1    3    3  501    0  0.45590832331E+02  0.70479190129E+02 -0.49354041434E+02  0.97373824202E+02  0.00000000000E+00 0.  1.
         21    1    1    2  502  501  0.82318451957E+01 -0.74920165975E+00 -0.17998006560E+02  0.19805373478E+02  0.00000000000E+00 0. -1.
<mgrwt>
<rscale>  1 0.30000000E+03</rscale>
<asrwt>0</asrwt>
<pdfrwt beam="1">  1        1 0.98365772E-01 0.30000000E+03</pdfrwt>
<pdfrwt beam="2">0</pdfrwt>
<totfact> 0.35059407E+01</totfact>
</mgrwt>
</event>
<event>
 6    1  0.1901260E-004  0.3000000E+03  0.7818608E-02  0.1093470E+00
          1   -1    0    0  502    0  0.00000000000E+00  0.00000000000E+00  0.40566407735E+02  0.40566407735E+02  0.00000000000E+00 0.  1.
         13   -1    0    0    0    0 -0.00000000000E+00 -0.00000000000E+00 -0.10000000000E+04  0.10000000000E+04  0.00000000000E+00 0.  1.
    9000005    2    1    2  501    0 -0.87956623233E+01  0.18789076130E+02 -0.96576625863E+03  0.10188754944E+04  0.32399446562E+03 0.  0.
         13    1    3    3    0    0  0.11052500783E+03 -0.51404884289E+02 -0.15915545107E+03  0.20047118768E+03  0.00000000000E+00 0.  1.
          1    1    3    3  501    0 -0.11932067016E+03  0.70193960419E+02 -0.80661080756E+03  0.81840430673E+03  0.00000000000E+00 0.  1.
         21    1    1    2  502  501  0.87956623233E+01 -0.18789076130E+02  0.63326663625E+01  0.21690913323E+02  0.00000000000E+00 0. -1.
<mgrwt>
<rscale>  1 0.30000000E+03</rscale>
<asrwt>0</asrwt>
<pdfrwt beam="1">  1        1 0.14751452E+00 0.30000000E+03</pdfrwt>
<pdfrwt beam="2">0</pdfrwt>
<totfact> 0.18497341E+01</totfact>
</mgrwt>
</event>
<event>
 6    1  0.1901260E-004  0.3000000E+03  0.7818608E-02  0.1093470E+00
          1   -1    0    0  502    0  0.00000000000E+00  0.00000000000E+00  0.29214882843E+02  0.29214882843E+02  0.00000000000E+00 0.  1.
         13   -1    0    0    0    0 -0.00000000000E+00 -0.00000000000E+00 -0.10000000000E+04  0.10000000000E+04  0.00000000000E+00 0.  1.
    9000005    2    1    2  501    0 -0.12762761321E+02 -0.68814497344E+01 -0.95425708930E+03  0.10072281111E+04  0.32201185208E+03 0.  0.
         13    1    3    3    0    0  0.30152887343E+02 -0.48583687681E+02 -0.64600549414E+01  0.57543927861E+02  0.00000000000E+00 0.  1.
          3    1    3    3  501    0 -0.42915648664E+02  0.41702237947E+02 -0.94779703436E+03  0.94968418324E+03  0.00000000000E+00 0.  1.
         21    1    1    2  502  501  0.12762761321E+02  0.68814497344E+01 -0.16528027855E+02  0.21986771745E+02  0.00000000000E+00 0.  1.
<mgrwt>
<rscale>  1 0.30000000E+03</rscale>
<asrwt>0</asrwt>
<pdfrwt beam="1">  1        1 0.10623616E+00 0.30000000E+03</pdfrwt>
<pdfrwt beam="2">0</pdfrwt>
<totfact> 0.31302727E+01</totfact>
</mgrwt>
</event>
<event>
 6    1  0.1901260E-004  0.3000000E+03  0.7818608E-02  0.1093470E+00
          1   -1    0    0  502    0  0.00000000000E+00  0.00000000000E+00  0.30598290382E+02  0.30598290382E+02  0.00000000000E+00 0.  1.
         13   -1    0    0    0    0 -0.00000000000E+00 -0.00000000000E+00 -0.10000000000E+04  0.10000000000E+04  0.00000000000E+00 0.  1.
    9000005    2    1    2  501    0  0.90496354431E+01  0.10149599945E+02 -0.96072565103E+03  0.10144680618E+04  0.32552536251E+03 0.  0.
         13    1    3    3    0    0 -0.42535495228E+02 -0.10162697987E+02 -0.95796127143E+03  0.95895899096E+03  0.00000000000E+00 0.  1.
          3    1    3    3  501    0  0.51585130671E+02  0.20312297932E+02 -0.27643795992E+01  0.55509070864E+02  0.00000000000E+00 0.  1.
         21    1    1    2  502  501 -0.90496354431E+01 -0.10149599945E+02 -0.86760585890E+01  0.16130228558E+02  0.00000000000E+00 0. -1.
<mgrwt>
<rscale>  1 0.30000000E+03</rscale>
<asrwt>0</asrwt>
<pdfrwt beam="1">  1        1 0.11126675E+00 0.30000000E+03</pdfrwt>
<pdfrwt beam="2">0</pdfrwt>
<totfact> 0.29199433E+01</totfact>
</mgrwt>
</event>
<event>
 6    1  0.1901260E-004  0.3000000E+03  0.7818608E-02  0.1093470E+00
          1   -1    0    0  502    0  0.00000000000E+00  0.00000000000E+00  0.29101168750E+02  0.29101168750E+02  0.00000000000E+00 0.  1.
         13   -1    0    0    0    0 -0.00000000000E+00 -0.00000000000E+00 -0.10000000000E+04  0.10000000000E+04  0.00000000000E+00 0.  1.
    9000005    2    1    2  501    0  0.14805113988E+01 -0.21904947441E+02 -0.93144999232E+03  0.98395441328E+03  0.31636241968E+03 0.  0.
         13    1    3    3    0    0 -0.42492781373E+02  0.96376535441E+01 -0.92874912086E+03  0.92977064394E+03  0.00000000000E+00 0.  1.
          3    1    3    3  501    0  0.43973292772E+02 -0.31542600985E+02 -0.27008714662E+01  0.54183769348E+02  0.00000000000E+00 0.  1.
         21    1    1    2  502  501 -0.14805113988E+01  0.21904947441E+02 -0.39448838928E+02  0.45146755467E+02  0.00000000000E+00 0.  1.
<mgrwt>
<rscale>  1 0.30000000E+03</rscale>
<asrwt>0</asrwt>
<pdfrwt beam="1">  1        1 0.10582265E+00 0.30000000E+03</pdfrwt>
<pdfrwt beam="2">0</pdfrwt>
<totfact> 0.31485171E+01</totfact>
</mgrwt>
</event>
<event>
 6    1  0.1901260E-004  0.3000000E+03  0.7818608E-02  0.1093470E+00
          1   -1    0    0  502    0  0.00000000000E+00  0.00000000000E+00  0.34678599937E+02  0.34678599937E+02  0.00000000000E+00 0.  1.
         13   -1    0    0    0    0 -0.00000000000E+00 -0.00000000000E+00 -0.10000000000E+04  0.10000000000E+04  0.00000000000E+00 0.  1.
    9000005    2    1    2  501    0 -0.42422063949E+02 -0.34199724413E+01 -0.82145284906E+03  0.88464697764E+03  0.32558280683E+03 0.  0.
         13    1    3    3    0    0  0.10469659148E+03 -0.64953309145E+02 -0.59534938826E+03  0.60796480386E+03  0.00000000000E+00 0.  1.
          1    1    3    3  501    0 -0.14711865543E+03  0.61533336704E+02 -0.22610346080E+03  0.27668217378E+03  0.00000000000E+00 0.  1.
         21    1    1    2  502  501  0.42422063949E+02  0.34199724413E+01 -0.14386855100E+03  0.15003162229E+03  0.00000000000E+00 0. -1.
<mgrwt>
<rscale>  1 0.30000000E+03</rscale>
<asrwt>0</asrwt>
<pdfrwt beam="1">  1        1 0.12610427E+00 0.30000000E+03</pdfrwt>
<pdfrwt beam="2">0</pdfrwt>
<totfact> 0.24033443E+01</totfact>
</mgrwt>
</event>
<event>
 6    1  0.1901260E-004  0.3000000E+03  0.7818608E-02  0.1093470E+00
          1   -1    0    0  502    0  0.00000000000E+00  0.00000000000E+00  0.29194642506E+02  0.29194642506E+02  0.00000000000E+00 0.  1.
         13   -1    0    0    0    0 -0.00000000000E+00 -0.00000000000E+00 -0.10000000000E+04  0.10000000000E+04  0.00000000000E+00 0.  1.
    9000005    2    1    2  501    0 -0.82439402924E+00  0.98777481955E+01 -0.96317380509E+03  0.10166850411E+04  0.32534050543E+03 0.  0.
         13    1    3    3    0    0  0.69539951143E+02 -0.14109171200E+03 -0.41713810917E+03  0.44581036117E+03  0.00000000000E+00 0.  1.
          3    1    3    3  501    0 -0.70364345172E+02  0.15096946020E+03 -0.54603569592E+03  0.57087467995E+03  0.00000000000E+00 0.  1.
         21    1    1    2  502  501  0.82439402924E+00 -0.98777481955E+01 -0.76315523998E+01  0.12509601391E+02  0.00000000000E+00 0.  1.
<mgrwt>
<rscale>  1 0.30000000E+03</rscale>
<asrwt>0</asrwt>
<pdfrwt beam="1">  1        1 0.10616256E+00 0.30000000E+03</pdfrwt>
<pdfrwt beam="2">0</pdfrwt>
<totfact> 0.31335090E+01</totfact>
</mgrwt>
</event>
<event>
 6    1  0.1901260E-004  0.3000000E+03  0.7818608E-02  0.1093470E+00
          1   -1    0    0  502    0  0.00000000000E+00  0.00000000000E+00  0.23368512412E+02  0.23368512412E+02  0.00000000000E+00 0.  1.
         13   -1    0    0    0    0 -0.00000000000E+00 -0.00000000000E+00 -0.10000000000E+04  0.10000000000E+04  0.00000000000E+00 0.  1.
    9000005    2    1    2  501    0 -0.55448397232E+01  0.83284055667E+01 -0.96690752214E+03  0.10094163409E+04  0.28967410178E+03 0.  0.
         13    1    3    3    0    0 -0.66676727258E+02  0.10127459047E+03 -0.79803236556E+03  0.80719141789E+03  0.00000000000E+00 0.  1.
          1    1    3    3  501    0  0.61131887535E+02 -0.92946184905E+02 -0.16887515658E+03  0.20222492297E+03  0.00000000000E+00 0.  1.
         21    1    1    2  502  501  0.55448397232E+01 -0.83284055667E+01 -0.97239654449E+01  0.13952171545E+02  0.00000000000E+00 0. -1.
<mgrwt>
<rscale>  1 0.30000000E+03</rscale>
<asrwt>0</asrwt>
<pdfrwt beam="1">  1        1 0.84976588E-01 0.30000000E+03</pdfrwt>
<pdfrwt beam="2">0</pdfrwt>
<totfact> 0.43185837E+01</totfact>
</mgrwt>
</event>
<event>
 6    1  0.1901260E-004  0.3000000E+03  0.7818608E-02  0.1093470E+00
          1   -1    0    0  502    0  0.00000000000E+00  0.00000000000E+00  0.19580353862E+02  0.19580353862E+02  0.00000000000E+00 0.  1.
         13   -1    0    0    0    0 -0.00000000000E+00 -0.00000000000E+00 -0.10000000000E+04  0.10000000000E+04  0.00000000000E+00 0.  1.
    9000005    2    1    2  501    0  0.13455679004E+02 -0.20631303057E+01 -0.98339146735E+03  0.10056468143E+04  0.20995576965E+03 0.  0.
         13    1    3    3    0    0  0.67573796866E+02 -0.86407690361E+02 -0.47952818907E+03  0.49191441439E+03  0.00000000000E+00 0.  1.
          3    1    3    3  501    0 -0.54118117861E+02  0.84344560056E+02 -0.50386327828E+03  0.51373239988E+03  0.00000000000E+00 0.  1.
         21    1    1    2  502  501 -0.13455679004E+02  0.20631303057E+01  0.29718212080E+01  0.13933539587E+02  0.00000000000E+00 0. -1.
<mgrwt>
<rscale>  1 0.30000000E+03</rscale>
<asrwt>0</asrwt>
<pdfrwt beam="1">  1        1 0.71201437E-01 0.30000000E+03</pdfrwt>
<pdfrwt beam="2">0</pdfrwt>
<totfact> 0.55095818E+01</totfact>
</mgrwt>
</event>
<event>
 6    1  0.1901260E-004  0.3000000E+03  0.7818608E-02  0.1093470E+00
          1   -1    0    0  502    0  0.00000000000E+00  0.00000000000E+00  0.35428058652E+02  0.35428058652E+02  0.00000000000E+00 0.  1.
         13   -1    0    0    0    0 -0.00000000000E+00 -0.00000000000E+00 -0.10000000000E+04  0.10000000000E+04  0.00000000000E+00 0.  1.
    9000005    2    1    2  501    0  0.93346344418E+01 -0.12844977807E+02 -0.95995404581E+03  0.10188916197E+04  0.34113961029E+03 0.  0.
         13    1    3    3    0    0  0.42682581157E+02  0.68588183422E+02 -0.91774782573E+03  0.92129648500E+03  0.00000000000E+00 0.  1.
          1    1    3    3  501    0 -0.33347946715E+02 -0.81433161229E+02 -0.42206220085E+02  0.97595134673E+02  0.00000000000E+00 0.  1.
         21    1    1    2  502  501 -0.93346344418E+01  0.12844977807E+02 -0.46178955334E+01  0.16536438981E+02  0.00000000000E+00 0.  1.
<mgrwt>
<rscale>  1 0.30000000E+03</rscale>
<asrwt>0</asrwt>
<pdfrwt beam="1">  1        1 0.12882958E+00 0.30000000E+03</pdfrwt>
<pdfrwt beam="2">0</pdfrwt>
<totfact> 0.23218736E+01</totfact>
</mgrwt>
</event>
<event>
 6    1  0.1901260E-004  0.3000000E+03  0.7818608E-02  0.1093470E+00
          1   -1    0    0  502    0  0.00000000000E+00  0.00000000000E+00  0.41918841788E+02  0.41918841788E+02  0.00000000000E+00 0.  1.
         13   -1    0    0    0    0 -0.00000000000E+00 -0.00000000000E+00 -0.10000000000E+04  0.10000000000E+04  0.00000000000E+00 0.  1.
    9000005    2    1    2  501    0  0.34154820990E+01 -0.21126493665E+02 -0.95477183146E+03  0.10202636831E+04  0.35901356344E+03 0.  0.
         13    1    3    3    0    0  0.65508762678E+02 -0.17470914576E+03 -0.40178845874E+03  0.44299960404E+03  0.00000000000E+00 0.  1.
          3    1    3    3  501    0 -0.62093280579E+02  0.15358265210E+03 -0.55298337272E+03  0.57726407910E+03  0.00000000000E+00 0.  1.
         21    1    1    2  502  501 -0.34154820990E+01  0.21126493665E+02 -0.33093267542E+01  0.21655158649E+02  0.00000000000E+00 0.  1.
<mgrwt>
<rscale>  1 0.30000000E+03</rscale>
<asrwt>0</asrwt>
<pdfrwt beam="1">  1        1 0.15243247E+00 0.30000000E+03</pdfrwt>
<pdfrwt beam="2">0</pdfrwt>
<totfact> 0.17462163E+01</totfact>
</mgrwt>
</event>
<event>
 6    1  0.1901260E-004  0.3000000E+03  0.7818608E-02  0.1093470E+00
          1   -1    0    0  502    0  0.00000000000E+00  0.00000000000E+00  0.33675147014E+02  0.33675147014E+02  0.00000000000E+00 0.  1.
         13   -1    0    0    0    0 -0.00000000000E+00 -0.00000000000E+00 -0.10000000000E+04  0.10000000000E+04  0.00000000000E+00 0.  1.
    9000005    2    1    2  501    0  0.42007763451E+02  0.44430979847E+01 -0.79354618042E+03  0.85580760359E+03  0.31765818200E+03 0.  0.
         13    1    3    3    0    0  0.15094566719E+03  0.20776420201E+01 -0.68706951898E+03  0.70345819702E+03  0.00000000000E+00 0.  1.
          1    1    3    3  501    0 -0.10893790373E+03  0.23654559646E+01 -0.10647666144E+03  0.15234940657E+03  0.00000000000E+00 0.  1.
         21    1    1    2  502  501 -0.42007763451E+02 -0.44430979847E+01 -0.17277867256E+03  0.17786754342E+03  0.00000000000E+00 0.  1.
<mgrwt>
<rscale>  1 0.30000000E+03</rscale>
<asrwt>0</asrwt>
<pdfrwt beam="1">  1        1 0.12245534E+00 0.30000000E+03</pdfrwt>
<pdfrwt beam="2">0</pdfrwt>
<totfact> 0.25182375E+01</totfact>
</mgrwt>
</event>
<event>
 6    1  0.1901260E-004  0.3000000E+03  0.7818608E-02  0.1093470E+00
          1   -1    0    0  502    0  0.00000000000E+00  0.00000000000E+00  0.30788871523E+02  0.30788871523E+02  0.00000000000E+00 0.  1.
         13   -1    0    0    0    0 -0.00000000000E+00 -0.00000000000E+00 -0.10000000000E+04  0.10000000000E+04  0.00000000000E+00 0.  1.
    9000005    2    1    2  501    0  0.20438740170E+01 -0.12940282139E+02 -0.96331505827E+03  0.10164225231E+04  0.32398644366E+03 0.  0.
         13    1    3    3    0    0 -0.28360238727E+02 -0.15896250391E+03 -0.64485313984E+03  0.66476232802E+03  0.00000000000E+00 0.  1.
          3    1    3    3  501    0  0.30404112744E+02  0.14602222177E+03 -0.31846191843E+03  0.35166019509E+03  0.00000000000E+00 0.  1.
         21    1    1    2  502  501 -0.20438740170E+01  0.12940282139E+02 -0.58960702066E+01  0.14366348412E+02  0.00000000000E+00 0.  1.
<mgrwt>
<rscale>  1 0.30000000E+03</rscale>
<asrwt>0</asrwt>
<pdfrwt beam="1">  1        1 0.11195977E+00 0.30000000E+03</pdfrwt>
<pdfrwt beam="2">0</pdfrwt>
<totfact> 0.28925533E+01</totfact>
</mgrwt>
</event>
<event>
 6    1  0.1901260E-004  0.3000000E+03  0.7818608E-02  0.1093470E+00
          1   -1    0    0  502    0  0.00000000000E+00  0.00000000000E+00  0.37007930996E+02  0.37007930996E+02  0.00000000000E+00 0.  1.
         13   -1    0    0    0    0 -0.00000000000E+00 -0.00000000000E+00 -0.10000000000E+04  0.10000000000E+04  0.00000000000E+00 0.  1.
    9000005    2    1    2  501    0  0.13648796788E+02  0.14224172445E+01 -0.97014936555E+03  0.10215308570E+04  0.31960473633E+03 0.  0.
         13    1    3    3    0    0  0.13360305028E+03  0.98687249054E+01 -0.19183982466E+03  0.23398650624E+03  0.00000000000E+00 0.  1.
          1    1    3    3  501    0 -0.11995425349E+03 -0.84463076609E+01 -0.77830954088E+03  0.78754435080E+03  0.00000000000E+00 0.  1.
         21    1    1    2  502  501 -0.13648796788E+02 -0.14224172445E+01  0.71572965417E+01  0.15477073960E+02  0.00000000000E+00 0. -1.
<mgrwt>
<rscale>  1 0.30000000E+03</rscale>
<asrwt>0</asrwt>
<pdfrwt beam="1">  1        1 0.13457458E+00 0.30000000E+03</pdfrwt>
<pdfrwt beam="2">0</pdfrwt>
<totfact> 0.21615362E+01</totfact>
</mgrwt>
</event>
<event>
 6    1  0.1901260E-004  0.3000000E+03  0.7818608E-02  0.1093470E+00
          1   -1    0    0  502    0  0.00000000000E+00  0.00000000000E+00  0.31999414794E+02  0.31999414794E+02  0.00000000000E+00 0.  1.
         13   -1    0    0    0    0 -0.00000000000E+00 -0.00000000000E+00 -0.10000000000E+04  0.10000000000E+04  0.00000000000E+00 0.  1.
    9000005    2    1    2  501    0 -0.15189288518E+02 -0.31120890270E+02 -0.90589559394E+03  0.96089207173E+03  0.31853967117E+03 0.  0.
         13    1    3    3    0    0 -0.79921199597E+02 -0.10182542917E+03 -0.14660081969E+03  0.19556997854E+03  0.00000000000E+00 0.  1.
          1    1    3    3  501    0  0.64731911078E+02  0.70704538903E+02 -0.75929477425E+03  0.76532209320E+03  0.00000000000E+00 0.  1.
         21    1    1    2  502  501  0.15189288518E+02  0.31120890270E+02 -0.62104991266E+02  0.71107343060E+02  0.00000000000E+00 0. -1.
<mgrwt>
<rscale>  1 0.30000000E+03</rscale>
<asrwt>0</asrwt>
<pdfrwt beam="1">  1        1 0.11636175E+00 0.30000000E+03</pdfrwt>
<pdfrwt beam="2">0</pdfrwt>
<totfact> 0.27268000E+01</totfact>
</mgrwt>
</event>
<event>
 6    1  0.1901260E-004  0.3000000E+03  0.7818608E-02  0.1093470E+00
          1   -1    0    0  502    0  0.00000000000E+00  0.00000000000E+00  0.68445619913E+02  0.68445619913E+02  0.00000000000E+00 0.  1.
         13   -1    0    0    0    0 -0.00000000000E+00 -0.00000000000E+00 -0.10000000000E+04  0.10000000000E+04  0.00000000000E+00 0.  1.
    9000005    2    1    2  501    0  0.28407660373E+02 -0.17958219146E+01 -0.93676216261E+03  0.10395087724E+04  0.44971648678E+03 0.  0.
         13    1    3    3    0    0  0.11111034814E+03  0.58373699318E+02 -0.92845198604E+03  0.93689705338E+03  0.00000000000E+00 0.  1.
          3    1    3    3  501    0 -0.82702687770E+02 -0.60169521232E+02 -0.83101765683E+01  0.10261171904E+03  0.00000000000E+00 0.  1.
         21    1    1    2  502  501 -0.28407660373E+02  0.17958219146E+01  0.52077825256E+01  0.28936847497E+02  0.00000000000E+00 0.  1.
<mgrwt>
<rscale>  1 0.30000000E+03</rscale>
<asrwt>0</asrwt>
<pdfrwt beam="1">  1        1 0.24889369E+00 0.30000000E+03</pdfrwt>
<pdfrwt beam="2">0</pdfrwt>
<totfact> 0.60372748E+00</totfact>
</mgrwt>
</event>
<event>
 6    1  0.1901260E-004  0.3000000E+03  0.7818608E-02  0.1093470E+00
          1   -1    0    0  502    0  0.00000000000E+00  0.00000000000E+00  0.50123001729E+02  0.50123001729E+02  0.00000000000E+00 0.  1.
         13   -1    0    0    0    0 -0.00000000000E+00 -0.00000000000E+00 -0.10000000000E+04  0.10000000000E+04  0.00000000000E+00 0.  1.
    9000005    2    1    2  501    0 -0.78244870019E+02 -0.25705066274E+01 -0.89968662714E+03  0.95712869791E+03  0.31706537200E+03 0.  0.
         13    1    3    3    0    0 -0.12171372987E+03  0.87736637139E+02 -0.19855285492E+03  0.24886780774E+03  0.00000000000E+00 0.  1.
          1    1    3    3  501    0  0.43468859847E+02 -0.90307143767E+02 -0.70113377222E+03  0.70826089016E+03  0.00000000000E+00 0.  1.
         21    1    1    2  502  501  0.78244870019E+02  0.25705066274E+01 -0.50190371133E+02  0.92994303821E+02  0.00000000000E+00 0. -1.
<mgrwt>
<rscale>  1 0.30000000E+03</rscale>
<asrwt>0</asrwt>
<pdfrwt beam="1">  1        1 0.18226585E+00 0.30000000E+03</pdfrwt>
<pdfrwt beam="2">0</pdfrwt>
<totfact> 0.12456495E+01</totfact>
</mgrwt>
</event>
<event>
 6    1  0.1901260E-004  0.3000000E+03  0.7818608E-02  0.1093470E+00
          1   -1    0    0  502    0  0.00000000000E+00  0.00000000000E+00  0.33943704921E+02  0.33943704921E+02  0.00000000000E+00 0.  1.
         13   -1    0    0    0    0 -0.00000000000E+00 -0.00000000000E+00 -0.10000000000E+04  0.10000000000E+04  0.00000000000E+00 0.  1.
    9000005    2    1    2  501    0  0.15246369088E+01 -0.14771111380E+02 -0.96444031374E+03  0.10190064480E+04  0.32864648487E+03 0.  0.
         13    1    3    3    0    0  0.41763185781E+02 -0.15289256580E+03 -0.30133598389E+03  0.34047566073E+03  0.00000000000E+00 0.  1.
          1    1    3    3  501    0 -0.40238548872E+02  0.13812145442E+03 -0.66310432985E+03  0.67853078725E+03  0.00000000000E+00 0.  1.
         21    1    1    2  502  501 -0.15246369088E+01  0.14771111380E+02 -0.16159813402E+01  0.14937256937E+02  0.00000000000E+00 0. -1.
<mgrwt>
<rscale>  1 0.30000000E+03</rscale>
<asrwt>0</asrwt>
<pdfrwt beam="1">  1        1 0.12343191E+00 0.30000000E+03</pdfrwt>
<pdfrwt beam="2">0</pdfrwt>
<totfact> 0.24868078E+01</totfact>
</mgrwt>
</event>
<event>
 6    1  0.1901260E-004  0.3000000E+03  0.7818608E-02  0.1093470E+00
          1   -1    0    0  502    0  0.00000000000E+00  0.00000000000E+00  0.58759023466E+02  0.58759023466E+02  0.00000000000E+00 0.  1.
         13   -1    0    0    0    0 -0.00000000000E+00 -0.00000000000E+00 -0.10000000000E+04  0.10000000000E+04  0.00000000000E+00 0.  1.
    9000005    2    1    2  501    0 -0.75284850823E+01  0.71913087863E+01 -0.96838209066E+03  0.10296895707E+04  0.34984045710E+03 0.  0.
         13    1    3    3    0    0  0.46973883069E+02 -0.12166461687E+02  0.10046475466E+02  0.49553003439E+02  0.00000000000E+00 0.  1.
          3    1    3    3  501    0 -0.54502368151E+02  0.19357770473E+02 -0.97842856613E+03  0.98013656723E+03  0.00000000000E+00 0.  1.
         21    1    1    2  502  501  0.75284850823E+01 -0.71913087863E+01  0.27141114128E+02  0.29069452795E+02  0.00000000000E+00 0. -1.
<mgrwt>
<rscale>  1 0.30000000E+03</rscale>
<asrwt>0</asrwt>
<pdfrwt beam="1">  1        1 0.21366963E+00 0.30000000E+03</pdfrwt>
<pdfrwt beam="2">0</pdfrwt>
<totfact> 0.88271348E+00</totfact>
</mgrwt>
</event>
<event>
 6    1  0.1901260E-004  0.3000000E+03  0.7818608E-02  0.1093470E+00
          1   -1    0    0  502    0  0.00000000000E+00  0.00000000000E+00  0.57161958600E+02  0.57161958600E+02  0.00000000000E+00 0.  1.
         13   -1    0    0    0    0 -0.00000000000E+00 -0.00000000000E+00 -0.10000000000E+04  0.10000000000E+04  0.00000000000E+00 0.  1.
    9000005    2    1    2  501    0  0.15194248337E+02 -0.22117845688E+01 -0.97149319088E+03  0.10246523482E+04  0.32538847194E+03 0.  0.
         13    1    3    3    0    0 -0.14840623666E+03  0.31265056775E+02 -0.35715341514E+03  0.38802123240E+03  0.00000000000E+00 0.  1.
          1    1    3    3  501    0  0.16360048499E+03 -0.33476841344E+02 -0.61433977575E+03  0.63663111584E+03  0.00000000000E+00 0.  1.
         21    1    1    2  502  501 -0.15194248337E+02  0.22117845688E+01  0.28655149480E+02  0.32509610352E+02  0.00000000000E+00 0.  1.
<mgrwt>
<rscale>  1 0.30000000E+03</rscale>
<asrwt>0</asrwt>
<pdfrwt beam="1">  1        1 0.20786211E+00 0.30000000E+03</pdfrwt>
<pdfrwt beam="2">0</pdfrwt>
<totfact> 0.94011153E+00</totfact>
</mgrwt>
</event>
<event>
 6    1  0.1901260E-004  0.3000000E+03  0.7818608E-02  0.1093470E+00
          1   -1    0    0  502    0  0.00000000000E+00  0.00000000000E+00  0.44552298803E+02  0.44552298803E+02  0.00000000000E+00 0.  1.
         13   -1    0    0    0    0 -0.00000000000E+00 -0.00000000000E+00 -0.10000000000E+04  0.10000000000E+04  0.00000000000E+00 0.  1.
    9000005    2    1    2  501    0  0.16537278853E+02  0.16957690193E+02 -0.96419195164E+03  0.10193034025E+04  0.32977607843E+03 0.  0.
         13    1    3    3    0    0 -0.26178706929E+02  0.72757091970E+02 -0.94263173273E+03  0.94579781279E+03  0.00000000000E+00 0.  1.
          1    1    3    3  501    0  0.42715985782E+02 -0.55799401777E+02 -0.21560218907E+02  0.73505589714E+02  0.00000000000E+00 0.  1.
         21    1    1    2  502  501 -0.16537278853E+02 -0.16957690193E+02  0.87442504402E+01  0.25248896299E+02  0.00000000000E+00 0.  1.
<mgrwt>
<rscale>  1 0.30000000E+03</rscale>
<asrwt>0</asrwt>
<pdfrwt beam="1">  1        1 0.16200870E+00 0.30000000E+03</pdfrwt>
<pdfrwt beam="2">0</pdfrwt>
<totfact> 0.15640200E+01</totfact>
</mgrwt>
</event>
<event>
 6    1  0.1901260E-004  0.3000000E+03  0.7818608E-02  0.1093470E+00
          1   -1    0    0  502    0  0.00000000000E+00  0.00000000000E+00  0.36552149343E+02  0.36552149343E+02  0.00000000000E+00 0.  1.
         13   -1    0    0    0    0 -0.00000000000E+00 -0.00000000000E+00 -0.10000000000E+04  0.10000000000E+04  0.00000000000E+00 0.  1.
    9000005    2    1    2  501    0 -0.13847762665E+02 -0.38324674924E+01 -0.96783348916E+03  0.10215294278E+04  0.32651839268E+03 0.  0.
         13    1    3    3    0    0 -0.12609934390E+03  0.96882380853E+02 -0.65798834799E+03  0.67693124196E+03  0.00000000000E+00 0.  1.
          3    1    3    3  501    0  0.11225158124E+03 -0.10071484835E+03 -0.30984514117E+03  0.34459818583E+03  0.00000000000E+00 0.  1.
         21    1    1    2  502  501  0.13847762665E+02  0.38324674924E+01  0.43856385015E+01  0.15022721557E+02  0.00000000000E+00 0.  1.
<mgrwt>
<rscale>  1 0.30000000E+03</rscale>
<asrwt>0</asrwt>
<pdfrwt beam="1">  1        1 0.13291719E+00 0.30000000E+03</pdfrwt>
<pdfrwt beam="2">0</pdfrwt>
<totfact> 0.22062587E+01</totfact>
</mgrwt>
</event>
<event>
 6    1  0.1901260E-004  0.3000000E+03  0.7818608E-02  0.1093470E+00
          1   -1    0    0  502    0  0.00000000000E+00  0.00000000000E+00  0.34901265507E+02  0.34901265507E+02  0.00000000000E+00 0.  1.
         13   -1    0    0    0    0 -0.00000000000E+00 -0.00000000000E+00 -0.10000000000E+04  0.10000000000E+04  0.00000000000E+00 0.  1.
    9000005    2    1    2  501    0 -0.10123021849E+02  0.36216266416E+02 -0.92317814221E+03  0.97858581841E+03  0.32242553902E+03 0.  0.
         13    1    3    3    0    0  0.18338686510E+02  0.15225539818E+03 -0.76573733742E+03  0.78094281713E+03  0.00000000000E+00 0.  1.
          1    1    3    3  501    0 -0.28461708359E+02 -0.11603913177E+03 -0.15744080479E+03  0.19764300128E+03  0.00000000000E+00 0.  1.
         21    1    1    2  502  501  0.10123021849E+02 -0.36216266416E+02 -0.41920592282E+02  0.56315447097E+02  0.00000000000E+00 0.  1.
<mgrwt>
<rscale>  1 0.30000000E+03</rscale>
<asrwt>0</asrwt>
<pdfrwt beam="1">  1        1 0.12691396E+00 0.30000000E+03</pdfrwt>
<pdfrwt beam="2">0</pdfrwt>
<totfact> 0.23787617E+01</totfact>
</mgrwt>
</event>
<event>
 6    1  0.1901260E-004  0.3000000E+03  0.7818608E-02  0.1093470E+00
          1   -1    0    0  502    0  0.00000000000E+00  0.00000000000E+00  0.42529485691E+02  0.42529485691E+02  0.00000000000E+00 0.  1.
         13   -1    0    0    0    0 -0.00000000000E+00 -0.00000000000E+00 -0.10000000000E+04  0.10000000000E+04  0.00000000000E+00 0.  1.
    9000005    2    1    2  501    0  0.85104029984E+01 -0.72054480035E+01 -0.97033593344E+03  0.10255040797E+04  0.33163601778E+03 0.  0.
         13    1    3    3    0    0  0.13293534415E+03  0.59823486897E+02 -0.23374245552E+03  0.27547448307E+03  0.00000000000E+00 0.  1.
          1    1    3    3  501    0 -0.12442494115E+03 -0.67028934901E+02 -0.73659347792E+03  0.75002959662E+03  0.00000000000E+00 0.  1.
         21    1    1    2  502  501 -0.85104029984E+01  0.72054480035E+01  0.12865419132E+02  0.17025406003E+02  0.00000000000E+00 0. -1.
<mgrwt>
<rscale>  1 0.30000000E+03</rscale>
<asrwt>0</asrwt>
<pdfrwt beam="1">  1        1 0.15465300E+00 0.30000000E+03</pdfrwt>
<pdfrwt beam="2">0</pdfrwt>
<totfact> 0.17018098E+01</totfact>
</mgrwt>
</event>
<event>
 6    1  0.1901260E-004  0.3000000E+03  0.7818608E-02  0.1093470E+00
          1   -1    0    0  502    0  0.00000000000E+00  0.00000000000E+00  0.33059580023E+02  0.33059580023E+02  0.00000000000E+00 0.  1.
         13   -1    0    0    0    0 -0.00000000000E+00 -0.00000000000E+00 -0.10000000000E+04  0.10000000000E+04  0.00000000000E+00 0.  1.
    9000005    2    1    2  501    0 -0.97292155536E+01  0.15601552006E+02 -0.96321493538E+03  0.10142993749E+04  0.31730449753E+03 0.  0.
         13    1    3    3    0    0  0.16086559411E+02 -0.60184477126E+02 -0.16825481284E+02  0.64529415781E+02  0.00000000000E+00 0.  1.
          3    1    3    3  501    0 -0.25815774965E+02  0.75786029132E+02 -0.94638945409E+03  0.94976995913E+03  0.00000000000E+00 0.  1.
         21    1    1    2  502  501  0.97292155536E+01 -0.15601552006E+02 -0.37254845995E+01  0.18760205110E+02  0.00000000000E+00 0.  1.
<mgrwt>
<rscale>  1 0.30000000E+03</rscale>
<asrwt>0</asrwt>
<pdfrwt beam="1">  1        1 0.12021691E+00 0.30000000E+03</pdfrwt>
<pdfrwt beam="2">0</pdfrwt>
<totfact> 0.25922747E+01</totfact>
</mgrwt>
</event>
<event>
 6    1  0.1901260E-004  0.3000000E+03  0.7818608E-02  0.1093470E+00
          1   -1    0    0  502    0  0.00000000000E+00  0.00000000000E+00  0.30747020339E+02  0.30747020339E+02  0.00000000000E+00 0.  1.
         13   -1    0    0    0    0 -0.00000000000E+00 -0.00000000000E+00 -0.10000000000E+04  0.10000000000E+04  0.00000000000E+00 0.  1.
    9000005    2    1    2  501    0 -0.20538726464E+02  0.30697932280E+01 -0.95273007987E+03  0.10042089508E+04  0.31671714343E+03 0.  0.
         13    1    3    3    0    0  0.14214694873E+03  0.36631764838E+02 -0.53182205454E+03  0.55170856339E+03  0.00000000000E+00 0.  1.
          1    1    3    3  501    0 -0.16268567519E+03 -0.33561971610E+02 -0.42090802533E+03  0.45250038744E+03  0.00000000000E+00 0.  1.
         21    1    1    2  502  501  0.20538726464E+02 -0.30697932280E+01 -0.16522899792E+02  0.26538069499E+02  0.00000000000E+00 0. -1.
<mgrwt>
<rscale>  1 0.30000000E+03</rscale>
<asrwt>0</asrwt>
<pdfrwt beam="1">  1        1 0.11180758E+00 0.30000000E+03</pdfrwt>
<pdfrwt beam="2">0</pdfrwt>
<totfact> 0.28985369E+01</totfact>
</mgrwt>
</event>
<event>
 6    1  0.1901260E-004  0.3000000E+03  0.7818608E-02  0.1093470E+00
          3   -1    0    0  502    0  0.00000000000E+00  0.00000000000E+00  0.35058331715E+02  0.35058331715E+02  0.00000000000E+00 0.  1.
         13   -1    0    0    0    0 -0.00000000000E+00 -0.00000000000E+00 -0.10000000000E+04  0.10000000000E+04  0.00000000000E+00 0.  1.
    9000005    2    1    2  501    0  0.26183275765E+02  0.26423548552E+02 -0.91917339781E+03  0.97607950136E+03  0.32629387044E+03 0.  0.
         13    1    3    3    0    0  0.62430203302E+01  0.17229561113E+03 -0.38217993612E+03  0.41926871633E+03  0.00000000000E+00 0.  1.
          3    1    3    3  501    0  0.19940255435E+02 -0.14587206258E+03 -0.53699346169E+03  0.55681078503E+03  0.00000000000E+00 0.  1.
         21    1    1    2  502  501 -0.26183275765E+02 -0.26423548552E+02 -0.45768270475E+02  0.58978830356E+02  0.00000000000E+00 0. -1.
<mgrwt>
<rscale>  1 0.30000000E+03</rscale>
<asrwt>0</asrwt>
<pdfrwt beam="1">  1        3 0.12748511E+00 0.30000000E+03</pdfrwt>
<pdfrwt beam="2">0</pdfrwt>
<totfact> 0.18931707E+00</totfact>
</mgrwt>
</event>
<event>
 6    1  0.1901260E-004  0.3000000E+03  0.7818608E-02  0.1093470E+00
          1   -1    0    0  502    0  0.00000000000E+00  0.00000000000E+00  0.52838656702E+02  0.52838656702E+02  0.00000000000E+00 0.  1.
         13   -1    0    0    0    0 -0.00000000000E+00 -0.00000000000E+00 -0.10000000000E+04  0.10000000000E+04  0.00000000000E+00 0.  1.
    9000005    2    1    2  501    0  0.20275912011E+02 -0.85935447061E+01 -0.96948900196E+03  0.10214780770E+04  0.32097285745E+03 0.  0.
         13    1    3    3    0    0  0.13080292079E+03  0.23327449230E+02 -0.18040920096E+03  0.22405591660E+03  0.00000000000E+00 0.  1.
          1    1    3    3  501    0 -0.11052700878E+03 -0.31920993936E+02 -0.78907980100E+03  0.79742216038E+03  0.00000000000E+00 0.  1.
         21    1    1    2  502  501 -0.20275912011E+02  0.85935447061E+01  0.22327658664E+02  0.31360579713E+02  0.00000000000E+00 0.  1.
<mgrwt>
<rscale>  1 0.30000000E+03</rscale>
<asrwt>0</asrwt>
<pdfrwt beam="1">  1        1 0.19214097E+00 0.30000000E+03</pdfrwt>
<pdfrwt beam="2">0</pdfrwt>
<totfact> 0.11166873E+01</totfact>
</mgrwt>
</event>
<event>
 6    1  0.1901260E-004  0.3000000E+03  0.7818608E-02  0.1093470E+00
          1   -1    0    0  502    0  0.00000000000E+00  0.00000000000E+00  0.37176228351E+02  0.37176228351E+02  0.00000000000E+00 0.  1.
         13   -1    0    0    0    0 -0.00000000000E+00 -0.00000000000E+00 -0.10000000000E+04  0.10000000000E+04  0.00000000000E+00 0.  1.
    9000005    2    1    2  501    0 -0.42402587873E+02  0.33033202342E+02 -0.83302316154E+03  0.89668647676E+03  0.32745973499E+03 0.  0.
         13    1    3    3    0    0 -0.56886375130E+02 -0.36874013612E+02 -0.82159333033E+03  0.82438543959E+03  0.00000000000E+00 0.  1.
          1    1    3    3  501    0  0.14483787258E+02  0.69907215954E+02 -0.11429831204E+02  0.72301037178E+02  0.00000000000E+00 0.  1.
         21    1    1    2  502  501  0.42402587873E+02 -0.33033202342E+02 -0.12980061011E+03  0.14048975159E+03  0.00000000000E+00 0. -1.
<mgrwt>
<rscale>  1 0.30000000E+03</rscale>
<asrwt>0</asrwt>
<pdfrwt beam="1">  1        1 0.13518657E+00 0.30000000E+03</pdfrwt>
<pdfrwt beam="2">0</pdfrwt>
<totfact> 0.21453266E+01</totfact>
</mgrwt>
</event>
<event>
 6    1  0.1901260E-004  0.3000000E+03  0.7818608E-02  0.1093470E+00
          1   -1    0    0  502    0  0.00000000000E+00  0.00000000000E+00  0.32224484781E+02  0.32224484781E+02  0.00000000000E+00 0.  1.
         13   -1    0    0    0    0 -0.00000000000E+00 -0.00000000000E+00 -0.10000000000E+04  0.10000000000E+04  0.00000000000E+00 0.  1.
    9000005    2    1    2  501    0 -0.13318961740E+01  0.10197307929E+02 -0.96768012077E+03  0.10219401211E+04  0.32840681466E+03 0.  0.
         13    1    3    3    0    0 -0.77665095421E+02 -0.74259890793E+02 -0.85513001169E+03  0.86185482265E+03  0.00000000000E+00 0.  1.
          3    1    3    3  501    0  0.76333199247E+02  0.84457198721E+02 -0.11255010909E+03  0.16008529844E+03  0.00000000000E+00 0.  1.
         21    1    1    2  502  501  0.13318961740E+01 -0.10197307929E+02 -0.95394445697E-01  0.10284363690E+02  0.00000000000E+00 0. -1.
<mgrwt>
<rscale>  1 0.30000000E+03</rscale>
<asrwt>0</asrwt>
<pdfrwt beam="1">  1        1 0.11718019E+00 0.30000000E+03</pdfrwt>
<pdfrwt beam="2">0</pdfrwt>
<totfact> 0.26974567E+01</totfact>
</mgrwt>
</event>
<event>
 6    1  0.1901260E-004  0.3000000E+03  0.7818608E-02  0.1093470E+00
          1   -1    0    0  502    0  0.00000000000E+00  0.00000000000E+00  0.35293774722E+02  0.35293774722E+02  0.00000000000E+00 0.  1.
         13   -1    0    0    0    0 -0.00000000000E+00 -0.00000000000E+00 -0.10000000000E+04  0.10000000000E+04  0.00000000000E+00 0.  1.
    9000005    2    1    2  501    0  0.35448249793E+02  0.20482660993E+01 -0.94121687432E+03  0.99272003380E+03  0.31359701402E+03 0.  0.
         13    1    3    3    0    0  0.12858379948E+03 -0.91936129936E+02 -0.31217863438E+03  0.34991648324E+03  0.00000000000E+00 0.  1.
          1    1    3    3  501    0 -0.93135549690E+02  0.93984396035E+02 -0.62903823994E+03  0.64280355057E+03  0.00000000000E+00 0.  1.
         21    1    1    2  502  501 -0.35448249793E+02 -0.20482660993E+01 -0.23489350960E+02  0.42573740920E+02  0.00000000000E+00 0.  1.
<mgrwt>
<rscale>  1 0.30000000E+03</rscale>
<asrwt>0</asrwt>
<pdfrwt beam="1">  1        1 0.12834127E+00 0.30000000E+03</pdfrwt>
<pdfrwt beam="2">0</pdfrwt>
<totfact> 0.23362070E+01</totfact>
</mgrwt>
</event>
<event>
 6    1  0.1901260E-004  0.3000000E+03  0.7818608E-02  0.1093470E+00
          1   -1    0    0  502    0  0.00000000000E+00  0.00000000000E+00  0.39479833949E+02  0.39479833949E+02  0.00000000000E+00 0.  1.
         13   -1    0    0    0    0 -0.00000000000E+00 -0.00000000000E+00 -0.10000000000E+04  0.10000000000E+04  0.00000000000E+00 0.  1.
    9000005    2    1    2  501    0  0.16492181068E+02  0.70354879658E+01 -0.97326076111E+03  0.10174840869E+04  0.29616864755E+03 0.  0.
         13    1    3    3    0    0  0.46897738593E+02  0.14729702158E+02 -0.57800881172E+01  0.49495165718E+02  0.00000000000E+00 0.  1.
          1    1    3    3  501    0 -0.30405557525E+02 -0.76942141918E+01 -0.96748067299E+03  0.96798892115E+03  0.00000000000E+00 0.  1.
         21    1    1    2  502  501 -0.16492181068E+02 -0.70354879658E+01  0.12740595056E+02  0.21995747082E+02  0.00000000000E+00 0.  1.
<mgrwt>
<rscale>  1 0.30000000E+03</rscale>
<asrwt>0</asrwt>
<pdfrwt beam="1">  1        1 0.14356334E+00 0.30000000E+03</pdfrwt>
<pdfrwt beam="2">0</pdfrwt>
<totfact> 0.19385042E+01</totfact>
</mgrwt>
</event>
<event>
 6    1  0.1901260E-004  0.3000000E+03  0.7818608E-02  0.1093470E+00
          1   -1    0    0  502    0  0.00000000000E+00  0.00000000000E+00  0.35528582938E+02  0.35528582938E+02  0.00000000000E+00 0.  1.
         13   -1    0    0    0    0 -0.00000000000E+00 -0.00000000000E+00 -0.10000000000E+04  0.10000000000E+04  0.00000000000E+00 0.  1.
    9000005    2    1    2  501    0  0.95278310886E+01 -0.94243586175E+01 -0.96468905048E+03  0.10221253943E+04  0.33754371497E+03 0.  0.
         13    1    3    3    0    0 -0.12155445117E+03  0.75933742179E+02 -0.23024914571E+03  0.27121225433E+03  0.00000000000E+00 0.  1.
          1    1    3    3  501    0  0.13108228226E+03 -0.85358100797E+02 -0.73443990477E+03  0.75091314000E+03  0.00000000000E+00 0.  1.
         21    1    1    2  502  501 -0.95278310886E+01  0.94243586175E+01  0.21763341701E+00  0.13403188610E+02  0.00000000000E+00 0. -1.
<mgrwt>
<rscale>  1 0.30000000E+03</rscale>
<asrwt>0</asrwt>
<pdfrwt beam="1">  1        1 0.12919512E+00 0.30000000E+03</pdfrwt>
<pdfrwt beam="2">0</pdfrwt>
<totfact> 0.23112179E+01</totfact>
</mgrwt>
</event>
<event>
 6    1  0.1901260E-004  0.3000000E+03  0.7818608E-02  0.1093470E+00
          1   -1    0    0  502    0  0.00000000000E+00  0.00000000000E+00  0.41436922779E+02  0.41436922779E+02  0.00000000000E+00 0.  1.
         13   -1    0    0    0    0 -0.00000000000E+00 -0.00000000000E+00 -0.10000000000E+04  0.10000000000E+04  0.00000000000E+00 0.  1.
    9000005    2    1    2  501    0 -0.13589024620E+00  0.10725650372E+02 -0.97085668345E+03  0.10251215682E+04  0.32893232084E+03 0.  0.
         13    1    3    3    0    0 -0.15251554863E+03  0.62625396408E+02 -0.56306944602E+03  0.58671128666E+03  0.00000000000E+00 0.  1.
          3    1    3    3  501    0  0.15237965838E+03 -0.51899746036E+02 -0.40778723742E+03  0.43841028151E+03  0.00000000000E+00 0.  1.
         21    1    1    2  502  501  0.13589024620E+00 -0.10725650372E+02  0.12293606224E+02  0.16315354610E+02  0.00000000000E+00 0.  1.
<mgrwt>
<rscale>  1 0.30000000E+03</rscale>
<asrwt>0</asrwt>
<pdfrwt beam="1">  1        1 0.15068004E+00 0.30000000E+03</pdfrwt>
<pdfrwt beam="2">0</pdfrwt>
<totfact> 0.17822618E+01</totfact>
</mgrwt>
</event>
<event>
 6    1  0.1901260E-004  0.3000000E+03  0.7818608E-02  0.1093470E+00
          1   -1    0    0  502    0  0.00000000000E+00  0.00000000000E+00  0.39673837720E+02  0.39673837720E+02  0.00000000000E+00 0.  1.
         13   -1    0    0    0    0 -0.00000000000E+00 -0.00000000000E+00 -0.10000000000E+04  0.10000000000E+04  0.00000000000E+00 0.  1.
    9000005    2    1    2  501    0  0.14224938576E+01  0.60374279574E+02 -0.87421745258E+03  0.93449880737E+03  0.32463023497E+03 0.  0.
         13    1    3    3    0    0  0.10037206769E+03  0.88020960209E+02 -0.14120784722E+03  0.19432420725E+03  0.00000000000E+00 0.  1.
          1    1    3    3  501    0 -0.98949573828E+02 -0.27646680635E+02 -0.73300960536E+03  0.74017460012E+03  0.00000000000E+00 0.  1.
         21    1    1    2  502  501 -0.14224938576E+01 -0.60374279574E+02 -0.86108709703E+02  0.10517503035E+03  0.00000000000E+00 0. -1.
<mgrwt>
<rscale>  1 0.30000000E+03</rscale>
<asrwt>0</asrwt>
<pdfrwt beam="1">  1        1 0.14426881E+00 0.30000000E+03</pdfrwt>
<pdfrwt beam="2">0</pdfrwt>
<totfact> 0.19222676E+01</totfact>
</mgrwt>
</event>
<event>
 6    1  0.1901260E-004  0.3000000E+03  0.7818608E-02  0.1093470E+00
          1   -1    0    0  502    0  0.00000000000E+00  0.00000000000E+00  0.28758979479E+02  0.28758979479E+02  0.00000000000E+00 0.  1.
         13   -1    0    0    0    0 -0.00000000000E+00 -0.00000000000E+00 -0.10000000000E+04  0.10000000000E+04  0.00000000000E+00 0.  1.
    9000005    2    1    2  501    0 -0.80661631215E+01  0.36183860529E+01 -0.95260302645E+03  0.10081305882E+04  0.32984329778E+03 0.  0.
         13    1    3    3    0    0 -0.76271033087E+02 -0.53227933251E+02 -0.90028051924E+03  0.90507209475E+03  0.00000000000E+00 0.  1.
          1    1    3    3  501    0  0.68204869966E+02  0.56846319304E+02 -0.52322507211E+02  0.10305849342E+03  0.00000000000E+00 0.  1.
         21    1    1    2  502  501  0.80661631215E+01 -0.36183860529E+01 -0.18637994067E+02  0.20628391308E+02  0.00000000000E+00 0.  1.
<mgrwt>
<rscale>  1 0.30000000E+03</rscale>
<asrwt>0</asrwt>
<pdfrwt beam="1">  1        1 0.10457833E+00 0.30000000E+03</pdfrwt>
<pdfrwt beam="2">0</pdfrwt>
<totfact> 0.32043536E+01</totfact>
</mgrwt>
</event>
<event>
 6    1  0.1901260E-004  0.3000000E+03  0.7818608E-02  0.1093470E+00
          1   -1    0    0  502    0  0.00000000000E+00  0.00000000000E+00  0.91712187481E+02  0.91712187481E+02  0.00000000000E+00 0.  1.
         13   -1    0    0    0    0 -0.00000000000E+00 -0.00000000000E+00 -0.10000000000E+04  0.10000000000E+04  0.00000000000E+00 0.  1.
    9000005    2    1    2  501    0 -0.14251796479E+01 -0.13637862237E+02 -0.97152047058E+03  0.10270098578E+04  0.33272992172E+03 0.  0.
         13    1    3    3    0    0 -0.91474504542E+02 -0.50485336548E+01 -0.56726162349E+02  0.10775402623E+03  0.00000000000E+00 0.  1.
          3    1    3    3  501    0  0.90049324894E+02 -0.85893285820E+01 -0.91479430823E+03  0.91925583155E+03  0.00000000000E+00 0.  1.
         21    1    1    2  502  501  0.14251796479E+01  0.13637862237E+02  0.63232658058E+02  0.64702329699E+02  0.00000000000E+00 0.  1.
<mgrwt>
<rscale>  1 0.30000000E+03</rscale>
<asrwt>0</asrwt>
<pdfrwt beam="1">  1        1 0.33349957E+00 0.30000000E+03</pdfrwt>
<pdfrwt beam="2">0</pdfrwt>
<totfact> 0.23882437E+00</totfact>
</mgrwt>
</event>
<event>
 6    1  0.1901260E-004  0.3000000E+03  0.7818608E-02  0.1093470E+00
          1   -1    0    0  502    0  0.00000000000E+00  0.00000000000E+00  0.33711667202E+02  0.33711667202E+02  0.00000000000E+00 0.  1.
         13   -1    0    0    0    0 -0.00000000000E+00 -0.00000000000E+00 -0.10000000000E+04  0.10000000000E+04  0.00000000000E+00 0.  1.
    9000005    2    1    2  501    0 -0.41147022825E+02  0.15969953765E+02 -0.89456452374E+03  0.94949515043E+03  0.31519396672E+03 0.  0.
         13    1    3    3    0    0 -0.16674515974E+03 -0.12863403177E+02 -0.67024965369E+03  0.69079954669E+03  0.00000000000E+00 0.  1.
          3    1    3    3  501    0  0.12559813692E+03  0.28833356943E+02 -0.22431487004E+03  0.25869560374E+03  0.00000000000E+00 0.  1.
         21    1    1    2  502  501  0.41147022825E+02 -0.15969953765E+02 -0.71723809062E+02  0.84216516771E+02  0.00000000000E+00 0.  1.
<mgrwt>
<rscale>  1 0.30000000E+03</rscale>
<asrwt>0</asrwt>
<pdfrwt beam="1">  1        1 0.12258814E+00 0.30000000E+03</pdfrwt>
<pdfrwt beam="2">0</pdfrwt>
<totfact> 0.25139332E+01</totfact>
</mgrwt>
</event>
<event>
 6    1  0.1901260E-004  0.3000000E+03  0.7818608E-02  0.1093470E+00
          3   -1    0    0  502    0  0.00000000000E+00  0.00000000000E+00  0.38999011736E+02  0.38999011736E+02  0.00000000000E+00 0.  1.
         13   -1    0    0    0    0 -0.00000000000E+00 -0.00000000000E+00 -0.10000000000E+04  0.10000000000E+04  0.00000000000E+00 0.  1.
    9000005    2    1    2  501    0 -0.71461812141E+02  0.16012482847E+02 -0.82010985980E+03  0.88021141688E+03  0.31117320909E+03 0.  0.
         13    1    3    3    0    0 -0.15714412728E+03  0.95011242794E+02 -0.63884575634E+03  0.66471446005E+03  0.00000000000E+00 0.  1.
          3    1    3    3  501    0  0.85682315143E+02 -0.78998759947E+02 -0.18126410346E+03  0.21549695684E+03  0.00000000000E+00 0.  1.
         21    1    1    2  502  501  0.71461812141E+02 -0.16012482847E+02 -0.14089112846E+03  0.15878759486E+03  0.00000000000E+00 0.  1.
<mgrwt>
<rscale>  1 0.30000000E+03</rscale>
<asrwt>0</asrwt>
<pdfrwt beam="1">  1        3 0.14181489E+00 0.30000000E+03</pdfrwt>
<pdfrwt beam="2">0</pdfrwt>
<totfact> 0.12701702E+00</totfact>
</mgrwt>
</event>
<event>
 6    1  0.1901260E-004  0.3000000E+03  0.7818608E-02  0.1093470E+00
          1   -1    0    0  502    0  0.00000000000E+00  0.00000000000E+00  0.51282768194E+02  0.51282768194E+02  0.00000000000E+00 0.  1.
         13   -1    0    0    0    0 -0.00000000000E+00 -0.00000000000E+00 -0.10000000000E+04  0.10000000000E+04  0.00000000000E+00 0.  1.
    9000005    2    1    2  501    0  0.26025001624E+01 -0.56586599373E+02 -0.91919758560E+03  0.98740612342E+03  0.35614299790E+03 0.  0.
         13    1    3    3    0    0 -0.93202628899E+02 -0.17695543314E+03 -0.42283245176E+03  0.46774698034E+03  0.00000000000E+00 0.  1.
          1    1    3    3  501    0  0.95805129061E+02  0.12036883377E+03 -0.49636513384E+03  0.51965914308E+03  0.00000000000E+00 0.  1.
         21    1    1    2  502  501 -0.26025001624E+01  0.56586599373E+02 -0.29519646203E+02  0.63876644775E+02  0.00000000000E+00 0.  1.
<mgrwt>
<rscale>  1 0.30000000E+03</rscale>
<asrwt>0</asrwt>
<pdfrwt beam="1">  1        1 0.18648319E+00 0.30000000E+03</pdfrwt>
<pdfrwt beam="2">0</pdfrwt>
<totfact> 0.11887552E+01</totfact>
</mgrwt>
</event>
<event>
 6    1  0.1901260E-004  0.3000000E+03  0.7818608E-02  0.1093470E+00
          1   -1    0    0  502    0  0.00000000000E+00  0.00000000000E+00  0.46799902894E+02  0.46799902894E+02  0.00000000000E+00 0.  1.
         13   -1    0    0    0    0 -0.00000000000E+00 -0.00000000000E+00 -0.10000000000E+04  0.10000000000E+04  0.00000000000E+00 0.  1.
    9000005    2    1    2  501    0  0.93535173328E+01  0.14266409226E+02 -0.96936308404E+03  0.10232996717E+04  0.32739335777E+03 0.  0.
         13    1    3    3    0    0  0.93283773243E+02 -0.10783815947E+03 -0.71370414481E+03  0.72780803603E+03  0.00000000000E+00 0.  1.
          1    1    3    3  501    0 -0.83930255910E+02  0.12210456869E+03 -0.25565893923E+03  0.29549163569E+03  0.00000000000E+00 0.  1.
         21    1    1    2  502  501 -0.93535173328E+01 -0.14266409226E+02  0.16162986936E+02  0.23500231178E+02  0.00000000000E+00 0. -1.
<mgrwt>
<rscale>  1 0.30000000E+03</rscale>
<asrwt>0</asrwt>
<pdfrwt beam="1">  1        1 0.17018182E+00 0.30000000E+03</pdfrwt>
<pdfrwt beam="2">0</pdfrwt>
<totfact> 0.14257992E+01</totfact>
</mgrwt>
</event>
<event>
 6    1  0.1901260E-004  0.3000000E+03  0.7818608E-02  0.1093470E+00
          1   -1    0    0  502    0  0.00000000000E+00  0.00000000000E+00  0.34805984016E+02  0.34805984016E+02  0.00000000000E+00 0.  1.
         13   -1    0    0    0    0 -0.00000000000E+00 -0.00000000000E+00 -0.10000000000E+04  0.10000000000E+04  0.00000000000E+00 0.  1.
    9000005    2    1    2  501    0 -0.56559090869E+01  0.95248220229E+01 -0.97146534780E+03  0.10220764457E+04  0.31744704660E+03 0.  0.
         13    1    3    3    0    0 -0.19879126745E+02 -0.55697884534E+02 -0.12065995345E+02  0.60357454100E+02  0.00000000000E+00 0.  1.
          3    1    3    3  501    0  0.14223217658E+02  0.65222706557E+02 -0.95939935246E+03  0.96171899163E+03  0.00000000000E+00 0.  1.
         21    1    1    2  502  501  0.56559090869E+01 -0.95248220229E+01  0.62713318171E+01  0.12729538284E+02  0.00000000000E+00 0. -1.
<mgrwt>
<rscale>  1 0.30000000E+03</rscale>
<asrwt>0</asrwt>
<pdfrwt beam="1">  1        1 0.12656748E+00 0.30000000E+03</pdfrwt>
<pdfrwt beam="2">0</pdfrwt>
<totfact> 0.23892414E+01</totfact>
</mgrwt>
</event>
<event>
 6    1  0.1901260E-004  0.3000000E+03  0.7818608E-02  0.1093470E+00
          1   -1    0    0  502    0  0.00000000000E+00  0.00000000000E+00  0.31923771861E+02  0.31923771861E+02  0.00000000000E+00 0.  1.
         13   -1    0    0    0    0 -0.00000000000E+00 -0.00000000000E+00 -0.10000000000E+04  0.10000000000E+04  0.00000000000E+00 0.  1.
    9000005    2    1    2  501    0  0.89838734960E+01  0.44803561357E+01 -0.97657688622E+03  0.10187691239E+04  0.28997815368E+03 0.  0.
         13    1    3    3    0    0  0.69865814105E+02  0.52113399430E+02 -0.78281619149E+02  0.11715395972E+03  0.00000000000E+00 0.  1.
          3    1    3    3  501    0 -0.60881940609E+02 -0.47633043294E+02 -0.89829526707E+03  0.90161516422E+03  0.00000000000E+00 0.  1.
         21    1    1    2  502  501 -0.89838734960E+01 -0.44803561357E+01  0.85006580842E+01  0.13154647922E+02  0.00000000000E+00 0.  1.
<mgrwt>
<rscale>  1 0.30000000E+03</rscale>
<asrwt>0</asrwt>
<pdfrwt beam="1">  1        1 0.11608669E+00 0.30000000E+03</pdfrwt>
<pdfrwt beam="2">0</pdfrwt>
<totfact> 0.27367610E+01</totfact>
</mgrwt>
</event>
<event>
 6    1  0.1901260E-004  0.3000000E+03  0.7818608E-02  0.1093470E+00
          1   -1    0    0  502    0  0.00000000000E+00  0.00000000000E+00  0.28606898115E+02  0.28606898115E+02  0.00000000000E+00 0.  1.
         13   -1    0    0    0    0 -0.00000000000E+00 -0.00000000000E+00 -0.10000000000E+04  0.10000000000E+04  0.00000000000E+00 0.  1.
    9000005    2    1    2  501    0  0.12534334330E+02  0.28725361744E+01 -0.95373615509E+03  0.10067636206E+04  0.32217227270E+03 0.  0.
         13    1    3    3    0    0  0.16187120597E+03  0.24431401136E+02 -0.60560551794E+03  0.62734139353E+03  0.00000000000E+00 0.  1.
          3    1    3    3  501    0 -0.14933687164E+03 -0.21558864961E+02 -0.34813063715E+03  0.37942222710E+03  0.00000000000E+00 0.  1.
         21    1    1    2  502  501 -0.12534334330E+02 -0.28725361744E+01 -0.17656946798E+02  0.21843277487E+02  0.00000000000E+00 0.  1.
<mgrwt>
<rscale>  1 0.30000000E+03</rscale>
<asrwt>0</asrwt>
<pdfrwt beam="1">  1        1 0.10402530E+00 0.30000000E+03</pdfrwt>
<pdfrwt beam="2">0</pdfrwt>
<totfact> 0.32296305E+01</totfact>
</mgrwt>
</event>
<event>
 6    1  0.1901260E-004  0.3000000E+03  0.7818608E-02  0.1093470E+00
          1   -1    0    0  502    0  0.00000000000E+00  0.00000000000E+00  0.30440799668E+02  0.30440799668E+02  0.00000000000E+00 0.  1.
         13   -1    0    0    0    0 -0.00000000000E+00 -0.00000000000E+00 -0.10000000000E+04  0.10000000000E+04  0.00000000000E+00 0.  1.
    9000005    2    1    2  501    0  0.26323099044E+01  0.12097371048E+02 -0.95463078384E+03  0.10110466495E+04  0.33277938424E+03 0.  0.
         13    1    3    3    0    0 -0.11115056395E+02  0.98045633103E+02 -0.67259232034E+02  0.11941647685E+03  0.00000000000E+00 0.  1.
          1    1    3    3  501    0  0.13747366299E+02 -0.85948262054E+02 -0.88737155181E+03  0.89163017265E+03  0.00000000000E+00 0.  1.
         21    1    1    2  502  501 -0.26323099044E+01 -0.12097371048E+02 -0.14928416491E+02  0.19394150166E+02  0.00000000000E+00 0. -1.
<mgrwt>
<rscale>  1 0.30000000E+03</rscale>
<asrwt>0</asrwt>
<pdfrwt beam="1">  1        1 0.11069405E+00 0.30000000E+03</pdfrwt>
<pdfrwt beam="2">0</pdfrwt>
<totfact> 0.29428548E+01</totfact>
</mgrwt>
</event>
<event>
 6    1  0.1901260E-004  0.3000000E+03  0.7818608E-02  0.1093470E+00
          1   -1    0    0  502    0  0.00000000000E+00  0.00000000000E+00  0.34833965510E+02  0.34833965510E+02  0.00000000000E+00 0.  1.
         13   -1    0    0    0    0 -0.00000000000E+00 -0.00000000000E+00 -0.10000000000E+04  0.10000000000E+04  0.00000000000E+00 0.  1.
    9000005    2    1    2  501    0  0.29133095070E+02 -0.14005065219E+02 -0.95186868573E+03  0.99988116070E+03  0.30440673706E+03 0.  0.
         13    1    3    3    0    0 -0.94338619402E+02 -0.98658403298E+02 -0.27955469387E+03  0.31110140230E+03  0.00000000000E+00 0.  1.
          1    1    3    3  501    0  0.12347171447E+03  0.84653338079E+02 -0.67231399186E+03  0.68877975839E+03  0.00000000000E+00 0.  1.
         21    1    1    2  502  501 -0.29133095070E+02  0.14005065219E+02 -0.13297348761E+02  0.34952804812E+02  0.00000000000E+00 0.  1.
<mgrwt>
<rscale>  1 0.30000000E+03</rscale>
<asrwt>0</asrwt>
<pdfrwt beam="1">  1        1 0.12666923E+00 0.30000000E+03</pdfrwt>
<pdfrwt beam="2">0</pdfrwt>
<totfact> 0.23861577E+01</totfact>
</mgrwt>
</event>
<event>
 6    1  0.1901260E-004  0.3000000E+03  0.7818608E-02  0.1093470E+00
          1   -1    0    0  502    0  0.00000000000E+00  0.00000000000E+00  0.55039112562E+02  0.55039112562E+02  0.00000000000E+00 0.  1.
         13   -1    0    0    0    0 -0.00000000000E+00 -0.00000000000E+00 -0.10000000000E+04  0.10000000000E+04  0.00000000000E+00 0.  1.
    9000005    2    1    2  501    0 -0.87691430766E+01  0.84240108590E+01 -0.97134677348E+03  0.10259861125E+04  0.33012889440E+03 0.  0.
         13    1    3    3    0    0 -0.15827404966E+03 -0.89841362444E+01 -0.31548938530E+03  0.35307922870E+03  0.00000000000E+00 0.  1.
          1    1    3    3  501    0  0.14950490658E+03  0.17408147103E+02 -0.65585738817E+03  0.67290688382E+03  0.00000000000E+00 0.  1.
         21    1    1    2  502  501  0.87691430766E+01 -0.84240108590E+01  0.26385886039E+02  0.29053000040E+02  0.00000000000E+00 0.  1.
<mgrwt>
<rscale>  1 0.30000000E+03</rscale>
<asrwt>0</asrwt>
<pdfrwt beam="1">  1        1 0.20014265E+00 0.30000000E+03</pdfrwt>
<pdfrwt beam="2">0</pdfrwt>
<totfact> 0.10227435E+01</totfact>
</mgrwt>
</event>
<event>
 6    1  0.1901260E-004  0.3000000E+03  0.7818608E-02  0.1093470E+00
          1   -1    0    0  502    0  0.00000000000E+00  0.00000000000E+00  0.34957000500E+02  0.34957000500E+02  0.00000000000E+00 0.  1.
         13   -1    0    0    0    0 -0.00000000000E+00 -0.00000000000E+00 -0.10000000000E+04  0.10000000000E+04  0.00000000000E+00 0.  1.
    9000005    2    1    2  501    0 -0.40464131694E+02 -0.62721745561E+01 -0.88086312612E+03  0.94134643908E+03  0.32944891149E+03 0.  0.
         13    1    3    3    0    0 -0.50241217977E+02 -0.13715360702E+03 -0.19835234054E+03  0.24633096212E+03  0.00000000000E+00 0.  1.
          1    1    3    3  501    0  0.97770862826E+01  0.13088143246E+03 -0.68251078557E+03  0.69501547695E+03  0.00000000000E+00 0.  1.
         21    1    1    2  502  501  0.40464131694E+02  0.62721745561E+01 -0.84179873384E+02  0.93610561425E+02  0.00000000000E+00 0.  1.
<mgrwt>
<rscale>  1 0.30000000E+03</rscale>
<asrwt>0</asrwt>
<pdfrwt beam="1">  1        1 0.12711663E+00 0.30000000E+03</pdfrwt>
<pdfrwt beam="2">0</pdfrwt>
<totfact> 0.23726588E+01</totfact>
</mgrwt>
</event>
<event>
 6    1  0.1901260E-004  0.3000000E+03  0.7818608E-02  0.1093470E+00
          1   -1    0    0  502    0  0.00000000000E+00  0.00000000000E+00  0.43394142563E+02  0.43394142563E+02  0.00000000000E+00 0.  1.
         13   -1    0    0    0    0 -0.00000000000E+00 -0.00000000000E+00 -0.10000000000E+04  0.10000000000E+04  0.00000000000E+00 0.  1.
    9000005    2    1    2  501    0  0.27094444907E+02 -0.68302613254E+02 -0.82434941736E+03  0.89209602009E+03  0.33299247925E+03 0.  0.
         13    1    3    3    0    0  0.54038562365E+02 -0.10333153283E+03 -0.83781984011E+03  0.84589577159E+03  0.00000000000E+00 0.  1.
          3    1    3    3  501    0 -0.26944117458E+02  0.35028919580E+02  0.13470422754E+02  0.46200248503E+02  0.00000000000E+00 0.  1.
         21    1    1    2  502  501 -0.27094444907E+02  0.68302613254E+02 -0.13225644008E+03  0.15129812247E+03  0.00000000000E+00 0.  1.
<mgrwt>
<rscale>  1 0.30000000E+03</rscale>
<asrwt>0</asrwt>
<pdfrwt beam="1">  1        1 0.15779721E+00 0.30000000E+03</pdfrwt>
<pdfrwt beam="2">0</pdfrwt>
<totfact> 0.16412289E+01</totfact>
</mgrwt>
</event>
<event>
 6    1  0.1901260E-004  0.3000000E+03  0.7818608E-02  0.1093470E+00
          1   -1    0    0  502    0  0.00000000000E+00  0.00000000000E+00  0.51762469812E+02  0.51762469812E+02  0.00000000000E+00 0.  1.
         13   -1    0    0    0    0 -0.00000000000E+00 -0.00000000000E+00 -0.10000000000E+04  0.10000000000E+04  0.00000000000E+00 0.  1.
    9000005    2    1    2  501    0  0.10981729426E+02 -0.36991474350E+02 -0.95610981464E+03  0.10123804889E+04  0.33057421129E+03 0.  0.
         13    1    3    3    0    0 -0.13755640049E+03 -0.89635177108E+02 -0.61650219272E+03  0.63798995440E+03  0.00000000000E+00 0.  1.
          3    1    3    3  501    0  0.14853812992E+03  0.52643702758E+02 -0.33960762192E+03  0.37439053453E+03  0.00000000000E+00 0.  1.
         21    1    1    2  502  501 -0.10981729426E+02  0.36991474350E+02  0.78722844481E+01  0.39381980882E+02  0.00000000000E+00 0.  1.
<mgrwt>
<rscale>  1 0.30000000E+03</rscale>
<asrwt>0</asrwt>
<pdfrwt beam="1">  1        1 0.18822756E+00 0.30000000E+03</pdfrwt>
<pdfrwt beam="2">0</pdfrwt>
<totfact> 0.11660277E+01</totfact>
</mgrwt>
</event>
<event>
 6    1  0.1901260E-004  0.3000000E+03  0.7818608E-02  0.1093470E+00
          1   -1    0    0  502    0  0.00000000000E+00  0.00000000000E+00  0.64187510718E+02  0.64187510718E+02  0.00000000000E+00 0.  1.
         13   -1    0    0    0    0 -0.00000000000E+00 -0.00000000000E+00 -0.10000000000E+04  0.10000000000E+04  0.00000000000E+00 0.  1.
    9000005    2    1    2  501    0 -0.22731505471E+02 -0.23312074459E+02 -0.96536650597E+03  0.10202146320E+04  0.32839797569E+03 0.  0.
         13    1    3    3    0    0 -0.75486597810E+02 -0.66491433856E+02 -0.70700134230E+02  0.12295465101E+03  0.00000000000E+00 0.  1.
          3    1    3    3  501    0  0.52755092339E+02  0.43179359396E+02 -0.89466637174E+03  0.89725998103E+03  0.00000000000E+00 0.  1.
         21    1    1    2  502  501  0.22731505471E+02  0.23312074459E+02  0.29554016685E+02  0.43972878673E+02  0.00000000000E+00 0.  1.
<mgrwt>
<rscale>  1 0.30000000E+03</rscale>
<asrwt>0</asrwt>
<pdfrwt beam="1">  1        1 0.23340962E+00 0.30000000E+03</pdfrwt>
<pdfrwt beam="2">0</pdfrwt>
<totfact> 0.71334368E+00</totfact>
</mgrwt>
</event>
<event>
 6    1  0.1901260E-004  0.3000000E+03  0.7818608E-02  0.1093470E+00
          1   -1    0    0  502    0  0.00000000000E+00  0.00000000000E+00  0.37530894273E+02  0.37530894273E+02  0.00000000000E+00 0.  1.
         13   -1    0    0    0    0 -0.00000000000E+00 -0.00000000000E+00 -0.10000000000E+04  0.10000000000E+04  0.00000000000E+00 0.  1.
    9000005    2    1    2  501    0 -0.69687734098E+01  0.16986497889E+02 -0.96165143044E+03  0.10191522788E+04  0.33698781703E+03 0.  0.
         13    1    3    3    0    0  0.22963531870E+02 -0.85054136295E+02 -0.88174732929E+03  0.88613762058E+03  0.00000000000E+00 0.  1.
          1    1    3    3  501    0 -0.29932305280E+02  0.10204063418E+03 -0.79904101154E+02  0.13301465823E+03  0.00000000000E+00 0.  1.
         21    1    1    2  502  501  0.69687734098E+01 -0.16986497889E+02 -0.81767528479E+00  0.18378615460E+02  0.00000000000E+00 0.  1.
<mgrwt>
<rscale>  1 0.30000000E+03</rscale>
<asrwt>0</asrwt>
<pdfrwt beam="1">  1        1 0.13647627E+00 0.30000000E+03</pdfrwt>
<pdfrwt beam="2">0</pdfrwt>
<totfact> 0.21116942E+01</totfact>
</mgrwt>
</event>
<event>
 6    1  0.1901260E-004  0.3000000E+03  0.7818608E-02  0.1093470E+00
          1   -1    0    0  502    0  0.00000000000E+00  0.00000000000E+00  0.88482262494E+02  0.88482262494E+02  0.00000000000E+00 0.  1.
         13   -1    0    0    0    0 -0.00000000000E+00 -0.00000000000E+00 -0.10000000000E+04  0.10000000000E+04  0.00000000000E+00 0.  1.
    9000005    2    1    2  501    0 -0.16284744349E+02 -0.33364275958E+02 -0.96939122948E+03  0.10197239257E+04  0.31422788070E+03 0.  0.
         13    1    3    3    0    0 -0.84849983457E+02  0.50458258776E+02 -0.89678775307E+02  0.13337105500E+03  0.00000000000E+00 0.  1.
          1    1    3    3  501    0  0.68565239108E+02 -0.83822534734E+02 -0.87971245417E+03  0.88635287068E+03  0.00000000000E+00 0.  1.
         21    1    1    2  502  501  0.16284744349E+02  0.33364275958E+02  0.57873491969E+02  0.68758336814E+02  0.00000000000E+00 0.  1.
<mgrwt>
<rscale>  1 0.30000000E+03</rscale>
<asrwt>0</asrwt>
<pdfrwt beam="1">  1        1 0.32175436E+00 0.30000000E+03</pdfrwt>
<pdfrwt beam="2">0</pdfrwt>
<totfact> 0.27301694E+00</totfact>
</mgrwt>
</event>
<event>
 6    1  0.1901260E-004  0.3000000E+03  0.7818608E-02  0.1093470E+00
          1   -1    0    0  502    0  0.00000000000E+00  0.00000000000E+00  0.19275517709E+02  0.19275517709E+02  0.00000000000E+00 0.  1.
         13   -1    0    0    0    0 -0.00000000000E+00 -0.00000000000E+00 -0.10000000000E+04  0.10000000000E+04  0.00000000000E+00 0.  1.
    9000005    2    1    2  501    0  0.10955033715E+02  0.75508423658E+01 -0.92958823012E+03  0.96643666581E+03  0.26398583950E+03 0.  0.
         13    1    3    3    0    0  0.11256879305E+03  0.74688965780E+02 -0.60120606125E+03  0.61619712987E+03  0.00000000000E+00 0.  1.
          3    1    3    3  501    0 -0.10161375933E+03 -0.67138123414E+02 -0.32838216887E+03  0.35023953594E+03  0.00000000000E+00 0.  1.
         21    1    1    2  502  501 -0.10955033715E+02 -0.75508423658E+01 -0.51136252169E+02  0.52838851900E+02  0.00000000000E+00 0. -1.
<mgrwt>
<rscale>  1 0.30000000E+03</rscale>
<asrwt>0</asrwt>
<pdfrwt beam="1">  1        1 0.70092939E-01 0.30000000E+03</pdfrwt>
<pdfrwt beam="2">0</pdfrwt>
<totfact> 0.56282733E+01</totfact>
</mgrwt>
</event>
<event>
 6    1  0.1901260E-004  0.3000000E+03  0.7818608E-02  0.1093470E+00
          1   -1    0    0  502    0  0.00000000000E+00  0.00000000000E+00  0.63965196364E+02  0.63965196364E+02  0.00000000000E+00 0.  1.
         13   -1    0    0    0    0 -0.00000000000E+00 -0.00000000000E+00 -0.10000000000E+04  0.10000000000E+04  0.00000000000E+00 0.  1.
    9000005    2    1    2  501    0  0.20459329303E+02  0.64596368443E+02 -0.90811047025E+03  0.99067779386E+03  0.39011099713E+03 0.  0.
         13    1    3    3    0    0  0.75586115848E+02  0.17072890560E+03 -0.82293776681E+03  0.84385317926E+03  0.00000000000E+00 0.  1.
          1    1    3    3  501    0 -0.55126786545E+02 -0.10613253716E+03 -0.85172703446E+02  0.14682461459E+03  0.00000000000E+00 0.  1.
         21    1    1    2  502  501 -0.20459329303E+02 -0.64596368443E+02 -0.27924333382E+02  0.73287402508E+02  0.00000000000E+00 0.  1.
<mgrwt>
<rscale>  1 0.30000000E+03</rscale>
<asrwt>0</asrwt>
<pdfrwt beam="1">  1        1 0.23260120E+00 0.30000000E+03</pdfrwt>
<pdfrwt beam="2">0</pdfrwt>
<totfact> 0.71958383E+00</totfact>
</mgrwt>
</event>
<event>
 6    1  0.1901260E-004  0.3000000E+03  0.7818608E-02  0.1093470E+00
          1   -1    0    0  502    0  0.00000000000E+00  0.00000000000E+00  0.22863310833E+02  0.22863310833E+02  0.00000000000E+00 0.  1.
         13   -1    0    0    0    0 -0.00000000000E+00 -0.00000000000E+00 -0.10000000000E+04  0.10000000000E+04  0.00000000000E+00 0.  1.
    9000005    2    1    2  501    0  0.48699910355E+02  0.32944468629E+02 -0.80076460966E+03  0.83694900340E+03  0.23622585572E+03 0.  0.
         13    1    3    3    0    0 -0.40770471737E+02 -0.21252177394E+01 -0.12283937470E+02  0.42633825021E+02  0.00000000000E+00 0.  1.
          3    1    3    3  501    0  0.89470382093E+02  0.35069686368E+02 -0.78848067219E+03  0.79431517837E+03  0.00000000000E+00 0.  1.
         21    1    1    2  502  501 -0.48699910355E+02 -0.32944468629E+02 -0.17637207950E+03  0.18591430744E+03  0.00000000000E+00 0.  1.
<mgrwt>
<rscale>  1 0.30000000E+03</rscale>
<asrwt>0</asrwt>
<pdfrwt beam="1">  1        1 0.83139487E-01 0.30000000E+03</pdfrwt>
<pdfrwt beam="2">0</pdfrwt>
<totfact> 0.44523318E+01</totfact>
</mgrwt>
</event>
<event>
 6    1  0.1901260E-004  0.3000000E+03  0.7818608E-02  0.1093470E+00
          1   -1    0    0  502    0  0.00000000000E+00  0.00000000000E+00  0.31684350229E+02  0.31684350229E+02  0.00000000000E+00 0.  1.
         13   -1    0    0    0    0 -0.00000000000E+00 -0.00000000000E+00 -0.10000000000E+04  0.10000000000E+04  0.00000000000E+00 0.  1.
    9000005    2    1    2  501    0  0.24905443499E+02  0.58594508469E+01 -0.87430592582E+03  0.93425518376E+03  0.32827927469E+03 0.  0.
         13    1    3    3    0    0 -0.12580159832E+03 -0.87905209181E+00 -0.15664075682E+03  0.20090580272E+03  0.00000000000E+00 0.  1.
          3    1    3    3  501    0  0.15070704182E+03  0.67385029387E+01 -0.71766516900E+03  0.73334938104E+03  0.00000000000E+00 0.  1.
         21    1    1    2  502  501 -0.24905443499E+02 -0.58594508469E+01 -0.94009723953E+02  0.97429166464E+02  0.00000000000E+00 0.  1.
<mgrwt>
<rscale>  1 0.30000000E+03</rscale>
<asrwt>0</asrwt>
<pdfrwt beam="1">  1        1 0.11521606E+00 0.30000000E+03</pdfrwt>
<pdfrwt beam="2">0</pdfrwt>
<totfact> 0.27686250E+01</totfact>
</mgrwt>
</event>
<event>
 6    1  0.1901260E-004  0.3000000E+03  0.7818608E-02  0.1093470E+00
          1   -1    0    0  502    0  0.00000000000E+00  0.00000000000E+00  0.41256771399E+02  0.41256771399E+02  0.00000000000E+00 0.  1.
         13   -1    0    0    0    0 -0.00000000000E+00 -0.00000000000E+00 -0.10000000000E+04  0.10000000000E+04  0.00000000000E+00 0.  1.
    9000005    2    1    2  501    0  0.22367338979E+02 -0.31475051130E+00 -0.93641209036E+03  0.10096485975E+04  0.37685844899E+03 0.  0.
         13    1    3    3    0    0  0.13495865705E+03  0.11739411677E+03 -0.27187718167E+03  0.32544188372E+03  0.00000000000E+00 0.  1.
          1    1    3    3  501    0 -0.11259131807E+03 -0.11770886728E+03 -0.66453490869E+03  0.68420671380E+03  0.00000000000E+00 0.  1.
         21    1    1    2  502  501 -0.22367338979E+02  0.31475051130E+00 -0.22331138238E+02  0.31608173878E+02  0.00000000000E+00 0. -1.
<mgrwt>
<rscale>  1 0.30000000E+03</rscale>
<asrwt>0</asrwt>
<pdfrwt beam="1">  1        1 0.15002494E+00 0.30000000E+03</pdfrwt>
<pdfrwt beam="2">0</pdfrwt>
<totfact> 0.17959710E+01</totfact>
</mgrwt>
</event>
<event>
 6    1  0.1901260E-004  0.3000000E+03  0.7818608E-02  0.1093470E+00
          1   -1    0    0  502    0  0.00000000000E+00  0.00000000000E+00  0.29589514823E+02  0.29589514823E+02  0.00000000000E+00 0.  1.
         13   -1    0    0    0    0 -0.00000000000E+00 -0.00000000000E+00 -0.10000000000E+04  0.10000000000E+04  0.00000000000E+00 0.  1.
    9000005    2    1    2  501    0 -0.80611799357E+01  0.73422244710E+01 -0.95924587575E+03  0.10139837663E+04  0.32846847241E+03 0.  0.
         13    1    3    3    0    0  0.12939132662E+03 -0.11005958703E+02 -0.76130761867E+03  0.77230339684E+03  0.00000000000E+00 0.  1.
          3    1    3    3  501    0 -0.13745250655E+03  0.18348183174E+02 -0.19793825708E+03  0.24168036950E+03  0.00000000000E+00 0.  1.
         21    1    1    2  502  501  0.80611799357E+01 -0.73422244710E+01 -0.11164609425E+02  0.15605748484E+02  0.00000000000E+00 0.  1.
<mgrwt>
<rscale>  1 0.30000000E+03</rscale>
<asrwt>0</asrwt>
<pdfrwt beam="1">  1        1 0.10759846E+00 0.30000000E+03</pdfrwt>
<pdfrwt beam="2">0</pdfrwt>
<totfact> 0.30712309E+01</totfact>
</mgrwt>
</event>
<event>
 6    1  0.1901260E-004  0.3000000E+03  0.7818608E-02  0.1093470E+00
          1   -1    0    0  502    0  0.00000000000E+00  0.00000000000E+00  0.33480250134E+02  0.33480250134E+02  0.00000000000E+00 0.  1.
         13   -1    0    0    0    0 -0.00000000000E+00 -0.00000000000E+00 -0.10000000000E+04  0.10000000000E+04  0.00000000000E+00 0.  1.
    9000005    2    1    2  501    0 -0.52125163040E+01 -0.22611517733E+02 -0.92367734447E+03  0.98475733191E+03  0.34062987978E+03 0.  0.
         13    1    3    3    0    0  0.16910584782E+02  0.10955865637E+03 -0.78171107666E+03  0.78953231374E+03  0.00000000000E+00 0.  1.
          3    1    3    3  501    0 -0.22123101086E+02 -0.13217017410E+03 -0.14196626781E+03  0.19522501817E+03  0.00000000000E+00 0.  1.
         21    1    1    2  502  501  0.52125163040E+01  0.22611517733E+02 -0.42842405398E+02  0.48722918229E+02  0.00000000000E+00 0. -1.
<mgrwt>
<rscale>  1 0.30000000E+03</rscale>
<asrwt>0</asrwt>
<pdfrwt beam="1">  1        1 0.12174662E+00 0.30000000E+03</pdfrwt>
<pdfrwt beam="2">0</pdfrwt>
<totfact> 0.25413728E+01</totfact>
</mgrwt>
</event>
<event>
 6    1  0.1901260E-004  0.3000000E+03  0.7818608E-02  0.1093470E+00
          1   -1    0    0  502    0  0.00000000000E+00  0.00000000000E+00  0.31435127121E+02  0.31435127121E+02  0.00000000000E+00 0.  1.
         13   -1    0    0    0    0 -0.00000000000E+00 -0.00000000000E+00 -0.10000000000E+04  0.10000000000E+04  0.00000000000E+00 0.  1.
    9000005    2    1    2  501    0 -0.12383029190E+02  0.79548611620E+01 -0.96265877944E+03  0.10155763388E+04  0.32321317272E+03 0.  0.
         13    1    3    3    0    0 -0.13754717447E+03  0.54832429101E+02 -0.74945516953E+03  0.76394297668E+03  0.00000000000E+00 0.  1.
          1    1    3    3  501    0  0.12516414528E+03 -0.46877567939E+02 -0.21320360991E+03  0.25163336210E+03  0.00000000000E+00 0.  1.
         21    1    1    2  502  501  0.12383029190E+02 -0.79548611620E+01 -0.59060934382E+01  0.15858788343E+02  0.00000000000E+00 0. -1.
<mgrwt>
<rscale>  1 0.30000000E+03</rscale>
<asrwt>0</asrwt>
<pdfrwt beam="1">  1        1 0.11430979E+00 0.30000000E+03</pdfrwt>
<pdfrwt beam="2">0</pdfrwt>
<totfact> 0.28023480E+01</totfact>
</mgrwt>
</event>
<event>
 6    1  0.1901260E-004  0.3000000E+03  0.7818608E-02  0.1093470E+00
          1   -1    0    0  502    0  0.00000000000E+00  0.00000000000E+00  0.43377240783E+02  0.43377240783E+02  0.00000000000E+00 0.  1.
         13   -1    0    0    0    0 -0.00000000000E+00 -0.00000000000E+00 -0.10000000000E+04  0.10000000000E+04  0.00000000000E+00 0.  1.
    9000005    2    1    2  501    0 -0.61880942838E+01  0.79492016624E+01 -0.98351065224E+03  0.10146641582E+04  0.24929634699E+03 0.  0.
         13    1    3    3    0    0  0.47895903822E+02  0.82029667590E+02 -0.16008221759E+03  0.18614295677E+03  0.00000000000E+00 0.  1.
          3    1    3    3  501    0 -0.54083998106E+02 -0.74080465928E+02 -0.82342843465E+03  0.82852120147E+03  0.00000000000E+00 0.  1.
         21    1    1    2  502  501  0.61880942838E+01 -0.79492016624E+01  0.26887893025E+02  0.28713082545E+02  0.00000000000E+00 0. -1.
<mgrwt>
<rscale>  1 0.30000000E+03</rscale>
<asrwt>0</asrwt>
<pdfrwt beam="1">  1        1 0.15773575E+00 0.30000000E+03</pdfrwt>
<pdfrwt beam="2">0</pdfrwt>
<totfact> 0.16423883E+01</totfact>
</mgrwt>
</event>
<event>
 6    1  0.1901260E-004  0.3000000E+03  0.7818608E-02  0.1093470E+00
          3   -1    0    0  502    0  0.00000000000E+00  0.00000000000E+00  0.38781544846E+02  0.38781544846E+02  0.00000000000E+00 0.  1.
         13   -1    0    0    0    0 -0.00000000000E+00 -0.00000000000E+00 -0.10000000000E+04  0.10000000000E+04  0.00000000000E+00 0.  1.
    9000005    2    1    2  501    0 -0.13212852184E+02 -0.34057956296E+02 -0.85918596104E+03  0.93040648450E+03  0.35513544867E+03 0.  0.
         13    1    3    3    0    0  0.13483960789E+03  0.68798682797E+02 -0.56891948757E+03  0.58871415980E+03  0.00000000000E+00 0.  1.
          3    1    3    3  501    0 -0.14805246007E+03 -0.10285663909E+03 -0.29026647347E+03  0.34169232470E+03  0.00000000000E+00 0.  1.
         21    1    1    2  502  501  0.13212852184E+02  0.34057956296E+02 -0.10203249411E+03  0.10837506034E+03  0.00000000000E+00 0. -1.
<mgrwt>
<rscale>  1 0.30000000E+03</rscale>
<asrwt>0</asrwt>
<pdfrwt beam="1">  1        3 0.14102410E+00 0.30000000E+03</pdfrwt>
<pdfrwt beam="2">0</pdfrwt>
<totfact> 0.12999586E+00</totfact>
</mgrwt>
</event>
<event>
 6    1  0.1901260E-004  0.3000000E+03  0.7818608E-02  0.1093470E+00
          1   -1    0    0  502    0  0.00000000000E+00  0.00000000000E+00  0.32163854643E+02  0.32163854643E+02  0.00000000000E+00 0.  1.
         13   -1    0    0    0    0 -0.00000000000E+00 -0.00000000000E+00 -0.10000000000E+04  0.10000000000E+04  0.00000000000E+00 0.  1.
    9000005    2    1    2  501    0 -0.15182499225E+02  0.56701009800E+01 -0.96016565789E+03  0.10142335812E+04  0.32632653632E+03 0.  0.
         13    1    3    3    0    0  0.30383979317E+02  0.11349522609E+03 -0.12749955300E+03  0.17337960825E+03  0.00000000000E+00 0.  1.
          3    1    3    3  501    0 -0.45566478542E+02 -0.10782512511E+03 -0.83266610490E+03  0.84085397295E+03  0.00000000000E+00 0.  1.
         21    1    1    2  502  501  0.15182499225E+02 -0.56701009800E+01 -0.76704874633E+01  0.17930273444E+02  0.00000000000E+00 0. -1.
<mgrwt>
<rscale>  1 0.30000000E+03</rscale>
<asrwt>0</asrwt>
<pdfrwt beam="1">  1        1 0.11695972E+00 0.30000000E+03</pdfrwt>
<pdfrwt beam="2">0</pdfrwt>
<totfact> 0.27053182E+01</totfact>
</mgrwt>
</event>
<event>
 6    1  0.1901260E-004  0.3000000E+03  0.7818608E-02  0.1093470E+00
          1   -1    0    0  502    0  0.00000000000E+00  0.00000000000E+00  0.39067533801E+02  0.39067533801E+02  0.00000000000E+00 0.  1.
         13   -1    0    0    0    0 -0.00000000000E+00 -0.00000000000E+00 -0.10000000000E+04  0.10000000000E+04  0.00000000000E+00 0.  1.
    9000005    2    1    2  501    0 -0.23988622363E+01  0.14989358122E+02 -0.96945253483E+03  0.10216598640E+04  0.32205624526E+03 0.  0.
         13    1    3    3    0    0 -0.40629532191E+02  0.28056044861E+02  0.19537665969E+01  0.49413740430E+02  0.00000000000E+00 0.  1.
          1    1    3    3  501    0  0.38230669955E+02 -0.13066686739E+02 -0.97140630143E+03  0.97224612361E+03  0.00000000000E+00 0.  1.
         21    1    1    2  502  501  0.23988622363E+01 -0.14989358122E+02  0.85200686312E+01  0.17407669759E+02  0.00000000000E+00 0.  1.
<mgrwt>
<rscale>  1 0.30000000E+03</rscale>
<asrwt>0</asrwt>
<pdfrwt beam="1">  1        1 0.14206406E+00 0.30000000E+03</pdfrwt>
<pdfrwt beam="2">0</pdfrwt>
<totfact> 0.19735906E+01</totfact>
</mgrwt>
</event>
<event>
 6    1  0.1901260E-004  0.3000000E+03  0.7818608E-02  0.1093470E+00
          1   -1    0    0  502    0  0.00000000000E+00  0.00000000000E+00  0.35209487215E+02  0.35209487215E+02  0.00000000000E+00 0.  1.
         13   -1    0    0    0    0 -0.00000000000E+00 -0.00000000000E+00 -0.10000000000E+04  0.10000000000E+04  0.00000000000E+00 0.  1.
    9000005    2    1    2  501    0  0.63711068883E+01 -0.39963392042E+02 -0.93971682322E+03  0.98760325218E+03  0.30108937568E+03 0.  0.
         13    1    3    3    0    0  0.17025272546E+01  0.12394822167E+03 -0.25510944086E+03  0.28363160450E+03  0.00000000000E+00 0.  1.
          3    1    3    3  501    0  0.46685796338E+01 -0.16391161371E+03 -0.68460738237E+03  0.70397164768E+03  0.00000000000E+00 0.  1.
         21    1    1    2  502  501 -0.63711068883E+01  0.39963392042E+02 -0.25073689560E+02  0.47606235040E+02  0.00000000000E+00 0. -1.
<mgrwt>
<rscale>  1 0.30000000E+03</rscale>
<asrwt>0</asrwt>
<pdfrwt beam="1">  1        1 0.12803477E+00 0.30000000E+03</pdfrwt>
<pdfrwt beam="2">0</pdfrwt>
<totfact> 0.23452622E+01</totfact>
</mgrwt>
</event>
<event>
 6    1  0.1901260E-004  0.3000000E+03  0.7818608E-02  0.1093470E+00
          1   -1    0    0  502    0  0.00000000000E+00  0.00000000000E+00  0.39964425036E+02  0.39964425036E+02  0.00000000000E+00 0.  1.
         13   -1    0    0    0    0 -0.00000000000E+00 -0.00000000000E+00 -0.10000000000E+04  0.10000000000E+04  0.00000000000E+00 0.  1.
    9000005    2    1    2  501    0  0.18360058364E+02  0.14469614198E+02 -0.96028515234E+03  0.10165865773E+04  0.33279758677E+03 0.  0.
         13    1    3    3    0    0  0.97848536797E+02 -0.29530613835E+02 -0.75301659116E+02  0.12695169622E+03  0.00000000000E+00 0.  1.
          1    1    3    3  501    0 -0.79488478433E+02  0.44000228033E+02 -0.88498349323E+03  0.88963488103E+03  0.00000000000E+00 0.  1.
         21    1    1    2  502  501 -0.18360058364E+02 -0.14469614198E+02  0.24957737713E+00  0.23377847785E+02  0.00000000000E+00 0.  1.
<mgrwt>
<rscale>  1 0.30000000E+03</rscale>
<asrwt>0</asrwt>
<pdfrwt beam="1">  1        1 0.14532549E+00 0.30000000E+03</pdfrwt>
<pdfrwt beam="2">0</pdfrwt>
<totfact> 0.18982670E+01</totfact>
</mgrwt>
</event>
<event>
 6    1  0.1901260E-004  0.3000000E+03  0.7818608E-02  0.1093470E+00
          1   -1    0    0  502    0  0.00000000000E+00  0.00000000000E+00  0.36105056997E+02  0.36105056997E+02  0.00000000000E+00 0.  1.
         13   -1    0    0    0    0 -0.00000000000E+00 -0.00000000000E+00 -0.10000000000E+04  0.10000000000E+04  0.00000000000E+00 0.  1.
    9000005    2    1    2  501    0  0.86007098442E+01 -0.51934856549E+01 -0.97423879178E+03  0.10216849422E+04  0.30756780265E+03 0.  0.
         13    1    3    3    0    0 -0.36065617956E+02 -0.13476617280E+03 -0.26659754317E+03  0.30089350301E+03  0.00000000000E+00 0.  1.
          1    1    3    3  501    0  0.44666327801E+02  0.12957268714E+03 -0.70764124860E+03  0.72079143920E+03  0.00000000000E+00 0.  1.
         21    1    1    2  502  501 -0.86007098442E+01  0.51934856549E+01  0.10343848774E+02  0.14420114789E+02  0.00000000000E+00 0. -1.
<mgrwt>
<rscale>  1 0.30000000E+03</rscale>
<asrwt>0</asrwt>
<pdfrwt beam="1">  1        1 0.13129139E+00 0.30000000E+03</pdfrwt>
<pdfrwt beam="2">0</pdfrwt>
<totfact> 0.22513217E+01</totfact>
</mgrwt>
</event>
<event>
 6    1  0.1901260E-004  0.3000000E+03  0.7818608E-02  0.1093470E+00
          1   -1    0    0  502    0  0.00000000000E+00  0.00000000000E+00  0.31555053024E+02  0.31555053024E+02  0.00000000000E+00 0.  1.
         13   -1    0    0    0    0 -0.00000000000E+00 -0.00000000000E+00 -0.10000000000E+04  0.10000000000E+04  0.00000000000E+00 0.  1.
    9000005    2    1    2  501    0  0.26361255817E+02 -0.68692017249E+01 -0.90084472571E+03  0.95867232767E+03  0.32678633731E+03 0.  0.
         13    1    3    3    0    0  0.15370083148E+03 -0.87299417813E+02 -0.45878229270E+03  0.49165671565E+03  0.00000000000E+00 0.  1.
          1    1    3    3  501    0 -0.12733957566E+03  0.80430216088E+02 -0.44206243301E+03  0.46701561201E+03  0.00000000000E+00 0.  1.
         21    1    1    2  502  501 -0.26361255817E+02  0.68692017249E+01 -0.67600221265E+02  0.72882725359E+02  0.00000000000E+00 0. -1.
<mgrwt>
<rscale>  1 0.30000000E+03</rscale>
<asrwt>0</asrwt>
<pdfrwt beam="1">  1        1 0.11474589E+00 0.30000000E+03</pdfrwt>
<pdfrwt beam="2">0</pdfrwt>
<totfact> 0.27860489E+01</totfact>
</mgrwt>
</event>
<event>
 6    1  0.1901260E-004  0.3000000E+03  0.7818608E-02  0.1093470E+00
          1   -1    0    0  502    0  0.00000000000E+00  0.00000000000E+00  0.22930583249E+02  0.22930583249E+02  0.00000000000E+00 0.  1.
         13   -1    0    0    0    0 -0.00000000000E+00 -0.00000000000E+00 -0.10000000000E+04  0.10000000000E+04  0.00000000000E+00 0.  1.
    9000005    2    1    2  501    0 -0.29802272064E+01 -0.98313309082E+01 -0.97282818790E+03  0.10118164101E+04  0.27797882625E+03 0.  0.
         13    1    3    3    0    0 -0.10590454739E+02  0.13176380029E+03 -0.38253500663E+03  0.40473063647E+03  0.00000000000E+00 0.  1.
          1    1    3    3  501    0  0.76102275323E+01 -0.14159513120E+03 -0.59029318127E+03  0.60708577367E+03  0.00000000000E+00 0.  1.
         21    1    1    2  502  501  0.29802272064E+01  0.98313309082E+01 -0.42412288490E+01  0.11114173104E+02  0.00000000000E+00 0.  1.
<mgrwt>
<rscale>  1 0.30000000E+03</rscale>
<asrwt>0</asrwt>
<pdfrwt beam="1">  1        1 0.83384115E-01 0.30000000E+03</pdfrwt>
<pdfrwt beam="2">0</pdfrwt>
<totfact> 0.44341486E+01</totfact>
</mgrwt>
</event>
<event>
 6    1  0.1901260E-004  0.3000000E+03  0.7818608E-02  0.1093470E+00
          1   -1    0    0  502    0  0.00000000000E+00  0.00000000000E+00  0.30445285261E+02  0.30445285261E+02  0.00000000000E+00 0.  1.
         13   -1    0    0    0    0 -0.00000000000E+00 -0.00000000000E+00 -0.10000000000E+04  0.10000000000E+04  0.00000000000E+00 0.  1.
    9000005    2    1    2  501    0 -0.32576422504E+01  0.12619323016E+02 -0.95925074367E+03  0.10138310936E+04  0.32790492139E+03 0.  0.
         13    1    3    3    0    0  0.69071369394E+02 -0.14017164531E+03 -0.52774579359E+03  0.55039491901E+03  0.00000000000E+00 0.  1.
          3    1    3    3  501    0 -0.72329011645E+02  0.15279096833E+03 -0.43150495008E+03  0.46343617454E+03  0.00000000000E+00 0.  1.
         21    1    1    2  502  501  0.32576422504E+01 -0.12619323016E+02 -0.10303971067E+02  0.16614191710E+02  0.00000000000E+00 0. -1.
<mgrwt>
<rscale>  1 0.30000000E+03</rscale>
<asrwt>0</asrwt>
<pdfrwt beam="1">  1        1 0.11071036E+00 0.30000000E+03</pdfrwt>
<pdfrwt beam="2">0</pdfrwt>
<totfact> 0.29421988E+01</totfact>
</mgrwt>
</event>
<event>
 6    1  0.1901260E-004  0.3000000E+03  0.7818608E-02  0.1093470E+00
          1   -1    0    0  502    0  0.00000000000E+00  0.00000000000E+00  0.56468458405E+02  0.56468458405E+02  0.00000000000E+00 0.  1.
         13   -1    0    0    0    0 -0.00000000000E+00 -0.00000000000E+00 -0.10000000000E+04  0.10000000000E+04  0.00000000000E+00 0.  1.
    9000005    2    1    2  501    0 -0.10097613387E+02 -0.31996064863E+01 -0.97211977427E+03  0.10259809802E+04  0.32788399930E+03 0.  0.
         13    1    3    3    0    0  0.91146761098E+02  0.10675244648E+03 -0.71436572604E+03  0.72802624090E+03  0.00000000000E+00 0.  1.
          3    1    3    3  501    0 -0.10124437448E+03 -0.10995205297E+03 -0.25775404822E+03  0.29795473934E+03  0.00000000000E+00 0.  1.
         21    1    1    2  502  501  0.10097613387E+02  0.31996064863E+01  0.28588232674E+02  0.30487478171E+02  0.00000000000E+00 0.  1.
<mgrwt>
<rscale>  1 0.30000000E+03</rscale>
<asrwt>0</asrwt>
<pdfrwt beam="1">  1        1 0.20534028E+00 0.30000000E+03</pdfrwt>
<pdfrwt beam="2">0</pdfrwt>
<totfact> 0.96628470E+00</totfact>
</mgrwt>
</event>
<event>
 6    1  0.1901260E-004  0.3000000E+03  0.7818608E-02  0.1093470E+00
          1   -1    0    0  502    0  0.00000000000E+00  0.00000000000E+00  0.36052066065E+02  0.36052066065E+02  0.00000000000E+00 0.  1.
         13   -1    0    0    0    0 -0.00000000000E+00 -0.00000000000E+00 -0.10000000000E+04  0.10000000000E+04  0.00000000000E+00 0.  1.
    9000005    2    1    2  501    0 -0.19387764581E+02 -0.94300418541E+01 -0.87034924757E+03  0.94000246849E+03  0.35444607054E+03 0.  0.
         13    1    3    3    0    0 -0.13096754892E+03  0.60998288472E+01 -0.10939422671E+03  0.17075363428E+03  0.00000000000E+00 0.  1.
          3    1    3    3  501    0  0.11157978434E+03 -0.15529870701E+02 -0.76095502086E+03  0.76924883421E+03  0.00000000000E+00 0.  1.
         21    1    1    2  502  501  0.19387764581E+02  0.94300418541E+01 -0.93598686367E+02  0.96049597576E+02  0.00000000000E+00 0. -1.
<mgrwt>
<rscale>  1 0.30000000E+03</rscale>
<asrwt>0</asrwt>
<pdfrwt beam="1">  1        1 0.13109870E+00 0.30000000E+03</pdfrwt>
<pdfrwt beam="2">0</pdfrwt>
<totfact> 0.22567424E+01</totfact>
</mgrwt>
</event>
<event>
 6    1  0.1901260E-004  0.3000000E+03  0.7818608E-02  0.1093470E+00
          1   -1    0    0  502    0  0.00000000000E+00  0.00000000000E+00  0.38622060822E+02  0.38622060822E+02  0.00000000000E+00 0.  1.
         13   -1    0    0    0    0 -0.00000000000E+00 -0.00000000000E+00 -0.10000000000E+04  0.10000000000E+04  0.00000000000E+00 0.  1.
    9000005    2    1    2  501    0 -0.11040840346E+02 -0.39786436968E+01 -0.96735218420E+03  0.10254531062E+04  0.34006778008E+03 0.  0.
         13    1    3    3    0    0  0.16027493910E+03  0.92600704172E+01 -0.57779972942E+03  0.59968852943E+03  0.00000000000E+00 0.  1.
          1    1    3    3  501    0 -0.17131577945E+03 -0.13238714114E+02 -0.38955245478E+03  0.42576457681E+03  0.00000000000E+00 0.  1.
         21    1    1    2  502  501  0.11040840346E+02  0.39786436968E+01  0.59742450245E+01  0.13168954583E+02  0.00000000000E+00 0.  1.
<mgrwt>
<rscale>  1 0.30000000E+03</rscale>
<asrwt>0</asrwt>
<pdfrwt beam="1">  1        1 0.14044415E+00 0.30000000E+03</pdfrwt>
<pdfrwt beam="2">0</pdfrwt>
<totfact> 0.20124102E+01</totfact>
</mgrwt>
</event>
<event>
 6    1  0.1901260E-004  0.3000000E+03  0.7818608E-02  0.1093470E+00
          1   -1    0    0  502    0  0.00000000000E+00  0.00000000000E+00  0.32584386138E+02  0.32584386138E+02  0.00000000000E+00 0.  1.
         13   -1    0    0    0    0 -0.00000000000E+00 -0.00000000000E+00 -0.10000000000E+04  0.10000000000E+04  0.00000000000E+00 0.  1.
    9000005    2    1    2  501    0 -0.18652838629E+02 -0.37749442878E+01 -0.95971664749E+03  0.10120550735E+04  0.32068247501E+03 0.  0.
         13    1    3    3    0    0 -0.14875744790E+03 -0.23189578817E+02 -0.26313041196E+03  0.30315697019E+03  0.00000000000E+00 0.  1.
          3    1    3    3  501    0  0.13010460927E+03  0.19414634529E+02 -0.69658623553E+03  0.70889810334E+03  0.00000000000E+00 0.  1.
         21    1    1    2  502  501  0.18652838629E+02  0.37749442878E+01 -0.76989663742E+01  0.20529312617E+02  0.00000000000E+00 0.  1.
<mgrwt>
<rscale>  1 0.30000000E+03</rscale>
<asrwt>0</asrwt>
<pdfrwt beam="1">  1        1 0.11848893E+00 0.30000000E+03</pdfrwt>
<pdfrwt beam="2">0</pdfrwt>
<totfact> 0.26514291E+01</totfact>
</mgrwt>
</event>
<event>
 6    1  0.1901260E-004  0.3000000E+03  0.7818608E-02  0.1093470E+00
          3   -1    0    0  502    0  0.00000000000E+00  0.00000000000E+00  0.35875445413E+02  0.35875445413E+02  0.00000000000E+00 0.  1.
         13   -1    0    0    0    0 -0.00000000000E+00 -0.00000000000E+00 -0.10000000000E+04  0.10000000000E+04  0.00000000000E+00 0.  1.
    9000005    2    1    2  501    0  0.37677353875E+02  0.71279951221E+00 -0.91963939603E+03  0.97757432699E+03  0.32938557189E+03 0.  0.
         13    1    3    3    0    0  0.18341939039E+03  0.14778834618E+02 -0.47224000904E+03  0.50682513046E+03  0.00000000000E+00 0.  1.
          3    1    3    3  501    0 -0.14574203652E+03 -0.14066035106E+02 -0.44739938699E+03  0.47074919653E+03  0.00000000000E+00 0.  1.
         21    1    1    2  502  501 -0.37677353875E+02 -0.71279951221E+00 -0.44485158555E+02  0.58301118427E+02  0.00000000000E+00 0. -1.
<mgrwt>
<rscale>  1 0.30000000E+03</rscale>
<asrwt>0</asrwt>
<pdfrwt beam="1">  1        3 0.13045644E+00 0.30000000E+03</pdfrwt>
<pdfrwt beam="2">0</pdfrwt>
<totfact> 0.17477258E+00</totfact>
</mgrwt>
</event>
<event>
 6    1  0.1901260E-004  0.3000000E+03  0.7818608E-02  0.1093470E+00
          1   -1    0    0  502    0  0.00000000000E+00  0.00000000000E+00  0.35824654691E+02  0.35824654691E+02  0.00000000000E+00 0.  1.
         13   -1    0    0    0    0 -0.00000000000E+00 -0.00000000000E+00 -0.10000000000E+04  0.10000000000E+04  0.00000000000E+00 0.  1.
    9000005    2    1    2  501    0 -0.10156854578E+02  0.64250712294E+01 -0.96831085241E+03  0.10231145936E+04  0.33014106289E+03 0.  0.
         13    1    3    3    0    0  0.63872193041E+02 -0.40820983042E+02 -0.31321338339E+02  0.82018509714E+02  0.00000000000E+00 0.  1.
          1    1    3    3  501    0 -0.74029047620E+02  0.47246054271E+02 -0.93698951407E+03  0.94109608384E+03  0.00000000000E+00 0.  1.
         21    1    1    2  502  501  0.10156854578E+02 -0.64250712294E+01  0.41355070988E+01  0.12710061141E+02  0.00000000000E+00 0.  1.
<mgrwt>
<rscale>  1 0.30000000E+03</rscale>
<asrwt>0</asrwt>
<pdfrwt beam="1">  1        1 0.13027175E+00 0.30000000E+03</pdfrwt>
<pdfrwt beam="2">0</pdfrwt>
<totfact> 0.22802001E+01</totfact>
</mgrwt>
</event>
<event>
 6    1  0.1901260E-004  0.3000000E+03  0.7818608E-02  0.1093470E+00
          1   -1    0    0  502    0  0.00000000000E+00  0.00000000000E+00  0.53816619576E+02  0.53816619576E+02  0.00000000000E+00 0.  1.
         13   -1    0    0    0    0 -0.00000000000E+00 -0.00000000000E+00 -0.10000000000E+04  0.10000000000E+04  0.00000000000E+00 0.  1.
    9000005    2    1    2  501    0 -0.44333933266E+02  0.34204423789E+02 -0.93115478362E+03  0.99583990901E+03  0.34858636388E+03 0.  0.
         13    1    3    3    0    0  0.12594170331E+03  0.36207185174E+02 -0.16354798428E+03  0.20957150583E+03  0.00000000000E+00 0.  1.
          3    1    3    3  501    0 -0.17027563658E+03 -0.20027613849E+01 -0.76760679933E+03  0.78626840319E+03  0.00000000000E+00 0.  1.
         21    1    1    2  502  501  0.44333933266E+02 -0.34204423789E+02 -0.15028596808E+02  0.57976710562E+02  0.00000000000E+00 0.  1.
<mgrwt>
<rscale>  1 0.30000000E+03</rscale>
<asrwt>0</asrwt>
<pdfrwt beam="1">  1        1 0.19569721E+00 0.30000000E+03</pdfrwt>
<pdfrwt beam="2">0</pdfrwt>
<totfact> 0.10738103E+01</totfact>
</mgrwt>
</event>
<event>
 6    1  0.1901260E-004  0.3000000E+03  0.7818608E-02  0.1093470E+00
          1   -1    0    0  502    0  0.00000000000E+00  0.00000000000E+00  0.27097227717E+02  0.27097227717E+02  0.00000000000E+00 0.  1.
         13   -1    0    0    0    0 -0.00000000000E+00 -0.00000000000E+00 -0.10000000000E+04  0.10000000000E+04  0.00000000000E+00 0.  1.
    9000005    2    1    2  501    0 -0.18846826453E+02 -0.48643804370E+01 -0.95618222796E+03  0.10014371095E+04  0.29700667695E+03 0.  0.
         13    1    3    3    0    0  0.18238725216E+01 -0.15023970107E+03 -0.51413852983E+03  0.53564327881E+03  0.00000000000E+00 0.  1.
          3    1    3    3  501    0 -0.20670698975E+02  0.14537532063E+03 -0.44204369814E+03  0.46579383069E+03  0.00000000000E+00 0.  1.
         21    1    1    2  502  501  0.18846826453E+02  0.48643804370E+01 -0.16720544322E+02  0.25660118215E+02  0.00000000000E+00 0.  1.
<mgrwt>
<rscale>  1 0.30000000E+03</rscale>
<asrwt>0</asrwt>
<pdfrwt beam="1">  1        1 0.98535581E-01 0.30000000E+03</pdfrwt>
<pdfrwt beam="2">0</pdfrwt>
<totfact> 0.34971525E+01</totfact>
</mgrwt>
</event>
<event>
 6    1  0.1901260E-004  0.3000000E+03  0.7818608E-02  0.1093470E+00
          1   -1    0    0  502    0  0.00000000000E+00  0.00000000000E+00  0.36585050592E+02  0.36585050592E+02  0.00000000000E+00 0.  1.
         13   -1    0    0    0    0 -0.00000000000E+00 -0.00000000000E+00 -0.10000000000E+04  0.10000000000E+04  0.00000000000E+00 0.  1.
    9000005    2    1    2  501    0  0.60751435500E+02 -0.16952677311E+02 -0.86883335862E+03  0.92290212531E+03  0.30479304073E+03 0.  0.
         13    1    3    3    0    0 -0.84266001577E+02 -0.10619124907E+03 -0.47195862988E+03  0.49104204374E+03  0.00000000000E+00 0.  1.
          3    1    3    3  501    0  0.14501743708E+03  0.89238571764E+02 -0.39687472874E+03  0.43186008158E+03  0.00000000000E+00 0.  1.
         21    1    1    2  502  501 -0.60751435500E+02  0.16952677311E+02 -0.94581590791E+02  0.11368292528E+03  0.00000000000E+00 0.  1.
<mgrwt>
<rscale>  1 0.30000000E+03</rscale>
<asrwt>0</asrwt>
<pdfrwt beam="1">  1        1 0.13303683E+00 0.30000000E+03</pdfrwt>
<pdfrwt beam="2">0</pdfrwt>
<totfact> 0.22029896E+01</totfact>
</mgrwt>
</event>
<event>
 6    1  0.1901260E-004  0.3000000E+03  0.7818608E-02  0.1093470E+00
          1   -1    0    0  502    0  0.00000000000E+00  0.00000000000E+00  0.28568064496E+02  0.28568064496E+02  0.00000000000E+00 0.  1.
         13   -1    0    0    0    0 -0.00000000000E+00 -0.00000000000E+00 -0.10000000000E+04  0.10000000000E+04  0.00000000000E+00 0.  1.
    9000005    2    1    2  501    0  0.19194147486E+02  0.51459647465E+01 -0.93516928902E+03  0.98721742024E+03  0.31569247605E+03 0.  0.
         13    1    3    3    0    0  0.83162227795E+02  0.13333093671E+03 -0.64153234505E+03  0.66049742207E+03  0.00000000000E+00 0.  1.
          1    1    3    3  501    0 -0.63968080309E+02 -0.12818497197E+03 -0.29363694398E+03  0.32671999817E+03  0.00000000000E+00 0.  1.
         21    1    1    2  502  501 -0.19194147486E+02 -0.51459647465E+01 -0.36262646479E+02  0.41350644258E+02  0.00000000000E+00 0.  1.
<mgrwt>
<rscale>  1 0.30000000E+03</rscale>
<asrwt>0</asrwt>
<pdfrwt beam="1">  1        1 0.10388409E+00 0.30000000E+03</pdfrwt>
<pdfrwt beam="2">0</pdfrwt>
<totfact> 0.32361312E+01</totfact>
</mgrwt>
</event>
<event>
 6    1  0.1901260E-004  0.3000000E+03  0.7818608E-02  0.1093470E+00
          3   -1    0    0  502    0  0.00000000000E+00  0.00000000000E+00  0.28503014477E+02  0.28503014477E+02  0.00000000000E+00 0.  1.
         13   -1    0    0    0    0 -0.00000000000E+00 -0.00000000000E+00 -0.10000000000E+04  0.10000000000E+04  0.00000000000E+00 0.  1.
    9000005    2    1    2  501    0 -0.58361019096E+01 -0.15969508899E+02 -0.93270817888E+03  0.98615142867E+03  0.31978275127E+03 0.  0.
         13    1    3    3    0    0 -0.14539033616E+03  0.61058788522E+02 -0.39498763130E+03  0.42530195671E+03  0.00000000000E+00 0.  1.
          1    1    3    3  501    0  0.13955423425E+03 -0.77028297421E+02 -0.53772054758E+03  0.56084947195E+03  0.00000000000E+00 0.  1.
         21    1    1    2  502  501  0.58361019096E+01  0.15969508899E+02 -0.38788806641E+02  0.42351585810E+02  0.00000000000E+00 0.  1.
<mgrwt>
<rscale>  1 0.30000000E+03</rscale>
<asrwt>0</asrwt>
<pdfrwt beam="1">  1        3 0.10364754E+00 0.30000000E+03</pdfrwt>
<pdfrwt beam="2">0</pdfrwt>
<totfact> 0.35597655E+00</totfact>
</mgrwt>
</event>
<event>
 6    1  0.1901260E-004  0.3000000E+03  0.7818608E-02  0.1093470E+00
          1   -1    0    0  502    0  0.00000000000E+00  0.00000000000E+00  0.34937713793E+02  0.34937713793E+02  0.00000000000E+00 0.  1.
         13   -1    0    0    0    0 -0.00000000000E+00 -0.00000000000E+00 -0.10000000000E+04  0.10000000000E+04  0.00000000000E+00 0.  1.
    9000005    2    1    2  501    0 -0.20332169498E+02 -0.35453833089E+01 -0.95381685721E+03  0.10114339581E+04  0.33586617513E+03 0.  0.
         13    1    3    3    0    0 -0.91792295348E+02 -0.96347842809E+02 -0.15592534362E+03  0.20499132929E+03  0.00000000000E+00 0.  1.
          3    1    3    3  501    0  0.71460125850E+02  0.92802459500E+02 -0.79789151359E+03  0.80644262879E+03  0.00000000000E+00 0.  1.
         21    1    1    2  502  501  0.20332169498E+02  0.35453833089E+01 -0.11245428993E+02  0.23503755711E+02  0.00000000000E+00 0.  1.
<mgrwt>
<rscale>  1 0.30000000E+03</rscale>
<asrwt>0</asrwt>
<pdfrwt beam="1">  1        1 0.12704650E+00 0.30000000E+03</pdfrwt>
<pdfrwt beam="2">0</pdfrwt>
<totfact> 0.23747684E+01</totfact>
</mgrwt>
</event>
<event>
 6    1  0.1901260E-004  0.3000000E+03  0.7818608E-02  0.1093470E+00
          1   -1    0    0  502    0  0.00000000000E+00  0.00000000000E+00  0.40919062844E+02  0.40919062844E+02  0.00000000000E+00 0.  1.
         13   -1    0    0    0    0 -0.00000000000E+00 -0.00000000000E+00 -0.10000000000E+04  0.10000000000E+04  0.00000000000E+00 0.  1.
    9000005    2    1    2  501    0 -0.31582712604E+02 -0.11703245730E+02 -0.95119718461E+03  0.10063273406E+04  0.32677851623E+03 0.  0.
         13    1    3    3    0    0 -0.99609470118E+02 -0.14222366206E+03 -0.62087187507E+03  0.64469489051E+03  0.00000000000E+00 0.  1.
          3    1    3    3  501    0  0.68026757514E+02  0.13052041633E+03 -0.33032530953E+03  0.36163245006E+03  0.00000000000E+00 0.  1.
         21    1    1    2  502  501  0.31582712604E+02  0.11703245730E+02 -0.78837525504E+01  0.34591722280E+02  0.00000000000E+00 0. -1.
<mgrwt>
<rscale>  1 0.30000000E+03</rscale>
<asrwt>0</asrwt>
<pdfrwt beam="1">  1        1 0.14879691E+00 0.30000000E+03</pdfrwt>
<pdfrwt beam="2">0</pdfrwt>
<totfact> 0.18220237E+01</totfact>
</mgrwt>
</event>
<event>
 6    1  0.1901260E-004  0.3000000E+03  0.7818608E-02  0.1093470E+00
          1   -1    0    0  502    0  0.00000000000E+00  0.00000000000E+00  0.37120393477E+02  0.37120393477E+02  0.00000000000E+00 0.  1.
         13   -1    0    0    0    0 -0.00000000000E+00 -0.00000000000E+00 -0.10000000000E+04  0.10000000000E+04  0.00000000000E+00 0.  1.
    9000005    2    1    2  501    0 -0.18412499436E+02 -0.12486387671E+02 -0.95919850936E+03  0.10145708815E+04  0.32984445317E+03 0.  0.
         13    1    3    3    0    0 -0.10890314957E+02 -0.10296522670E+03 -0.80387261150E+02  0.13108222085E+03  0.00000000000E+00 0.  1.
          3    1    3    3  501    0 -0.75221844791E+01  0.90478839027E+02 -0.87881124821E+03  0.88348866068E+03  0.00000000000E+00 0.  1.
         21    1    1    2  502  501  0.18412499436E+02  0.12486387671E+02 -0.36810971645E+01  0.22549511943E+02  0.00000000000E+00 0.  1.
<mgrwt>
<rscale>  1 0.30000000E+03</rscale>
<asrwt>0</asrwt>
<pdfrwt beam="1">  1        1 0.13498353E+00 0.30000000E+03</pdfrwt>
<pdfrwt beam="2">0</pdfrwt>
<totfact> 0.21506863E+01</totfact>
</mgrwt>
</event>
<event>
 6    1  0.1901260E-004  0.3000000E+03  0.7818608E-02  0.1093470E+00
          1   -1    0    0  502    0  0.00000000000E+00  0.00000000000E+00  0.43466344708E+02  0.43466344708E+02  0.00000000000E+00 0.  1.
         13   -1    0    0    0    0 -0.00000000000E+00 -0.00000000000E+00 -0.10000000000E+04  0.10000000000E+04  0.00000000000E+00 0.  1.
    9000005    2    1    2  501    0  0.43709495529E+02 -0.12645907255E+02 -0.94290319985E+03  0.99596657328E+03  0.31750989252E+03 0.  0.
         13    1    3    3    0    0  0.17847886408E+03 -0.40656738544E+02 -0.54715253925E+03  0.57696063689E+03  0.00000000000E+00 0.  1.
          1    1    3    3  501    0 -0.13476936855E+03  0.28010831289E+02 -0.39575066060E+03  0.41900593640E+03  0.00000000000E+00 0.  1.
         21    1    1    2  502  501 -0.43709495529E+02  0.12645907255E+02 -0.13630455443E+02  0.47499771423E+02  0.00000000000E+00 0. -1.
<mgrwt>
<rscale>  1 0.30000000E+03</rscale>
<asrwt>0</asrwt>
<pdfrwt beam="1">  1        1 0.15805977E+00 0.30000000E+03</pdfrwt>
<pdfrwt beam="2">0</pdfrwt>
<totfact> 0.16362870E+01</totfact>
</mgrwt>
</event>
<event>
 6    1  0.1901260E-004  0.3000000E+03  0.7818608E-02  0.1093470E+00
          1   -1    0    0  502    0  0.00000000000E+00  0.00000000000E+00  0.33850763173E+02  0.33850763173E+02  0.00000000000E+00 0.  1.
         13   -1    0    0    0    0 -0.00000000000E+00 -0.00000000000E+00 -0.10000000000E+04  0.10000000000E+04  0.00000000000E+00 0.  1.
    9000005    2    1    2  501    0  0.12164477974E+02  0.75463964446E+01 -0.96499904633E+03  0.10194895111E+04  0.32852820448E+03 0.  0.
         13    1    3    3    0    0  0.13732827900E+03 -0.17010069300E+02 -0.19565627530E+03  0.23964510580E+03  0.00000000000E+00 0.  1.
          1    1    3    3  501    0 -0.12516380102E+03  0.24556465745E+02 -0.76934277103E+03  0.77984440527E+03  0.00000000000E+00 0.  1.
         21    1    1    2  502  501 -0.12164477974E+02 -0.75463964446E+01 -0.11501904930E+01  0.14361252099E+02  0.00000000000E+00 0.  1.
<mgrwt>
<rscale>  1 0.30000000E+03</rscale>
<asrwt>0</asrwt>
<pdfrwt beam="1">  1        1 0.12309394E+00 0.30000000E+03</pdfrwt>
<pdfrwt beam="2">0</pdfrwt>
<totfact> 0.24976268E+01</totfact>
</mgrwt>
</event>
<event>
 6    1  0.1901260E-004  0.3000000E+03  0.7818608E-02  0.1093470E+00
          1   -1    0    0  502    0  0.00000000000E+00  0.00000000000E+00  0.39423580330E+02  0.39423580330E+02  0.00000000000E+00 0.  1.
         13   -1    0    0    0    0 -0.00000000000E+00 -0.00000000000E+00 -0.10000000000E+04  0.10000000000E+04  0.00000000000E+00 0.  1.
    9000005    2    1    2  501    0  0.50520610124E+01  0.27960897095E+02 -0.95595358111E+03  0.10106363310E+04  0.32669742765E+03 0.  0.
         13    1    3    3    0    0  0.25150270504E+02 -0.14369850803E+03 -0.55835413216E+03  0.57709716185E+03  0.00000000000E+00 0.  1.
          3    1    3    3  501    0 -0.20098209491E+02  0.17165940512E+03 -0.39759944895E+03  0.43353916916E+03  0.00000000000E+00 0.  1.
         21    1    1    2  502  501 -0.50520610124E+01 -0.27960897095E+02 -0.46228385557E+01  0.28787249315E+02  0.00000000000E+00 0.  1.
<mgrwt>
<rscale>  1 0.30000000E+03</rscale>
<asrwt>0</asrwt>
<pdfrwt beam="1">  1        1 0.14335878E+00 0.30000000E+03</pdfrwt>
<pdfrwt beam="2">0</pdfrwt>
<totfact> 0.19432446E+01</totfact>
</mgrwt>
</event>
<event>
 6    1  0.1901260E-004  0.3000000E+03  0.7818608E-02  0.1093470E+00
          1   -1    0    0  502    0  0.00000000000E+00  0.00000000000E+00  0.44270159404E+02  0.44270159404E+02  0.00000000000E+00 0.  1.
         13   -1    0    0    0    0 -0.00000000000E+00 -0.00000000000E+00 -0.10000000000E+04  0.10000000000E+04  0.00000000000E+00 0.  1.
    9000005    2    1    2  501    0  0.58684610596E+02  0.19737532507E+01 -0.91312153524E+03  0.97172192091E+03  0.32711584224E+03 0.  0.
         13    1    3    3    0    0  0.17029643811E+03  0.44482595406E+02 -0.74491660177E+03  0.76542819501E+03  0.00000000000E+00 0.  1.
          1    1    3    3  501    0 -0.11161182752E+03 -0.42508842156E+02 -0.16820493347E+03  0.20629372590E+03  0.00000000000E+00 0.  1.
         21    1    1    2  502  501 -0.58684610596E+02 -0.19737532507E+01 -0.42608305358E+02  0.72548238491E+02  0.00000000000E+00 0.  1.
<mgrwt>
<rscale>  1 0.30000000E+03</rscale>
<asrwt>0</asrwt>
<pdfrwt beam="1">  1        1 0.16098274E+00 0.30000000E+03</pdfrwt>
<pdfrwt beam="2">0</pdfrwt>
<totfact> 0.15824322E+01</totfact>
</mgrwt>
</event>
<event>
 6    1  0.1901260E-004  0.3000000E+03  0.7818608E-02  0.1093470E+00
          1   -1    0    0  502    0  0.00000000000E+00  0.00000000000E+00  0.32573221895E+02  0.32573221895E+02  0.00000000000E+00 0.  1.
         13   -1    0    0    0    0 -0.00000000000E+00 -0.00000000000E+00 -0.10000000000E+04  0.10000000000E+04  0.00000000000E+00 0.  1.
    9000005    2    1    2  501    0  0.32023302923E+02 -0.55196456453E+01 -0.90672942279E+03  0.96372463904E+03  0.32488609594E+03 0.  0.
         13    1    3    3    0    0 -0.47325137539E+02 -0.21550671989E+02 -0.87536679970E+03  0.87690999203E+03  0.00000000000E+00 0.  1.
          3    1    3    3  501    0  0.79348440463E+02  0.16031026344E+02 -0.31362623092E+02  0.86814647017E+02  0.00000000000E+00 0.  1.
         21    1    1    2  502  501 -0.32023302923E+02  0.55196456453E+01 -0.60697355317E+02  0.68848582851E+02  0.00000000000E+00 0.  1.
<mgrwt>
<rscale>  1 0.30000000E+03</rscale>
<asrwt>0</asrwt>
<pdfrwt beam="1">  1        1 0.11844833E+00 0.30000000E+03</pdfrwt>
<pdfrwt beam="2">0</pdfrwt>
<totfact> 0.26528407E+01</totfact>
</mgrwt>
</event>
<event>
 6    1  0.1901260E-004  0.3000000E+03  0.7818608E-02  0.1093470E+00
          1   -1    0    0  502    0  0.00000000000E+00  0.00000000000E+00  0.10775960760E+03  0.10775960760E+03  0.00000000000E+00 0.  1.
         13   -1    0    0    0    0 -0.00000000000E+00 -0.00000000000E+00 -0.10000000000E+04  0.10000000000E+04  0.00000000000E+00 0.  1.
    9000005    2    1    2  501    0 -0.15856833333E+03  0.16455525732E+03 -0.72284522967E+03  0.82330034829E+03  0.32108548456E+03 0.  0.
         13    1    3    3    0    0 -0.15239394765E+02 -0.69538549979E+02 -0.28522966886E+02  0.76690343107E+02  0.00000000000E+00 0.  1.
          3    1    3    3  501    0 -0.14332893857E+03  0.23409380730E+03 -0.69432226278E+03  0.74661000518E+03  0.00000000000E+00 0.  1.
         21    1    1    2  502  501  0.15856833333E+03 -0.16455525732E+03 -0.16939516273E+03  0.28445925931E+03  0.00000000000E+00 0.  1.
<mgrwt>
<rscale>  1 0.30000000E+03</rscale>
<asrwt>0</asrwt>
<pdfrwt beam="1">  1        1 0.39185394E+00 0.30000000E+03</pdfrwt>
<pdfrwt beam="2">0</pdfrwt>
<totfact> 0.11708554E+00</totfact>
</mgrwt>
</event>
<event>
 6    1  0.1901260E-004  0.3000000E+03  0.7818608E-02  0.1093470E+00
          1   -1    0    0  502    0  0.00000000000E+00  0.00000000000E+00  0.48487392807E+02  0.48487392807E+02  0.00000000000E+00 0.  1.
         13   -1    0    0    0    0 -0.00000000000E+00 -0.00000000000E+00 -0.10000000000E+04  0.10000000000E+04  0.00000000000E+00 0.  1.
    9000005    2    1    2  501    0 -0.27078710763E+02  0.61353430827E+01 -0.94721084536E+03  0.10203910556E+04  0.37844236246E+03 0.  0.
         13    1    3    3    0    0  0.50574925245E+02  0.17315320796E+03 -0.32756625094E+03  0.37395120704E+03  0.00000000000E+00 0.  1.
          3    1    3    3  501    0 -0.77653636008E+02 -0.16701786488E+03 -0.61964459442E+03  0.64643984853E+03  0.00000000000E+00 0.  1.
         21    1    1    2  502  501  0.27078710763E+02 -0.61353430827E+01 -0.43017618330E+01  0.28096337238E+02  0.00000000000E+00 0.  1.
<mgrwt>
<rscale>  1 0.30000000E+03</rscale>
<asrwt>0</asrwt>
<pdfrwt beam="1">  1        1 0.17631816E+00 0.30000000E+03</pdfrwt>
<pdfrwt beam="2">0</pdfrwt>
<totfact> 0.13310170E+01</totfact>
</mgrwt>
</event>
<event>
 6    1  0.1901260E-004  0.3000000E+03  0.7818608E-02  0.1093470E+00
          1   -1    0    0  502    0  0.00000000000E+00  0.00000000000E+00  0.26903534378E+02  0.26903534378E+02  0.00000000000E+00 0.  1.
         13   -1    0    0    0    0 -0.00000000000E+00 -0.00000000000E+00 -0.10000000000E+04  0.10000000000E+04  0.00000000000E+00 0.  1.
    9000005    2    1    2  501    0  0.77665318654E+01  0.80965418000E+01 -0.96236409389E+03  0.10113775301E+04  0.31082790438E+03 0.  0.
         13    1    3    3    0    0 -0.48721405130E+02  0.77657173574E+02 -0.72142453324E+02  0.11665738509E+03  0.00000000000E+00 0.  1.
          3    1    3    3  501    0  0.56487936995E+02 -0.69560631774E+02 -0.89022164057E+03  0.89472014499E+03  0.00000000000E+00 0.  1.
         21    1    1    2  502  501 -0.77665318654E+01 -0.80965418000E+01 -0.10732371728E+02  0.15526004291E+02  0.00000000000E+00 0.  1.
<mgrwt>
<rscale>  1 0.30000000E+03</rscale>
<asrwt>0</asrwt>
<pdfrwt beam="1">  1        1 0.97831240E-01 0.30000000E+03</pdfrwt>
<pdfrwt beam="2">0</pdfrwt>
<totfact> 0.35338187E+01</totfact>
</mgrwt>
</event>
<event>
 6    1  0.1901260E-004  0.3000000E+03  0.7818608E-02  0.1093470E+00
          1   -1    0    0  502    0  0.00000000000E+00  0.00000000000E+00  0.30981689423E+02  0.30981689423E+02  0.00000000000E+00 0.  1.
         13   -1    0    0    0    0 -0.00000000000E+00 -0.00000000000E+00 -0.10000000000E+04  0.10000000000E+04  0.00000000000E+00 0.  1.
    9000005    2    1    2  501    0 -0.12390795156E+02 -0.48750061728E+01 -0.95688003923E+03  0.10129640558E+04  0.33211364229E+03 0.  0.
         13    1    3    3    0    0 -0.12665126916E+03 -0.84599421535E+02 -0.25203791795E+03  0.29448381651E+03  0.00000000000E+00 0.  1.
          1    1    3    3  501    0  0.11426047401E+03  0.79724415362E+02 -0.70484212128E+03  0.71848023930E+03  0.00000000000E+00 0.  1.
         21    1    1    2  502  501  0.12390795156E+02  0.48750061728E+01 -0.12138271348E+02  0.18017633616E+02  0.00000000000E+00 0.  1.
<mgrwt>
<rscale>  1 0.30000000E+03</rscale>
<asrwt>0</asrwt>
<pdfrwt beam="1">  1        1 0.11266093E+00 0.30000000E+03</pdfrwt>
<pdfrwt beam="2">0</pdfrwt>
<totfact> 0.28652109E+01</totfact>
</mgrwt>
</event>
<event>
 6    1  0.1901260E-004  0.3000000E+03  0.7818608E-02  0.1093470E+00
          1   -1    0    0  502    0  0.00000000000E+00  0.00000000000E+00  0.39603363626E+02  0.39603363626E+02  0.00000000000E+00 0.  1.
         13   -1    0    0    0    0 -0.00000000000E+00 -0.00000000000E+00 -0.10000000000E+04  0.10000000000E+04  0.00000000000E+00 0.  1.
    9000005    2    1    2  501    0  0.61273646946E+02 -0.24109112401E+02 -0.74143174109E+03  0.81095224406E+03  0.32184904279E+03 0.  0.
         13    1    3    3    0    0 -0.51642902886E+01 -0.15564582430E+03 -0.53577519618E+03  0.55794923905E+03  0.00000000000E+00 0.  1.
          1    1    3    3  501    0  0.66437937235E+02  0.13153671190E+03 -0.20565654491E+03  0.25300300502E+03  0.00000000000E+00 0.  1.
         21    1    1    2  502  501 -0.61273646946E+02  0.24109112401E+02 -0.21896489528E+03  0.22865111956E+03  0.00000000000E+00 0.  1.
<mgrwt>
<rscale>  1 0.30000000E+03</rscale>
<asrwt>0</asrwt>
<pdfrwt beam="1">  1        1 0.14401254E+00 0.30000000E+03</pdfrwt>
<pdfrwt beam="2">0</pdfrwt>
<totfact> 0.19281458E+01</totfact>
</mgrwt>
</event>
<event>
 6    1  0.1901260E-004  0.3000000E+03  0.7818608E-02  0.1093470E+00
          3   -1    0    0  502    0  0.00000000000E+00  0.00000000000E+00  0.29799766900E+02  0.29799766900E+02  0.00000000000E+00 0.  1.
         13   -1    0    0    0    0 -0.00000000000E+00 -0.00000000000E+00 -0.10000000000E+04  0.10000000000E+04  0.00000000000E+00 0.  1.
    9000005    2    1    2  501    0  0.24636925910E+01 -0.16554114656E+02 -0.95039170982E+03  0.10038674302E+04  0.32283944429E+03 0.  0.
         13    1    3    3    0    0  0.65990966607E+02  0.10991284135E+03 -0.73529095035E+03  0.74638356228E+03  0.00000000000E+00 0.  1.
          3    1    3    3  501    0 -0.63527274016E+02 -0.12646695601E+03 -0.21510075947E+03  0.25748386790E+03  0.00000000000E+00 0.  1.
         21    1    1    2  502  501 -0.24636925910E+01  0.16554114656E+02 -0.19808523279E+02  0.25932336719E+02  0.00000000000E+00 0.  1.
<mgrwt>
<rscale>  1 0.30000000E+03</rscale>
<asrwt>0</asrwt>
<pdfrwt beam="1">  1        3 0.10836302E+00 0.30000000E+03</pdfrwt>
<pdfrwt beam="2">0</pdfrwt>
<totfact> 0.31458652E+00</totfact>
</mgrwt>
</event>
<event>
 6    1  0.1901260E-004  0.3000000E+03  0.7818608E-02  0.1093470E+00
          1   -1    0    0  502    0  0.00000000000E+00  0.00000000000E+00  0.58488913201E+02  0.58488913201E+02  0.00000000000E+00 0.  1.
         13   -1    0    0    0    0 -0.00000000000E+00 -0.00000000000E+00 -0.10000000000E+04  0.10000000000E+04  0.00000000000E+00 0.  1.
    9000005    2    1    2  501    0 -0.13035828195E+02 -0.77738425688E+01 -0.94038055748E+03  0.10432690728E+04  0.45151345488E+03 0.  0.
         13    1    3    3    0    0  0.13174132894E+03  0.13198794245E+02 -0.50913792374E+02  0.14185274116E+03  0.00000000000E+00 0.  1.
          3    1    3    3  501    0 -0.14477715714E+03 -0.20972636814E+02 -0.88946676511E+03  0.90141633165E+03  0.00000000000E+00 0.  1.
         21    1    1    2  502  501  0.13035828195E+02  0.77738425688E+01 -0.11305293149E+01  0.15219840392E+02  0.00000000000E+00 0. -1.
<mgrwt>
<rscale>  1 0.30000000E+03</rscale>
<asrwt>0</asrwt>
<pdfrwt beam="1">  1        1 0.21268741E+00 0.30000000E+03</pdfrwt>
<pdfrwt beam="2">0</pdfrwt>
<totfact> 0.89215381E+00</totfact>
</mgrwt>
</event>
<event>
 6    1  0.1901260E-004  0.3000000E+03  0.7818608E-02  0.1093470E+00
          1   -1    0    0  502    0  0.00000000000E+00  0.00000000000E+00  0.76392295020E+02  0.76392295020E+02  0.00000000000E+00 0.  1.
         13   -1    0    0    0    0 -0.00000000000E+00 -0.00000000000E+00 -0.10000000000E+04  0.10000000000E+04  0.00000000000E+00 0.  1.
    9000005    2    1    2  501    0 -0.73038607544E+02 -0.13369226032E+03 -0.80900774014E+03  0.88575806252E+03  0.32690298721E+03 0.  0.
         13    1    3    3    0    0  0.31751929112E+02 -0.16888119878E+03 -0.72982659507E+03  0.74978390432E+03  0.00000000000E+00 0.  1.
          1    1    3    3  501    0 -0.10479053666E+03  0.35188938467E+02 -0.79181145072E+02  0.13597415820E+03  0.00000000000E+00 0.  1.
         21    1    1    2  502  501  0.73038607544E+02  0.13369226032E+03 -0.11459996484E+03  0.19063423250E+03  0.00000000000E+00 0.  1.
<mgrwt>
<rscale>  1 0.30000000E+03</rscale>
<asrwt>0</asrwt>
<pdfrwt beam="1">  1        1 0.27779075E+00 0.30000000E+03</pdfrwt>
<pdfrwt beam="2">0</pdfrwt>
<totfact> 0.44218005E+00</totfact>
</mgrwt>
</event>
<event>
 6    1  0.1901260E-004  0.3000000E+03  0.7818608E-02  0.1093470E+00
          1   -1    0    0  502    0  0.00000000000E+00  0.00000000000E+00  0.22316795975E+02  0.22316795975E+02  0.00000000000E+00 0.  1.
         13   -1    0    0    0    0 -0.00000000000E+00 -0.00000000000E+00 -0.10000000000E+04  0.10000000000E+04  0.00000000000E+00 0.  1.
    9000005    2    1    2  501    0  0.67494981788E+01 -0.42360779382E+01 -0.95368515636E+03  0.99703030999E+03  0.29067260188E+03 0.  0.
         13    1    3    3    0    0  0.89969844529E+01 -0.31042654095E+02 -0.96663484847E+03  0.96717502159E+03  0.00000000000E+00 0.  1.
          3    1    3    3  501    0 -0.22474862741E+01  0.26806576157E+02  0.12949692108E+02  0.29855288401E+02  0.00000000000E+00 0.  1.
         21    1    1    2  502  501 -0.67494981788E+01  0.42360779382E+01 -0.23998047664E+02  0.25286485988E+02  0.00000000000E+00 0. -1.
<mgrwt>
<rscale>  1 0.30000000E+03</rscale>
<asrwt>0</asrwt>
<pdfrwt beam="1">  1        1 0.81152156E-01 0.30000000E+03</pdfrwt>
<pdfrwt beam="2">0</pdfrwt>
<totfact> 0.46045252E+01</totfact>
</mgrwt>
</event>
<event>
 6    1  0.1901260E-004  0.3000000E+03  0.7818608E-02  0.1093470E+00
          1   -1    0    0  502    0  0.00000000000E+00  0.00000000000E+00  0.35071184184E+02  0.35071184184E+02  0.00000000000E+00 0.  1.
         13   -1    0    0    0    0 -0.00000000000E+00 -0.00000000000E+00 -0.10000000000E+04  0.10000000000E+04  0.00000000000E+00 0.  1.
    9000005    2    1    2  501    0  0.13612226763E+02 -0.14431867141E+02 -0.96246498140E+03  0.10150801365E+04  0.32195538763E+03 0.  0.
         13    1    3    3    0    0 -0.81757743676E+02  0.23372934979E+02 -0.53758924616E+02  0.10060141508E+03  0.00000000000E+00 0.  1.
          3    1    3    3  501    0  0.95369970439E+02 -0.37804802120E+02 -0.90870605679E+03  0.91447872144E+03  0.00000000000E+00 0.  1.
         21    1    1    2  502  501 -0.13612226763E+02  0.14431867141E+02 -0.24638344123E+01  0.19991047663E+02  0.00000000000E+00 0.  1.
<mgrwt>
<rscale>  1 0.30000000E+03</rscale>
<asrwt>0</asrwt>
<pdfrwt beam="1">  1        1 0.12753185E+00 0.30000000E+03</pdfrwt>
<pdfrwt beam="2">0</pdfrwt>
<totfact> 0.23602184E+01</totfact>
</mgrwt>
</event>
<event>
 6    1  0.1901260E-004  0.3000000E+03  0.7818608E-02  0.1093470E+00
          1   -1    0    0  502    0  0.00000000000E+00  0.00000000000E+00  0.37566363289E+02  0.37566363289E+02  0.00000000000E+00 0.  1.
         13   -1    0    0    0    0 -0.00000000000E+00 -0.00000000000E+00 -0.10000000000E+04  0.10000000000E+04  0.00000000000E+00 0.  1.
    9000005    2    1    2  501    0 -0.34617315055E+02  0.11647432404E+02 -0.93775906239E+03  0.99348852531E+03  0.32602663946E+03 0.  0.
         13    1    3    3    0    0 -0.61687643313E+02  0.12356449391E+03 -0.80921016616E+03  0.82091086149E+03  0.00000000000E+00 0.  1.
          1    1    3    3  501    0  0.27070328258E+02 -0.11191706150E+03 -0.12854889623E+03  0.17257766382E+03  0.00000000000E+00 0.  1.
         21    1    1    2  502  501  0.34617315055E+02 -0.11647432404E+02 -0.24674574319E+02  0.44077837981E+02  0.00000000000E+00 0. -1.
<mgrwt>
<rscale>  1 0.30000000E+03</rscale>
<asrwt>0</asrwt>
<pdfrwt beam="1">  1        1 0.13660525E+00 0.30000000E+03</pdfrwt>
<pdfrwt beam="2">0</pdfrwt>
<totfact> 0.21083695E+01</totfact>
</mgrwt>
</event>
<event>
 6    1  0.1901260E-004  0.3000000E+03  0.7818608E-02  0.1093470E+00
          1   -1    0    0  502    0  0.00000000000E+00  0.00000000000E+00  0.62628596905E+02  0.62628596905E+02  0.00000000000E+00 0.  1.
         13   -1    0    0    0    0 -0.00000000000E+00 -0.00000000000E+00 -0.10000000000E+04  0.10000000000E+04  0.00000000000E+00 0.  1.
    9000005    2    1    2  501    0  0.46330504448E+01 -0.82247780087E+02 -0.91500385821E+03  0.97726777715E+03  0.33321777448E+03 0.  0.
         13    1    3    3    0    0  0.44958938241E+02 -0.20034778151E+03 -0.69082955579E+03  0.72069828280E+03  0.00000000000E+00 0.  1.
          1    1    3    3  501    0 -0.40325887796E+02  0.11810000142E+03 -0.22417430242E+03  0.25656949434E+03  0.00000000000E+00 0.  1.
         21    1    1    2  502  501 -0.46330504448E+01  0.82247780087E+02 -0.22367544888E+02  0.85360819760E+02  0.00000000000E+00 0.  1.
<mgrwt>
<rscale>  1 0.30000000E+03</rscale>
<asrwt>0</asrwt>
<pdfrwt beam="1">  1        1 0.22774083E+00 0.30000000E+03</pdfrwt>
<pdfrwt beam="2">0</pdfrwt>
<totfact> 0.75828841E+00</totfact>
</mgrwt>
</event>
<event>
 6    1  0.1901260E-004  0.3000000E+03  0.7818608E-02  0.1093470E+00
          1   -1    0    0  502    0  0.00000000000E+00  0.00000000000E+00  0.28125738156E+02  0.28125738156E+02  0.00000000000E+00 0.  1.
         13   -1    0    0    0    0 -0.00000000000E+00 -0.00000000000E+00 -0.10000000000E+04  0.10000000000E+04  0.00000000000E+00 0.  1.
    9000005    2    1    2  501    0  0.91289290981E+01 -0.34182097313E+01 -0.96575349299E+03  0.10166155116E+04  0.31738347102E+03 0.  0.
         13    1    3    3    0    0 -0.11029017374E+03  0.91937444776E+02 -0.28751865428E+03  0.32137733699E+03  0.00000000000E+00 0.  1.
          3    1    3    3  501    0  0.11941910284E+03 -0.95355654507E+02 -0.67823483872E+03  0.69523817460E+03  0.00000000000E+00 0.  1.
         21    1    1    2  502  501 -0.91289290981E+01  0.34182097313E+01 -0.61207688494E+01  0.11510226564E+02  0.00000000000E+00 0. -1.
<mgrwt>
<rscale>  1 0.30000000E+03</rscale>
<asrwt>0</asrwt>
<pdfrwt beam="1">  1        1 0.10227563E+00 0.30000000E+03</pdfrwt>
<pdfrwt beam="2">0</pdfrwt>
<totfact> 0.33115402E+01</totfact>
</mgrwt>
</event>
<event>
 6    1  0.1901260E-004  0.3000000E+03  0.7818608E-02  0.1093470E+00
          1   -1    0    0  502    0  0.00000000000E+00  0.00000000000E+00  0.24481157572E+02  0.24481157572E+02  0.00000000000E+00 0.  1.
         13   -1    0    0    0    0 -0.00000000000E+00 -0.00000000000E+00 -0.10000000000E+04  0.10000000000E+04  0.00000000000E+00 0.  1.
    9000005    2    1    2  501    0  0.45365922233E+01  0.83227981288E+01 -0.96595753845E+03  0.10110175707E+04  0.29831646374E+03 0.  0.
         13    1    3    3    0    0  0.12863778154E+03  0.78186906005E+02 -0.59258114279E+03  0.61140271663E+03  0.00000000000E+00 0.  1.
          1    1    3    3  501    0 -0.12410118932E+03 -0.69864107876E+02 -0.37337639565E+03  0.39961485407E+03  0.00000000000E+00 0.  1.
         21    1    1    2  502  501 -0.45365922233E+01 -0.83227981288E+01 -0.95613039800E+01  0.13463586873E+02  0.00000000000E+00 0.  1.
<mgrwt>
<rscale>  1 0.30000000E+03</rscale>
<asrwt>0</asrwt>
<pdfrwt beam="1">  1        1 0.89022579E-01 0.30000000E+03</pdfrwt>
<pdfrwt beam="2">0</pdfrwt>
<totfact> 0.40452374E+01</totfact>
</mgrwt>
</event>
<event>
 6    1  0.1901260E-004  0.3000000E+03  0.7818608E-02  0.1093470E+00
          1   -1    0    0  502    0  0.00000000000E+00  0.00000000000E+00  0.28090724640E+02  0.28090724640E+02  0.00000000000E+00 0.  1.
         13   -1    0    0    0    0 -0.00000000000E+00 -0.00000000000E+00 -0.10000000000E+04  0.10000000000E+04  0.00000000000E+00 0.  1.
    9000005    2    1    2  501    0 -0.32250310739E+01 -0.17007766157E+02 -0.93456581511E+03  0.98693007646E+03  0.31673024503E+03 0.  0.
         13    1    3    3    0    0 -0.46801111662E+02 -0.79850155958E+01 -0.94079816629E+03  0.94199537909E+03  0.00000000000E+00 0.  1.
          3    1    3    3  501    0  0.43576080588E+02 -0.90227505616E+01  0.62323511766E+01  0.44934697377E+02  0.00000000000E+00 0.  1.
         21    1    1    2  502  501  0.32250310739E+01  0.17007766157E+02 -0.37343460247E+02  0.41160648176E+02  0.00000000000E+00 0.  1.
<mgrwt>
<rscale>  1 0.30000000E+03</rscale>
<asrwt>0</asrwt>
<pdfrwt beam="1">  1        1 0.10214831E+00 0.30000000E+03</pdfrwt>
<pdfrwt beam="2">0</pdfrwt>
<totfact> 0.33176186E+01</totfact>
</mgrwt>
</event>
<event>
 6    1  0.1901260E-004  0.3000000E+03  0.7818608E-02  0.1093470E+00
          1   -1    0    0  502    0  0.00000000000E+00  0.00000000000E+00  0.42017239253E+02  0.42017239253E+02  0.00000000000E+00 0.  1.
         13   -1    0    0    0    0 -0.00000000000E+00 -0.00000000000E+00 -0.10000000000E+04  0.10000000000E+04  0.00000000000E+00 0.  1.
    9000005    2    1    2  501    0 -0.48849170695E+02  0.15698293722E+02 -0.91237396126E+03  0.97336710819E+03  0.33523813064E+03 0.  0.
         13    1    3    3    0    0  0.32581919552E+02  0.80478905141E+02 -0.84490089666E+03  0.84935031691E+03  0.00000000000E+00 0.  1.
          1    1    3    3  501    0 -0.81431090247E+02 -0.64780611419E+02 -0.67473064592E+02  0.12401679128E+03  0.00000000000E+00 0.  1.
         21    1    1    2  502  501  0.48849170695E+02 -0.15698293722E+02 -0.45608799492E+02  0.68650131059E+02  0.00000000000E+00 0.  1.
<mgrwt>
<rscale>  1 0.30000000E+03</rscale>
<asrwt>0</asrwt>
<pdfrwt beam="1">  1        1 0.15279028E+00 0.30000000E+03</pdfrwt>
<pdfrwt beam="2">0</pdfrwt>
<totfact> 0.17389666E+01</totfact>
</mgrwt>
</event>
<event>
 6    1  0.1901260E-004  0.3000000E+03  0.7818608E-02  0.1093470E+00
          1   -1    0    0  502    0  0.00000000000E+00  0.00000000000E+00  0.30117358987E+02  0.30117358987E+02  0.00000000000E+00 0.  1.
         13   -1    0    0    0    0 -0.00000000000E+00 -0.00000000000E+00 -0.10000000000E+04  0.10000000000E+04  0.00000000000E+00 0.  1.
    9000005    2    1    2  501    0  0.21951703313E+00  0.21789955183E+02 -0.95650036865E+03  0.10045451954E+04  0.30617518536E+03 0.  0.
         13    1    3    3    0    0 -0.13091775059E+03  0.85646985386E+02 -0.40748087715E+03  0.43648084582E+03  0.00000000000E+00 0.  1.
          3    1    3    3  501    0  0.13113726762E+03 -0.63857030203E+02 -0.54901949150E+03  0.56806434962E+03  0.00000000000E+00 0.  1.
         21    1    1    2  502  501 -0.21951703313E+00 -0.21789955183E+02 -0.13382272359E+02  0.25572163540E+02  0.00000000000E+00 0.  1.
<mgrwt>
<rscale>  1 0.30000000E+03</rscale>
<asrwt>0</asrwt>
<pdfrwt beam="1">  1        1 0.10951790E+00 0.30000000E+03</pdfrwt>
<pdfrwt beam="2">0</pdfrwt>
<totfact> 0.29907142E+01</totfact>
</mgrwt>
</event>
<event>
 6    1  0.1901260E-004  0.3000000E+03  0.7818608E-02  0.1093470E+00
          1   -1    0    0  502    0  0.00000000000E+00  0.00000000000E+00  0.51210166352E+02  0.51210166352E+02  0.00000000000E+00 0.  1.
         13   -1    0    0    0    0 -0.00000000000E+00 -0.00000000000E+00 -0.10000000000E+04  0.10000000000E+04  0.00000000000E+00 0.  1.
    9000005    2    1    2  501    0 -0.29187094618E+02  0.46030392091E+02 -0.93487070146E+03  0.99495693774E+03  0.33613300347E+03 0.  0.
         13    1    3    3    0    0  0.26526249700E+02  0.15941664759E+03 -0.77252087310E+03  0.78924382090E+03  0.00000000000E+00 0.  1.
          1    1    3    3  501    0 -0.55713344318E+02 -0.11338625550E+03 -0.16234982836E+03  0.20571311684E+03  0.00000000000E+00 0.  1.
         21    1    1    2  502  501  0.29187094618E+02 -0.46030392091E+02 -0.13919132190E+02  0.56253228612E+02  0.00000000000E+00 0. -1.
<mgrwt>
<rscale>  1 0.30000000E+03</rscale>
<asrwt>0</asrwt>
<pdfrwt beam="1">  1        1 0.18621918E+00 0.30000000E+03</pdfrwt>
<pdfrwt beam="2">0</pdfrwt>
<totfact> 0.11922346E+01</totfact>
</mgrwt>
</event>
<event>
 6    1  0.1901260E-004  0.3000000E+03  0.7818608E-02  0.1093470E+00
          1   -1    0    0  502    0  0.00000000000E+00  0.00000000000E+00  0.41053920242E+02  0.41053920242E+02  0.00000000000E+00 0.  1.
         13   -1    0    0    0    0 -0.00000000000E+00 -0.00000000000E+00 -0.10000000000E+04  0.10000000000E+04  0.00000000000E+00 0.  1.
    9000005    2    1    2  501    0  0.47170592868E+01  0.72729418691E+02 -0.87047997520E+03  0.92643249708E+03  0.30859352786E+03 0.  0.
         13    1    3    3    0    0  0.11431917885E+03 -0.67131389749E+02 -0.28005365031E+03  0.30984761609E+03  0.00000000000E+00 0.  1.
          1    1    3    3  501    0 -0.10960211956E+03  0.13986080844E+03 -0.59042632489E+03  0.61658488100E+03  0.00000000000E+00 0.  1.
         21    1    1    2  502  501 -0.47170592868E+01 -0.72729418691E+02 -0.88466104558E+02  0.11462142316E+03  0.00000000000E+00 0.  1.
<mgrwt>
<rscale>  1 0.30000000E+03</rscale>
<asrwt>0</asrwt>
<pdfrwt beam="1">  1        1 0.14928730E+00 0.30000000E+03</pdfrwt>
<pdfrwt beam="2">0</pdfrwt>
<totfact> 0.18115641E+01</totfact>
</mgrwt>
</event>
<event>
 6    1  0.1901260E-004  0.3000000E+03  0.7818608E-02  0.1093470E+00
          1   -1    0    0  502    0  0.00000000000E+00  0.00000000000E+00  0.48762524196E+02  0.48762524196E+02  0.00000000000E+00 0.  1.
         13   -1    0    0    0    0 -0.00000000000E+00 -0.00000000000E+00 -0.10000000000E+04  0.10000000000E+04  0.00000000000E+00 0.  1.
    9000005    2    1    2  501    0 -0.16820920858E+02 -0.12225786776E+02 -0.96797908802E+03  0.10220661795E+04  0.32741922235E+03 0.  0.
         13    1    3    3    0    0 -0.99870822575E+01 -0.14155829672E+03 -0.78598521744E+03  0.79869346762E+03  0.00000000000E+00 0.  1.
          1    1    3    3  501    0 -0.68338386007E+01  0.12933250995E+03 -0.18199387059E+03  0.22337271187E+03  0.00000000000E+00 0.  1.
         21    1    1    2  502  501  0.16820920858E+02  0.12225786776E+02  0.16741612221E+02  0.26696344704E+02  0.00000000000E+00 0.  1.
<mgrwt>
<rscale>  1 0.30000000E+03</rscale>
<asrwt>0</asrwt>
<pdfrwt beam="1">  1        1 0.17731864E+00 0.30000000E+03</pdfrwt>
<pdfrwt beam="2">0</pdfrwt>
<totfact> 0.13162221E+01</totfact>
</mgrwt>
</event>
<event>
 6    1  0.1901260E-004  0.3000000E+03  0.7818608E-02  0.1093470E+00
          1   -1    0    0  502    0  0.00000000000E+00  0.00000000000E+00  0.40220809039E+02  0.40220809039E+02  0.00000000000E+00 0.  1.
         13   -1    0    0    0    0 -0.00000000000E+00 -0.00000000000E+00 -0.10000000000E+04  0.10000000000E+04  0.00000000000E+00 0.  1.
    9000005    2    1    2  501    0  0.59776628922E+01  0.29333172256E+02 -0.95027347553E+03  0.10088117964E+04  0.33732090781E+03 0.  0.
         13    1    3    3    0    0  0.17105473526E+03  0.27851754626E+02 -0.50625345492E+03  0.53509625612E+03  0.00000000000E+00 0.  1.
          1    1    3    3  501    0 -0.16507707237E+03  0.14814176300E+01 -0.44402002060E+03  0.47371554029E+03  0.00000000000E+00 0.  1.
         21    1    1    2  502  501 -0.59776628922E+01 -0.29333172256E+02 -0.95057154350E+01  0.31409012626E+02  0.00000000000E+00 0.  1.
<mgrwt>
<rscale>  1 0.30000000E+03</rscale>
<asrwt>0</asrwt>
<pdfrwt beam="1">  1        1 0.14625780E+00 0.30000000E+03</pdfrwt>
<pdfrwt beam="2">0</pdfrwt>
<totfact> 0.18774038E+01</totfact>
</mgrwt>
</event>
<event>
 6    1  0.1901260E-004  0.3000000E+03  0.7818608E-02  0.1093470E+00
          1   -1    0    0  502    0  0.00000000000E+00  0.00000000000E+00  0.43832400260E+02  0.43832400260E+02  0.00000000000E+00 0.  1.
         13   -1    0    0    0    0 -0.00000000000E+00 -0.00000000000E+00 -0.10000000000E+04  0.10000000000E+04  0.00000000000E+00 0.  1.
    9000005    2    1    2  501    0 -0.44120256352E+02  0.45708316031E+02 -0.91712755083E+03  0.96926717650E+03  0.30711572376E+03 0.  0.
         13    1    3    3    0    0 -0.10255139999E+02 -0.36570477883E+02  0.88713511836E+01  0.39003443704E+02  0.00000000000E+00 0.  1.
          3    1    3    3  501    0 -0.33865116353E+02  0.82278793914E+02 -0.92599890201E+03  0.93026373280E+03  0.00000000000E+00 0.  1.
         21    1    1    2  502  501  0.44120256352E+02 -0.45708316031E+02 -0.39040048913E+02  0.74565223758E+02  0.00000000000E+00 0.  1.
<mgrwt>
<rscale>  1 0.30000000E+03</rscale>
<asrwt>0</asrwt>
<pdfrwt beam="1">  1        1 0.15939088E+00 0.30000000E+03</pdfrwt>
<pdfrwt beam="2">0</pdfrwt>
<totfact> 0.16115002E+01</totfact>
</mgrwt>
</event>
<event>
 6    1  0.1901260E-004  0.3000000E+03  0.7818608E-02  0.1093470E+00
          1   -1    0    0  502    0  0.00000000000E+00  0.00000000000E+00  0.34270125858E+02  0.34270125858E+02  0.00000000000E+00 0.  1.
         13   -1    0    0    0    0 -0.00000000000E+00 -0.00000000000E+00 -0.10000000000E+04  0.10000000000E+04  0.00000000000E+00 0.  1.
    9000005    2    1    2  501    0  0.47397599983E+01 -0.22414110839E+02 -0.95122160819E+03  0.10071528349E+04  0.33016575717E+03 0.  0.
         13    1    3    3    0    0  0.23754143486E+02 -0.82756539062E+02 -0.93872253144E+03  0.94266266242E+03  0.00000000000E+00 0.  1.
          1    1    3    3  501    0 -0.19014383488E+02  0.60342428223E+02 -0.12499076755E+02  0.64490172453E+02  0.00000000000E+00 0.  1.
         21    1    1    2  502  501 -0.47397599983E+01  0.22414110839E+02 -0.14508265948E+02  0.27117290986E+02  0.00000000000E+00 0. -1.
<mgrwt>
<rscale>  1 0.30000000E+03</rscale>
<asrwt>0</asrwt>
<pdfrwt beam="1">  1        1 0.12461890E+00 0.30000000E+03</pdfrwt>
<pdfrwt beam="2">0</pdfrwt>
<totfact> 0.24492875E+01</totfact>
</mgrwt>
</event>
<event>
 6    1  0.1901260E-004  0.3000000E+03  0.7818608E-02  0.1093470E+00
          1   -1    0    0  502    0  0.00000000000E+00  0.00000000000E+00  0.35643349227E+02  0.35643349227E+02  0.00000000000E+00 0.  1.
         13   -1    0    0    0    0 -0.00000000000E+00 -0.00000000000E+00 -0.10000000000E+04  0.10000000000E+04  0.00000000000E+00 0.  1.
    9000005    2    1    2  501    0  0.34064424513E+02 -0.31582133891E+02 -0.92425398580E+03  0.97427527987E+03  0.30464581813E+03 0.  0.
         13    1    3    3    0    0 -0.12742892009E+02  0.29641798579E+02 -0.88890130952E+03  0.88948668095E+03  0.00000000000E+00 0.  1.
          1    1    3    3  501    0  0.46807316522E+02 -0.61223932470E+02 -0.35352676280E+02  0.84788598922E+02  0.00000000000E+00 0.  1.
         21    1    1    2  502  501 -0.34064424513E+02  0.31582133891E+02 -0.40102664975E+02  0.61368069357E+02  0.00000000000E+00 0. -1.
<mgrwt>
<rscale>  1 0.30000000E+03</rscale>
<asrwt>0</asrwt>
<pdfrwt beam="1">  1        1 0.12961245E+00 0.30000000E+03</pdfrwt>
<pdfrwt beam="2">0</pdfrwt>
<totfact> 0.22991299E+01</totfact>
</mgrwt>
</event>
<event>
 6    1  0.1901260E-004  0.3000000E+03  0.7818608E-02  0.1093470E+00
          1   -1    0    0  502    0  0.00000000000E+00  0.00000000000E+00  0.59962949367E+02  0.59962949367E+02  0.00000000000E+00 0.  1.
         13   -1    0    0    0    0 -0.00000000000E+00 -0.00000000000E+00 -0.10000000000E+04  0.10000000000E+04  0.00000000000E+00 0.  1.
    9000005    2    1    2  501    0  0.30433200134E+01 -0.95721133165E+01 -0.97453806756E+03  0.10240295760E+04  0.31434255252E+03 0.  0.
         13    1    3    3    0    0 -0.13554937878E+03  0.68122114628E+02 -0.55678717508E+03  0.57708423555E+03  0.00000000000E+00 0.  1.
          3    1    3    3  501    0  0.13859269879E+03 -0.77694227944E+02 -0.41775089248E+03  0.44694534048E+03  0.00000000000E+00 0.  1.
         21    1    1    2  502  501 -0.30433200134E+01  0.95721133165E+01  0.34501016926E+02  0.35933373331E+02  0.00000000000E+00 0.  1.
<mgrwt>
<rscale>  1 0.30000000E+03</rscale>
<asrwt>0</asrwt>
<pdfrwt beam="1">  1        1 0.21804755E+00 0.30000000E+03</pdfrwt>
<pdfrwt beam="2">0</pdfrwt>
<totfact> 0.84189280E+00</totfact>
</mgrwt>
</event>
<event>
 6    1  0.1901260E-004  0.3000000E+03  0.7818608E-02  0.1093470E+00
          3   -1    0    0  502    0  0.00000000000E+00  0.00000000000E+00  0.30785815201E+02  0.30785815201E+02  0.00000000000E+00 0.  1.
         13   -1    0    0    0    0 -0.00000000000E+00 -0.00000000000E+00 -0.10000000000E+04  0.10000000000E+04  0.00000000000E+00 0.  1.
    9000005    2    1    2  501    0  0.12331407778E+02  0.52938173025E+01 -0.96144437156E+03  0.10152791032E+04  0.32593908889E+03 0.  0.
         13    1    3    3    0    0 -0.21039813230E+02 -0.14609242660E+03 -0.66007994217E+03  0.67638095841E+03  0.00000000000E+00 0.  1.
          1    1    3    3  501    0  0.33371221008E+02  0.15138624391E+03 -0.30136442939E+03  0.33889814478E+03  0.00000000000E+00 0.  1.
         21    1    1    2  502  501 -0.12331407778E+02 -0.52938173025E+01 -0.77698132428E+01  0.15506712007E+02  0.00000000000E+00 0. -1.
<mgrwt>
<rscale>  1 0.30000000E+03</rscale>
<asrwt>0</asrwt>
<pdfrwt beam="1">  1        3 0.11194865E+00 0.30000000E+03</pdfrwt>
<pdfrwt beam="2">0</pdfrwt>
<totfact> 0.28632759E+00</totfact>
</mgrwt>
</event>
<event>
 6    1  0.1901260E-004  0.3000000E+03  0.7818608E-02  0.1093470E+00
          1   -1    0    0  502    0  0.00000000000E+00  0.00000000000E+00  0.32463398460E+02  0.32463398460E+02  0.00000000000E+00 0.  1.
         13   -1    0    0    0    0 -0.00000000000E+00 -0.00000000000E+00 -0.10000000000E+04  0.10000000000E+04  0.00000000000E+00 0.  1.
    9000005    2    1    2  501    0  0.32823608410E+02 -0.22375360265E+02 -0.85965344814E+03  0.91749896569E+03  0.31815445167E+03 0.  0.
         13    1    3    3    0    0  0.75805699374E+02  0.12991457140E+03 -0.54387836721E+03  0.56429423020E+03  0.00000000000E+00 0.  1.
          3    1    3    3  501    0 -0.42982090964E+02 -0.15228993167E+03 -0.31577508093E+03  0.35320473548E+03  0.00000000000E+00 0.  1.
         21    1    1    2  502  501 -0.32823608410E+02  0.22375360265E+02 -0.10788315340E+03  0.11496443277E+03  0.00000000000E+00 0.  1.
<mgrwt>
<rscale>  1 0.30000000E+03</rscale>
<asrwt>0</asrwt>
<pdfrwt beam="1">  1        1 0.11804897E+00 0.30000000E+03</pdfrwt>
<pdfrwt beam="2">0</pdfrwt>
<totfact> 0.26667816E+01</totfact>
</mgrwt>
</event>
<event>
 6    1  0.1901260E-004  0.3000000E+03  0.7818608E-02  0.1093470E+00
          1   -1    0    0  502    0  0.00000000000E+00  0.00000000000E+00  0.59251693708E+02  0.59251693708E+02  0.00000000000E+00 0.  1.
         13   -1    0    0    0    0 -0.00000000000E+00 -0.00000000000E+00 -0.10000000000E+04  0.10000000000E+04  0.00000000000E+00 0.  1.
    9000005    2    1    2  501    0  0.74169514445E+01  0.80863599409E+01 -0.96910183208E+03  0.10288490160E+04  0.34532815764E+03 0.  0.
         13    1    3    3    0    0  0.11178520011E+03  0.57311725479E+02 -0.12612763050E+03  0.17801332539E+03  0.00000000000E+00 0.  1.
          3    1    3    3  501    0 -0.10436824866E+03 -0.49225365538E+02 -0.84297420157E+03  0.85083569064E+03  0.00000000000E+00 0.  1.
         21    1    1    2  502  501 -0.74169514445E+01 -0.80863599409E+01  0.28353525784E+02  0.30402677682E+02  0.00000000000E+00 0.  1.
<mgrwt>
<rscale>  1 0.30000000E+03</rscale>
<asrwt>0</asrwt>
<pdfrwt beam="1">  1        1 0.21546116E+00 0.30000000E+03</pdfrwt>
<pdfrwt beam="2">0</pdfrwt>
<totfact> 0.86576399E+00</totfact>
</mgrwt>
</event>
<event>
 6    1  0.1901260E-004  0.3000000E+03  0.7818608E-02  0.1093470E+00
          1   -1    0    0  502    0  0.00000000000E+00  0.00000000000E+00  0.33852152489E+02  0.33852152489E+02  0.00000000000E+00 0.  1.
         13   -1    0    0    0    0 -0.00000000000E+00 -0.00000000000E+00 -0.10000000000E+04  0.10000000000E+04  0.00000000000E+00 0.  1.
    9000005    2    1    2  501    0 -0.26827371321E+02 -0.31947067715E+02 -0.87582755306E+03  0.93436306476E+03  0.32283139733E+03 0.  0.
         13    1    3    3    0    0 -0.17442942236E+03 -0.93015746066E+01 -0.51665597977E+03  0.54538568381E+03  0.00000000000E+00 0.  1.
          1    1    3    3  501    0  0.14760205104E+03 -0.22645493108E+02 -0.35917157328E+03  0.38897738094E+03  0.00000000000E+00 0.  1.
         21    1    1    2  502  501  0.26827371321E+02  0.31947067715E+02 -0.90320294454E+02  0.99489087732E+02  0.00000000000E+00 0.  1.
<mgrwt>
<rscale>  1 0.30000000E+03</rscale>
<asrwt>0</asrwt>
<pdfrwt beam="1">  1        1 0.12309900E+00 0.30000000E+03</pdfrwt>
<pdfrwt beam="2">0</pdfrwt>
<totfact> 0.24974646E+01</totfact>
</mgrwt>
</event>
<event>
 6    1  0.1901260E-004  0.3000000E+03  0.7818608E-02  0.1093470E+00
          1   -1    0    0  502    0  0.00000000000E+00  0.00000000000E+00  0.52709364777E+02  0.52709364777E+02  0.00000000000E+00 0.  1.
         13   -1    0    0    0    0 -0.00000000000E+00 -0.00000000000E+00 -0.10000000000E+04  0.10000000000E+04  0.00000000000E+00 0.  1.
    9000005    2    1    2  501    0 -0.96923605211E+01  0.43900125947E+02 -0.95320018074E+03  0.10073652843E+04  0.32275852962E+03 0.  0.
         13    1    3    3    0    0 -0.99704606289E+02  0.45239911838E+02 -0.89157022545E+03  0.89826784705E+03  0.00000000000E+00 0.  1.
          3    1    3    3  501    0  0.90012245768E+02 -0.13397858917E+01 -0.61629955291E+02  0.10909743720E+03  0.00000000000E+00 0.  1.
         21    1    1    2  502  501  0.96923605211E+01 -0.43900125947E+02  0.59095455168E+01  0.45344080527E+02  0.00000000000E+00 0.  1.
<mgrwt>
<rscale>  1 0.30000000E+03</rscale>
<asrwt>0</asrwt>
<pdfrwt beam="1">  1        1 0.19167082E+00 0.30000000E+03</pdfrwt>
<pdfrwt beam="2">0</pdfrwt>
<totfact> 0.11224950E+01</totfact>
</mgrwt>
</event>
<event>
 6    1  0.1901260E-004  0.3000000E+03  0.7818608E-02  0.1093470E+00
          3   -1    0    0  502    0  0.00000000000E+00  0.00000000000E+00  0.29353030702E+02  0.29353030702E+02  0.00000000000E+00 0.  1.
         13   -1    0    0    0    0 -0.00000000000E+00 -0.00000000000E+00 -0.10000000000E+04  0.10000000000E+04  0.00000000000E+00 0.  1.
    9000005    2    1    2  501    0  0.22918983483E+02  0.10661170361E+02 -0.91551713649E+03  0.96870454496E+03  0.31555970570E+03 0.  0.
         13    1    3    3    0    0 -0.82871961101E+02  0.10529800882E+03 -0.21043048151E+03  0.24947228333E+03  0.00000000000E+00 0.  1.
          3    1    3    3  501    0  0.10579094458E+03 -0.94636838461E+02 -0.70508665497E+03  0.71923226163E+03  0.00000000000E+00 0.  1.
         21    1    1    2  502  501 -0.22918983483E+02 -0.10661170361E+02 -0.55129832812E+02  0.60648485745E+02  0.00000000000E+00 0. -1.
<mgrwt>
<rscale>  1 0.30000000E+03</rscale>
<asrwt>0</asrwt>
<pdfrwt beam="1">  1        3 0.10673852E+00 0.30000000E+03</pdfrwt>
<pdfrwt beam="2">0</pdfrwt>
<totfact> 0.32827508E+00</totfact>
</mgrwt>
</event>
<event>
 6    1  0.1901260E-004  0.3000000E+03  0.7818608E-02  0.1093470E+00
          1   -1    0    0  502    0  0.00000000000E+00  0.00000000000E+00  0.40830880083E+02  0.40830880083E+02  0.00000000000E+00 0.  1.
         13   -1    0    0    0    0 -0.00000000000E+00 -0.00000000000E+00 -0.10000000000E+04  0.10000000000E+04  0.00000000000E+00 0.  1.
    9000005    2    1    2  501    0  0.31815381039E+01  0.14497268551E+02 -0.97042073019E+03  0.10222058508E+04  0.32088645178E+03 0.  0.
         13    1    3    3    0    0 -0.14611194317E+03  0.63817218304E+02 -0.40269576630E+03  0.43311109139E+03  0.00000000000E+00 0.  1.
          1    1    3    3  501    0  0.14929348127E+03 -0.49319949753E+02 -0.56772496389E+03  0.58909475946E+03  0.00000000000E+00 0.  1.
         21    1    1    2  502  501 -0.31815381039E+01 -0.14497268551E+02  0.11251610278E+02  0.18625029235E+02  0.00000000000E+00 0.  1.
<mgrwt>
<rscale>  1 0.30000000E+03</rscale>
<asrwt>0</asrwt>
<pdfrwt beam="1">  1        1 0.14847624E+00 0.30000000E+03</pdfrwt>
<pdfrwt beam="2">0</pdfrwt>
<totfact> 0.18289039E+01</totfact>
</mgrwt>
</event>
<event>
 6    1  0.1901260E-004  0.3000000E+03  0.7818608E-02  0.1093470E+00
          1   -1    0    0  502    0  0.00000000000E+00  0.00000000000E+00  0.33253189589E+02  0.33253189589E+02  0.00000000000E+00 0.  1.
         13   -1    0    0    0    0 -0.00000000000E+00 -0.00000000000E+00 -0.10000000000E+04  0.10000000000E+04  0.00000000000E+00 0.  1.
    9000005    2    1    2  501    0  0.56888404559E+01 -0.34022602520E+02 -0.88572129564E+03  0.94519051627E+03  0.32816611359E+03 0.  0.
         13    1    3    3    0    0 -0.48598103825E+02  0.11058372755E+03 -0.14588162623E+03  0.18939901099E+03  0.00000000000E+00 0.  1.
          3    1    3    3  501    0  0.54286944281E+02 -0.14460633007E+03 -0.73983966942E+03  0.75579150528E+03  0.00000000000E+00 0.  1.
         21    1    1    2  502  501 -0.56888404559E+01  0.34022602520E+02 -0.81025514768E+02  0.88062673315E+02  0.00000000000E+00 0.  1.
<mgrwt>
<rscale>  1 0.30000000E+03</rscale>
<asrwt>0</asrwt>
<pdfrwt beam="1">  1        1 0.12092094E+00 0.30000000E+03</pdfrwt>
<pdfrwt beam="2">0</pdfrwt>
<totfact> 0.25686810E+01</totfact>
</mgrwt>
</event>
<event>
 6    1  0.1901260E-004  0.3000000E+03  0.7818608E-02  0.1093470E+00
          1   -1    0    0  502    0  0.00000000000E+00  0.00000000000E+00  0.61764079888E+02  0.61764079888E+02  0.00000000000E+00 0.  1.
         13   -1    0    0    0    0 -0.00000000000E+00 -0.00000000000E+00 -0.10000000000E+04  0.10000000000E+04  0.00000000000E+00 0.  1.
    9000005    2    1    2  501    0 -0.11271467993E+02 -0.49071104462E+01 -0.97767472278E+03  0.10204537316E+04  0.29210756402E+03 0.  0.
         13    1    3    3    0    0 -0.44303532209E+02  0.13229747882E+03 -0.62928879476E+03  0.64456947886E+03  0.00000000000E+00 0.  1.
          3    1    3    3  501    0  0.33032064216E+02 -0.13720458926E+03 -0.34838592802E+03  0.37588425269E+03  0.00000000000E+00 0.  1.
         21    1    1    2  502  501  0.11271467993E+02  0.49071104462E+01  0.39438802667E+02  0.41310348334E+02  0.00000000000E+00 0.  1.
<mgrwt>
<rscale>  1 0.30000000E+03</rscale>
<asrwt>0</asrwt>
<pdfrwt beam="1">  1        1 0.22459713E+00 0.30000000E+03</pdfrwt>
<pdfrwt beam="2">0</pdfrwt>
<totfact> 0.78443884E+00</totfact>
</mgrwt>
</event>
<event>
 6    1  0.1901260E-004  0.3000000E+03  0.7818608E-02  0.1093470E+00
          1   -1    0    0  502    0  0.00000000000E+00  0.00000000000E+00  0.29967776706E+02  0.29967776706E+02  0.00000000000E+00 0.  1.
         13   -1    0    0    0    0 -0.00000000000E+00 -0.00000000000E+00 -0.10000000000E+04  0.10000000000E+04  0.00000000000E+00 0.  1.
    9000005    2    1    2  501    0 -0.18014032059E+02 -0.28645099374E+02 -0.90611259584E+03  0.95764374306E+03  0.30805268252E+03 0.  0.
         13    1    3    3    0    0  0.14521665863E+03 -0.90239207083E+01 -0.42755873531E+03  0.45163678019E+03  0.00000000000E+00 0.  1.
          3    1    3    3  501    0 -0.16323069069E+03 -0.19621178666E+02 -0.47855386053E+03  0.50600696286E+03  0.00000000000E+00 0.  1.
         21    1    1    2  502  501  0.18014032059E+02  0.28645099374E+02 -0.63919627455E+02  0.72324033648E+02  0.00000000000E+00 0.  1.
<mgrwt>
<rscale>  1 0.30000000E+03</rscale>
<asrwt>0</asrwt>
<pdfrwt beam="1">  1        1 0.10897396E+00 0.30000000E+03</pdfrwt>
<pdfrwt beam="2">0</pdfrwt>
<totfact> 0.30132225E+01</totfact>
</mgrwt>
</event>
<event>
 6    1  0.1901260E-004  0.3000000E+03  0.7818608E-02  0.1093470E+00
          1   -1    0    0  502    0  0.00000000000E+00  0.00000000000E+00  0.34394923561E+02  0.34394923561E+02  0.00000000000E+00 0.  1.
         13   -1    0    0    0    0 -0.00000000000E+00 -0.00000000000E+00 -0.10000000000E+04  0.10000000000E+04  0.00000000000E+00 0.  1.
    9000005    2    1    2  501    0 -0.36609686413E+02 -0.65096776149E+01 -0.94658248028E+03  0.99262766118E+03  0.29649390673E+03 0.  0.
         13    1    3    3    0    0 -0.46575575603E+02 -0.86896534436E+02 -0.94051059761E+02  0.13625672013E+03  0.00000000000E+00 0.  1.
          1    1    3    3  501    0  0.99658891898E+01  0.80386856821E+02 -0.85253142052E+03  0.85637094105E+03  0.00000000000E+00 0.  1.
         21    1    1    2  502  501  0.36609686413E+02  0.65096776149E+01 -0.19022596157E+02  0.41767262376E+02  0.00000000000E+00 0.  1.
<mgrwt>
<rscale>  1 0.30000000E+03</rscale>
<asrwt>0</asrwt>
<pdfrwt beam="1">  1        1 0.12507271E+00 0.30000000E+03</pdfrwt>
<pdfrwt beam="2">0</pdfrwt>
<totfact> 0.24351335E+01</totfact>
</mgrwt>
</event>
<event>
 6    1  0.1901260E-004  0.3000000E+03  0.7818608E-02  0.1093470E+00
          1   -1    0    0  502    0  0.00000000000E+00  0.00000000000E+00  0.43000027489E+02  0.43000027489E+02  0.00000000000E+00 0.  1.
         13   -1    0    0    0    0 -0.00000000000E+00 -0.00000000000E+00 -0.10000000000E+04  0.10000000000E+04  0.00000000000E+00 0.  1.
    9000005    2    1    2  501    0  0.53154114183E+02 -0.41806850386E+01 -0.91263442041E+03  0.97363764435E+03  0.33500125252E+03 0.  0.
         13    1    3    3    0    0  0.19246003543E+02  0.16384430151E+03 -0.38493180195E+03  0.41879333321E+03  0.00000000000E+00 0.  1.
          3    1    3    3  501    0  0.33908110639E+02 -0.16802498655E+03 -0.52770261846E+03  0.55484431113E+03  0.00000000000E+00 0.  1.
         21    1    1    2  502  501 -0.53154114183E+02  0.41806850386E+01 -0.44365552104E+02  0.69362383144E+02  0.00000000000E+00 0. -1.
<mgrwt>
<rscale>  1 0.30000000E+03</rscale>
<asrwt>0</asrwt>
<pdfrwt beam="1">  1        1 0.15636407E+00 0.30000000E+03</pdfrwt>
<pdfrwt beam="2">0</pdfrwt>
<totfact> 0.16685176E+01</totfact>
</mgrwt>
</event>
<event>
 6    1  0.1901260E-004  0.3000000E+03  0.7818608E-02  0.1093470E+00
          1   -1    0    0  502    0  0.00000000000E+00  0.00000000000E+00  0.28491347664E+02  0.28491347664E+02  0.00000000000E+00 0.  1.
         13   -1    0    0    0    0 -0.00000000000E+00 -0.00000000000E+00 -0.10000000000E+04  0.10000000000E+04  0.00000000000E+00 0.  1.
    9000005    2    1    2  501    0  0.68658099778E+01 -0.88191507888E+01 -0.95987997554E+03  0.10123624019E+04  0.32153250004E+03 0.  0.
         13    1    3    3    0    0  0.80272085999E+02 -0.64729893393E+02 -0.89167382403E+03  0.89761671963E+03  0.00000000000E+00 0.  1.
          3    1    3    3  501    0 -0.73406276022E+02  0.55910742604E+02 -0.68206151510E+02  0.11474568228E+03  0.00000000000E+00 0.  1.
         21    1    1    2  502  501 -0.68658099778E+01  0.88191507888E+01 -0.11628676794E+02  0.16128945758E+02  0.00000000000E+00 0.  1.
<mgrwt>
<rscale>  1 0.30000000E+03</rscale>
<asrwt>0</asrwt>
<pdfrwt beam="1">  1        1 0.10360512E+00 0.30000000E+03</pdfrwt>
<pdfrwt beam="2">0</pdfrwt>
<totfact> 0.32490296E+01</totfact>
</mgrwt>
</event>
<event>
 6    1  0.1901260E-004  0.3000000E+03  0.7818608E-02  0.1093470E+00
          1   -1    0    0  502    0  0.00000000000E+00  0.00000000000E+00  0.27944513300E+02  0.27944513300E+02  0.00000000000E+00 0.  1.
         13   -1    0    0    0    0 -0.00000000000E+00 -0.00000000000E+00 -0.10000000000E+04  0.10000000000E+04  0.00000000000E+00 0.  1.
    9000005    2    1    2  501    0  0.15554746404E+02 -0.19905491564E+02 -0.81474763989E+03  0.86862113962E+03  0.30008463602E+03 0.  0.
         13    1    3    3    0    0  0.31651945676E+02  0.17188900969E+02  0.14179220771E+02  0.38708581520E+02  0.00000000000E+00 0.  1.
          3    1    3    3  501    0 -0.16097199273E+02 -0.37094392533E+02 -0.82892686066E+03  0.82991255810E+03  0.00000000000E+00 0.  1.
         21    1    1    2  502  501 -0.15554746404E+02  0.19905491564E+02 -0.15730784681E+03  0.15932337368E+03  0.00000000000E+00 0.  1.
<mgrwt>
<rscale>  1 0.30000000E+03</rscale>
<asrwt>0</asrwt>
<pdfrwt beam="1">  1        1 0.10161663E+00 0.30000000E+03</pdfrwt>
<pdfrwt beam="2">0</pdfrwt>
<totfact> 0.33431783E+01</totfact>
</mgrwt>
</event>
<event>
 6    1  0.1901260E-004  0.3000000E+03  0.7818608E-02  0.1093470E+00
          1   -1    0    0  502    0  0.00000000000E+00  0.00000000000E+00  0.31875320166E+02  0.31875320166E+02  0.00000000000E+00 0.  1.
         13   -1    0    0    0    0 -0.00000000000E+00 -0.00000000000E+00 -0.10000000000E+04  0.10000000000E+04  0.00000000000E+00 0.  1.
    9000005    2    1    2  501    0  0.12981100157E+02 -0.16771671300E+02 -0.95580950234E+03  0.10073506078E+04  0.31738563983E+03 0.  0.
         13    1    3    3    0    0  0.13232922710E+03 -0.54607595885E+02 -0.77065681644E+03  0.78383987051E+03  0.00000000000E+00 0.  1.
          1    1    3    3  501    0 -0.11934812694E+03  0.37835924585E+02 -0.18515268590E+03  0.22351073730E+03  0.00000000000E+00 0.  1.
         21    1    1    2  502  501 -0.12981100157E+02  0.16771671300E+02 -0.12315177497E+02  0.24524712358E+02  0.00000000000E+00 0.  1.
<mgrwt>
<rscale>  1 0.30000000E+03</rscale>
<asrwt>0</asrwt>
<pdfrwt beam="1">  1        1 0.11591050E+00 0.30000000E+03</pdfrwt>
<pdfrwt beam="2">0</pdfrwt>
<totfact> 0.27431679E+01</totfact>
</mgrwt>
</event>
<event>
 6    1  0.1901260E-004  0.3000000E+03  0.7818608E-02  0.1093470E+00
          1   -1    0    0  502    0  0.00000000000E+00  0.00000000000E+00  0.24723274241E+02  0.24723274241E+02  0.00000000000E+00 0.  1.
         13   -1    0    0    0    0 -0.00000000000E+00 -0.00000000000E+00 -0.10000000000E+04  0.10000000000E+04  0.00000000000E+00 0.  1.
    9000005    2    1    2  501    0  0.81205162083E+01 -0.10032944554E+02 -0.93933089493E+03  0.98653027077E+03  0.30121892739E+03 0.  0.
         13    1    3    3    0    0 -0.24473036624E+02  0.13573655327E+03 -0.30318190453E+03  0.33308048374E+03  0.00000000000E+00 0.  1.
          1    1    3    3  501    0  0.32593552833E+02 -0.14576949783E+03 -0.63614899040E+03  0.65344978703E+03  0.00000000000E+00 0.  1.
         21    1    1    2  502  501 -0.81205162083E+01  0.10032944554E+02 -0.35945830829E+02  0.38193003468E+02  0.00000000000E+00 0.  1.
<mgrwt>
<rscale>  1 0.30000000E+03</rscale>
<asrwt>0</asrwt>
<pdfrwt beam="1">  1        1 0.89903005E-01 0.30000000E+03</pdfrwt>
<pdfrwt beam="2">0</pdfrwt>
<totfact> 0.39892795E+01</totfact>
</mgrwt>
</event>
<event>
 6    1  0.1901260E-004  0.3000000E+03  0.7818608E-02  0.1093470E+00
          1   -1    0    0  502    0  0.00000000000E+00  0.00000000000E+00  0.35674540893E+02  0.35674540893E+02  0.00000000000E+00 0.  1.
         13   -1    0    0    0    0 -0.00000000000E+00 -0.00000000000E+00 -0.10000000000E+04  0.10000000000E+04  0.00000000000E+00 0.  1.
    9000005    2    1    2  501    0 -0.14300588091E+02 -0.43224910740E+02 -0.90160088951E+03  0.95816795175E+03  0.32113666885E+03 0.  0.
         13    1    3    3    0    0  0.69749289410E+02 -0.12935076422E+03 -0.21083621781E+03  0.25699901618E+03  0.00000000000E+00 0.  1.
          3    1    3    3  501    0 -0.84049877501E+02  0.86125853484E+02 -0.69076467169E+03  0.70116893557E+03  0.00000000000E+00 0.  1.
         21    1    1    2  502  501  0.14300588091E+02  0.43224910740E+02 -0.62724569602E+02  0.77506589140E+02  0.00000000000E+00 0. -1.
<mgrwt>
<rscale>  1 0.30000000E+03</rscale>
<asrwt>0</asrwt>
<pdfrwt beam="1">  1        1 0.12972588E+00 0.30000000E+03</pdfrwt>
<pdfrwt beam="2">0</pdfrwt>
<totfact> 0.22958587E+01</totfact>
</mgrwt>
</event>
<event>
 6    1  0.1901260E-004  0.3000000E+03  0.7818608E-02  0.1093470E+00
          1   -1    0    0  502    0  0.00000000000E+00  0.00000000000E+00  0.28429776898E+02  0.28429776898E+02  0.00000000000E+00 0.  1.
         13   -1    0    0    0    0 -0.00000000000E+00 -0.00000000000E+00 -0.10000000000E+04  0.10000000000E+04  0.00000000000E+00 0.  1.
    9000005    2    1    2  501    0  0.36128712663E+01 -0.96012952885E+01 -0.96694123496E+03  0.10171752115E+04  0.31553893803E+03 0.  0.
         13    1    3    3    0    0  0.36351308051E+02  0.77684170797E+02 -0.58167588676E+02  0.10363260279E+03  0.00000000000E+00 0.  1.
          3    1    3    3  501    0 -0.32738436785E+02 -0.87285466085E+02 -0.90877364628E+03  0.91354260875E+03  0.00000000000E+00 0.  1.
         21    1    1    2  502  501 -0.36128712663E+01  0.96012952885E+01 -0.46289881456E+01  0.11254565352E+02  0.00000000000E+00 0. -1.
<mgrwt>
<rscale>  1 0.30000000E+03</rscale>
<asrwt>0</asrwt>
<pdfrwt beam="1">  1        1 0.10338122E+00 0.30000000E+03</pdfrwt>
<pdfrwt beam="2">0</pdfrwt>
<totfact> 0.32594357E+01</totfact>
</mgrwt>
</event>
<event>
 6    1  0.1901260E-004  0.3000000E+03  0.7818608E-02  0.1093470E+00
          1   -1    0    0  502    0  0.00000000000E+00  0.00000000000E+00  0.38531839031E+02  0.38531839031E+02  0.00000000000E+00 0.  1.
         13   -1    0    0    0    0 -0.00000000000E+00 -0.00000000000E+00 -0.10000000000E+04  0.10000000000E+04  0.00000000000E+00 0.  1.
    9000005    2    1    2  501    0  0.12964618211E+02  0.18582042660E+02 -0.96004972338E+03  0.10158297334E+04  0.33121171819E+03 0.  0.
         13    1    3    3    0    0 -0.63577859561E+02 -0.13427068652E+03 -0.31125212901E+03  0.34488932906E+03  0.00000000000E+00 0.  1.
          3    1    3    3  501    0  0.76542477772E+02  0.15285272918E+03 -0.64879759437E+03  0.67094040434E+03  0.00000000000E+00 0.  1.
         21    1    1    2  502  501 -0.12964618211E+02 -0.18582042660E+02 -0.14184375892E+01  0.22702105628E+02  0.00000000000E+00 0.  1.
<mgrwt>
<rscale>  1 0.30000000E+03</rscale>
<asrwt>0</asrwt>
<pdfrwt beam="1">  1        1 0.14011607E+00 0.30000000E+03</pdfrwt>
<pdfrwt beam="2">0</pdfrwt>
<totfact> 0.20203903E+01</totfact>
</mgrwt>
</event>
<event>
 6    1  0.1901260E-004  0.3000000E+03  0.7818608E-02  0.1093470E+00
          1   -1    0    0  502    0  0.00000000000E+00  0.00000000000E+00  0.77742531007E+02  0.77742531007E+02  0.00000000000E+00 0.  1.
         13   -1    0    0    0    0 -0.00000000000E+00 -0.00000000000E+00 -0.10000000000E+04  0.10000000000E+04  0.00000000000E+00 0.  1.
    9000005    2    1    2  501    0  0.11073846828E+02  0.15194321207E+02 -0.97102484789E+03  0.10254763400E+04  0.32917923866E+03 0.  0.
         13    1    3    3    0    0  0.13031113149E+03 -0.94735047885E+02 -0.58472506472E+03  0.60651390882E+03  0.00000000000E+00 0.  1.
          3    1    3    3  501    0 -0.11923728466E+03  0.10992936909E+03 -0.38629978317E+03  0.41896243115E+03  0.00000000000E+00 0.  1.
         21    1    1    2  502  501 -0.11073846828E+02 -0.15194321207E+02  0.48767378894E+02  0.52266191029E+02  0.00000000000E+00 0.  1.
<mgrwt>
<rscale>  1 0.30000000E+03</rscale>
<asrwt>0</asrwt>
<pdfrwt beam="1">  1        1 0.28270071E+00 0.30000000E+03</pdfrwt>
<pdfrwt beam="2">0</pdfrwt>
<totfact> 0.41940662E+00</totfact>
</mgrwt>
</event>
<event>
 6    1  0.1901260E-004  0.3000000E+03  0.7818608E-02  0.1093470E+00
          1   -1    0    0  502    0  0.00000000000E+00  0.00000000000E+00  0.41695169787E+02  0.41695169787E+02  0.00000000000E+00 0.  1.
         13   -1    0    0    0    0 -0.00000000000E+00 -0.00000000000E+00 -0.10000000000E+04  0.10000000000E+04  0.00000000000E+00 0.  1.
    9000005    2    1    2  501    0  0.82923790351E+01  0.87336358097E+01 -0.96352205950E+03  0.10285704059E+04  0.35977393027E+03 0.  0.
         13    1    3    3    0    0 -0.61594002863E+02  0.14571112314E+03 -0.74345859204E+03  0.76010277639E+03  0.00000000000E+00 0.  1.
          1    1    3    3  501    0  0.69886381898E+02 -0.13697748733E+03 -0.22006346746E+03  0.26846762955E+03  0.00000000000E+00 0.  1.
         21    1    1    2  502  501 -0.82923790351E+01 -0.87336358097E+01  0.52172292859E+01  0.13124763843E+02  0.00000000000E+00 0.  1.
<mgrwt>
<rscale>  1 0.30000000E+03</rscale>
<asrwt>0</asrwt>
<pdfrwt beam="1">  1        1 0.15161912E+00 0.30000000E+03</pdfrwt>
<pdfrwt beam="2">0</pdfrwt>
<totfact> 0.17628338E+01</totfact>
</mgrwt>
</event>
<event>
 6    1  0.1901260E-004  0.3000000E+03  0.7818608E-02  0.1093470E+00
          1   -1    0    0  502    0  0.00000000000E+00  0.00000000000E+00  0.40393254024E+02  0.40393254024E+02  0.00000000000E+00 0.  1.
         13   -1    0    0    0    0 -0.00000000000E+00 -0.00000000000E+00 -0.10000000000E+04  0.10000000000E+04  0.00000000000E+00 0.  1.
    9000005    2    1    2  501    0  0.74773944881E+01  0.78317002925E+01 -0.96225944503E+03  0.10292449909E+04  0.36508186046E+03 0.  0.
         13    1    3    3    0    0 -0.17158150222E+03 -0.35302391805E+02 -0.56144576193E+03  0.58813928143E+03  0.00000000000E+00 0.  1.
          3    1    3    3  501    0  0.17905889671E+03  0.43134092098E+02 -0.40081368310E+03  0.44110570949E+03  0.00000000000E+00 0.  1.
         21    1    1    2  502  501 -0.74773944881E+01 -0.78317002925E+01  0.26526990547E+01  0.11148263097E+02  0.00000000000E+00 0. -1.
<mgrwt>
<rscale>  1 0.30000000E+03</rscale>
<asrwt>0</asrwt>
<pdfrwt beam="1">  1        1 0.14688487E+00 0.30000000E+03</pdfrwt>
<pdfrwt beam="2">0</pdfrwt>
<totfact> 0.18635329E+01</totfact>
</mgrwt>
</event>
<event>
 6    1  0.1901260E-004  0.3000000E+03  0.7818608E-02  0.1093470E+00
          3   -1    0    0  502    0  0.00000000000E+00  0.00000000000E+00  0.33206695473E+02  0.33206695473E+02  0.00000000000E+00 0.  1.
         13   -1    0    0    0    0 -0.00000000000E+00 -0.00000000000E+00 -0.10000000000E+04  0.10000000000E+04  0.00000000000E+00 0.  1.
    9000005    2    1    2  501    0 -0.25993202657E+01 -0.30446522581E+02 -0.90501823390E+03  0.96428712964E+03  0.33144821240E+03 0.  0.
         13    1    3    3    0    0 -0.83073996692E+02 -0.71103212132E+02 -0.82849961285E+02  0.13718991139E+03  0.00000000000E+00 0.  1.
          1    1    3    3  501    0  0.80474676426E+02  0.40656689551E+02 -0.82216827261E+03  0.82709721825E+03  0.00000000000E+00 0.  1.
         21    1    1    2  502  501  0.25993202657E+01  0.30446522581E+02 -0.61775070628E+02  0.68919565830E+02  0.00000000000E+00 0. -1.
<mgrwt>
<rscale>  1 0.30000000E+03</rscale>
<asrwt>0</asrwt>
<pdfrwt beam="1">  1        3 0.12075187E+00 0.30000000E+03</pdfrwt>
<pdfrwt beam="2">0</pdfrwt>
<totfact> 0.22670080E+00</totfact>
</mgrwt>
</event>
<event>
 6    1  0.1901260E-004  0.3000000E+03  0.7818608E-02  0.1093470E+00
          1   -1    0    0  502    0  0.00000000000E+00  0.00000000000E+00  0.36621006891E+02  0.36621006891E+02  0.00000000000E+00 0.  1.
         13   -1    0    0    0    0 -0.00000000000E+00 -0.00000000000E+00 -0.10000000000E+04  0.10000000000E+04  0.00000000000E+00 0.  1.
    9000005    2    1    2  501    0  0.20090812186E+02 -0.43902605628E+02 -0.86967969200E+03  0.93121399316E+03  0.32937160604E+03 0.  0.
         13    1    3    3    0    0  0.84538238907E+02 -0.61805469193E+02 -0.63931337756E+02  0.12269411480E+03  0.00000000000E+00 0.  1.
          3    1    3    3  501    0 -0.64447426721E+02  0.17902863564E+02 -0.80574835425E+03  0.80851987836E+03  0.00000000000E+00 0.  1.
         21    1    1    2  502  501 -0.20090812186E+02  0.43902605628E+02 -0.93699301105E+02  0.10540701373E+03  0.00000000000E+00 0.  1.
<mgrwt>
<rscale>  1 0.30000000E+03</rscale>
<asrwt>0</asrwt>
<pdfrwt beam="1">  1        1 0.13316758E+00 0.30000000E+03</pdfrwt>
<pdfrwt beam="2">0</pdfrwt>
<totfact> 0.21994242E+01</totfact>
</mgrwt>
</event>
<event>
 6    1  0.1901260E-004  0.3000000E+03  0.7818608E-02  0.1093470E+00
          3   -1    0    0  502    0  0.00000000000E+00  0.00000000000E+00  0.37659962386E+02  0.37659962386E+02  0.00000000000E+00 0.  1.
         13   -1    0    0    0    0 -0.00000000000E+00 -0.00000000000E+00 -0.10000000000E+04  0.10000000000E+04  0.00000000000E+00 0.  1.
    9000005    2    1    2  501    0  0.22232782641E+02 -0.30418098983E+02 -0.92616232805E+03  0.98542602669E+03  0.33446709673E+03 0.  0.
         13    1    3    3    0    0  0.12748305817E+03  0.10486700556E+03 -0.46666047757E+03  0.49499598008E+03  0.00000000000E+00 0.  1.
          1    1    3    3  501    0 -0.10525027553E+03 -0.13528510455E+03 -0.45950185049E+03  0.49043004660E+03  0.00000000000E+00 0.  1.
         21    1    1    2  502  501 -0.22232782641E+02  0.30418098983E+02 -0.36177709560E+02  0.52233935700E+02  0.00000000000E+00 0.  1.
<mgrwt>
<rscale>  1 0.30000000E+03</rscale>
<asrwt>0</asrwt>
<pdfrwt beam="1">  1        3 0.13694561E+00 0.30000000E+03</pdfrwt>
<pdfrwt beam="2">0</pdfrwt>
<totfact> 0.14615654E+00</totfact>
</mgrwt>
</event>
<event>
 6    1  0.1901260E-004  0.3000000E+03  0.7818608E-02  0.1093470E+00
          1   -1    0    0  502    0  0.00000000000E+00  0.00000000000E+00  0.31062796998E+02  0.31062796998E+02  0.00000000000E+00 0.  1.
         13   -1    0    0    0    0 -0.00000000000E+00 -0.00000000000E+00 -0.10000000000E+04  0.10000000000E+04  0.00000000000E+00 0.  1.
    9000005    2    1    2  501    0  0.10738559235E+02  0.14344272361E+02 -0.95233346643E+03  0.10066341484E+04  0.32565657163E+03 0.  0.
         13    1    3    3    0    0  0.81781340591E+02 -0.12208888476E+03 -0.27230011039E+03  0.30942080338E+03  0.00000000000E+00 0.  1.
          1    1    3    3  501    0 -0.71042781356E+02  0.13643315712E+03 -0.68003335604E+03  0.69721334502E+03  0.00000000000E+00 0.  1.
         21    1    1    2  502  501 -0.10738559235E+02 -0.14344272361E+02 -0.16603736575E+02  0.24428648596E+02  0.00000000000E+00 0.  1.
<mgrwt>
<rscale>  1 0.30000000E+03</rscale>
<asrwt>0</asrwt>
<pdfrwt beam="1">  1        1 0.11295586E+00 0.30000000E+03</pdfrwt>
<pdfrwt beam="2">0</pdfrwt>
<totfact> 0.28538199E+01</totfact>
</mgrwt>
</event>
<event>
 6    1  0.1901260E-004  0.3000000E+03  0.7818608E-02  0.1093470E+00
          1   -1    0    0  502    0  0.00000000000E+00  0.00000000000E+00  0.42350120968E+02  0.42350120968E+02  0.00000000000E+00 0.  1.
         13   -1    0    0    0    0 -0.00000000000E+00 -0.00000000000E+00 -0.10000000000E+04  0.10000000000E+04  0.00000000000E+00 0.  1.
    9000005    2    1    2  501    0  0.34586802383E+02  0.45771647397E+01 -0.94311227618E+03  0.10045540996E+04  0.34416707594E+03 0.  0.
         13    1    3    3    0    0 -0.92260672069E+02 -0.58396360052E+02 -0.78391204927E+03  0.79147979600E+03  0.00000000000E+00 0.  1.
          1    1    3    3  501    0  0.12684747445E+03  0.62973524791E+02 -0.15920022691E+03  0.21307430358E+03  0.00000000000E+00 0.  1.
         21    1    1    2  502  501 -0.34586802383E+02 -0.45771647397E+01 -0.14537602853E+02  0.37796021389E+02  0.00000000000E+00 0.  1.
<mgrwt>
<rscale>  1 0.30000000E+03</rscale>
<asrwt>0</asrwt>
<pdfrwt beam="1">  1        1 0.15400076E+00 0.30000000E+03</pdfrwt>
<pdfrwt beam="2">0</pdfrwt>
<totfact> 0.17147101E+01</totfact>
</mgrwt>
</event>
<event>
 6    1  0.1901260E-004  0.3000000E+03  0.7818608E-02  0.1093470E+00
          1   -1    0    0  502    0  0.00000000000E+00  0.00000000000E+00  0.38546880509E+02  0.38546880509E+02  0.00000000000E+00 0.  1.
         13   -1    0    0    0    0 -0.00000000000E+00 -0.00000000000E+00 -0.10000000000E+04  0.10000000000E+04  0.00000000000E+00 0.  1.
    9000005    2    1    2  501    0 -0.97811756655E+01 -0.39618086979E+01 -0.96301758116E+03  0.10278784755E+04  0.35919344565E+03 0.  0.
         13    1    3    3    0    0 -0.14490277571E+03  0.68833468581E+02 -0.23951143315E+03  0.28827172497E+03  0.00000000000E+00 0.  1.
          3    1    3    3  501    0  0.13512160004E+03 -0.72795277279E+02 -0.72350614801E+03  0.73960675051E+03  0.00000000000E+00 0.  1.
         21    1    1    2  502  501  0.97811756655E+01  0.39618086979E+01  0.15644616709E+01  0.10668405030E+02  0.00000000000E+00 0.  1.
<mgrwt>
<rscale>  1 0.30000000E+03</rscale>
<asrwt>0</asrwt>
<pdfrwt beam="1">  1        1 0.14017077E+00 0.30000000E+03</pdfrwt>
<pdfrwt beam="2">0</pdfrwt>
<totfact> 0.20190571E+01</totfact>
</mgrwt>
</event>
<event>
 6    1  0.1901260E-004  0.3000000E+03  0.7818608E-02  0.1093470E+00
          1   -1    0    0  502    0  0.00000000000E+00  0.00000000000E+00  0.42070403388E+02  0.42070403388E+02  0.00000000000E+00 0.  1.
         13   -1    0    0    0    0 -0.00000000000E+00 -0.00000000000E+00 -0.10000000000E+04  0.10000000000E+04  0.00000000000E+00 0.  1.
    9000005    2    1    2  501    0 -0.13606029372E+02 -0.67729297722E+02 -0.78732928988E+03  0.85801376411E+03  0.33395782203E+03 0.  0.
         13    1    3    3    0    0 -0.11768078268E+03 -0.16137305518E+03 -0.42548641771E+03  0.47003055348E+03  0.00000000000E+00 0.  1.
          3    1    3    3  501    0  0.10407475331E+03  0.93643757462E+02 -0.36184287217E+03  0.38798321063E+03  0.00000000000E+00 0.  1.
         21    1    1    2  502  501  0.13606029372E+02  0.67729297722E+02 -0.17060030673E+03  0.18405663928E+03  0.00000000000E+00 0.  1.
<mgrwt>
<rscale>  1 0.30000000E+03</rscale>
<asrwt>0</asrwt>
<pdfrwt beam="1">  1        1 0.15298361E+00 0.30000000E+03</pdfrwt>
<pdfrwt beam="2">0</pdfrwt>
<totfact> 0.17350648E+01</totfact>
</mgrwt>
</event>
<event>
 6    1  0.1901260E-004  0.3000000E+03  0.7818608E-02  0.1093470E+00
          3   -1    0    0  502    0  0.00000000000E+00  0.00000000000E+00  0.37765975704E+02  0.37765975704E+02  0.00000000000E+00 0.  1.
         13   -1    0    0    0    0 -0.00000000000E+00 -0.00000000000E+00 -0.10000000000E+04  0.10000000000E+04  0.00000000000E+00 0.  1.
    9000005    2    1    2  501    0 -0.81504993150E+01 -0.90684133160E+01 -0.96875936743E+03  0.10239367725E+04  0.33136556139E+03 0.  0.
         13    1    3    3    0    0  0.47702448112E+02  0.53652617229E+02 -0.24363146060E+02  0.75813519754E+02  0.00000000000E+00 0.  1.
          1    1    3    3  501    0 -0.55852947427E+02 -0.62721030545E+02 -0.94439622137E+03  0.94812325272E+03  0.00000000000E+00 0.  1.
         21    1    1    2  502  501  0.81504993150E+01  0.90684133160E+01  0.65253431309E+01  0.13829203236E+02  0.00000000000E+00 0. -1.
<mgrwt>
<rscale>  1 0.30000000E+03</rscale>
<asrwt>0</asrwt>
<pdfrwt beam="1">  1        3 0.13733111E+00 0.30000000E+03</pdfrwt>
<pdfrwt beam="2">0</pdfrwt>
<totfact> 0.14457115E+00</totfact>
</mgrwt>
</event>
<event>
 6    1  0.1901260E-004  0.3000000E+03  0.7818608E-02  0.1093470E+00
          1   -1    0    0  502    0  0.00000000000E+00  0.00000000000E+00  0.54146680305E+02  0.54146680305E+02  0.00000000000E+00 0.  1.
         13   -1    0    0    0    0 -0.00000000000E+00 -0.00000000000E+00 -0.10000000000E+04  0.10000000000E+04  0.00000000000E+00 0.  1.
    9000005    2    1    2  501    0  0.93207723546E+01  0.61457717340E+02 -0.92747691598E+03  0.98932677571E+03  0.33865928548E+03 0.  0.
         13    1    3    3    0    0 -0.42394839277E+02 -0.40364776191E+02 -0.38475223434E+01  0.58663796182E+02  0.00000000000E+00 0.  1.
          1    1    3    3  501    0  0.51715611631E+02  0.10182249353E+03 -0.92362939364E+03  0.93066297953E+03  0.00000000000E+00 0.  1.
         21    1    1    2  502  501 -0.93207723546E+01 -0.61457717340E+02 -0.18376403712E+02  0.64819904592E+02  0.00000000000E+00 0.  1.
<mgrwt>
<rscale>  1 0.30000000E+03</rscale>
<asrwt>0</asrwt>
<pdfrwt beam="1">  1        1 0.19689743E+00 0.30000000E+03</pdfrwt>
<pdfrwt beam="2">0</pdfrwt>
<totfact> 0.10597562E+01</totfact>
</mgrwt>
</event>
<event>
 6    1  0.1901260E-004  0.3000000E+03  0.7818608E-02  0.1093470E+00
          1   -1    0    0  502    0  0.00000000000E+00  0.00000000000E+00  0.29757196185E+02  0.29757196185E+02  0.00000000000E+00 0.  1.
         13   -1    0    0    0    0 -0.00000000000E+00 -0.00000000000E+00 -0.10000000000E+04  0.10000000000E+04  0.00000000000E+00 0.  1.
    9000005    2    1    2  501    0  0.73818402064E+00 -0.10605283390E+02 -0.96743971350E+03  0.10187629128E+04  0.31910069936E+03 0.  0.
         13    1    3    3    0    0 -0.62810215752E+02  0.10118990375E+03 -0.79383019524E+03  0.80271470567E+03  0.00000000000E+00 0.  1.
          3    1    3    3  501    0  0.63548399773E+02 -0.11179518714E+03 -0.17360951826E+03  0.21604820715E+03  0.00000000000E+00 0.  1.
         21    1    1    2  502  501 -0.73818402064E+00  0.10605283390E+02 -0.28030903184E+01  0.10994283368E+02  0.00000000000E+00 0.  1.
<mgrwt>
<rscale>  1 0.30000000E+03</rscale>
<asrwt>0</asrwt>
<pdfrwt beam="1">  1        1 0.10820821E+00 0.30000000E+03</pdfrwt>
<pdfrwt beam="2">0</pdfrwt>
<totfact> 0.30453209E+01</totfact>
</mgrwt>
</event>
<event>
 6    1  0.1901260E-004  0.3000000E+03  0.7818608E-02  0.1093470E+00
          1   -1    0    0  502    0  0.00000000000E+00  0.00000000000E+00  0.36600028605E+02  0.36600028605E+02  0.00000000000E+00 0.  1.
         13   -1    0    0    0    0 -0.00000000000E+00 -0.00000000000E+00 -0.10000000000E+04  0.10000000000E+04  0.00000000000E+00 0.  1.
    9000005    2    1    2  501    0 -0.75770359208E+01 -0.10108124813E+02 -0.96699145962E+03  0.10234666951E+04  0.33504030711E+03 0.  0.
         13    1    3    3    0    0  0.84363690234E+02  0.16821026955E+02 -0.90560959040E+03  0.90968615984E+03  0.00000000000E+00 0.  1.
          1    1    3    3  501    0 -0.91940726155E+02 -0.26929151768E+02 -0.61381869222E+02  0.11378053529E+03  0.00000000000E+00 0.  1.
         21    1    1    2  502  501  0.75770359208E+01  0.10108124813E+02  0.35914882272E+01  0.13133333479E+02  0.00000000000E+00 0.  1.
<mgrwt>
<rscale>  1 0.30000000E+03</rscale>
<asrwt>0</asrwt>
<pdfrwt beam="1">  1        1 0.13309129E+00 0.30000000E+03</pdfrwt>
<pdfrwt beam="2">0</pdfrwt>
<totfact> 0.22015035E+01</totfact>
</mgrwt>
</event>
<event>
 6    1  0.1901260E-004  0.3000000E+03  0.7818608E-02  0.1093470E+00
          1   -1    0    0  502    0  0.00000000000E+00  0.00000000000E+00  0.44713920300E+02  0.44713920300E+02  0.00000000000E+00 0.  1.
         13   -1    0    0    0    0 -0.00000000000E+00 -0.00000000000E+00 -0.10000000000E+04  0.10000000000E+04  0.00000000000E+00 0.  1.
    9000005    2    1    2  501    0  0.98580942330E+01 -0.17649634223E+01 -0.97149807824E+03  0.10256580547E+04  0.32873337522E+03 0.  0.
         13    1    3    3    0    0  0.11962435443E+03 -0.54244369289E+01 -0.12892613987E+03  0.17595840483E+03  0.00000000000E+00 0.  1.
          3    1    3    3  501    0 -0.10976626020E+03  0.36594735066E+01 -0.84257193837E+03  0.84969964985E+03  0.00000000000E+00 0.  1.
         21    1    1    2  502  501 -0.98580942330E+01  0.17649634223E+01  0.16211998542E+02  0.19055865620E+02  0.00000000000E+00 0. -1.
<mgrwt>
<rscale>  1 0.30000000E+03</rscale>
<asrwt>0</asrwt>
<pdfrwt beam="1">  1        1 0.16259642E+00 0.30000000E+03</pdfrwt>
<pdfrwt beam="2">0</pdfrwt>
<totfact> 0.15535843E+01</totfact>
</mgrwt>
</event>
<event>
 6    1  0.1901260E-004  0.3000000E+03  0.7818608E-02  0.1093470E+00
          1   -1    0    0  502    0  0.00000000000E+00  0.00000000000E+00  0.53719447884E+02  0.53719447884E+02  0.00000000000E+00 0.  1.
         13   -1    0    0    0    0 -0.00000000000E+00 -0.00000000000E+00 -0.10000000000E+04  0.10000000000E+04  0.00000000000E+00 0.  1.
    9000005    2    1    2  501    0  0.33982393288E+02  0.49421524632E+01 -0.96006739863E+03  0.10167153257E+04  0.33286846591E+03 0.  0.
         13    1    3    3    0    0  0.72917502822E+02  0.95882915738E+02 -0.11721339103E+03  0.16807580071E+03  0.00000000000E+00 0.  1.
          3    1    3    3  501    0 -0.38935109534E+02 -0.90940763275E+02 -0.84285400760E+03  0.84863952495E+03  0.00000000000E+00 0.  1.
         21    1    1    2  502  501 -0.33982393288E+02 -0.49421524632E+01  0.13786846514E+02  0.37004122221E+02  0.00000000000E+00 0.  1.
<mgrwt>
<rscale>  1 0.30000000E+03</rscale>
<asrwt>0</asrwt>
<pdfrwt beam="1">  1        1 0.19534386E+00 0.30000000E+03</pdfrwt>
<pdfrwt beam="2">0</pdfrwt>
<totfact> 0.10779878E+01</totfact>
</mgrwt>
</event>
<event>
 6    1  0.1901260E-004  0.3000000E+03  0.7818608E-02  0.1093470E+00
          1   -1    0    0  502    0  0.00000000000E+00  0.00000000000E+00  0.28319665428E+02  0.28319665428E+02  0.00000000000E+00 0.  1.
         13   -1    0    0    0    0 -0.00000000000E+00 -0.00000000000E+00 -0.10000000000E+04  0.10000000000E+04  0.00000000000E+00 0.  1.
    9000005    2    1    2  501    0  0.82949538063E+00  0.84070020955E+01 -0.94709820639E+03  0.10023264591E+04  0.32801212235E+03 0.  0.
         13    1    3    3    0    0  0.94418658248E+02  0.12669087613E+03 -0.65253580864E+03  0.67139291229E+03  0.00000000000E+00 0.  1.
          1    1    3    3  501    0 -0.93589162868E+02 -0.11828387404E+03 -0.29456239776E+03  0.33093354686E+03  0.00000000000E+00 0.  1.
         21    1    1    2  502  501 -0.82949538063E+00 -0.84070020955E+01 -0.24582128181E+02  0.25993206280E+02  0.00000000000E+00 0.  1.
<mgrwt>
<rscale>  1 0.30000000E+03</rscale>
<asrwt>0</asrwt>
<pdfrwt beam="1">  1        1 0.10298082E+00 0.30000000E+03</pdfrwt>
<pdfrwt beam="2">0</pdfrwt>
<totfact> 0.32781670E+01</totfact>
</mgrwt>
</event>
<event>
 6    1  0.1901260E-004  0.3000000E+03  0.7818608E-02  0.1093470E+00
          3   -1    0    0  502    0  0.00000000000E+00  0.00000000000E+00  0.16274379238E+02  0.16274379238E+02  0.00000000000E+00 0.  1.
         13   -1    0    0    0    0 -0.00000000000E+00 -0.00000000000E+00 -0.10000000000E+04  0.10000000000E+04  0.00000000000E+00 0.  1.
    9000005    2    1    2  501    0 -0.15252311559E+02  0.14311646606E+02 -0.97465525220E+03  0.99347683941E+03  0.19132671940E+03 0.  0.
         13    1    3    3    0    0  0.20370868793E+02  0.22248567477E+02 -0.16036217160E+02  0.34163303572E+02  0.00000000000E+00 0.  1.
          3    1    3    3  501    0 -0.35623180352E+02 -0.79369208710E+01 -0.95861903505E+03  0.95931353584E+03  0.00000000000E+00 0.  1.
         21    1    1    2  502  501  0.15252311559E+02 -0.14311646606E+02 -0.90703685569E+01  0.22797539829E+02  0.00000000000E+00 0.  1.
<mgrwt>
<rscale>  1 0.30000000E+03</rscale>
<asrwt>0</asrwt>
<pdfrwt beam="1">  1        3 0.59179686E-01 0.30000000E+03</pdfrwt>
<pdfrwt beam="2">0</pdfrwt>
<totfact> 0.12532333E+01</totfact>
</mgrwt>
</event>
<event>
 6    1  0.1901260E-004  0.3000000E+03  0.7818608E-02  0.1093470E+00
          1   -1    0    0  502    0  0.00000000000E+00  0.00000000000E+00  0.10303959096E+03  0.10303959096E+03  0.00000000000E+00 0.  1.
         13   -1    0    0    0    0 -0.00000000000E+00 -0.00000000000E+00 -0.10000000000E+04  0.10000000000E+04  0.00000000000E+00 0.  1.
    9000005    2    1    2  501    0  0.35327082694E+02  0.18072913347E+02 -0.96510472971E+03  0.10241835106E+04  0.34051445071E+03 0.  0.
         13    1    3    3    0    0  0.12054488320E+03  0.21148768156E+02 -0.91925357209E+03  0.92736479826E+03  0.00000000000E+00 0.  1.
          3    1    3    3  501    0 -0.85217800507E+02 -0.30758548092E+01 -0.45851157617E+02  0.96818712348E+02  0.00000000000E+00 0.  1.
         21    1    1    2  502  501 -0.35327082694E+02 -0.18072913347E+02  0.68144320662E+02  0.78856080343E+02  0.00000000000E+00 0.  1.
<mgrwt>
<rscale>  1 0.30000000E+03</rscale>
<asrwt>0</asrwt>
<pdfrwt beam="1">  1        1 0.37469021E+00 0.30000000E+03</pdfrwt>
<pdfrwt beam="2">0</pdfrwt>
<totfact> 0.14562330E+00</totfact>
</mgrwt>
</event>
<event>
 6    1  0.1901260E-004  0.3000000E+03  0.7818608E-02  0.1093470E+00
          1   -1    0    0  502    0  0.00000000000E+00  0.00000000000E+00  0.31652097135E+02  0.31652097135E+02  0.00000000000E+00 0.  1.
         13   -1    0    0    0    0 -0.00000000000E+00 -0.00000000000E+00 -0.10000000000E+04  0.10000000000E+04  0.00000000000E+00 0.  1.
    9000005    2    1    2  501    0  0.22815562840E+02 -0.29558929567E+01 -0.92782681107E+03  0.98505546538E+03  0.33006422302E+03 0.  0.
         13    1    3    3    0    0  0.11265436727E+03 -0.13086568090E+03 -0.53913237247E+03  0.56611001399E+03  0.00000000000E+00 0.  1.
          1    1    3    3  501    0 -0.89838804428E+02  0.12790978795E+03 -0.38869443861E+03  0.41894545139E+03  0.00000000000E+00 0.  1.
         21    1    1    2  502  501 -0.22815562840E+02  0.29558929567E+01 -0.40521091793E+02  0.46596631756E+02  0.00000000000E+00 0.  1.
<mgrwt>
<rscale>  1 0.30000000E+03</rscale>
<asrwt>0</asrwt>
<pdfrwt beam="1">  1        1 0.11509878E+00 0.30000000E+03</pdfrwt>
<pdfrwt beam="2">0</pdfrwt>
<totfact> 0.27729571E+01</totfact>
</mgrwt>
</event>
<event>
 6    1  0.1901260E-004  0.3000000E+03  0.7818608E-02  0.1093470E+00
          1   -1    0    0  502    0  0.00000000000E+00  0.00000000000E+00  0.46530553883E+02  0.46530553883E+02  0.00000000000E+00 0.  1.
         13   -1    0    0    0    0 -0.00000000000E+00 -0.00000000000E+00 -0.10000000000E+04  0.10000000000E+04  0.00000000000E+00 0.  1.
    9000005    2    1    2  501    0 -0.78499353405E+01 -0.14075979951E+02 -0.96417452610E+03  0.10271823386E+04  0.35385206696E+03 0.  0.
         13    1    3    3    0    0 -0.49835255192E+02  0.13835819898E+03 -0.20850299402E+03  0.25514709954E+03  0.00000000000E+00 0.  1.
          3    1    3    3  501    0  0.41985319852E+02 -0.15243417893E+03 -0.75567153208E+03  0.77203523908E+03  0.00000000000E+00 0.  1.
         21    1    1    2  502  501  0.78499353405E+01  0.14075979951E+02  0.10705079984E+02  0.19348215264E+02  0.00000000000E+00 0.  1.
<mgrwt>
<rscale>  1 0.30000000E+03</rscale>
<asrwt>0</asrwt>
<pdfrwt beam="1">  1        1 0.16920237E+00 0.30000000E+03</pdfrwt>
<pdfrwt beam="2">0</pdfrwt>
<totfact> 0.14416090E+01</totfact>
</mgrwt>
</event>
<event>
 6    1  0.1901260E-004  0.3000000E+03  0.7818608E-02  0.1093470E+00
          1   -1    0    0  502    0  0.00000000000E+00  0.00000000000E+00  0.29164862899E+02  0.29164862899E+02  0.00000000000E+00 0.  1.
         13   -1    0    0    0    0 -0.00000000000E+00 -0.00000000000E+00 -0.10000000000E+04  0.10000000000E+04  0.00000000000E+00 0.  1.
    9000005    2    1    2  501    0 -0.92241208480E+01  0.16361951794E+02 -0.84295335034E+03  0.89991104571E+03  0.31451032014E+03 0.  0.
         13    1    3    3    0    0 -0.63981144509E+01  0.54533704797E+02  0.11701210938E+01  0.54920214955E+02  0.00000000000E+00 0.  1.
          1    1    3    3  501    0 -0.28260063970E+01 -0.38171753003E+02 -0.84412347143E+03  0.84499083075E+03  0.00000000000E+00 0.  1.
         21    1    1    2  502  501  0.92241208480E+01 -0.16361951794E+02 -0.12788178677E+03  0.12925381719E+03  0.00000000000E+00 0.  1.
<mgrwt>
<rscale>  1 0.30000000E+03</rscale>
<asrwt>0</asrwt>
<pdfrwt beam="1">  1        1 0.10605427E+00 0.30000000E+03</pdfrwt>
<pdfrwt beam="2">0</pdfrwt>
<totfact> 0.31382792E+01</totfact>
</mgrwt>
</event>
<event>
 6    1  0.1901260E-004  0.3000000E+03  0.7818608E-02  0.1093470E+00
          1   -1    0    0  502    0  0.00000000000E+00  0.00000000000E+00  0.66216143821E+02  0.66216143821E+02  0.00000000000E+00 0.  1.
         13   -1    0    0    0    0 -0.00000000000E+00 -0.00000000000E+00 -0.10000000000E+04  0.10000000000E+04  0.00000000000E+00 0.  1.
    9000005    2    1    2  501    0 -0.22720427230E+02 -0.14495799552E+02 -0.96722340123E+03  0.10232679286E+04  0.33291109892E+03 0.  0.
         13    1    3    3    0    0  0.25836221485E+02 -0.12424684206E+03 -0.83545302962E+03  0.84503642100E+03  0.00000000000E+00 0.  1.
          3    1    3    3  501    0 -0.48556648716E+02  0.10975104251E+03 -0.13177037161E+03  0.17823150760E+03  0.00000000000E+00 0.  1.
         21    1    1    2  502  501  0.22720427230E+02  0.14495799552E+02  0.33439545050E+02  0.42948215228E+02  0.00000000000E+00 0.  1.
<mgrwt>
<rscale>  1 0.30000000E+03</rscale>
<asrwt>0</asrwt>
<pdfrwt beam="1">  1        1 0.24078649E+00 0.30000000E+03</pdfrwt>
<pdfrwt beam="2">0</pdfrwt>
<totfact> 0.65876765E+00</totfact>
</mgrwt>
</event>
<event>
 6    1  0.1901260E-004  0.3000000E+03  0.7818608E-02  0.1093470E+00
          1   -1    0    0  502    0  0.00000000000E+00  0.00000000000E+00  0.32919060882E+02  0.32919060882E+02  0.00000000000E+00 0.  1.
         13   -1    0    0    0    0 -0.00000000000E+00 -0.00000000000E+00 -0.10000000000E+04  0.10000000000E+04  0.00000000000E+00 0.  1.
    9000005    2    1    2  501    0  0.31921402623E+02  0.12801707468E+02 -0.78683350082E+03  0.84941974570E+03  0.31815733013E+03 0.  0.
         13    1    3    3    0    0  0.14374471382E+03 -0.69959651991E+02 -0.56834124458E+03  0.59039704094E+03  0.00000000000E+00 0.  1.
          1    1    3    3  501    0 -0.11182331119E+03  0.82761359460E+02 -0.21849225624E+03  0.25902270476E+03  0.00000000000E+00 0.  1.
         21    1    1    2  502  501 -0.31921402623E+02 -0.12801707468E+02 -0.18024743830E+03  0.18349931518E+03  0.00000000000E+00 0.  1.
<mgrwt>
<rscale>  1 0.30000000E+03</rscale>
<asrwt>0</asrwt>
<pdfrwt beam="1">  1        1 0.11970593E+00 0.30000000E+03</pdfrwt>
<pdfrwt beam="2">0</pdfrwt>
<totfact> 0.26095805E+01</totfact>
</mgrwt>
</event>
<event>
 6    1  0.1901260E-004  0.3000000E+03  0.7818608E-02  0.1093470E+00
          1   -1    0    0  502    0  0.00000000000E+00  0.00000000000E+00  0.42113747299E+02  0.42113747299E+02  0.00000000000E+00 0.  1.
         13   -1    0    0    0    0 -0.00000000000E+00 -0.00000000000E+00 -0.10000000000E+04  0.10000000000E+04  0.00000000000E+00 0.  1.
    9000005    2    1    2  501    0 -0.11818366255E+02 -0.41552130817E+01 -0.96689383172E+03  0.10266840339E+04  0.34502099067E+03 0.  0.
         13    1    3    3    0    0 -0.92029296493E+02 -0.16163724349E+02 -0.49552642863E+02  0.10576446385E+03  0.00000000000E+00 0.  1.
          3    1    3    3  501    0  0.80210930238E+02  0.12008511267E+02 -0.91734118886E+03  0.92091957002E+03  0.00000000000E+00 0.  1.
         21    1    1    2  502  501  0.11818366255E+02  0.41552130817E+01  0.90075790222E+01  0.15429713430E+02  0.00000000000E+00 0.  1.
<mgrwt>
<rscale>  1 0.30000000E+03</rscale>
<asrwt>0</asrwt>
<pdfrwt beam="1">  1        1 0.15314122E+00 0.30000000E+03</pdfrwt>
<pdfrwt beam="2">0</pdfrwt>
<totfact> 0.17318916E+01</totfact>
</mgrwt>
</event>
<event>
 6    1  0.1901260E-004  0.3000000E+03  0.7818608E-02  0.1093470E+00
          1   -1    0    0  502    0  0.00000000000E+00  0.00000000000E+00  0.29069666396E+02  0.29069666396E+02  0.00000000000E+00 0.  1.
         13   -1    0    0    0    0 -0.00000000000E+00 -0.00000000000E+00 -0.10000000000E+04  0.10000000000E+04  0.00000000000E+00 0.  1.
    9000005    2    1    2  501    0  0.10920814453E+01 -0.12557669239E+02 -0.96895288530E+03  0.10163104344E+04  0.30636304851E+03 0.  0.
         13    1    3    3    0    0  0.11218061113E+03 -0.13193921837E+02 -0.13970904167E+03  0.17965852447E+03  0.00000000000E+00 0.  1.
          1    1    3    3  501    0 -0.11108852969E+03  0.63625259746E+00 -0.82924384363E+03  0.83665190996E+03  0.00000000000E+00 0.  1.
         21    1    1    2  502  501 -0.10920814453E+01  0.12557669239E+02 -0.19774482988E+01  0.12759231967E+02  0.00000000000E+00 0.  1.
<mgrwt>
<rscale>  1 0.30000000E+03</rscale>
<asrwt>0</asrwt>
<pdfrwt beam="1">  1        1 0.10570810E+00 0.30000000E+03</pdfrwt>
<pdfrwt beam="2">0</pdfrwt>
<totfact> 0.31535985E+01</totfact>
</mgrwt>
</event>
<event>
 6    1  0.1901260E-004  0.3000000E+03  0.7818608E-02  0.1093470E+00
          1   -1    0    0  502    0  0.00000000000E+00  0.00000000000E+00  0.48951657927E+02  0.48951657927E+02  0.00000000000E+00 0.  1.
         13   -1    0    0    0    0 -0.00000000000E+00 -0.00000000000E+00 -0.10000000000E+04  0.10000000000E+04  0.00000000000E+00 0.  1.
    9000005    2    1    2  501    0 -0.13315833866E+02  0.26271166025E+02 -0.95852129010E+03  0.10185653033E+04  0.34328519906E+03 0.  0.
         13    1    3    3    0    0 -0.93456275130E+02 -0.97425648923E+02 -0.17354560429E+03  0.21987248395E+03  0.00000000000E+00 0.  1.
          1    1    3    3  501    0  0.80140441264E+02  0.12369681495E+03 -0.78497568581E+03  0.79869281934E+03  0.00000000000E+00 0.  1.
         21    1    1    2  502  501  0.13315833866E+02 -0.26271166025E+02  0.74729480284E+01  0.30386354636E+02  0.00000000000E+00 0.  1.
<mgrwt>
<rscale>  1 0.30000000E+03</rscale>
<asrwt>0</asrwt>
<pdfrwt beam="1">  1        1 0.17800640E+00 0.30000000E+03</pdfrwt>
<pdfrwt beam="2">0</pdfrwt>
<totfact> 0.13061552E+01</totfact>
</mgrwt>
</event>
<event>
 6    1  0.1901260E-004  0.3000000E+03  0.7818608E-02  0.1093470E+00
          1   -1    0    0  502    0  0.00000000000E+00  0.00000000000E+00  0.79159831170E+02  0.79159831170E+02  0.00000000000E+00 0.  1.
         13   -1    0    0    0    0 -0.00000000000E+00 -0.00000000000E+00 -0.10000000000E+04  0.10000000000E+04  0.00000000000E+00 0.  1.
    9000005    2    1    2  501    0  0.15831183498E+01 -0.47011282726E+02 -0.96576007798E+03  0.10141185735E+04  0.30582901404E+03 0.  0.
         13    1    3    3    0    0 -0.11406079837E+03 -0.66110853763E+01 -0.79940297075E+03  0.80752627314E+03  0.00000000000E+00 0.  1.
          3    1    3    3  501    0  0.11564391672E+03 -0.40400197350E+02 -0.16635710724E+03  0.20659230031E+03  0.00000000000E+00 0.  1.
         21    1    1    2  502  501 -0.15831183498E+01  0.47011282726E+02  0.44919909153E+02  0.65041257718E+02  0.00000000000E+00 0.  1.
<mgrwt>
<rscale>  1 0.30000000E+03</rscale>
<asrwt>0</asrwt>
<pdfrwt beam="1">  1        1 0.28785454E+00 0.30000000E+03</pdfrwt>
<pdfrwt beam="2">0</pdfrwt>
<totfact> 0.39661066E+00</totfact>
</mgrwt>
</event>
<event>
 6    1  0.1901260E-004  0.3000000E+03  0.7818608E-02  0.1093470E+00
          1   -1    0    0  502    0  0.00000000000E+00  0.00000000000E+00  0.40270930201E+02  0.40270930201E+02  0.00000000000E+00 0.  1.
         13   -1    0    0    0    0 -0.00000000000E+00 -0.00000000000E+00 -0.10000000000E+04  0.10000000000E+04  0.00000000000E+00 0.  1.
    9000005    2    1    2  501    0  0.22107302436E+02 -0.21444369277E+02 -0.94949020968E+03  0.10078143738E+04  0.33646628364E+03 0.  0.
         13    1    3    3    0    0  0.64121453450E+02 -0.16925705224E+03 -0.58184094749E+03  0.60934259551E+03  0.00000000000E+00 0.  1.
          1    1    3    3  501    0 -0.42014151014E+02  0.14781268296E+03 -0.36764926219E+03  0.39847177832E+03  0.00000000000E+00 0.  1.
         21    1    1    2  502  501 -0.22107302436E+02  0.21444369277E+02 -0.10238860117E+02  0.32456556367E+02  0.00000000000E+00 0.  1.
<mgrwt>
<rscale>  1 0.30000000E+03</rscale>
<asrwt>0</asrwt>
<pdfrwt beam="1">  1        1 0.14644005E+00 0.30000000E+03</pdfrwt>
<pdfrwt beam="2">0</pdfrwt>
<totfact> 0.18733589E+01</totfact>
</mgrwt>
</event>
<event>
 6    1  0.1901260E-004  0.3000000E+03  0.7818608E-02  0.1093470E+00
          1   -1    0    0  502    0  0.00000000000E+00  0.00000000000E+00  0.33271151443E+02  0.33271151443E+02  0.00000000000E+00 0.  1.
         13   -1    0    0    0    0 -0.00000000000E+00 -0.00000000000E+00 -0.10000000000E+04  0.10000000000E+04  0.00000000000E+00 0.  1.
    9000005    2    1    2  501    0 -0.11374108095E+02  0.34953427881E+00 -0.96917761145E+03  0.10216311794E+04  0.32294818734E+03 0.  0.
         13    1    3    3    0    0 -0.20868241112E+02  0.11039787954E+03 -0.11657750589E+03  0.16190580649E+03  0.00000000000E+00 0.  1.
          3    1    3    3  501    0  0.94941330170E+01 -0.11004834526E+03 -0.85260010556E+03  0.85972537292E+03  0.00000000000E+00 0.  1.
         21    1    1    2  502  501  0.11374108095E+02 -0.34953427881E+00  0.24487628903E+01  0.11639972030E+02  0.00000000000E+00 0.  1.
<mgrwt>
<rscale>  1 0.30000000E+03</rscale>
<asrwt>0</asrwt>
<pdfrwt beam="1">  1        1 0.12098626E+00 0.30000000E+03</pdfrwt>
<pdfrwt beam="2">0</pdfrwt>
<totfact> 0.25665066E+01</totfact>
</mgrwt>
</event>
<event>
 6    1  0.1901260E-004  0.3000000E+03  0.7818608E-02  0.1093470E+00
          1   -1    0    0  502    0  0.00000000000E+00  0.00000000000E+00  0.48253463400E+02  0.48253463400E+02  0.00000000000E+00 0.  1.
         13   -1    0    0    0    0 -0.00000000000E+00 -0.00000000000E+00 -0.10000000000E+04  0.10000000000E+04  0.00000000000E+00 0.  1.
    9000005    2    1    2  501    0 -0.70071335371E+02  0.10151854602E+02 -0.91475592906E+03  0.96837006563E+03  0.30975655290E+03 0.  0.
         13    1    3    3    0    0 -0.16098869904E+03  0.89360246755E+02 -0.67959203473E+03  0.70409370725E+03  0.00000000000E+00 0.  1.
          1    1    3    3  501    0  0.90917363666E+02 -0.79208392153E+02 -0.23516389433E+03  0.26427635838E+03  0.00000000000E+00 0.  1.
         21    1    1    2  502  501  0.70071335371E+02 -0.10151854602E+02 -0.36990607536E+02  0.79883397765E+02  0.00000000000E+00 0.  1.
<mgrwt>
<rscale>  1 0.30000000E+03</rscale>
<asrwt>0</asrwt>
<pdfrwt beam="1">  1        1 0.17546751E+00 0.30000000E+03</pdfrwt>
<pdfrwt beam="2">0</pdfrwt>
<totfact> 0.13437378E+01</totfact>
</mgrwt>
</event>
<event>
 6    1  0.1901260E-004  0.3000000E+03  0.7818608E-02  0.1093470E+00
          1   -1    0    0  502    0  0.00000000000E+00  0.00000000000E+00  0.34700930124E+02  0.34700930124E+02  0.00000000000E+00 0.  1.
         13   -1    0    0    0    0 -0.00000000000E+00 -0.00000000000E+00 -0.10000000000E+04  0.10000000000E+04  0.00000000000E+00 0.  1.
    9000005    2    1    2  501    0 -0.17014776527E+02 -0.35990534863E+01 -0.96405172695E+03  0.10172649997E+04  0.32423739994E+03 0.  0.
         13    1    3    3    0    0  0.41549633617E+02 -0.15571037290E+03 -0.44973735810E+03  0.47774028881E+03  0.00000000000E+00 0.  1.
          3    1    3    3  501    0 -0.58564410144E+02  0.15211131941E+03 -0.51431436885E+03  0.53952471086E+03  0.00000000000E+00 0.  1.
         21    1    1    2  502  501  0.17014776527E+02  0.35990534863E+01 -0.12473429259E+01  0.17435930449E+02  0.00000000000E+00 0.  1.
<mgrwt>
<rscale>  1 0.30000000E+03</rscale>
<asrwt>0</asrwt>
<pdfrwt beam="1">  1        1 0.12618547E+00 0.30000000E+03</pdfrwt>
<pdfrwt beam="2">0</pdfrwt>
<totfact> 0.24008644E+01</totfact>
</mgrwt>
</event>
<event>
 6    1  0.1901260E-004  0.3000000E+03  0.7818608E-02  0.1093470E+00
          1   -1    0    0  502    0  0.00000000000E+00  0.00000000000E+00  0.60098679103E+02  0.60098679103E+02  0.00000000000E+00 0.  1.
         13   -1    0    0    0    0 -0.00000000000E+00 -0.00000000000E+00 -0.10000000000E+04  0.10000000000E+04  0.00000000000E+00 0.  1.
    9000005    2    1    2  501    0  0.33866742542E+02  0.10544566757E+02 -0.96121635872E+03  0.10187166181E+04  0.33554212180E+03 0.  0.
         13    1    3    3    0    0  0.26430984098E+02 -0.10624475682E+03 -0.95966952446E+02  0.14558915219E+03  0.00000000000E+00 0.  1.
          3    1    3    3  501    0  0.74357584443E+01  0.11678932358E+03 -0.86524940628E+03  0.87312746588E+03  0.00000000000E+00 0.  1.
         21    1    1    2  502  501 -0.33866742542E+02 -0.10544566757E+02  0.21315037825E+02  0.41382061041E+02  0.00000000000E+00 0.  1.
<mgrwt>
<rscale>  1 0.30000000E+03</rscale>
<asrwt>0</asrwt>
<pdfrwt beam="1">  1        1 0.21854111E+00 0.30000000E+03</pdfrwt>
<pdfrwt beam="2">0</pdfrwt>
<totfact> 0.83741595E+00</totfact>
</mgrwt>
</event>
<event>
 6    1  0.1901260E-004  0.3000000E+03  0.7818608E-02  0.1093470E+00
          1   -1    0    0  502    0  0.00000000000E+00  0.00000000000E+00  0.24181232581E+02  0.24181232581E+02  0.00000000000E+00 0.  1.
         13   -1    0    0    0    0 -0.00000000000E+00 -0.00000000000E+00 -0.10000000000E+04  0.10000000000E+04  0.00000000000E+00 0.  1.
    9000005    2    1    2  501    0 -0.20754758955E+02  0.25228500733E+01 -0.93231292674E+03  0.97591237134E+03  0.28768114013E+03 0.  0.
         13    1    3    3    0    0 -0.84026390097E+02 -0.94417533410E+01 -0.89982321811E+03  0.90378725638E+03  0.00000000000E+00 0.  1.
          3    1    3    3  501    0  0.63271631142E+02  0.11964603414E+02 -0.32489708628E+02  0.72125114967E+02  0.00000000000E+00 0.  1.
         21    1    1    2  502  501  0.20754758955E+02 -0.25228500733E+01 -0.43505840682E+02  0.48268861239E+02  0.00000000000E+00 0.  1.
<mgrwt>
<rscale>  1 0.30000000E+03</rscale>
<asrwt>0</asrwt>
<pdfrwt beam="1">  1        1 0.87931940E-01 0.30000000E+03</pdfrwt>
<pdfrwt beam="2">0</pdfrwt>
<totfact> 0.41162238E+01</totfact>
</mgrwt>
</event>
<event>
 6    1  0.1901260E-004  0.3000000E+03  0.7818608E-02  0.1093470E+00
          3   -1    0    0  502    0  0.00000000000E+00  0.00000000000E+00  0.28009461435E+02  0.28009461435E+02  0.00000000000E+00 0.  1.
         13   -1    0    0    0    0 -0.00000000000E+00 -0.00000000000E+00 -0.10000000000E+04  0.10000000000E+04  0.00000000000E+00 0.  1.
    9000005    2    1    2  501    0 -0.94956955231E+01 -0.31458466939E+01 -0.97514926531E+03  0.10175193642E+04  0.29039542413E+03 0.  0.
         13    1    3    3    0    0  0.45362809551E+02 -0.12556813546E+03 -0.68457149894E+03  0.69746919523E+03  0.00000000000E+00 0.  1.
          3    1    3    3  501    0 -0.54858505074E+02  0.12242228877E+03 -0.29057776637E+03  0.32005016900E+03  0.00000000000E+00 0.  1.
         21    1    1    2  502  501  0.94956955231E+01  0.31458466939E+01  0.31587267414E+01  0.10490097212E+02  0.00000000000E+00 0. -1.
<mgrwt>
<rscale>  1 0.30000000E+03</rscale>
<asrwt>0</asrwt>
<pdfrwt beam="1">  1        3 0.10185280E+00 0.30000000E+03</pdfrwt>
<pdfrwt beam="2">0</pdfrwt>
<totfact> 0.37312481E+00</totfact>
</mgrwt>
</event>
<event>
 6    1  0.1901260E-004  0.3000000E+03  0.7818608E-02  0.1093470E+00
          1   -1    0    0  502    0  0.00000000000E+00  0.00000000000E+00  0.53210220800E+02  0.53210220800E+02  0.00000000000E+00 0.  1.
         13   -1    0    0    0    0 -0.00000000000E+00 -0.00000000000E+00 -0.10000000000E+04  0.10000000000E+04  0.00000000000E+00 0.  1.
    9000005    2    1    2  501    0  0.16268735719E+02 -0.28412005474E+00 -0.96967022499E+03  0.10251341227E+04  0.33222713880E+03 0.  0.
         13    1    3    3    0    0  0.80392364686E+02  0.13631206255E+03 -0.68389141895E+03  0.70196252293E+03  0.00000000000E+00 0.  1.
          1    1    3    3  501    0 -0.64123628968E+02 -0.13659618261E+03 -0.28577880605E+03  0.32317159974E+03  0.00000000000E+00 0.  1.
         21    1    1    2  502  501 -0.16268735719E+02  0.28412005474E+00  0.22880445793E+02  0.28076098123E+02  0.00000000000E+00 0.  1.
<mgrwt>
<rscale>  1 0.30000000E+03</rscale>
<asrwt>0</asrwt>
<pdfrwt beam="1">  1        1 0.19349212E+00 0.30000000E+03</pdfrwt>
<pdfrwt beam="2">0</pdfrwt>
<totfact> 0.11001782E+01</totfact>
</mgrwt>
</event>
<event>
 6    1  0.1901260E-004  0.3000000E+03  0.7818608E-02  0.1093470E+00
          1   -1    0    0  502    0  0.00000000000E+00  0.00000000000E+00  0.68817809843E+02  0.68817809843E+02  0.00000000000E+00 0.  1.
         13   -1    0    0    0    0 -0.00000000000E+00 -0.00000000000E+00 -0.10000000000E+04  0.10000000000E+04  0.00000000000E+00 0.  1.
    9000005    2    1    2  501    0  0.48519232577E+02  0.70855379699E+02 -0.92250376383E+03  0.98250491483E+03  0.32699864315E+03 0.  0.
         13    1    3    3    0    0 -0.40198136301E+02  0.11320115892E+03 -0.85466159673E+03  0.86306247599E+03  0.00000000000E+00 0.  1.
          3    1    3    3  501    0  0.88717368878E+02 -0.42345779224E+02 -0.67842167102E+02  0.11944243884E+03  0.00000000000E+00 0.  1.
         21    1    1    2  502  501 -0.48519232577E+02 -0.70855379699E+02 -0.86784263293E+01  0.86312895014E+02  0.00000000000E+00 0.  1.
<mgrwt>
<rscale>  1 0.30000000E+03</rscale>
<asrwt>0</asrwt>
<pdfrwt beam="1">  1        1 0.25024711E+00 0.30000000E+03</pdfrwt>
<pdfrwt beam="2">0</pdfrwt>
<totfact> 0.59502897E+00</totfact>
</mgrwt>
</event>
<event>
 6    1  0.1901260E-004  0.3000000E+03  0.7818608E-02  0.1093470E+00
          1   -1    0    0  502    0  0.00000000000E+00  0.00000000000E+00  0.52774537460E+02  0.52774537460E+02  0.00000000000E+00 0.  1.
         13   -1    0    0    0    0 -0.00000000000E+00 -0.00000000000E+00 -0.10000000000E+04  0.10000000000E+04  0.00000000000E+00 0.  1.
    9000005    2    1    2  501    0 -0.18776098554E+02  0.22031888392E+02 -0.96497626222E+03  0.10188181408E+04  0.32553536130E+03 0.  0.
         13    1    3    3    0    0 -0.87543668455E+02  0.15186557669E+03 -0.43886596515E+03  0.47257844073E+03  0.00000000000E+00 0.  1.
          1    1    3    3  501    0  0.68767569901E+02 -0.12983368830E+03 -0.52611029706E+03  0.54623970010E+03  0.00000000000E+00 0.  1.
         21    1    1    2  502  501  0.18776098554E+02 -0.22031888392E+02  0.17750799677E+02  0.33956396632E+02  0.00000000000E+00 0.  1.
<mgrwt>
<rscale>  1 0.30000000E+03</rscale>
<asrwt>0</asrwt>
<pdfrwt beam="1">  1        1 0.19190781E+00 0.30000000E+03</pdfrwt>
<pdfrwt beam="2">0</pdfrwt>
<totfact> 0.11195634E+01</totfact>
</mgrwt>
</event>
<event>
 6    1  0.1901260E-004  0.3000000E+03  0.7818608E-02  0.1093470E+00
          1   -1    0    0  502    0  0.00000000000E+00  0.00000000000E+00  0.35236063971E+02  0.35236063971E+02  0.00000000000E+00 0.  1.
         13   -1    0    0    0    0 -0.00000000000E+00 -0.00000000000E+00 -0.10000000000E+04  0.10000000000E+04  0.00000000000E+00 0.  1.
    9000005    2    1    2  501    0  0.34636001212E+02 -0.46639145456E+01 -0.88828251934E+03  0.95114794485E+03  0.33825312141E+03 0.  0.
         13    1    3    3    0    0 -0.10637193704E+03  0.78314480291E+02 -0.17451595248E+03  0.21886974318E+03  0.00000000000E+00 0.  1.
          3    1    3    3  501    0  0.14100793825E+03 -0.82978394836E+02 -0.71376656687E+03  0.73227820167E+03  0.00000000000E+00 0.  1.
         21    1    1    2  502  501 -0.34636001212E+02  0.46639145456E+01 -0.76481416686E+02  0.84088119120E+02  0.00000000000E+00 0. -1.
<mgrwt>
<rscale>  1 0.30000000E+03</rscale>
<asrwt>0</asrwt>
<pdfrwt beam="1">  1        1 0.12813141E+00 0.30000000E+03</pdfrwt>
<pdfrwt beam="2">0</pdfrwt>
<totfact> 0.23424021E+01</totfact>
</mgrwt>
</event>
<event>
 6    1  0.1901260E-004  0.3000000E+03  0.7818608E-02  0.1093470E+00
          1   -1    0    0  502    0  0.00000000000E+00  0.00000000000E+00  0.50387834552E+02  0.50387834552E+02  0.00000000000E+00 0.  1.
         13   -1    0    0    0    0 -0.00000000000E+00 -0.00000000000E+00 -0.10000000000E+04  0.10000000000E+04  0.00000000000E+00 0.  1.
    9000005    2    1    2  501    0 -0.26795756721E+02 -0.41373292708E+01 -0.96222953395E+03  0.10204825163E+04  0.33876800321E+03 0.  0.
         13    1    3    3    0    0  0.95411157710E+02  0.12652009845E+03 -0.39090034839E+03  0.42179818243E+03  0.00000000000E+00 0.  1.
          1    1    3    3  501    0 -0.12220691443E+03 -0.13065742772E+03 -0.57132918556E+03  0.59868433387E+03  0.00000000000E+00 0.  1.
         21    1    1    2  502  501  0.26795756721E+02  0.41373292708E+01  0.12617368504E+02  0.29905318251E+02  0.00000000000E+00 0.  1.
<mgrwt>
<rscale>  1 0.30000000E+03</rscale>
<asrwt>0</asrwt>
<pdfrwt beam="1">  1        1 0.18322888E+00 0.30000000E+03</pdfrwt>
<pdfrwt beam="2">0</pdfrwt>
<totfact> 0.12324001E+01</totfact>
</mgrwt>
</event>
<event>
 6    1  0.1901260E-004  0.3000000E+03  0.7818608E-02  0.1093470E+00
          1   -1    0    0  502    0  0.00000000000E+00  0.00000000000E+00  0.43403203626E+02  0.43403203626E+02  0.00000000000E+00 0.  1.
         13   -1    0    0    0    0 -0.00000000000E+00 -0.00000000000E+00 -0.10000000000E+04  0.10000000000E+04  0.00000000000E+00 0.  1.
    9000005    2    1    2  501    0 -0.21671884941E+02 -0.18604760849E+01 -0.96598718200E+03  0.10197111942E+04  0.32589346698E+03 0.  0.
         13    1    3    3    0    0 -0.49895360824E+02 -0.60938546261E+02 -0.34598210306E+02  0.86023773508E+02  0.00000000000E+00 0.  1.
          3    1    3    3  501    0  0.28223475883E+02  0.59078070176E+02 -0.93138897170E+03  0.93368742070E+03  0.00000000000E+00 0.  1.
         21    1    1    2  502  501  0.21671884941E+02  0.18604760849E+01  0.93903856290E+01  0.23692009422E+02  0.00000000000E+00 0.  1.
<mgrwt>
<rscale>  1 0.30000000E+03</rscale>
<asrwt>0</asrwt>
<pdfrwt beam="1">  1        1 0.15783016E+00 0.30000000E+03</pdfrwt>
<pdfrwt beam="2">0</pdfrwt>
<totfact> 0.16406077E+01</totfact>
</mgrwt>
</event>
<event>
 6    1  0.1901260E-004  0.3000000E+03  0.7818608E-02  0.1093470E+00
          1   -1    0    0  502    0  0.00000000000E+00  0.00000000000E+00  0.31825111462E+02  0.31825111462E+02  0.00000000000E+00 0.  1.
         13   -1    0    0    0    0 -0.00000000000E+00 -0.00000000000E+00 -0.10000000000E+04  0.10000000000E+04  0.00000000000E+00 0.  1.
    9000005    2    1    2  501    0 -0.11478230915E+02 -0.57642905717E+01 -0.94147578685E+03  0.10021971034E+04  0.34330365569E+03 0.  0.
         13    1    3    3    0    0  0.25579139609E+02 -0.62855529332E+02 -0.10419422857E+02  0.68656203823E+02  0.00000000000E+00 0.  1.
          1    1    3    3  501    0 -0.37057370524E+02  0.57091238760E+02 -0.93105636399E+03  0.93354089958E+03  0.00000000000E+00 0.  1.
         21    1    1    2  502  501  0.11478230915E+02  0.57642905717E+01 -0.26699101688E+02  0.29628008061E+02  0.00000000000E+00 0.  1.
<mgrwt>
<rscale>  1 0.30000000E+03</rscale>
<asrwt>0</asrwt>
<pdfrwt beam="1">  1        1 0.11572792E+00 0.30000000E+03</pdfrwt>
<pdfrwt beam="2">0</pdfrwt>
<totfact> 0.27498292E+01</totfact>
</mgrwt>
</event>
<event>
 6    1  0.1901260E-004  0.3000000E+03  0.7818608E-02  0.1093470E+00
          3   -1    0    0  502    0  0.00000000000E+00  0.00000000000E+00  0.27972981873E+02  0.27972981873E+02  0.00000000000E+00 0.  1.
         13   -1    0    0    0    0 -0.00000000000E+00 -0.00000000000E+00 -0.10000000000E+04  0.10000000000E+04  0.00000000000E+00 0.  1.
    9000005    2    1    2  501    0 -0.15243570587E+02  0.10465053765E+02 -0.94566658063E+03  0.99577427911E+03  0.31135068560E+03 0.  0.
         13    1    3    3    0    0 -0.12694532745E+03 -0.58015399868E+02 -0.23657235411E+03  0.27467686745E+03  0.00000000000E+00 0.  1.
          3    1    3    3  501    0  0.11170175687E+03  0.68480453633E+02 -0.70909422652E+03  0.72109741166E+03  0.00000000000E+00 0.  1.
         21    1    1    2  502  501  0.15243570587E+02 -0.10465053765E+02 -0.26360437498E+02  0.32198702764E+02  0.00000000000E+00 0.  1.
<mgrwt>
<rscale>  1 0.30000000E+03</rscale>
<asrwt>0</asrwt>
<pdfrwt beam="1">  1        3 0.10172015E+00 0.30000000E+03</pdfrwt>
<pdfrwt beam="2">0</pdfrwt>
<totfact> 0.37442490E+00</totfact>
</mgrwt>
</event>
<event>
 6    1  0.1901260E-004  0.3000000E+03  0.7818608E-02  0.1093470E+00
          1   -1    0    0  502    0  0.00000000000E+00  0.00000000000E+00  0.35313901141E+02  0.35313901141E+02  0.00000000000E+00 0.  1.
         13   -1    0    0    0    0 -0.00000000000E+00 -0.00000000000E+00 -0.10000000000E+04  0.10000000000E+04  0.00000000000E+00 0.  1.
    9000005    2    1    2  501    0  0.18483257468E+01  0.14794879134E+02 -0.96743301622E+03  0.10201530861E+04  0.32336260376E+03 0.  0.
         13    1    3    3    0    0  0.10322651436E+03  0.12742832686E+03 -0.38803284067E+03  0.42126378576E+03  0.00000000000E+00 0.  1.
          3    1    3    3  501    0 -0.10137818861E+03 -0.11263344772E+03 -0.57940017555E+03  0.59888930037E+03  0.00000000000E+00 0.  1.
         21    1    1    2  502  501 -0.18483257468E+01 -0.14794879134E+02  0.27469173658E+01  0.15160815006E+02  0.00000000000E+00 0.  1.
<mgrwt>
<rscale>  1 0.30000000E+03</rscale>
<asrwt>0</asrwt>
<pdfrwt beam="1">  1        1 0.12841446E+00 0.30000000E+03</pdfrwt>
<pdfrwt beam="2">0</pdfrwt>
<totfact> 0.23340515E+01</totfact>
</mgrwt>
</event>
<event>
 6    1  0.1901260E-004  0.3000000E+03  0.7818608E-02  0.1093470E+00
          1   -1    0    0  502    0  0.00000000000E+00  0.00000000000E+00  0.49304404011E+02  0.49304404011E+02  0.00000000000E+00 0.  1.
         13   -1    0    0    0    0 -0.00000000000E+00 -0.00000000000E+00 -0.10000000000E+04  0.10000000000E+04  0.00000000000E+00 0.  1.
    9000005    2    1    2  501    0  0.29881721343E+02 -0.28580986404E+02 -0.95177488110E+03  0.10079407133E+04  0.32917968824E+03 0.  0.
         13    1    3    3    0    0  0.11038897036E+03  0.10714827102E+03 -0.29772383417E+03  0.33512081134E+03  0.00000000000E+00 0.  1.
          3    1    3    3  501    0 -0.80507249012E+02 -0.13572925743E+03 -0.65405104693E+03  0.67281990194E+03  0.00000000000E+00 0.  1.
         21    1    1    2  502  501 -0.29881721343E+02  0.28580986404E+02  0.10792851097E+01  0.41363690728E+02  0.00000000000E+00 0.  1.
<mgrwt>
<rscale>  1 0.30000000E+03</rscale>
<asrwt>0</asrwt>
<pdfrwt beam="1">  1        1 0.17928912E+00 0.30000000E+03</pdfrwt>
<pdfrwt beam="2">0</pdfrwt>
<totfact> 0.12876028E+01</totfact>
</mgrwt>
</event>
<event>
 6    1  0.1901260E-004  0.3000000E+03  0.7818608E-02  0.1093470E+00
          1   -1    0    0  502    0  0.00000000000E+00  0.00000000000E+00  0.31668256727E+02  0.31668256727E+02  0.00000000000E+00 0.  1.
         13   -1    0    0    0    0 -0.00000000000E+00 -0.00000000000E+00 -0.10000000000E+04  0.10000000000E+04  0.00000000000E+00 0.  1.
    9000005    2    1    2  501    0 -0.22968054127E+01  0.19864953116E+02 -0.95536491482E+03  0.10078348701E+04  0.32032657284E+03 0.  0.
         13    1    3    3    0    0 -0.85445905744E+01  0.95758712525E+02 -0.91798353187E+03  0.92300406599E+03  0.00000000000E+00 0.  1.
          3    1    3    3  501    0  0.62477851617E+01 -0.75893759409E+02 -0.37381382953E+02  0.84830804123E+02  0.00000000000E+00 0.  1.
         21    1    1    2  502  501  0.22968054127E+01 -0.19864953116E+02 -0.12966828450E+02  0.23833386614E+02  0.00000000000E+00 0. -1.
<mgrwt>
<rscale>  1 0.30000000E+03</rscale>
<asrwt>0</asrwt>
<pdfrwt beam="1">  1        1 0.11515754E+00 0.30000000E+03</pdfrwt>
<pdfrwt beam="2">0</pdfrwt>
<totfact> 0.27707854E+01</totfact>
</mgrwt>
</event>
<event>
 6    1  0.1901260E-004  0.3000000E+03  0.7818608E-02  0.1093470E+00
          1   -1    0    0  502    0  0.00000000000E+00  0.00000000000E+00  0.36907924444E+02  0.36907924444E+02  0.00000000000E+00 0.  1.
         13   -1    0    0    0    0 -0.00000000000E+00 -0.00000000000E+00 -0.10000000000E+04  0.10000000000E+04  0.00000000000E+00 0.  1.
    9000005    2    1    2  501    0  0.36978080713E+01 -0.14389398206E+02 -0.96819646653E+03  0.10211985842E+04  0.32437851641E+03 0.  0.
         13    1    3    3    0    0 -0.16009059477E+01  0.14699219574E+03 -0.30426964361E+03  0.33791905026E+03  0.00000000000E+00 0.  1.
          3    1    3    3  501    0  0.52987140190E+01 -0.16138159395E+03 -0.66392682292E+03  0.68327953389E+03  0.00000000000E+00 0.  1.
         21    1    1    2  502  501 -0.36978080713E+01  0.14389398206E+02  0.51043909723E+01  0.15709340293E+02  0.00000000000E+00 0. -1.
<mgrwt>
<rscale>  1 0.30000000E+03</rscale>
<asrwt>0</asrwt>
<pdfrwt beam="1">  1        1 0.13421092E+00 0.30000000E+03</pdfrwt>
<pdfrwt beam="2">0</pdfrwt>
<totfact> 0.21712455E+01</totfact>
</mgrwt>
</event>
<event>
 6    1  0.1901260E-004  0.3000000E+03  0.7818608E-02  0.1093470E+00
          1   -1    0    0  502    0  0.00000000000E+00  0.00000000000E+00  0.32224611721E+02  0.32224611721E+02  0.00000000000E+00 0.  1.
         13   -1    0    0    0    0 -0.00000000000E+00 -0.00000000000E+00 -0.10000000000E+04  0.10000000000E+04  0.00000000000E+00 0.  1.
    9000005    2    1    2  501    0 -0.81464622531E+01 -0.16504652079E+02 -0.94730258787E+03  0.10046945564E+04  0.33420082340E+03 0.  0.
         13    1    3    3    0    0  0.89394626168E+02 -0.13320644274E+03 -0.66445076194E+03  0.68354236929E+03  0.00000000000E+00 0.  1.
          3    1    3    3  501    0 -0.97541088421E+02  0.11670179066E+03 -0.28285182593E+03  0.32115218714E+03  0.00000000000E+00 0.  1.
         21    1    1    2  502  501  0.81464622531E+01  0.16504652079E+02 -0.20472800412E+02  0.27530055289E+02  0.00000000000E+00 0.  1.
<mgrwt>
<rscale>  1 0.30000000E+03</rscale>
<asrwt>0</asrwt>
<pdfrwt beam="1">  1        1 0.11718065E+00 0.30000000E+03</pdfrwt>
<pdfrwt beam="2">0</pdfrwt>
<totfact> 0.26974403E+01</totfact>
</mgrwt>
</event>
<event>
 6    1  0.1901260E-004  0.3000000E+03  0.7818608E-02  0.1093470E+00
          1   -1    0    0  502    0  0.00000000000E+00  0.00000000000E+00  0.31050326542E+02  0.31050326542E+02  0.00000000000E+00 0.  1.
         13   -1    0    0    0    0 -0.00000000000E+00 -0.00000000000E+00 -0.10000000000E+04  0.10000000000E+04  0.00000000000E+00 0.  1.
    9000005    2    1    2  501    0  0.27661762058E+02 -0.59865049996E+02 -0.78226399193E+03  0.83305906164E+03  0.27874979787E+03 0.  0.
         13    1    3    3    0    0  0.27660552331E+00  0.10475741592E+03 -0.18166413234E+03  0.20970467253E+03  0.00000000000E+00 0.  1.
          1    1    3    3  501    0  0.27385156535E+02 -0.16462246592E+03 -0.60059985959E+03  0.62335438911E+03  0.00000000000E+00 0.  1.
         21    1    1    2  502  501 -0.27661762058E+02  0.59865049996E+02 -0.18668568153E+03  0.19799126490E+03  0.00000000000E+00 0.  1.
<mgrwt>
<rscale>  1 0.30000000E+03</rscale>
<asrwt>0</asrwt>
<pdfrwt beam="1">  1        1 0.11291052E+00 0.30000000E+03</pdfrwt>
<pdfrwt beam="2">0</pdfrwt>
<totfact> 0.28555671E+01</totfact>
</mgrwt>
</event>
<event>
 6    1  0.1901260E-004  0.3000000E+03  0.7818608E-02  0.1093470E+00
          1   -1    0    0  502    0  0.00000000000E+00  0.00000000000E+00  0.33614002182E+02  0.33614002182E+02  0.00000000000E+00 0.  1.
         13   -1    0    0    0    0 -0.00000000000E+00 -0.00000000000E+00 -0.10000000000E+04  0.10000000000E+04  0.00000000000E+00 0.  1.
    9000005    2    1    2  501    0  0.13345120209E+01 -0.10723906301E+02 -0.96803220559E+03  0.10226827127E+04  0.32966163988E+03 0.  0.
         13    1    3    3    0    0 -0.89874392516E+02 -0.46830985851E+02 -0.89415417541E+03  0.89987901247E+03  0.00000000000E+00 0.  1.
          1    1    3    3  501    0  0.91208904537E+02  0.36107079550E+02 -0.73878030173E+02  0.12280370028E+03  0.00000000000E+00 0.  1.
         21    1    1    2  502  501 -0.13345120209E+01  0.10723906301E+02  0.16462077699E+01  0.10931289435E+02  0.00000000000E+00 0. -1.
<mgrwt>
<rscale>  1 0.30000000E+03</rscale>
<asrwt>0</asrwt>
<pdfrwt beam="1">  1        1 0.12223299E+00 0.30000000E+03</pdfrwt>
<pdfrwt beam="2">0</pdfrwt>
<totfact> 0.25254658E+01</totfact>
</mgrwt>
</event>
<event>
 6    1  0.1901260E-004  0.3000000E+03  0.7818608E-02  0.1093470E+00
          1   -1    0    0  502    0  0.00000000000E+00  0.00000000000E+00  0.41586136572E+02  0.41586136572E+02  0.00000000000E+00 0.  1.
         13   -1    0    0    0    0 -0.00000000000E+00 -0.00000000000E+00 -0.10000000000E+04  0.10000000000E+04  0.00000000000E+00 0.  1.
    9000005    2    1    2  501    0 -0.68549779447E+02 -0.10034507988E+02 -0.85242502278E+03  0.91496308198E+03  0.32516035783E+03 0.  0.
         13    1    3    3    0    0 -0.11644558153E+03  0.13544528253E+03 -0.42966582916E+03  0.46531464920E+03  0.00000000000E+00 0.  1.
          3    1    3    3  501    0  0.47895802079E+02 -0.14547979052E+03 -0.42275919362E+03  0.44964843277E+03  0.00000000000E+00 0.  1.
         21    1    1    2  502  501  0.68549779447E+02  0.10034507988E+02 -0.10598884065E+03  0.12662305459E+03  0.00000000000E+00 0.  1.
<mgrwt>
<rscale>  1 0.30000000E+03</rscale>
<asrwt>0</asrwt>
<pdfrwt beam="1">  1        1 0.15122263E+00 0.30000000E+03</pdfrwt>
<pdfrwt beam="2">0</pdfrwt>
<totfact> 0.17710045E+01</totfact>
</mgrwt>
</event>
<event>
 6    1  0.1901260E-004  0.3000000E+03  0.7818608E-02  0.1093470E+00
          1   -1    0    0  502    0  0.00000000000E+00  0.00000000000E+00  0.49617077960E+02  0.49617077960E+02  0.00000000000E+00 0.  1.
         13   -1    0    0    0    0 -0.00000000000E+00 -0.00000000000E+00 -0.10000000000E+04  0.10000000000E+04  0.00000000000E+00 0.  1.
    9000005    2    1    2  501    0 -0.31083659487E+02  0.29307807922E+01 -0.96387559600E+03  0.10156047917E+04  0.31846843654E+03 0.  0.
         13    1    3    3    0    0 -0.14794056828E+03 -0.73781967523E+02 -0.36599057040E+03  0.40159592639E+03  0.00000000000E+00 0.  1.
          1    1    3    3  501    0  0.11685690879E+03  0.76712748315E+02 -0.59788502560E+03  0.61400886535E+03  0.00000000000E+00 0.  1.
         21    1    1    2  502  501  0.31083659487E+02 -0.29307807922E+01  0.13492673963E+02  0.34012286219E+02  0.00000000000E+00 0.  1.
<mgrwt>
<rscale>  1 0.30000000E+03</rscale>
<asrwt>0</asrwt>
<pdfrwt beam="1">  1        1 0.18042612E+00 0.30000000E+03</pdfrwt>
<pdfrwt beam="2">0</pdfrwt>
<totfact> 0.12713982E+01</totfact>
</mgrwt>
</event>
<event>
 6    1  0.1901260E-004  0.3000000E+03  0.7818608E-02  0.1093470E+00
          1   -1    0    0  502    0  0.00000000000E+00  0.00000000000E+00  0.27449036236E+02  0.27449036236E+02  0.00000000000E+00 0.  1.
         13   -1    0    0    0    0 -0.00000000000E+00 -0.00000000000E+00 -0.10000000000E+04  0.10000000000E+04  0.00000000000E+00 0.  1.
    9000005    2    1    2  501    0  0.41523777220E+01 -0.95277719431E+01 -0.93623070153E+03  0.98967097213E+03  0.32064417336E+03 0.  0.
         13    1    3    3    0    0 -0.11689974103E+03  0.33654722990E+02 -0.76999802605E+03  0.77954804211E+03  0.00000000000E+00 0.  1.
          3    1    3    3  501    0  0.12105211875E+03 -0.43182494933E+02 -0.16623267548E+03  0.21012293002E+03  0.00000000000E+00 0.  1.
         21    1    1    2  502  501 -0.41523777220E+01  0.95277719431E+01 -0.36320262232E+02  0.37778064105E+02  0.00000000000E+00 0. -1.
<mgrwt>
<rscale>  1 0.30000000E+03</rscale>
<asrwt>0</asrwt>
<pdfrwt beam="1">  1        1 0.99814888E-01 0.30000000E+03</pdfrwt>
<pdfrwt beam="2">0</pdfrwt>
<totfact> 0.34319772E+01</totfact>
</mgrwt>
</event>
<event>
 6    1  0.1901260E-004  0.3000000E+03  0.7818608E-02  0.1093470E+00
          1   -1    0    0  502    0  0.00000000000E+00  0.00000000000E+00  0.32671262118E+02  0.32671262118E+02  0.00000000000E+00 0.  1.
         13   -1    0    0    0    0 -0.00000000000E+00 -0.00000000000E+00 -0.10000000000E+04  0.10000000000E+04  0.00000000000E+00 0.  1.
    9000005    2    1    2  501    0 -0.76470187826E+01  0.26146024764E+02 -0.93876938901E+03  0.99320320015E+03  0.32314476562E+03 0.  0.
         13    1    3    3    0    0 -0.12114751123E+03 -0.77463566129E+02 -0.65390440946E+03  0.66952841633E+03  0.00000000000E+00 0.  1.
          3    1    3    3  501    0  0.11350049245E+03  0.10360959089E+03 -0.28486497954E+03  0.32367478382E+03  0.00000000000E+00 0.  1.
         21    1    1    2  502  501  0.76470187826E+01 -0.26146024764E+02 -0.28559348873E+02  0.39468061965E+02  0.00000000000E+00 0. -1.
<mgrwt>
<rscale>  1 0.30000000E+03</rscale>
<asrwt>0</asrwt>
<pdfrwt beam="1">  1        1 0.11880484E+00 0.30000000E+03</pdfrwt>
<pdfrwt beam="2">0</pdfrwt>
<totfact> 0.26404791E+01</totfact>
</mgrwt>
</event>
<event>
 6    1  0.1901260E-004  0.3000000E+03  0.7818608E-02  0.1093470E+00
          1   -1    0    0  502    0  0.00000000000E+00  0.00000000000E+00  0.47546025496E+02  0.47546025496E+02  0.00000000000E+00 0.  1.
         13   -1    0    0    0    0 -0.00000000000E+00 -0.00000000000E+00 -0.10000000000E+04  0.10000000000E+04  0.00000000000E+00 0.  1.
    9000005    2    1    2  501    0  0.43188104692E+02  0.66886769713E+02 -0.87069118838E+03  0.93342238402E+03  0.32685646561E+03 0.  0.
         13    1    3    3    0    0  0.68651740142E+01  0.16814346172E+03 -0.23702113142E+03  0.29068603522E+03  0.00000000000E+00 0.  1.
          3    1    3    3  501    0  0.36322930678E+02 -0.10125669201E+03 -0.63367005696E+03  0.64273634879E+03  0.00000000000E+00 0.  1.
         21    1    1    2  502  501 -0.43188104692E+02 -0.66886769713E+02 -0.81762786121E+02  0.11412364148E+03  0.00000000000E+00 0.  1.
<mgrwt>
<rscale>  1 0.30000000E+03</rscale>
<asrwt>0</asrwt>
<pdfrwt beam="1">  1        1 0.17289500E+00 0.30000000E+03</pdfrwt>
<pdfrwt beam="2">0</pdfrwt>
<totfact> 0.13830105E+01</totfact>
</mgrwt>
</event>
<event>
 6    1  0.1901260E-004  0.3000000E+03  0.7818608E-02  0.1093470E+00
          1   -1    0    0  502    0  0.00000000000E+00  0.00000000000E+00  0.39947609721E+02  0.39947609721E+02  0.00000000000E+00 0.  1.
         13   -1    0    0    0    0 -0.00000000000E+00 -0.00000000000E+00 -0.10000000000E+04  0.10000000000E+04  0.00000000000E+00 0.  1.
    9000005    2    1    2  501    0  0.13851442308E+02  0.19664615185E+02 -0.95447554428E+03  0.10152563004E+04  0.34517130724E+03 0.  0.
         13    1    3    3    0    0  0.15998471566E+03  0.64077363286E+02 -0.32902885141E+03  0.37143102023E+03  0.00000000000E+00 0.  1.
          1    1    3    3  501    0 -0.14613327335E+03 -0.44412748101E+02 -0.62544669287E+03  0.64382528017E+03  0.00000000000E+00 0.  1.
         21    1    1    2  502  501 -0.13851442308E+02 -0.19664615185E+02 -0.55768460002E+01  0.24691309315E+02  0.00000000000E+00 0.  1.
<mgrwt>
<rscale>  1 0.30000000E+03</rscale>
<asrwt>0</asrwt>
<pdfrwt beam="1">  1        1 0.14526434E+00 0.30000000E+03</pdfrwt>
<pdfrwt beam="2">0</pdfrwt>
<totfact> 0.18996455E+01</totfact>
</mgrwt>
</event>
<event>
 6    1  0.1901260E-004  0.3000000E+03  0.7818608E-02  0.1093470E+00
          1   -1    0    0  502    0  0.00000000000E+00  0.00000000000E+00  0.35032334066E+02  0.35032334066E+02  0.00000000000E+00 0.  1.
         13   -1    0    0    0    0 -0.00000000000E+00 -0.00000000000E+00 -0.10000000000E+04  0.10000000000E+04  0.00000000000E+00 0.  1.
    9000005    2    1    2  501    0 -0.21359305612E+02  0.41410740483E+01 -0.95632328220E+03  0.10116209308E+04  0.32916457771E+03 0.  0.
         13    1    3    3    0    0  0.14877825276E+03  0.52751438879E+01 -0.57685272939E+03  0.59575319306E+03  0.00000000000E+00 0.  1.
          3    1    3    3  501    0 -0.17013755837E+03 -0.11340698396E+01 -0.37947055281E+03  0.41586773779E+03  0.00000000000E+00 0.  1.
         21    1    1    2  502  501  0.21359305612E+02 -0.41410740483E+01 -0.86443837299E+01  0.23411403217E+02  0.00000000000E+00 0. -1.
<mgrwt>
<rscale>  1 0.30000000E+03</rscale>
<asrwt>0</asrwt>
<pdfrwt beam="1">  1        1 0.12739057E+00 0.30000000E+03</pdfrwt>
<pdfrwt beam="2">0</pdfrwt>
<totfact> 0.23644417E+01</totfact>
</mgrwt>
</event>
<event>
 6    1  0.1901260E-004  0.3000000E+03  0.7818608E-02  0.1093470E+00
          1   -1    0    0  502    0  0.00000000000E+00  0.00000000000E+00  0.32499625086E+02  0.32499625086E+02  0.00000000000E+00 0.  1.
         13   -1    0    0    0    0 -0.00000000000E+00 -0.00000000000E+00 -0.10000000000E+04  0.10000000000E+04  0.00000000000E+00 0.  1.
    9000005    2    1    2  501    0  0.34705801744E+02  0.85449720887E+01 -0.90944295074E+03  0.96432210881E+03  0.31867403359E+03 0.  0.
         13    1    3    3    0    0 -0.11540218997E+03 -0.39426925389E+02 -0.64546274098E+03  0.65688225572E+03  0.00000000000E+00 0.  1.
          1    1    3    3  501    0  0.15010799172E+03  0.47971897478E+02 -0.26398020976E+03  0.30743985309E+03  0.00000000000E+00 0.  1.
         21    1    1    2  502  501 -0.34705801744E+02 -0.85449720887E+01 -0.58057424178E+02  0.68177516271E+02  0.00000000000E+00 0.  1.
<mgrwt>
<rscale>  1 0.30000000E+03</rscale>
<asrwt>0</asrwt>
<pdfrwt beam="1">  1        1 0.11818070E+00 0.30000000E+03</pdfrwt>
<pdfrwt beam="2">0</pdfrwt>
<totfact> 0.26621720E+01</totfact>
</mgrwt>
</event>
<event>
 6    1  0.1901260E-004  0.3000000E+03  0.7818608E-02  0.1093470E+00
          1   -1    0    0  502    0  0.00000000000E+00  0.00000000000E+00  0.34482328825E+02  0.34482328825E+02  0.00000000000E+00 0.  1.
         13   -1    0    0    0    0 -0.00000000000E+00 -0.00000000000E+00 -0.10000000000E+04  0.10000000000E+04  0.00000000000E+00 0.  1.
    9000005    2    1    2  501    0 -0.15625558548E+02 -0.57801676419E+01 -0.96744565886E+03  0.10177107590E+04  0.31544653702E+03 0.  0.
         13    1    3    3    0    0 -0.22046407411E+02  0.15408920665E+03 -0.49647612286E+03  0.52030574497E+03  0.00000000000E+00 0.  1.
          1    1    3    3  501    0  0.64208488622E+01 -0.15986937429E+03 -0.47096953600E+03  0.49740501403E+03  0.00000000000E+00 0.  1.
         21    1    1    2  502  501  0.15625558548E+02  0.57801676419E+01  0.19279876843E+01  0.16771569826E+02  0.00000000000E+00 0. -1.
<mgrwt>
<rscale>  1 0.30000000E+03</rscale>
<asrwt>0</asrwt>
<pdfrwt beam="1">  1        1 0.12539055E+00 0.30000000E+03</pdfrwt>
<pdfrwt beam="2">0</pdfrwt>
<totfact> 0.24252821E+01</totfact>
</mgrwt>
</event>
<event>
 6    1  0.1901260E-004  0.3000000E+03  0.7818608E-02  0.1093470E+00
          3   -1    0    0  502    0  0.00000000000E+00  0.00000000000E+00  0.38856120148E+02  0.38856120148E+02  0.00000000000E+00 0.  1.
         13   -1    0    0    0    0 -0.00000000000E+00 -0.00000000000E+00 -0.10000000000E+04  0.10000000000E+04  0.00000000000E+00 0.  1.
    9000005    2    1    2  501    0  0.39399988274E+01 -0.10889878769E+02 -0.97565310575E+03  0.10202918888E+04  0.29826572461E+03 0.  0.
         13    1    3    3    0    0 -0.93505462124E+02 -0.11764543576E+03 -0.57682091105E+03  0.59607556856E+03  0.00000000000E+00 0.  1.
          3    1    3    3  501    0  0.97445460952E+02  0.10675555699E+03 -0.39883219470E+03  0.42421632021E+03  0.00000000000E+00 0.  1.
         21    1    1    2  502  501 -0.39399988274E+01  0.10889878769E+02  0.14509225901E+02  0.18564231376E+02  0.00000000000E+00 0.  1.
<mgrwt>
<rscale>  1 0.30000000E+03</rscale>
<asrwt>0</asrwt>
<pdfrwt beam="1">  1        3 0.14129528E+00 0.30000000E+03</pdfrwt>
<pdfrwt beam="2">0</pdfrwt>
<totfact> 0.12896875E+00</totfact>
</mgrwt>
</event>
<event>
 6    1  0.1901260E-004  0.3000000E+03  0.7818608E-02  0.1093470E+00
          1   -1    0    0  502    0  0.00000000000E+00  0.00000000000E+00  0.37894287333E+02  0.37894287333E+02  0.00000000000E+00 0.  1.
         13   -1    0    0    0    0 -0.00000000000E+00 -0.00000000000E+00 -0.10000000000E+04  0.10000000000E+04  0.00000000000E+00 0.  1.
    9000005    2    1    2  501    0 -0.19795113991E+02 -0.36718383325E+02 -0.93165550051E+03  0.98624836172E+03  0.32087968642E+03 0.  0.
         13    1    3    3    0    0 -0.32107810338E+02  0.67867092542E+02 -0.84916707786E+03  0.85247966537E+03  0.00000000000E+00 0.  1.
          1    1    3    3  501    0  0.12312696346E+02 -0.10458547587E+03 -0.82488422642E+02  0.13376869635E+03  0.00000000000E+00 0.  1.
         21    1    1    2  502  501  0.19795113991E+02  0.36718383325E+02 -0.30450212161E+02  0.51645925614E+02  0.00000000000E+00 0.  1.
<mgrwt>
<rscale>  1 0.30000000E+03</rscale>
<asrwt>0</asrwt>
<pdfrwt beam="1">  1        1 0.13779770E+00 0.30000000E+03</pdfrwt>
<pdfrwt beam="2">0</pdfrwt>
<totfact> 0.20779474E+01</totfact>
</mgrwt>
</event>
<event>
 6    1  0.1901260E-004  0.3000000E+03  0.7818608E-02  0.1093470E+00
          1   -1    0    0  502    0  0.00000000000E+00  0.00000000000E+00  0.36313651798E+02  0.36313651798E+02  0.00000000000E+00 0.  1.
         13   -1    0    0    0    0 -0.00000000000E+00 -0.00000000000E+00 -0.10000000000E+04  0.10000000000E+04  0.00000000000E+00 0.  1.
    9000005    2    1    2  501    0 -0.54612572411E+01 -0.20084038686E+02 -0.96371671892E+03  0.10155003180E+04  0.31946484569E+03 0.  0.
         13    1    3    3    0    0 -0.13530164438E+03  0.27313896353E+02 -0.22501185072E+03  0.26397522018E+03  0.00000000000E+00 0.  1.
          1    1    3    3  501    0  0.12984038714E+03 -0.47397935039E+02 -0.73870486820E+03  0.75152509784E+03  0.00000000000E+00 0.  1.
         21    1    1    2  502  501  0.54612572411E+01  0.20084038686E+02  0.30370715382E-01  0.20813333779E+02  0.00000000000E+00 0.  1.
<mgrwt>
<rscale>  1 0.30000000E+03</rscale>
<asrwt>0</asrwt>
<pdfrwt beam="1">  1        1 0.13204992E+00 0.30000000E+03</pdfrwt>
<pdfrwt beam="2">0</pdfrwt>
<totfact> 0.22301482E+01</totfact>
</mgrwt>
</event>
<event>
 6    1  0.1901260E-004  0.3000000E+03  0.7818608E-02  0.1093470E+00
          1   -1    0    0  502    0  0.00000000000E+00  0.00000000000E+00  0.63983499706E+02  0.63983499706E+02  0.00000000000E+00 0.  1.
         13   -1    0    0    0    0 -0.00000000000E+00 -0.00000000000E+00 -0.10000000000E+04  0.10000000000E+04  0.00000000000E+00 0.  1.
    9000005    2    1    2  501    0  0.16077802932E+02 -0.29161037897E+02 -0.96323492640E+03  0.10209753075E+04  0.33683852684E+03 0.  0.
         13    1    3    3    0    0 -0.69498998149E+02 -0.10086708156E+03 -0.86075062731E+03  0.86942275178E+03  0.00000000000E+00 0.  1.
          3    1    3    3  501    0  0.85576801082E+02  0.71706043660E+02 -0.10248429909E+03  0.15155255571E+03  0.00000000000E+00 0.  1.
         21    1    1    2  502  501 -0.16077802932E+02  0.29161037897E+02  0.27218426110E+02  0.43008192223E+02  0.00000000000E+00 0.  1.
<mgrwt>
<rscale>  1 0.30000000E+03</rscale>
<asrwt>0</asrwt>
<pdfrwt beam="1">  1        1 0.23266776E+00 0.30000000E+03</pdfrwt>
<pdfrwt beam="2">0</pdfrwt>
<totfact> 0.71906798E+00</totfact>
</mgrwt>
</event>
<event>
 6    1  0.1901260E-004  0.3000000E+03  0.7818608E-02  0.1093470E+00
          1   -1    0    0  502    0  0.00000000000E+00  0.00000000000E+00  0.41305761922E+02  0.41305761922E+02  0.00000000000E+00 0.  1.
         13   -1    0    0    0    0 -0.00000000000E+00 -0.00000000000E+00 -0.10000000000E+04  0.10000000000E+04  0.00000000000E+00 0.  1.
    9000005    2    1    2  501    0  0.59092296185E+02 -0.51214271818E+02 -0.91235975508E+03  0.95041194794E+03  0.25449508243E+03 0.  0.
         13    1    3    3    0    0 -0.59658228193E+02  0.69046810016E+02 -0.23016832977E+03  0.24759649875E+03  0.00000000000E+00 0.  1.
          1    1    3    3  501    0  0.11875052438E+03 -0.12026108183E+03 -0.68219142532E+03  0.70281544919E+03  0.00000000000E+00 0.  1.
         21    1    1    2  502  501 -0.59092296185E+02  0.51214271818E+02 -0.46334482994E+02  0.90893813984E+02  0.00000000000E+00 0.  1.
<mgrwt>
<rscale>  1 0.30000000E+03</rscale>
<asrwt>0</asrwt>
<pdfrwt beam="1">  1        1 0.15020309E+00 0.30000000E+03</pdfrwt>
<pdfrwt beam="2">0</pdfrwt>
<totfact> 0.17922301E+01</totfact>
</mgrwt>
</event>
<event>
 6    1  0.1901260E-004  0.3000000E+03  0.7818608E-02  0.1093470E+00
          1   -1    0    0  502    0  0.00000000000E+00  0.00000000000E+00  0.40316879946E+02  0.40316879946E+02  0.00000000000E+00 0.  1.
         13   -1    0    0    0    0 -0.00000000000E+00 -0.00000000000E+00 -0.10000000000E+04  0.10000000000E+04  0.00000000000E+00 0.  1.
    9000005    2    1    2  501    0  0.97237537931E+01 -0.16240957223E+02 -0.94386557649E+03  0.10156487879E+04  0.37456897077E+03 0.  0.
         13    1    3    3    0    0  0.74399759809E+02  0.15132185207E+03 -0.27061365388E+03  0.31885008521E+03  0.00000000000E+00 0.  1.
          3    1    3    3  501    0 -0.64676006015E+02 -0.16756280929E+03 -0.67325192261E+03  0.69679870272E+03  0.00000000000E+00 0.  1.
         21    1    1    2  502  501 -0.97237537931E+01  0.16240957223E+02 -0.15817543564E+02  0.24668092017E+02  0.00000000000E+00 0. -1.
<mgrwt>
<rscale>  1 0.30000000E+03</rscale>
<asrwt>0</asrwt>
<pdfrwt beam="1">  1        1 0.14660715E+00 0.30000000E+03</pdfrwt>
<pdfrwt beam="2">0</pdfrwt>
<totfact> 0.18696603E+01</totfact>
</mgrwt>
</event>
<event>
 6    1  0.1901260E-004  0.3000000E+03  0.7818608E-02  0.1093470E+00
          1   -1    0    0  502    0  0.00000000000E+00  0.00000000000E+00  0.39367734907E+02  0.39367734907E+02  0.00000000000E+00 0.  1.
         13   -1    0    0    0    0 -0.00000000000E+00 -0.00000000000E+00 -0.10000000000E+04  0.10000000000E+04  0.00000000000E+00 0.  1.
    9000005    2    1    2  501    0 -0.20100911256E+02 -0.45534791878E+02 -0.90614998410E+03  0.96557218730E+03  0.32976414495E+03 0.  0.
         13    1    3    3    0    0  0.15528310052E+02  0.81586592552E+02 -0.45191264060E+02  0.94550255656E+02  0.00000000000E+00 0.  1.
          3    1    3    3  501    0 -0.35629221308E+02 -0.12712138443E+03 -0.86095872004E+03  0.87102193164E+03  0.00000000000E+00 0.  1.
         21    1    1    2  502  501  0.20100911256E+02  0.45534791878E+02 -0.54482280994E+02  0.73795547610E+02  0.00000000000E+00 0.  1.
<mgrwt>
<rscale>  1 0.30000000E+03</rscale>
<asrwt>0</asrwt>
<pdfrwt beam="1">  1        1 0.14315570E+00 0.30000000E+03</pdfrwt>
<pdfrwt beam="2">0</pdfrwt>
<totfact> 0.19479651E+01</totfact>
</mgrwt>
</event>
<event>
 6    1  0.1901260E-004  0.3000000E+03  0.7818608E-02  0.1093470E+00
          1   -1    0    0  502    0  0.00000000000E+00  0.00000000000E+00  0.29285943881E+02  0.29285943881E+02  0.00000000000E+00 0.  1.
         13   -1    0    0    0    0 -0.00000000000E+00 -0.00000000000E+00 -0.10000000000E+04  0.10000000000E+04  0.00000000000E+00 0.  1.
    9000005    2    1    2  501    0  0.17898186858E+02  0.54069642988E+01 -0.93222680622E+03  0.98649752535E+03  0.32215053768E+03 0.  0.
         13    1    3    3    0    0 -0.13204430198E+03  0.53212109784E+02 -0.62846214429E+03  0.64438489516E+03  0.00000000000E+00 0.  1.
          3    1    3    3  501    0  0.14994248883E+03 -0.47805145486E+02 -0.30376466194E+03  0.34211263019E+03  0.00000000000E+00 0.  1.
         21    1    1    2  502  501 -0.17898186858E+02 -0.54069642988E+01 -0.38487249899E+02  0.42788418532E+02  0.00000000000E+00 0.  1.
<mgrwt>
<rscale>  1 0.30000000E+03</rscale>
<asrwt>0</asrwt>
<pdfrwt beam="1">  1        1 0.10649457E+00 0.30000000E+03</pdfrwt>
<pdfrwt beam="2">0</pdfrwt>
<totfact> 0.31189489E+01</totfact>
</mgrwt>
</event>
<event>
 6    1  0.1901260E-004  0.3000000E+03  0.7818608E-02  0.1093470E+00
          1   -1    0    0  502    0  0.00000000000E+00  0.00000000000E+00  0.29798572860E+02  0.29798572860E+02  0.00000000000E+00 0.  1.
         13   -1    0    0    0    0 -0.00000000000E+00 -0.00000000000E+00 -0.10000000000E+04  0.10000000000E+04  0.00000000000E+00 0.  1.
    9000005    2    1    2  501    0  0.12910872104E+02  0.63967200234E+01 -0.93876879455E+03  0.99522084828E+03  0.33010616260E+03 0.  0.
         13    1    3    3    0    0 -0.95346606262E+02  0.11603557908E+03 -0.27025946323E+03  0.30918507145E+03  0.00000000000E+00 0.  1.
          3    1    3    3  501    0  0.10825747837E+03 -0.10963885906E+03 -0.66850933132E+03  0.68603577683E+03  0.00000000000E+00 0.  1.
         21    1    1    2  502  501 -0.12910872104E+02 -0.63967200234E+01 -0.31432632590E+02  0.34577724579E+02  0.00000000000E+00 0.  1.
<mgrwt>
<rscale>  1 0.30000000E+03</rscale>
<asrwt>0</asrwt>
<pdfrwt beam="1">  1        1 0.10835868E+00 0.30000000E+03</pdfrwt>
<pdfrwt beam="2">0</pdfrwt>
<totfact> 0.30389755E+01</totfact>
</mgrwt>
</event>
<event>
 6    1  0.1901260E-004  0.3000000E+03  0.7818608E-02  0.1093470E+00
          1   -1    0    0  502    0  0.00000000000E+00  0.00000000000E+00  0.25684426362E+02  0.25684426362E+02  0.00000000000E+00 0.  1.
         13   -1    0    0    0    0 -0.00000000000E+00 -0.00000000000E+00 -0.10000000000E+04  0.10000000000E+04  0.00000000000E+00 0.  1.
    9000005    2    1    2  501    0 -0.10340479787E+02  0.25342908811E+01 -0.97407371564E+03  0.10150351706E+04  0.28524278421E+03 0.  0.
         13    1    3    3    0    0 -0.11644443654E+02 -0.63356225753E+01 -0.99352698912E+03  0.99361542424E+03  0.00000000000E+00 0.  1.
          3    1    3    3  501    0  0.13039638671E+01  0.88699134564E+01  0.19453273472E+02  0.21419746387E+02  0.00000000000E+00 0.  1.
         21    1    1    2  502  501  0.10340479787E+02 -0.25342908811E+01 -0.24185799431E+00  0.10649255738E+02  0.00000000000E+00 0. -1.
<mgrwt>
<rscale>  1 0.30000000E+03</rscale>
<asrwt>0</asrwt>
<pdfrwt beam="1">  1        1 0.93398111E-01 0.30000000E+03</pdfrwt>
<pdfrwt beam="2">0</pdfrwt>
<totfact> 0.37782664E+01</totfact>
</mgrwt>
</event>
<event>
 6    1  0.1901260E-004  0.3000000E+03  0.7818608E-02  0.1093470E+00
          1   -1    0    0  502    0  0.00000000000E+00  0.00000000000E+00  0.35664553232E+02  0.35664553232E+02  0.00000000000E+00 0.  1.
         13   -1    0    0    0    0 -0.00000000000E+00 -0.00000000000E+00 -0.10000000000E+04  0.10000000000E+04  0.00000000000E+00 0.  1.
    9000005    2    1    2  501    0 -0.22436489174E+02 -0.35153960223E+02 -0.91299350704E+03  0.96951932105E+03  0.32352955509E+03 0.  0.
         13    1    3    3    0    0 -0.57355568094E+02  0.22957162524E+02 -0.89795257303E+03  0.90007528347E+03  0.00000000000E+00 0.  1.
          3    1    3    3  501    0  0.34919078920E+02 -0.58111122747E+02 -0.15040934015E+02  0.69444037581E+02  0.00000000000E+00 0.  1.
         21    1    1    2  502  501  0.22436489174E+02  0.35153960223E+02 -0.51341939727E+02  0.66145232184E+02  0.00000000000E+00 0.  1.
<mgrwt>
<rscale>  1 0.30000000E+03</rscale>
<asrwt>0</asrwt>
<pdfrwt beam="1">  1        1 0.12968956E+00 0.30000000E+03</pdfrwt>
<pdfrwt beam="2">0</pdfrwt>
<totfact> 0.22969055E+01</totfact>
</mgrwt>
</event>
<event>
 6    1  0.1901260E-004  0.3000000E+03  0.7818608E-02  0.1093470E+00
          1   -1    0    0  502    0  0.00000000000E+00  0.00000000000E+00  0.29004288304E+02  0.29004288304E+02  0.00000000000E+00 0.  1.
         13   -1    0    0    0    0 -0.00000000000E+00 -0.00000000000E+00 -0.10000000000E+04  0.10000000000E+04  0.00000000000E+00 0.  1.
    9000005    2    1    2  501    0 -0.82597788123E+01 -0.88025577692E+01 -0.95019226704E+03  0.10049524219E+04  0.32698366460E+03 0.  0.
         13    1    3    3    0    0 -0.14235672189E+03 -0.88413533959E+02 -0.56689301717E+03  0.59114303022E+03  0.00000000000E+00 0.  1.
          1    1    3    3  501    0  0.13409694308E+03  0.79610976190E+02 -0.38329924986E+03  0.41380939165E+03  0.00000000000E+00 0.  1.
         21    1    1    2  502  501  0.82597788123E+01  0.88025577692E+01 -0.20803444657E+02  0.24051866433E+02  0.00000000000E+00 0.  1.
<mgrwt>
<rscale>  1 0.30000000E+03</rscale>
<asrwt>0</asrwt>
<pdfrwt beam="1">  1        1 0.10547036E+00 0.30000000E+03</pdfrwt>
<pdfrwt beam="2">0</pdfrwt>
<totfact> 0.31641819E+01</totfact>
</mgrwt>
</event>
<event>
 6    1  0.1901260E-004  0.3000000E+03  0.7818608E-02  0.1093470E+00
          1   -1    0    0  502    0  0.00000000000E+00  0.00000000000E+00  0.34036559156E+02  0.34036559156E+02  0.00000000000E+00 0.  1.
         13   -1    0    0    0    0 -0.00000000000E+00 -0.00000000000E+00 -0.10000000000E+04  0.10000000000E+04  0.00000000000E+00 0.  1.
    9000005    2    1    2  501    0  0.95088251600E+00 -0.15945744038E+02 -0.96820605522E+03  0.10179058354E+04  0.31377404833E+03 0.  0.
         13    1    3    3    0    0  0.67038921228E+02 -0.39023903364E+02 -0.40394730898E+02  0.87457511269E+02  0.00000000000E+00 0.  1.
          1    1    3    3  501    0 -0.66088038712E+02  0.23078159325E+02 -0.92781132432E+03  0.93044832411E+03  0.00000000000E+00 0.  1.
         21    1    1    2  502  501 -0.95088251600E+00  0.15945744038E+02  0.22426143719E+01  0.16130723782E+02  0.00000000000E+00 0. -1.
<mgrwt>
<rscale>  1 0.30000000E+03</rscale>
<asrwt>0</asrwt>
<pdfrwt beam="1">  1        1 0.12376957E+00 0.30000000E+03</pdfrwt>
<pdfrwt beam="2">0</pdfrwt>
<totfact> 0.24760597E+01</totfact>
</mgrwt>
</event>
<event>
 6    1  0.1901260E-004  0.3000000E+03  0.7818608E-02  0.1093470E+00
          1   -1    0    0  502    0  0.00000000000E+00  0.00000000000E+00  0.21423413225E+02  0.21423413225E+02  0.00000000000E+00 0.  1.
         13   -1    0    0    0    0 -0.00000000000E+00 -0.00000000000E+00 -0.10000000000E+04  0.10000000000E+04  0.00000000000E+00 0.  1.
    9000005    2    1    2  501    0 -0.91740848778E+01 -0.47370924426E+01 -0.97523028946E+03  0.10105697694E+04  0.26470840089E+03 0.  0.
         13    1    3    3    0    0  0.50794958090E+02 -0.11377694678E+03 -0.66013049488E+03  0.67178686475E+03  0.00000000000E+00 0.  1.
          3    1    3    3  501    0 -0.59969042967E+02  0.10903985434E+03 -0.31509979459E+03  0.33878290467E+03  0.00000000000E+00 0.  1.
         21    1    1    2  502  501  0.91740848778E+01  0.47370924426E+01 -0.33462973149E+01  0.10853643806E+02  0.00000000000E+00 0.  1.
<mgrwt>
<rscale>  1 0.30000000E+03</rscale>
<asrwt>0</asrwt>
<pdfrwt beam="1">  1        1 0.77903485E-01 0.30000000E+03</pdfrwt>
<pdfrwt beam="2">0</pdfrwt>
<totfact> 0.48718232E+01</totfact>
</mgrwt>
</event>
<event>
 6    1  0.1901260E-004  0.3000000E+03  0.7818608E-02  0.1093470E+00
          1   -1    0    0  502    0  0.00000000000E+00  0.00000000000E+00  0.32534269269E+02  0.32534269269E+02  0.00000000000E+00 0.  1.
         13   -1    0    0    0    0 -0.00000000000E+00 -0.00000000000E+00 -0.10000000000E+04  0.10000000000E+04  0.00000000000E+00 0.  1.
    9000005    2    1    2  501    0 -0.23155466280E+02 -0.60332666561E+01 -0.90575234377E+03  0.96634425450E+03  0.33594840978E+03 0.  0.
         13    1    3    3    0    0 -0.35307920114E+02 -0.16799514188E+03 -0.52643660495E+03  0.55371880584E+03  0.00000000000E+00 0.  1.
          1    1    3    3  501    0  0.12152453834E+02  0.16196187522E+03 -0.37931573883E+03  0.41262544866E+03  0.00000000000E+00 0.  1.
         21    1    1    2  502  501  0.23155466280E+02  0.60332666561E+01 -0.61713386957E+02  0.66190014767E+02  0.00000000000E+00 0.  1.
<mgrwt>
<rscale>  1 0.30000000E+03</rscale>
<asrwt>0</asrwt>
<pdfrwt beam="1">  1        1 0.11830668E+00 0.30000000E+03</pdfrwt>
<pdfrwt beam="2">0</pdfrwt>
<totfact> 0.26577739E+01</totfact>
</mgrwt>
</event>
<event>
 6    1  0.1901260E-004  0.3000000E+03  0.7818608E-02  0.1093470E+00
          1   -1    0    0  502    0  0.00000000000E+00  0.00000000000E+00  0.80329473435E+02  0.80329473435E+02  0.00000000000E+00 0.  1.
         13   -1    0    0    0    0 -0.00000000000E+00 -0.00000000000E+00 -0.10000000000E+04  0.10000000000E+04  0.00000000000E+00 0.  1.
    9000005    2    1    2  501    0  0.19600161636E+02  0.70026424350E+01 -0.97143866509E+03  0.10245339225E+04  0.32487455269E+03 0.  0.
         13    1    3    3    0    0 -0.12864242726E+03 -0.35188116254E+02 -0.69818304984E+03  0.71080704041E+03  0.00000000000E+00 0.  1.
          1    1    3    3  501    0  0.14824258889E+03  0.42190758689E+02 -0.27325561525E+03  0.31372688209E+03  0.00000000000E+00 0.  1.
         21    1    1    2  502  501 -0.19600161636E+02 -0.70026424350E+01  0.51768138527E+02  0.55795550932E+02  0.00000000000E+00 0.  1.
<mgrwt>
<rscale>  1 0.30000000E+03</rscale>
<asrwt>0</asrwt>
<pdfrwt beam="1">  1        1 0.29210779E+00 0.30000000E+03</pdfrwt>
<pdfrwt beam="2">0</pdfrwt>
<totfact> 0.37866427E+00</totfact>
</mgrwt>
</event>
<event>
 6    1  0.1901260E-004  0.3000000E+03  0.7818608E-02  0.1093470E+00
          1   -1    0    0  502    0  0.00000000000E+00  0.00000000000E+00  0.36709932803E+02  0.36709932803E+02  0.00000000000E+00 0.  1.
         13   -1    0    0    0    0 -0.00000000000E+00 -0.00000000000E+00 -0.10000000000E+04  0.10000000000E+04  0.00000000000E+00 0.  1.
    9000005    2    1    2  501    0 -0.28180843557E+01 -0.44903384873E+02 -0.91122260842E+03  0.96789659227E+03  0.32322270287E+03 0.  0.
         13    1    3    3    0    0 -0.93534701963E+02 -0.42524276701E+02 -0.76105994510E+02  0.12786390022E+03  0.00000000000E+00 0.  1.
          1    1    3    3  501    0  0.90716617608E+02 -0.23791081723E+01 -0.83511661391E+03  0.84003269204E+03  0.00000000000E+00 0.  1.
         21    1    1    2  502  501  0.28180843557E+01  0.44903384873E+02 -0.52067458773E+02  0.68813340535E+02  0.00000000000E+00 0.  1.
<mgrwt>
<rscale>  1 0.30000000E+03</rscale>
<asrwt>0</asrwt>
<pdfrwt beam="1">  1        1 0.13349095E+00 0.30000000E+03</pdfrwt>
<pdfrwt beam="2">0</pdfrwt>
<totfact> 0.21906392E+01</totfact>
</mgrwt>
</event>
<event>
 6    1  0.1901260E-004  0.3000000E+03  0.7818608E-02  0.1093470E+00
          3   -1    0    0  502    0  0.00000000000E+00  0.00000000000E+00  0.32259781899E+02  0.32259781899E+02  0.00000000000E+00 0.  1.
         13   -1    0    0    0    0 -0.00000000000E+00 -0.00000000000E+00 -0.10000000000E+04  0.10000000000E+04  0.00000000000E+00 0.  1.
    9000005    2    1    2  501    0  0.17817146947E+02  0.12622351246E+01 -0.95859919966E+03  0.10121948328E+04  0.32451026189E+03 0.  0.
         13    1    3    3    0    0  0.35513889440E+02  0.15891817582E+03 -0.55966583040E+03  0.58287396980E+03  0.00000000000E+00 0.  1.
          3    1    3    3  501    0 -0.17696742493E+02 -0.15765594070E+03 -0.39893336925E+03  0.42932086303E+03  0.00000000000E+00 0.  1.
         21    1    1    2  502  501 -0.17817146947E+02 -0.12622351246E+01 -0.91410184447E+01  0.20064949067E+02  0.00000000000E+00 0. -1.
<mgrwt>
<rscale>  1 0.30000000E+03</rscale>
<asrwt>0</asrwt>
<pdfrwt beam="1">  1        3 0.11730855E+00 0.30000000E+03</pdfrwt>
<pdfrwt beam="2">0</pdfrwt>
<totfact> 0.24849437E+00</totfact>
</mgrwt>
</event>
<event>
 6    1  0.1901260E-004  0.3000000E+03  0.7818608E-02  0.1093470E+00
          1   -1    0    0  502    0  0.00000000000E+00  0.00000000000E+00  0.30484242190E+02  0.30484242190E+02  0.00000000000E+00 0.  1.
         13   -1    0    0    0    0 -0.00000000000E+00 -0.00000000000E+00 -0.10000000000E+04  0.10000000000E+04  0.00000000000E+00 0.  1.
    9000005    2    1    2  501    0 -0.50772848681E+01 -0.12137020690E+02 -0.95959308398E+03  0.10140056030E+04  0.32743761244E+03 0.  0.
         13    1    3    3    0    0  0.12935990088E+03 -0.85292859811E+02 -0.30926456583E+03  0.34590956559E+03  0.00000000000E+00 0.  1.
          3    1    3    3  501    0 -0.13443718575E+03  0.73155839122E+02 -0.65032851815E+03  0.66809603743E+03  0.00000000000E+00 0.  1.
         21    1    1    2  502  501  0.50772848681E+01  0.12137020690E+02 -0.99226738266E+01  0.16478639165E+02  0.00000000000E+00 0.  1.
<mgrwt>
<rscale>  1 0.30000000E+03</rscale>
<asrwt>0</asrwt>
<pdfrwt beam="1">  1        1 0.11085202E+00 0.30000000E+03</pdfrwt>
<pdfrwt beam="2">0</pdfrwt>
<totfact> 0.29365095E+01</totfact>
</mgrwt>
</event>
<event>
 6    1  0.1901260E-004  0.3000000E+03  0.7818608E-02  0.1093470E+00
          1   -1    0    0  502    0  0.00000000000E+00  0.00000000000E+00  0.33428699724E+02  0.33428699724E+02  0.00000000000E+00 0.  1.
         13   -1    0    0    0    0 -0.00000000000E+00 -0.00000000000E+00 -0.10000000000E+04  0.10000000000E+04  0.00000000000E+00 0.  1.
    9000005    2    1    2  501    0  0.21108531350E+02 -0.36281866819E+01 -0.95736717382E+03  0.10101166904E+04  0.32144220149E+03 0.  0.
         13    1    3    3    0    0  0.39808371188E+02  0.14789253418E+03 -0.32061748684E+03  0.35532025125E+03  0.00000000000E+00 0.  1.
          3    1    3    3  501    0 -0.18699839838E+02 -0.15152072086E+03 -0.63674968699E+03  0.65479643916E+03  0.00000000000E+00 0.  1.
         21    1    1    2  502  501 -0.21108531350E+02  0.36281866819E+01 -0.92041264515E+01  0.23312009311E+02  0.00000000000E+00 0.  1.
<mgrwt>
<rscale>  1 0.30000000E+03</rscale>
<asrwt>0</asrwt>
<pdfrwt beam="1">  1        1 0.12155916E+00 0.30000000E+03</pdfrwt>
<pdfrwt beam="2">0</pdfrwt>
<totfact> 0.25475388E+01</totfact>
</mgrwt>
</event>
<event>
 6    1  0.1901260E-004  0.3000000E+03  0.7818608E-02  0.1093470E+00
          3   -1    0    0  502    0  0.00000000000E+00  0.00000000000E+00  0.33261270023E+02  0.33261270023E+02  0.00000000000E+00 0.  1.
         13   -1    0    0    0    0 -0.00000000000E+00 -0.00000000000E+00 -0.10000000000E+04  0.10000000000E+04  0.00000000000E+00 0.  1.
    9000005    2    1    2  501    0 -0.29638357991E+01  0.23590447499E+02 -0.94168174107E+03  0.99871932119E+03  0.33182900344E+03 0.  0.
         13    1    3    3    0    0  0.15450336269E+02 -0.12507655238E+03 -0.16447521263E+03  0.20720751052E+03  0.00000000000E+00 0.  1.
          1    1    3    3  501    0 -0.18414172068E+02  0.14866699988E+03 -0.77720652844E+03  0.79151181067E+03  0.00000000000E+00 0.  1.
         21    1    1    2  502  501  0.29638357991E+01 -0.23590447499E+02 -0.25056988909E+02  0.34541948831E+02  0.00000000000E+00 0.  1.
<mgrwt>
<rscale>  1 0.30000000E+03</rscale>
<asrwt>0</asrwt>
<pdfrwt beam="1">  1        3 0.12095033E+00 0.30000000E+03</pdfrwt>
<pdfrwt beam="2">0</pdfrwt>
<totfact> 0.22550192E+00</totfact>
</mgrwt>
</event>
<event>
 6    1  0.1901260E-004  0.3000000E+03  0.7818608E-02  0.1093470E+00
          1   -1    0    0  502    0  0.00000000000E+00  0.00000000000E+00  0.34009351351E+02  0.34009351351E+02  0.00000000000E+00 0.  1.
         13   -1    0    0    0    0 -0.00000000000E+00 -0.00000000000E+00 -0.10000000000E+04  0.10000000000E+04  0.00000000000E+00 0.  1.
    9000005    2    1    2  501    0 -0.26445050186E+02 -0.12010755580E+02 -0.93959768019E+03  0.99476412600E+03  0.32537404141E+03 0.  0.
         13    1    3    3    0    0  0.59016576417E+02  0.14013770273E+03 -0.42507925359E+03  0.45145753272E+03  0.00000000000E+00 0.  1.
          1    1    3    3  501    0 -0.85461626604E+02 -0.15214845830E+03 -0.51451842660E+03  0.54330659328E+03  0.00000000000E+00 0.  1.
         21    1    1    2  502  501  0.26445050186E+02  0.12010755580E+02 -0.26392968457E+02  0.39245225352E+02  0.00000000000E+00 0. -1.
<mgrwt>
<rscale>  1 0.30000000E+03</rscale>
<asrwt>0</asrwt>
<pdfrwt beam="1">  1        1 0.12367063E+00 0.30000000E+03</pdfrwt>
<pdfrwt beam="2">0</pdfrwt>
<totfact> 0.24792028E+01</totfact>
</mgrwt>
</event>
<event>
 6    1  0.1901260E-004  0.3000000E+03  0.7818608E-02  0.1093470E+00
          1   -1    0    0  502    0  0.00000000000E+00  0.00000000000E+00  0.37710950005E+02  0.37710950005E+02  0.00000000000E+00 0.  1.
         13   -1    0    0    0    0 -0.00000000000E+00 -0.00000000000E+00 -0.10000000000E+04  0.10000000000E+04  0.00000000000E+00 0.  1.
    9000005    2    1    2  501    0 -0.11554025215E+02  0.35720796085E+02 -0.95060810011E+03  0.99839281981E+03  0.30285803916E+03 0.  0.
         13    1    3    3    0    0 -0.15153233670E+02  0.54415608401E+01 -0.96467694367E+03  0.96481129591E+03  0.00000000000E+00 0.  1.
          3    1    3    3  501    0  0.35992084552E+01  0.30279235245E+02  0.14068843556E+02  0.33581523901E+02  0.00000000000E+00 0.  1.
         21    1    1    2  502  501  0.11554025215E+02 -0.35720796085E+02 -0.11680949884E+02  0.39318130192E+02  0.00000000000E+00 0. -1.
<mgrwt>
<rscale>  1 0.30000000E+03</rscale>
<asrwt>0</asrwt>
<pdfrwt beam="1">  1        1 0.13713102E+00 0.30000000E+03</pdfrwt>
<pdfrwt beam="2">0</pdfrwt>
<totfact> 0.20948860E+01</totfact>
</mgrwt>
</event>
<event>
 6    1  0.1901260E-004  0.3000000E+03  0.7818608E-02  0.1093470E+00
          1   -1    0    0  502    0  0.00000000000E+00  0.00000000000E+00  0.38454996397E+02  0.38454996397E+02  0.00000000000E+00 0.  1.
         13   -1    0    0    0    0 -0.00000000000E+00 -0.00000000000E+00 -0.10000000000E+04  0.10000000000E+04  0.00000000000E+00 0.  1.
    9000005    2    1    2  501    0 -0.13188855848E+02 -0.21606096049E+01 -0.95485329190E+03  0.10235086538E+04  0.36830224156E+03 0.  0.
         13    1    3    3    0    0  0.69343066660E+02  0.25224543229E+02 -0.97689490489E+01  0.74432323895E+02  0.00000000000E+00 0.  1.
          3    1    3    3  501    0 -0.82531922507E+02 -0.27385152834E+02 -0.94508434285E+03  0.94907632987E+03  0.00000000000E+00 0.  1.
         21    1    1    2  502  501  0.13188855848E+02  0.21606096049E+01 -0.66917117069E+01  0.14946342630E+02  0.00000000000E+00 0.  1.
<mgrwt>
<rscale>  1 0.30000000E+03</rscale>
<asrwt>0</asrwt>
<pdfrwt beam="1">  1        1 0.13983665E+00 0.30000000E+03</pdfrwt>
<pdfrwt beam="2">0</pdfrwt>
<totfact> 0.20272187E+01</totfact>
</mgrwt>
</event>
<event>
 6    1  0.1901260E-004  0.3000000E+03  0.7818608E-02  0.1093470E+00
          1   -1    0    0  502    0  0.00000000000E+00  0.00000000000E+00  0.30110495770E+02  0.30110495770E+02  0.00000000000E+00 0.  1.
         13   -1    0    0    0    0 -0.00000000000E+00 -0.00000000000E+00 -0.10000000000E+04  0.10000000000E+04  0.00000000000E+00 0.  1.
    9000005    2    1    2  501    0  0.14030332642E+02 -0.10799734902E+02 -0.92318886859E+03  0.98016618801E+03  0.32883823459E+03 0.  0.
         13    1    3    3    0    0 -0.13869728661E+03 -0.26784274712E+02 -0.22795430284E+03  0.26817438145E+03  0.00000000000E+00 0.  1.
          1    1    3    3  501    0  0.15272761925E+03  0.15984539810E+02 -0.69523456575E+03  0.71199180656E+03  0.00000000000E+00 0.  1.
         21    1    1    2  502  501 -0.14030332642E+02  0.10799734902E+02 -0.46700635643E+02  0.49944307759E+02  0.00000000000E+00 0. -1.
<mgrwt>
<rscale>  1 0.30000000E+03</rscale>
<asrwt>0</asrwt>
<pdfrwt beam="1">  1        1 0.10949294E+00 0.30000000E+03</pdfrwt>
<pdfrwt beam="2">0</pdfrwt>
<totfact> 0.29917417E+01</totfact>
</mgrwt>
</event>
<event>
 6    1  0.1901260E-004  0.3000000E+03  0.7818608E-02  0.1093470E+00
          1   -1    0    0  502    0  0.00000000000E+00  0.00000000000E+00  0.32931299558E+02  0.32931299558E+02  0.00000000000E+00 0.  1.
         13   -1    0    0    0    0 -0.00000000000E+00 -0.00000000000E+00 -0.10000000000E+04  0.10000000000E+04  0.00000000000E+00 0.  1.
    9000005    2    1    2  501    0 -0.14366231914E+02  0.13619313567E+02 -0.95933449799E+03  0.10116782478E+04  0.32059058582E+03 0.  0.
         13    1    3    3    0    0 -0.38951906598E+01 -0.15071135221E+03 -0.55468385916E+03  0.57480715706E+03  0.00000000000E+00 0.  1.
          3    1    3    3  501    0 -0.10471041254E+02  0.16433066578E+03 -0.40465063883E+03  0.43687109074E+03  0.00000000000E+00 0.  1.
         21    1    1    2  502  501  0.14366231914E+02 -0.13619313567E+02 -0.77342024509E+01  0.21253051757E+02  0.00000000000E+00 0. -1.
<mgrwt>
<rscale>  1 0.30000000E+03</rscale>
<asrwt>0</asrwt>
<pdfrwt beam="1">  1        1 0.11975043E+00 0.30000000E+03</pdfrwt>
<pdfrwt beam="2">0</pdfrwt>
<totfact> 0.26080671E+01</totfact>
</mgrwt>
</event>
<event>
 6    1  0.1901260E-004  0.3000000E+03  0.7818608E-02  0.1093470E+00
          1   -1    0    0  502    0  0.00000000000E+00  0.00000000000E+00  0.30755989549E+02  0.30755989549E+02  0.00000000000E+00 0.  1.
         13   -1    0    0    0    0 -0.00000000000E+00 -0.00000000000E+00 -0.10000000000E+04  0.10000000000E+04  0.00000000000E+00 0.  1.
    9000005    2    1    2  501    0  0.23104008787E+02 -0.15210495160E+01 -0.91871167233E+03  0.97517158517E+03  0.32617844019E+03 0.  0.
         13    1    3    3    0    0  0.73747781603E+02  0.12099758374E+03 -0.20472340920E+03  0.24897956711E+03  0.00000000000E+00 0.  1.
          1    1    3    3  501    0 -0.50643772816E+02 -0.12251863326E+03 -0.71398826312E+03  0.72619201806E+03  0.00000000000E+00 0.  1.
         21    1    1    2  502  501 -0.23104008787E+02  0.15210495160E+01 -0.50532338123E+02  0.55584404376E+02  0.00000000000E+00 0.  1.
<mgrwt>
<rscale>  1 0.30000000E+03</rscale>
<asrwt>0</asrwt>
<pdfrwt beam="1">  1        1 0.11184020E+00 0.30000000E+03</pdfrwt>
<pdfrwt beam="2">0</pdfrwt>
<totfact> 0.28972531E+01</totfact>
</mgrwt>
</event>
<event>
 6    1  0.1901260E-004  0.3000000E+03  0.7818608E-02  0.1093470E+00
          1   -1    0    0  502    0  0.00000000000E+00  0.00000000000E+00  0.90695664879E+02  0.90695664879E+02  0.00000000000E+00 0.  1.
         13   -1    0    0    0    0 -0.00000000000E+00 -0.00000000000E+00 -0.10000000000E+04  0.10000000000E+04  0.00000000000E+00 0.  1.
    9000005    2    1    2  501    0  0.19665666960E+01  0.15144515146E+03 -0.87797618146E+03  0.93603165970E+03  0.28700799896E+03 0.  0.
         13    1    3    3    0    0 -0.85412403319E+02  0.12731237930E+03 -0.80552911268E+03  0.81998833646E+03  0.00000000000E+00 0.  1.
          3    1    3    3  501    0  0.87378970015E+02  0.24132772161E+02 -0.72447068783E+02  0.11604332324E+03  0.00000000000E+00 0.  1.
         21    1    1    2  502  501 -0.19665666960E+01 -0.15144515146E+03 -0.31328153662E+02  0.15466400518E+03  0.00000000000E+00 0.  1.
<mgrwt>
<rscale>  1 0.30000000E+03</rscale>
<asrwt>0</asrwt>
<pdfrwt beam="1">  1        1 0.32980311E+00 0.30000000E+03</pdfrwt>
<pdfrwt beam="2">0</pdfrwt>
<totfact> 0.24918996E+00</totfact>
</mgrwt>
</event>
<event>
 6    1  0.1901260E-004  0.3000000E+03  0.7818608E-02  0.1093470E+00
          3   -1    0    0  502    0  0.00000000000E+00  0.00000000000E+00  0.29087691293E+02  0.29087691293E+02  0.00000000000E+00 0.  1.
         13   -1    0    0    0    0 -0.00000000000E+00 -0.00000000000E+00 -0.10000000000E+04  0.10000000000E+04  0.00000000000E+00 0.  1.
    9000005    2    1    2  501    0 -0.94090287662E+01 -0.57712466926E+01 -0.95197943485E+03  0.10071721529E+04  0.32864732478E+03 0.  0.
         13    1    3    3    0    0 -0.88359049436E+02  0.10796409339E+03 -0.20822948378E+03  0.25064533707E+03  0.00000000000E+00 0.  1.
          3    1    3    3  501    0  0.78950020669E+02 -0.11373534009E+03 -0.74374995107E+03  0.75652681583E+03  0.00000000000E+00 0.  1.
         21    1    1    2  502  501  0.94090287662E+01  0.57712466926E+01 -0.18932873861E+02  0.21915538399E+02  0.00000000000E+00 0.  1.
<mgrwt>
<rscale>  1 0.30000000E+03</rscale>
<asrwt>0</asrwt>
<pdfrwt beam="1">  1        3 0.10577365E+00 0.30000000E+03</pdfrwt>
<pdfrwt beam="2">0</pdfrwt>
<totfact> 0.33668320E+00</totfact>
</mgrwt>
</event>
<event>
 6    1  0.1901260E-004  0.3000000E+03  0.7818608E-02  0.1093470E+00
          1   -1    0    0  502    0  0.00000000000E+00  0.00000000000E+00  0.46236214173E+02  0.46236214173E+02  0.00000000000E+00 0.  1.
         13   -1    0    0    0    0 -0.00000000000E+00 -0.00000000000E+00 -0.10000000000E+04  0.10000000000E+04  0.00000000000E+00 0.  1.
    9000005    2    1    2  501    0 -0.31418294272E+02  0.31108764006E+02 -0.95181593333E+03  0.10019794797E+04  0.30992651141E+03 0.  0.
         13    1    3    3    0    0  0.72221059723E+02 -0.11116587919E+03 -0.32717980162E+03  0.35301608568E+03  0.00000000000E+00 0.  1.
          3    1    3    3  501    0 -0.10363935400E+03  0.14227464319E+03 -0.62463613171E+03  0.64896339406E+03  0.00000000000E+00 0.  1.
         21    1    1    2  502  501  0.31418294272E+02 -0.31108764006E+02 -0.19478524955E+01  0.44256734429E+02  0.00000000000E+00 0.  1.
<mgrwt>
<rscale>  1 0.30000000E+03</rscale>
<asrwt>0</asrwt>
<pdfrwt beam="1">  1        1 0.16813204E+00 0.30000000E+03</pdfrwt>
<pdfrwt beam="2">0</pdfrwt>
<totfact> 0.14591120E+01</totfact>
</mgrwt>
</event>
<event>
 6    1  0.1901260E-004  0.3000000E+03  0.7818608E-02  0.1093470E+00
          1   -1    0    0  502    0  0.00000000000E+00  0.00000000000E+00  0.32203893767E+02  0.32203893767E+02  0.00000000000E+00 0.  1.
         13   -1    0    0    0    0 -0.00000000000E+00 -0.00000000000E+00 -0.10000000000E+04  0.10000000000E+04  0.00000000000E+00 0.  1.
    9000005    2    1    2  501    0  0.24394412815E+02  0.25231281881E+02 -0.89206402112E+03  0.94873501527E+03  0.32107352189E+03 0.  0.
         13    1    3    3    0    0 -0.10997487119E+03  0.76441607835E+02 -0.19226775931E+03  0.23431748328E+03  0.00000000000E+00 0.  1.
          3    1    3    3  501    0  0.13436928401E+03 -0.51210325954E+02 -0.69979626181E+03  0.71441753199E+03  0.00000000000E+00 0.  1.
         21    1    1    2  502  501 -0.24394412815E+02 -0.25231281881E+02 -0.75732085108E+02  0.83468878492E+02  0.00000000000E+00 0.  1.
<mgrwt>
<rscale>  1 0.30000000E+03</rscale>
<asrwt>0</asrwt>
<pdfrwt beam="1">  1        1 0.11710532E+00 0.30000000E+03</pdfrwt>
<pdfrwt beam="2">0</pdfrwt>
<totfact> 0.27001231E+01</totfact>
</mgrwt>
</event>
<event>
 6    1  0.1901260E-004  0.3000000E+03  0.7818608E-02  0.1093470E+00
          1   -1    0    0  502    0  0.00000000000E+00  0.00000000000E+00  0.27569790918E+02  0.27569790918E+02  0.00000000000E+00 0.  1.
         13   -1    0    0    0    0 -0.00000000000E+00 -0.00000000000E+00 -0.10000000000E+04  0.10000000000E+04  0.00000000000E+00 0.  1.
    9000005    2    1    2  501    0 -0.41778834592E+00  0.22858244948E+02 -0.95818659221E+03  0.10006336715E+04  0.28744308146E+03 0.  0.
         13    1    3    3    0    0 -0.78693982467E+02 -0.10611987613E+03 -0.35265530774E+03  0.37658987913E+03  0.00000000000E+00 0.  1.
          3    1    3    3  501    0  0.78276194121E+02  0.12897812108E+03 -0.60553128447E+03  0.62404379234E+03  0.00000000000E+00 0.  1.
         21    1    1    2  502  501  0.41778834592E+00 -0.22858244948E+02 -0.14243616867E+02  0.26936119444E+02  0.00000000000E+00 0. -1.
<mgrwt>
<rscale>  1 0.30000000E+03</rscale>
<asrwt>0</asrwt>
<pdfrwt beam="1">  1        1 0.10025400E+00 0.30000000E+03</pdfrwt>
<pdfrwt beam="2">0</pdfrwt>
<totfact> 0.34100187E+01</totfact>
</mgrwt>
</event>
<event>
 6    1  0.1901260E-004  0.3000000E+03  0.7818608E-02  0.1093470E+00
          1   -1    0    0  502    0  0.00000000000E+00  0.00000000000E+00  0.65641393846E+02  0.65641393846E+02  0.00000000000E+00 0.  1.
         13   -1    0    0    0    0 -0.00000000000E+00 -0.00000000000E+00 -0.10000000000E+04  0.10000000000E+04  0.00000000000E+00 0.  1.
    9000005    2    1    2  501    0  0.13229901159E+02  0.14118061889E+02 -0.95002726310E+03  0.10407444710E+04  0.42452668156E+03 0.  0.
         13    1    3    3    0    0  0.17542981331E+03  0.11350408767E+03 -0.67302509482E+03  0.70471382530E+03  0.00000000000E+00 0.  1.
          1    1    3    3  501    0 -0.16219991216E+03 -0.99386025785E+02 -0.27700216828E+03  0.33603064571E+03  0.00000000000E+00 0.  1.
         21    1    1    2  502  501 -0.13229901159E+02 -0.14118061889E+02  0.15668656943E+02  0.24896922834E+02  0.00000000000E+00 0.  1.
<mgrwt>
<rscale>  1 0.30000000E+03</rscale>
<asrwt>0</asrwt>
<pdfrwt beam="1">  1        1 0.23869648E+00 0.30000000E+03</pdfrwt>
<pdfrwt beam="2">0</pdfrwt>
<totfact> 0.67380046E+00</totfact>
</mgrwt>
</event>
<event>
 6    1  0.1901260E-004  0.3000000E+03  0.7818608E-02  0.1093470E+00
          1   -1    0    0  502    0  0.00000000000E+00  0.00000000000E+00  0.38857480784E+02  0.38857480784E+02  0.00000000000E+00 0.  1.
         13   -1    0    0    0    0 -0.00000000000E+00 -0.00000000000E+00 -0.10000000000E+04  0.10000000000E+04  0.00000000000E+00 0.  1.
    9000005    2    1    2  501    0  0.77410768274E+01  0.13187510123E+02 -0.97079557144E+03  0.10207738940E+04  0.31512135193E+03 0.  0.
         13    1    3    3    0    0 -0.12517232409E+03 -0.30517215947E+02 -0.73804706805E+03  0.74920817257E+03  0.00000000000E+00 0.  1.
          1    1    3    3  501    0  0.13291340092E+03  0.43704726070E+02 -0.23274850340E+03  0.27156572143E+03  0.00000000000E+00 0.  1.
         21    1    1    2  502  501 -0.77410768274E+01 -0.13187510123E+02  0.96530522273E+01  0.18083586784E+02  0.00000000000E+00 0. -1.
<mgrwt>
<rscale>  1 0.30000000E+03</rscale>
<asrwt>0</asrwt>
<pdfrwt beam="1">  1        1 0.14130023E+00 0.30000000E+03</pdfrwt>
<pdfrwt beam="2">0</pdfrwt>
<totfact> 0.19917755E+01</totfact>
</mgrwt>
</event>
<event>
 6    1  0.1901260E-004  0.3000000E+03  0.7818608E-02  0.1093470E+00
          1   -1    0    0  502    0  0.00000000000E+00  0.00000000000E+00  0.69391317157E+02  0.69391317157E+02  0.00000000000E+00 0.  1.
         13   -1    0    0    0    0 -0.00000000000E+00 -0.00000000000E+00 -0.10000000000E+04  0.10000000000E+04  0.00000000000E+00 0.  1.
    9000005    2    1    2  501    0 -0.11130605673E+02  0.11499672415E+02 -0.97127891100E+03  0.10256854788E+04  0.32922916883E+03 0.  0.
         13    1    3    3    0    0 -0.15380907586E+03  0.37222297110E+02 -0.70453167185E+03  0.72208559594E+03  0.00000000000E+00 0.  1.
          1    1    3    3  501    0  0.14267847019E+03 -0.25722624694E+02 -0.26674723915E+03  0.30359988286E+03  0.00000000000E+00 0.  1.
         21    1    1    2  502  501  0.11130605673E+02 -0.11499672415E+02  0.40670228158E+02  0.43705838360E+02  0.00000000000E+00 0. -1.
<mgrwt>
<rscale>  1 0.30000000E+03</rscale>
<asrwt>0</asrwt>
<pdfrwt beam="1">  1        1 0.25233259E+00 0.30000000E+03</pdfrwt>
<pdfrwt beam="2">0</pdfrwt>
<totfact> 0.58187396E+00</totfact>
</mgrwt>
</event>
<event>
 6    1  0.1901260E-004  0.3000000E+03  0.7818608E-02  0.1093470E+00
          1   -1    0    0  502    0  0.00000000000E+00  0.00000000000E+00  0.28867467245E+02  0.28867467245E+02  0.00000000000E+00 0.  1.
         13   -1    0    0    0    0 -0.00000000000E+00 -0.00000000000E+00 -0.10000000000E+04  0.10000000000E+04  0.00000000000E+00 0.  1.
    9000005    2    1    2  501    0 -0.15693926894E+02 -0.12767890412E+02 -0.93738051082E+03  0.98951626203E+03  0.31630822373E+03 0.  0.
         13    1    3    3    0    0  0.12913067439E+03 -0.66487745638E+02 -0.29488578115E+03  0.32871412399E+03  0.00000000000E+00 0.  1.
          1    1    3    3  501    0 -0.14482460129E+03  0.53719855226E+02 -0.64249472967E+03  0.66080213804E+03  0.00000000000E+00 0.  1.
         21    1    1    2  502  501  0.15693926894E+02  0.12767890412E+02 -0.33752021939E+02  0.39351205215E+02  0.00000000000E+00 0. -1.
<mgrwt>
<rscale>  1 0.30000000E+03</rscale>
<asrwt>0</asrwt>
<pdfrwt beam="1">  1        1 0.10497283E+00 0.30000000E+03</pdfrwt>
<pdfrwt beam="2">0</pdfrwt>
<totfact> 0.31864972E+01</totfact>
</mgrwt>
</event>
<event>
 6    1  0.1901260E-004  0.3000000E+03  0.7818608E-02  0.1093470E+00
          1   -1    0    0  502    0  0.00000000000E+00  0.00000000000E+00  0.72471446285E+02  0.72471446285E+02  0.00000000000E+00 0.  1.
         13   -1    0    0    0    0 -0.00000000000E+00 -0.00000000000E+00 -0.10000000000E+04  0.10000000000E+04  0.00000000000E+00 0.  1.
    9000005    2    1    2  501    0 -0.12048957673E+03  0.34059555064E+02 -0.85626359739E+03  0.92840033401E+03  0.33624699343E+03 0.  0.
         13    1    3    3    0    0 -0.12347931475E+03  0.48223232794E+01 -0.88122123423E+03  0.88984339051E+03  0.00000000000E+00 0.  1.
          3    1    3    3  501    0  0.29897380203E+01  0.29237231785E+02  0.24957636839E+02  0.38556943505E+02  0.00000000000E+00 0.  1.
         21    1    1    2  502  501  0.12048957673E+03 -0.34059555064E+02 -0.71264956323E+02  0.14407111227E+03  0.00000000000E+00 0.  1.
<mgrwt>
<rscale>  1 0.30000000E+03</rscale>
<asrwt>0</asrwt>
<pdfrwt beam="1">  1        1 0.26353309E+00 0.30000000E+03</pdfrwt>
<pdfrwt beam="2">0</pdfrwt>
<totfact> 0.51571040E+00</totfact>
</mgrwt>
</event>
<event>
 6    1  0.1901260E-004  0.3000000E+03  0.7818608E-02  0.1093470E+00
          1   -1    0    0  502    0  0.00000000000E+00  0.00000000000E+00  0.13711082835E+02  0.13711082835E+02  0.00000000000E+00 0.  1.
         13   -1    0    0    0    0 -0.00000000000E+00 -0.00000000000E+00 -0.10000000000E+04  0.10000000000E+04  0.00000000000E+00 0.  1.
    9000005    2    1    2  501    0  0.20162133831E+02 -0.13836897400E+02 -0.93910864592E+03  0.96057023823E+03  0.20042994379E+03 0.  0.
         13    1    3    3    0    0 -0.34277256503E+02 -0.83674053521E+02 -0.25106128334E+03  0.26684835682E+03  0.00000000000E+00 0.  1.
          1    1    3    3  501    0  0.54439390334E+02  0.69837156121E+02 -0.68804736258E+03  0.69372188141E+03  0.00000000000E+00 0.  1.
         21    1    1    2  502  501 -0.20162133831E+02  0.13836897400E+02 -0.47180271245E+02  0.53140844603E+02  0.00000000000E+00 0.  1.
<mgrwt>
<rscale>  1 0.30000000E+03</rscale>
<asrwt>0</asrwt>
<pdfrwt beam="1">  1        1 0.49858588E-01 0.30000000E+03</pdfrwt>
<pdfrwt beam="2">0</pdfrwt>
<totfact> 0.88578937E+01</totfact>
</mgrwt>
</event>
<event>
 6    1  0.1901260E-004  0.3000000E+03  0.7818608E-02  0.1093470E+00
          1   -1    0    0  502    0  0.00000000000E+00  0.00000000000E+00  0.34308816276E+02  0.34308816276E+02  0.00000000000E+00 0.  1.
         13   -1    0    0    0    0 -0.00000000000E+00 -0.00000000000E+00 -0.10000000000E+04  0.10000000000E+04  0.00000000000E+00 0.  1.
    9000005    2    1    2  501    0 -0.69585385146E+00 -0.19313461746E+02 -0.96633751802E+03  0.10149720181E+04  0.30981688897E+03 0.  0.
         13    1    3    3    0    0 -0.14642983660E+03 -0.61088803170E+02 -0.47816948217E+03  0.50380511370E+03  0.00000000000E+00 0.  1.
          3    1    3    3  501    0  0.14573398275E+03  0.41775341424E+02 -0.48816803586E+03  0.51116690436E+03  0.00000000000E+00 0.  1.
         21    1    1    2  502  501  0.69585385146E+00  0.19313461746E+02  0.64633429648E+00  0.19336798216E+02  0.00000000000E+00 0. -1.
<mgrwt>
<rscale>  1 0.30000000E+03</rscale>
<asrwt>0</asrwt>
<pdfrwt beam="1">  1        1 0.12475959E+00 0.30000000E+03</pdfrwt>
<pdfrwt beam="2">0</pdfrwt>
<totfact> 0.24448883E+01</totfact>
</mgrwt>
</event>
<event>
 6    1  0.1901260E-004  0.3000000E+03  0.7818608E-02  0.1093470E+00
          3   -1    0    0  502    0  0.00000000000E+00  0.00000000000E+00  0.37457806704E+02  0.37457806704E+02  0.00000000000E+00 0.  1.
         13   -1    0    0    0    0 -0.00000000000E+00 -0.00000000000E+00 -0.10000000000E+04  0.10000000000E+04  0.00000000000E+00 0.  1.
    9000005    2    1    2  501    0  0.20424405720E+02 -0.25010249270E+02 -0.94881933655E+03  0.10023724007E+04  0.32163586141E+03 0.  0.
         13    1    3    3    0    0  0.25590390510E+01  0.58246826092E+02 -0.93453067495E+01  0.59047236928E+02  0.00000000000E+00 0.  1.
          1    1    3    3  501    0  0.17865366669E+02 -0.83257075362E+02 -0.93947402980E+03  0.94332516377E+03  0.00000000000E+00 0.  1.
         21    1    1    2  502  501 -0.20424405720E+02  0.25010249270E+02 -0.13722856745E+02  0.35085406009E+02  0.00000000000E+00 0. -1.
<mgrwt>
<rscale>  1 0.30000000E+03</rscale>
<asrwt>0</asrwt>
<pdfrwt beam="1">  1        3 0.13621049E+00 0.30000000E+03</pdfrwt>
<pdfrwt beam="2">0</pdfrwt>
<totfact> 0.14921344E+00</totfact>
</mgrwt>
</event>
<event>
 6    1  0.1901260E-004  0.3000000E+03  0.7818608E-02  0.1093470E+00
          1   -1    0    0  502    0  0.00000000000E+00  0.00000000000E+00  0.34406066226E+02  0.34406066226E+02  0.00000000000E+00 0.  1.
         13   -1    0    0    0    0 -0.00000000000E+00 -0.00000000000E+00 -0.10000000000E+04  0.10000000000E+04  0.00000000000E+00 0.  1.
    9000005    2    1    2  501    0  0.17608664063E+02 -0.17747847201E+02 -0.94129178450E+03  0.99953995675E+03  0.33529815157E+03 0.  0.
         13    1    3    3    0    0 -0.14273357048E+03  0.17666888291E+02 -0.64448578060E+03  0.66033848327E+03  0.00000000000E+00 0.  1.
          3    1    3    3  501    0  0.16034223454E+03 -0.35414735493E+02 -0.29680600390E+03  0.33920147349E+03  0.00000000000E+00 0.  1.
         21    1    1    2  502  501 -0.17608664063E+02  0.17747847201E+02 -0.24302149275E+02  0.34866109473E+02  0.00000000000E+00 0.  1.
<mgrwt>
<rscale>  1 0.30000000E+03</rscale>
<asrwt>0</asrwt>
<pdfrwt beam="1">  1        1 0.12511323E+00 0.30000000E+03</pdfrwt>
<pdfrwt beam="2">0</pdfrwt>
<totfact> 0.24338748E+01</totfact>
</mgrwt>
</event>
<event>
 6    1  0.1901260E-004  0.3000000E+03  0.7818608E-02  0.1093470E+00
          1   -1    0    0  502    0  0.00000000000E+00  0.00000000000E+00  0.46992611886E+02  0.46992611886E+02  0.00000000000E+00 0.  1.
         13   -1    0    0    0    0 -0.00000000000E+00 -0.00000000000E+00 -0.10000000000E+04  0.10000000000E+04  0.00000000000E+00 0.  1.
    9000005    2    1    2  501    0  0.91363653874E+00 -0.48259809261E+02 -0.95137400703E+03  0.99869652659E+03  0.29992066792E+03 0.  0.
         13    1    3    3    0    0 -0.12527624394E+02 -0.16848601047E+03 -0.40017965787E+03  0.43438259135E+03  0.00000000000E+00 0.  1.
          1    1    3    3  501    0  0.13441260932E+02  0.12022620121E+03 -0.55119434916E+03  0.56431393524E+03  0.00000000000E+00 0.  1.
         21    1    1    2  502  501 -0.91363653874E+00  0.48259809261E+02 -0.16333810873E+01  0.48296085301E+02  0.00000000000E+00 0.  1.
<mgrwt>
<rscale>  1 0.30000000E+03</rscale>
<asrwt>0</asrwt>
<pdfrwt beam="1">  1        1 0.17088259E+00 0.30000000E+03</pdfrwt>
<pdfrwt beam="2">0</pdfrwt>
<totfact> 0.14146075E+01</totfact>
</mgrwt>
</event>
<event>
 6    1  0.1901260E-004  0.3000000E+03  0.7818608E-02  0.1093470E+00
          1   -1    0    0  502    0  0.00000000000E+00  0.00000000000E+00  0.46608602227E+02  0.46608602227E+02  0.00000000000E+00 0.  1.
         13   -1    0    0    0    0 -0.00000000000E+00 -0.00000000000E+00 -0.10000000000E+04  0.10000000000E+04  0.00000000000E+00 0.  1.
    9000005    2    1    2  501    0 -0.31792015190E+02  0.87211429018E+02 -0.82278150831E+03  0.88637281094E+03  0.31633966553E+03 0.  0.
         13    1    3    3    0    0  0.12826278654E+03 -0.18439173087E+02 -0.23859495799E+03  0.27151224557E+03  0.00000000000E+00 0.  1.
          3    1    3    3  501    0 -0.16005480173E+03  0.10565060210E+03 -0.58418655032E+03  0.61486056538E+03  0.00000000000E+00 0.  1.
         21    1    1    2  502  501  0.31792015190E+02 -0.87211429018E+02 -0.13060988947E+03  0.16023579128E+03  0.00000000000E+00 0.  1.
<mgrwt>
<rscale>  1 0.30000000E+03</rscale>
<asrwt>0</asrwt>
<pdfrwt beam="1">  1        1 0.16948618E+00 0.30000000E+03</pdfrwt>
<pdfrwt beam="2">0</pdfrwt>
<totfact> 0.14370076E+01</totfact>
</mgrwt>
</event>
<event>
 6    1  0.1901260E-004  0.3000000E+03  0.7818608E-02  0.1093470E+00
          1   -1    0    0  502    0  0.00000000000E+00  0.00000000000E+00  0.37287111927E+02  0.37287111927E+02  0.00000000000E+00 0.  1.
         13   -1    0    0    0    0 -0.00000000000E+00 -0.00000000000E+00 -0.10000000000E+04  0.10000000000E+04  0.00000000000E+00 0.  1.
    9000005    2    1    2  501    0  0.51569177824E+01  0.53879526387E+02 -0.82495673585E+03  0.88927915728E+03  0.32761899575E+03 0.  0.
         13    1    3    3    0    0 -0.83980950717E+02 -0.10968507883E+03 -0.26023513380E+03  0.29462848040E+03  0.00000000000E+00 0.  1.
          3    1    3    3  501    0  0.89137868499E+02  0.16356460522E+03 -0.56472160205E+03  0.59465067687E+03  0.00000000000E+00 0.  1.
         21    1    1    2  502  501 -0.51569177824E+01 -0.53879526387E+02 -0.13775615222E+03  0.14800795465E+03  0.00000000000E+00 0.  1.
<mgrwt>
<rscale>  1 0.30000000E+03</rscale>
<asrwt>0</asrwt>
<pdfrwt beam="1">  1        1 0.13558978E+00 0.30000000E+03</pdfrwt>
<pdfrwt beam="2">0</pdfrwt>
<totfact> 0.21347352E+01</totfact>
</mgrwt>
</event>
<event>
 6    1  0.1901260E-004  0.3000000E+03  0.7818608E-02  0.1093470E+00
          1   -1    0    0  502    0  0.00000000000E+00  0.00000000000E+00  0.27854643300E+02  0.27854643300E+02  0.00000000000E+00 0.  1.
         13   -1    0    0    0    0 -0.00000000000E+00 -0.00000000000E+00 -0.10000000000E+04  0.10000000000E+04  0.00000000000E+00 0.  1.
    9000005    2    1    2  501    0 -0.69932747540E+01 -0.90753356086E+01 -0.92245899552E+03  0.97686442761E+03  0.32125106057E+03 0.  0.
         13    1    3    3    0    0  0.15623975527E+03 -0.18360407505E+01 -0.50280291210E+03  0.52652160506E+03  0.00000000000E+00 0.  1.
          3    1    3    3  501    0 -0.16323303002E+03 -0.72392948580E+01 -0.41965608341E+03  0.45034282256E+03  0.00000000000E+00 0.  1.
         21    1    1    2  502  501  0.69932747540E+01  0.90753356086E+01 -0.49686361184E+02  0.50990215688E+02  0.00000000000E+00 0.  1.
<mgrwt>
<rscale>  1 0.30000000E+03</rscale>
<asrwt>0</asrwt>
<pdfrwt beam="1">  1        1 0.10128983E+00 0.30000000E+03</pdfrwt>
<pdfrwt beam="2">0</pdfrwt>
<totfact> 0.33590321E+01</totfact>
</mgrwt>
</event>
<event>
 6    1  0.1901260E-004  0.3000000E+03  0.7818608E-02  0.1093470E+00
          1   -1    0    0  502    0  0.00000000000E+00  0.00000000000E+00  0.17423923336E+02  0.17423923336E+02  0.00000000000E+00 0.  1.
         13   -1    0    0    0    0 -0.00000000000E+00 -0.00000000000E+00 -0.10000000000E+04  0.10000000000E+04  0.00000000000E+00 0.  1.
    9000005    2    1    2  501    0  0.54530411905E+01  0.95632176721E+01 -0.98606922206E+03  0.10058743409E+04  0.19831663603E+03 0.  0.
         13    1    3    3    0    0 -0.86266314832E+02 -0.32637349396E+02 -0.58860245914E+03  0.59578513623E+03  0.00000000000E+00 0.  1.
          1    1    3    3  501    0  0.91719356022E+02  0.42200567069E+02 -0.39746676292E+03  0.41008920463E+03  0.00000000000E+00 0.  1.
         21    1    1    2  502  501 -0.54530411905E+01 -0.95632176721E+01  0.34931453966E+01  0.11549582470E+02  0.00000000000E+00 0.  1.
<mgrwt>
<rscale>  1 0.30000000E+03</rscale>
<asrwt>0</asrwt>
<pdfrwt beam="1">  1        1 0.63359855E-01 0.30000000E+03</pdfrwt>
<pdfrwt beam="2">0</pdfrwt>
<totfact> 0.64484989E+01</totfact>
</mgrwt>
</event>
<event>
 6    1  0.1901260E-004  0.3000000E+03  0.7818608E-02  0.1093470E+00
          1   -1    0    0  502    0  0.00000000000E+00  0.00000000000E+00  0.33651277796E+02  0.33651277796E+02  0.00000000000E+00 0.  1.
         13   -1    0    0    0    0 -0.00000000000E+00 -0.00000000000E+00 -0.10000000000E+04  0.10000000000E+04  0.00000000000E+00 0.  1.
    9000005    2    1    2  501    0 -0.67595360385E+01  0.14306596689E+02 -0.95904609818E+03  0.10162243345E+04  0.33569645438E+03 0.  0.
         13    1    3    3    0    0 -0.14830178490E+03 -0.34681530828E+02 -0.70541355764E+03  0.72166787049E+03  0.00000000000E+00 0.  1.
          3    1    3    3  501    0  0.14154224886E+03  0.48988127517E+02 -0.25363254054E+03  0.29455646398E+03  0.00000000000E+00 0.  1.
         21    1    1    2  502  501  0.67595360385E+01 -0.14306596689E+02 -0.73026240222E+01  0.17426943332E+02  0.00000000000E+00 0.  1.
<mgrwt>
<rscale>  1 0.30000000E+03</rscale>
<asrwt>0</asrwt>
<pdfrwt beam="1">  1        1 0.12236854E+00 0.30000000E+03</pdfrwt>
<pdfrwt beam="2">0</pdfrwt>
<totfact> 0.25210560E+01</totfact>
</mgrwt>
</event>
<event>
 6    1  0.1901260E-004  0.3000000E+03  0.7818608E-02  0.1093470E+00
          1   -1    0    0  502    0  0.00000000000E+00  0.00000000000E+00  0.28755304399E+02  0.28755304399E+02  0.00000000000E+00 0.  1.
         13   -1    0    0    0    0 -0.00000000000E+00 -0.00000000000E+00 -0.10000000000E+04  0.10000000000E+04  0.00000000000E+00 0.  1.
    9000005    2    1    2  501    0 -0.16038730395E+02 -0.12996110853E+01 -0.94292425226E+03  0.99618265679E+03  0.32095920350E+03 0.  0.
         13    1    3    3    0    0  0.12093463641E+03 -0.26579197975E+02 -0.16722084512E+03  0.20807318686E+03  0.00000000000E+00 0.  1.
          1    1    3    3  501    0 -0.13697336681E+03  0.25279586890E+02 -0.77570340715E+03  0.78810946993E+03  0.00000000000E+00 0.  1.
         21    1    1    2  502  501  0.16038730395E+02  0.12996110853E+01 -0.28320443338E+02  0.32572647613E+02  0.00000000000E+00 0.  1.
<mgrwt>
<rscale>  1 0.30000000E+03</rscale>
<asrwt>0</asrwt>
<pdfrwt beam="1">  1        1 0.10456496E+00 0.30000000E+03</pdfrwt>
<pdfrwt beam="2">0</pdfrwt>
<totfact> 0.32049611E+01</totfact>
</mgrwt>
</event>
<event>
 6    1  0.1901260E-004  0.3000000E+03  0.7818608E-02  0.1093470E+00
          1   -1    0    0  502    0  0.00000000000E+00  0.00000000000E+00  0.41022717260E+02  0.41022717260E+02  0.00000000000E+00 0.  1.
         13   -1    0    0    0    0 -0.00000000000E+00 -0.00000000000E+00 -0.10000000000E+04  0.10000000000E+04  0.00000000000E+00 0.  1.
    9000005    2    1    2  501    0  0.74144431519E+01  0.18531608694E+02 -0.96697966963E+03  0.10195184692E+04  0.32244353477E+03 0.  0.
         13    1    3    3    0    0  0.97301709823E+02  0.80971198987E+02 -0.15466068198E+03  0.19985966164E+03  0.00000000000E+00 0.  1.
          3    1    3    3  501    0 -0.89887266671E+02 -0.62439590294E+02 -0.81231898765E+03  0.81965880758E+03  0.00000000000E+00 0.  1.
         21    1    1    2  502  501 -0.74144431519E+01 -0.18531608694E+02  0.80023868870E+01  0.21504248043E+02  0.00000000000E+00 0.  1.
<mgrwt>
<rscale>  1 0.30000000E+03</rscale>
<asrwt>0</asrwt>
<pdfrwt beam="1">  1        1 0.14917383E+00 0.30000000E+03</pdfrwt>
<pdfrwt beam="2">0</pdfrwt>
<totfact> 0.18139776E+01</totfact>
</mgrwt>
</event>
<event>
 6    1  0.1901260E-004  0.3000000E+03  0.7818608E-02  0.1093470E+00
          1   -1    0    0  502    0  0.00000000000E+00  0.00000000000E+00  0.31522694579E+02  0.31522694579E+02  0.00000000000E+00 0.  1.
         13   -1    0    0    0    0 -0.00000000000E+00 -0.00000000000E+00 -0.10000000000E+04  0.10000000000E+04  0.00000000000E+00 0.  1.
    9000005    2    1    2  501    0 -0.33435585615E+01  0.13078267126E+02 -0.96814233553E+03  0.10180196335E+04  0.31445535742E+03 0.  0.
         13    1    3    3    0    0  0.58197427592E+02  0.72102673051E+02 -0.91024811250E+03  0.91495210932E+03  0.00000000000E+00 0.  1.
          1    1    3    3  501    0 -0.61540986153E+02 -0.59024405926E+02 -0.57894223024E+02  0.10306752413E+03  0.00000000000E+00 0.  1.
         21    1    1    2  502  501  0.33435585615E+01 -0.13078267126E+02 -0.33496989534E+00  0.13503061123E+02  0.00000000000E+00 0.  1.
<mgrwt>
<rscale>  1 0.30000000E+03</rscale>
<asrwt>0</asrwt>
<pdfrwt beam="1">  1        1 0.11462822E+00 0.30000000E+03</pdfrwt>
<pdfrwt beam="2">0</pdfrwt>
<totfact> 0.27904336E+01</totfact>
</mgrwt>
</event>
<event>
 6    1  0.1901260E-004  0.3000000E+03  0.7818608E-02  0.1093470E+00
          1   -1    0    0  502    0  0.00000000000E+00  0.00000000000E+00  0.36421473614E+02  0.36421473614E+02  0.00000000000E+00 0.  1.
         13   -1    0    0    0    0 -0.00000000000E+00 -0.00000000000E+00 -0.10000000000E+04  0.10000000000E+04  0.00000000000E+00 0.  1.
    9000005    2    1    2  501    0 -0.83624885765E+01 -0.30778504223E+02 -0.94511425025E+03  0.99956802017E+03  0.32384878167E+03 0.  0.
         13    1    3    3    0    0  0.78584970007E+02  0.55962480512E+02 -0.81482849074E+03  0.82051987548E+03  0.00000000000E+00 0.  1.
          1    1    3    3  501    0 -0.86947458583E+02 -0.86740984735E+02 -0.13028575951E+03  0.17904814469E+03  0.00000000000E+00 0.  1.
         21    1    1    2  502  501  0.83624885765E+01  0.30778504223E+02 -0.18464276138E+02  0.36853453443E+02  0.00000000000E+00 0.  1.
<mgrwt>
<rscale>  1 0.30000000E+03</rscale>
<asrwt>0</asrwt>
<pdfrwt beam="1">  1        1 0.13244200E+00 0.30000000E+03</pdfrwt>
<pdfrwt beam="2">0</pdfrwt>
<totfact> 0.22193061E+01</totfact>
</mgrwt>
</event>
<event>
 6    1  0.1901260E-004  0.3000000E+03  0.7818608E-02  0.1093470E+00
          1   -1    0    0  502    0  0.00000000000E+00  0.00000000000E+00  0.36530218806E+02  0.36530218806E+02  0.00000000000E+00 0.  1.
         13   -1    0    0    0    0 -0.00000000000E+00 -0.00000000000E+00 -0.10000000000E+04  0.10000000000E+04  0.00000000000E+00 0.  1.
    9000005    2    1    2  501    0  0.11069526090E+02 -0.60147706829E+01 -0.93025217797E+03  0.10010038759E+04  0.36943325938E+03 0.  0.
         13    1    3    3    0    0  0.16488599498E+03  0.19473506929E+02 -0.23037657386E+03  0.28397178486E+03  0.00000000000E+00 0.  1.
          1    1    3    3  501    0 -0.15381646889E+03 -0.25488277612E+02 -0.69987560410E+03  0.71703209106E+03  0.00000000000E+00 0.  1.
         21    1    1    2  502  501 -0.11069526090E+02  0.60147706829E+01 -0.33217603228E+02  0.35526342880E+02  0.00000000000E+00 0. -1.
<mgrwt>
<rscale>  1 0.30000000E+03</rscale>
<asrwt>0</asrwt>
<pdfrwt beam="1">  1        1 0.13283744E+00 0.30000000E+03</pdfrwt>
<pdfrwt beam="2">0</pdfrwt>
<totfact> 0.22084413E+01</totfact>
</mgrwt>
</event>
<event>
 6    1  0.1901260E-004  0.3000000E+03  0.7818608E-02  0.1093470E+00
          1   -1    0    0  502    0  0.00000000000E+00  0.00000000000E+00  0.26555064262E+02  0.26555064262E+02  0.00000000000E+00 0.  1.
         13   -1    0    0    0    0 -0.00000000000E+00 -0.00000000000E+00 -0.10000000000E+04  0.10000000000E+04  0.00000000000E+00 0.  1.
    9000005    2    1    2  501    0  0.61763479492E+01  0.45790568962E+01 -0.95315506612E+03  0.10048572799E+04  0.31807932644E+03 0.  0.
         13    1    3    3    0    0 -0.13672294751E+03 -0.18666630885E+02 -0.69782077536E+03  0.71133356593E+03  0.00000000000E+00 0.  1.
          1    1    3    3  501    0  0.14289929546E+03  0.23245687781E+02 -0.25533429076E+03  0.29352371400E+03  0.00000000000E+00 0.  1.
         21    1    1    2  502  501 -0.61763479492E+01 -0.45790568962E+01 -0.20289869613E+02  0.21697784333E+02  0.00000000000E+00 0.  1.
<mgrwt>
<rscale>  1 0.30000000E+03</rscale>
<asrwt>0</asrwt>
<pdfrwt beam="1">  1        1 0.96564074E-01 0.30000000E+03</pdfrwt>
<pdfrwt beam="2">0</pdfrwt>
<totfact> 0.36012327E+01</totfact>
</mgrwt>
</event>
<event>
 6    1  0.1901260E-004  0.3000000E+03  0.7818608E-02  0.1093470E+00
          1   -1    0    0  502    0  0.00000000000E+00  0.00000000000E+00  0.50790608855E+02  0.50790608855E+02  0.00000000000E+00 0.  1.
         13   -1    0    0    0    0 -0.00000000000E+00 -0.00000000000E+00 -0.10000000000E+04  0.10000000000E+04  0.00000000000E+00 0.  1.
    9000005    2    1    2  501    0 -0.30779424222E+02 -0.29349834521E+02 -0.94029966278E+03  0.10073375422E+04  0.35882681390E+03 0.  0.
         13    1    3    3    0    0 -0.17716797682E+03  0.57557683836E+02 -0.57259368973E+03  0.60213363342E+03  0.00000000000E+00 0.  1.
          3    1    3    3  501    0  0.14638855260E+03 -0.86907518357E+02 -0.36770597304E+03  0.40520390878E+03  0.00000000000E+00 0.  1.
         21    1    1    2  502  501  0.30779424222E+02  0.29349834521E+02 -0.89097283701E+01  0.43453066652E+02  0.00000000000E+00 0.  1.
<mgrwt>
<rscale>  1 0.30000000E+03</rscale>
<asrwt>0</asrwt>
<pdfrwt beam="1">  1        1 0.18469351E+00 0.30000000E+03</pdfrwt>
<pdfrwt beam="2">0</pdfrwt>
<totfact> 0.12125470E+01</totfact>
</mgrwt>
</event>
<event>
 6    1  0.1901260E-004  0.3000000E+03  0.7818608E-02  0.1093470E+00
          1   -1    0    0  502    0  0.00000000000E+00  0.00000000000E+00  0.32886301804E+02  0.32886301804E+02  0.00000000000E+00 0.  1.
         13   -1    0    0    0    0 -0.00000000000E+00 -0.00000000000E+00 -0.10000000000E+04  0.10000000000E+04  0.00000000000E+00 0.  1.
    9000005    2    1    2  501    0  0.23749585656E+02  0.43495310238E-01 -0.95163196825E+03  0.10045361929E+04  0.32082006673E+03 0.  0.
         13    1    3    3    0    0  0.44856086396E+02 -0.20984689115E+02  0.28362085204E+01  0.49603122309E+02  0.00000000000E+00 0.  1.
          3    1    3    3  501    0 -0.21106500740E+02  0.21028184425E+02 -0.95446817677E+03  0.95493307063E+03  0.00000000000E+00 0.  1.
         21    1    1    2  502  501 -0.23749585656E+02 -0.43495310238E-01 -0.15481729947E+02  0.28350108868E+02  0.00000000000E+00 0.  1.
<mgrwt>
<rscale>  1 0.30000000E+03</rscale>
<asrwt>0</asrwt>
<pdfrwt beam="1">  1        1 0.11958680E+00 0.30000000E+03</pdfrwt>
<pdfrwt beam="2">0</pdfrwt>
<totfact> 0.26136373E+01</totfact>
</mgrwt>
</event>
<event>
 6    1  0.1901260E-004  0.3000000E+03  0.7818608E-02  0.1093470E+00
          1   -1    0    0  502    0  0.00000000000E+00  0.00000000000E+00  0.30977510808E+02  0.30977510808E+02  0.00000000000E+00 0.  1.
         13   -1    0    0    0    0 -0.00000000000E+00 -0.00000000000E+00 -0.10000000000E+04  0.10000000000E+04  0.00000000000E+00 0.  1.
    9000005    2    1    2  501    0 -0.69138204664E+01  0.65650921023E+01 -0.95722782052E+03  0.10158112470E+04  0.33984774220E+03 0.  0.
         13    1    3    3    0    0 -0.16531216048E+03  0.42528078609E+02 -0.59147775047E+03  0.61561568951E+03  0.00000000000E+00 0.  1.
          1    1    3    3  501    0  0.15839834002E+03 -0.35962986506E+02 -0.36575007005E+03  0.40019555752E+03  0.00000000000E+00 0.  1.
         21    1    1    2  502  501  0.69138204664E+01 -0.65650921023E+01 -0.11794668676E+02  0.15166263776E+02  0.00000000000E+00 0.  1.
<mgrwt>
<rscale>  1 0.30000000E+03</rscale>
<asrwt>0</asrwt>
<pdfrwt beam="1">  1        1 0.11264573E+00 0.30000000E+03</pdfrwt>
<pdfrwt beam="2">0</pdfrwt>
<totfact> 0.28657995E+01</totfact>
</mgrwt>
</event>
<event>
 6    1  0.1901260E-004  0.3000000E+03  0.7818608E-02  0.1093470E+00
          1   -1    0    0  502    0  0.00000000000E+00  0.00000000000E+00  0.34982664675E+02  0.34982664675E+02  0.00000000000E+00 0.  1.
         13   -1    0    0    0    0 -0.00000000000E+00 -0.00000000000E+00 -0.10000000000E+04  0.10000000000E+04  0.00000000000E+00 0.  1.
    9000005    2    1    2  501    0 -0.20305576625E+02 -0.10793864508E+01 -0.94635157022E+03  0.10073802680E+04  0.34470310168E+03 0.  0.
         13    1    3    3    0    0 -0.17540731892E+03 -0.12842583827E+01 -0.35424023084E+03  0.39529168724E+03  0.00000000000E+00 0.  1.
          3    1    3    3  501    0  0.15510174230E+03  0.20487193191E+00 -0.59211133938E+03  0.61208858073E+03  0.00000000000E+00 0.  1.
         21    1    1    2  502  501  0.20305576625E+02  0.10793864508E+01 -0.18665765101E+02  0.27602396707E+02  0.00000000000E+00 0. -1.
<mgrwt>
<rscale>  1 0.30000000E+03</rscale>
<asrwt>0</asrwt>
<pdfrwt beam="1">  1        1 0.12720996E+00 0.30000000E+03</pdfrwt>
<pdfrwt beam="2">0</pdfrwt>
<totfact> 0.23698553E+01</totfact>
</mgrwt>
</event>
<event>
 6    1  0.1901260E-004  0.3000000E+03  0.7818608E-02  0.1093470E+00
          1   -1    0    0  502    0  0.00000000000E+00  0.00000000000E+00  0.71120421734E+02  0.71120421734E+02  0.00000000000E+00 0.  1.
         13   -1    0    0    0    0 -0.00000000000E+00 -0.00000000000E+00 -0.10000000000E+04  0.10000000000E+04  0.00000000000E+00 0.  1.
    9000005    2    1    2  501    0 -0.32587836682E+02 -0.12146224431E+03 -0.79919503293E+03  0.89047401244E+03  0.37204330700E+03 0.  0.
         13    1    3    3    0    0 -0.28539232397E+02  0.11720962059E+03 -0.11834608231E+03  0.16899224285E+03  0.00000000000E+00 0.  1.
          3    1    3    3  501    0 -0.40486042850E+01 -0.23867186490E+03 -0.68084895062E+03  0.72148176959E+03  0.00000000000E+00 0.  1.
         21    1    1    2  502  501  0.32587836682E+02  0.12146224431E+03 -0.12968454534E+03  0.18064640930E+03  0.00000000000E+00 0. -1.
<mgrwt>
<rscale>  1 0.30000000E+03</rscale>
<asrwt>0</asrwt>
<pdfrwt beam="1">  1        1 0.25862026E+00 0.30000000E+03</pdfrwt>
<pdfrwt beam="2">0</pdfrwt>
<totfact> 0.54387258E+00</totfact>
</mgrwt>
</event>
<event>
 6    1  0.1901260E-004  0.3000000E+03  0.7818608E-02  0.1093470E+00
          1   -1    0    0  502    0  0.00000000000E+00  0.00000000000E+00  0.37797947202E+02  0.37797947202E+02  0.00000000000E+00 0.  1.
         13   -1    0    0    0    0 -0.00000000000E+00 -0.00000000000E+00 -0.10000000000E+04  0.10000000000E+04  0.00000000000E+00 0.  1.
    9000005    2    1    2  501    0  0.73255185953E+01 -0.14082510228E+02 -0.96829084550E+03  0.10207963675E+04  0.32277868893E+03 0.  0.
         13    1    3    3    0    0  0.54692621470E+02 -0.22806381920E+01 -0.97039316169E+03  0.97193588904E+03  0.00000000000E+00 0.  1.
          3    1    3    3  501    0 -0.47367102875E+02 -0.11801872036E+02  0.21023161863E+01  0.48860478422E+02  0.00000000000E+00 0.  1.
         21    1    1    2  502  501 -0.73255185953E+01  0.14082510228E+02  0.60887927040E+01  0.17001579738E+02  0.00000000000E+00 0.  1.
<mgrwt>
<rscale>  1 0.30000000E+03</rscale>
<asrwt>0</asrwt>
<pdfrwt beam="1">  1        1 0.13744737E+00 0.30000000E+03</pdfrwt>
<pdfrwt beam="2">0</pdfrwt>
<totfact> 0.20868263E+01</totfact>
</mgrwt>
</event>
<event>
 6    1  0.1901260E-004  0.3000000E+03  0.7818608E-02  0.1093470E+00
          1   -1    0    0  502    0  0.00000000000E+00  0.00000000000E+00  0.32562729545E+02  0.32562729545E+02  0.00000000000E+00 0.  1.
         13   -1    0    0    0    0 -0.00000000000E+00 -0.00000000000E+00 -0.10000000000E+04  0.10000000000E+04  0.00000000000E+00 0.  1.
    9000005    2    1    2  501    0 -0.18510185321E+02  0.17357931897E+01 -0.96739698087E+03  0.10139712917E+04  0.30320821529E+03 0.  0.
         13    1    3    3    0    0  0.92715465007E+02 -0.84483381940E+02 -0.21830820694E+03  0.25177782367E+03  0.00000000000E+00 0.  1.
          3    1    3    3  501    0 -0.11122565033E+03  0.86219175130E+02 -0.74908877392E+03  0.76219346801E+03  0.00000000000E+00 0.  1.
         21    1    1    2  502  501  0.18510185321E+02 -0.17357931897E+01 -0.40289587865E-01  0.18591437865E+02  0.00000000000E+00 0.  1.
<mgrwt>
<rscale>  1 0.30000000E+03</rscale>
<asrwt>0</asrwt>
<pdfrwt beam="1">  1        1 0.11841018E+00 0.30000000E+03</pdfrwt>
<pdfrwt beam="2">0</pdfrwt>
<totfact> 0.26541683E+01</totfact>
</mgrwt>
</event>
<event>
 6    1  0.1901260E-004  0.3000000E+03  0.7818608E-02  0.1093470E+00
          1   -1    0    0  502    0  0.00000000000E+00  0.00000000000E+00  0.72559088633E+02  0.72559088633E+02  0.00000000000E+00 0.  1.
         13   -1    0    0    0    0 -0.00000000000E+00 -0.00000000000E+00 -0.10000000000E+04  0.10000000000E+04  0.00000000000E+00 0.  1.
    9000005    2    1    2  501    0 -0.47660332413E+02 -0.40566696998E+02 -0.94447217309E+03  0.10076959399E+04  0.34569677075E+03 0.  0.
         13    1    3    3    0    0  0.65214780061E+02  0.12753528714E+03 -0.30561140078E+03  0.33751525194E+03  0.00000000000E+00 0.  1.
          1    1    3    3  501    0 -0.11287511247E+03 -0.16810198414E+03 -0.63886077231E+03  0.67018068793E+03  0.00000000000E+00 0.  1.
         21    1    1    2  502  501  0.47660332413E+02  0.40566696998E+02  0.17031261722E+02  0.64863148758E+02  0.00000000000E+00 0.  1.
<mgrwt>
<rscale>  1 0.30000000E+03</rscale>
<asrwt>0</asrwt>
<pdfrwt beam="1">  1        1 0.26385179E+00 0.30000000E+03</pdfrwt>
<pdfrwt beam="2">0</pdfrwt>
<totfact> 0.51393033E+00</totfact>
</mgrwt>
</event>
<event>
 6    1  0.1901260E-004  0.3000000E+03  0.7818608E-02  0.1093470E+00
          1   -1    0    0  502    0  0.00000000000E+00  0.00000000000E+00  0.66585466202E+02  0.66585466202E+02  0.00000000000E+00 0.  1.
         13   -1    0    0    0    0 -0.00000000000E+00 -0.00000000000E+00 -0.10000000000E+04  0.10000000000E+04  0.00000000000E+00 0.  1.
    9000005    2    1    2  501    0 -0.11904445560E+03  0.37489570010E+02 -0.84559093220E+03  0.91397473504E+03  0.32364910228E+03 0.  0.
         13    1    3    3    0    0  0.32482409630E+02  0.97016626840E+02 -0.65664093100E+03  0.66456349966E+03  0.00000000000E+00 0.  1.
          3    1    3    3  501    0 -0.15152686523E+03 -0.59527056830E+02 -0.18895000120E+03  0.24941123538E+03  0.00000000000E+00 0.  1.
         21    1    1    2  502  501  0.11904445560E+03 -0.37489570010E+02 -0.87823601595E+02  0.15261073116E+03  0.00000000000E+00 0. -1.
<mgrwt>
<rscale>  1 0.30000000E+03</rscale>
<asrwt>0</asrwt>
<pdfrwt beam="1">  1        1 0.24212948E+00 0.30000000E+03</pdfrwt>
<pdfrwt beam="2">0</pdfrwt>
<totfact> 0.64928988E+00</totfact>
</mgrwt>
</event>
<event>
 6    1  0.1901260E-004  0.3000000E+03  0.7818608E-02  0.1093470E+00
          1   -1    0    0  502    0  0.00000000000E+00  0.00000000000E+00  0.29027968468E+02  0.29027968468E+02  0.00000000000E+00 0.  1.
         13   -1    0    0    0    0 -0.00000000000E+00 -0.00000000000E+00 -0.10000000000E+04  0.10000000000E+04  0.00000000000E+00 0.  1.
    9000005    2    1    2  501    0  0.14143110795E+02  0.30370931521E+02 -0.91731040181E+03  0.96576667249E+03  0.30020738058E+03 0.  0.
         13    1    3    3    0    0 -0.80408029229E+02  0.13435133963E+03 -0.39562243044E+03  0.42547954251E+03  0.00000000000E+00 0.  1.
          3    1    3    3  501    0  0.94551140024E+02 -0.10398040811E+03 -0.52168797137E+03  0.54028712998E+03  0.00000000000E+00 0.  1.
         21    1    1    2  502  501 -0.14143110795E+02 -0.30370931521E+02 -0.53661629722E+02  0.63261295978E+02  0.00000000000E+00 0.  1.
<mgrwt>
<rscale>  1 0.30000000E+03</rscale>
<asrwt>0</asrwt>
<pdfrwt beam="1">  1        1 0.10555647E+00 0.30000000E+03</pdfrwt>
<pdfrwt beam="2">0</pdfrwt>
<totfact> 0.31603426E+01</totfact>
</mgrwt>
</event>
<event>
 6    1  0.1901260E-004  0.3000000E+03  0.7818608E-02  0.1093470E+00
          1   -1    0    0  502    0  0.00000000000E+00  0.00000000000E+00  0.51371813905E+02  0.51371813905E+02  0.00000000000E+00 0.  1.
         13   -1    0    0    0    0 -0.00000000000E+00 -0.00000000000E+00 -0.10000000000E+04  0.10000000000E+04  0.00000000000E+00 0.  1.
    9000005    2    1    2  501    0 -0.11160572144E+02  0.33049901116E+02 -0.95999797814E+03  0.10146822172E+04  0.32675224490E+03 0.  0.
         13    1    3    3    0    0  0.35101037800E+02  0.69294772757E+02 -0.95224013378E+03  0.95540311951E+03  0.00000000000E+00 0.  1.
          3    1    3    3  501    0 -0.46261609944E+02 -0.36244871641E+02 -0.77578443601E+01  0.59279097699E+02  0.00000000000E+00 0.  1.
         21    1    1    2  502  501  0.11160572144E+02 -0.33049901116E+02  0.11369792049E+02  0.36689596694E+02  0.00000000000E+00 0. -1.
<mgrwt>
<rscale>  1 0.30000000E+03</rscale>
<asrwt>0</asrwt>
<pdfrwt beam="1">  1        1 0.18680699E+00 0.30000000E+03</pdfrwt>
<pdfrwt beam="2">0</pdfrwt>
<totfact> 0.11845020E+01</totfact>
</mgrwt>
</event>
<event>
 6    1  0.1901260E-004  0.3000000E+03  0.7818608E-02  0.1093470E+00
          1   -1    0    0  502    0  0.00000000000E+00  0.00000000000E+00  0.62290428388E+02  0.62290428388E+02  0.00000000000E+00 0.  1.
         13   -1    0    0    0    0 -0.00000000000E+00 -0.00000000000E+00 -0.10000000000E+04  0.10000000000E+04  0.00000000000E+00 0.  1.
    9000005    2    1    2  501    0 -0.24418879592E+02 -0.53278105050E+02 -0.93892768835E+03  0.10036702786E+04  0.34976275666E+03 0.  0.
         13    1    3    3    0    0 -0.17401550957E+03 -0.61583328790E+02 -0.67908828288E+03  0.70372920922E+03  0.00000000000E+00 0.  1.
          1    1    3    3  501    0  0.14959662998E+03  0.83052237395E+01 -0.25983940546E+03  0.29994106934E+03  0.00000000000E+00 0.  1.
         21    1    1    2  502  501  0.24418879592E+02  0.53278105050E+02  0.12181167343E+01  0.58620149834E+02  0.00000000000E+00 0.  1.
<mgrwt>
<rscale>  1 0.30000000E+03</rscale>
<asrwt>0</asrwt>
<pdfrwt beam="1">  1        1 0.22651113E+00 0.30000000E+03</pdfrwt>
<pdfrwt beam="2">0</pdfrwt>
<totfact> 0.76841105E+00</totfact>
</mgrwt>
</event>
<event>
 6    1  0.1901260E-004  0.3000000E+03  0.7818608E-02  0.1093470E+00
          1   -1    0    0  502    0  0.00000000000E+00  0.00000000000E+00  0.31328964852E+02  0.31328964852E+02  0.00000000000E+00 0.  1.
         13   -1    0    0    0    0 -0.00000000000E+00 -0.00000000000E+00 -0.10000000000E+04  0.10000000000E+04  0.00000000000E+00 0.  1.
    9000005    2    1    2  501    0 -0.57854230937E+01 -0.10269362753E+02 -0.96928571860E+03  0.10195260513E+04  0.31587914483E+03 0.  0.
         13    1    3    3    0    0 -0.70345042920E+02 -0.20581579380E+02 -0.32020428199E+02  0.79983337610E+02  0.00000000000E+00 0.  1.
          1    1    3    3  501    0  0.64559619827E+02  0.10312216627E+02 -0.93726529040E+03  0.93954271373E+03  0.00000000000E+00 0.  1.
         21    1    1    2  502  501  0.57854230937E+01  0.10269362753E+02  0.61468345214E+00  0.11802913516E+02  0.00000000000E+00 0.  1.
<mgrwt>
<rscale>  1 0.30000000E+03</rscale>
<asrwt>0</asrwt>
<pdfrwt beam="1">  1        1 0.11392375E+00 0.30000000E+03</pdfrwt>
<pdfrwt beam="2">0</pdfrwt>
<totfact> 0.28168891E+01</totfact>
</mgrwt>
</event>
<event>
 6    1  0.1901260E-004  0.3000000E+03  0.7818608E-02  0.1093470E+00
          1   -1    0    0  502    0  0.00000000000E+00  0.00000000000E+00  0.67924726559E+02  0.67924726559E+02  0.00000000000E+00 0.  1.
         13   -1    0    0    0    0 -0.00000000000E+00 -0.00000000000E+00 -0.10000000000E+04  0.10000000000E+04  0.00000000000E+00 0.  1.
    9000005    2    1    2  501    0 -0.13170148182E+02  0.11830365654E+02 -0.89994797400E+03  0.10312426639E+04  0.50323122469E+03 0.  0.
         13    1    3    3    0    0  0.30232039851E+02  0.14758382898E+03 -0.35039001276E+02  0.15466962992E+03  0.00000000000E+00 0.  1.
          3    1    3    3  501    0 -0.43402188033E+02 -0.13575346332E+03 -0.86490897273E+03  0.87657303394E+03  0.00000000000E+00 0.  1.
         21    1    1    2  502  501  0.13170148182E+02 -0.11830365654E+02 -0.32127299438E+02  0.36682062698E+02  0.00000000000E+00 0.  1.
<mgrwt>
<rscale>  1 0.30000000E+03</rscale>
<asrwt>0</asrwt>
<pdfrwt beam="1">  1        1 0.24699953E+00 0.30000000E+03</pdfrwt>
<pdfrwt beam="2">0</pdfrwt>
<totfact> 0.61612588E+00</totfact>
</mgrwt>
</event>
<event>
 6    1  0.1901260E-004  0.3000000E+03  0.7818608E-02  0.1093470E+00
          1   -1    0    0  502    0  0.00000000000E+00  0.00000000000E+00  0.51876385360E+02  0.51876385360E+02  0.00000000000E+00 0.  1.
         13   -1    0    0    0    0 -0.00000000000E+00 -0.00000000000E+00 -0.10000000000E+04  0.10000000000E+04  0.00000000000E+00 0.  1.
    9000005    2    1    2  501    0  0.10509244720E+02  0.80786592908E+01 -0.97099032412E+03  0.10254454307E+04  0.32945472053E+03 0.  0.
         13    1    3    3    0    0  0.46316131143E+02  0.15186559067E+03 -0.68715515588E+03  0.70525920759E+03  0.00000000000E+00 0.  1.
          3    1    3    3  501    0 -0.35806886422E+02 -0.14378693138E+03 -0.28383516824E+03  0.32018622313E+03  0.00000000000E+00 0.  1.
         21    1    1    2  502  501 -0.10509244720E+02 -0.80786592908E+01  0.22866709485E+02  0.26430954640E+02  0.00000000000E+00 0.  1.
<mgrwt>
<rscale>  1 0.30000000E+03</rscale>
<asrwt>0</asrwt>
<pdfrwt beam="1">  1        1 0.18864180E+00 0.30000000E+03</pdfrwt>
<pdfrwt beam="2">0</pdfrwt>
<totfact> 0.11606972E+01</totfact>
</mgrwt>
</event>
<event>
 6    1  0.1901260E-004  0.3000000E+03  0.7818608E-02  0.1093470E+00
          1   -1    0    0  502    0  0.00000000000E+00  0.00000000000E+00  0.30115207698E+02  0.30115207698E+02  0.00000000000E+00 0.  1.
         13   -1    0    0    0    0 -0.00000000000E+00 -0.00000000000E+00 -0.10000000000E+04  0.10000000000E+04  0.00000000000E+00 0.  1.
    9000005    2    1    2  501    0  0.10095732493E+02  0.94971030668E+00 -0.95983843815E+03  0.10158409303E+04  0.33247577732E+03 0.  0.
         13    1    3    3    0    0 -0.46678987680E+02 -0.12546081070E+03 -0.18296901385E+03  0.22670907115E+03  0.00000000000E+00 0.  1.
          3    1    3    3  501    0  0.56774720173E+02  0.12641052101E+03 -0.77686942430E+03  0.78913185912E+03  0.00000000000E+00 0.  1.
         21    1    1    2  502  501 -0.10095732493E+02 -0.94971030668E+00 -0.10046354153E+02  0.14274277424E+02  0.00000000000E+00 0. -1.
<mgrwt>
<rscale>  1 0.30000000E+03</rscale>
<asrwt>0</asrwt>
<pdfrwt beam="1">  1        1 0.10951008E+00 0.30000000E+03</pdfrwt>
<pdfrwt beam="2">0</pdfrwt>
<totfact> 0.29910362E+01</totfact>
</mgrwt>
</event>
<event>
 6    1  0.1901260E-004  0.3000000E+03  0.7818608E-02  0.1093470E+00
          1   -1    0    0  502    0  0.00000000000E+00  0.00000000000E+00  0.39846069183E+02  0.39846069183E+02  0.00000000000E+00 0.  1.
         13   -1    0    0    0    0 -0.00000000000E+00 -0.00000000000E+00 -0.10000000000E+04  0.10000000000E+04  0.00000000000E+00 0.  1.
    9000005    2    1    2  501    0 -0.16494142960E+02  0.18822746806E+02 -0.96852999973E+03  0.10134545728E+04  0.29734400661E+03 0.  0.
         13    1    3    3    0    0  0.11232152591E+02  0.96247067978E+02 -0.93787017008E+02  0.13485423206E+03  0.00000000000E+00 0.  1.
          3    1    3    3  501    0 -0.27726295551E+02 -0.77424321172E+02 -0.87474298272E+03  0.87860034077E+03  0.00000000000E+00 0.  1.
         21    1    1    2  502  501  0.16494142960E+02 -0.18822746806E+02  0.83760689128E+01  0.26391496353E+02  0.00000000000E+00 0.  1.
<mgrwt>
<rscale>  1 0.30000000E+03</rscale>
<asrwt>0</asrwt>
<pdfrwt beam="1">  1        1 0.14489510E+00 0.30000000E+03</pdfrwt>
<pdfrwt beam="2">0</pdfrwt>
<totfact> 0.19079966E+01</totfact>
</mgrwt>
</event>
<event>
 6    1  0.1901260E-004  0.3000000E+03  0.7818608E-02  0.1093470E+00
          1   -1    0    0  502    0  0.00000000000E+00  0.00000000000E+00  0.36194814964E+02  0.36194814964E+02  0.00000000000E+00 0.  1.
         13   -1    0    0    0    0 -0.00000000000E+00 -0.00000000000E+00 -0.10000000000E+04  0.10000000000E+04  0.00000000000E+00 0.  1.
    9000005    2    1    2  501    0 -0.13266185058E+02  0.45526383395E+01 -0.96448698385E+03  0.10221526274E+04  0.33817766560E+03 0.  0.
         13    1    3    3    0    0 -0.16734470284E+03 -0.43622005449E+02 -0.41919650171E+03  0.45346756882E+03  0.00000000000E+00 0.  1.
          1    1    3    3  501    0  0.15407851778E+03  0.48174643789E+02 -0.54529048214E+03  0.56868505859E+03  0.00000000000E+00 0.  1.
         21    1    1    2  502  501  0.13266185058E+02 -0.45526383395E+01  0.68179881218E+00  0.14042187560E+02  0.00000000000E+00 0.  1.
<mgrwt>
<rscale>  1 0.30000000E+03</rscale>
<asrwt>0</asrwt>
<pdfrwt beam="1">  1        1 0.13161779E+00 0.30000000E+03</pdfrwt>
<pdfrwt beam="2">0</pdfrwt>
<totfact> 0.22421786E+01</totfact>
</mgrwt>
</event>
<event>
 6    1  0.1901260E-004  0.3000000E+03  0.7818608E-02  0.1093470E+00
          1   -1    0    0  502    0  0.00000000000E+00  0.00000000000E+00  0.34709044166E+02  0.34709044166E+02  0.00000000000E+00 0.  1.
         13   -1    0    0    0    0 -0.00000000000E+00 -0.00000000000E+00 -0.10000000000E+04  0.10000000000E+04  0.00000000000E+00 0.  1.
    9000005    2    1    2  501    0  0.12545307455E+02  0.10982839410E+02 -0.96387656582E+03  0.10179756046E+04  0.32701420447E+03 0.  0.
         13    1    3    3    0    0 -0.30633163463E+02  0.14673709812E+03 -0.26256328541E+03  0.30234028100E+03  0.00000000000E+00 0.  1.
          1    1    3    3  501    0  0.43178470918E+02 -0.13575425871E+03 -0.70131328041E+03  0.71563532360E+03  0.00000000000E+00 0.  1.
         21    1    1    2  502  501 -0.12545307455E+02 -0.10982839410E+02 -0.14143900151E+01  0.16733439567E+02  0.00000000000E+00 0. -1.
<mgrwt>
<rscale>  1 0.30000000E+03</rscale>
<asrwt>0</asrwt>
<pdfrwt beam="1">  1        1 0.12621497E+00 0.30000000E+03</pdfrwt>
<pdfrwt beam="2">0</pdfrwt>
<totfact> 0.23999641E+01</totfact>
</mgrwt>
</event>
<event>
 6    1  0.1901260E-004  0.3000000E+03  0.7818608E-02  0.1093470E+00
          1   -1    0    0  502    0  0.00000000000E+00  0.00000000000E+00  0.29352065519E+02  0.29352065519E+02  0.00000000000E+00 0.  1.
         13   -1    0    0    0    0 -0.00000000000E+00 -0.00000000000E+00 -0.10000000000E+04  0.10000000000E+04  0.00000000000E+00 0.  1.
    9000005    2    1    2  501    0 -0.22111851439E+02 -0.17912015281E+01 -0.92342982705E+03  0.97718222704E+03  0.31885783194E+03 0.  0.
         13    1    3    3    0    0  0.11549767980E+03 -0.94381457378E+02 -0.52053179864E+03  0.54148031075E+03  0.00000000000E+00 0.  1.
          1    1    3    3  501    0 -0.13760953124E+03  0.92590255850E+02 -0.40289802841E+03  0.43570191630E+03  0.00000000000E+00 0.  1.
         21    1    1    2  502  501  0.22111851439E+02  0.17912015281E+01 -0.47218107433E+02  0.52169838475E+02  0.00000000000E+00 0. -1.
<mgrwt>
<rscale>  1 0.30000000E+03</rscale>
<asrwt>0</asrwt>
<pdfrwt beam="1">  1        1 0.10673501E+00 0.30000000E+03</pdfrwt>
<pdfrwt beam="2">0</pdfrwt>
<totfact> 0.31084650E+01</totfact>
</mgrwt>
</event>
<event>
 6    1  0.1901260E-004  0.3000000E+03  0.7818608E-02  0.1093470E+00
          1   -1    0    0  502    0  0.00000000000E+00  0.00000000000E+00  0.57220414269E+02  0.57220414269E+02  0.00000000000E+00 0.  1.
         13   -1    0    0    0    0 -0.00000000000E+00 -0.00000000000E+00 -0.10000000000E+04  0.10000000000E+04  0.00000000000E+00 0.  1.
    9000005    2    1    2  501    0  0.80479411281E+02  0.10492689723E+03 -0.64323042103E+03  0.72978142534E+03  0.31835352177E+03 0.  0.
         13    1    3    3    0    0  0.13297299384E+03  0.17660365381E+02 -0.77419767592E+02  0.15487906899E+03  0.00000000000E+00 0.  1.
          3    1    3    3  501    0 -0.52493582559E+02  0.87266531845E+02 -0.56581065344E+03  0.57490235635E+03  0.00000000000E+00 0.  1.
         21    1    1    2  502  501 -0.80479411281E+02 -0.10492689723E+03 -0.29954916470E+03  0.32743898893E+03  0.00000000000E+00 0.  1.
<mgrwt>
<rscale>  1 0.30000000E+03</rscale>
<asrwt>0</asrwt>
<pdfrwt beam="1">  1        1 0.20807467E+00 0.30000000E+03</pdfrwt>
<pdfrwt beam="2">0</pdfrwt>
<totfact> 0.93794109E+00</totfact>
</mgrwt>
</event>
<event>
 6    1  0.1901260E-004  0.3000000E+03  0.7818608E-02  0.1093470E+00
          1   -1    0    0  502    0  0.00000000000E+00  0.00000000000E+00  0.37353877299E+02  0.37353877299E+02  0.00000000000E+00 0.  1.
         13   -1    0    0    0    0 -0.00000000000E+00 -0.00000000000E+00 -0.10000000000E+04  0.10000000000E+04  0.00000000000E+00 0.  1.
    9000005    2    1    2  501    0 -0.11649719104E+02  0.20580106374E+01 -0.97318666585E+03  0.10215091806E+04  0.31023985580E+03 0.  0.
         13    1    3    3    0    0 -0.12506350123E+03 -0.93533922023E+02 -0.39901833395E+03  0.42849166239E+03  0.00000000000E+00 0.  1.
          1    1    3    3  501    0  0.11341378212E+03  0.95591932660E+02 -0.57416833190E+03  0.59301751823E+03  0.00000000000E+00 0.  1.
         21    1    1    2  502  501  0.11649719104E+02 -0.20580106374E+01  0.10540543153E+02  0.15844696682E+02  0.00000000000E+00 0.  1.
<mgrwt>
<rscale>  1 0.30000000E+03</rscale>
<asrwt>0</asrwt>
<pdfrwt beam="1">  1        1 0.13583257E+00 0.30000000E+03</pdfrwt>
<pdfrwt beam="2">0</pdfrwt>
<totfact> 0.21283916E+01</totfact>
</mgrwt>
</event>
<event>
 6    1  0.1901260E-004  0.3000000E+03  0.7818608E-02  0.1093470E+00
          1   -1    0    0  502    0  0.00000000000E+00  0.00000000000E+00  0.53162695136E+02  0.53162695136E+02  0.00000000000E+00 0.  1.
         13   -1    0    0    0    0 -0.00000000000E+00 -0.00000000000E+00 -0.10000000000E+04  0.10000000000E+04  0.00000000000E+00 0.  1.
    9000005    2    1    2  501    0  0.36438609429E+01  0.21098492978E+02 -0.96116033227E+03  0.10274027797E+04  0.36231045157E+03 0.  0.
         13    1    3    3    0    0 -0.43683595928E+02 -0.10064993825E+03 -0.77965105897E+02  0.13460023908E+03  0.00000000000E+00 0.  1.
          3    1    3    3  501    0  0.47327456870E+02  0.12174843123E+03 -0.88319522637E+03  0.89280254063E+03  0.00000000000E+00 0.  1.
         21    1    1    2  502  501 -0.36438609429E+01 -0.21098492978E+02  0.14323027401E+02  0.25759915420E+02  0.00000000000E+00 0. -1.
<mgrwt>
<rscale>  1 0.30000000E+03</rscale>
<asrwt>0</asrwt>
<pdfrwt beam="1">  1        1 0.19331930E+00 0.30000000E+03</pdfrwt>
<pdfrwt beam="2">0</pdfrwt>
<totfact> 0.11022748E+01</totfact>
</mgrwt>
</event>
<event>
 6    1  0.1901260E-004  0.3000000E+03  0.7818608E-02  0.1093470E+00
          1   -1    0    0  502    0  0.00000000000E+00  0.00000000000E+00  0.33494556658E+02  0.33494556658E+02  0.00000000000E+00 0.  1.
         13   -1    0    0    0    0 -0.00000000000E+00 -0.00000000000E+00 -0.10000000000E+04  0.10000000000E+04  0.00000000000E+00 0.  1.
    9000005    2    1    2  501    0  0.26848384502E+02 -0.24946215278E+02 -0.86862890271E+03  0.92898155931E+03  0.32733380137E+03 0.  0.
         13    1    3    3    0    0 -0.16492015494E+02 -0.17316866574E+03 -0.42391308182E+03  0.45821575083E+03  0.00000000000E+00 0.  1.
          1    1    3    3  501    0  0.43340399995E+02  0.14822245046E+03 -0.44471582088E+03  0.47076580848E+03  0.00000000000E+00 0.  1.
         21    1    1    2  502  501 -0.26848384502E+02  0.24946215278E+02 -0.97876540634E+02  0.10451299734E+03  0.00000000000E+00 0. -1.
<mgrwt>
<rscale>  1 0.30000000E+03</rscale>
<asrwt>0</asrwt>
<pdfrwt beam="1">  1        1 0.12179864E+00 0.30000000E+03</pdfrwt>
<pdfrwt beam="2">0</pdfrwt>
<totfact> 0.25396650E+01</totfact>
</mgrwt>
</event>
<event>
 6    1  0.1901260E-004  0.3000000E+03  0.7818608E-02  0.1093470E+00
          1   -1    0    0  502    0  0.00000000000E+00  0.00000000000E+00  0.45115304851E+02  0.45115304851E+02  0.00000000000E+00 0.  1.
         13   -1    0    0    0    0 -0.00000000000E+00 -0.00000000000E+00 -0.10000000000E+04  0.10000000000E+04  0.00000000000E+00 0.  1.
    9000005    2    1    2  501    0  0.17980656017E+02  0.88393699053E+02 -0.77128346699E+03  0.84055196257E+03  0.32173384234E+03 0.  0.
         13    1    3    3    0    0  0.14586101611E+03  0.37762327579E+01 -0.56489008744E+03  0.58342995025E+03  0.00000000000E+00 0.  1.
          3    1    3    3  501    0 -0.12788036010E+03  0.84617466295E+02 -0.20639337955E+03  0.25712201232E+03  0.00000000000E+00 0.  1.
         21    1    1    2  502  501 -0.17980656017E+02 -0.88393699053E+02 -0.18360122816E+03  0.20456334228E+03  0.00000000000E+00 0. -1.
<mgrwt>
<rscale>  1 0.30000000E+03</rscale>
<asrwt>0</asrwt>
<pdfrwt beam="1">  1        1 0.16405600E+00 0.30000000E+03</pdfrwt>
<pdfrwt beam="2">0</pdfrwt>
<totfact> 0.15280124E+01</totfact>
</mgrwt>
</event>
<event>
 6    1  0.1901260E-004  0.3000000E+03  0.7818608E-02  0.1093470E+00
          1   -1    0    0  502    0  0.00000000000E+00  0.00000000000E+00  0.30622398509E+02  0.30622398509E+02  0.00000000000E+00 0.  1.
         13   -1    0    0    0    0 -0.00000000000E+00 -0.00000000000E+00 -0.10000000000E+04  0.10000000000E+04  0.00000000000E+00 0.  1.
    9000005    2    1    2  501    0 -0.57701355513E+01  0.95671081681E+01 -0.96563059375E+03  0.10188383377E+04  0.32475266078E+03 0.  0.
         13    1    3    3    0    0 -0.11168251692E+03 -0.78765444816E+02 -0.75366793592E+03  0.76595844373E+03  0.00000000000E+00 0.  1.
          3    1    3    3  501    0  0.10591238137E+03  0.88332552984E+02 -0.21196265783E+03  0.25287989394E+03  0.00000000000E+00 0.  1.
         21    1    1    2  502  501  0.57701355513E+01 -0.95671081681E+01 -0.37470077408E+01  0.11784060845E+02  0.00000000000E+00 0. -1.
<mgrwt>
<rscale>  1 0.30000000E+03</rscale>
<asrwt>0</asrwt>
<pdfrwt beam="1">  1        1 0.11135441E+00 0.30000000E+03</pdfrwt>
<pdfrwt beam="2">0</pdfrwt>
<totfact> 0.29164583E+01</totfact>
</mgrwt>
</event>
<event>
 6    1  0.1901260E-004  0.3000000E+03  0.7818608E-02  0.1093470E+00
          1   -1    0    0  502    0  0.00000000000E+00  0.00000000000E+00  0.30269724850E+02  0.30269724850E+02  0.00000000000E+00 0.  1.
         13   -1    0    0    0    0 -0.00000000000E+00 -0.00000000000E+00 -0.10000000000E+04  0.10000000000E+04  0.00000000000E+00 0.  1.
    9000005    2    1    2  501    0 -0.27470841139E+01 -0.93070576387E+01 -0.96331485072E+03  0.10186367775E+04  0.33098521885E+03 0.  0.
         13    1    3    3    0    0  0.33742504246E+02  0.56214649724E+02 -0.93679835765E+03  0.93908988192E+03  0.00000000000E+00 0.  1.
          1    1    3    3  501    0 -0.36489588360E+02 -0.65521707363E+02 -0.26516493077E+02  0.79546895599E+02  0.00000000000E+00 0.  1.
         21    1    1    2  502  501  0.27470841139E+01  0.93070576387E+01 -0.64154244272E+01  0.11632947331E+02  0.00000000000E+00 0.  1.
<mgrwt>
<rscale>  1 0.30000000E+03</rscale>
<asrwt>0</asrwt>
<pdfrwt beam="1">  1        1 0.11007196E+00 0.30000000E+03</pdfrwt>
<pdfrwt beam="2">0</pdfrwt>
<totfact> 0.29680321E+01</totfact>
</mgrwt>
</event>
<event>
 6    1  0.1901260E-004  0.3000000E+03  0.7818608E-02  0.1093470E+00
          1   -1    0    0  502    0  0.00000000000E+00  0.00000000000E+00  0.29042229748E+02  0.29042229748E+02  0.00000000000E+00 0.  1.
         13   -1    0    0    0    0 -0.00000000000E+00 -0.00000000000E+00 -0.10000000000E+04  0.10000000000E+04  0.00000000000E+00 0.  1.
    9000005    2    1    2  501    0 -0.12471109218E+01 -0.90723252790E+01 -0.94644971692E+03  0.10028791441E+04  0.33153529024E+03 0.  0.
         13    1    3    3    0    0 -0.15851964007E+03  0.43955450897E+02 -0.51355762138E+03  0.53926059418E+03  0.00000000000E+00 0.  1.
          1    1    3    3  501    0  0.15727252915E+03 -0.53027776176E+02 -0.43289209554E+03  0.46361854994E+03  0.00000000000E+00 0.  1.
         21    1    1    2  502  501  0.12471109218E+01  0.90723252790E+01 -0.24508053331E+02  0.26163085630E+02  0.00000000000E+00 0.  1.
<mgrwt>
<rscale>  1 0.30000000E+03</rscale>
<asrwt>0</asrwt>
<pdfrwt beam="1">  1        1 0.10560833E+00 0.30000000E+03</pdfrwt>
<pdfrwt beam="2">0</pdfrwt>
<totfact> 0.31580337E+01</totfact>
</mgrwt>
</event>
<event>
 6    1  0.1901260E-004  0.3000000E+03  0.7818608E-02  0.1093470E+00
          1   -1    0    0  502    0  0.00000000000E+00  0.00000000000E+00  0.32678882892E+02  0.32678882892E+02  0.00000000000E+00 0.  1.
         13   -1    0    0    0    0 -0.00000000000E+00 -0.00000000000E+00 -0.10000000000E+04  0.10000000000E+04  0.00000000000E+00 0.  1.
    9000005    2    1    2  501    0 -0.15338377409E+02 -0.70547706265E+01 -0.96173537408E+03  0.10148958535E+04  0.32371843943E+03 0.  0.
         13    1    3    3    0    0 -0.13196747770E+03  0.12026847672E+02 -0.81869784684E+03  0.82935289513E+03  0.00000000000E+00 0.  1.
          3    1    3    3  501    0  0.11662910030E+03 -0.19081618298E+02 -0.14303752724E+03  0.18554295835E+03  0.00000000000E+00 0.  1.
         21    1    1    2  502  501  0.15338377409E+02  0.70547706265E+01 -0.55857430259E+01  0.17783029418E+02  0.00000000000E+00 0.  1.
<mgrwt>
<rscale>  1 0.30000000E+03</rscale>
<asrwt>0</asrwt>
<pdfrwt beam="1">  1        1 0.11883255E+00 0.30000000E+03</pdfrwt>
<pdfrwt beam="2">0</pdfrwt>
<totfact> 0.26395215E+01</totfact>
</mgrwt>
</event>
<event>
 6    1  0.1901260E-004  0.3000000E+03  0.7818608E-02  0.1093470E+00
          1   -1    0    0  502    0  0.00000000000E+00  0.00000000000E+00  0.35658378297E+02  0.35658378297E+02  0.00000000000E+00 0.  1.
         13   -1    0    0    0    0 -0.00000000000E+00 -0.00000000000E+00 -0.10000000000E+04  0.10000000000E+04  0.00000000000E+00 0.  1.
    9000005    2    1    2  501    0 -0.12646281068E+01  0.22502175213E+02 -0.96079788868E+03  0.10128437949E+04  0.31970615059E+03 0.  0.
         13    1    3    3    0    0  0.91985172640E+02 -0.76155167332E+02 -0.76693157680E+03  0.77617325707E+03  0.00000000000E+00 0.  1.
          1    1    3    3  501    0 -0.93249800746E+02  0.98657342544E+02 -0.19386631189E+03  0.23667053780E+03  0.00000000000E+00 0.  1.
         21    1    1    2  502  501  0.12646281068E+01 -0.22502175213E+02 -0.35437330201E+01  0.22814583434E+02  0.00000000000E+00 0. -1.
<mgrwt>
<rscale>  1 0.30000000E+03</rscale>
<asrwt>0</asrwt>
<pdfrwt beam="1">  1        1 0.12966710E+00 0.30000000E+03</pdfrwt>
<pdfrwt beam="2">0</pdfrwt>
<totfact> 0.22975530E+01</totfact>
</mgrwt>
</event>
<event>
 6    1  0.1901260E-004  0.3000000E+03  0.7818608E-02  0.1093470E+00
          1   -1    0    0  502    0  0.00000000000E+00  0.00000000000E+00  0.31639220796E+02  0.31639220796E+02  0.00000000000E+00 0.  1.
         13   -1    0    0    0    0 -0.00000000000E+00 -0.00000000000E+00 -0.10000000000E+04  0.10000000000E+04  0.00000000000E+00 0.  1.
    9000005    2    1    2  501    0 -0.13728731989E+02  0.19543696615E+02 -0.92807626401E+03  0.98480679267E+03  0.32855506832E+03 0.  0.
         13    1    3    3    0    0  0.13063066075E+03  0.21573742168E+02 -0.71672494200E+03  0.72885145150E+03  0.00000000000E+00 0.  1.
          1    1    3    3  501    0 -0.14435939274E+03 -0.20300455527E+01 -0.21135132201E+03  0.25595534117E+03  0.00000000000E+00 0.  1.
         21    1    1    2  502  501  0.13728731989E+02 -0.19543696615E+02 -0.40284515194E+02  0.46832428123E+02  0.00000000000E+00 0.  1.
<mgrwt>
<rscale>  1 0.30000000E+03</rscale>
<asrwt>0</asrwt>
<pdfrwt beam="1">  1        1 0.11505195E+00 0.30000000E+03</pdfrwt>
<pdfrwt beam="2">0</pdfrwt>
<totfact> 0.27746892E+01</totfact>
</mgrwt>
</event>
<event>
 6    1  0.1901260E-004  0.3000000E+03  0.7818608E-02  0.1093470E+00
          1   -1    0    0  502    0  0.00000000000E+00  0.00000000000E+00  0.32850286270E+02  0.32850286270E+02  0.00000000000E+00 0.  1.
         13   -1    0    0    0    0 -0.00000000000E+00 -0.00000000000E+00 -0.10000000000E+04  0.10000000000E+04  0.00000000000E+00 0.  1.
    9000005    2    1    2  501    0  0.28182829181E+02 -0.26473147715E+02 -0.87109322226E+03  0.92930344198E+03  0.32141310799E+03 0.  0.
         13    1    3    3    0    0  0.67139045129E+02  0.77913078005E+01 -0.12001839221E+02  0.68646922748E+02  0.00000000000E+00 0.  1.
          1    1    3    3  501    0 -0.38956215948E+02 -0.34264455515E+02 -0.85909138304E+03  0.86065651923E+03  0.00000000000E+00 0.  1.
         21    1    1    2  502  501 -0.28182829181E+02  0.26473147715E+02 -0.96056491465E+02  0.10354684429E+03  0.00000000000E+00 0.  1.
<mgrwt>
<rscale>  1 0.30000000E+03</rscale>
<asrwt>0</asrwt>
<pdfrwt beam="1">  1        1 0.11945584E+00 0.30000000E+03</pdfrwt>
<pdfrwt beam="2">0</pdfrwt>
<totfact> 0.26181071E+01</totfact>
</mgrwt>
</event>
<event>
 6    1  0.1901260E-004  0.3000000E+03  0.7818608E-02  0.1093470E+00
          1   -1    0    0  502    0  0.00000000000E+00  0.00000000000E+00  0.35305641700E+02  0.35305641700E+02  0.00000000000E+00 0.  1.
         13   -1    0    0    0    0 -0.00000000000E+00 -0.00000000000E+00 -0.10000000000E+04  0.10000000000E+04  0.00000000000E+00 0.  1.
    9000005    2    1    2  501    0 -0.26469077691E+02 -0.20153889424E+02 -0.92756892867E+03  0.98545497613E+03  0.33110512109E+03 0.  0.
         13    1    3    3    0    0 -0.25725180367E+02 -0.98922793353E+02 -0.69098085294E+02  0.12337766954E+03  0.00000000000E+00 0.  1.
          3    1    3    3  501    0 -0.74389732441E+00  0.78768903929E+02 -0.85847084338E+03  0.86207730659E+03  0.00000000000E+00 0.  1.
         21    1    1    2  502  501  0.26469077691E+02  0.20153889424E+02 -0.37125429629E+02  0.49850665571E+02  0.00000000000E+00 0. -1.
<mgrwt>
<rscale>  1 0.30000000E+03</rscale>
<asrwt>0</asrwt>
<pdfrwt beam="1">  1        1 0.12838442E+00 0.30000000E+03</pdfrwt>
<pdfrwt beam="2">0</pdfrwt>
<totfact> 0.23349357E+01</totfact>
</mgrwt>
</event>
<event>
 6    1  0.1901260E-004  0.3000000E+03  0.7818608E-02  0.1093470E+00
          1   -1    0    0  502    0  0.00000000000E+00  0.00000000000E+00  0.52207805514E+02  0.52207805514E+02  0.00000000000E+00 0.  1.
         13   -1    0    0    0    0 -0.00000000000E+00 -0.00000000000E+00 -0.10000000000E+04  0.10000000000E+04  0.00000000000E+00 0.  1.
    9000005    2    1    2  501    0 -0.14341242747E+02  0.30964344113E+01 -0.97120413243E+03  0.10245785097E+04  0.32604968414E+03 0.  0.
         13    1    3    3    0    0  0.59826289836E+02 -0.14243931825E+03 -0.35638523017E+03  0.38843091615E+03  0.00000000000E+00 0.  1.
          1    1    3    3  501    0 -0.74167532583E+02  0.14553575266E+03 -0.61481890226E+03  0.63614759354E+03  0.00000000000E+00 0.  1.
         21    1    1    2  502  501  0.14341242747E+02 -0.30964344113E+01  0.23411937941E+02  0.27629295825E+02  0.00000000000E+00 0.  1.
<mgrwt>
<rscale>  1 0.30000000E+03</rscale>
<asrwt>0</asrwt>
<pdfrwt beam="1">  1        1 0.18984697E+00 0.30000000E+03</pdfrwt>
<pdfrwt beam="2">0</pdfrwt>
<totfact> 0.11453344E+01</totfact>
</mgrwt>
</event>
<event>
 6    1  0.1901260E-004  0.3000000E+03  0.7818608E-02  0.1093470E+00
          1   -1    0    0  502    0  0.00000000000E+00  0.00000000000E+00  0.82761083920E+02  0.82761083920E+02  0.00000000000E+00 0.  1.
         13   -1    0    0    0    0 -0.00000000000E+00 -0.00000000000E+00 -0.10000000000E+04  0.10000000000E+04  0.00000000000E+00 0.  1.
    9000005    2    1    2  501    0 -0.18652823849E+02  0.73857787006E+02 -0.94668733582E+03  0.10010903427E+04  0.31648390478E+03 0.  0.
         13    1    3    3    0    0 -0.13769818190E+03 -0.24417884233E+02 -0.24028671650E+03  0.27801929518E+03  0.00000000000E+00 0.  1.
          3    1    3    3  501    0  0.11904535805E+03  0.98275671238E+02 -0.70640061933E+03  0.72307104756E+03  0.00000000000E+00 0.  1.
         21    1    1    2  502  501  0.18652823849E+02 -0.73857787006E+02  0.29448419745E+02  0.81670741177E+02  0.00000000000E+00 0.  1.
<mgrwt>
<rscale>  1 0.30000000E+03</rscale>
<asrwt>0</asrwt>
<pdfrwt beam="1">  1        1 0.30095003E+00 0.30000000E+03</pdfrwt>
<pdfrwt beam="2">0</pdfrwt>
<totfact> 0.34385084E+00</totfact>
</mgrwt>
</event>
<event>
 6    1  0.1901260E-004  0.3000000E+03  0.7818608E-02  0.1093470E+00
          1   -1    0    0  502    0  0.00000000000E+00  0.00000000000E+00  0.28676653055E+02  0.28676653055E+02  0.00000000000E+00 0.  1.
         13   -1    0    0    0    0 -0.00000000000E+00 -0.00000000000E+00 -0.10000000000E+04  0.10000000000E+04  0.00000000000E+00 0.  1.
    9000005    2    1    2  501    0  0.10642467224E+02  0.82740805699E+00 -0.94451890296E+03  0.99982487789E+03  0.32774972416E+03 0.  0.
         13    1    3    3    0    0  0.26806382303E+02 -0.12113561477E+03 -0.14472898371E+03  0.19062764234E+03  0.00000000000E+00 0.  1.
          1    1    3    3  501    0 -0.16163915079E+02  0.12196302283E+03 -0.79978991925E+03  0.80919723555E+03  0.00000000000E+00 0.  1.
         21    1    1    2  502  501 -0.10642467224E+02 -0.82740805699E+00 -0.26804443988E+02  0.28851775165E+02  0.00000000000E+00 0. -1.
<mgrwt>
<rscale>  1 0.30000000E+03</rscale>
<asrwt>0</asrwt>
<pdfrwt beam="1">  1        1 0.10427896E+00 0.30000000E+03</pdfrwt>
<pdfrwt beam="2">0</pdfrwt>
<totfact> 0.32180010E+01</totfact>
</mgrwt>
</event>
<event>
 6    1  0.1901260E-004  0.3000000E+03  0.7818608E-02  0.1093470E+00
          1   -1    0    0  502    0  0.00000000000E+00  0.00000000000E+00  0.14471535715E+03  0.14471535715E+03  0.00000000000E+00 0.  1.
         13   -1    0    0    0    0 -0.00000000000E+00 -0.00000000000E+00 -0.10000000000E+04  0.10000000000E+04  0.00000000000E+00 0.  1.
    9000005    2    1    2  501    0  0.19823652257E+03 -0.14979679672E+02 -0.86231459847E+03  0.94578941625E+03  0.33377993270E+03 0.  0.
         13    1    3    3    0    0 -0.40829077930E+02  0.10744773457E+03 -0.19360380200E+03  0.22515430580E+03  0.00000000000E+00 0.  1.
          3    1    3    3  501    0  0.23906560050E+03 -0.12242741425E+03 -0.66871079647E+03  0.72063511045E+03  0.00000000000E+00 0.  1.
         21    1    1    2  502  501 -0.19823652257E+03  0.14979679672E+02  0.70299556216E+01  0.19892594090E+03  0.00000000000E+00 0.  1.
<mgrwt>
<rscale>  1 0.30000000E+03</rscale>
<asrwt>0</asrwt>
<pdfrwt beam="1">  1        1 0.52623877E+00 0.30000000E+03</pdfrwt>
<pdfrwt beam="2">0</pdfrwt>
<totfact> 0.14587762E-01</totfact>
</mgrwt>
</event>
<event>
 6    1  0.1901260E-004  0.3000000E+03  0.7818608E-02  0.1093470E+00
          1   -1    0    0  502    0  0.00000000000E+00  0.00000000000E+00  0.35993777502E+02  0.35993777502E+02  0.00000000000E+00 0.  1.
         13   -1    0    0    0    0 -0.00000000000E+00 -0.00000000000E+00 -0.10000000000E+04  0.10000000000E+04  0.00000000000E+00 0.  1.
    9000005    2    1    2  501    0 -0.99368633509E+00  0.12157979929E+02 -0.96801467549E+03  0.10231535445E+04  0.33112227311E+03 0.  0.
         13    1    3    3    0    0  0.10764122363E+03 -0.10098558523E+03 -0.26976080676E+03  0.30749896636E+03  0.00000000000E+00 0.  1.
          3    1    3    3  501    0 -0.10863490997E+03  0.11314356516E+03 -0.69825386873E+03  0.71565457813E+03  0.00000000000E+00 0.  1.
         21    1    1    2  502  501  0.99368633509E+00 -0.12157979929E+02  0.40084529888E+01  0.12840233014E+02  0.00000000000E+00 0.  1.
<mgrwt>
<rscale>  1 0.30000000E+03</rscale>
<asrwt>0</asrwt>
<pdfrwt beam="1">  1        1 0.13088674E+00 0.30000000E+03</pdfrwt>
<pdfrwt beam="2">0</pdfrwt>
<totfact> 0.22627248E+01</totfact>
</mgrwt>
</event>
<event>
 6    1  0.1901260E-004  0.3000000E+03  0.7818608E-02  0.1093470E+00
          3   -1    0    0  502    0  0.00000000000E+00  0.00000000000E+00  0.43868253705E+02  0.43868253705E+02  0.00000000000E+00 0.  1.
         13   -1    0    0    0    0 -0.00000000000E+00 -0.00000000000E+00 -0.10000000000E+04  0.10000000000E+04  0.00000000000E+00 0.  1.
    9000005    2    1    2  501    0 -0.17360438063E+02 -0.57929332581E+01 -0.95096916055E+03  0.10248525976E+04  0.38163537521E+03 0.  0.
         13    1    3    3    0    0  0.12981243441E+03  0.49001965734E+01 -0.81143110066E+03  0.82176378064E+03  0.00000000000E+00 0.  1.
          1    1    3    3  501    0 -0.14717287247E+03 -0.10693129831E+02 -0.13953805988E+03  0.20308881696E+03  0.00000000000E+00 0.  1.
         21    1    1    2  502  501  0.17360438063E+02  0.57929332581E+01 -0.51625857489E+01  0.19015656105E+02  0.00000000000E+00 0.  1.
<mgrwt>
<rscale>  1 0.30000000E+03</rscale>
<asrwt>0</asrwt>
<pdfrwt beam="1">  1        3 0.15952126E+00 0.30000000E+03</pdfrwt>
<pdfrwt beam="2">0</pdfrwt>
<totfact> 0.72012650E-01</totfact>
</mgrwt>
</event>
<event>
 6    1  0.1901260E-004  0.3000000E+03  0.7818608E-02  0.1093470E+00
          1   -1    0    0  502    0  0.00000000000E+00  0.00000000000E+00  0.28911072076E+02  0.28911072076E+02  0.00000000000E+00 0.  1.
         13   -1    0    0    0    0 -0.00000000000E+00 -0.00000000000E+00 -0.10000000000E+04  0.10000000000E+04  0.00000000000E+00 0.  1.
    9000005    2    1    2  501    0  0.11023614580E+02  0.78537951044E+01 -0.90819646384E+03  0.96457862136E+03  0.32466582464E+03 0.  0.
         13    1    3    3    0    0  0.88136892612E+02 -0.74899951023E+02 -0.79909831720E+03  0.80742568392E+03  0.00000000000E+00 0.  1.
          3    1    3    3  501    0 -0.77113278032E+02  0.82753746127E+02 -0.10909814664E+03  0.15715293744E+03  0.00000000000E+00 0.  1.
         21    1    1    2  502  501 -0.11023614580E+02 -0.78537951044E+01 -0.62892464084E+02  0.64332450711E+02  0.00000000000E+00 0. -1.
<mgrwt>
<rscale>  1 0.30000000E+03</rscale>
<asrwt>0</asrwt>
<pdfrwt beam="1">  1        1 0.10513139E+00 0.30000000E+03</pdfrwt>
<pdfrwt beam="2">0</pdfrwt>
<totfact> 0.31793607E+01</totfact>
</mgrwt>
</event>
<event>
 6    1  0.1901260E-004  0.3000000E+03  0.7818608E-02  0.1093470E+00
          1   -1    0    0  502    0  0.00000000000E+00  0.00000000000E+00  0.31900196528E+02  0.31900196528E+02  0.00000000000E+00 0.  1.
         13   -1    0    0    0    0 -0.00000000000E+00 -0.00000000000E+00 -0.10000000000E+04  0.10000000000E+04  0.00000000000E+00 0.  1.
    9000005    2    1    2  501    0  0.14250899475E+01  0.11134668807E+02 -0.96489802932E+03  0.10202270184E+04  0.33122341445E+03 0.  0.
         13    1    3    3    0    0  0.61860425336E+02 -0.14162807369E+03 -0.60797982278E+03  0.62731546162E+03  0.00000000000E+00 0.  1.
          3    1    3    3  501    0 -0.60435335389E+02  0.15276274250E+03 -0.35691820654E+03  0.39291155674E+03  0.00000000000E+00 0.  1.
         21    1    1    2  502  501 -0.14250899475E+01 -0.11134668807E+02 -0.32017741530E+01  0.11673178167E+02  0.00000000000E+00 0.  1.
<mgrwt>
<rscale>  1 0.30000000E+03</rscale>
<asrwt>0</asrwt>
<pdfrwt beam="1">  1        1 0.11600096E+00 0.30000000E+03</pdfrwt>
<pdfrwt beam="2">0</pdfrwt>
<totfact> 0.27398759E+01</totfact>
</mgrwt>
</event>
<event>
 6    1  0.1901260E-004  0.3000000E+03  0.7818608E-02  0.1093470E+00
          1   -1    0    0  502    0  0.00000000000E+00  0.00000000000E+00  0.46775305648E+02  0.46775305648E+02  0.00000000000E+00 0.  1.
         13   -1    0    0    0    0 -0.00000000000E+00 -0.00000000000E+00 -0.10000000000E+04  0.10000000000E+04  0.00000000000E+00 0.  1.
    9000005    2    1    2  501    0 -0.23412726304E+02  0.74252796830E+01 -0.96854683039E+03  0.10178260676E+04  0.31190327136E+03 0.  0.
         13    1    3    3    0    0 -0.11466020102E+03 -0.10767691590E+03 -0.61899976934E+03  0.63867205540E+03  0.00000000000E+00 0.  1.
          1    1    3    3  501    0  0.91247474714E+02  0.11510219558E+03 -0.34954706105E+03  0.37915401219E+03  0.00000000000E+00 0.  1.
         21    1    1    2  502  501  0.23412726304E+02 -0.74252796830E+01  0.15322136036E+02  0.28949238056E+02  0.00000000000E+00 0.  1.
<mgrwt>
<rscale>  1 0.30000000E+03</rscale>
<asrwt>0</asrwt>
<pdfrwt beam="1">  1        1 0.17009238E+00 0.30000000E+03</pdfrwt>
<pdfrwt beam="2">0</pdfrwt>
<totfact> 0.14272349E+01</totfact>
</mgrwt>
</event>
<event>
 6    1  0.1901260E-004  0.3000000E+03  0.7818608E-02  0.1093470E+00
          1   -1    0    0  502    0  0.00000000000E+00  0.00000000000E+00  0.31739310190E+02  0.31739310190E+02  0.00000000000E+00 0.  1.
         13   -1    0    0    0    0 -0.00000000000E+00 -0.00000000000E+00 -0.10000000000E+04  0.10000000000E+04  0.00000000000E+00 0.  1.
    9000005    2    1    2  501    0  0.17423089868E+02  0.15834139168E+02 -0.94154045888E+03  0.99612674548E+03  0.32436980955E+03 0.  0.
         13    1    3    3    0    0  0.12855186667E+03  0.46447718761E+02 -0.18053869495E+03  0.22644468061E+03  0.00000000000E+00 0.  1.
          1    1    3    3  501    0 -0.11112877680E+03 -0.30613579592E+02 -0.76100176392E+03  0.76968206487E+03  0.00000000000E+00 0.  1.
         21    1    1    2  502  501 -0.17423089868E+02 -0.15834139168E+02 -0.26720230935E+02  0.35612564706E+02  0.00000000000E+00 0.  1.
<mgrwt>
<rscale>  1 0.30000000E+03</rscale>
<asrwt>0</asrwt>
<pdfrwt beam="1">  1        1 0.11541592E+00 0.30000000E+03</pdfrwt>
<pdfrwt beam="2">0</pdfrwt>
<totfact> 0.27612649E+01</totfact>
</mgrwt>
</event>
<event>
 6    1  0.1901260E-004  0.3000000E+03  0.7818608E-02  0.1093470E+00
          1   -1    0    0  502    0  0.00000000000E+00  0.00000000000E+00  0.33934622338E+02  0.33934622338E+02  0.00000000000E+00 0.  1.
         13   -1    0    0    0    0 -0.00000000000E+00 -0.00000000000E+00 -0.10000000000E+04  0.10000000000E+04  0.00000000000E+00 0.  1.
    9000005    2    1    2  501    0 -0.67533337805E+01 -0.16785973098E+02 -0.95764178765E+03  0.10139763339E+04  0.33278046183E+03 0.  0.
         13    1    3    3    0    0  0.38484131686E+02  0.76818358693E+02 -0.88009211450E+03  0.88427609864E+03  0.00000000000E+00 0.  1.
          3    1    3    3  501    0 -0.45237465467E+02 -0.93604331791E+02 -0.77549673154E+02  0.12970023523E+03  0.00000000000E+00 0.  1.
         21    1    1    2  502  501  0.67533337805E+01  0.16785973098E+02 -0.84235900089E+01  0.19958288469E+02  0.00000000000E+00 0.  1.
<mgrwt>
<rscale>  1 0.30000000E+03</rscale>
<asrwt>0</asrwt>
<pdfrwt beam="1">  1        1 0.12339889E+00 0.30000000E+03</pdfrwt>
<pdfrwt beam="2">0</pdfrwt>
<totfact> 0.24878624E+01</totfact>
</mgrwt>
</event>
<event>
 6    1  0.1901260E-004  0.3000000E+03  0.7818608E-02  0.1093470E+00
          1   -1    0    0  502    0  0.00000000000E+00  0.00000000000E+00  0.29128575534E+02  0.29128575534E+02  0.00000000000E+00 0.  1.
         13   -1    0    0    0    0 -0.00000000000E+00 -0.00000000000E+00 -0.10000000000E+04  0.10000000000E+04  0.00000000000E+00 0.  1.
    9000005    2    1    2  501    0 -0.26765825405E+01  0.14016523341E+02 -0.95267527302E+03  0.10060044118E+04  0.32287934857E+03 0.  0.
         13    1    3    3    0    0  0.10473321118E+03 -0.62461071109E+02 -0.15358667257E+03  0.19611042022E+03  0.00000000000E+00 0.  1.
          1    1    3    3  501    0 -0.10740979372E+03  0.76477594450E+02 -0.79908860045E+03  0.80989399159E+03  0.00000000000E+00 0.  1.
         21    1    1    2  502  501  0.26765825405E+01 -0.14016523341E+02 -0.18196151446E+02  0.23124163728E+02  0.00000000000E+00 0.  1.
<mgrwt>
<rscale>  1 0.30000000E+03</rscale>
<asrwt>0</asrwt>
<pdfrwt beam="1">  1        1 0.10592232E+00 0.30000000E+03</pdfrwt>
<pdfrwt beam="2">0</pdfrwt>
<totfact> 0.31441059E+01</totfact>
</mgrwt>
</event>
<event>
 6    1  0.1901260E-004  0.3000000E+03  0.7818608E-02  0.1093470E+00
          1   -1    0    0  502    0  0.00000000000E+00  0.00000000000E+00  0.37885432694E+02  0.37885432694E+02  0.00000000000E+00 0.  1.
         13   -1    0    0    0    0 -0.00000000000E+00 -0.00000000000E+00 -0.10000000000E+04  0.10000000000E+04  0.00000000000E+00 0.  1.
    9000005    2    1    2  501    0  0.17145286101E+02 -0.48675581203E+01 -0.96445583680E+03  0.10199094626E+04  0.33124401401E+03 0.  0.
         13    1    3    3    0    0  0.43666579547E+02  0.50590571143E+02 -0.95544471643E+03  0.95777908841E+03  0.00000000000E+00 0.  1.
          3    1    3    3  501    0 -0.26521293446E+02 -0.55458129263E+02 -0.90111203790E+01  0.62130374197E+02  0.00000000000E+00 0.  1.
         21    1    1    2  502  501 -0.17145286101E+02  0.48675581203E+01  0.23412694993E+01  0.17975970082E+02  0.00000000000E+00 0.  1.
<mgrwt>
<rscale>  1 0.30000000E+03</rscale>
<asrwt>0</asrwt>
<pdfrwt beam="1">  1        1 0.13776550E+00 0.30000000E+03</pdfrwt>
<pdfrwt beam="2">0</pdfrwt>
<totfact> 0.20787614E+01</totfact>
</mgrwt>
</event>
<event>
 6    1  0.1901260E-004  0.3000000E+03  0.7818608E-02  0.1093470E+00
          1   -1    0    0  502    0  0.00000000000E+00  0.00000000000E+00  0.85659652980E+02  0.85659652980E+02  0.00000000000E+00 0.  1.
         13   -1    0    0    0    0 -0.00000000000E+00 -0.00000000000E+00 -0.10000000000E+04  0.10000000000E+04  0.00000000000E+00 0.  1.
    9000005    2    1    2  501    0 -0.10585641109E+03 -0.15861538397E+03 -0.71953508429E+03  0.81305460866E+03  0.32705143225E+03 0.  0.
         13    1    3    3    0    0 -0.20446575588E+03 -0.16981041238E+03 -0.60918906833E+03  0.66464512520E+03  0.00000000000E+00 0.  1.
          3    1    3    3  501    0  0.98609344797E+02  0.11195028402E+02 -0.11034601596E+03  0.14840948346E+03  0.00000000000E+00 0.  1.
         21    1    1    2  502  501  0.10585641109E+03  0.15861538397E+03 -0.19480526273E+03  0.27260504432E+03  0.00000000000E+00 0.  1.
<mgrwt>
<rscale>  1 0.30000000E+03</rscale>
<asrwt>0</asrwt>
<pdfrwt beam="1">  1        1 0.31149030E+00 0.30000000E+03</pdfrwt>
<pdfrwt beam="2">0</pdfrwt>
<totfact> 0.30618823E+00</totfact>
</mgrwt>
</event>
<event>
 6    1  0.1901260E-004  0.3000000E+03  0.7818608E-02  0.1093470E+00
          1   -1    0    0  502    0  0.00000000000E+00  0.00000000000E+00  0.56792133199E+02  0.56792133199E+02  0.00000000000E+00 0.  1.
         13   -1    0    0    0    0 -0.00000000000E+00 -0.00000000000E+00 -0.10000000000E+04  0.10000000000E+04  0.00000000000E+00 0.  1.
    9000005    2    1    2  501    0 -0.16845974732E+02 -0.11041816563E+02 -0.97045888920E+03  0.10229051623E+04  0.32270544892E+03 0.  0.
         13    1    3    3    0    0  0.10080866968E+03  0.93679694044E+02 -0.24944947511E+03  0.28489175768E+03  0.00000000000E+00 0.  1.
          1    1    3    3  501    0 -0.11765464441E+03 -0.10472151061E+03 -0.72100941409E+03  0.73801340458E+03  0.00000000000E+00 0.  1.
         21    1    1    2  502  501  0.16845974732E+02  0.11041816563E+02  0.27251022401E+02  0.33886970942E+02  0.00000000000E+00 0. -1.
<mgrwt>
<rscale>  1 0.30000000E+03</rscale>
<asrwt>0</asrwt>
<pdfrwt beam="1">  1        1 0.20651728E+00 0.30000000E+03</pdfrwt>
<pdfrwt beam="2">0</pdfrwt>
<totfact> 0.95397133E+00</totfact>
</mgrwt>
</event>
<event>
 6    1  0.1901260E-004  0.3000000E+03  0.7818608E-02  0.1093470E+00
          1   -1    0    0  502    0  0.00000000000E+00  0.00000000000E+00  0.43249833800E+02  0.43249833800E+02  0.00000000000E+00 0.  1.
         13   -1    0    0    0    0 -0.00000000000E+00 -0.00000000000E+00 -0.10000000000E+04  0.10000000000E+04  0.00000000000E+00 0.  1.
    9000005    2    1    2  501    0  0.13785330009E+02 -0.16738437598E+01 -0.98713684679E+03  0.10098404424E+04  0.21247524032E+03 0.  0.
         13    1    3    3    0    0 -0.49585796226E+01 -0.93464949504E+01 -0.98940390039E+03  0.98946047045E+03  0.00000000000E+00 0.  1.
          3    1    3    3  501    0  0.18743909632E+02  0.76726511906E+01  0.22670536037E+01  0.20379971948E+02  0.00000000000E+00 0.  1.
         21    1    1    2  502  501 -0.13785330009E+02  0.16738437598E+01  0.30386680588E+02  0.33409391398E+02  0.00000000000E+00 0. -1.
<mgrwt>
<rscale>  1 0.30000000E+03</rscale>
<asrwt>0</asrwt>
<pdfrwt beam="1">  1        1 0.15727245E+00 0.30000000E+03</pdfrwt>
<pdfrwt beam="2">0</pdfrwt>
<totfact> 0.16511590E+01</totfact>
</mgrwt>
</event>
<event>
 6    1  0.1901260E-004  0.3000000E+03  0.7818608E-02  0.1093470E+00
          1   -1    0    0  502    0  0.00000000000E+00  0.00000000000E+00  0.39077358241E+02  0.39077358241E+02  0.00000000000E+00 0.  1.
         13   -1    0    0    0    0 -0.00000000000E+00 -0.00000000000E+00 -0.10000000000E+04  0.10000000000E+04  0.00000000000E+00 0.  1.
    9000005    2    1    2  501    0 -0.10335070818E+02 -0.45383800967E+02 -0.93828878579E+03  0.98732028612E+03  0.30372520270E+03 0.  0.
         13    1    3    3    0    0 -0.12836260440E+03 -0.92738873699E+02 -0.69483129076E+03  0.71264856663E+03  0.00000000000E+00 0.  1.
          1    1    3    3  501    0  0.11802753358E+03  0.47355072733E+02 -0.24345749503E+03  0.27467171949E+03  0.00000000000E+00 0.  1.
         21    1    1    2  502  501  0.10335070818E+02  0.45383800967E+02 -0.22633855969E+02  0.51757072125E+02  0.00000000000E+00 0.  1.
<mgrwt>
<rscale>  1 0.30000000E+03</rscale>
<asrwt>0</asrwt>
<pdfrwt beam="1">  1        1 0.14209978E+00 0.30000000E+03</pdfrwt>
<pdfrwt beam="2">0</pdfrwt>
<totfact> 0.19727453E+01</totfact>
</mgrwt>
</event>
<event>
 6    1  0.1901260E-004  0.3000000E+03  0.7818608E-02  0.1093470E+00
          1   -1    0    0  502    0  0.00000000000E+00  0.00000000000E+00  0.44976473825E+02  0.44976473825E+02  0.00000000000E+00 0.  1.
         13   -1    0    0    0    0 -0.00000000000E+00 -0.00000000000E+00 -0.10000000000E+04  0.10000000000E+04  0.00000000000E+00 0.  1.
    9000005    2    1    2  501    0  0.31794646825E+02  0.13775470395E+02 -0.95967667648E+03  0.10100148526E+04  0.31296967254E+03 0.  0.
         13    1    3    3    0    0 -0.11562378040E+03 -0.74172332377E+02 -0.33221635246E+03  0.35949700740E+03  0.00000000000E+00 0.  1.
          3    1    3    3  501    0  0.14741842723E+03  0.87947802772E+02 -0.62746032402E+03  0.65051784520E+03  0.00000000000E+00 0.  1.
         21    1    1    2  502  501 -0.31794646825E+02 -0.13775470395E+02  0.46531503065E+01  0.34961621231E+02  0.00000000000E+00 0.  1.
<mgrwt>
<rscale>  1 0.30000000E+03</rscale>
<asrwt>0</asrwt>
<pdfrwt beam="1">  1        1 0.16355116E+00 0.30000000E+03</pdfrwt>
<pdfrwt beam="2">0</pdfrwt>
<totfact> 0.15368021E+01</totfact>
</mgrwt>
</event>
<event>
 6    1  0.1901260E-004  0.3000000E+03  0.7818608E-02  0.1093470E+00
          1   -1    0    0  502    0  0.00000000000E+00  0.00000000000E+00  0.32913594574E+02  0.32913594574E+02  0.00000000000E+00 0.  1.
         13   -1    0    0    0    0 -0.00000000000E+00 -0.00000000000E+00 -0.10000000000E+04  0.10000000000E+04  0.00000000000E+00 0.  1.
    9000005    2    1    2  501    0 -0.22128354829E+02 -0.30690655151E+01 -0.95193197780E+03  0.10059184112E+04  0.32434283761E+03 0.  0.
         13    1    3    3    0    0  0.12704816226E+03 -0.84399343963E+02 -0.38640413440E+03  0.41541863207E+03  0.00000000000E+00 0.  1.
          3    1    3    3  501    0 -0.14917651709E+03  0.81330278448E+02 -0.56552784340E+03  0.59049977909E+03  0.00000000000E+00 0.  1.
         21    1    1    2  502  501  0.22128354829E+02  0.30690655151E+01 -0.15154427624E+02  0.26995183407E+02  0.00000000000E+00 0.  1.
<mgrwt>
<rscale>  1 0.30000000E+03</rscale>
<asrwt>0</asrwt>
<pdfrwt beam="1">  1        1 0.11968605E+00 0.30000000E+03</pdfrwt>
<pdfrwt beam="2">0</pdfrwt>
<totfact> 0.26102568E+01</totfact>
</mgrwt>
</event>
<event>
 6    1  0.1901260E-004  0.3000000E+03  0.7818608E-02  0.1093470E+00
          1   -1    0    0  502    0  0.00000000000E+00  0.00000000000E+00  0.31341478590E+02  0.31341478590E+02  0.00000000000E+00 0.  1.
         13   -1    0    0    0    0 -0.00000000000E+00 -0.00000000000E+00 -0.10000000000E+04  0.10000000000E+04  0.00000000000E+00 0.  1.
    9000005    2    1    2  501    0 -0.16252104492E+01 -0.22533933801E+02 -0.94274251372E+03  0.99696039461E+03  0.32350604592E+03 0.  0.
         13    1    3    3    0    0 -0.51984898657E+02  0.13376293233E+03 -0.59982480768E+03  0.61675339614E+03  0.00000000000E+00 0.  1.
          3    1    3    3  501    0  0.50359688208E+02 -0.15629686613E+03 -0.34291770605E+03  0.38020699846E+03  0.00000000000E+00 0.  1.
         21    1    1    2  502  501  0.16252104492E+01  0.22533933801E+02 -0.25916007685E+02  0.34381083984E+02  0.00000000000E+00 0.  1.
<mgrwt>
<rscale>  1 0.30000000E+03</rscale>
<asrwt>0</asrwt>
<pdfrwt beam="1">  1        1 0.11396925E+00 0.30000000E+03</pdfrwt>
<pdfrwt beam="2">0</pdfrwt>
<totfact> 0.28151695E+01</totfact>
</mgrwt>
</event>
<event>
 6    1  0.1901260E-004  0.3000000E+03  0.7818608E-02  0.1093470E+00
          1   -1    0    0  502    0  0.00000000000E+00  0.00000000000E+00  0.43023146348E+02  0.43023146348E+02  0.00000000000E+00 0.  1.
         13   -1    0    0    0    0 -0.00000000000E+00 -0.00000000000E+00 -0.10000000000E+04  0.10000000000E+04  0.00000000000E+00 0.  1.
    9000005    2    1    2  501    0 -0.26378985134E+01  0.10547387132E+02 -0.91355885809E+03  0.99826459161E+03  0.40227378957E+03 0.  0.
         13    1    3    3    0    0 -0.33092547188E+02  0.15118013193E+03 -0.13151444313E+03  0.20309258411E+03  0.00000000000E+00 0.  1.
          3    1    3    3  501    0  0.30454648675E+02 -0.14063274480E+03 -0.78204441496E+03  0.79517200750E+03  0.00000000000E+00 0.  1.
         21    1    1    2  502  501  0.26378985134E+01 -0.10547387132E+02 -0.43417995558E+02  0.44758554737E+02  0.00000000000E+00 0. -1.
<mgrwt>
<rscale>  1 0.30000000E+03</rscale>
<asrwt>0</asrwt>
<pdfrwt beam="1">  1        1 0.15644813E+00 0.30000000E+03</pdfrwt>
<pdfrwt beam="2">0</pdfrwt>
<totfact> 0.16669020E+01</totfact>
</mgrwt>
</event>
<event>
 6    1  0.1901260E-004  0.3000000E+03  0.7818608E-02  0.1093470E+00
          1   -1    0    0  502    0  0.00000000000E+00  0.00000000000E+00  0.32035298586E+02  0.32035298586E+02  0.00000000000E+00 0.  1.
         13   -1    0    0    0    0 -0.00000000000E+00 -0.00000000000E+00 -0.10000000000E+04  0.10000000000E+04  0.00000000000E+00 0.  1.
    9000005    2    1    2  501    0 -0.12452501477E+02 -0.69149950388E+01 -0.96279006324E+03  0.10168807999E+04  0.32692349783E+03 0.  0.
         13    1    3    3    0    0 -0.78008209707E+02  0.44260855674E+01 -0.94471379521E+03  0.94793935769E+03  0.00000000000E+00 0.  1.
          3    1    3    3  501    0  0.65555708229E+02 -0.11341080606E+02 -0.18076268036E+02  0.68941442231E+02  0.00000000000E+00 0.  1.
         21    1    1    2  502  501  0.12452501477E+02  0.69149950388E+01 -0.51746381733E+01  0.15154498661E+02  0.00000000000E+00 0.  1.
<mgrwt>
<rscale>  1 0.30000000E+03</rscale>
<asrwt>0</asrwt>
<pdfrwt beam="1">  1        1 0.11649224E+00 0.30000000E+03</pdfrwt>
<pdfrwt beam="2">0</pdfrwt>
<totfact> 0.27220922E+01</totfact>
</mgrwt>
</event>
<event>
 6    1  0.1901260E-004  0.3000000E+03  0.7818608E-02  0.1093470E+00
          1   -1    0    0  502    0  0.00000000000E+00  0.00000000000E+00  0.38595720336E+02  0.38595720336E+02  0.00000000000E+00 0.  1.
         13   -1    0    0    0    0 -0.00000000000E+00 -0.00000000000E+00 -0.10000000000E+04  0.10000000000E+04  0.00000000000E+00 0.  1.
    9000005    2    1    2  501    0  0.43155502400E+01  0.14579110891E+02 -0.96935272068E+03  0.10214390259E+04  0.32165480282E+03 0.  0.
         13    1    3    3    0    0 -0.45196722129E+02 -0.47367026489E+01 -0.96718098877E+03  0.96824802870E+03  0.00000000000E+00 0.  1.
          1    1    3    3  501    0  0.49512272369E+02  0.19315813540E+02 -0.21717319096E+01  0.53190997240E+02  0.00000000000E+00 0.  1.
         21    1    1    2  502  501 -0.43155502400E+01 -0.14579110891E+02  0.79484410107E+01  0.17156694400E+02  0.00000000000E+00 0. -1.
<mgrwt>
<rscale>  1 0.30000000E+03</rscale>
<asrwt>0</asrwt>
<pdfrwt beam="1">  1        1 0.14034837E+00 0.30000000E+03</pdfrwt>
<pdfrwt beam="2">0</pdfrwt>
<totfact> 0.20147359E+01</totfact>
</mgrwt>
</event>
<event>
 6    1  0.1901260E-004  0.3000000E+03  0.7818608E-02  0.1093470E+00
          1   -1    0    0  502    0  0.00000000000E+00  0.00000000000E+00  0.29642117637E+02  0.29642117637E+02  0.00000000000E+00 0.  1.
         13   -1    0    0    0    0 -0.00000000000E+00 -0.00000000000E+00 -0.10000000000E+04  0.10000000000E+04  0.00000000000E+00 0.  1.
    9000005    2    1    2  501    0 -0.13762229067E+02  0.70648078589E+00 -0.95330865053E+03  0.10077201111E+04  0.32636259146E+03 0.  0.
         13    1    3    3    0    0  0.11548600594E+03  0.10737454017E+03 -0.41599805752E+03  0.44488278603E+03  0.00000000000E+00 0.  1.
          3    1    3    3  501    0 -0.12924823501E+03 -0.10666805938E+03 -0.53731059301E+03  0.56283732508E+03  0.00000000000E+00 0.  1.
         21    1    1    2  502  501  0.13762229067E+02 -0.70648078589E+00 -0.17049231837E+02  0.21922006528E+02  0.00000000000E+00 0. -1.
<mgrwt>
<rscale>  1 0.30000000E+03</rscale>
<asrwt>0</asrwt>
<pdfrwt beam="1">  1        1 0.10778975E+00 0.30000000E+03</pdfrwt>
<pdfrwt beam="2">0</pdfrwt>
<totfact> 0.30630689E+01</totfact>
</mgrwt>
</event>
<event>
 6    1  0.1901260E-004  0.3000000E+03  0.7818608E-02  0.1093470E+00
          1   -1    0    0  502    0  0.00000000000E+00  0.00000000000E+00  0.27806744010E+02  0.27806744010E+02  0.00000000000E+00 0.  1.
         13   -1    0    0    0    0 -0.00000000000E+00 -0.00000000000E+00 -0.10000000000E+04  0.10000000000E+04  0.00000000000E+00 0.  1.
    9000005    2    1    2  501    0 -0.59866971364E+01 -0.76724525966E+01 -0.96836687158E+03  0.10173497708E+04  0.31172335661E+03 0.  0.
         13    1    3    3    0    0 -0.25554886636E+02  0.10213663742E+02  0.16525387356E+02  0.32100772347E+02  0.00000000000E+00 0.  1.
          3    1    3    3  501    0  0.19568189500E+02 -0.17886116339E+02 -0.98489225894E+03  0.98524899844E+03  0.00000000000E+00 0.  1.
         21    1    1    2  502  501  0.59866971364E+01  0.76724525966E+01 -0.38263844056E+01  0.10456973227E+02  0.00000000000E+00 0. -1.
<mgrwt>
<rscale>  1 0.30000000E+03</rscale>
<asrwt>0</asrwt>
<pdfrwt beam="1">  1        1 0.10111565E+00 0.30000000E+03</pdfrwt>
<pdfrwt beam="2">0</pdfrwt>
<totfact> 0.33675271E+01</totfact>
</mgrwt>
</event>
<event>
 6    1  0.1901260E-004  0.3000000E+03  0.7818608E-02  0.1093470E+00
          1   -1    0    0  502    0  0.00000000000E+00  0.00000000000E+00  0.40343465972E+02  0.40343465972E+02  0.00000000000E+00 0.  1.
         13   -1    0    0    0    0 -0.00000000000E+00 -0.00000000000E+00 -0.10000000000E+04  0.10000000000E+04  0.00000000000E+00 0.  1.
    9000005    2    1    2  501    0 -0.21646591157E+01 -0.14345565104E+02 -0.97002535800E+03  0.10225110938E+04  0.32306231717E+03 0.  0.
         13    1    3    3    0    0 -0.14897347565E+03 -0.53431252018E+02 -0.63868470429E+03  0.65800163117E+03  0.00000000000E+00 0.  1.
          1    1    3    3  501    0  0.14680881653E+03  0.39085686914E+02 -0.33134065371E+03  0.36450946261E+03  0.00000000000E+00 0.  1.
         21    1    1    2  502  501  0.21646591157E+01  0.14345565104E+02  0.10368823967E+02  0.17832372184E+02  0.00000000000E+00 0.  1.
<mgrwt>
<rscale>  1 0.30000000E+03</rscale>
<asrwt>0</asrwt>
<pdfrwt beam="1">  1        1 0.14670382E+00 0.30000000E+03</pdfrwt>
<pdfrwt beam="2">0</pdfrwt>
<totfact> 0.18675245E+01</totfact>
</mgrwt>
</event>
<event>
 6    1  0.1901260E-004  0.3000000E+03  0.7818608E-02  0.1093470E+00
          1   -1    0    0  502    0  0.00000000000E+00  0.00000000000E+00  0.46478437378E+02  0.46478437378E+02  0.00000000000E+00 0.  1.
         13   -1    0    0    0    0 -0.00000000000E+00 -0.00000000000E+00 -0.10000000000E+04  0.10000000000E+04  0.00000000000E+00 0.  1.
    9000005    2    1    2  501    0  0.15793901303E+02 -0.67938779616E+00 -0.96703607175E+03  0.10256805807E+04  0.34148496399E+03 0.  0.
         13    1    3    3    0    0  0.54424369747E+02  0.39429697978E+02 -0.11091735651E+02  0.68115634804E+02  0.00000000000E+00 0.  1.
          1    1    3    3  501    0 -0.38630468443E+02 -0.40109085774E+02 -0.95594433610E+03  0.95756494588E+03  0.00000000000E+00 0.  1.
         21    1    1    2  502  501 -0.15793901303E+02  0.67938779616E+00  0.13514509129E+02  0.20797856696E+02  0.00000000000E+00 0. -1.
<mgrwt>
<rscale>  1 0.30000000E+03</rscale>
<asrwt>0</asrwt>
<pdfrwt beam="1">  1        1 0.16901286E+00 0.30000000E+03</pdfrwt>
<pdfrwt beam="2">0</pdfrwt>
<totfact> 0.14446908E+01</totfact>
</mgrwt>
</event>
<event>
 6    1  0.1901260E-004  0.3000000E+03  0.7818608E-02  0.1093470E+00
          1   -1    0    0  502    0  0.00000000000E+00  0.00000000000E+00  0.45287835029E+02  0.45287835029E+02  0.00000000000E+00 0.  1.
         13   -1    0    0    0    0 -0.00000000000E+00 -0.00000000000E+00 -0.10000000000E+04  0.10000000000E+04  0.00000000000E+00 0.  1.
    9000005    2    1    2  501    0 -0.39088850019E+02 -0.96044608149E+00 -0.95164879155E+03  0.10060673696E+04  0.32404825110E+03 0.  0.
         13    1    3    3    0    0 -0.17606365827E+03 -0.42724462990E+02 -0.47527067213E+03  0.50863150049E+03  0.00000000000E+00 0.  1.
          3    1    3    3  501    0  0.13697480826E+03  0.41764016909E+02 -0.47637811942E+03  0.49743586910E+03  0.00000000000E+00 0.  1.
         21    1    1    2  502  501  0.39088850019E+02  0.96044608149E+00 -0.30633734184E+01  0.39220465438E+02  0.00000000000E+00 0. -1.
<mgrwt>
<rscale>  1 0.30000000E+03</rscale>
<asrwt>0</asrwt>
<pdfrwt beam="1">  1        1 0.16468338E+00 0.30000000E+03</pdfrwt>
<pdfrwt beam="2">0</pdfrwt>
<totfact> 0.15171695E+01</totfact>
</mgrwt>
</event>
<event>
 6    1  0.1901260E-004  0.3000000E+03  0.7818608E-02  0.1093470E+00
          1   -1    0    0  502    0  0.00000000000E+00  0.00000000000E+00  0.29336389813E+02  0.29336389813E+02  0.00000000000E+00 0.  1.
         13   -1    0    0    0    0 -0.00000000000E+00 -0.00000000000E+00 -0.10000000000E+04  0.10000000000E+04  0.00000000000E+00 0.  1.
    9000005    2    1    2  501    0  0.22099140904E+02 -0.28864773720E+00 -0.92977796641E+03  0.98285960837E+03  0.31786394511E+03 0.  0.
         13    1    3    3    0    0 -0.12886779398E+03 -0.39901503550E+02 -0.63647291107E+03  0.65061263809E+03  0.00000000000E+00 0.  1.
          3    1    3    3  501    0  0.15096693489E+03  0.39612855813E+02 -0.29330505534E+03  0.33224697028E+03  0.00000000000E+00 0.  1.
         21    1    1    2  502  501 -0.22099140904E+02  0.28864773720E+00 -0.40885643773E+02  0.46476781439E+02  0.00000000000E+00 0. -1.
<mgrwt>
<rscale>  1 0.30000000E+03</rscale>
<asrwt>0</asrwt>
<pdfrwt beam="1">  1        1 0.10667801E+00 0.30000000E+03</pdfrwt>
<pdfrwt beam="2">0</pdfrwt>
<totfact> 0.31109459E+01</totfact>
</mgrwt>
</event>
<event>
 6    1  0.1901260E-004  0.3000000E+03  0.7818608E-02  0.1093470E+00
          1   -1    0    0  502    0  0.00000000000E+00  0.00000000000E+00  0.31120092348E+02  0.31120092348E+02  0.00000000000E+00 0.  1.
         13   -1    0    0    0    0 -0.00000000000E+00 -0.00000000000E+00 -0.10000000000E+04  0.10000000000E+04  0.00000000000E+00 0.  1.
    9000005    2    1    2  501    0  0.98123425562E+01 -0.45294906220E+01 -0.95912845723E+03  0.10165636801E+04  0.33668608512E+03 0.  0.
         13    1    3    3    0    0 -0.74036351255E+02 -0.12617771256E+03 -0.22976292169E+03  0.27238428119E+03  0.00000000000E+00 0.  1.
          1    1    3    3  501    0  0.83848693811E+02  0.12164822194E+03 -0.72936553554E+03  0.74417939892E+03  0.00000000000E+00 0.  1.
         21    1    1    2  502  501 -0.98123425562E+01  0.45294906220E+01 -0.97514504253E+01  0.14556412234E+02  0.00000000000E+00 0.  1.
<mgrwt>
<rscale>  1 0.30000000E+03</rscale>
<asrwt>0</asrwt>
<pdfrwt beam="1">  1        1 0.11316421E+00 0.30000000E+03</pdfrwt>
<pdfrwt beam="2">0</pdfrwt>
<totfact> 0.28458122E+01</totfact>
</mgrwt>
</event>
<event>
 6    1  0.1901260E-004  0.3000000E+03  0.7818608E-02  0.1093470E+00
          1   -1    0    0  502    0  0.00000000000E+00  0.00000000000E+00  0.32494319526E+02  0.32494319526E+02  0.00000000000E+00 0.  1.
         13   -1    0    0    0    0 -0.00000000000E+00 -0.00000000000E+00 -0.10000000000E+04  0.10000000000E+04  0.00000000000E+00 0.  1.
    9000005    2    1    2  501    0 -0.22248463620E+02  0.24538081992E+02 -0.92637857790E+03  0.97968759489E+03  0.31703848721E+03 0.  0.
         13    1    3    3    0    0 -0.49901372539E+02 -0.11058568632E+03 -0.15893760168E+03  0.19995124963E+03  0.00000000000E+00 0.  1.
          3    1    3    3  501    0  0.27652908919E+02  0.13512376831E+03 -0.76744097622E+03  0.77973634526E+03  0.00000000000E+00 0.  1.
         21    1    1    2  502  501  0.22248463620E+02 -0.24538081992E+02 -0.41127102570E+02  0.52806724638E+02  0.00000000000E+00 0.  1.
<mgrwt>
<rscale>  1 0.30000000E+03</rscale>
<asrwt>0</asrwt>
<pdfrwt beam="1">  1        1 0.11816141E+00 0.30000000E+03</pdfrwt>
<pdfrwt beam="2">0</pdfrwt>
<totfact> 0.26628464E+01</totfact>
</mgrwt>
</event>
<event>
 6    1  0.1901260E-004  0.3000000E+03  0.7818608E-02  0.1093470E+00
          1   -1    0    0  502    0  0.00000000000E+00  0.00000000000E+00  0.38653242311E+02  0.38653242311E+02  0.00000000000E+00 0.  1.
         13   -1    0    0    0    0 -0.00000000000E+00 -0.00000000000E+00 -0.10000000000E+04  0.10000000000E+04  0.00000000000E+00 0.  1.
    9000005    2    1    2  501    0 -0.98118725767E+01  0.31031346356E+01 -0.96956663244E+03  0.10254824933E+04  0.33383976256E+03 0.  0.
         13    1    3    3    0    0 -0.74769756888E+02 -0.11723834160E+03 -0.77672116932E+03  0.78906978156E+03  0.00000000000E+00 0.  1.
          3    1    3    3  501    0  0.64957884311E+02  0.12034147624E+03 -0.19284546312E+03  0.23641271176E+03  0.00000000000E+00 0.  1.
         21    1    1    2  502  501  0.98118725767E+01 -0.31031346356E+01  0.82198747555E+01  0.13170748993E+02  0.00000000000E+00 0.  1.
<mgrwt>
<rscale>  1 0.30000000E+03</rscale>
<asrwt>0</asrwt>
<pdfrwt beam="1">  1        1 0.14055754E+00 0.30000000E+03</pdfrwt>
<pdfrwt beam="2">0</pdfrwt>
<totfact> 0.20096616E+01</totfact>
</mgrwt>
</event>
<event>
 6    1  0.1901260E-004  0.3000000E+03  0.7818608E-02  0.1093470E+00
          1   -1    0    0  502    0  0.00000000000E+00  0.00000000000E+00  0.30925947979E+02  0.30925947979E+02  0.00000000000E+00 0.  1.
         13   -1    0    0    0    0 -0.00000000000E+00 -0.00000000000E+00 -0.10000000000E+04  0.10000000000E+04  0.00000000000E+00 0.  1.
    9000005    2    1    2  501    0 -0.21096942464E+02  0.30142343733E+02 -0.85698709744E+03  0.91295507338E+03  0.31258029202E+03 0.  0.
         13    1    3    3    0    0  0.46450087354E+02 -0.11157029690E+03 -0.17202772262E+03  0.21023577030E+03  0.00000000000E+00 0.  1.
          1    1    3    3  501    0 -0.67547029818E+02  0.14171264064E+03 -0.68495937483E+03  0.70271930308E+03  0.00000000000E+00 0.  1.
         21    1    1    2  502  501  0.21096942464E+02 -0.30142343733E+02 -0.11208695458E+03  0.11797087460E+03  0.00000000000E+00 0.  1.
<mgrwt>
<rscale>  1 0.30000000E+03</rscale>
<asrwt>0</asrwt>
<pdfrwt beam="1">  1        1 0.11245823E+00 0.30000000E+03</pdfrwt>
<pdfrwt beam="2">0</pdfrwt>
<totfact> 0.28730771E+01</totfact>
</mgrwt>
</event>
<event>
 6    1  0.1901260E-004  0.3000000E+03  0.7818608E-02  0.1093470E+00
          1   -1    0    0  502    0  0.00000000000E+00  0.00000000000E+00  0.33409125692E+02  0.33409125692E+02  0.00000000000E+00 0.  1.
         13   -1    0    0    0    0 -0.00000000000E+00 -0.00000000000E+00 -0.10000000000E+04  0.10000000000E+04  0.00000000000E+00 0.  1.
    9000005    2    1    2  501    0 -0.34859952359E+02  0.84643978156E+01 -0.89592529510E+03  0.95415960586E+03  0.32626914770E+03 0.  0.
         13    1    3    3    0    0  0.10195574826E+02 -0.11246800642E+03 -0.10978964850E+03  0.15750164803E+03  0.00000000000E+00 0.  1.
          1    1    3    3  501    0 -0.45055527185E+02  0.12093240423E+03 -0.78613564660E+03  0.79665795783E+03  0.00000000000E+00 0.  1.
         21    1    1    2  502  501  0.34859952359E+02 -0.84643978156E+01 -0.70665579209E+02  0.79249519834E+02  0.00000000000E+00 0. -1.
<mgrwt>
<rscale>  1 0.30000000E+03</rscale>
<asrwt>0</asrwt>
<pdfrwt beam="1">  1        1 0.12148799E+00 0.30000000E+03</pdfrwt>
<pdfrwt beam="2">0</pdfrwt>
<totfact> 0.25498853E+01</totfact>
</mgrwt>
</event>
<event>
 6    1  0.1901260E-004  0.3000000E+03  0.7818608E-02  0.1093470E+00
          1   -1    0    0  502    0  0.00000000000E+00  0.00000000000E+00  0.70578934744E+02  0.70578934744E+02  0.00000000000E+00 0.  1.
         13   -1    0    0    0    0 -0.00000000000E+00 -0.00000000000E+00 -0.10000000000E+04  0.10000000000E+04  0.00000000000E+00 0.  1.
    9000005    2    1    2  501    0 -0.59706445021E+00 -0.18691420234E+02 -0.89780965983E+03  0.10338501092E+04  0.51228325879E+03 0.  0.
         13    1    3    3    0    0 -0.54508426942E+02 -0.42207818038E+00  0.56113042360E+02  0.78230558484E+02  0.00000000000E+00 0.  1.
          3    1    3    3  501    0  0.53911362492E+02 -0.18269342053E+02 -0.95392270219E+03  0.95561955067E+03  0.00000000000E+00 0.  1.
         21    1    1    2  502  501  0.59706445021E+00  0.18691420234E+02 -0.31611405425E+02  0.36728825590E+02  0.00000000000E+00 0.  1.
<mgrwt>
<rscale>  1 0.30000000E+03</rscale>
<asrwt>0</asrwt>
<pdfrwt beam="1">  1        1 0.25665121E+00 0.30000000E+03</pdfrwt>
<pdfrwt beam="2">0</pdfrwt>
<totfact> 0.55552165E+00</totfact>
</mgrwt>
</event>
<event>
 6    1  0.1901260E-004  0.3000000E+03  0.7818608E-02  0.1093470E+00
          1   -1    0    0  502    0  0.00000000000E+00  0.00000000000E+00  0.29526086070E+02  0.29526086070E+02  0.00000000000E+00 0.  1.
         13   -1    0    0    0    0 -0.00000000000E+00 -0.00000000000E+00 -0.10000000000E+04  0.10000000000E+04  0.00000000000E+00 0.  1.
    9000005    2    1    2  501    0  0.11590554909E+02  0.58764404878E+01 -0.95577603640E+03  0.10099071891E+04  0.32593837646E+03 0.  0.
         13    1    3    3    0    0  0.24606062727E+02  0.34447989899E+02 -0.97311885503E+03  0.97403923348E+03  0.00000000000E+00 0.  1.
          3    1    3    3  501    0 -0.13015507818E+02 -0.28571549411E+02  0.17342818636E+02  0.35867955583E+02  0.00000000000E+00 0.  1.
         21    1    1    2  502  501 -0.11590554909E+02 -0.58764404878E+01 -0.14697877532E+02  0.19618897009E+02  0.00000000000E+00 0.  1.
<mgrwt>
<rscale>  1 0.30000000E+03</rscale>
<asrwt>0</asrwt>
<pdfrwt beam="1">  1        1 0.10736781E+00 0.30000000E+03</pdfrwt>
<pdfrwt beam="2">0</pdfrwt>
<totfact> 0.30811142E+01</totfact>
</mgrwt>
</event>
<event>
 6    1  0.1901260E-004  0.3000000E+03  0.7818608E-02  0.1093470E+00
          1   -1    0    0  502    0  0.00000000000E+00  0.00000000000E+00  0.60072601857E+02  0.60072601857E+02  0.00000000000E+00 0.  1.
         13   -1    0    0    0    0 -0.00000000000E+00 -0.00000000000E+00 -0.10000000000E+04  0.10000000000E+04  0.00000000000E+00 0.  1.
    9000005    2    1    2  501    0 -0.19180332881E+02  0.67522975197E+01 -0.95441012580E+03  0.10351080652E+04  0.40017063819E+03 0.  0.
         13    1    3    3    0    0  0.37094751870E+02 -0.17800687876E+03 -0.64695707437E+03  0.67202375373E+03  0.00000000000E+00 0.  1.
          3    1    3    3  501    0 -0.56275084751E+02  0.18475917628E+03 -0.30745305143E+03  0.36308431145E+03  0.00000000000E+00 0.  1.
         21    1    1    2  502  501  0.19180332881E+02 -0.67522975197E+01  0.14482727659E+02  0.24964536680E+02  0.00000000000E+00 0.  1.
<mgrwt>
<rscale>  1 0.30000000E+03</rscale>
<asrwt>0</asrwt>
<pdfrwt beam="1">  1        1 0.21844629E+00 0.30000000E+03</pdfrwt>
<pdfrwt beam="2">0</pdfrwt>
<totfact> 0.83827414E+00</totfact>
</mgrwt>
</event>
<event>
 6    1  0.1901260E-004  0.3000000E+03  0.7818608E-02  0.1093470E+00
          3   -1    0    0  502    0  0.00000000000E+00  0.00000000000E+00  0.28296951593E+02  0.28296951593E+02  0.00000000000E+00 0.  1.
         13   -1    0    0    0    0 -0.00000000000E+00 -0.00000000000E+00 -0.10000000000E+04  0.10000000000E+04  0.00000000000E+00 0.  1.
    9000005    2    1    2  501    0  0.40993199938E+01  0.15269586982E+02 -0.92897471566E+03  0.98273737378E+03  0.32020112239E+03 0.  0.
         13    1    3    3    0    0  0.11988468765E+03  0.80932821578E+02 -0.23374846673E+03  0.27488325821E+03  0.00000000000E+00 0.  1.
          3    1    3    3  501    0 -0.11578536766E+03 -0.65663234596E+02 -0.69522624893E+03  0.70785411558E+03  0.00000000000E+00 0.  1.
         21    1    1    2  502  501 -0.40993199938E+01 -0.15269586982E+02 -0.42728332745E+02  0.45559577810E+02  0.00000000000E+00 0. -1.
<mgrwt>
<rscale>  1 0.30000000E+03</rscale>
<asrwt>0</asrwt>
<pdfrwt beam="1">  1        3 0.10289822E+00 0.30000000E+03</pdfrwt>
<pdfrwt beam="2">0</pdfrwt>
<totfact> 0.36303734E+00</totfact>
</mgrwt>
</event>
<event>
 6    1  0.1901260E-004  0.3000000E+03  0.7818608E-02  0.1093470E+00
          1   -1    0    0  502    0  0.00000000000E+00  0.00000000000E+00  0.31240027248E+02  0.31240027248E+02  0.00000000000E+00 0.  1.
         13   -1    0    0    0    0 -0.00000000000E+00 -0.00000000000E+00 -0.10000000000E+04  0.10000000000E+04  0.00000000000E+00 0.  1.
    9000005    2    1    2  501    0  0.13396631091E+02 -0.13380589359E+02 -0.94018557381E+03  0.99696166423E+03  0.33109686929E+03 0.  0.
         13    1    3    3    0    0 -0.13339554322E+03  0.12453094465E+02 -0.19230121317E+03  0.23436980842E+03  0.00000000000E+00 0.  1.
          3    1    3    3  501    0  0.14679217431E+03 -0.25833683823E+02 -0.74788436064E+03  0.76259185581E+03  0.00000000000E+00 0.  1.
         21    1    1    2  502  501 -0.13396631091E+02  0.13380589359E+02 -0.28574398942E+02  0.34278363016E+02  0.00000000000E+00 0.  1.
<mgrwt>
<rscale>  1 0.30000000E+03</rscale>
<asrwt>0</asrwt>
<pdfrwt beam="1">  1        1 0.11360034E+00 0.30000000E+03</pdfrwt>
<pdfrwt beam="2">0</pdfrwt>
<totfact> 0.28291532E+01</totfact>
</mgrwt>
</event>
<event>
 6    1  0.1901260E-004  0.3000000E+03  0.7818608E-02  0.1093470E+00
          1   -1    0    0  502    0  0.00000000000E+00  0.00000000000E+00  0.32931564331E+02  0.32931564331E+02  0.00000000000E+00 0.  1.
         13   -1    0    0    0    0 -0.00000000000E+00 -0.00000000000E+00 -0.10000000000E+04  0.10000000000E+04  0.00000000000E+00 0.  1.
    9000005    2    1    2  501    0 -0.20007704979E+02  0.41045744217E+01 -0.95400647177E+03  0.10086875818E+04  0.32696350506E+03 0.  0.
         13    1    3    3    0    0 -0.16073797579E+03  0.48969886322E+02 -0.37130657389E+03  0.40755774860E+03  0.00000000000E+00 0.  1.
          3    1    3    3  501    0  0.14073027082E+03 -0.44865311900E+02 -0.58269989787E+03  0.60112983316E+03  0.00000000000E+00 0.  1.
         21    1    1    2  502  501  0.20007704979E+02 -0.41045744217E+01 -0.13061963902E+02  0.24243982567E+02  0.00000000000E+00 0. -1.
<mgrwt>
<rscale>  1 0.30000000E+03</rscale>
<asrwt>0</asrwt>
<pdfrwt beam="1">  1        1 0.11975140E+00 0.30000000E+03</pdfrwt>
<pdfrwt beam="2">0</pdfrwt>
<totfact> 0.26080344E+01</totfact>
</mgrwt>
</event>
<event>
 6    1  0.1901260E-004  0.3000000E+03  0.7818608E-02  0.1093470E+00
          1   -1    0    0  502    0  0.00000000000E+00  0.00000000000E+00  0.22371129051E+02  0.22371129051E+02  0.00000000000E+00 0.  1.
         13   -1    0    0    0    0 -0.00000000000E+00 -0.00000000000E+00 -0.10000000000E+04  0.10000000000E+04  0.00000000000E+00 0.  1.
    9000005    2    1    2  501    0  0.26744499483E+01  0.11559534390E+02 -0.96495923417E+03  0.10050132716E+04  0.28065027533E+03 0.  0.
         13    1    3    3    0    0  0.16263362780E+01  0.55005289645E+02 -0.19239683022E+02  0.58295731074E+02  0.00000000000E+00 0.  1.
          3    1    3    3  501    0  0.10481136703E+01 -0.43445755255E+02 -0.94571955114E+03  0.94671754056E+03  0.00000000000E+00 0.  1.
         21    1    1    2  502  501 -0.26744499483E+01 -0.11559534390E+02 -0.12669636782E+02  0.17357857415E+02  0.00000000000E+00 0. -1.
<mgrwt>
<rscale>  1 0.30000000E+03</rscale>
<asrwt>0</asrwt>
<pdfrwt beam="1">  1        1 0.81349732E-01 0.30000000E+03</pdfrwt>
<pdfrwt beam="2">0</pdfrwt>
<totfact> 0.45890279E+01</totfact>
</mgrwt>
</event>
<event>
 6    1  0.1901260E-004  0.3000000E+03  0.7818608E-02  0.1093470E+00
          1   -1    0    0  502    0  0.00000000000E+00  0.00000000000E+00  0.52362675523E+02  0.52362675523E+02  0.00000000000E+00 0.  1.
         13   -1    0    0    0    0 -0.00000000000E+00 -0.00000000000E+00 -0.10000000000E+04  0.10000000000E+04  0.00000000000E+00 0.  1.
    9000005    2    1    2  501    0 -0.19848476327E+02 -0.26786500104E+02 -0.95153414083E+03  0.10187968629E+04  0.36251668661E+03 0.  0.
         13    1    3    3    0    0 -0.88194768927E+02  0.13204311653E+03 -0.24919184911E+03  0.29548312905E+03  0.00000000000E+00 0.  1.
          1    1    3    3  501    0  0.68346292600E+02 -0.15882961663E+03 -0.70234229172E+03  0.72331373384E+03  0.00000000000E+00 0.  1.
         21    1    1    2  502  501  0.19848476327E+02  0.26786500104E+02  0.38968163480E+01  0.33565812637E+02  0.00000000000E+00 0. -1.
<mgrwt>
<rscale>  1 0.30000000E+03</rscale>
<asrwt>0</asrwt>
<pdfrwt beam="1">  1        1 0.19041013E+00 0.30000000E+03</pdfrwt>
<pdfrwt beam="2">0</pdfrwt>
<totfact> 0.11382295E+01</totfact>
</mgrwt>
</event>
<event>
 6    1  0.1901260E-004  0.3000000E+03  0.7818608E-02  0.1093470E+00
          1   -1    0    0  502    0  0.00000000000E+00  0.00000000000E+00  0.56003863321E+02  0.56003863321E+02  0.00000000000E+00 0.  1.
         13   -1    0    0    0    0 -0.00000000000E+00 -0.00000000000E+00 -0.10000000000E+04  0.10000000000E+04  0.00000000000E+00 0.  1.
    9000005    2    1    2  501    0 -0.39425657175E+01  0.33673444756E+02 -0.96621041255E+03  0.10154709291E+04  0.31059491586E+03 0.  0.
         13    1    3    3    0    0  0.30108809371E+02  0.33705050725E+01 -0.96930981222E+03  0.96978317823E+03  0.00000000000E+00 0.  1.
          3    1    3    3  501    0 -0.34051375089E+02  0.30302939683E+02  0.30993996687E+01  0.45687750844E+02  0.00000000000E+00 0.  1.
         21    1    1    2  502  501  0.39425657175E+01 -0.33673444756E+02  0.22214275875E+02  0.40532934248E+02  0.00000000000E+00 0.  1.
<mgrwt>
<rscale>  1 0.30000000E+03</rscale>
<asrwt>0</asrwt>
<pdfrwt beam="1">  1        1 0.20365084E+00 0.30000000E+03</pdfrwt>
<pdfrwt beam="2">0</pdfrwt>
<totfact> 0.98426094E+00</totfact>
</mgrwt>
</event>
<event>
 6    1  0.1901260E-004  0.3000000E+03  0.7818608E-02  0.1093470E+00
          1   -1    0    0  502    0  0.00000000000E+00  0.00000000000E+00  0.27584679184E+02  0.27584679184E+02  0.00000000000E+00 0.  1.
         13   -1    0    0    0    0 -0.00000000000E+00 -0.00000000000E+00 -0.10000000000E+04  0.10000000000E+04  0.00000000000E+00 0.  1.
    9000005    2    1    2  501    0  0.66976018222E+01  0.10469299654E+02 -0.93511429461E+03  0.98826762612E+03  0.31949912794E+03 0.  0.
         13    1    3    3    0    0  0.15700155211E+03  0.23622024455E+02 -0.60187122409E+03  0.62246000498E+03  0.00000000000E+00 0.  1.
          1    1    3    3  501    0 -0.15030395029E+03 -0.13152724802E+02 -0.33324307051E+03  0.36580762114E+03  0.00000000000E+00 0.  1.
         21    1    1    2  502  501 -0.66976018222E+01 -0.10469299654E+02 -0.37301026207E+02  0.39317053063E+02  0.00000000000E+00 0. -1.
<mgrwt>
<rscale>  1 0.30000000E+03</rscale>
<asrwt>0</asrwt>
<pdfrwt beam="1">  1        1 0.10030814E+00 0.30000000E+03</pdfrwt>
<pdfrwt beam="2">0</pdfrwt>
<totfact> 0.34073257E+01</totfact>
</mgrwt>
</event>
<event>
 6    1  0.1901260E-004  0.3000000E+03  0.7818608E-02  0.1093470E+00
          1   -1    0    0  502    0  0.00000000000E+00  0.00000000000E+00  0.58649163555E+02  0.58649163555E+02  0.00000000000E+00 0.  1.
         13   -1    0    0    0    0 -0.00000000000E+00 -0.00000000000E+00 -0.10000000000E+04  0.10000000000E+04  0.00000000000E+00 0.  1.
    9000005    2    1    2  501    0  0.10723714761E+03 -0.67983936218E+02 -0.76131266993E+03  0.83834173560E+03  0.32725870933E+03 0.  0.
         13    1    3    3    0    0  0.29675161503E+02 -0.22877935233E+02  0.26208144494E+02  0.45726162845E+02  0.00000000000E+00 0.  1.
          3    1    3    3  501    0  0.77561986110E+02 -0.45106000985E+02 -0.78752081443E+03  0.79261557275E+03  0.00000000000E+00 0.  1.
         21    1    1    2  502  501 -0.10723714761E+03  0.67983936218E+02 -0.18003816651E+03  0.22030742796E+03  0.00000000000E+00 0.  1.
<mgrwt>
<rscale>  1 0.30000000E+03</rscale>
<asrwt>0</asrwt>
<pdfrwt beam="1">  1        1 0.21327014E+00 0.30000000E+03</pdfrwt>
<pdfrwt beam="2">0</pdfrwt>
<totfact> 0.88654033E+00</totfact>
</mgrwt>
</event>
<event>
 6    1  0.1901260E-004  0.3000000E+03  0.7818608E-02  0.1093470E+00
          1   -1    0    0  502    0  0.00000000000E+00  0.00000000000E+00  0.41015237601E+02  0.41015237601E+02  0.00000000000E+00 0.  1.
         13   -1    0    0    0    0 -0.00000000000E+00 -0.00000000000E+00 -0.10000000000E+04  0.10000000000E+04  0.00000000000E+00 0.  1.
    9000005    2    1    2  501    0 -0.72449721938E+02  0.97135252018E+01 -0.84716879216E+03  0.90742584438E+03  0.31683337239E+03 0.  0.
         13    1    3    3    0    0  0.85227886992E+02  0.62901219157E+02 -0.60116472259E+03  0.61042557267E+03  0.00000000000E+00 0.  1.
          1    1    3    3  501    0 -0.15767760893E+03 -0.53187693956E+02 -0.24600406957E+03  0.29700027170E+03  0.00000000000E+00 0.  1.
         21    1    1    2  502  501  0.72449721938E+02 -0.97135252018E+01 -0.11181597024E+03  0.13358939322E+03  0.00000000000E+00 0.  1.
<mgrwt>
<rscale>  1 0.30000000E+03</rscale>
<asrwt>0</asrwt>
<pdfrwt beam="1">  1        1 0.14914663E+00 0.30000000E+03</pdfrwt>
<pdfrwt beam="2">0</pdfrwt>
<totfact> 0.18145567E+01</totfact>
</mgrwt>
</event>
<event>
 6    1  0.1901260E-004  0.3000000E+03  0.7818608E-02  0.1093470E+00
          1   -1    0    0  502    0  0.00000000000E+00  0.00000000000E+00  0.39061106586E+02  0.39061106586E+02  0.00000000000E+00 0.  1.
         13   -1    0    0    0    0 -0.00000000000E+00 -0.00000000000E+00 -0.10000000000E+04  0.10000000000E+04  0.00000000000E+00 0.  1.
    9000005    2    1    2  501    0 -0.33920332841E+02  0.12520519991E+02 -0.92326942466E+03  0.98684672851E+03  0.34660161955E+03 0.  0.
         13    1    3    3    0    0  0.28260958484E+02 -0.85800575418E+02 -0.83738860951E+03  0.84224705630E+03  0.00000000000E+00 0.  1.
          1    1    3    3  501    0 -0.62181291324E+02  0.98321095409E+02 -0.85880815147E+02  0.14459967221E+03  0.00000000000E+00 0.  1.
         21    1    1    2  502  501  0.33920332841E+02 -0.12520519991E+02 -0.37669468758E+02  0.52214378071E+02  0.00000000000E+00 0. -1.
<mgrwt>
<rscale>  1 0.30000000E+03</rscale>
<asrwt>0</asrwt>
<pdfrwt beam="1">  1        1 0.14204069E+00 0.30000000E+03</pdfrwt>
<pdfrwt beam="2">0</pdfrwt>
<totfact> 0.19741439E+01</totfact>
</mgrwt>
</event>
<event>
 6    1  0.1901260E-004  0.3000000E+03  0.7818608E-02  0.1093470E+00
          1   -1    0    0  502    0  0.00000000000E+00  0.00000000000E+00  0.38068100162E+02  0.38068100162E+02  0.00000000000E+00 0.  1.
         13   -1    0    0    0    0 -0.00000000000E+00 -0.00000000000E+00 -0.10000000000E+04  0.10000000000E+04  0.00000000000E+00 0.  1.
    9000005    2    1    2  501    0 -0.40195102677E+02  0.25427547630E+01 -0.93050345167E+03  0.98698131875E+03  0.32660884572E+03 0.  0.
         13    1    3    3    0    0 -0.95920458945E+02  0.85959283200E+02 -0.14038346572E+03  0.19051837250E+03  0.00000000000E+00 0.  1.
          1    1    3    3  501    0  0.55725356268E+02 -0.83416528437E+02 -0.79011998595E+03  0.79646294625E+03  0.00000000000E+00 0.  1.
         21    1    1    2  502  501  0.40195102677E+02 -0.25427547630E+01 -0.31428448164E+02  0.51086781411E+02  0.00000000000E+00 0.  1.
<mgrwt>
<rscale>  1 0.30000000E+03</rscale>
<asrwt>0</asrwt>
<pdfrwt beam="1">  1        1 0.13842975E+00 0.30000000E+03</pdfrwt>
<pdfrwt beam="2">0</pdfrwt>
<totfact> 0.20620504E+01</totfact>
</mgrwt>
</event>
<event>
 6    1  0.1901260E-004  0.3000000E+03  0.7818608E-02  0.1093470E+00
          1   -1    0    0  502    0  0.00000000000E+00  0.00000000000E+00  0.31589195215E+02  0.31589195215E+02  0.00000000000E+00 0.  1.
         13   -1    0    0    0    0 -0.00000000000E+00 -0.00000000000E+00 -0.10000000000E+04  0.10000000000E+04  0.00000000000E+00 0.  1.
    9000005    2    1    2  501    0  0.17394231734E+02  0.93576719953E+01 -0.95598441798E+03  0.10082538055E+04  0.31981151264E+03 0.  0.
         13    1    3    3    0    0  0.45738540115E+02 -0.62485471056E+02 -0.36633987859E+02  0.85665029104E+02  0.00000000000E+00 0.  1.
          3    1    3    3  501    0 -0.28344308380E+02  0.71843143051E+02 -0.91935043012E+03  0.92258877642E+03  0.00000000000E+00 0.  1.
         21    1    1    2  502  501 -0.17394231734E+02 -0.93576719953E+01 -0.12426386805E+02  0.23335389687E+02  0.00000000000E+00 0.  1.
<mgrwt>
<rscale>  1 0.30000000E+03</rscale>
<asrwt>0</asrwt>
<pdfrwt beam="1">  1        1 0.11487004E+00 0.30000000E+03</pdfrwt>
<pdfrwt beam="2">0</pdfrwt>
<totfact> 0.27814330E+01</totfact>
</mgrwt>
</event>
<event>
 6    1  0.1901260E-004  0.3000000E+03  0.7818608E-02  0.1093470E+00
          1   -1    0    0  502    0  0.00000000000E+00  0.00000000000E+00  0.28542739578E+02  0.28542739578E+02  0.00000000000E+00 0.  1.
         13   -1    0    0    0    0 -0.00000000000E+00 -0.00000000000E+00 -0.10000000000E+04  0.10000000000E+04  0.00000000000E+00 0.  1.
    9000005    2    1    2  501    0 -0.13014723029E+02  0.37532547720E+01 -0.95595752772E+03  0.10079584822E+04  0.31928363120E+03 0.  0.
         13    1    3    3    0    0  0.35284235411E+02 -0.20326426147E+02 -0.95304154023E+03  0.95391106413E+03  0.00000000000E+00 0.  1.
          1    1    3    3  501    0 -0.48298958440E+02  0.24079680919E+02 -0.29159874892E+01  0.54047418094E+02  0.00000000000E+00 0.  1.
         21    1    1    2  502  501  0.13014723029E+02 -0.37532547720E+01 -0.15499732701E+02  0.20584257351E+02  0.00000000000E+00 0. -1.
<mgrwt>
<rscale>  1 0.30000000E+03</rscale>
<asrwt>0</asrwt>
<pdfrwt beam="1">  1        1 0.10379200E+00 0.30000000E+03</pdfrwt>
<pdfrwt beam="2">0</pdfrwt>
<totfact> 0.32403808E+01</totfact>
</mgrwt>
</event>
<event>
 6    1  0.1901260E-004  0.3000000E+03  0.7818608E-02  0.1093470E+00
          1   -1    0    0  502    0  0.00000000000E+00  0.00000000000E+00  0.34548928076E+02  0.34548928076E+02  0.00000000000E+00 0.  1.
         13   -1    0    0    0    0 -0.00000000000E+00 -0.00000000000E+00 -0.10000000000E+04  0.10000000000E+04  0.00000000000E+00 0.  1.
    9000005    2    1    2  501    0 -0.28260651482E+01  0.10905645333E+02 -0.96965849475E+03  0.10225230330E+04  0.32432828574E+03 0.  0.
         13    1    3    3    0    0 -0.12640106508E+03  0.90755834431E+02 -0.31253838913E+03  0.34913334905E+03  0.00000000000E+00 0.  1.
          3    1    3    3  501    0  0.12357499993E+03 -0.79850189098E+02 -0.65712010562E+03  0.67338968400E+03  0.00000000000E+00 0.  1.
         21    1    1    2  502  501  0.28260651482E+01 -0.10905645333E+02  0.42074228261E+01  0.12025895026E+02  0.00000000000E+00 0. -1.
<mgrwt>
<rscale>  1 0.30000000E+03</rscale>
<asrwt>0</asrwt>
<pdfrwt beam="1">  1        1 0.12563273E+00 0.30000000E+03</pdfrwt>
<pdfrwt beam="2">0</pdfrwt>
<totfact> 0.24178097E+01</totfact>
</mgrwt>
</event>
<event>
 6    1  0.1901260E-004  0.3000000E+03  0.7818608E-02  0.1093470E+00
          1   -1    0    0  502    0  0.00000000000E+00  0.00000000000E+00  0.32416039364E+02  0.32416039364E+02  0.00000000000E+00 0.  1.
         13   -1    0    0    0    0 -0.00000000000E+00 -0.00000000000E+00 -0.10000000000E+04  0.10000000000E+04  0.00000000000E+00 0.  1.
    9000005    2    1    2  501    0  0.17278631333E+02  0.13062468938E+02 -0.95345608540E+03  0.10065553345E+04  0.32187879008E+03 0.  0.
         13    1    3    3    0    0 -0.18855589938E+02  0.10571111466E+02 -0.96747536884E+03  0.96771683409E+03  0.00000000000E+00 0.  1.
          3    1    3    3  501    0  0.36134221271E+02  0.24913574716E+01  0.14019283439E+02  0.38838500449E+02  0.00000000000E+00 0.  1.
         21    1    1    2  502  501 -0.17278631333E+02 -0.13062468938E+02 -0.14127875239E+02  0.25860704829E+02  0.00000000000E+00 0.  1.
<mgrwt>
<rscale>  1 0.30000000E+03</rscale>
<asrwt>0</asrwt>
<pdfrwt beam="1">  1        1 0.11787676E+00 0.30000000E+03</pdfrwt>
<pdfrwt beam="2">0</pdfrwt>
<totfact> 0.26728241E+01</totfact>
</mgrwt>
</event>
<event>
 6    1  0.1901260E-004  0.3000000E+03  0.7818608E-02  0.1093470E+00
          1   -1    0    0  502    0  0.00000000000E+00  0.00000000000E+00  0.35273612688E+02  0.35273612688E+02  0.00000000000E+00 0.  1.
         13   -1    0    0    0    0 -0.00000000000E+00 -0.00000000000E+00 -0.10000000000E+04  0.10000000000E+04  0.00000000000E+00 0.  1.
    9000005    2    1    2  501    0  0.21980229709E+02 -0.18507189176E+01 -0.95794384842E+03  0.10121963838E+04  0.32618790140E+03 0.  0.
         13    1    3    3    0    0 -0.37637362595E+02  0.11407025667E+03 -0.79258944121E+03  0.80163995461E+03  0.00000000000E+00 0.  1.
          1    1    3    3  501    0  0.59617592304E+02 -0.11592097559E+03 -0.16535440722E+03  0.21055642920E+03  0.00000000000E+00 0.  1.
         21    1    1    2  502  501 -0.21980229709E+02  0.18507189176E+01 -0.67825388879E+01  0.23077228870E+02  0.00000000000E+00 0.  1.
<mgrwt>
<rscale>  1 0.30000000E+03</rscale>
<asrwt>0</asrwt>
<pdfrwt beam="1">  1        1 0.12826795E+00 0.30000000E+03</pdfrwt>
<pdfrwt beam="2">0</pdfrwt>
<totfact> 0.23383690E+01</totfact>
</mgrwt>
</event>
<event>
 6    1  0.1901260E-004  0.3000000E+03  0.7818608E-02  0.1093470E+00
          1   -1    0    0  502    0  0.00000000000E+00  0.00000000000E+00  0.30232267766E+02  0.30232267766E+02  0.00000000000E+00 0.  1.
         13   -1    0    0    0    0 -0.00000000000E+00 -0.00000000000E+00 -0.10000000000E+04  0.10000000000E+04  0.00000000000E+00 0.  1.
    9000005    2    1    2  501    0 -0.21439739575E+02  0.17095904507E+02 -0.98594413275E+03  0.99839505185E+03  0.15477375185E+03 0.  0.
         13    1    3    3    0    0 -0.10220520907E+02 -0.36770301059E+00 -0.97476601976E+03  0.97481966924E+03  0.00000000000E+00 0.  1.
          3    1    3    3  501    0 -0.11219218667E+02  0.17463607518E+02 -0.11178112986E+02  0.23575382605E+02  0.00000000000E+00 0.  1.
         21    1    1    2  502  501  0.21439739575E+02 -0.17095904507E+02  0.16176400515E+02  0.31837215920E+02  0.00000000000E+00 0.  1.
<mgrwt>
<rscale>  1 0.30000000E+03</rscale>
<asrwt>0</asrwt>
<pdfrwt beam="1">  1        1 0.10993575E+00 0.30000000E+03</pdfrwt>
<pdfrwt beam="2">0</pdfrwt>
<totfact> 0.29735855E+01</totfact>
</mgrwt>
</event>
<event>
 6    1  0.1901260E-004  0.3000000E+03  0.7818608E-02  0.1093470E+00
          1   -1    0    0  502    0  0.00000000000E+00  0.00000000000E+00  0.42938074663E+02  0.42938074663E+02  0.00000000000E+00 0.  1.
         13   -1    0    0    0    0 -0.00000000000E+00 -0.00000000000E+00 -0.10000000000E+04  0.10000000000E+04  0.00000000000E+00 0.  1.
    9000005    2    1    2  501    0  0.31218383139E+02  0.27583237159E+01 -0.95857839582E+03  0.10115614037E+04  0.32156140440E+03 0.  0.
         13    1    3    3    0    0  0.16167924867E+03 -0.21957178608E+01 -0.73571098142E+03  0.75326997073E+03  0.00000000000E+00 0.  1.
          1    1    3    3  501    0 -0.13046086553E+03  0.49540415767E+01 -0.22286741441E+03  0.25829143301E+03  0.00000000000E+00 0.  1.
         21    1    1    2  502  501 -0.31218383139E+02 -0.27583237159E+01  0.15164704857E+01  0.31376670924E+02  0.00000000000E+00 0. -1.
<mgrwt>
<rscale>  1 0.30000000E+03</rscale>
<asrwt>0</asrwt>
<pdfrwt beam="1">  1        1 0.15613878E+00 0.30000000E+03</pdfrwt>
<pdfrwt beam="2">0</pdfrwt>
<totfact> 0.16728561E+01</totfact>
</mgrwt>
</event>
<event>
 6    1  0.1901260E-004  0.3000000E+03  0.7818608E-02  0.1093470E+00
          1   -1    0    0  502    0  0.00000000000E+00  0.00000000000E+00  0.28767177711E+02  0.28767177711E+02  0.00000000000E+00 0.  1.
         13   -1    0    0    0    0 -0.00000000000E+00 -0.00000000000E+00 -0.10000000000E+04  0.10000000000E+04  0.00000000000E+00 0.  1.
    9000005    2    1    2  501    0  0.10123645795E+02 -0.26610287948E+01 -0.95907535384E+03  0.10127243189E+04  0.32507759467E+03 0.  0.
         13    1    3    3    0    0  0.76208468291E+02 -0.14473680618E+03 -0.40128630012E+03  0.43334416850E+03  0.00000000000E+00 0.  1.
          3    1    3    3  501    0 -0.66084822495E+02  0.14207577739E+03 -0.55778905371E+03  0.57938015044E+03  0.00000000000E+00 0.  1.
         21    1    1    2  502  501 -0.10123645795E+02  0.26610287948E+01 -0.12157468453E+02  0.16042858774E+02  0.00000000000E+00 0.  1.
<mgrwt>
<rscale>  1 0.30000000E+03</rscale>
<asrwt>0</asrwt>
<pdfrwt beam="1">  1        1 0.10460814E+00 0.30000000E+03</pdfrwt>
<pdfrwt beam="2">0</pdfrwt>
<totfact> 0.32029992E+01</totfact>
</mgrwt>
</event>
<event>
 6    1  0.1901260E-004  0.3000000E+03  0.7818608E-02  0.1093470E+00
          1   -1    0    0  502    0  0.00000000000E+00  0.00000000000E+00  0.31710690275E+02  0.31710690275E+02  0.00000000000E+00 0.  1.
         13   -1    0    0    0    0 -0.00000000000E+00 -0.00000000000E+00 -0.10000000000E+04  0.10000000000E+04  0.00000000000E+00 0.  1.
    9000005    2    1    2  501    0 -0.15715717151E+02  0.21793563508E+01 -0.96024326397E+03  0.10139210244E+04  0.32514148361E+03 0.  0.
         13    1    3    3    0    0  0.11513846910E+03 -0.96240762819E+02 -0.59542281154E+03  0.61404191713E+03  0.00000000000E+00 0.  1.
          1    1    3    3  501    0 -0.13085418625E+03  0.98420119170E+02 -0.36482045243E+03  0.39987910727E+03  0.00000000000E+00 0.  1.
         21    1    1    2  502  501  0.15715717151E+02 -0.21793563508E+01 -0.80460457583E+01  0.17789665877E+02  0.00000000000E+00 0.  1.
<mgrwt>
<rscale>  1 0.30000000E+03</rscale>
<asrwt>0</asrwt>
<pdfrwt beam="1">  1        1 0.11531184E+00 0.30000000E+03</pdfrwt>
<pdfrwt beam="2">0</pdfrwt>
<totfact> 0.27650942E+01</totfact>
</mgrwt>
</event>
<event>
 6    1  0.1901260E-004  0.3000000E+03  0.7818608E-02  0.1093470E+00
          1   -1    0    0  502    0  0.00000000000E+00  0.00000000000E+00  0.32246582047E+02  0.32246582047E+02  0.00000000000E+00 0.  1.
         13   -1    0    0    0    0 -0.00000000000E+00 -0.00000000000E+00 -0.10000000000E+04  0.10000000000E+04  0.00000000000E+00 0.  1.
    9000005    2    1    2  501    0 -0.39351521640E+02  0.11202716688E+02 -0.85144387094E+03  0.90895037837E+03  0.31553142767E+03 0.  0.
         13    1    3    3    0    0  0.90435863722E+02 -0.61997840899E+02 -0.12027523549E+03  0.16275291086E+03  0.00000000000E+00 0.  1.
          1    1    3    3  501    0 -0.12978738536E+03  0.73200557587E+02 -0.73116863546E+03  0.74619746750E+03  0.00000000000E+00 0.  1.
         21    1    1    2  502  501  0.39351521640E+02 -0.11202716688E+02 -0.11630954701E+03  0.12329620368E+03  0.00000000000E+00 0.  1.
<mgrwt>
<rscale>  1 0.30000000E+03</rscale>
<asrwt>0</asrwt>
<pdfrwt beam="1">  1        1 0.11726055E+00 0.30000000E+03</pdfrwt>
<pdfrwt beam="2">0</pdfrwt>
<totfact> 0.26945993E+01</totfact>
</mgrwt>
</event>
<event>
 6    1  0.1901260E-004  0.3000000E+03  0.7818608E-02  0.1093470E+00
          1   -1    0    0  502    0  0.00000000000E+00  0.00000000000E+00  0.32386086073E+02  0.32386086073E+02  0.00000000000E+00 0.  1.
         13   -1    0    0    0    0 -0.00000000000E+00 -0.00000000000E+00 -0.10000000000E+04  0.10000000000E+04  0.00000000000E+00 0.  1.
    9000005    2    1    2  501    0 -0.24728750516E+02 -0.10537099398E+02 -0.93843622613E+03  0.99271394180E+03  0.32263892848E+03 0.  0.
         13    1    3    3    0    0 -0.14689132372E+03  0.55212986789E+02 -0.69523632816E+03  0.71272651620E+03  0.00000000000E+00 0.  1.
          1    1    3    3  501    0  0.12216257320E+03 -0.65750086188E+02 -0.24319989797E+03  0.27998742560E+03  0.00000000000E+00 0.  1.
         21    1    1    2  502  501  0.24728750516E+02  0.10537099398E+02 -0.29177687799E+02  0.39672144272E+02  0.00000000000E+00 0.  1.
<mgrwt>
<rscale>  1 0.30000000E+03</rscale>
<asrwt>0</asrwt>
<pdfrwt beam="1">  1        1 0.11776783E+00 0.30000000E+03</pdfrwt>
<pdfrwt beam="2">0</pdfrwt>
<totfact> 0.26766555E+01</totfact>
</mgrwt>
</event>
<event>
 6    1  0.1901260E-004  0.3000000E+03  0.7818608E-02  0.1093470E+00
          1   -1    0    0  502    0  0.00000000000E+00  0.00000000000E+00  0.26443503912E+02  0.26443503912E+02  0.00000000000E+00 0.  1.
         13   -1    0    0    0    0 -0.00000000000E+00 -0.00000000000E+00 -0.10000000000E+04  0.10000000000E+04  0.00000000000E+00 0.  1.
    9000005    2    1    2  501    0  0.10680998533E+02  0.27889900276E+02 -0.85611396215E+03  0.90526314641E+03  0.29270858851E+03 0.  0.
         13    1    3    3    0    0 -0.98795576030E+00  0.79235869096E+02 -0.84834499873E+03  0.85203787233E+03  0.00000000000E+00 0.  1.
          1    1    3    3  501    0  0.11668954293E+02 -0.51345968820E+02 -0.77689634192E+01  0.53225274081E+02  0.00000000000E+00 0.  1.
         21    1    1    2  502  501 -0.10680998533E+02 -0.27889900276E+02 -0.11744253394E+03  0.12118035751E+03  0.00000000000E+00 0.  1.
<mgrwt>
<rscale>  1 0.30000000E+03</rscale>
<asrwt>0</asrwt>
<pdfrwt beam="1">  1        1 0.96158399E-01 0.30000000E+03</pdfrwt>
<pdfrwt beam="2">0</pdfrwt>
<totfact> 0.36232184E+01</totfact>
</mgrwt>
</event>
<event>
 6    1  0.1901260E-004  0.3000000E+03  0.7818608E-02  0.1093470E+00
          1   -1    0    0  502    0  0.00000000000E+00  0.00000000000E+00  0.54511191975E+02  0.54511191975E+02  0.00000000000E+00 0.  1.
         13   -1    0    0    0    0 -0.00000000000E+00 -0.00000000000E+00 -0.10000000000E+04  0.10000000000E+04  0.00000000000E+00 0.  1.
    9000005    2    1    2  501    0 -0.14110186646E+02  0.67023037092E+01 -0.95689099922E+03  0.10351713831E+04  0.39458255134E+03 0.  0.
         13    1    3    3    0    0 -0.21278672617E+01  0.20003243150E+03 -0.44669572285E+03  0.48944312263E+03  0.00000000000E+00 0.  1.
          3    1    3    3  501    0 -0.11982319384E+02 -0.19333012779E+03 -0.51019527636E+03  0.54572826050E+03  0.00000000000E+00 0.  1.
         21    1    1    2  502  501  0.14110186646E+02 -0.67023037092E+01  0.11402191194E+02  0.19339808846E+02  0.00000000000E+00 0.  1.
<mgrwt>
<rscale>  1 0.30000000E+03</rscale>
<asrwt>0</asrwt>
<pdfrwt beam="1">  1        1 0.19822293E+00 0.30000000E+03</pdfrwt>
<pdfrwt beam="2">0</pdfrwt>
<totfact> 0.10444718E+01</totfact>
</mgrwt>
</event>
<event>
 6    1  0.1901260E-004  0.3000000E+03  0.7818608E-02  0.1093470E+00
          1   -1    0    0  502    0  0.00000000000E+00  0.00000000000E+00  0.31972681213E+02  0.31972681213E+02  0.00000000000E+00 0.  1.
         13   -1    0    0    0    0 -0.00000000000E+00 -0.00000000000E+00 -0.10000000000E+04  0.10000000000E+04  0.00000000000E+00 0.  1.
    9000005    2    1    2  501    0 -0.55726870879E+01 -0.15474414979E+02 -0.95705149403E+03  0.10121994395E+04  0.32913466949E+03 0.  0.
         13    1    3    3    0    0 -0.20371015268E+02  0.12432935600E+03 -0.75864100357E+03  0.76903116928E+03  0.00000000000E+00 0.  1.
          1    1    3    3  501    0  0.14798328180E+02 -0.13980377098E+03 -0.19841049046E+03  0.24316827018E+03  0.00000000000E+00 0.  1.
         21    1    1    2  502  501  0.55726870879E+01  0.15474414979E+02 -0.10975824757E+02  0.19773241753E+02  0.00000000000E+00 0.  1.
<mgrwt>
<rscale>  1 0.30000000E+03</rscale>
<asrwt>0</asrwt>
<pdfrwt beam="1">  1        1 0.11626454E+00 0.30000000E+03</pdfrwt>
<pdfrwt beam="2">0</pdfrwt>
<totfact> 0.27303146E+01</totfact>
</mgrwt>
</event>
<event>
 6    1  0.1901260E-004  0.3000000E+03  0.7818608E-02  0.1093470E+00
          1   -1    0    0  502    0  0.00000000000E+00  0.00000000000E+00  0.29939942085E+02  0.29939942085E+02  0.00000000000E+00 0.  1.
         13   -1    0    0    0    0 -0.00000000000E+00 -0.00000000000E+00 -0.10000000000E+04  0.10000000000E+04  0.00000000000E+00 0.  1.
    9000005    2    1    2  501    0  0.66071700373E+00  0.99079318255E+01 -0.92644570389E+03  0.98520946548E+03  0.33501857405E+03 0.  0.
         13    1    3    3    0    0  0.13070511917E+03  0.78308594151E+02 -0.69159448463E+03  0.70818005851E+03  0.00000000000E+00 0.  1.
          3    1    3    3  501    0 -0.13004440217E+03 -0.68400662325E+02 -0.23485121926E+03  0.27702940697E+03  0.00000000000E+00 0.  1.
         21    1    1    2  502  501 -0.66071700373E+00 -0.99079318255E+01 -0.43614354028E+02  0.44730476604E+02  0.00000000000E+00 0.  1.
<mgrwt>
<rscale>  1 0.30000000E+03</rscale>
<asrwt>0</asrwt>
<pdfrwt beam="1">  1        1 0.10887275E+00 0.30000000E+03</pdfrwt>
<pdfrwt beam="2">0</pdfrwt>
<totfact> 0.30174375E+01</totfact>
</mgrwt>
</event>
<event>
 6    1  0.1901260E-004  0.3000000E+03  0.7818608E-02  0.1093470E+00
          1   -1    0    0  502    0  0.00000000000E+00  0.00000000000E+00  0.26135738863E+02  0.26135738863E+02  0.00000000000E+00 0.  1.
         13   -1    0    0    0    0 -0.00000000000E+00 -0.00000000000E+00 -0.10000000000E+04  0.10000000000E+04  0.00000000000E+00 0.  1.
    9000005    2    1    2  501    0  0.10099578014E+02 -0.87425187766E+01 -0.95176016845E+03  0.10003089306E+04  0.30755829580E+03 0.  0.
         13    1    3    3    0    0 -0.10822023551E+03  0.46896188737E+02 -0.16535551179E+03  0.20310912627E+03  0.00000000000E+00 0.  1.
          3    1    3    3  501    0  0.11831981352E+03 -0.55638707514E+02 -0.78640465666E+03  0.79719980435E+03  0.00000000000E+00 0.  1.
         21    1    1    2  502  501 -0.10099578014E+02  0.87425187766E+01 -0.22104092686E+02  0.25826808245E+02  0.00000000000E+00 0. -1.
<mgrwt>
<rscale>  1 0.30000000E+03</rscale>
<asrwt>0</asrwt>
<pdfrwt beam="1">  1        1 0.95039251E-01 0.30000000E+03</pdfrwt>
<pdfrwt beam="2">0</pdfrwt>
<totfact> 0.36849170E+01</totfact>
</mgrwt>
</event>
<event>
 6    1  0.1901260E-004  0.3000000E+03  0.7818608E-02  0.1093470E+00
          3   -1    0    0  502    0  0.00000000000E+00  0.00000000000E+00  0.33465678273E+02  0.33465678273E+02  0.00000000000E+00 0.  1.
         13   -1    0    0    0    0 -0.00000000000E+00 -0.00000000000E+00 -0.10000000000E+04  0.10000000000E+04  0.00000000000E+00 0.  1.
    9000005    2    1    2  501    0 -0.86609664474E+01  0.35719414153E+02 -0.91350270880E+03  0.96894249750E+03  0.32095400853E+03 0.  0.
         13    1    3    3    0    0 -0.55860223087E+02  0.12139312091E+03 -0.15711589481E+03  0.20625726346E+03  0.00000000000E+00 0.  1.
          1    1    3    3  501    0  0.47199256640E+02 -0.85673706752E+02 -0.75638681398E+03  0.76268523404E+03  0.00000000000E+00 0.  1.
         21    1    1    2  502  501  0.86609664474E+01 -0.35719414153E+02 -0.53031612929E+02  0.64523180773E+02  0.00000000000E+00 0. -1.
<mgrwt>
<rscale>  1 0.30000000E+03</rscale>
<asrwt>0</asrwt>
<pdfrwt beam="1">  1        3 0.12169363E+00 0.30000000E+03</pdfrwt>
<pdfrwt beam="2">0</pdfrwt>
<totfact> 0.22106563E+00</totfact>
</mgrwt>
</event>
<event>
 6    1  0.1901260E-004  0.3000000E+03  0.7818608E-02  0.1093470E+00
          1   -1    0    0  502    0  0.00000000000E+00  0.00000000000E+00  0.48875144562E+02  0.48875144562E+02  0.00000000000E+00 0.  1.
         13   -1    0    0    0    0 -0.00000000000E+00 -0.00000000000E+00 -0.10000000000E+04  0.10000000000E+04  0.00000000000E+00 0.  1.
    9000005    2    1    2  501    0 -0.11708589319E+02 -0.14951876621E+01 -0.96768556284E+03  0.10285383877E+04  0.34833394869E+03 0.  0.
         13    1    3    3    0    0  0.96249261961E+02 -0.12189513197E+03 -0.26212763046E+03  0.30468547434E+03  0.00000000000E+00 0.  1.
          3    1    3    3  501    0 -0.10795785128E+03  0.12039994431E+03 -0.70555793238E+03  0.72385291336E+03  0.00000000000E+00 0.  1.
         21    1    1    2  502  501  0.11708589319E+02  0.14951876621E+01  0.16560707397E+02  0.20336756858E+02  0.00000000000E+00 0. -1.
<mgrwt>
<rscale>  1 0.30000000E+03</rscale>
<asrwt>0</asrwt>
<pdfrwt beam="1">  1        1 0.17772817E+00 0.30000000E+03</pdfrwt>
<pdfrwt beam="2">0</pdfrwt>
<totfact> 0.13102176E+01</totfact>
</mgrwt>
</event>
<event>
 6    1  0.1901260E-004  0.3000000E+03  0.7818608E-02  0.1093470E+00
          1   -1    0    0  502    0  0.00000000000E+00  0.00000000000E+00  0.35335379440E+02  0.35335379440E+02  0.00000000000E+00 0.  1.
         13   -1    0    0    0    0 -0.00000000000E+00 -0.00000000000E+00 -0.10000000000E+04  0.10000000000E+04  0.00000000000E+00 0.  1.
    9000005    2    1    2  501    0  0.95778001193E+01 -0.10881340161E+02 -0.97430464027E+03  0.10179265369E+04  0.29443974707E+03 0.  0.
         13    1    3    3    0    0  0.21867103162E+02 -0.77659407236E+02 -0.93697502418E+03  0.94044210331E+03  0.00000000000E+00 0.  1.
          1    1    3    3  501    0 -0.12289303043E+02  0.66778067075E+02 -0.37329616086E+02  0.77484433590E+02  0.00000000000E+00 0.  1.
         21    1    1    2  502  501 -0.95778001193E+01  0.10881340161E+02  0.96400197061E+01  0.17408842545E+02  0.00000000000E+00 0. -1.
<mgrwt>
<rscale>  1 0.30000000E+03</rscale>
<asrwt>0</asrwt>
<pdfrwt beam="1">  1        1 0.12849256E+00 0.30000000E+03</pdfrwt>
<pdfrwt beam="2">0</pdfrwt>
<totfact> 0.23317540E+01</totfact>
</mgrwt>
</event>
<event>
 6    1  0.1901260E-004  0.3000000E+03  0.7818608E-02  0.1093470E+00
          1   -1    0    0  502    0  0.00000000000E+00  0.00000000000E+00  0.35318751185E+02  0.35318751185E+02  0.00000000000E+00 0.  1.
         13   -1    0    0    0    0 -0.00000000000E+00 -0.00000000000E+00 -0.10000000000E+04  0.10000000000E+04  0.00000000000E+00 0.  1.
    9000005    2    1    2  501    0  0.34722765588E+02  0.70596477180E+01 -0.92337956450E+03  0.98090057221E+03  0.32906018195E+03 0.  0.
         13    1    3    3    0    0 -0.10663771711E+03 -0.83164987114E+02 -0.22365829426E+03  0.26136382761E+03  0.00000000000E+00 0.  1.
          1    1    3    3  501    0  0.14136048270E+03  0.90224634832E+02 -0.69972127024E+03  0.71953674460E+03  0.00000000000E+00 0.  1.
         21    1    1    2  502  501 -0.34722765588E+02 -0.70596477180E+01 -0.41301684310E+02  0.54418178974E+02  0.00000000000E+00 0. -1.
<mgrwt>
<rscale>  1 0.30000000E+03</rscale>
<asrwt>0</asrwt>
<pdfrwt beam="1">  1        1 0.12843209E+00 0.30000000E+03</pdfrwt>
<pdfrwt beam="2">0</pdfrwt>
<totfact> 0.23335324E+01</totfact>
</mgrwt>
</event>
<event>
 6    1  0.1901260E-004  0.3000000E+03  0.7818608E-02  0.1093470E+00
          1   -1    0    0  502    0  0.00000000000E+00  0.00000000000E+00  0.45403938688E+02  0.45403938688E+02  0.00000000000E+00 0.  1.
         13   -1    0    0    0    0 -0.00000000000E+00 -0.00000000000E+00 -0.10000000000E+04  0.10000000000E+04  0.00000000000E+00 0.  1.
    9000005    2    1    2  501    0 -0.25741358762E+02  0.19381897862E+02 -0.95882966961E+03  0.10129047240E+04  0.32493594612E+03 0.  0.
         13    1    3    3    0    0  0.62413791866E+02 -0.84398992832E+02 -0.10566588584E+03  0.14894277706E+03  0.00000000000E+00 0.  1.
          1    1    3    3  501    0 -0.88155150629E+02  0.10378089069E+03 -0.85316378376E+03  0.86396194695E+03  0.00000000000E+00 0.  1.
         21    1    1    2  502  501  0.25741358762E+02 -0.19381897862E+02  0.42336082947E+01  0.32499214680E+02  0.00000000000E+00 0.  1.
<mgrwt>
<rscale>  1 0.30000000E+03</rscale>
<asrwt>0</asrwt>
<pdfrwt beam="1">  1        1 0.16510558E+00 0.30000000E+03</pdfrwt>
<pdfrwt beam="2">0</pdfrwt>
<totfact> 0.15099223E+01</totfact>
</mgrwt>
</event>
<event>
 6    1  0.1901260E-004  0.3000000E+03  0.7818608E-02  0.1093470E+00
          1   -1    0    0  502    0  0.00000000000E+00  0.00000000000E+00  0.35672170144E+02  0.35672170144E+02  0.00000000000E+00 0.  1.
         13   -1    0    0    0    0 -0.00000000000E+00 -0.00000000000E+00 -0.10000000000E+04  0.10000000000E+04  0.00000000000E+00 0.  1.
    9000005    2    1    2  501    0  0.11675209293E+02 -0.11273818383E+02 -0.96618663460E+03  0.10193361777E+04  0.32444756257E+03 0.  0.
         13    1    3    3    0    0 -0.58039925860E+02 -0.19315781950E+02 -0.11706698196E+02  0.62279845928E+02  0.00000000000E+00 0.  1.
          3    1    3    3  501    0  0.69715135153E+02  0.80419635671E+01 -0.95447993641E+03  0.95705633181E+03  0.00000000000E+00 0.  1.
         21    1    1    2  502  501 -0.11675209293E+02  0.11273818383E+02  0.18588047461E+01  0.16335992411E+02  0.00000000000E+00 0.  1.
<mgrwt>
<rscale>  1 0.30000000E+03</rscale>
<asrwt>0</asrwt>
<pdfrwt beam="1">  1        1 0.12971726E+00 0.30000000E+03</pdfrwt>
<pdfrwt beam="2">0</pdfrwt>
<totfact> 0.22961071E+01</totfact>
</mgrwt>
</event>
<event>
 6    1  0.1901260E-004  0.3000000E+03  0.7818608E-02  0.1093470E+00
          1   -1    0    0  502    0  0.00000000000E+00  0.00000000000E+00  0.33808775304E+02  0.33808775304E+02  0.00000000000E+00 0.  1.
         13   -1    0    0    0    0 -0.00000000000E+00 -0.00000000000E+00 -0.10000000000E+04  0.10000000000E+04  0.00000000000E+00 0.  1.
    9000005    2    1    2  501    0 -0.81744060544E+01  0.31194743348E+02 -0.93850897347E+03  0.99130889342E+03  0.31757565393E+03 0.  0.
         13    1    3    3    0    0 -0.10839804757E+03  0.46127904882E+02 -0.84580830934E+03  0.85397284294E+03  0.00000000000E+00 0.  1.
          3    1    3    3  501    0  0.10022364152E+03 -0.14933161534E+02 -0.92700664129E+02  0.13733605049E+03  0.00000000000E+00 0.  1.
         21    1    1    2  502  501  0.81744060544E+01 -0.31194743348E+02 -0.27682251228E+02  0.42499881882E+02  0.00000000000E+00 0.  1.
<mgrwt>
<rscale>  1 0.30000000E+03</rscale>
<asrwt>0</asrwt>
<pdfrwt beam="1">  1        1 0.12294126E+00 0.30000000E+03</pdfrwt>
<pdfrwt beam="2">0</pdfrwt>
<totfact> 0.25025345E+01</totfact>
</mgrwt>
</event>
<event>
 6    1  0.1901260E-004  0.3000000E+03  0.7818608E-02  0.1093470E+00
          1   -1    0    0  502    0  0.00000000000E+00  0.00000000000E+00  0.28517322777E+02  0.28517322777E+02  0.00000000000E+00 0.  1.
         13   -1    0    0    0    0 -0.00000000000E+00 -0.00000000000E+00 -0.10000000000E+04  0.10000000000E+04  0.00000000000E+00 0.  1.
    9000005    2    1    2  501    0 -0.10593729935E+02  0.13887020738E+02 -0.98365835335E+03  0.10072259267E+04  0.21590561548E+03 0.  0.
         13    1    3    3    0    0 -0.20884386467E+02  0.11202063568E+03 -0.62184122021E+03  0.63219560546E+03  0.00000000000E+00 0.  1.
          3    1    3    3  501    0  0.10290656532E+02 -0.98133614945E+02 -0.36181713314E+03  0.37503032121E+03  0.00000000000E+00 0.  1.
         21    1    1    2  502  501  0.10593729935E+02 -0.13887020738E+02  0.12175676125E+02  0.21291396103E+02  0.00000000000E+00 0.  1.
<mgrwt>
<rscale>  1 0.30000000E+03</rscale>
<asrwt>0</asrwt>
<pdfrwt beam="1">  1        1 0.10369957E+00 0.30000000E+03</pdfrwt>
<pdfrwt beam="2">0</pdfrwt>
<totfact> 0.32446541E+01</totfact>
</mgrwt>
</event>
<event>
 6    1  0.1901260E-004  0.3000000E+03  0.7818608E-02  0.1093470E+00
          1   -1    0    0  502    0  0.00000000000E+00  0.00000000000E+00  0.51356919920E+02  0.51356919920E+02  0.00000000000E+00 0.  1.
         13   -1    0    0    0    0 -0.00000000000E+00 -0.00000000000E+00 -0.10000000000E+04  0.10000000000E+04  0.00000000000E+00 0.  1.
    9000005    2    1    2  501    0  0.82335454778E+01  0.47436825420E+02 -0.93360328110E+03  0.10009164676E+04  0.35763199654E+03 0.  0.
         13    1    3    3    0    0 -0.64050337355E+02  0.19013382939E+03 -0.53844227188E+03  0.57460716924E+03  0.00000000000E+00 0.  1.
          3    1    3    3  501    0  0.72283882833E+02 -0.14269700397E+03 -0.39516100922E+03  0.42630929836E+03  0.00000000000E+00 0.  1.
         21    1    1    2  502  501 -0.82335454778E+01 -0.47436825420E+02 -0.15039798977E+02  0.50440452321E+02  0.00000000000E+00 0. -1.
<mgrwt>
<rscale>  1 0.30000000E+03</rscale>
<asrwt>0</asrwt>
<pdfrwt beam="1">  1        1 0.18675283E+00 0.30000000E+03</pdfrwt>
<pdfrwt beam="2">0</pdfrwt>
<totfact> 0.11852123E+01</totfact>
</mgrwt>
</event>
<event>
 6    1  0.1901260E-004  0.3000000E+03  0.7818608E-02  0.1093470E+00
          1   -1    0    0  502    0  0.00000000000E+00  0.00000000000E+00  0.32353615805E+02  0.32353615805E+02  0.00000000000E+00 0.  1.
         13   -1    0    0    0    0 -0.00000000000E+00 -0.00000000000E+00 -0.10000000000E+04  0.10000000000E+04  0.00000000000E+00 0.  1.
    9000005    2    1    2  501    0 -0.15697401387E+02 -0.43173416379E+01 -0.95630629840E+03  0.10125131169E+04  0.33225897698E+03 0.  0.
         13    1    3    3    0    0 -0.15556368917E+03 -0.43282600092E+02 -0.69567093738E+03  0.71416489551E+03  0.00000000000E+00 0.  1.
          3    1    3    3  501    0  0.13986628778E+03  0.38965258454E+02 -0.26063536101E+03  0.29834822144E+03  0.00000000000E+00 0.  1.
         21    1    1    2  502  501  0.15697401387E+02  0.43173416379E+01 -0.11340085799E+02  0.19840498861E+02  0.00000000000E+00 0. -1.
<mgrwt>
<rscale>  1 0.30000000E+03</rscale>
<asrwt>0</asrwt>
<pdfrwt beam="1">  1        1 0.11764976E+00 0.30000000E+03</pdfrwt>
<pdfrwt beam="2">0</pdfrwt>
<totfact> 0.26808173E+01</totfact>
</mgrwt>
</event>
<event>
 6    1  0.1901260E-004  0.3000000E+03  0.7818608E-02  0.1093470E+00
          1   -1    0    0  502    0  0.00000000000E+00  0.00000000000E+00  0.29663683571E+02  0.29663683571E+02  0.00000000000E+00 0.  1.
         13   -1    0    0    0    0 -0.00000000000E+00 -0.00000000000E+00 -0.10000000000E+04  0.10000000000E+04  0.00000000000E+00 0.  1.
    9000005    2    1    2  501    0  0.14518736029E+02 -0.60173894913E+01 -0.94044938233E+03  0.99589636946E+03  0.32728815334E+03 0.  0.
         13    1    3    3    0    0  0.59408756846E+02  0.10922001397E+03 -0.14550713181E+03  0.19139158093E+03  0.00000000000E+00 0.  1.
          1    1    3    3  501    0 -0.44890020818E+02 -0.11523740346E+03 -0.79494225051E+03  0.80450478853E+03  0.00000000000E+00 0.  1.
         21    1    1    2  502  501 -0.14518736029E+02  0.60173894913E+01 -0.29886934102E+02  0.33767314110E+02  0.00000000000E+00 0.  1.
<mgrwt>
<rscale>  1 0.30000000E+03</rscale>
<asrwt>0</asrwt>
<pdfrwt beam="1">  1        1 0.10786817E+00 0.30000000E+03</pdfrwt>
<pdfrwt beam="2">0</pdfrwt>
<totfact> 0.30597316E+01</totfact>
</mgrwt>
</event>
<event>
 6    1  0.1901260E-004  0.3000000E+03  0.7818608E-02  0.1093470E+00
          1   -1    0    0  502    0  0.00000000000E+00  0.00000000000E+00  0.31279785126E+02  0.31279785126E+02  0.00000000000E+00 0.  1.
         13   -1    0    0    0    0 -0.00000000000E+00 -0.00000000000E+00 -0.10000000000E+04  0.10000000000E+04  0.00000000000E+00 0.  1.
    9000005    2    1    2  501    0 -0.14860326362E+02  0.15760131409E+02 -0.94806651885E+03  0.10013500975E+04  0.32156287498E+03 0.  0.
         13    1    3    3    0    0  0.97875546423E+02  0.71228370044E+01 -0.81857086921E+02  0.12779256658E+03  0.00000000000E+00 0.  1.
          3    1    3    3  501    0 -0.11273587279E+03  0.86372944042E+01 -0.86620943193E+03  0.87355753092E+03  0.00000000000E+00 0.  1.
         21    1    1    2  502  501  0.14860326362E+02 -0.15760131409E+02 -0.20653696021E+02  0.29929687619E+02  0.00000000000E+00 0. -1.
<mgrwt>
<rscale>  1 0.30000000E+03</rscale>
<asrwt>0</asrwt>
<pdfrwt beam="1">  1        1 0.11374491E+00 0.30000000E+03</pdfrwt>
<pdfrwt beam="2">0</pdfrwt>
<totfact> 0.28236614E+01</totfact>
</mgrwt>
</event>
<event>
 6    1  0.1901260E-004  0.3000000E+03  0.7818608E-02  0.1093470E+00
          1   -1    0    0  502    0  0.00000000000E+00  0.00000000000E+00  0.53141728679E+02  0.53141728679E+02  0.00000000000E+00 0.  1.
         13   -1    0    0    0    0 -0.00000000000E+00 -0.00000000000E+00 -0.10000000000E+04  0.10000000000E+04  0.00000000000E+00 0.  1.
    9000005    2    1    2  501    0 -0.39380344292E+02  0.64661629729E+01 -0.95677255685E+03  0.10120209816E+04  0.32738374875E+03 0.  0.
         13    1    3    3    0    0  0.78003340941E+01  0.27990298426E+02  0.19099489980E+02  0.34772007929E+02  0.00000000000E+00 0.  1.
          1    1    3    3  501    0 -0.47180678386E+02 -0.21524135453E+02 -0.97587204683E+03  0.97724897370E+03  0.00000000000E+00 0.  1.
         21    1    1    2  502  501  0.39380344292E+02 -0.64661629729E+01  0.99142855286E+01  0.41120747047E+02  0.00000000000E+00 0. -1.
<mgrwt>
<rscale>  1 0.30000000E+03</rscale>
<asrwt>0</asrwt>
<pdfrwt beam="1">  1        1 0.19324306E+00 0.30000000E+03</pdfrwt>
<pdfrwt beam="2">0</pdfrwt>
<totfact> 0.11032012E+01</totfact>
</mgrwt>
</event>
<event>
 6    1  0.1901260E-004  0.3000000E+03  0.7818608E-02  0.1093470E+00
          1   -1    0    0  502    0  0.00000000000E+00  0.00000000000E+00  0.63702178986E+02  0.63702178986E+02  0.00000000000E+00 0.  1.
         13   -1    0    0    0    0 -0.00000000000E+00 -0.00000000000E+00 -0.10000000000E+04  0.10000000000E+04  0.00000000000E+00 0.  1.
    9000005    2    1    2  501    0  0.31271874790E+01  0.54971269507E+02 -0.93110969339E+03  0.10083981426E+04  0.38323613230E+03 0.  0.
         13    1    3    3    0    0  0.46129398690E+01  0.21099415063E+02 -0.96217284602E+03  0.96241521712E+03  0.00000000000E+00 0.  1.
          3    1    3    3  501    0 -0.14857523900E+01  0.33871854443E+02  0.31063152634E+02  0.45982925474E+02  0.00000000000E+00 0.  1.
         21    1    1    2  502  501 -0.31271874790E+01 -0.54971269507E+02 -0.51881276284E+01  0.55304036390E+02  0.00000000000E+00 0.  1.
<mgrwt>
<rscale>  1 0.30000000E+03</rscale>
<asrwt>0</asrwt>
<pdfrwt beam="1">  1        1 0.23164478E+00 0.30000000E+03</pdfrwt>
<pdfrwt beam="2">0</pdfrwt>
<totfact> 0.72703830E+00</totfact>
</mgrwt>
</event>
<event>
 6    1  0.1901260E-004  0.3000000E+03  0.7818608E-02  0.1093470E+00
          1   -1    0    0  502    0  0.00000000000E+00  0.00000000000E+00  0.51918374707E+02  0.51918374707E+02  0.00000000000E+00 0.  1.
         13   -1    0    0    0    0 -0.00000000000E+00 -0.00000000000E+00 -0.10000000000E+04  0.10000000000E+04  0.00000000000E+00 0.  1.
    9000005    2    1    2  501    0  0.14631638269E+02  0.38838807113E+02 -0.94796997789E+03  0.10104147575E+04  0.34722955722E+03 0.  0.
         13    1    3    3    0    0 -0.10392612471E+03 -0.25261449932E+02 -0.83999842735E+02  0.13599541842E+03  0.00000000000E+00 0.  1.
          3    1    3    3  501    0  0.11855776298E+03  0.64100257045E+02 -0.86397013516E+03  0.87441933908E+03  0.00000000000E+00 0.  1.
         21    1    1    2  502  501 -0.14631638269E+02 -0.38838807113E+02 -0.11164740151E+00  0.41503617210E+02  0.00000000000E+00 0.  1.
<mgrwt>
<rscale>  1 0.30000000E+03</rscale>
<asrwt>0</asrwt>
<pdfrwt beam="1">  1        1 0.18879449E+00 0.30000000E+03</pdfrwt>
<pdfrwt beam="2">0</pdfrwt>
<totfact> 0.11587389E+01</totfact>
</mgrwt>
</event>
<event>
 6    1  0.1901260E-004  0.3000000E+03  0.7818608E-02  0.1093470E+00
          3   -1    0    0  502    0  0.00000000000E+00  0.00000000000E+00  0.29052408845E+02  0.29052408845E+02  0.00000000000E+00 0.  1.
         13   -1    0    0    0    0 -0.00000000000E+00 -0.00000000000E+00 -0.10000000000E+04  0.10000000000E+04  0.00000000000E+00 0.  1.
    9000005    2    1    2  501    0  0.78527203070E+01  0.60746230832E+01 -0.96473556189E+03  0.10173410652E+04  0.32275311362E+03 0.  0.
         13    1    3    3    0    0 -0.13204741568E+03 -0.33553074286E+02 -0.71912087442E+03  0.73191335607E+03  0.00000000000E+00 0.  1.
          1    1    3    3  501    0  0.13990013598E+03  0.39627697369E+02 -0.24561468748E+03  0.28542770915E+03  0.00000000000E+00 0.  1.
         21    1    1    2  502  501 -0.78527203070E+01 -0.60746230832E+01 -0.62120292644E+01  0.11711343621E+02  0.00000000000E+00 0. -1.
<mgrwt>
<rscale>  1 0.30000000E+03</rscale>
<asrwt>0</asrwt>
<pdfrwt beam="1">  1        3 0.10564535E+00 0.30000000E+03</pdfrwt>
<pdfrwt beam="2">0</pdfrwt>
<totfact> 0.33781726E+00</totfact>
</mgrwt>
</event>
<event>
 6    1  0.1901260E-004  0.3000000E+03  0.7818608E-02  0.1093470E+00
          3   -1    0    0  502    0  0.00000000000E+00  0.00000000000E+00  0.28810850124E+02  0.28810850124E+02  0.00000000000E+00 0.  1.
         13   -1    0    0    0    0 -0.00000000000E+00 -0.00000000000E+00 -0.10000000000E+04  0.10000000000E+04  0.00000000000E+00 0.  1.
    9000005    2    1    2  501    0 -0.12591564783E+02  0.10968488331E+01 -0.94963752370E+03  0.10038263915E+04  0.32510959276E+03 0.  0.
         13    1    3    3    0    0 -0.13845515929E+03 -0.29172119476E+02 -0.21177923472E+03  0.25469842549E+03  0.00000000000E+00 0.  1.
          3    1    3    3  501    0  0.12586359451E+03  0.30268968309E+02 -0.73785828898E+03  0.74912796602E+03  0.00000000000E+00 0.  1.
         21    1    1    2  502  501  0.12591564783E+02 -0.10968488331E+01 -0.21551626180E+02  0.24984458611E+02  0.00000000000E+00 0. -1.
<mgrwt>
<rscale>  1 0.30000000E+03</rscale>
<asrwt>0</asrwt>
<pdfrwt beam="1">  1        3 0.10476695E+00 0.30000000E+03</pdfrwt>
<pdfrwt beam="2">0</pdfrwt>
<totfact> 0.34568452E+00</totfact>
</mgrwt>
</event>
<event>
 6    1  0.1901260E-004  0.3000000E+03  0.7818608E-02  0.1093470E+00
          1   -1    0    0  502    0  0.00000000000E+00  0.00000000000E+00  0.86583705290E+02  0.86583705290E+02  0.00000000000E+00 0.  1.
         13   -1    0    0    0    0 -0.00000000000E+00 -0.00000000000E+00 -0.10000000000E+04  0.10000000000E+04  0.00000000000E+00 0.  1.
    9000005    2    1    2  501    0  0.18631331753E+02  0.18993941989E+02 -0.96773549702E+03  0.10260984005E+04  0.34008534074E+03 0.  0.
         13    1    3    3    0    0  0.36970888709E+02  0.17395468506E+03 -0.61907233982E+03  0.64410996033E+03  0.00000000000E+00 0.  1.
          3    1    3    3  501    0 -0.18339556956E+02 -0.15496074307E+03 -0.34866315720E+03  0.38198844018E+03  0.00000000000E+00 0.  1.
         21    1    1    2  502  501 -0.18631331753E+02 -0.18993941989E+02  0.54319202306E+02  0.60485304780E+02  0.00000000000E+00 0.  1.
<mgrwt>
<rscale>  1 0.30000000E+03</rscale>
<asrwt>0</asrwt>
<pdfrwt beam="1">  1        1 0.31485050E+00 0.30000000E+03</pdfrwt>
<pdfrwt beam="2">0</pdfrwt>
<totfact> 0.29496468E+00</totfact>
</mgrwt>
</event>
<event>
 6    1  0.1901260E-004  0.3000000E+03  0.7818608E-02  0.1093470E+00
          1   -1    0    0  502    0  0.00000000000E+00  0.00000000000E+00  0.35138551618E+02  0.35138551618E+02  0.00000000000E+00 0.  1.
         13   -1    0    0    0    0 -0.00000000000E+00 -0.00000000000E+00 -0.10000000000E+04  0.10000000000E+04  0.00000000000E+00 0.  1.
    9000005    2    1    2  501    0  0.10077450850E+02  0.11583582779E+02 -0.96918457639E+03  0.10191878826E+04  0.31494358633E+03 0.  0.
         13    1    3    3    0    0  0.65780608916E+02  0.15088309206E+03 -0.54071537053E+03  0.56521315263E+03  0.00000000000E+00 0.  1.
          1    1    3    3  501    0 -0.55703158066E+02 -0.13929950928E+03 -0.42846920585E+03  0.45397472999E+03  0.00000000000E+00 0.  1.
         21    1    1    2  502  501 -0.10077450850E+02 -0.11583582779E+02  0.43231280050E+01  0.15950668995E+02  0.00000000000E+00 0. -1.
<mgrwt>
<rscale>  1 0.30000000E+03</rscale>
<asrwt>0</asrwt>
<pdfrwt beam="1">  1        1 0.12777682E+00 0.30000000E+03</pdfrwt>
<pdfrwt beam="2">0</pdfrwt>
<totfact> 0.23529180E+01</totfact>
</mgrwt>
</event>
<event>
 6    1  0.1901260E-004  0.3000000E+03  0.7818608E-02  0.1093470E+00
          1   -1    0    0  502    0  0.00000000000E+00  0.00000000000E+00  0.36457590776E+02  0.36457590776E+02  0.00000000000E+00 0.  1.
         13   -1    0    0    0    0 -0.00000000000E+00 -0.00000000000E+00 -0.10000000000E+04  0.10000000000E+04  0.00000000000E+00 0.  1.
    9000005    2    1    2  501    0 -0.29310382416E+02 -0.15988429220E+02 -0.94058358668E+03  0.99593801626E+03  0.32569973950E+03 0.  0.
         13    1    3    3    0    0  0.68986152263E+02  0.99066943730E+02 -0.70961630186E+03  0.71981153395E+03  0.00000000000E+00 0.  1.
          3    1    3    3  501    0 -0.98296534679E+02 -0.11505537295E+03 -0.23096728482E+03  0.27612648231E+03  0.00000000000E+00 0.  1.
         21    1    1    2  502  501  0.29310382416E+02  0.15988429220E+02 -0.22958822541E+02  0.40519574514E+02  0.00000000000E+00 0.  1.
<mgrwt>
<rscale>  1 0.30000000E+03</rscale>
<asrwt>0</asrwt>
<pdfrwt beam="1">  1        1 0.13257334E+00 0.30000000E+03</pdfrwt>
<pdfrwt beam="2">0</pdfrwt>
<totfact> 0.22156898E+01</totfact>
</mgrwt>
</event>
<event>
 6    1  0.1901260E-004  0.3000000E+03  0.7818608E-02  0.1093470E+00
          1   -1    0    0  502    0  0.00000000000E+00  0.00000000000E+00  0.41900352573E+02  0.41900352573E+02  0.00000000000E+00 0.  1.
         13   -1    0    0    0    0 -0.00000000000E+00 -0.00000000000E+00 -0.10000000000E+04  0.10000000000E+04  0.00000000000E+00 0.  1.
    9000005    2    1    2  501    0  0.38880736224E+02 -0.34148580652E+02 -0.91976970233E+03  0.97750297762E+03  0.32689131025E+03 0.  0.
         13    1    3    3    0    0  0.86338522796E+01 -0.13908317415E+03 -0.81271542919E+03  0.82457567366E+03  0.00000000000E+00 0.  1.
          3    1    3    3  501    0  0.30246883944E+02  0.10493459350E+03 -0.10705427314E+03  0.15292730397E+03  0.00000000000E+00 0.  1.
         21    1    1    2  502  501 -0.38880736224E+02  0.34148580652E+02 -0.38329945092E+02  0.64397374951E+02  0.00000000000E+00 0.  1.
<mgrwt>
<rscale>  1 0.30000000E+03</rscale>
<asrwt>0</asrwt>
<pdfrwt beam="1">  1        1 0.15236524E+00 0.30000000E+03</pdfrwt>
<pdfrwt beam="2">0</pdfrwt>
<totfact> 0.17475827E+01</totfact>
</mgrwt>
</event>
<event>
 6    1  0.1901260E-004  0.3000000E+03  0.7818608E-02  0.1093470E+00
          1   -1    0    0  502    0  0.00000000000E+00  0.00000000000E+00  0.37316018452E+02  0.37316018452E+02  0.00000000000E+00 0.  1.
         13   -1    0    0    0    0 -0.00000000000E+00 -0.00000000000E+00 -0.10000000000E+04  0.10000000000E+04  0.00000000000E+00 0.  1.
    9000005    2    1    2  501    0 -0.55584182528E+01  0.18797394480E+02 -0.96797094495E+03  0.10170135547E+04  0.31139136486E+03 0.  0.
         13    1    3    3    0    0 -0.12433195156E+03 -0.70735296458E+02 -0.29565939138E+03  0.32844541716E+03  0.00000000000E+00 0.  1.
          3    1    3    3  501    0  0.11877353330E+03  0.89532690938E+02 -0.67231155357E+03  0.68856813753E+03  0.00000000000E+00 0.  1.
         21    1    1    2  502  501  0.55584182528E+01 -0.18797394480E+02  0.52869634026E+01  0.20302463760E+02  0.00000000000E+00 0. -1.
<mgrwt>
<rscale>  1 0.30000000E+03</rscale>
<asrwt>0</asrwt>
<pdfrwt beam="1">  1        1 0.13569490E+00 0.30000000E+03</pdfrwt>
<pdfrwt beam="2">0</pdfrwt>
<totfact> 0.21319856E+01</totfact>
</mgrwt>
</event>
<event>
 6    1  0.1901260E-004  0.3000000E+03  0.7818608E-02  0.1093470E+00
          1   -1    0    0  502    0  0.00000000000E+00  0.00000000000E+00  0.34249006150E+02  0.34249006150E+02  0.00000000000E+00 0.  1.
         13   -1    0    0    0    0 -0.00000000000E+00 -0.00000000000E+00 -0.10000000000E+04  0.10000000000E+04  0.00000000000E+00 0.  1.
    9000005    2    1    2  501    0 -0.27763239676E+02  0.17910405494E+02 -0.92530904674E+03  0.98202706452E+03  0.32724416474E+03 0.  0.
         13    1    3    3    0    0  0.13372699518E+03 -0.19674816412E+02 -0.22605136811E+03  0.26338038778E+03  0.00000000000E+00 0.  1.
          3    1    3    3  501    0 -0.16149023486E+03  0.37585221906E+02 -0.69925767863E+03  0.71864667674E+03  0.00000000000E+00 0.  1.
         21    1    1    2  502  501  0.27763239676E+02 -0.17910405494E+02 -0.40441947108E+02  0.52221941635E+02  0.00000000000E+00 0. -1.
<mgrwt>
<rscale>  1 0.30000000E+03</rscale>
<asrwt>0</asrwt>
<pdfrwt beam="1">  1        1 0.12454210E+00 0.30000000E+03</pdfrwt>
<pdfrwt beam="2">0</pdfrwt>
<totfact> 0.24516930E+01</totfact>
</mgrwt>
</event>
<event>
 6    1  0.1901260E-004  0.3000000E+03  0.7818608E-02  0.1093470E+00
          1   -1    0    0  502    0  0.00000000000E+00  0.00000000000E+00  0.57502542713E+02  0.57502542713E+02  0.00000000000E+00 0.  1.
         13   -1    0    0    0    0 -0.00000000000E+00 -0.00000000000E+00 -0.10000000000E+04  0.10000000000E+04  0.00000000000E+00 0.  1.
    9000005    2    1    2  501    0  0.68374307349E+02 -0.37037114848E+02 -0.90515130652E+03  0.97123824674E+03  0.34345021541E+03 0.  0.
         13    1    3    3    0    0 -0.11040787416E+03  0.16322721663E+01 -0.11204006407E+03  0.15730714842E+03  0.00000000000E+00 0.  1.
          1    1    3    3  501    0  0.17878218150E+03 -0.38669387014E+02 -0.79311124245E+03  0.81393109833E+03  0.00000000000E+00 0.  1.
         21    1    1    2  502  501 -0.68374307349E+02  0.37037114848E+02 -0.37346150768E+02  0.86264295968E+02  0.00000000000E+00 0. -1.
<mgrwt>
<rscale>  1 0.30000000E+03</rscale>
<asrwt>0</asrwt>
<pdfrwt beam="1">  1        1 0.20910060E+00 0.30000000E+03</pdfrwt>
<pdfrwt beam="2">0</pdfrwt>
<totfact> 0.92754312E+00</totfact>
</mgrwt>
</event>
<event>
 6    1  0.1901260E-004  0.3000000E+03  0.7818608E-02  0.1093470E+00
          1   -1    0    0  502    0  0.00000000000E+00  0.00000000000E+00  0.31393859105E+02  0.31393859105E+02  0.00000000000E+00 0.  1.
         13   -1    0    0    0    0 -0.00000000000E+00 -0.00000000000E+00 -0.10000000000E+04  0.10000000000E+04  0.00000000000E+00 0.  1.
    9000005    2    1    2  501    0 -0.19252077053E+01 -0.19874721152E+02 -0.95146322810E+03  0.10050767463E+04  0.32326193810E+03 0.  0.
         13    1    3    3    0    0 -0.13352631664E+03 -0.95637754210E+02 -0.38406750171E+03  0.41771246467E+03  0.00000000000E+00 0.  1.
          3    1    3    3  501    0  0.13160110894E+03  0.75763033058E+02 -0.56739572639E+03  0.58736428167E+03  0.00000000000E+00 0.  1.
         21    1    1    2  502  501  0.19252077053E+01  0.19874721152E+02 -0.17142912791E+02  0.26317112770E+02  0.00000000000E+00 0. -1.
<mgrwt>
<rscale>  1 0.30000000E+03</rscale>
<asrwt>0</asrwt>
<pdfrwt beam="1">  1        1 0.11415973E+00 0.30000000E+03</pdfrwt>
<pdfrwt beam="2">0</pdfrwt>
<totfact> 0.28079879E+01</totfact>
</mgrwt>
</event>
<event>
 6    1  0.1901260E-004  0.3000000E+03  0.7818608E-02  0.1093470E+00
          1   -1    0    0  502    0  0.00000000000E+00  0.00000000000E+00  0.34759971990E+02  0.34759971990E+02  0.00000000000E+00 0.  1.
         13   -1    0    0    0    0 -0.00000000000E+00 -0.00000000000E+00 -0.10000000000E+04  0.10000000000E+04  0.00000000000E+00 0.  1.
    9000005    2    1    2  501    0 -0.51081104483E+01 -0.44780324253E+02 -0.88122907287E+03  0.93942261931E+03  0.32236440338E+03 0.  0.
         13    1    3    3    0    0 -0.12438273343E+02 -0.12829101237E+03 -0.83257891876E+03  0.84249685487E+03  0.00000000000E+00 0.  1.
          1    1    3    3  501    0  0.73301628948E+01  0.83510688117E+02 -0.48650154113E+02  0.96925764444E+02  0.00000000000E+00 0.  1.
         21    1    1    2  502  501  0.51081104483E+01  0.44780324253E+02 -0.84010955135E+02  0.95337352676E+02  0.00000000000E+00 0.  1.
<mgrwt>
<rscale>  1 0.30000000E+03</rscale>
<asrwt>0</asrwt>
<pdfrwt beam="1">  1        1 0.12640016E+00 0.30000000E+03</pdfrwt>
<pdfrwt beam="2">0</pdfrwt>
<totfact> 0.23943232E+01</totfact>
</mgrwt>
</event>
<event>
 6    1  0.1901260E-004  0.3000000E+03  0.7818608E-02  0.1093470E+00
          1   -1    0    0  502    0  0.00000000000E+00  0.00000000000E+00  0.38763275409E+02  0.38763275409E+02  0.00000000000E+00 0.  1.
         13   -1    0    0    0    0 -0.00000000000E+00 -0.00000000000E+00 -0.10000000000E+04  0.10000000000E+04  0.00000000000E+00 0.  1.
    9000005    2    1    2  501    0 -0.36861795877E+02 -0.14971921868E+02 -0.91740660985E+03  0.97956843275E+03  0.34108133370E+03 0.  0.
         13    1    3    3    0    0 -0.15487523834E+03 -0.49241299622E+02 -0.23215408515E+03  0.28338412851E+03  0.00000000000E+00 0.  1.
          1    1    3    3  501    0  0.11801344247E+03  0.34269377755E+02 -0.68525252470E+03  0.69618430424E+03  0.00000000000E+00 0.  1.
         21    1    1    2  502  501  0.36861795877E+02  0.14971921868E+02 -0.43830114741E+02  0.59194842663E+02  0.00000000000E+00 0.  1.
<mgrwt>
<rscale>  1 0.30000000E+03</rscale>
<asrwt>0</asrwt>
<pdfrwt beam="1">  1        1 0.14095766E+00 0.30000000E+03</pdfrwt>
<pdfrwt beam="2">0</pdfrwt>
<totfact> 0.20000002E+01</totfact>
</mgrwt>
</event>
<event>
 6    1  0.1901260E-004  0.3000000E+03  0.7818608E-02  0.1093470E+00
          1   -1    0    0  502    0  0.00000000000E+00  0.00000000000E+00  0.29935109436E+02  0.29935109436E+02  0.00000000000E+00 0.  1.
         13   -1    0    0    0    0 -0.00000000000E+00 -0.00000000000E+00 -0.10000000000E+04  0.10000000000E+04  0.00000000000E+00 0.  1.
    9000005    2    1    2  501    0 -0.17673024501E+02  0.76529598592E+01 -0.95240392287E+03  0.10038044116E+04  0.31651091743E+03 0.  0.
         13    1    3    3    0    0  0.89632095711E+02 -0.55973436306E+02 -0.79955942222E+03  0.80651237300E+03  0.00000000000E+00 0.  1.
          1    1    3    3  501    0 -0.10730512021E+03  0.63626396165E+02 -0.15284450066E+03  0.19729203860E+03  0.00000000000E+00 0.  1.
         21    1    1    2  502  501  0.17673024501E+02 -0.76529598592E+01 -0.17660967692E+02  0.26130697836E+02  0.00000000000E+00 0. -1.
<mgrwt>
<rscale>  1 0.30000000E+03</rscale>
<asrwt>0</asrwt>
<pdfrwt beam="1">  1        1 0.10885517E+00 0.30000000E+03</pdfrwt>
<pdfrwt beam="2">0</pdfrwt>
<totfact> 0.30181702E+01</totfact>
</mgrwt>
</event>
<event>
 6    1  0.1901260E-004  0.3000000E+03  0.7818608E-02  0.1093470E+00
          1   -1    0    0  502    0  0.00000000000E+00  0.00000000000E+00  0.46486795128E+02  0.46486795128E+02  0.00000000000E+00 0.  1.
         13   -1    0    0    0    0 -0.00000000000E+00 -0.00000000000E+00 -0.10000000000E+04  0.10000000000E+04  0.00000000000E+00 0.  1.
    9000005    2    1    2  501    0  0.31486467083E+01  0.10667154944E+02 -0.97181730147E+03  0.10250685290E+04  0.32590323652E+03 0.  0.
         13    1    3    3    0    0  0.37062798591E+02 -0.14617139378E+03 -0.62491282261E+03  0.64284972059E+03  0.00000000000E+00 0.  1.
          1    1    3    3  501    0 -0.33914151882E+02  0.15683854872E+03 -0.34690447886E+03  0.38221880843E+03  0.00000000000E+00 0.  1.
         21    1    1    2  502  501 -0.31486467083E+01 -0.10667154944E+02  0.18304096601E+02  0.21418266108E+02  0.00000000000E+00 0. -1.
<mgrwt>
<rscale>  1 0.30000000E+03</rscale>
<asrwt>0</asrwt>
<pdfrwt beam="1">  1        1 0.16904325E+00 0.30000000E+03</pdfrwt>
<pdfrwt beam="2">0</pdfrwt>
<totfact> 0.14441960E+01</totfact>
</mgrwt>
</event>
<event>
 6    1  0.1901260E-004  0.3000000E+03  0.7818608E-02  0.1093470E+00
          1   -1    0    0  502    0  0.00000000000E+00  0.00000000000E+00  0.47113633806E+02  0.47113633806E+02  0.00000000000E+00 0.  1.
         13   -1    0    0    0    0 -0.00000000000E+00 -0.00000000000E+00 -0.10000000000E+04  0.10000000000E+04  0.00000000000E+00 0.  1.
    9000005    2    1    2  501    0 -0.20376074293E+00  0.15939359357E+02 -0.96604742944E+03  0.10264419556E+04  0.34652755670E+03 0.  0.
         13    1    3    3    0    0 -0.57310337133E+02  0.16912428224E+03 -0.41838676900E+03  0.45490107283E+03  0.00000000000E+00 0.  1.
          3    1    3    3  501    0  0.57106576390E+02 -0.15318492288E+03 -0.54766066044E+03  0.57154088275E+03  0.00000000000E+00 0.  1.
         21    1    1    2  502  501  0.20376074293E+00 -0.15939359357E+02  0.13161063243E+02  0.20671678229E+02  0.00000000000E+00 0. -1.
<mgrwt>
<rscale>  1 0.30000000E+03</rscale>
<asrwt>0</asrwt>
<pdfrwt beam="1">  1        1 0.17132267E+00 0.30000000E+03</pdfrwt>
<pdfrwt beam="2">0</pdfrwt>
<totfact> 0.14076295E+01</totfact>
</mgrwt>
</event>
<event>
 6    1  0.1901260E-004  0.3000000E+03  0.7818608E-02  0.1093470E+00
          1   -1    0    0  502    0  0.00000000000E+00  0.00000000000E+00  0.32063126463E+02  0.32063126463E+02  0.00000000000E+00 0.  1.
         13   -1    0    0    0    0 -0.00000000000E+00 -0.00000000000E+00 -0.10000000000E+04  0.10000000000E+04  0.00000000000E+00 0.  1.
    9000005    2    1    2  501    0  0.20928020500E+02  0.63348213379E+01 -0.91655628813E+03  0.97622338649E+03  0.33534841437E+03 0.  0.
         13    1    3    3    0    0 -0.31489443026E+02  0.15391939487E+03 -0.28392161948E+03  0.32449075664E+03  0.00000000000E+00 0.  1.
          3    1    3    3  501    0  0.52417463526E+02 -0.14758457353E+03 -0.63263466865E+03  0.65173262985E+03  0.00000000000E+00 0.  1.
         21    1    1    2  502  501 -0.20928020500E+02 -0.63348213379E+01 -0.51380585410E+02  0.55839739975E+02  0.00000000000E+00 0. -1.
<mgrwt>
<rscale>  1 0.30000000E+03</rscale>
<asrwt>0</asrwt>
<pdfrwt beam="1">  1        1 0.11659343E+00 0.30000000E+03</pdfrwt>
<pdfrwt beam="2">0</pdfrwt>
<totfact> 0.27184491E+01</totfact>
</mgrwt>
</event>
<event>
 6    1  0.1901260E-004  0.3000000E+03  0.7818608E-02  0.1093470E+00
          3   -1    0    0  502    0  0.00000000000E+00  0.00000000000E+00  0.32126564302E+02  0.32126564302E+02  0.00000000000E+00 0.  1.
         13   -1    0    0    0    0 -0.00000000000E+00 -0.00000000000E+00 -0.10000000000E+04  0.10000000000E+04  0.00000000000E+00 0.  1.
    9000005    2    1    2  501    0  0.54128020410E+01  0.25292315308E+02 -0.92367816112E+03  0.98091892879E+03  0.32916804203E+03 0.  0.
         13    1    3    3    0    0  0.29873872428E+02 -0.23538000547E+02 -0.92549314010E+03  0.92627427800E+03  0.00000000000E+00 0.  1.
          1    1    3    3  501    0 -0.24461070387E+02  0.48830315855E+02  0.18149789778E+01  0.54644650787E+02  0.00000000000E+00 0.  1.
         21    1    1    2  502  501 -0.54128020410E+01 -0.25292315308E+02 -0.44195274579E+02  0.51207635511E+02  0.00000000000E+00 0.  1.
<mgrwt>
<rscale>  1 0.30000000E+03</rscale>
<asrwt>0</asrwt>
<pdfrwt beam="1">  1        3 0.11682412E+00 0.30000000E+03</pdfrwt>
<pdfrwt beam="2">0</pdfrwt>
<totfact> 0.25171424E+00</totfact>
</mgrwt>
</event>
<event>
 6    1  0.1901260E-004  0.3000000E+03  0.7818608E-02  0.1093470E+00
          1   -1    0    0  502    0  0.00000000000E+00  0.00000000000E+00  0.39905223711E+02  0.39905223711E+02  0.00000000000E+00 0.  1.
         13   -1    0    0    0    0 -0.00000000000E+00 -0.00000000000E+00 -0.10000000000E+04  0.10000000000E+04  0.00000000000E+00 0.  1.
    9000005    2    1    2  501    0 -0.20421972798E+02 -0.30528778308E+02 -0.94489296695E+03  0.10001540189E+04  0.32578563385E+03 0.  0.
         13    1    3    3    0    0  0.39055116996E+02 -0.15241146786E+03 -0.72441305758E+03  0.74130212174E+03  0.00000000000E+00 0.  1.
          3    1    3    3  501    0 -0.59477089794E+02  0.12188268955E+03 -0.22047990936E+03  0.25885189714E+03  0.00000000000E+00 0.  1.
         21    1    1    2  502  501  0.20421972798E+02  0.30528778308E+02 -0.15201809343E+02  0.39751204828E+02  0.00000000000E+00 0.  1.
<mgrwt>
<rscale>  1 0.30000000E+03</rscale>
<asrwt>0</asrwt>
<pdfrwt beam="1">  1        1 0.14511021E+00 0.30000000E+03</pdfrwt>
<pdfrwt beam="2">0</pdfrwt>
<totfact> 0.19031259E+01</totfact>
</mgrwt>
</event>
<event>
 6    1  0.1901260E-004  0.3000000E+03  0.7818608E-02  0.1093470E+00
          1   -1    0    0  502    0  0.00000000000E+00  0.00000000000E+00  0.31792380600E+02  0.31792380600E+02  0.00000000000E+00 0.  1.
         13   -1    0    0    0    0 -0.00000000000E+00 -0.00000000000E+00 -0.10000000000E+04  0.10000000000E+04  0.00000000000E+00 0.  1.
    9000005    2    1    2  501    0 -0.11975772151E+02 -0.29434476273E+02 -0.91475881144E+03  0.96961052967E+03  0.31992356687E+03 0.  0.
         13    1    3    3    0    0  0.84654154495E+02  0.11783936065E+03 -0.43259499094E+03  0.45627937383E+03  0.00000000000E+00 0.  1.
          1    1    3    3  501    0 -0.96629926646E+02 -0.14727383693E+03 -0.48216382050E+03  0.51333115584E+03  0.00000000000E+00 0.  1.
         21    1    1    2  502  501  0.11975772151E+02  0.29434476273E+02 -0.53448807962E+02  0.62181850926E+02  0.00000000000E+00 0.  1.
<mgrwt>
<rscale>  1 0.30000000E+03</rscale>
<asrwt>0</asrwt>
<pdfrwt beam="1">  1        1 0.11560890E+00 0.30000000E+03</pdfrwt>
<pdfrwt beam="2">0</pdfrwt>
<totfact> 0.27541838E+01</totfact>
</mgrwt>
</event>
<event>
 6    1  0.1901260E-004  0.3000000E+03  0.7818608E-02  0.1093470E+00
          1   -1    0    0  502    0  0.00000000000E+00  0.00000000000E+00  0.52059459081E+02  0.52059459081E+02  0.00000000000E+00 0.  1.
         13   -1    0    0    0    0 -0.00000000000E+00 -0.00000000000E+00 -0.10000000000E+04  0.10000000000E+04  0.00000000000E+00 0.  1.
    9000005    2    1    2  501    0 -0.57694945214E+00 -0.11204060992E+02 -0.96997776219E+03  0.10273308729E+04  0.33826912275E+03 0.  0.
         13    1    3    3    0    0  0.12124949382E+03  0.10841806503E+03 -0.38506761320E+03  0.41801074545E+03  0.00000000000E+00 0.  1.
          1    1    3    3  501    0 -0.12182644327E+03 -0.11962212603E+03 -0.58491014899E+03  0.60932012744E+03  0.00000000000E+00 0.  1.
         21    1    1    2  502  501  0.57694945214E+00  0.11204060992E+02  0.22037221271E+02  0.24728586186E+02  0.00000000000E+00 0.  1.
<mgrwt>
<rscale>  1 0.30000000E+03</rscale>
<asrwt>0</asrwt>
<pdfrwt beam="1">  1        1 0.18930752E+00 0.30000000E+03</pdfrwt>
<pdfrwt beam="2">0</pdfrwt>
<totfact> 0.11521842E+01</totfact>
</mgrwt>
</event>
<event>
 6    1  0.1901260E-004  0.3000000E+03  0.7818608E-02  0.1093470E+00
          1   -1    0    0  502    0  0.00000000000E+00  0.00000000000E+00  0.31660371603E+02  0.31660371603E+02  0.00000000000E+00 0.  1.
         13   -1    0    0    0    0 -0.00000000000E+00 -0.00000000000E+00 -0.10000000000E+04  0.10000000000E+04  0.00000000000E+00 0.  1.
    9000005    2    1    2  501    0  0.20557369334E+02  0.12881992541E+02 -0.94329535856E+03  0.99679252657E+03  0.32124858968E+03 0.  0.
         13    1    3    3    0    0 -0.81683116553E+02  0.41104673247E+02 -0.85186800425E+03  0.85676182359E+03  0.00000000000E+00 0.  1.
          1    1    3    3  501    0  0.10224048589E+03 -0.28222680706E+02 -0.91427354307E+02  0.14003070298E+03  0.00000000000E+00 0.  1.
         21    1    1    2  502  501 -0.20557369334E+02 -0.12881992541E+02 -0.25044269835E+02  0.34867845034E+02  0.00000000000E+00 0.  1.
<mgrwt>
<rscale>  1 0.30000000E+03</rscale>
<asrwt>0</asrwt>
<pdfrwt beam="1">  1        1 0.11512887E+00 0.30000000E+03</pdfrwt>
<pdfrwt beam="2">0</pdfrwt>
<totfact> 0.27718448E+01</totfact>
</mgrwt>
</event>
<event>
 6    1  0.1901260E-004  0.3000000E+03  0.7818608E-02  0.1093470E+00
          1   -1    0    0  502    0  0.00000000000E+00  0.00000000000E+00  0.39433750727E+02  0.39433750727E+02  0.00000000000E+00 0.  1.
         13   -1    0    0    0    0 -0.00000000000E+00 -0.00000000000E+00 -0.10000000000E+04  0.10000000000E+04  0.00000000000E+00 0.  1.
    9000005    2    1    2  501    0 -0.56339683018E+01  0.21243576864E+02 -0.96168074071E+03  0.10174275414E+04  0.33143011908E+03 0.  0.
         13    1    3    3    0    0  0.21285247238E+02 -0.97366366072E+02 -0.81117202843E+02  0.12850397499E+03  0.00000000000E+00 0.  1.
          3    1    3    3  501    0 -0.26919215540E+02  0.11860994294E+03 -0.88056353787E+03  0.88892356643E+03  0.00000000000E+00 0.  1.
         21    1    1    2  502  501  0.56339683018E+01 -0.21243576864E+02  0.11144914396E+01  0.22006209305E+02  0.00000000000E+00 0. -1.
<mgrwt>
<rscale>  1 0.30000000E+03</rscale>
<asrwt>0</asrwt>
<pdfrwt beam="1">  1        1 0.14339576E+00 0.30000000E+03</pdfrwt>
<pdfrwt beam="2">0</pdfrwt>
<totfact> 0.19423865E+01</totfact>
</mgrwt>
</event>
<event>
 6    1  0.1901260E-004  0.3000000E+03  0.7818608E-02  0.1093470E+00
          1   -1    0    0  502    0  0.00000000000E+00  0.00000000000E+00  0.27733478246E+02  0.27733478246E+02  0.00000000000E+00 0.  1.
         13   -1    0    0    0    0 -0.00000000000E+00 -0.00000000000E+00 -0.10000000000E+04  0.10000000000E+04  0.00000000000E+00 0.  1.
    9000005    2    1    2  501    0  0.63280503932E+00 -0.96808243819E+01 -0.96693558210E+03  0.10166638025E+04  0.31392156446E+03 0.  0.
         13    1    3    3    0    0 -0.19647657879E+02  0.28478282051E+02  0.12116428204E+02  0.36658571182E+02  0.00000000000E+00 0.  1.
          1    1    3    3  501    0  0.20280462918E+02 -0.38159106433E+02 -0.97905201031E+03  0.98000523134E+03  0.00000000000E+00 0.  1.
         21    1    1    2  502  501 -0.63280503932E+00  0.96808243819E+01 -0.53309396530E+01  0.11069675719E+02  0.00000000000E+00 0.  1.
<mgrwt>
<rscale>  1 0.30000000E+03</rscale>
<asrwt>0</asrwt>
<pdfrwt beam="1">  1        1 0.10084922E+00 0.30000000E+03</pdfrwt>
<pdfrwt beam="2">0</pdfrwt>
<totfact> 0.33805819E+01</totfact>
</mgrwt>
</event>
<event>
 6    1  0.1901260E-004  0.3000000E+03  0.7818608E-02  0.1093470E+00
          3   -1    0    0  502    0  0.00000000000E+00  0.00000000000E+00  0.34288431354E+02  0.34288431354E+02  0.00000000000E+00 0.  1.
         13   -1    0    0    0    0 -0.00000000000E+00 -0.00000000000E+00 -0.10000000000E+04  0.10000000000E+04  0.00000000000E+00 0.  1.
    9000005    2    1    2  501    0  0.14093133743E+02  0.76909511620E+01 -0.96346029578E+03  0.10180762329E+04  0.32858135575E+03 0.  0.
         13    1    3    3    0    0 -0.50311300281E+01 -0.12491189699E+03 -0.78516533255E+03  0.79505527715E+03  0.00000000000E+00 0.  1.
          3    1    3    3  501    0  0.19124263771E+02  0.13260284815E+03 -0.17829496323E+03  0.22302095577E+03  0.00000000000E+00 0.  1.
         21    1    1    2  502  501 -0.14093133743E+02 -0.76909511620E+01 -0.22512728650E+01  0.16212198431E+02  0.00000000000E+00 0. -1.
<mgrwt>
<rscale>  1 0.30000000E+03</rscale>
<asrwt>0</asrwt>
<pdfrwt beam="1">  1        3 0.12468547E+00 0.30000000E+03</pdfrwt>
<pdfrwt beam="2">0</pdfrwt>
<totfact> 0.20405443E+00</totfact>
</mgrwt>
</event>
<event>
 6    1  0.1901260E-004  0.3000000E+03  0.7818608E-02  0.1093470E+00
          1   -1    0    0  502    0  0.00000000000E+00  0.00000000000E+00  0.57555123866E+02  0.57555123866E+02  0.00000000000E+00 0.  1.
         13   -1    0    0    0    0 -0.00000000000E+00 -0.00000000000E+00 -0.10000000000E+04  0.10000000000E+04  0.00000000000E+00 0.  1.
    9000005    2    1    2  501    0 -0.59592913724E+01 -0.41132183792E+02 -0.96097488368E+03  0.10120498398E+04  0.31471380889E+03 0.  0.
         13    1    3    3    0    0 -0.64347569667E+02 -0.16682034707E+03 -0.53178983344E+03  0.56104372812E+03  0.00000000000E+00 0.  1.
          3    1    3    3  501    0  0.58388278295E+02  0.12568816328E+03 -0.42918505024E+03  0.45100611169E+03  0.00000000000E+00 0.  1.
         21    1    1    2  502  501  0.59592913724E+01  0.41132183792E+02  0.18530007545E+02  0.45505284053E+02  0.00000000000E+00 0.  1.
<mgrwt>
<rscale>  1 0.30000000E+03</rscale>
<asrwt>0</asrwt>
<pdfrwt beam="1">  1        1 0.20929180E+00 0.30000000E+03</pdfrwt>
<pdfrwt beam="2">0</pdfrwt>
<totfact> 0.92561933E+00</totfact>
</mgrwt>
</event>
<event>
 6    1  0.1901260E-004  0.3000000E+03  0.7818608E-02  0.1093470E+00
          1   -1    0    0  502    0  0.00000000000E+00  0.00000000000E+00  0.79322924878E+02  0.79322924878E+02  0.00000000000E+00 0.  1.
         13   -1    0    0    0    0 -0.00000000000E+00 -0.00000000000E+00 -0.10000000000E+04  0.10000000000E+04  0.00000000000E+00 0.  1.
    9000005    2    1    2  501    0  0.59280913941E+02 -0.12253552239E+03 -0.82166152907E+03  0.91099806229E+03  0.36913496195E+03 0.  0.
         13    1    3    3    0    0  0.40359538497E+02 -0.12116511569E+03 -0.46969144744E+02  0.13607342931E+03  0.00000000000E+00 0.  1.
          1    1    3    3  501    0  0.18921375443E+02 -0.13704067079E+01 -0.77469238432E+03  0.77492463298E+03  0.00000000000E+00 0.  1.
         21    1    1    2  502  501 -0.59280913941E+02  0.12253552239E+03 -0.99015546054E+02  0.16832486259E+03  0.00000000000E+00 0.  1.
<mgrwt>
<rscale>  1 0.30000000E+03</rscale>
<asrwt>0</asrwt>
<pdfrwt beam="1">  1        1 0.28844761E+00 0.30000000E+03</pdfrwt>
<pdfrwt beam="2">0</pdfrwt>
<totfact> 0.39406080E+00</totfact>
</mgrwt>
</event>
<event>
 6    1  0.1901260E-004  0.3000000E+03  0.7818608E-02  0.1093470E+00
          1   -1    0    0  502    0  0.00000000000E+00  0.00000000000E+00  0.29779153719E+02  0.29779153719E+02  0.00000000000E+00 0.  1.
         13   -1    0    0    0    0 -0.00000000000E+00 -0.00000000000E+00 -0.10000000000E+04  0.10000000000E+04  0.00000000000E+00 0.  1.
    9000005    2    1    2  501    0  0.14965973706E+02  0.37059184607E+02 -0.91193152392E+03  0.95910377870E+03  0.29438680416E+03 0.  0.
         13    1    3    3    0    0 -0.79381025064E+02  0.90801466645E+02 -0.16532236375E+03  0.20464050782E+03  0.00000000000E+00 0.  1.
          1    1    3    3  501    0  0.94346998769E+02 -0.53742282038E+02 -0.74660916018E+03  0.75446327088E+03  0.00000000000E+00 0.  1.
         21    1    1    2  502  501 -0.14965973706E+02 -0.37059184607E+02 -0.58289322358E+02  0.70675375016E+02  0.00000000000E+00 0.  1.
<mgrwt>
<rscale>  1 0.30000000E+03</rscale>
<asrwt>0</asrwt>
<pdfrwt beam="1">  1        1 0.10828806E+00 0.30000000E+03</pdfrwt>
<pdfrwt beam="2">0</pdfrwt>
<totfact> 0.30419512E+01</totfact>
</mgrwt>
</event>
<event>
 6    1  0.1901260E-004  0.3000000E+03  0.7818608E-02  0.1093470E+00
          1   -1    0    0  502    0  0.00000000000E+00  0.00000000000E+00  0.37053733213E+02  0.37053733213E+02  0.00000000000E+00 0.  1.
         13   -1    0    0    0    0 -0.00000000000E+00 -0.00000000000E+00 -0.10000000000E+04  0.10000000000E+04  0.00000000000E+00 0.  1.
    9000005    2    1    2  501    0  0.16555349774E+02 -0.26641800299E+01 -0.96647853156E+03  0.10199173872E+04  0.32537600899E+03 0.  0.
         13    1    3    3    0    0 -0.11515571704E+03  0.56245253807E+02 -0.74256350622E+03  0.75354159043E+03  0.00000000000E+00 0.  1.
          1    1    3    3  501    0  0.13171106681E+03 -0.58909433837E+02 -0.22391502534E+03  0.26637579674E+03  0.00000000000E+00 0.  1.
         21    1    1    2  502  501 -0.16555349774E+02  0.26641800299E+01  0.35322647708E+01  0.17136346045E+02  0.00000000000E+00 0.  1.
<mgrwt>
<rscale>  1 0.30000000E+03</rscale>
<asrwt>0</asrwt>
<pdfrwt beam="1">  1        1 0.13474113E+00 0.30000000E+03</pdfrwt>
<pdfrwt beam="2">0</pdfrwt>
<totfact> 0.21571086E+01</totfact>
</mgrwt>
</event>
<event>
 6    1  0.1901260E-004  0.3000000E+03  0.7818608E-02  0.1093470E+00
          1   -1    0    0  502    0  0.00000000000E+00  0.00000000000E+00  0.26894183638E+02  0.26894183638E+02  0.00000000000E+00 0.  1.
         13   -1    0    0    0    0 -0.00000000000E+00 -0.00000000000E+00 -0.10000000000E+04  0.10000000000E+04  0.00000000000E+00 0.  1.
    9000005    2    1    2  501    0  0.59020544465E+01  0.78382360129E+01 -0.96547368294E+03  0.10144635098E+04  0.31128846454E+03 0.  0.
         13    1    3    3    0    0  0.78545858801E+02 -0.82815878230E+02 -0.13896634163E+03  0.17983204867E+03  0.00000000000E+00 0.  1.
          1    1    3    3  501    0 -0.72643804355E+02  0.90654114243E+02 -0.82650734131E+03  0.83463146117E+03  0.00000000000E+00 0.  1.
         21    1    1    2  502  501 -0.59020544465E+01 -0.78382360129E+01 -0.76321334213E+01  0.12430673797E+02  0.00000000000E+00 0.  1.
<mgrwt>
<rscale>  1 0.30000000E+03</rscale>
<asrwt>0</asrwt>
<pdfrwt beam="1">  1        1 0.97797238E-01 0.30000000E+03</pdfrwt>
<pdfrwt beam="2">0</pdfrwt>
<totfact> 0.35356031E+01</totfact>
</mgrwt>
</event>
<event>
 6    1  0.1901260E-004  0.3000000E+03  0.7818608E-02  0.1093470E+00
          1   -1    0    0  502    0  0.00000000000E+00  0.00000000000E+00  0.47810633892E+02  0.47810633892E+02  0.00000000000E+00 0.  1.
         13   -1    0    0    0    0 -0.00000000000E+00 -0.00000000000E+00 -0.10000000000E+04  0.10000000000E+04  0.00000000000E+00 0.  1.
    9000005    2    1    2  501    0 -0.74871270510E+01  0.31844329446E+02 -0.95784903030E+03  0.10146119865E+04  0.33300540525E+03 0.  0.
         13    1    3    3    0    0  0.85262037174E+02 -0.10469351592E+03 -0.66389703600E+03  0.67748772806E+03  0.00000000000E+00 0.  1.
          1    1    3    3  501    0 -0.92749164225E+02  0.13653784537E+03 -0.29395199430E+03  0.33712425845E+03  0.00000000000E+00 0.  1.
         21    1    1    2  502  501  0.74871270510E+01 -0.31844329446E+02  0.56596641942E+01  0.33198647384E+02  0.00000000000E+00 0.  1.
<mgrwt>
<rscale>  1 0.30000000E+03</rscale>
<asrwt>0</asrwt>
<pdfrwt beam="1">  1        1 0.17385722E+00 0.30000000E+03</pdfrwt>
<pdfrwt beam="2">0</pdfrwt>
<totfact> 0.13681786E+01</totfact>
</mgrwt>
</event>
<event>
 6    1  0.1901260E-004  0.3000000E+03  0.7818608E-02  0.1093470E+00
          1   -1    0    0  502    0  0.00000000000E+00  0.00000000000E+00  0.30468591889E+02  0.30468591889E+02  0.00000000000E+00 0.  1.
         13   -1    0    0    0    0 -0.00000000000E+00 -0.00000000000E+00 -0.10000000000E+04  0.10000000000E+04  0.00000000000E+00 0.  1.
    9000005    2    1    2  501    0  0.55067733758E+01 -0.89291711438E+01 -0.95320852179E+03  0.10110652090E+04  0.33695150415E+03 0.  0.
         13    1    3    3    0    0 -0.92217546122E+00 -0.13453209320E+03 -0.80730385585E+03  0.81843707771E+03  0.00000000000E+00 0.  1.
          3    1    3    3  501    0  0.64289488370E+01  0.12560292206E+03 -0.14590466594E+03  0.19262813127E+03  0.00000000000E+00 0.  1.
         21    1    1    2  502  501 -0.55067733758E+01  0.89291711438E+01 -0.16322886320E+02  0.19403382905E+02  0.00000000000E+00 0. -1.
<mgrwt>
<rscale>  1 0.30000000E+03</rscale>
<asrwt>0</asrwt>
<pdfrwt beam="1">  1        1 0.11079511E+00 0.30000000E+03</pdfrwt>
<pdfrwt beam="2">0</pdfrwt>
<totfact> 0.29387932E+01</totfact>
</mgrwt>
</event>
<event>
 6    1  0.1901260E-004  0.3000000E+03  0.7818608E-02  0.1093470E+00
          1   -1    0    0  502    0  0.00000000000E+00  0.00000000000E+00  0.48149790064E+02  0.48149790064E+02  0.00000000000E+00 0.  1.
         13   -1    0    0    0    0 -0.00000000000E+00 -0.00000000000E+00 -0.10000000000E+04  0.10000000000E+04  0.00000000000E+00 0.  1.
    9000005    2    1    2  501    0 -0.97918936057E+02 -0.10586575085E+02 -0.78593171252E+03  0.85520124408E+03  0.32245979211E+03 0.  0.
         13    1    3    3    0    0 -0.81581723061E+02 -0.19427813769E+02 -0.16407742447E+02  0.85453095308E+02  0.00000000000E+00 0.  1.
          3    1    3    3  501    0 -0.16337212996E+02  0.88412386842E+01 -0.76952397007E+03  0.76974814878E+03  0.00000000000E+00 0.  1.
         21    1    1    2  502  501  0.97918936057E+02  0.10586575085E+02 -0.16591849742E+03  0.19294854598E+03  0.00000000000E+00 0.  1.
<mgrwt>
<rscale>  1 0.30000000E+03</rscale>
<asrwt>0</asrwt>
<pdfrwt beam="1">  1        1 0.17509051E+00 0.30000000E+03</pdfrwt>
<pdfrwt beam="2">0</pdfrwt>
<totfact> 0.13494173E+01</totfact>
</mgrwt>
</event>
<event>
 6    1  0.1901260E-004  0.3000000E+03  0.7818608E-02  0.1093470E+00
          1   -1    0    0  502    0  0.00000000000E+00  0.00000000000E+00  0.30684351635E+02  0.30684351635E+02  0.00000000000E+00 0.  1.
         13   -1    0    0    0    0 -0.00000000000E+00 -0.00000000000E+00 -0.10000000000E+04  0.10000000000E+04  0.00000000000E+00 0.  1.
    9000005    2    1    2  501    0 -0.11921118877E+02  0.16919457745E+02 -0.90063372205E+03  0.95895159672E+03  0.32866195768E+03 0.  0.
         13    1    3    3    0    0 -0.88680342525E+02 -0.10239713683E+03 -0.70142638177E+03  0.71438669209E+03  0.00000000000E+00 0.  1.
          1    1    3    3  501    0  0.76759223647E+02  0.11931659458E+03 -0.19920734028E+03  0.24456490463E+03  0.00000000000E+00 0.  1.
         21    1    1    2  502  501  0.11921118877E+02 -0.16919457745E+02 -0.68681926313E+02  0.71732754916E+02  0.00000000000E+00 0. -1.
<mgrwt>
<rscale>  1 0.30000000E+03</rscale>
<asrwt>0</asrwt>
<pdfrwt beam="1">  1        1 0.11157970E+00 0.30000000E+03</pdfrwt>
<pdfrwt beam="2">0</pdfrwt>
<totfact> 0.29075296E+01</totfact>
</mgrwt>
</event>
<event>
 6    1  0.1901260E-004  0.3000000E+03  0.7818608E-02  0.1093470E+00
          1   -1    0    0  502    0  0.00000000000E+00  0.00000000000E+00  0.34547595643E+02  0.34547595643E+02  0.00000000000E+00 0.  1.
         13   -1    0    0    0    0 -0.00000000000E+00 -0.00000000000E+00 -0.10000000000E+04  0.10000000000E+04  0.00000000000E+00 0.  1.
    9000005    2    1    2  501    0  0.14800686564E+02  0.56087177726E+01 -0.96532542216E+03  0.10187193247E+04  0.32509286939E+03 0.  0.
         13    1    3    3    0    0 -0.52533615518E+02  0.15326716612E+03 -0.52543792792E+03  0.54985054430E+03  0.00000000000E+00 0.  1.
          3    1    3    3  501    0  0.67334302082E+02 -0.14765844835E+03 -0.43988749425E+03  0.46886878036E+03  0.00000000000E+00 0.  1.
         21    1    1    2  502  501 -0.14800686564E+02 -0.56087177726E+01 -0.12698219482E+00  0.15828270983E+02  0.00000000000E+00 0.  1.
<mgrwt>
<rscale>  1 0.30000000E+03</rscale>
<asrwt>0</asrwt>
<pdfrwt beam="1">  1        1 0.12562789E+00 0.30000000E+03</pdfrwt>
<pdfrwt beam="2">0</pdfrwt>
<totfact> 0.24179589E+01</totfact>
</mgrwt>
</event>
<event>
 6    1  0.1901260E-004  0.3000000E+03  0.7818608E-02  0.1093470E+00
          1   -1    0    0  502    0  0.00000000000E+00  0.00000000000E+00  0.35259721974E+02  0.35259721974E+02  0.00000000000E+00 0.  1.
         13   -1    0    0    0    0 -0.00000000000E+00 -0.00000000000E+00 -0.10000000000E+04  0.10000000000E+04  0.00000000000E+00 0.  1.
    9000005    2    1    2  501    0  0.13413535837E+02  0.35113798180E+01 -0.97030700565E+03  0.10203184641E+04  0.31521711588E+03 0.  0.
         13    1    3    3    0    0  0.18992578060E+02  0.15861433819E+03 -0.46144579368E+03  0.48831490537E+03  0.00000000000E+00 0.  1.
          1    1    3    3  501    0 -0.55790422231E+01 -0.15510295837E+03 -0.50886121197E+03  0.53200355869E+03  0.00000000000E+00 0.  1.
         21    1    1    2  502  501 -0.13413535837E+02 -0.35113798180E+01  0.55667276223E+01  0.14941257922E+02  0.00000000000E+00 0.  1.
<mgrwt>
<rscale>  1 0.30000000E+03</rscale>
<asrwt>0</asrwt>
<pdfrwt beam="1">  1        1 0.12821744E+00 0.30000000E+03</pdfrwt>
<pdfrwt beam="2">0</pdfrwt>
<totfact> 0.23398599E+01</totfact>
</mgrwt>
</event>
<event>
 6    1  0.1901260E-004  0.3000000E+03  0.7818608E-02  0.1093470E+00
          3   -1    0    0  502    0  0.00000000000E+00  0.00000000000E+00  0.29216300986E+02  0.29216300986E+02  0.00000000000E+00 0.  1.
         13   -1    0    0    0    0 -0.00000000000E+00 -0.00000000000E+00 -0.10000000000E+04  0.10000000000E+04  0.00000000000E+00 0.  1.
    9000005    2    1    2  501    0  0.67499622135E-02  0.13106568162E+02 -0.95306507422E+03  0.10071769761E+04  0.32542379049E+03 0.  0.
         13    1    3    3    0    0  0.92607069361E+02  0.12328194982E+03 -0.69298168967E+03  0.70992825741E+03  0.00000000000E+00 0.  1.
          1    1    3    3  501    0 -0.92600319398E+02 -0.11017538166E+03 -0.26008338454E+03  0.29724871874E+03  0.00000000000E+00 0.  1.
         21    1    1    2  502  501 -0.67499622135E-02 -0.13106568162E+02 -0.17718624797E+02  0.22039324837E+02  0.00000000000E+00 0.  1.
<mgrwt>
<rscale>  1 0.30000000E+03</rscale>
<asrwt>0</asrwt>
<pdfrwt beam="1">  1        3 0.10624132E+00 0.30000000E+03</pdfrwt>
<pdfrwt beam="2">0</pdfrwt>
<totfact> 0.33258139E+00</totfact>
</mgrwt>
</event>
<event>
 6    1  0.1901260E-004  0.3000000E+03  0.7818608E-02  0.1093470E+00
          1   -1    0    0  502    0  0.00000000000E+00  0.00000000000E+00  0.32342900013E+02  0.32342900013E+02  0.00000000000E+00 0.  1.
         13   -1    0    0    0    0 -0.00000000000E+00 -0.00000000000E+00 -0.10000000000E+04  0.10000000000E+04  0.00000000000E+00 0.  1.
    9000005    2    1    2  501    0  0.30987496716E+02  0.10860550861E+02 -0.92570210031E+03  0.97906627741E+03  0.31712492890E+03 0.  0.
         13    1    3    3    0    0  0.12574423734E+03 -0.83163139883E+02 -0.26381229334E+03  0.30384971149E+03  0.00000000000E+00 0.  1.
          3    1    3    3  501    0 -0.94756740626E+02  0.94023690744E+02 -0.66188980697E+03  0.67521656592E+03  0.00000000000E+00 0.  1.
         21    1    1    2  502  501 -0.30987496716E+02 -0.10860550861E+02 -0.41954999681E+02  0.53276622602E+02  0.00000000000E+00 0. -1.
<mgrwt>
<rscale>  1 0.30000000E+03</rscale>
<asrwt>0</asrwt>
<pdfrwt beam="1">  1        1 0.11761079E+00 0.30000000E+03</pdfrwt>
<pdfrwt beam="2">0</pdfrwt>
<totfact> 0.26821928E+01</totfact>
</mgrwt>
</event>
<event>
 6    1  0.1901260E-004  0.3000000E+03  0.7818608E-02  0.1093470E+00
          1   -1    0    0  502    0  0.00000000000E+00  0.00000000000E+00  0.62050095794E+02  0.62050095794E+02  0.00000000000E+00 0.  1.
         13   -1    0    0    0    0 -0.00000000000E+00 -0.00000000000E+00 -0.10000000000E+04  0.10000000000E+04  0.00000000000E+00 0.  1.
    9000005    2    1    2  501    0 -0.95529593901E+02 -0.63237984955E+02 -0.86195512206E+03  0.92457226862E+03  0.31423287765E+03 0.  0.
         13    1    3    3    0    0  0.69758880714E+02  0.86689412845E+02 -0.28023316611E+03  0.30151614073E+03  0.00000000000E+00 0.  1.
          1    1    3    3  501    0 -0.16528847461E+03 -0.14992739780E+03 -0.58172195596E+03  0.62305612788E+03  0.00000000000E+00 0.  1.
         21    1    1    2  502  501  0.95529593901E+02  0.63237984955E+02 -0.75994782144E+02  0.13747782718E+03  0.00000000000E+00 0.  1.
<mgrwt>
<rscale>  1 0.30000000E+03</rscale>
<asrwt>0</asrwt>
<pdfrwt beam="1">  1        1 0.22563719E+00 0.30000000E+03</pdfrwt>
<pdfrwt beam="2">0</pdfrwt>
<totfact> 0.77568800E+00</totfact>
</mgrwt>
</event>
<event>
 6    1  0.1901260E-004  0.3000000E+03  0.7818608E-02  0.1093470E+00
          1   -1    0    0  502    0  0.00000000000E+00  0.00000000000E+00  0.27922884538E+02  0.27922884538E+02  0.00000000000E+00 0.  1.
         13   -1    0    0    0    0 -0.00000000000E+00 -0.00000000000E+00 -0.10000000000E+04  0.10000000000E+04  0.00000000000E+00 0.  1.
    9000005    2    1    2  501    0 -0.91522284053E+01  0.63239397441E+01 -0.94702792151E+03  0.10005145351E+04  0.32255804970E+03 0.  0.
         13    1    3    3    0    0 -0.20283212143E+02  0.75385166062E+02 -0.34568230484E+02  0.85377365360E+02  0.00000000000E+00 0.  1.
          1    1    3    3  501    0  0.11130983737E+02 -0.69061226318E+02 -0.91245969102E+03  0.91513716978E+03  0.00000000000E+00 0.  1.
         21    1    1    2  502  501  0.91522284053E+01 -0.63239397441E+01 -0.25049193956E+02  0.27408349395E+02  0.00000000000E+00 0.  1.
<mgrwt>
<rscale>  1 0.30000000E+03</rscale>
<asrwt>0</asrwt>
<pdfrwt beam="1">  1        1 0.10153798E+00 0.30000000E+03</pdfrwt>
<pdfrwt beam="2">0</pdfrwt>
<totfact> 0.33469837E+01</totfact>
</mgrwt>
</event>
<event>
 6    1  0.1901260E-004  0.3000000E+03  0.7818608E-02  0.1093470E+00
          1   -1    0    0  502    0  0.00000000000E+00  0.00000000000E+00  0.46312245636E+02  0.46312245636E+02  0.00000000000E+00 0.  1.
         13   -1    0    0    0    0 -0.00000000000E+00 -0.00000000000E+00 -0.10000000000E+04  0.10000000000E+04  0.00000000000E+00 0.  1.
    9000005    2    1    2  501    0  0.67858019640E+02  0.52408004168E+02 -0.83989464302E+03  0.90383353873E+03  0.32270845145E+03 0.  0.
         13    1    3    3    0    0 -0.21036371058E+02  0.15775997535E+03 -0.23769536289E+03  0.28605912722E+03  0.00000000000E+00 0.  1.
          1    1    3    3  501    0  0.88894390698E+02 -0.10535197118E+03 -0.60219928013E+03  0.61777441151E+03  0.00000000000E+00 0.  1.
         21    1    1    2  502  501 -0.67858019640E+02 -0.52408004168E+02 -0.11379311135E+03  0.14247870690E+03  0.00000000000E+00 0.  1.
<mgrwt>
<rscale>  1 0.30000000E+03</rscale>
<asrwt>0</asrwt>
<pdfrwt beam="1">  1        1 0.16840852E+00 0.30000000E+03</pdfrwt>
<pdfrwt beam="2">0</pdfrwt>
<totfact> 0.14545679E+01</totfact>
</mgrwt>
</event>
<event>
 6    1  0.1901260E-004  0.3000000E+03  0.7818608E-02  0.1093470E+00
          1   -1    0    0  502    0  0.00000000000E+00  0.00000000000E+00  0.28385000068E+02  0.28385000068E+02  0.00000000000E+00 0.  1.
         13   -1    0    0    0    0 -0.00000000000E+00 -0.00000000000E+00 -0.10000000000E+04  0.10000000000E+04  0.00000000000E+00 0.  1.
    9000005    2    1    2  501    0 -0.14045736566E+02 -0.20288429495E+01 -0.91368707039E+03  0.96874404149E+03  0.32162020521E+03 0.  0.
         13    1    3    3    0    0  0.14872215789E+03 -0.16963432707E+02 -0.55018682100E+03  0.57018556304E+03  0.00000000000E+00 0.  1.
          1    1    3    3  501    0 -0.16276789445E+03  0.14934589758E+02 -0.36350024939E+03  0.39855847844E+03  0.00000000000E+00 0.  1.
         21    1    1    2  502  501  0.14045736566E+02  0.20288429495E+01 -0.57927929542E+02  0.59640958581E+02  0.00000000000E+00 0. -1.
<mgrwt>
<rscale>  1 0.30000000E+03</rscale>
<asrwt>0</asrwt>
<pdfrwt beam="1">  1        1 0.10321840E+00 0.30000000E+03</pdfrwt>
<pdfrwt beam="2">0</pdfrwt>
<totfact> 0.32670339E+01</totfact>
</mgrwt>
</event>
<event>
 6    1  0.1901260E-004  0.3000000E+03  0.7818608E-02  0.1093470E+00
          3   -1    0    0  502    0  0.00000000000E+00  0.00000000000E+00  0.32656462306E+02  0.32656462306E+02  0.00000000000E+00 0.  1.
         13   -1    0    0    0    0 -0.00000000000E+00 -0.00000000000E+00 -0.10000000000E+04  0.10000000000E+04  0.00000000000E+00 0.  1.
    9000005    2    1    2  501    0 -0.12165149117E+02  0.10776425923E+02 -0.97275131903E+03  0.10155285229E+04  0.29118538763E+03 0.  0.
         13    1    3    3    0    0 -0.92487263484E+02 -0.18655477125E+02 -0.89490688236E+03  0.89986679504E+03  0.00000000000E+00 0.  1.
          1    1    3    3  501    0  0.80322114367E+02  0.29431903048E+02 -0.77844436675E+02  0.11566172787E+03  0.00000000000E+00 0.  1.
         21    1    1    2  502  501  0.12165149117E+02 -0.10776425923E+02  0.54077813378E+01  0.17127939389E+02  0.00000000000E+00 0. -1.
<mgrwt>
<rscale>  1 0.30000000E+03</rscale>
<asrwt>0</asrwt>
<pdfrwt beam="1">  1        3 0.11875102E+00 0.30000000E+03</pdfrwt>
<pdfrwt beam="2">0</pdfrwt>
<totfact> 0.23913361E+00</totfact>
</mgrwt>
</event>
<event>
 6    1  0.1901260E-004  0.3000000E+03  0.7818608E-02  0.1093470E+00
          1   -1    0    0  502    0  0.00000000000E+00  0.00000000000E+00  0.39279947094E+02  0.39279947094E+02  0.00000000000E+00 0.  1.
         13   -1    0    0    0    0 -0.00000000000E+00 -0.00000000000E+00 -0.10000000000E+04  0.10000000000E+04  0.00000000000E+00 0.  1.
    9000005    2    1    2  501    0  0.15388920467E+02  0.14892285717E+02 -0.96280390404E+03  0.10177638721E+04  0.32923144244E+03 0.  0.
         13    1    3    3    0    0  0.23960635455E+02  0.15731171646E+03 -0.29802181587E+03  0.33784329344E+03  0.00000000000E+00 0.  1.
          3    1    3    3  501    0 -0.85717149874E+01 -0.14241943074E+03 -0.66478208817E+03  0.67992057868E+03  0.00000000000E+00 0.  1.
         21    1    1    2  502  501 -0.15388920467E+02 -0.14892285717E+02  0.20838511366E+01  0.21516074981E+02  0.00000000000E+00 0.  1.
<mgrwt>
<rscale>  1 0.30000000E+03</rscale>
<asrwt>0</asrwt>
<pdfrwt beam="1">  1        1 0.14283647E+00 0.30000000E+03</pdfrwt>
<pdfrwt beam="2">0</pdfrwt>
<totfact> 0.19554150E+01</totfact>
</mgrwt>
</event>
<event>
 6    1  0.1901260E-004  0.3000000E+03  0.7818608E-02  0.1093470E+00
          3   -1    0    0  502    0  0.00000000000E+00  0.00000000000E+00  0.30318452567E+02  0.30318452567E+02  0.00000000000E+00 0.  1.
         13   -1    0    0    0    0 -0.00000000000E+00 -0.00000000000E+00 -0.10000000000E+04  0.10000000000E+04  0.00000000000E+00 0.  1.
    9000005    2    1    2  501    0 -0.16589777290E+02  0.55460254640E+01 -0.92899659483E+03  0.98603251261E+03  0.33002948902E+03 0.  0.
         13    1    3    3    0    0 -0.73099811764E+02 -0.10445433011E+03 -0.14815629405E+03  0.19545991156E+03  0.00000000000E+00 0.  1.
          1    1    3    3  501    0  0.56510034474E+02  0.11000035558E+03 -0.78084030078E+03  0.79057260105E+03  0.00000000000E+00 0.  1.
         21    1    1    2  502  501  0.16589777290E+02 -0.55460254640E+01 -0.40684952607E+02  0.44285939954E+02  0.00000000000E+00 0.  1.
<mgrwt>
<rscale>  1 0.30000000E+03</rscale>
<asrwt>0</asrwt>
<pdfrwt beam="1">  1        3 0.11024915E+00 0.30000000E+03</pdfrwt>
<pdfrwt beam="2">0</pdfrwt>
<totfact> 0.29939766E+00</totfact>
</mgrwt>
</event>
<event>
 6    1  0.1901260E-004  0.3000000E+03  0.7818608E-02  0.1093470E+00
          1   -1    0    0  502    0  0.00000000000E+00  0.00000000000E+00  0.29332595236E+02  0.29332595236E+02  0.00000000000E+00 0.  1.
         13   -1    0    0    0    0 -0.00000000000E+00 -0.00000000000E+00 -0.10000000000E+04  0.10000000000E+04  0.00000000000E+00 0.  1.
    9000005    2    1    2  501    0 -0.92873210943E+01  0.13265285074E+02 -0.96721792490E+03  0.10127759944E+04  0.29990411532E+03 0.  0.
         13    1    3    3    0    0 -0.57273263028E+02 -0.64333206973E+02 -0.70164456604E+02  0.11109473051E+03  0.00000000000E+00 0.  1.
          3    1    3    3  501    0  0.47985941933E+02  0.77598492048E+02 -0.89705346830E+03  0.90168126385E+03  0.00000000000E+00 0.  1.
         21    1    1    2  502  501  0.92873210943E+01 -0.13265285074E+02 -0.34494798640E+01  0.16556600875E+02  0.00000000000E+00 0. -1.
<mgrwt>
<rscale>  1 0.30000000E+03</rscale>
<asrwt>0</asrwt>
<pdfrwt beam="1">  1        1 0.10666421E+00 0.30000000E+03</pdfrwt>
<pdfrwt beam="2">0</pdfrwt>
<totfact> 0.31115469E+01</totfact>
</mgrwt>
</event>
<event>
 6    1  0.1901260E-004  0.3000000E+03  0.7818608E-02  0.1093470E+00
          1   -1    0    0  502    0  0.00000000000E+00  0.00000000000E+00  0.28345568249E+02  0.28345568249E+02  0.00000000000E+00 0.  1.
         13   -1    0    0    0    0 -0.00000000000E+00 -0.00000000000E+00 -0.10000000000E+04  0.10000000000E+04  0.00000000000E+00 0.  1.
    9000005    2    1    2  501    0 -0.37315937951E+01  0.96682399116E+01 -0.94458843863E+03  0.99936337304E+03  0.32614787035E+03 0.  0.
         13    1    3    3    0    0 -0.87188921820E+02 -0.82360399163E+02 -0.79909144748E+03  0.80804225439E+03  0.00000000000E+00 0.  1.
          3    1    3    3  501    0  0.83457328025E+02  0.92028639075E+02 -0.14549699115E+03  0.19132111866E+03  0.00000000000E+00 0.  1.
         21    1    1    2  502  501  0.37315937951E+01 -0.96682399116E+01 -0.27065993121E+02  0.28982195205E+02  0.00000000000E+00 0. -1.
<mgrwt>
<rscale>  1 0.30000000E+03</rscale>
<asrwt>0</asrwt>
<pdfrwt beam="1">  1        1 0.10307501E+00 0.30000000E+03</pdfrwt>
<pdfrwt beam="2">0</pdfrwt>
<totfact> 0.32737465E+01</totfact>
</mgrwt>
</event>
<event>
 6    1  0.1901260E-004  0.3000000E+03  0.7818608E-02  0.1093470E+00
          1   -1    0    0  502    0  0.00000000000E+00  0.00000000000E+00  0.29884493641E+02  0.29884493641E+02  0.00000000000E+00 0.  1.
         13   -1    0    0    0    0 -0.00000000000E+00 -0.00000000000E+00 -0.10000000000E+04  0.10000000000E+04  0.00000000000E+00 0.  1.
    9000005    2    1    2  501    0  0.11147000749E+02  0.21162516440E+01 -0.96092280298E+03  0.10152817562E+04  0.32756018828E+03 0.  0.
         13    1    3    3    0    0  0.21657087013E+02 -0.15592653184E+03 -0.61487143007E+03  0.63470385872E+03  0.00000000000E+00 0.  1.
          3    1    3    3  501    0 -0.10510086264E+02  0.15804278349E+03 -0.34605137291E+03  0.38057789744E+03  0.00000000000E+00 0.  1.
         21    1    1    2  502  501 -0.11147000749E+02 -0.21162516440E+01 -0.91927033776E+01  0.14602737487E+02  0.00000000000E+00 0.  1.
<mgrwt>
<rscale>  1 0.30000000E+03</rscale>
<asrwt>0</asrwt>
<pdfrwt beam="1">  1        1 0.10867112E+00 0.30000000E+03</pdfrwt>
<pdfrwt beam="2">0</pdfrwt>
<totfact> 0.30258592E+01</totfact>
</mgrwt>
</event>
<event>
 6    1  0.1901260E-004  0.3000000E+03  0.7818608E-02  0.1093470E+00
          1   -1    0    0  502    0  0.00000000000E+00  0.00000000000E+00  0.38179581980E+02  0.38179581980E+02  0.00000000000E+00 0.  1.
         13   -1    0    0    0    0 -0.00000000000E+00 -0.00000000000E+00 -0.10000000000E+04  0.10000000000E+04  0.00000000000E+00 0.  1.
    9000005    2    1    2  501    0 -0.10706639860E+02 -0.47920879152E+01 -0.96814937691E+03  0.10248509675E+04  0.33595936257E+03 0.  0.
         13    1    3    3    0    0  0.64577951791E+02  0.15017352573E+03 -0.44612816257E+03  0.47513444111E+03  0.00000000000E+00 0.  1.
          1    1    3    3  501    0 -0.75284591652E+02 -0.15496561364E+03 -0.52202121434E+03  0.54971652638E+03  0.00000000000E+00 0.  1.
         21    1    1    2  502  501  0.10706639860E+02  0.47920879152E+01  0.63289588912E+01  0.13328614494E+02  0.00000000000E+00 0. -1.
<mgrwt>
<rscale>  1 0.30000000E+03</rscale>
<asrwt>0</asrwt>
<pdfrwt beam="1">  1        1 0.13883514E+00 0.30000000E+03</pdfrwt>
<pdfrwt beam="2">0</pdfrwt>
<totfact> 0.20519360E+01</totfact>
</mgrwt>
</event>
<event>
 6    1  0.1901260E-004  0.3000000E+03  0.7818608E-02  0.1093470E+00
          1   -1    0    0  502    0  0.00000000000E+00  0.00000000000E+00  0.32424963631E+02  0.32424963631E+02  0.00000000000E+00 0.  1.
         13   -1    0    0    0    0 -0.00000000000E+00 -0.00000000000E+00 -0.10000000000E+04  0.10000000000E+04  0.00000000000E+00 0.  1.
    9000005    2    1    2  501    0  0.76633204488E+01 -0.32594954661E+02 -0.87772618178E+03  0.93653974986E+03  0.32493429386E+03 0.  0.
         13    1    3    3    0    0 -0.12644056148E+03 -0.36977414113E+02 -0.16423199544E+03  0.21053905354E+03  0.00000000000E+00 0.  1.
          3    1    3    3  501    0  0.13410388193E+03  0.43824594512E+01 -0.71349418635E+03  0.72600069632E+03  0.00000000000E+00 0.  1.
         21    1    1    2  502  501 -0.76633204488E+01  0.32594954661E+02 -0.89848854586E+02  0.95885213772E+02  0.00000000000E+00 0.  1.
<mgrwt>
<rscale>  1 0.30000000E+03</rscale>
<asrwt>0</asrwt>
<pdfrwt beam="1">  1        1 0.11790921E+00 0.30000000E+03</pdfrwt>
<pdfrwt beam="2">0</pdfrwt>
<totfact> 0.26716840E+01</totfact>
</mgrwt>
</event>
<event>
 6    1  0.1901260E-004  0.3000000E+03  0.7818608E-02  0.1093470E+00
          1   -1    0    0  502    0  0.00000000000E+00  0.00000000000E+00  0.46593775371E+02  0.46593775371E+02  0.00000000000E+00 0.  1.
         13   -1    0    0    0    0 -0.00000000000E+00 -0.00000000000E+00 -0.10000000000E+04  0.10000000000E+04  0.00000000000E+00 0.  1.
    9000005    2    1    2  501    0  0.42920519279E+01 -0.38209659690E+02 -0.95178610919E+03  0.10081096932E+04  0.33001508473E+03 0.  0.
         13    1    3    3    0    0  0.36250844571E+02  0.99461581372E+02 -0.77296489892E+03  0.78018040533E+03  0.00000000000E+00 0.  1.
          3    1    3    3  501    0 -0.31958792643E+02 -0.13767124106E+03 -0.17882121027E+03  0.22792928791E+03  0.00000000000E+00 0.  1.
         21    1    1    2  502  501 -0.42920519279E+01  0.38209659690E+02 -0.16201154355E+01  0.38484082131E+02  0.00000000000E+00 0. -1.
<mgrwt>
<rscale>  1 0.30000000E+03</rscale>
<asrwt>0</asrwt>
<pdfrwt beam="1">  1        1 0.16943227E+00 0.30000000E+03</pdfrwt>
<pdfrwt beam="2">0</pdfrwt>
<totfact> 0.14378805E+01</totfact>
</mgrwt>
</event>
<event>
 6    1  0.1901260E-004  0.3000000E+03  0.7818608E-02  0.1093470E+00
          1   -1    0    0  502    0  0.00000000000E+00  0.00000000000E+00  0.43075121169E+02  0.43075121169E+02  0.00000000000E+00 0.  1.
         13   -1    0    0    0    0 -0.00000000000E+00 -0.00000000000E+00 -0.10000000000E+04  0.10000000000E+04  0.00000000000E+00 0.  1.
    9000005    2    1    2  501    0  0.35433772123E+01  0.16780332984E+02 -0.96916480436E+03  0.10220049794E+04  0.32391298959E+03 0.  0.
         13    1    3    3    0    0 -0.38618507859E+02 -0.11210015921E+03 -0.14759709594E+03  0.18932178315E+03  0.00000000000E+00 0.  1.
          1    1    3    3  501    0  0.42161885072E+02  0.12888049219E+03 -0.82156770841E+03  0.83268319626E+03  0.00000000000E+00 0.  1.
         21    1    1    2  502  501 -0.35433772123E+01 -0.16780332984E+02  0.12239925524E+02  0.21070141765E+02  0.00000000000E+00 0.  1.
<mgrwt>
<rscale>  1 0.30000000E+03</rscale>
<asrwt>0</asrwt>
<pdfrwt beam="1">  1        1 0.15663713E+00 0.30000000E+03</pdfrwt>
<pdfrwt beam="2">0</pdfrwt>
<totfact> 0.16632768E+01</totfact>
</mgrwt>
</event>
<event>
 6    1  0.1901260E-004  0.3000000E+03  0.7818608E-02  0.1093470E+00
          1   -1    0    0  502    0  0.00000000000E+00  0.00000000000E+00  0.45362394586E+02  0.45362394586E+02  0.00000000000E+00 0.  1.
         13   -1    0    0    0    0 -0.00000000000E+00 -0.00000000000E+00 -0.10000000000E+04  0.10000000000E+04  0.00000000000E+00 0.  1.
    9000005    2    1    2  501    0 -0.26052152604E+02  0.14401895538E+01 -0.96561781872E+03  0.10170541999E+04  0.31827768528E+03 0.  0.
         13    1    3    3    0    0 -0.72756403721E+02  0.13189280449E+03 -0.28377307181E+03  0.32127303410E+03  0.00000000000E+00 0.  1.
          1    1    3    3  501    0  0.46704251116E+02 -0.13045261494E+03 -0.68184474691E+03  0.69578116581E+03  0.00000000000E+00 0.  1.
         21    1    1    2  502  501  0.26052152604E+02 -0.14401895538E+01  0.10980213302E+02  0.28308194669E+02  0.00000000000E+00 0. -1.
<mgrwt>
<rscale>  1 0.30000000E+03</rscale>
<asrwt>0</asrwt>
<pdfrwt beam="1">  1        1 0.16495451E+00 0.30000000E+03</pdfrwt>
<pdfrwt beam="2">0</pdfrwt>
<totfact> 0.15125109E+01</totfact>
</mgrwt>
</event>
<event>
 6    1  0.1901260E-004  0.3000000E+03  0.7818608E-02  0.1093470E+00
          1   -1    0    0  502    0  0.00000000000E+00  0.00000000000E+00  0.34698032694E+02  0.34698032694E+02  0.00000000000E+00 0.  1.
         13   -1    0    0    0    0 -0.00000000000E+00 -0.00000000000E+00 -0.10000000000E+04  0.10000000000E+04  0.00000000000E+00 0.  1.
    9000005    2    1    2  501    0 -0.22808507045E+02  0.26764776988E+02 -0.92344566470E+03  0.98003057118E+03  0.32629962229E+03 0.  0.
         13    1    3    3    0    0 -0.17046879545E+01 -0.75596024375E+02 -0.84742876794E+03  0.85079561682E+03  0.00000000000E+00 0.  1.
          3    1    3    3  501    0 -0.21103819091E+02  0.10236080136E+03 -0.76016896764E+02  0.12923495436E+03  0.00000000000E+00 0.  1.
         21    1    1    2  502  501  0.22808507045E+02 -0.26764776988E+02 -0.41856302602E+02  0.54667461514E+02  0.00000000000E+00 0. -1.
<mgrwt>
<rscale>  1 0.30000000E+03</rscale>
<asrwt>0</asrwt>
<pdfrwt beam="1">  1        1 0.12617493E+00 0.30000000E+03</pdfrwt>
<pdfrwt beam="2">0</pdfrwt>
<totfact> 0.24011860E+01</totfact>
</mgrwt>
</event>
<event>
 6    1  0.1901260E-004  0.3000000E+03  0.7818608E-02  0.1093470E+00
          1   -1    0    0  502    0  0.00000000000E+00  0.00000000000E+00  0.37254768039E+02  0.37254768039E+02  0.00000000000E+00 0.  1.
         13   -1    0    0    0    0 -0.00000000000E+00 -0.00000000000E+00 -0.10000000000E+04  0.10000000000E+04  0.00000000000E+00 0.  1.
    9000005    2    1    2  501    0 -0.90744814481E+01 -0.72378086088E+01 -0.97987860902E+03  0.10165597277E+04  0.27036430866E+03 0.  0.
         13    1    3    3    0    0  0.95443496775E+02 -0.83739644356E+02 -0.64757682356E+03  0.65990721433E+03  0.00000000000E+00 0.  1.
          3    1    3    3  501    0 -0.10451797822E+03  0.76501835748E+02 -0.33230178546E+03  0.35665251333E+03  0.00000000000E+00 0.  1.
         21    1    1    2  502  501  0.90744814481E+01  0.72378086088E+01  0.17133377057E+02  0.20695040381E+02  0.00000000000E+00 0.  1.
<mgrwt>
<rscale>  1 0.30000000E+03</rscale>
<asrwt>0</asrwt>
<pdfrwt beam="1">  1        1 0.13547217E+00 0.30000000E+03</pdfrwt>
<pdfrwt beam="2">0</pdfrwt>
<totfact> 0.21378174E+01</totfact>
</mgrwt>
</event>
<event>
 6    1  0.1901260E-004  0.3000000E+03  0.7818608E-02  0.1093470E+00
          1   -1    0    0  502    0  0.00000000000E+00  0.00000000000E+00  0.28800169807E+02  0.28800169807E+02  0.00000000000E+00 0.  1.
         13   -1    0    0    0    0 -0.00000000000E+00 -0.00000000000E+00 -0.10000000000E+04  0.10000000000E+04  0.00000000000E+00 0.  1.
    9000005    2    1    2  501    0  0.39009088025E+01  0.88041390091E+01 -0.95888782362E+03  0.10131695761E+04  0.32703822672E+03 0.  0.
         13    1    3    3    0    0  0.12252402639E+03 -0.28521820446E+02 -0.80756272966E+03  0.81730238811E+03  0.00000000000E+00 0.  1.
          1    1    3    3  501    0 -0.11862311758E+03  0.37325959455E+02 -0.15132509396E+03  0.19586718801E+03  0.00000000000E+00 0.  1.
         21    1    1    2  502  501 -0.39009088025E+01 -0.88041390091E+01 -0.12312006571E+02  0.15630593686E+02  0.00000000000E+00 0.  1.
<mgrwt>
<rscale>  1 0.30000000E+03</rscale>
<asrwt>0</asrwt>
<pdfrwt beam="1">  1        1 0.10472811E+00 0.30000000E+03</pdfrwt>
<pdfrwt beam="2">0</pdfrwt>
<totfact> 0.31975569E+01</totfact>
</mgrwt>
</event>
<event>
 6    1  0.1901260E-004  0.3000000E+03  0.7818608E-02  0.1093470E+00
          3   -1    0    0  502    0  0.00000000000E+00  0.00000000000E+00  0.30971942160E+02  0.30971942160E+02  0.00000000000E+00 0.  1.
         13   -1    0    0    0    0 -0.00000000000E+00 -0.00000000000E+00 -0.10000000000E+04  0.10000000000E+04  0.00000000000E+00 0.  1.
    9000005    2    1    2  501    0 -0.57014024578E+01 -0.20923401516E+02 -0.94224273307E+03  0.99650821711E+03  0.32363090710E+03 0.  0.
         13    1    3    3    0    0  0.22402328459E+02 -0.17015004174E+03 -0.53653651489E+03  0.56331548251E+03  0.00000000000E+00 0.  1.
          1    1    3    3  501    0 -0.28103730916E+02  0.14922664023E+03 -0.40570621818E+03  0.43319273460E+03  0.00000000000E+00 0.  1.
         21    1    1    2  502  501  0.57014024578E+01  0.20923401516E+02 -0.26785324773E+02  0.34463725048E+02  0.00000000000E+00 0.  1.
<mgrwt>
<rscale>  1 0.30000000E+03</rscale>
<asrwt>0</asrwt>
<pdfrwt beam="1">  1        3 0.11262548E+00 0.30000000E+03</pdfrwt>
<pdfrwt beam="2">0</pdfrwt>
<totfact> 0.28127687E+00</totfact>
</mgrwt>
</event>
<event>
 6    1  0.1901260E-004  0.3000000E+03  0.7818608E-02  0.1093470E+00
          1   -1    0    0  502    0  0.00000000000E+00  0.00000000000E+00  0.52146094633E+02  0.52146094633E+02  0.00000000000E+00 0.  1.
         13   -1    0    0    0    0 -0.00000000000E+00 -0.00000000000E+00 -0.10000000000E+04  0.10000000000E+04  0.00000000000E+00 0.  1.
    9000005    2    1    2  501    0  0.28996311747E+02  0.34083658965E+02 -0.95484356950E+03  0.10068544033E+04  0.31627055699E+03 0.  0.
         13    1    3    3    0    0  0.85250674128E+02  0.12200484318E+03 -0.83398650352E+03  0.84716370747E+03  0.00000000000E+00 0.  1.
          1    1    3    3  501    0 -0.56254362381E+02 -0.87921184220E+02 -0.12085706599E+03  0.15969069579E+03  0.00000000000E+00 0.  1.
         21    1    1    2  502  501 -0.28996311747E+02 -0.34083658965E+02  0.69896641376E+01  0.45291691380E+02  0.00000000000E+00 0.  1.
<mgrwt>
<rscale>  1 0.30000000E+03</rscale>
<asrwt>0</asrwt>
<pdfrwt beam="1">  1        1 0.18962256E+00 0.30000000E+03</pdfrwt>
<pdfrwt beam="2">0</pdfrwt>
<totfact> 0.11481786E+01</totfact>
</mgrwt>
</event>
<event>
 6    1  0.1901260E-004  0.3000000E+03  0.7818608E-02  0.1093470E+00
          1   -1    0    0  502    0  0.00000000000E+00  0.00000000000E+00  0.37243190150E+02  0.37243190150E+02  0.00000000000E+00 0.  1.
         13   -1    0    0    0    0 -0.00000000000E+00 -0.00000000000E+00 -0.10000000000E+04  0.10000000000E+04  0.00000000000E+00 0.  1.
    9000005    2    1    2  501    0  0.11940356743E+02  0.20466099350E+02 -0.96136052359E+03  0.10135075006E+04  0.32003431718E+03 0.  0.
         13    1    3    3    0    0 -0.91491908237E+02  0.11071727729E+03 -0.73400202729E+03  0.74792249654E+03  0.00000000000E+00 0.  1.
          3    1    3    3  501    0  0.10343226498E+03 -0.90251177938E+02 -0.22735849629E+03  0.26558500408E+03  0.00000000000E+00 0.  1.
         21    1    1    2  502  501 -0.11940356743E+02 -0.20466099350E+02 -0.13962862618E+01  0.23735689522E+02  0.00000000000E+00 0. -1.
<mgrwt>
<rscale>  1 0.30000000E+03</rscale>
<asrwt>0</asrwt>
<pdfrwt beam="1">  1        1 0.13543007E+00 0.30000000E+03</pdfrwt>
<pdfrwt beam="2">0</pdfrwt>
<totfact> 0.21389222E+01</totfact>
</mgrwt>
</event>
<event>
 6    1  0.1901260E-004  0.3000000E+03  0.7818608E-02  0.1093470E+00
          1   -1    0    0  502    0  0.00000000000E+00  0.00000000000E+00  0.36767942638E+02  0.36767942638E+02  0.00000000000E+00 0.  1.
         13   -1    0    0    0    0 -0.00000000000E+00 -0.00000000000E+00 -0.10000000000E+04  0.10000000000E+04  0.00000000000E+00 0.  1.
    9000005    2    1    2  501    0 -0.95167041522E+01  0.54939520774E+01 -0.96913574521E+03  0.10242937814E+04  0.33141048098E+03 0.  0.
         13    1    3    3    0    0 -0.90499183702E+02 -0.94831465077E+02 -0.80485641757E+03  0.81546119584E+03  0.00000000000E+00 0.  1.
          3    1    3    3  501    0  0.80982479550E+02  0.10032541715E+03 -0.16427932764E+03  0.20883258561E+03  0.00000000000E+00 0.  1.
         21    1    1    2  502  501  0.95167041522E+01 -0.54939520774E+01  0.59036878433E+01  0.12474161194E+02  0.00000000000E+00 0.  1.
<mgrwt>
<rscale>  1 0.30000000E+03</rscale>
<asrwt>0</asrwt>
<pdfrwt beam="1">  1        1 0.13370189E+00 0.30000000E+03</pdfrwt>
<pdfrwt beam="2">0</pdfrwt>
<totfact> 0.21849333E+01</totfact>
</mgrwt>
</event>
<event>
 6    1  0.1901260E-004  0.3000000E+03  0.7818608E-02  0.1093470E+00
          1   -1    0    0  502    0  0.00000000000E+00  0.00000000000E+00  0.43248657795E+02  0.43248657795E+02  0.00000000000E+00 0.  1.
         13   -1    0    0    0    0 -0.00000000000E+00 -0.00000000000E+00 -0.10000000000E+04  0.10000000000E+04  0.00000000000E+00 0.  1.
    9000005    2    1    2  501    0 -0.24896844747E+02  0.50952533931E+00 -0.96358803669E+03  0.10174251630E+04  0.32562546776E+03 0.  0.
         13    1    3    3    0    0  0.19731321779E+02  0.11560507200E+03 -0.13137232363E+03  0.17610379083E+03  0.00000000000E+00 0.  1.
          3    1    3    3  501    0 -0.44628166525E+02 -0.11509554666E+03 -0.83221571307E+03  0.84132137212E+03  0.00000000000E+00 0.  1.
         21    1    1    2  502  501  0.24896844747E+02 -0.50952533931E+00  0.68366944879E+01  0.25823494844E+02  0.00000000000E+00 0.  1.
<mgrwt>
<rscale>  1 0.30000000E+03</rscale>
<asrwt>0</asrwt>
<pdfrwt beam="1">  1        1 0.15726818E+00 0.30000000E+03</pdfrwt>
<pdfrwt beam="2">0</pdfrwt>
<totfact> 0.16512402E+01</totfact>
</mgrwt>
</event>
<event>
 6    1  0.1901260E-004  0.3000000E+03  0.7818608E-02  0.1093470E+00
          1   -1    0    0  502    0  0.00000000000E+00  0.00000000000E+00  0.29810271415E+02  0.29810271415E+02  0.00000000000E+00 0.  1.
         13   -1    0    0    0    0 -0.00000000000E+00 -0.00000000000E+00 -0.10000000000E+04  0.10000000000E+04  0.00000000000E+00 0.  1.
    9000005    2    1    2  501    0 -0.18209696737E+02 -0.58883401143E+01 -0.95598671753E+03  0.10059777070E+04  0.31259282980E+03 0.  0.
         13    1    3    3    0    0 -0.13988566298E+03  0.79601108272E+02 -0.42128327801E+03  0.45098108106E+03  0.00000000000E+00 0.  1.
          1    1    3    3  501    0  0.12167596624E+03 -0.85489448386E+02 -0.53470343952E+03  0.55499662592E+03  0.00000000000E+00 0.  1.
         21    1    1    2  502  501  0.18209696737E+02  0.58883401143E+01 -0.14203011054E+02  0.23832564435E+02  0.00000000000E+00 0. -1.
<mgrwt>
<rscale>  1 0.30000000E+03</rscale>
<asrwt>0</asrwt>
<pdfrwt beam="1">  1        1 0.10840122E+00 0.30000000E+03</pdfrwt>
<pdfrwt beam="2">0</pdfrwt>
<totfact> 0.30371849E+01</totfact>
</mgrwt>
</event>
<event>
 6    1  0.1901260E-004  0.3000000E+03  0.7818608E-02  0.1093470E+00
          1   -1    0    0  502    0  0.00000000000E+00  0.00000000000E+00  0.28097527397E+02  0.28097527397E+02  0.00000000000E+00 0.  1.
         13   -1    0    0    0    0 -0.00000000000E+00 -0.00000000000E+00 -0.10000000000E+04  0.10000000000E+04  0.00000000000E+00 0.  1.
    9000005    2    1    2  501    0  0.42369476186E+01  0.17887931744E+02 -0.98143091052E+03  0.10073919495E+04  0.22648173867E+03 0.  0.
         13    1    3    3    0    0  0.88291241520E+02  0.48908539635E+02 -0.23711753131E+03  0.25770547575E+03  0.00000000000E+00 0.  1.
          1    1    3    3  501    0 -0.84054293901E+02 -0.31020607891E+02 -0.74431337921E+03  0.74968647374E+03  0.00000000000E+00 0.  1.
         21    1    1    2  502  501 -0.42369476186E+01 -0.17887931744E+02  0.95284379179E+01  0.20705577904E+02  0.00000000000E+00 0.  1.
<mgrwt>
<rscale>  1 0.30000000E+03</rscale>
<asrwt>0</asrwt>
<pdfrwt beam="1">  1        1 0.10217304E+00 0.30000000E+03</pdfrwt>
<pdfrwt beam="2">0</pdfrwt>
<totfact> 0.33164364E+01</totfact>
</mgrwt>
</event>
<event>
 6    1  0.1901260E-004  0.3000000E+03  0.7818608E-02  0.1093470E+00
          1   -1    0    0  502    0  0.00000000000E+00  0.00000000000E+00  0.29733898584E+02  0.29733898584E+02  0.00000000000E+00 0.  1.
         13   -1    0    0    0    0 -0.00000000000E+00 -0.00000000000E+00 -0.10000000000E+04  0.10000000000E+04  0.00000000000E+00 0.  1.
    9000005    2    1    2  501    0 -0.14524978215E+02  0.10559327057E+02 -0.93927576838E+03  0.99391665244E+03  0.32451327945E+03 0.  0.
         13    1    3    3    0    0  0.25680544268E+02  0.16170102638E+03 -0.56588059899E+03  0.58909045537E+03  0.00000000000E+00 0.  1.
          1    1    3    3  501    0 -0.40205522483E+02 -0.15114169932E+03 -0.37339516939E+03  0.40482619707E+03  0.00000000000E+00 0.  1.
         21    1    1    2  502  501  0.14524978215E+02 -0.10559327057E+02 -0.30990333034E+02  0.35817246148E+02  0.00000000000E+00 0.  1.
<mgrwt>
<rscale>  1 0.30000000E+03</rscale>
<asrwt>0</asrwt>
<pdfrwt beam="1">  1        1 0.10812350E+00 0.30000000E+03</pdfrwt>
<pdfrwt beam="2">0</pdfrwt>
<totfact> 0.30489021E+01</totfact>
</mgrwt>
</event>
<event>
 6    1  0.1901260E-004  0.3000000E+03  0.7818608E-02  0.1093470E+00
          1   -1    0    0  502    0  0.00000000000E+00  0.00000000000E+00  0.27188341658E+02  0.27188341658E+02  0.00000000000E+00 0.  1.
         13   -1    0    0    0    0 -0.00000000000E+00 -0.00000000000E+00 -0.10000000000E+04  0.10000000000E+04  0.00000000000E+00 0.  1.
    9000005    2    1    2  501    0  0.72896522081E+01  0.11099097053E+02 -0.95292029728E+03  0.10032719199E+04  0.31356199277E+03 0.  0.
         13    1    3    3    0    0  0.84917614734E+02 -0.12242168462E+03 -0.34036808168E+03  0.37154878709E+03  0.00000000000E+00 0.  1.
          3    1    3    3  501    0 -0.77627962526E+02  0.13352078167E+03 -0.61255221560E+03  0.63172313282E+03  0.00000000000E+00 0.  1.
         21    1    1    2  502  501 -0.72896522081E+01 -0.11099097053E+02 -0.19891361060E+02  0.23916421754E+02  0.00000000000E+00 0.  1.
<mgrwt>
<rscale>  1 0.30000000E+03</rscale>
<asrwt>0</asrwt>
<pdfrwt beam="1">  1        1 0.98866905E-01 0.30000000E+03</pdfrwt>
<pdfrwt beam="2">0</pdfrwt>
<totfact> 0.34800988E+01</totfact>
</mgrwt>
</event>
<event>
 6    1  0.1901260E-004  0.3000000E+03  0.7818608E-02  0.1093470E+00
          1   -1    0    0  502    0  0.00000000000E+00  0.00000000000E+00  0.30462380769E+02  0.30462380769E+02  0.00000000000E+00 0.  1.
         13   -1    0    0    0    0 -0.00000000000E+00 -0.00000000000E+00 -0.10000000000E+04  0.10000000000E+04  0.00000000000E+00 0.  1.
    9000005    2    1    2  501    0  0.10512759716E+02  0.62424483206E+01 -0.96645044315E+03  0.10178521891E+04  0.31913497695E+03 0.  0.
         13    1    3    3    0    0 -0.84604722203E+02 -0.52997978098E+02 -0.90451834957E+02  0.13471554902E+03  0.00000000000E+00 0.  1.
          3    1    3    3  501    0  0.95117481919E+02  0.59240426419E+02 -0.87599860819E+03  0.88313664007E+03  0.00000000000E+00 0.  1.
         21    1    1    2  502  501 -0.10512759716E+02 -0.62424483206E+01 -0.30871760845E+01  0.12610191674E+02  0.00000000000E+00 0. -1.
<mgrwt>
<rscale>  1 0.30000000E+03</rscale>
<asrwt>0</asrwt>
<pdfrwt beam="1">  1        1 0.11077253E+00 0.30000000E+03</pdfrwt>
<pdfrwt beam="2">0</pdfrwt>
<totfact> 0.29397002E+01</totfact>
</mgrwt>
</event>
<event>
 6    1  0.1901260E-004  0.3000000E+03  0.7818608E-02  0.1093470E+00
          1   -1    0    0  502    0  0.00000000000E+00  0.00000000000E+00  0.34165402991E+02  0.34165402991E+02  0.00000000000E+00 0.  1.
         13   -1    0    0    0    0 -0.00000000000E+00 -0.00000000000E+00 -0.10000000000E+04  0.10000000000E+04  0.00000000000E+00 0.  1.
    9000005    2    1    2  501    0  0.20107882286E+02 -0.35872339047E+01 -0.96012113535E+03  0.10129559989E+04  0.32222673076E+03 0.  0.
         13    1    3    3    0    0 -0.67374930551E+02  0.18587912085E+02 -0.90396230882E+03  0.90666021613E+03  0.00000000000E+00 0.  1.
          3    1    3    3  501    0  0.87482812836E+02 -0.22175145989E+02 -0.56158826534E+02  0.10629578279E+03  0.00000000000E+00 0.  1.
         21    1    1    2  502  501 -0.20107882286E+02  0.35872339047E+01 -0.57134616576E+01  0.21209404075E+02  0.00000000000E+00 0.  1.
<mgrwt>
<rscale>  1 0.30000000E+03</rscale>
<asrwt>0</asrwt>
<pdfrwt beam="1">  1        1 0.12423809E+00 0.30000000E+03</pdfrwt>
<pdfrwt beam="2">0</pdfrwt>
<totfact> 0.24612450E+01</totfact>
</mgrwt>
</event>
<event>
 6    1  0.1901260E-004  0.3000000E+03  0.7818608E-02  0.1093470E+00
          1   -1    0    0  502    0  0.00000000000E+00  0.00000000000E+00  0.67870924420E+02  0.67870924420E+02  0.00000000000E+00 0.  1.
         13   -1    0    0    0    0 -0.00000000000E+00 -0.00000000000E+00 -0.10000000000E+04  0.10000000000E+04  0.00000000000E+00 0.  1.
    9000005    2    1    2  501    0  0.11525604021E+02 -0.44457841360E+01 -0.97211954378E+03  0.10260159117E+04  0.32793236968E+03 0.  0.
         13    1    3    3    0    0  0.80316117901E+02  0.10334653454E+03 -0.80508333836E+03  0.81565333733E+03  0.00000000000E+00 0.  1.
          3    1    3    3  501    0 -0.68790513880E+02 -0.10779231868E+03 -0.16703620542E+03  0.21036257435E+03  0.00000000000E+00 0.  1.
         21    1    1    2  502  501 -0.11525604021E+02  0.44457841360E+01  0.39990468197E+02  0.41855012738E+02  0.00000000000E+00 0.  1.
<mgrwt>
<rscale>  1 0.30000000E+03</rscale>
<asrwt>0</asrwt>
<pdfrwt beam="1">  1        1 0.24680388E+00 0.30000000E+03</pdfrwt>
<pdfrwt beam="2">0</pdfrwt>
<totfact> 0.61742192E+00</totfact>
</mgrwt>
</event>
<event>
 6    1  0.1901260E-004  0.3000000E+03  0.7818608E-02  0.1093470E+00
          1   -1    0    0  502    0  0.00000000000E+00  0.00000000000E+00  0.28556913431E+02  0.28556913431E+02  0.00000000000E+00 0.  1.
         13   -1    0    0    0    0 -0.00000000000E+00 -0.00000000000E+00 -0.10000000000E+04  0.10000000000E+04  0.00000000000E+00 0.  1.
    9000005    2    1    2  501    0 -0.25545497454E+01  0.12669660412E+02 -0.94090079014E+03  0.99539250645E+03  0.32456878930E+03 0.  0.
         13    1    3    3    0    0  0.14271816950E+03 -0.20349458256E+02 -0.24977507195E+03  0.28839237667E+03  0.00000000000E+00 0.  1.
          3    1    3    3  501    0 -0.14527271925E+03  0.33019118669E+02 -0.69112571819E+03  0.70700012977E+03  0.00000000000E+00 0.  1.
         21    1    1    2  502  501  0.25545497454E+01 -0.12669660412E+02 -0.30542296432E+02  0.33164406985E+02  0.00000000000E+00 0.  1.
<mgrwt>
<rscale>  1 0.30000000E+03</rscale>
<asrwt>0</asrwt>
<pdfrwt beam="1">  1        1 0.10384354E+00 0.30000000E+03</pdfrwt>
<pdfrwt beam="2">0</pdfrwt>
<totfact> 0.32380014E+01</totfact>
</mgrwt>
</event>
<event>
 6    1  0.1901260E-004  0.3000000E+03  0.7818608E-02  0.1093470E+00
          1   -1    0    0  502    0  0.00000000000E+00  0.00000000000E+00  0.51574199939E+02  0.51574199939E+02  0.00000000000E+00 0.  1.
         13   -1    0    0    0    0 -0.00000000000E+00 -0.00000000000E+00 -0.10000000000E+04  0.10000000000E+04  0.00000000000E+00 0.  1.
    9000005    2    1    2  501    0 -0.10144384147E+02  0.10915901994E+01 -0.97159315486E+03  0.10262596502E+04  0.33032031579E+03 0.  0.
         13    1    3    3    0    0 -0.31026041219E+02  0.33069379723E+02  0.78947444568E+01  0.46027449408E+02  0.00000000000E+00 0.  1.
          1    1    3    3  501    0  0.20881657071E+02 -0.31977789524E+02 -0.97948789931E+03  0.98023220082E+03  0.00000000000E+00 0.  1.
         21    1    1    2  502  501  0.10144384147E+02 -0.10915901994E+01  0.23167354795E+02  0.25314549711E+02  0.00000000000E+00 0.  1.
<mgrwt>
<rscale>  1 0.30000000E+03</rscale>
<asrwt>0</asrwt>
<pdfrwt beam="1">  1        1 0.18754294E+00 0.30000000E+03</pdfrwt>
<pdfrwt beam="2">0</pdfrwt>
<totfact> 0.11748934E+01</totfact>
</mgrwt>
</event>
<event>
 6    1  0.1901260E-004  0.3000000E+03  0.7818608E-02  0.1093470E+00
          1   -1    0    0  502    0  0.00000000000E+00  0.00000000000E+00  0.51755466564E+02  0.51755466564E+02  0.00000000000E+00 0.  1.
         13   -1    0    0    0    0 -0.00000000000E+00 -0.00000000000E+00 -0.10000000000E+04  0.10000000000E+04  0.00000000000E+00 0.  1.
    9000005    2    1    2  501    0 -0.20806119068E+02 -0.67491784551E-01 -0.97321713493E+03  0.10192511596E+04  0.30213976151E+03 0.  0.
         13    1    3    3    0    0  0.98648647166E+02 -0.87401488749E+02 -0.26773146103E+03  0.29841365761E+03  0.00000000000E+00 0.  1.
          3    1    3    3  501    0 -0.11945476623E+03  0.87333996965E+02 -0.70548567390E+03  0.72083750199E+03  0.00000000000E+00 0.  1.
         21    1    1    2  502  501  0.20806119068E+02  0.67491784551E-01  0.24972601493E+02  0.32504306963E+02  0.00000000000E+00 0.  1.
<mgrwt>
<rscale>  1 0.30000000E+03</rscale>
<asrwt>0</asrwt>
<pdfrwt beam="1">  1        1 0.18820209E+00 0.30000000E+03</pdfrwt>
<pdfrwt beam="2">0</pdfrwt>
<totfact> 0.11663562E+01</totfact>
</mgrwt>
</event>
<event>
 6    1  0.1901260E-004  0.3000000E+03  0.7818608E-02  0.1093470E+00
          1   -1    0    0  502    0  0.00000000000E+00  0.00000000000E+00  0.36051313515E+02  0.36051313515E+02  0.00000000000E+00 0.  1.
         13   -1    0    0    0    0 -0.00000000000E+00 -0.00000000000E+00 -0.10000000000E+04  0.10000000000E+04  0.00000000000E+00 0.  1.
    9000005    2    1    2  501    0 -0.23954213291E+02 -0.21815793880E+02 -0.94477316543E+03  0.99840249143E+03  0.32118758937E+03 0.  0.
         13    1    3    3    0    0 -0.11082256873E+03 -0.13269791536E+03 -0.40101020204E+03  0.43669160814E+03  0.00000000000E+00 0.  1.
          1    1    3    3  501    0  0.86868355444E+02  0.11088212148E+03 -0.54376296340E+03  0.56171088329E+03  0.00000000000E+00 0.  1.
         21    1    1    2  502  501  0.23954213291E+02  0.21815793880E+02 -0.19175521051E+02  0.37648822087E+02  0.00000000000E+00 0.  1.
<mgrwt>
<rscale>  1 0.30000000E+03</rscale>
<asrwt>0</asrwt>
<pdfrwt beam="1">  1        1 0.13109596E+00 0.30000000E+03</pdfrwt>
<pdfrwt beam="2">0</pdfrwt>
<totfact> 0.22568195E+01</totfact>
</mgrwt>
</event>
<event>
 6    1  0.1901260E-004  0.3000000E+03  0.7818608E-02  0.1093470E+00
          1   -1    0    0  502    0  0.00000000000E+00  0.00000000000E+00  0.25434472740E+02  0.25434472740E+02  0.00000000000E+00 0.  1.
         13   -1    0    0    0    0 -0.00000000000E+00 -0.00000000000E+00 -0.10000000000E+04  0.10000000000E+04  0.00000000000E+00 0.  1.
    9000005    2    1    2  501    0  0.20064427993E+02 -0.71700446678E+01 -0.89942876250E+03  0.94733502185E+03  0.29667752526E+03 0.  0.
         13    1    3    3    0    0  0.15246038298E+03  0.38750981923E+02 -0.47596214908E+03  0.50128412536E+03  0.00000000000E+00 0.  1.
          3    1    3    3  501    0 -0.13239595498E+03 -0.45921026591E+02 -0.42346661342E+03  0.44605089649E+03  0.00000000000E+00 0.  1.
         21    1    1    2  502  501 -0.20064427993E+02  0.71700446678E+01 -0.75136764758E+02  0.78099450892E+02  0.00000000000E+00 0. -1.
<mgrwt>
<rscale>  1 0.30000000E+03</rscale>
<asrwt>0</asrwt>
<pdfrwt beam="1">  1        1 0.92489187E-01 0.30000000E+03</pdfrwt>
<pdfrwt beam="2">0</pdfrwt>
<totfact> 0.38314975E+01</totfact>
</mgrwt>
</event>
<event>
 6    1  0.1901260E-004  0.3000000E+03  0.7818608E-02  0.1093470E+00
          1   -1    0    0  502    0  0.00000000000E+00  0.00000000000E+00  0.37251257861E+02  0.37251257861E+02  0.00000000000E+00 0.  1.
         13   -1    0    0    0    0 -0.00000000000E+00 -0.00000000000E+00 -0.10000000000E+04  0.10000000000E+04  0.00000000000E+00 0.  1.
    9000005    2    1    2  501    0  0.43529823385E+02 -0.13790994419E+01 -0.70961658366E+03  0.78039986678E+03  0.32182527688E+03 0.  0.
         13    1    3    3    0    0 -0.11276549720E+03 -0.29272652872E+02 -0.52096127041E+03  0.53382917758E+03  0.00000000000E+00 0.  1.
          3    1    3    3  501    0  0.15629532059E+03  0.27893553430E+02 -0.18865531325E+03  0.24657068921E+03  0.00000000000E+00 0.  1.
         21    1    1    2  502  501 -0.43529823385E+02  0.13790994419E+01 -0.25313215848E+03  0.25685139108E+03  0.00000000000E+00 0.  1.
<mgrwt>
<rscale>  1 0.30000000E+03</rscale>
<asrwt>0</asrwt>
<pdfrwt beam="1">  1        1 0.13545941E+00 0.30000000E+03</pdfrwt>
<pdfrwt beam="2">0</pdfrwt>
<totfact> 0.21381523E+01</totfact>
</mgrwt>
</event>
<event>
 6    1  0.1901260E-004  0.3000000E+03  0.7818608E-02  0.1093470E+00
          1   -1    0    0  502    0  0.00000000000E+00  0.00000000000E+00  0.31305103932E+02  0.31305103932E+02  0.00000000000E+00 0.  1.
         13   -1    0    0    0    0 -0.00000000000E+00 -0.00000000000E+00 -0.10000000000E+04  0.10000000000E+04  0.00000000000E+00 0.  1.
    9000005    2    1    2  501    0 -0.13796845998E+02  0.12864141870E+02 -0.93958151562E+03  0.99661464377E+03  0.33177022857E+03 0.  0.
         13    1    3    3    0    0  0.41716162212E+02 -0.54131456883E+02 -0.17645235329E+02  0.70581917966E+02  0.00000000000E+00 0.  1.
          3    1    3    3  501    0 -0.55513008209E+02  0.66995598753E+02 -0.92193628030E+03  0.92603272580E+03  0.00000000000E+00 0.  1.
         21    1    1    2  502  501  0.13796845998E+02 -0.12864141870E+02 -0.29113380443E+02  0.34690460163E+02  0.00000000000E+00 0. -1.
<mgrwt>
<rscale>  1 0.30000000E+03</rscale>
<asrwt>0</asrwt>
<pdfrwt beam="1">  1        1 0.11383698E+00 0.30000000E+03</pdfrwt>
<pdfrwt beam="2">0</pdfrwt>
<totfact> 0.28201720E+01</totfact>
</mgrwt>
</event>
<event>
 6    1  0.1901260E-004  0.3000000E+03  0.7818608E-02  0.1093470E+00
          3   -1    0    0  502    0  0.00000000000E+00  0.00000000000E+00  0.16081319632E+02  0.16081319632E+02  0.00000000000E+00 0.  1.
         13   -1    0    0    0    0 -0.00000000000E+00 -0.00000000000E+00 -0.10000000000E+04  0.10000000000E+04  0.00000000000E+00 0.  1.
    9000005    2    1    2  501    0  0.76934227870E+01 -0.59857039851E+01 -0.97674714349E+03  0.10039797351E+04  0.23204591964E+03 0.  0.
         13    1    3    3    0    0  0.76324287804E+00 -0.96908485650E+02 -0.20375651596E+03  0.22562924218E+03  0.00000000000E+00 0.  1.
          3    1    3    3  501    0  0.69301799090E+01  0.90922781665E+02 -0.77299062753E+03  0.77835049295E+03  0.00000000000E+00 0.  1.
         21    1    1    2  502  501 -0.76934227870E+01  0.59857039851E+01 -0.71715368808E+01  0.12101584508E+02  0.00000000000E+00 0.  1.
<mgrwt>
<rscale>  1 0.30000000E+03</rscale>
<asrwt>0</asrwt>
<pdfrwt beam="1">  1        3 0.58477649E-01 0.30000000E+03</pdfrwt>
<pdfrwt beam="2">0</pdfrwt>
<totfact> 0.12831173E+01</totfact>
</mgrwt>
</event>
<event>
 6    1  0.1901260E-004  0.3000000E+03  0.7818608E-02  0.1093470E+00
          1   -1    0    0  502    0  0.00000000000E+00  0.00000000000E+00  0.34399062587E+02  0.34399062587E+02  0.00000000000E+00 0.  1.
         13   -1    0    0    0    0 -0.00000000000E+00 -0.00000000000E+00 -0.10000000000E+04  0.10000000000E+04  0.00000000000E+00 0.  1.
    9000005    2    1    2  501    0 -0.29910854850E+02 -0.10969807622E+01 -0.94072090885E+03  0.99547762343E+03  0.32422832665E+03 0.  0.
         13    1    3    3    0    0  0.95716942794E+02  0.25760854249E+02 -0.79524160612E+03  0.80139538735E+03  0.00000000000E+00 0.  1.
          1    1    3    3  501    0 -0.12562779764E+03 -0.26857835011E+02 -0.14547930273E+03  0.19408223609E+03  0.00000000000E+00 0.  1.
         21    1    1    2  502  501  0.29910854850E+02  0.10969807622E+01 -0.24880028564E+02  0.38921439156E+02  0.00000000000E+00 0. -1.
<mgrwt>
<rscale>  1 0.30000000E+03</rscale>
<asrwt>0</asrwt>
<pdfrwt beam="1">  1        1 0.12508776E+00 0.30000000E+03</pdfrwt>
<pdfrwt beam="2">0</pdfrwt>
<totfact> 0.24346658E+01</totfact>
</mgrwt>
</event>
<event>
 6    1  0.1901260E-004  0.3000000E+03  0.7818608E-02  0.1093470E+00
          1   -1    0    0  502    0  0.00000000000E+00  0.00000000000E+00  0.32298659345E+02  0.32298659345E+02  0.00000000000E+00 0.  1.
         13   -1    0    0    0    0 -0.00000000000E+00 -0.00000000000E+00 -0.10000000000E+04  0.10000000000E+04  0.00000000000E+00 0.  1.
    9000005    2    1    2  501    0  0.19542597088E+02 -0.24638971740E+02 -0.87211325740E+03  0.93167026529E+03  0.32624983903E+03 0.  0.
         13    1    3    3    0    0 -0.45991098829E+02  0.14576108079E+02  0.74327559867E+01  0.48814853884E+02  0.00000000000E+00 0.  1.
          3    1    3    3  501    0  0.65533695916E+02 -0.39215079819E+02 -0.87954601339E+03  0.88285541141E+03  0.00000000000E+00 0.  1.
         21    1    1    2  502  501 -0.19542597088E+02  0.24638971740E+02 -0.95588083254E+02  0.10062839405E+03  0.00000000000E+00 0.  1.
<mgrwt>
<rscale>  1 0.30000000E+03</rscale>
<asrwt>0</asrwt>
<pdfrwt beam="1">  1        1 0.11744992E+00 0.30000000E+03</pdfrwt>
<pdfrwt beam="2">0</pdfrwt>
<totfact> 0.26878816E+01</totfact>
</mgrwt>
</event>
<event>
 6    1  0.1901260E-004  0.3000000E+03  0.7818608E-02  0.1093470E+00
          1   -1    0    0  502    0  0.00000000000E+00  0.00000000000E+00  0.32208402256E+02  0.32208402256E+02  0.00000000000E+00 0.  1.
         13   -1    0    0    0    0 -0.00000000000E+00 -0.00000000000E+00 -0.10000000000E+04  0.10000000000E+04  0.00000000000E+00 0.  1.
    9000005    2    1    2  501    0 -0.27756323360E+02  0.18835628661E+02 -0.86168312893E+03  0.92092407475E+03  0.32323078812E+03 0.  0.
         13    1    3    3    0    0  0.13665837553E+03 -0.12567307549E+02 -0.55304263834E+03  0.56981541629E+03  0.00000000000E+00 0.  1.
          1    1    3    3  501    0 -0.16441469889E+03  0.31402936210E+02 -0.30864049059E+03  0.35110865846E+03  0.00000000000E+00 0.  1.
         21    1    1    2  502  501  0.27756323360E+02 -0.18835628661E+02 -0.10610846882E+03  0.11128432751E+03  0.00000000000E+00 0.  1.
<mgrwt>
<rscale>  1 0.30000000E+03</rscale>
<asrwt>0</asrwt>
<pdfrwt beam="1">  1        1 0.11712171E+00 0.30000000E+03</pdfrwt>
<pdfrwt beam="2">0</pdfrwt>
<totfact> 0.26995389E+01</totfact>
</mgrwt>
</event>
<event>
 6    1  0.1901260E-004  0.3000000E+03  0.7818608E-02  0.1093470E+00
          1   -1    0    0  502    0  0.00000000000E+00  0.00000000000E+00  0.36464693261E+02  0.36464693261E+02  0.00000000000E+00 0.  1.
         13   -1    0    0    0    0 -0.00000000000E+00 -0.00000000000E+00 -0.10000000000E+04  0.10000000000E+04  0.00000000000E+00 0.  1.
    9000005    2    1    2  501    0 -0.84925685429E+01 -0.77897824375E+01 -0.97092288270E+03  0.10227759859E+04  0.32132019659E+03 0.  0.
         13    1    3    3    0    0 -0.11006380661E+03 -0.61324235116E+02 -0.15945430443E+03  0.20322494566E+03  0.00000000000E+00 0.  1.
          3    1    3    3  501    0  0.10157123806E+03  0.53534452678E+02 -0.81146857827E+03  0.81955104023E+03  0.00000000000E+00 0.  1.
         21    1    1    2  502  501  0.84925685429E+01  0.77897824375E+01  0.73875759605E+01  0.13688707370E+02  0.00000000000E+00 0.  1.
<mgrwt>
<rscale>  1 0.30000000E+03</rscale>
<asrwt>0</asrwt>
<pdfrwt beam="1">  1        1 0.13259916E+00 0.30000000E+03</pdfrwt>
<pdfrwt beam="2">0</pdfrwt>
<totfact> 0.22149796E+01</totfact>
</mgrwt>
</event>
<event>
 6    1  0.1901260E-004  0.3000000E+03  0.7818608E-02  0.1093470E+00
          1   -1    0    0  502    0  0.00000000000E+00  0.00000000000E+00  0.39574519948E+02  0.39574519948E+02  0.00000000000E+00 0.  1.
         13   -1    0    0    0    0 -0.00000000000E+00 -0.00000000000E+00 -0.10000000000E+04  0.10000000000E+04  0.00000000000E+00 0.  1.
    9000005    2    1    2  501    0  0.38636911387E+02  0.27681189005E+01 -0.94399651352E+03  0.99749858448E+03  0.31995864594E+03 0.  0.
         13    1    3    3    0    0  0.43181280388E+02  0.12270469123E+03 -0.79784823649E+03  0.80838287506E+03  0.00000000000E+00 0.  1.
          1    1    3    3  501    0 -0.45443690015E+01 -0.11993657233E+03 -0.14614827703E+03  0.18911570942E+03  0.00000000000E+00 0.  1.
         21    1    1    2  502  501 -0.38636911387E+02 -0.27681189005E+01 -0.16428966535E+02  0.42075935464E+02  0.00000000000E+00 0.  1.
<mgrwt>
<rscale>  1 0.30000000E+03</rscale>
<asrwt>0</asrwt>
<pdfrwt beam="1">  1        1 0.14390765E+00 0.30000000E+03</pdfrwt>
<pdfrwt beam="2">0</pdfrwt>
<totfact> 0.19305582E+01</totfact>
</mgrwt>
</event>
<event>
 6    1  0.1901260E-004  0.3000000E+03  0.7818608E-02  0.1093470E+00
          1   -1    0    0  502    0  0.00000000000E+00  0.00000000000E+00  0.34618190371E+02  0.34618190371E+02  0.00000000000E+00 0.  1.
         13   -1    0    0    0    0 -0.00000000000E+00 -0.00000000000E+00 -0.10000000000E+04  0.10000000000E+04  0.00000000000E+00 0.  1.
    9000005    2    1    2  501    0 -0.41768067831E+02  0.12865010642E+02 -0.75754272428E+03  0.82223371498E+03  0.31668157974E+03 0.  0.
         13    1    3    3    0    0  0.12081974454E+03  0.70984075244E+02 -0.25659665209E+03  0.29236619413E+03  0.00000000000E+00 0.  1.
          3    1    3    3  501    0 -0.16258781237E+03 -0.58119064602E+02 -0.50094607219E+03  0.52986752085E+03  0.00000000000E+00 0.  1.
         21    1    1    2  502  501  0.41768067831E+02 -0.12865010642E+02 -0.20783908535E+03  0.21238447539E+03  0.00000000000E+00 0.  1.
<mgrwt>
<rscale>  1 0.30000000E+03</rscale>
<asrwt>0</asrwt>
<pdfrwt beam="1">  1        1 0.12588459E+00 0.30000000E+03</pdfrwt>
<pdfrwt beam="2">0</pdfrwt>
<totfact> 0.24100695E+01</totfact>
</mgrwt>
</event>
<event>
 6    1  0.1901260E-004  0.3000000E+03  0.7818608E-02  0.1093470E+00
          1   -1    0    0  502    0  0.00000000000E+00  0.00000000000E+00  0.70622076270E+02  0.70622076270E+02  0.00000000000E+00 0.  1.
         13   -1    0    0    0    0 -0.00000000000E+00 -0.00000000000E+00 -0.10000000000E+04  0.10000000000E+04  0.00000000000E+00 0.  1.
    9000005    2    1    2  501    0 -0.24271601117E+02  0.77921861059E+02 -0.92800279412E+03  0.98899598955E+03  0.33205866110E+03 0.  0.
         13    1    3    3    0    0 -0.91778291857E+02 -0.53918244670E+02 -0.74959982588E+03  0.75711975996E+03  0.00000000000E+00 0.  1.
          1    1    3    3  501    0  0.67506690739E+02  0.13184010573E+03 -0.17840296824E+03  0.23187622959E+03  0.00000000000E+00 0.  1.
         21    1    1    2  502  501  0.24271601117E+02 -0.77921861059E+02 -0.13751296140E+01  0.81626086719E+02  0.00000000000E+00 0. -1.
<mgrwt>
<rscale>  1 0.30000000E+03</rscale>
<asrwt>0</asrwt>
<pdfrwt beam="1">  1        1 0.25680809E+00 0.30000000E+03</pdfrwt>
<pdfrwt beam="2">0</pdfrwt>
<totfact> 0.55458554E+00</totfact>
</mgrwt>
</event>
<event>
 6    1  0.1901260E-004  0.3000000E+03  0.7818608E-02  0.1093470E+00
          1   -1    0    0  502    0  0.00000000000E+00  0.00000000000E+00  0.27927297117E+02  0.27927297117E+02  0.00000000000E+00 0.  1.
         13   -1    0    0    0    0 -0.00000000000E+00 -0.00000000000E+00 -0.10000000000E+04  0.10000000000E+04  0.00000000000E+00 0.  1.
    9000005    2    1    2  501    0  0.30579690569E+01 -0.97659502843E+01 -0.96020660122E+03  0.10122579216E+04  0.32025717463E+03 0.  0.
         13    1    3    3    0    0 -0.30265275831E+02  0.15182792448E+03 -0.49612084357E+03  0.51971491897E+03  0.00000000000E+00 0.  1.
          3    1    3    3  501    0  0.33323244888E+02 -0.16159387476E+03 -0.46408575765E+03  0.49254300266E+03  0.00000000000E+00 0.  1.
         21    1    1    2  502  501 -0.30579690569E+01  0.97659502843E+01 -0.11866101662E+02  0.15669375494E+02  0.00000000000E+00 0. -1.
<mgrwt>
<rscale>  1 0.30000000E+03</rscale>
<asrwt>0</asrwt>
<pdfrwt beam="1">  1        1 0.10155402E+00 0.30000000E+03</pdfrwt>
<pdfrwt beam="2">0</pdfrwt>
<totfact> 0.33462069E+01</totfact>
</mgrwt>
</event>
<event>
 6    1  0.1901260E-004  0.3000000E+03  0.7818608E-02  0.1093470E+00
          1   -1    0    0  502    0  0.00000000000E+00  0.00000000000E+00  0.31220278589E+02  0.31220278589E+02  0.00000000000E+00 0.  1.
         13   -1    0    0    0    0 -0.00000000000E+00 -0.00000000000E+00 -0.10000000000E+04  0.10000000000E+04  0.00000000000E+00 0.  1.
    9000005    2    1    2  501    0  0.70994389889E+01 -0.20831250992E+02 -0.94237932143E+03  0.99684988187E+03  0.32426310068E+03 0.  0.
         13    1    3    3    0    0 -0.80861387175E+02 -0.36518095220E+02 -0.53742009226E+02  0.10373205276E+03  0.00000000000E+00 0.  1.
          1    1    3    3  501    0  0.87960826163E+02  0.15686844228E+02 -0.88863731221E+03  0.89311782911E+03  0.00000000000E+00 0.  1.
         21    1    1    2  502  501 -0.70994389889E+01  0.20831250992E+02 -0.26400399977E+02  0.34370396721E+02  0.00000000000E+00 0.  1.
<mgrwt>
<rscale>  1 0.30000000E+03</rscale>
<asrwt>0</asrwt>
<pdfrwt beam="1">  1        1 0.11352853E+00 0.30000000E+03</pdfrwt>
<pdfrwt beam="2">0</pdfrwt>
<totfact> 0.28318867E+01</totfact>
</mgrwt>
</event>
<event>
 6    1  0.1901260E-004  0.3000000E+03  0.7818608E-02  0.1093470E+00
          3   -1    0    0  502    0  0.00000000000E+00  0.00000000000E+00  0.31321546197E+02  0.31321546197E+02  0.00000000000E+00 0.  1.
         13   -1    0    0    0    0 -0.00000000000E+00 -0.00000000000E+00 -0.10000000000E+04  0.10000000000E+04  0.00000000000E+00 0.  1.
    9000005    2    1    2  501    0  0.10915209865E+02 -0.13001845478E+02 -0.94734181303E+03  0.10040554128E+04  0.33223872655E+03 0.  0.
         13    1    3    3    0    0  0.11290430822E+03  0.29045869006E+02 -0.84682677209E+03  0.85481379683E+03  0.00000000000E+00 0.  1.
          3    1    3    3  501    0 -0.10198909835E+03 -0.42047714484E+02 -0.10051504094E+03  0.14924161595E+03  0.00000000000E+00 0.  1.
         21    1    1    2  502  501 -0.10915209865E+02  0.13001845478E+02 -0.21336640772E+02  0.27266133420E+02  0.00000000000E+00 0. -1.
<mgrwt>
<rscale>  1 0.30000000E+03</rscale>
<asrwt>0</asrwt>
<pdfrwt beam="1">  1        3 0.11389677E+00 0.30000000E+03</pdfrwt>
<pdfrwt beam="2">0</pdfrwt>
<totfact> 0.27200730E+00</totfact>
</mgrwt>
</event>
<event>
 6    1  0.1901260E-004  0.3000000E+03  0.7818608E-02  0.1093470E+00
          1   -1    0    0  502    0  0.00000000000E+00  0.00000000000E+00  0.73202883135E+02  0.73202883135E+02  0.00000000000E+00 0.  1.
         13   -1    0    0    0    0 -0.00000000000E+00 -0.00000000000E+00 -0.10000000000E+04  0.10000000000E+04  0.00000000000E+00 0.  1.
    9000005    2    1    2  501    0  0.14163711203E+03 -0.82901142736E+02 -0.75026566247E+03  0.83216963779E+03  0.32042794948E+03 0.  0.
         13    1    3    3    0    0  0.19136260090E+02 -0.17631582516E+03 -0.23528097659E+03  0.29463639388E+03  0.00000000000E+00 0.  1.
          1    1    3    3  501    0  0.12250085194E+03  0.93414682427E+02 -0.51498468588E+03  0.53753324391E+03  0.00000000000E+00 0.  1.
         21    1    1    2  502  501 -0.14163711203E+03  0.82901142736E+02 -0.17653145439E+03  0.24103324534E+03  0.00000000000E+00 0.  1.
<mgrwt>
<rscale>  1 0.30000000E+03</rscale>
<asrwt>0</asrwt>
<pdfrwt beam="1">  1        1 0.26619286E+00 0.30000000E+03</pdfrwt>
<pdfrwt beam="2">0</pdfrwt>
<totfact> 0.50104097E+00</totfact>
</mgrwt>
</event>
<event>
 6    1  0.1901260E-004  0.3000000E+03  0.7818608E-02  0.1093470E+00
          1   -1    0    0  502    0  0.00000000000E+00  0.00000000000E+00  0.36526164737E+02  0.36526164737E+02  0.00000000000E+00 0.  1.
         13   -1    0    0    0    0 -0.00000000000E+00 -0.00000000000E+00 -0.10000000000E+04  0.10000000000E+04  0.00000000000E+00 0.  1.
    9000005    2    1    2  501    0  0.87407779584E+00 -0.16675793322E+02 -0.93616973702E+03  0.10045205422E+04  0.36382536613E+03 0.  0.
         13    1    3    3    0    0  0.51645197647E+02  0.14784217206E+03 -0.66591226808E+03  0.68407871116E+03  0.00000000000E+00 0.  1.
          1    1    3    3  501    0 -0.50771119852E+02 -0.16451796539E+03 -0.27025746895E+03  0.32044183102E+03  0.00000000000E+00 0.  1.
         21    1    1    2  502  501 -0.87407779584E+00  0.16675793322E+02 -0.27304098239E+02  0.32005622562E+02  0.00000000000E+00 0. -1.
<mgrwt>
<rscale>  1 0.30000000E+03</rscale>
<asrwt>0</asrwt>
<pdfrwt beam="1">  1        1 0.13282270E+00 0.30000000E+03</pdfrwt>
<pdfrwt beam="2">0</pdfrwt>
<totfact> 0.22088451E+01</totfact>
</mgrwt>
</event>
<event>
 6    1  0.1901260E-004  0.3000000E+03  0.7818608E-02  0.1093470E+00
          1   -1    0    0  502    0  0.00000000000E+00  0.00000000000E+00  0.40957019670E+02  0.40957019670E+02  0.00000000000E+00 0.  1.
         13   -1    0    0    0    0 -0.00000000000E+00 -0.00000000000E+00 -0.10000000000E+04  0.10000000000E+04  0.00000000000E+00 0.  1.
    9000005    2    1    2  501    0 -0.10279793411E+02  0.80880967597E+00 -0.97121968890E+03  0.10250008122E+04  0.32749450767E+03 0.  0.
         13    1    3    3    0    0 -0.15626078057E+03  0.22914418450E+02 -0.31496982894E+03  0.35234712325E+03  0.00000000000E+00 0.  1.
          1    1    3    3  501    0  0.14598098716E+03 -0.22105608774E+02 -0.65624985996E+03  0.67265368894E+03  0.00000000000E+00 0.  1.
         21    1    1    2  502  501  0.10279793411E+02 -0.80880967597E+00  0.12176708568E+02  0.15956207482E+02  0.00000000000E+00 0. -1.
<mgrwt>
<rscale>  1 0.30000000E+03</rscale>
<asrwt>0</asrwt>
<pdfrwt beam="1">  1        1 0.14893493E+00 0.30000000E+03</pdfrwt>
<pdfrwt beam="2">0</pdfrwt>
<totfact> 0.18190722E+01</totfact>
</mgrwt>
</event>
<event>
 6    1  0.1901260E-004  0.3000000E+03  0.7818608E-02  0.1093470E+00
          1   -1    0    0  502    0  0.00000000000E+00  0.00000000000E+00  0.27793958898E+02  0.27793958898E+02  0.00000000000E+00 0.  1.
         13   -1    0    0    0    0 -0.00000000000E+00 -0.00000000000E+00 -0.10000000000E+04  0.10000000000E+04  0.00000000000E+00 0.  1.
    9000005    2    1    2  501    0 -0.70449727523E+01  0.80504772700E+01 -0.93857071470E+03  0.99249839250E+03  0.32252694584E+03 0.  0.
         13    1    3    3    0    0  0.86835885979E+02  0.13467286262E+03 -0.55859932510E+03  0.58112860627E+03  0.00000000000E+00 0.  1.
          1    1    3    3  501    0 -0.93880858731E+02 -0.12662238535E+03 -0.37997138960E+03  0.41136978623E+03  0.00000000000E+00 0.  1.
         21    1    1    2  502  501  0.70449727523E+01 -0.80504772700E+01 -0.33635326404E+02  0.35295566402E+02  0.00000000000E+00 0.  1.
<mgrwt>
<rscale>  1 0.30000000E+03</rscale>
<asrwt>0</asrwt>
<pdfrwt beam="1">  1        1 0.10106915E+00 0.30000000E+03</pdfrwt>
<pdfrwt beam="2">0</pdfrwt>
<totfact> 0.33697999E+01</totfact>
</mgrwt>
</event>
<event>
 6    1  0.1901260E-004  0.3000000E+03  0.7818608E-02  0.1093470E+00
          1   -1    0    0  502    0  0.00000000000E+00  0.00000000000E+00  0.36531500816E+02  0.36531500816E+02  0.00000000000E+00 0.  1.
         13   -1    0    0    0    0 -0.00000000000E+00 -0.00000000000E+00 -0.10000000000E+04  0.10000000000E+04  0.00000000000E+00 0.  1.
    9000005    2    1    2  501    0 -0.20469514741E+02  0.45671172489E+02 -0.76861035119E+03  0.83534861170E+03  0.32332734820E+03 0.  0.
         13    1    3    3    0    0  0.11432966839E+03 -0.17768716564E+02 -0.10843665150E+03  0.15857335133E+03  0.00000000000E+00 0.  1.
          1    1    3    3  501    0 -0.13479918314E+03  0.63439889053E+02 -0.66017369969E+03  0.67677526037E+03  0.00000000000E+00 0.  1.
         21    1    1    2  502  501  0.20469514741E+02 -0.45671172489E+02 -0.19485814800E+03  0.20118288911E+03  0.00000000000E+00 0. -1.
<mgrwt>
<rscale>  1 0.30000000E+03</rscale>
<asrwt>0</asrwt>
<pdfrwt beam="1">  1        1 0.13284210E+00 0.30000000E+03</pdfrwt>
<pdfrwt beam="2">0</pdfrwt>
<totfact> 0.22083136E+01</totfact>
</mgrwt>
</event>
<event>
 6    1  0.1901260E-004  0.3000000E+03  0.7818608E-02  0.1093470E+00
          1   -1    0    0  502    0  0.00000000000E+00  0.00000000000E+00  0.39735388344E+02  0.39735388344E+02  0.00000000000E+00 0.  1.
         13   -1    0    0    0    0 -0.00000000000E+00 -0.00000000000E+00 -0.10000000000E+04  0.10000000000E+04  0.00000000000E+00 0.  1.
    9000005    2    1    2  501    0 -0.11187075688E+02  0.42061601200E+01 -0.96925714661E+03  0.10247785127E+04  0.33251878339E+03 0.  0.
         13    1    3    3    0    0  0.31599485201E+01 -0.10965374478E+03 -0.10145886247E+03  0.14942499721E+03  0.00000000000E+00 0.  1.
          3    1    3    3  501    0 -0.14347024208E+02  0.11385990490E+03 -0.86779828414E+03  0.87535351544E+03  0.00000000000E+00 0.  1.
         21    1    1    2  502  501  0.11187075688E+02 -0.42061601200E+01  0.89925349538E+01  0.14956875686E+02  0.00000000000E+00 0. -1.
<mgrwt>
<rscale>  1 0.30000000E+03</rscale>
<asrwt>0</asrwt>
<pdfrwt beam="1">  1        1 0.14449263E+00 0.30000000E+03</pdfrwt>
<pdfrwt beam="2">0</pdfrwt>
<totfact> 0.19171521E+01</totfact>
</mgrwt>
</event>
<event>
 6    1  0.1901260E-004  0.3000000E+03  0.7818608E-02  0.1093470E+00
          1   -1    0    0  502    0  0.00000000000E+00  0.00000000000E+00  0.53317913730E+02  0.53317913730E+02  0.00000000000E+00 0.  1.
         13   -1    0    0    0    0 -0.00000000000E+00 -0.00000000000E+00 -0.10000000000E+04  0.10000000000E+04  0.00000000000E+00 0.  1.
    9000005    2    1    2  501    0 -0.14236869834E+02 -0.38916209106E+02 -0.95612321257E+03  0.10108173883E+04  0.32536600180E+03 0.  0.
         13    1    3    3    0    0  0.94688118026E+01 -0.74002239377E+02 -0.96472782114E+03  0.96760826717E+03  0.00000000000E+00 0.  1.
          1    1    3    3  501    0 -0.23705681636E+02  0.35086030271E+02  0.86046085635E+01  0.43209121150E+02  0.00000000000E+00 0.  1.
         21    1    1    2  502  501  0.14236869834E+02  0.38916209106E+02  0.94411263032E+01  0.42500525405E+02  0.00000000000E+00 0. -1.
<mgrwt>
<rscale>  1 0.30000000E+03</rscale>
<asrwt>0</asrwt>
<pdfrwt beam="1">  1        1 0.19388373E+00 0.30000000E+03</pdfrwt>
<pdfrwt beam="2">0</pdfrwt>
<totfact> 0.10954434E+01</totfact>
</mgrwt>
</event>
<event>
 6    1  0.1901260E-004  0.3000000E+03  0.7818608E-02  0.1093470E+00
          1   -1    0    0  502    0  0.00000000000E+00  0.00000000000E+00  0.28358602511E+02  0.28358602511E+02  0.00000000000E+00 0.  1.
         13   -1    0    0    0    0 -0.00000000000E+00 -0.00000000000E+00 -0.10000000000E+04  0.10000000000E+04  0.00000000000E+00 0.  1.
    9000005    2    1    2  501    0  0.60543675781E+01 -0.10070593865E+02 -0.92480827164E+03  0.98007388542E+03  0.32424745082E+03 0.  0.
         13    1    3    3    0    0  0.10094308501E+02 -0.79285597576E+02 -0.90422465629E+03  0.90775014740E+03  0.00000000000E+00 0.  1.
          3    1    3    3  501    0 -0.40399409232E+01  0.69215003710E+02 -0.20583615345E+02  0.72323738025E+02  0.00000000000E+00 0.  1.
         21    1    1    2  502  501 -0.60543675781E+01  0.10070593865E+02 -0.46833125849E+02  0.48284717089E+02  0.00000000000E+00 0.  1.
<mgrwt>
<rscale>  1 0.30000000E+03</rscale>
<asrwt>0</asrwt>
<pdfrwt beam="1">  1        1 0.10312241E+00 0.30000000E+03</pdfrwt>
<pdfrwt beam="2">0</pdfrwt>
<totfact> 0.32715254E+01</totfact>
</mgrwt>
</event>
<event>
 6    1  0.1901260E-004  0.3000000E+03  0.7818608E-02  0.1093470E+00
          1   -1    0    0  502    0  0.00000000000E+00  0.00000000000E+00  0.17163341421E+02  0.17163341421E+02  0.00000000000E+00 0.  1.
         13   -1    0    0    0    0 -0.00000000000E+00 -0.00000000000E+00 -0.10000000000E+04  0.10000000000E+04  0.00000000000E+00 0.  1.
    9000005    2    1    2  501    0  0.55650047206E+01  0.14297959252E+02 -0.94697828534E+03  0.97816047169E+03  0.24452941448E+03 0.  0.
         13    1    3    3    0    0 -0.86420846996E+02 -0.59411664389E+02 -0.65405935916E+03  0.66241373322E+03  0.00000000000E+00 0.  1.
          1    1    3    3  501    0  0.91985851716E+02  0.73709623641E+02 -0.29291892619E+03  0.31574673847E+03  0.00000000000E+00 0.  1.
         21    1    1    2  502  501 -0.55650047206E+01 -0.14297959252E+02 -0.35858373234E+02  0.39002869732E+02  0.00000000000E+00 0.  1.
<mgrwt>
<rscale>  1 0.30000000E+03</rscale>
<asrwt>0</asrwt>
<pdfrwt beam="1">  1        1 0.62412282E-01 0.30000000E+03</pdfrwt>
<pdfrwt beam="2">0</pdfrwt>
<totfact> 0.65796313E+01</totfact>
</mgrwt>
</event>
<event>
 6    1  0.1901260E-004  0.3000000E+03  0.7818608E-02  0.1093470E+00
          1   -1    0    0  502    0  0.00000000000E+00  0.00000000000E+00  0.39270282310E+02  0.39270282310E+02  0.00000000000E+00 0.  1.
         13   -1    0    0    0    0 -0.00000000000E+00 -0.00000000000E+00 -0.10000000000E+04  0.10000000000E+04  0.00000000000E+00 0.  1.
    9000005    2    1    2  501    0  0.13372326119E+01 -0.58278408968E+02 -0.72803972401E+03  0.79938949046E+03  0.32493623462E+03 0.  0.
         13    1    3    3    0    0  0.72744975405E+02  0.45042993298E+01 -0.82533261688E+01  0.73350102604E+02  0.00000000000E+00 0.  1.
          1    1    3    3  501    0 -0.71407742793E+02 -0.62782708298E+02 -0.71978639784E+03  0.72603938785E+03  0.00000000000E+00 0.  1.
         21    1    1    2  502  501 -0.13372326119E+01  0.58278408968E+02 -0.23268999368E+03  0.23988079185E+03  0.00000000000E+00 0.  1.
<mgrwt>
<rscale>  1 0.30000000E+03</rscale>
<asrwt>0</asrwt>
<pdfrwt beam="1">  1        1 0.14280133E+00 0.30000000E+03</pdfrwt>
<pdfrwt beam="2">0</pdfrwt>
<totfact> 0.19562373E+01</totfact>
</mgrwt>
</event>
<event>
 6    1  0.1901260E-004  0.3000000E+03  0.7818608E-02  0.1093470E+00
          1   -1    0    0  502    0  0.00000000000E+00  0.00000000000E+00  0.28907552248E+02  0.28907552248E+02  0.00000000000E+00 0.  1.
         13   -1    0    0    0    0 -0.00000000000E+00 -0.00000000000E+00 -0.10000000000E+04  0.10000000000E+04  0.00000000000E+00 0.  1.
    9000005    2    1    2  501    0  0.77224395822E+01  0.17142755442E+02 -0.93269271859E+03  0.98615185863E+03  0.31972843294E+03 0.  0.
         13    1    3    3    0    0 -0.37721264679E+02  0.48949544906E+02 -0.92846795866E+03  0.93052227379E+03  0.00000000000E+00 0.  1.
          3    1    3    3  501    0  0.45443704261E+02 -0.31806789465E+02 -0.42247599295E+01  0.55629584840E+02  0.00000000000E+00 0.  1.
         21    1    1    2  502  501 -0.77224395822E+01 -0.17142755442E+02 -0.38399729158E+02  0.42755693617E+02  0.00000000000E+00 0.  1.
<mgrwt>
<rscale>  1 0.30000000E+03</rscale>
<asrwt>0</asrwt>
<pdfrwt beam="1">  1        1 0.10511859E+00 0.30000000E+03</pdfrwt>
<pdfrwt beam="2">0</pdfrwt>
<totfact> 0.31799359E+01</totfact>
</mgrwt>
</event>
<event>
 6    1  0.1901260E-004  0.3000000E+03  0.7818608E-02  0.1093470E+00
          1   -1    0    0  502    0  0.00000000000E+00  0.00000000000E+00  0.32626575024E+02  0.32626575024E+02  0.00000000000E+00 0.  1.
         13   -1    0    0    0    0 -0.00000000000E+00 -0.00000000000E+00 -0.10000000000E+04  0.10000000000E+04  0.00000000000E+00 0.  1.
    9000005    2    1    2  501    0  0.10750390035E+02  0.63189103587E+01 -0.96704207113E+03  0.10201522290E+04  0.32463010246E+03 0.  0.
         13    1    3    3    0    0  0.10189603938E+03  0.60926161068E+02 -0.86407812300E+03  0.87219596570E+03  0.00000000000E+00 0.  1.
          1    1    3    3  501    0 -0.91145649349E+02 -0.54607250710E+02 -0.10296394814E+03  0.14795626327E+03  0.00000000000E+00 0.  1.
         21    1    1    2  502  501 -0.10750390035E+02 -0.63189103587E+01 -0.33135384225E+00  0.12474346051E+02  0.00000000000E+00 0.  1.
<mgrwt>
<rscale>  1 0.30000000E+03</rscale>
<asrwt>0</asrwt>
<pdfrwt beam="1">  1        1 0.11864234E+00 0.30000000E+03</pdfrwt>
<pdfrwt beam="2">0</pdfrwt>
<totfact> 0.26461039E+01</totfact>
</mgrwt>
</event>
<event>
 6    1  0.1901260E-004  0.3000000E+03  0.7818608E-02  0.1093470E+00
          1   -1    0    0  502    0  0.00000000000E+00  0.00000000000E+00  0.30453380326E+02  0.30453380326E+02  0.00000000000E+00 0.  1.
         13   -1    0    0    0    0 -0.00000000000E+00 -0.00000000000E+00 -0.10000000000E+04  0.10000000000E+04  0.00000000000E+00 0.  1.
    9000005    2    1    2  501    0  0.15753858811E+02  0.66472605178E+01 -0.95104019297E+03  0.10052569923E+04  0.32522577050E+03 0.  0.
         13    1    3    3    0    0 -0.11065119686E+03  0.11439661239E+03 -0.43978651047E+03  0.46769909887E+03  0.00000000000E+00 0.  1.
          3    1    3    3  501    0  0.12640505567E+03 -0.10774935187E+03 -0.51125368251E+03  0.53755789344E+03  0.00000000000E+00 0.  1.
         21    1    1    2  502  501 -0.15753858811E+02 -0.66472605178E+01 -0.18506426703E+02  0.25196388018E+02  0.00000000000E+00 0.  1.
<mgrwt>
<rscale>  1 0.30000000E+03</rscale>
<asrwt>0</asrwt>
<pdfrwt beam="1">  1        1 0.11073980E+00 0.30000000E+03</pdfrwt>
<pdfrwt beam="2">0</pdfrwt>
<totfact> 0.29410153E+01</totfact>
</mgrwt>
</event>
<event>
 6    1  0.1901260E-004  0.3000000E+03  0.7818608E-02  0.1093470E+00
          1   -1    0    0  502    0  0.00000000000E+00  0.00000000000E+00  0.57034046061E+02  0.57034046061E+02  0.00000000000E+00 0.  1.
         13   -1    0    0    0    0 -0.00000000000E+00 -0.00000000000E+00 -0.10000000000E+04  0.10000000000E+04  0.00000000000E+00 0.  1.
    9000005    2    1    2  501    0  0.73335920478E+01 -0.23779326009E+02 -0.96534752898E+03  0.10235650631E+04  0.33936757184E+03 0.  0.
         13    1    3    3    0    0 -0.13592173801E+03  0.84695086284E+02 -0.42907490784E+03  0.45798826737E+03  0.00000000000E+00 0.  1.
          3    1    3    3  501    0  0.14325533006E+03 -0.10847441229E+03 -0.53627262114E+03  0.56557679575E+03  0.00000000000E+00 0.  1.
         21    1    1    2  502  501 -0.73335920478E+01  0.23779326009E+02  0.22381575042E+02  0.33468982941E+02  0.00000000000E+00 0.  1.
<mgrwt>
<rscale>  1 0.30000000E+03</rscale>
<asrwt>0</asrwt>
<pdfrwt beam="1">  1        1 0.20739697E+00 0.30000000E+03</pdfrwt>
<pdfrwt beam="2">0</pdfrwt>
<totfact> 0.94488014E+00</totfact>
</mgrwt>
</event>
<event>
 6    1  0.1901260E-004  0.3000000E+03  0.7818608E-02  0.1093470E+00
          1   -1    0    0  502    0  0.00000000000E+00  0.00000000000E+00  0.34905361631E+02  0.34905361631E+02  0.00000000000E+00 0.  1.
         13   -1    0    0    0    0 -0.00000000000E+00 -0.00000000000E+00 -0.10000000000E+04  0.10000000000E+04  0.00000000000E+00 0.  1.
    9000005    2    1    2  501    0  0.79023998597E+01 -0.67471438063E+01 -0.96917038167E+03  0.10237436612E+04  0.32962385118E+03 0.  0.
         13    1    3    3    0    0  0.40071095481E+02 -0.89370506570E+02 -0.91417767626E+03  0.91940937776E+03  0.00000000000E+00 0.  1.
          1    1    3    3  501    0 -0.32168695622E+02  0.82623362764E+02 -0.54992705405E+02  0.10433428344E+03  0.00000000000E+00 0.  1.
         21    1    1    2  502  501 -0.79023998597E+01  0.67471438063E+01  0.40757432997E+01  0.11161700432E+02  0.00000000000E+00 0.  1.
<mgrwt>
<rscale>  1 0.30000000E+03</rscale>
<asrwt>0</asrwt>
<pdfrwt beam="1">  1        1 0.12692886E+00 0.30000000E+03</pdfrwt>
<pdfrwt beam="2">0</pdfrwt>
<totfact> 0.23783124E+01</totfact>
</mgrwt>
</event>
<event>
 6    1  0.1901260E-004  0.3000000E+03  0.7818608E-02  0.1093470E+00
          1   -1    0    0  502    0  0.00000000000E+00  0.00000000000E+00  0.38976382899E+02  0.38976382899E+02  0.00000000000E+00 0.  1.
         13   -1    0    0    0    0 -0.00000000000E+00 -0.00000000000E+00 -0.10000000000E+04  0.10000000000E+04  0.00000000000E+00 0.  1.
    9000005    2    1    2  501    0  0.44811343382E+02 -0.15243204195E+02 -0.91855525749E+03  0.97538414015E+03  0.32463833419E+03 0.  0.
         13    1    3    3    0    0 -0.12304917594E+03  0.34425350972E+02 -0.21254392338E+03  0.24799420125E+03  0.00000000000E+00 0.  1.
          3    1    3    3  501    0  0.16786051932E+03 -0.49668555167E+02 -0.70601133411E+03  0.72738993890E+03  0.00000000000E+00 0.  1.
         21    1    1    2  502  501 -0.44811343382E+02  0.15243204195E+02 -0.42468359608E+02  0.63592242747E+02  0.00000000000E+00 0. -1.
<mgrwt>
<rscale>  1 0.30000000E+03</rscale>
<asrwt>0</asrwt>
<pdfrwt beam="1">  1        1 0.14173260E+00 0.30000000E+03</pdfrwt>
<pdfrwt beam="2">0</pdfrwt>
<totfact> 0.19814558E+01</totfact>
</mgrwt>
</event>
<event>
 6    1  0.1901260E-004  0.3000000E+03  0.7818608E-02  0.1093470E+00
          1   -1    0    0  502    0  0.00000000000E+00  0.00000000000E+00  0.60579106523E+02  0.60579106523E+02  0.00000000000E+00 0.  1.
         13   -1    0    0    0    0 -0.00000000000E+00 -0.00000000000E+00 -0.10000000000E+04  0.10000000000E+04  0.00000000000E+00 0.  1.
    9000005    2    1    2  501    0  0.46849309223E+02  0.61151707367E+02 -0.91578671158E+03  0.98000017849E+03  0.34029495979E+03 0.  0.
         13    1    3    3    0    0  0.96970589119E+02 -0.26195077405E+02 -0.85806702842E+03  0.86392621357E+03  0.00000000000E+00 0.  1.
          3    1    3    3  501    0 -0.50121279896E+02  0.87346784772E+02 -0.57719683154E+02  0.11607396492E+03  0.00000000000E+00 0.  1.
         21    1    1    2  502  501 -0.46849309223E+02 -0.61151707367E+02 -0.23634181902E+02  0.80578928032E+02  0.00000000000E+00 0.  1.
<mgrwt>
<rscale>  1 0.30000000E+03</rscale>
<asrwt>0</asrwt>
<pdfrwt beam="1">  1        1 0.22028812E+00 0.30000000E+03</pdfrwt>
<pdfrwt beam="2">0</pdfrwt>
<totfact> 0.82176742E+00</totfact>
</mgrwt>
</event>
<event>
 6    1  0.1901260E-004  0.3000000E+03  0.7818608E-02  0.1093470E+00
          1   -1    0    0  502    0  0.00000000000E+00  0.00000000000E+00  0.32443386839E+02  0.32443386839E+02  0.00000000000E+00 0.  1.
         13   -1    0    0    0    0 -0.00000000000E+00 -0.00000000000E+00 -0.10000000000E+04  0.10000000000E+04  0.00000000000E+00 0.  1.
    9000005    2    1    2  501    0 -0.88196910439E+01  0.15891129950E+02 -0.96118196451E+03  0.10131832958E+04  0.31990515319E+03 0.  0.
         13    1    3    3    0    0  0.11236274397E+02  0.16730225456E+03 -0.49938727346E+03  0.52678643409E+03  0.00000000000E+00 0.  1.
          1    1    3    3  501    0 -0.20055965441E+02 -0.15141112461E+03 -0.46179469105E+03  0.48639686172E+03  0.00000000000E+00 0.  1.
         21    1    1    2  502  501  0.88196910439E+01 -0.15891129950E+02 -0.63746486509E+01  0.19260091033E+02  0.00000000000E+00 0.  1.
<mgrwt>
<rscale>  1 0.30000000E+03</rscale>
<asrwt>0</asrwt>
<pdfrwt beam="1">  1        1 0.11797620E+00 0.30000000E+03</pdfrwt>
<pdfrwt beam="2">0</pdfrwt>
<totfact> 0.26693326E+01</totfact>
</mgrwt>
</event>
<event>
 6    1  0.1901260E-004  0.3000000E+03  0.7818608E-02  0.1093470E+00
          1   -1    0    0  502    0  0.00000000000E+00  0.00000000000E+00  0.31986773835E+02  0.31986773835E+02  0.00000000000E+00 0.  1.
         13   -1    0    0    0    0 -0.00000000000E+00 -0.00000000000E+00 -0.10000000000E+04  0.10000000000E+04  0.00000000000E+00 0.  1.
    9000005    2    1    2  501    0 -0.31703033828E+02 -0.90594718657E+01 -0.95209034997E+03  0.99537128025E+03  0.28844547951E+03 0.  0.
         13    1    3    3    0    0  0.91239412604E+02  0.39821781593E+02 -0.13553481811E+03  0.16816685649E+03  0.00000000000E+00 0.  1.
          1    1    3    3  501    0 -0.12294244643E+03 -0.48881253459E+02 -0.81655553186E+03  0.82720442375E+03  0.00000000000E+00 0.  1.
         21    1    1    2  502  501  0.31703033828E+02  0.90594718657E+01 -0.15922876196E+02  0.36615493588E+02  0.00000000000E+00 0. -1.
<mgrwt>
<rscale>  1 0.30000000E+03</rscale>
<asrwt>0</asrwt>
<pdfrwt beam="1">  1        1 0.11631579E+00 0.30000000E+03</pdfrwt>
<pdfrwt beam="2">0</pdfrwt>
<totfact> 0.27284611E+01</totfact>
</mgrwt>
</event>
<event>
 6    1  0.1901260E-004  0.3000000E+03  0.7818608E-02  0.1093470E+00
          1   -1    0    0  502    0  0.00000000000E+00  0.00000000000E+00  0.41204489830E+02  0.41204489830E+02  0.00000000000E+00 0.  1.
         13   -1    0    0    0    0 -0.00000000000E+00 -0.00000000000E+00 -0.10000000000E+04  0.10000000000E+04  0.00000000000E+00 0.  1.
    9000005    2    1    2  501    0 -0.95755581595E+01 -0.38174726362E+02 -0.94217179434E+03  0.99848038686E+03  0.32821698895E+03 0.  0.
         13    1    3    3    0    0 -0.12137096242E+03  0.10549987386E+02 -0.80813867291E+03  0.81727004559E+03  0.00000000000E+00 0.  1.
          3    1    3    3  501    0  0.11179540426E+03 -0.48724713748E+02 -0.13403312143E+03  0.18121034127E+03  0.00000000000E+00 0.  1.
         21    1    1    2  502  501  0.95755581595E+01  0.38174726362E+02 -0.16623715829E+02  0.42724102973E+02  0.00000000000E+00 0.  1.
<mgrwt>
<rscale>  1 0.30000000E+03</rscale>
<asrwt>0</asrwt>
<pdfrwt beam="1">  1        1 0.14983482E+00 0.30000000E+03</pdfrwt>
<pdfrwt beam="2">0</pdfrwt>
<totfact> 0.17999739E+01</totfact>
</mgrwt>
</event>
<event>
 6    1  0.1901260E-004  0.3000000E+03  0.7818608E-02  0.1093470E+00
          1   -1    0    0  502    0  0.00000000000E+00  0.00000000000E+00  0.36143052816E+02  0.36143052816E+02  0.00000000000E+00 0.  1.
         13   -1    0    0    0    0 -0.00000000000E+00 -0.00000000000E+00 -0.10000000000E+04  0.10000000000E+04  0.00000000000E+00 0.  1.
    9000005    2    1    2  501    0  0.19819124784E+02  0.25877991048E+02 -0.94176878131E+03  0.99676850266E+03  0.32489466344E+03 0.  0.
         13    1    3    3    0    0 -0.11229362135E+03 -0.19728035385E+02 -0.12939177582E+03  0.17245661607E+03  0.00000000000E+00 0.  1.
          1    1    3    3  501    0  0.13211274614E+03  0.45606026433E+02 -0.81237700548E+03  0.82431188659E+03  0.00000000000E+00 0.  1.
         21    1    1    2  502  501 -0.19819124784E+02 -0.25877991048E+02 -0.22088165878E+02  0.39374550153E+02  0.00000000000E+00 0.  1.
<mgrwt>
<rscale>  1 0.30000000E+03</rscale>
<asrwt>0</asrwt>
<pdfrwt beam="1">  1        1 0.13142956E+00 0.30000000E+03</pdfrwt>
<pdfrwt beam="2">0</pdfrwt>
<totfact> 0.22474454E+01</totfact>
</mgrwt>
</event>
<event>
 6    1  0.1901260E-004  0.3000000E+03  0.7818608E-02  0.1093470E+00
          3   -1    0    0  502    0  0.00000000000E+00  0.00000000000E+00  0.25358156776E+02  0.25358156776E+02  0.00000000000E+00 0.  1.
         13   -1    0    0    0    0 -0.00000000000E+00 -0.00000000000E+00 -0.10000000000E+04  0.10000000000E+04  0.00000000000E+00 0.  1.
    9000005    2    1    2  501    0  0.64520709354E+01  0.65583024794E+01 -0.95717803060E+03  0.10056192282E+04  0.30821357736E+03 0.  0.
         13    1    3    3    0    0  0.10779015310E+03  0.10548341290E+03 -0.65151697235E+03  0.66874496840E+03  0.00000000000E+00 0.  1.
          1    1    3    3  501    0 -0.10133808217E+03 -0.98925110425E+02 -0.30566105825E+03  0.33687425978E+03  0.00000000000E+00 0.  1.
         21    1    1    2  502  501 -0.64520709354E+01 -0.65583024794E+01 -0.17463812622E+02  0.19738928595E+02  0.00000000000E+00 0. -1.
<mgrwt>
<rscale>  1 0.30000000E+03</rscale>
<asrwt>0</asrwt>
<pdfrwt beam="1">  1        3 0.92211674E-01 0.30000000E+03</pdfrwt>
<pdfrwt beam="2">0</pdfrwt>
<totfact> 0.48099178E+00</totfact>
</mgrwt>
</event>
<event>
 6    1  0.1901260E-004  0.3000000E+03  0.7818608E-02  0.1093470E+00
          1   -1    0    0  502    0  0.00000000000E+00  0.00000000000E+00  0.43703575752E+02  0.43703575752E+02  0.00000000000E+00 0.  1.
         13   -1    0    0    0    0 -0.00000000000E+00 -0.00000000000E+00 -0.10000000000E+04  0.10000000000E+04  0.00000000000E+00 0.  1.
    9000005    2    1    2  501    0 -0.17301423815E+02 -0.60850869167E+02 -0.90340728421E+03  0.96124492746E+03  0.32224978178E+03 0.  0.
         13    1    3    3    0    0 -0.15566670240E+03 -0.55877028895E+02 -0.30424689360E+03  0.34629544736E+03  0.00000000000E+00 0.  1.
          1    1    3    3  501    0  0.13836527858E+03 -0.49738402715E+01 -0.59916039060E+03  0.61494948010E+03  0.00000000000E+00 0.  1.
         21    1    1    2  502  501  0.17301423815E+02  0.60850869167E+02 -0.52889140041E+02  0.82458648295E+02  0.00000000000E+00 0.  1.
<mgrwt>
<rscale>  1 0.30000000E+03</rscale>
<asrwt>0</asrwt>
<pdfrwt beam="1">  1        1 0.15892243E+00 0.30000000E+03</pdfrwt>
<pdfrwt beam="2">0</pdfrwt>
<totfact> 0.16201727E+01</totfact>
</mgrwt>
</event>
<event>
 6    1  0.1901260E-004  0.3000000E+03  0.7818608E-02  0.1093470E+00
          1   -1    0    0  502    0  0.00000000000E+00  0.00000000000E+00  0.55323149714E+02  0.55323149714E+02  0.00000000000E+00 0.  1.
         13   -1    0    0    0    0 -0.00000000000E+00 -0.00000000000E+00 -0.10000000000E+04  0.10000000000E+04  0.00000000000E+00 0.  1.
    9000005    2    1    2  501    0  0.23832337840E+02  0.26930937962E+02 -0.96045515759E+03  0.10160521588E+04  0.32953698410E+03 0.  0.
         13    1    3    3    0    0 -0.87269366032E+02  0.13350956691E+03 -0.32256022759E+03  0.35984141942E+03  0.00000000000E+00 0.  1.
          3    1    3    3  501    0  0.11110170387E+03 -0.10657862895E+03 -0.63789493000E+03  0.65621073937E+03  0.00000000000E+00 0.  1.
         21    1    1    2  502  501 -0.23832337840E+02 -0.26930937962E+02  0.15778307308E+02  0.39270990921E+02  0.00000000000E+00 0.  1.
<mgrwt>
<rscale>  1 0.30000000E+03</rscale>
<asrwt>0</asrwt>
<pdfrwt beam="1">  1        1 0.20117551E+00 0.30000000E+03</pdfrwt>
<pdfrwt beam="2">0</pdfrwt>
<totfact> 0.10112503E+01</totfact>
</mgrwt>
</event>
<event>
 6    1  0.1901260E-004  0.3000000E+03  0.7818608E-02  0.1093470E+00
          1   -1    0    0  502    0  0.00000000000E+00  0.00000000000E+00  0.39173191885E+02  0.39173191885E+02  0.00000000000E+00 0.  1.
         13   -1    0    0    0    0 -0.00000000000E+00 -0.00000000000E+00 -0.10000000000E+04  0.10000000000E+04  0.00000000000E+00 0.  1.
    9000005    2    1    2  501    0 -0.25892270924E+02 -0.16957234012E+02 -0.88715936517E+03  0.95926793781E+03  0.36357293604E+03 0.  0.
         13    1    3    3    0    0 -0.93376207940E+02  0.14676370132E+03 -0.57081986515E+03  0.59673613824E+03  0.00000000000E+00 0.  1.
          1    1    3    3  501    0  0.67483937016E+02 -0.16372093534E+03 -0.31633950002E+03  0.36253179956E+03  0.00000000000E+00 0.  1.
         21    1    1    2  502  501  0.25892270924E+02  0.16957234012E+02 -0.73667442947E+02  0.79905254078E+02  0.00000000000E+00 0. -1.
<mgrwt>
<rscale>  1 0.30000000E+03</rscale>
<asrwt>0</asrwt>
<pdfrwt beam="1">  1        1 0.14244827E+00 0.30000000E+03</pdfrwt>
<pdfrwt beam="2">0</pdfrwt>
<totfact> 0.19645231E+01</totfact>
</mgrwt>
</event>
<event>
 6    1  0.1901260E-004  0.3000000E+03  0.7818608E-02  0.1093470E+00
          1   -1    0    0  502    0  0.00000000000E+00  0.00000000000E+00  0.35173059255E+02  0.35173059255E+02  0.00000000000E+00 0.  1.
         13   -1    0    0    0    0 -0.00000000000E+00 -0.00000000000E+00 -0.10000000000E+04  0.10000000000E+04  0.00000000000E+00 0.  1.
    9000005    2    1    2  501    0 -0.21769629674E+02 -0.24047805332E+02 -0.77863303998E+03  0.84617469312E+03  0.32968164435E+03 0.  0.
         13    1    3    3    0    0  0.87231349148E+02 -0.56374751976E+01 -0.34660546712E+02  0.94034264495E+02  0.00000000000E+00 0.  1.
          1    1    3    3  501    0 -0.10900097882E+03 -0.18410330135E+02 -0.74397249327E+03  0.75214042863E+03  0.00000000000E+00 0.  1.
         21    1    1    2  502  501  0.21769629674E+02  0.24047805332E+02 -0.18619390077E+03  0.18899836613E+03  0.00000000000E+00 0.  1.
<mgrwt>
<rscale>  1 0.30000000E+03</rscale>
<asrwt>0</asrwt>
<pdfrwt beam="1">  1        1 0.12790230E+00 0.30000000E+03</pdfrwt>
<pdfrwt beam="2">0</pdfrwt>
<totfact> 0.23491897E+01</totfact>
</mgrwt>
</event>
<event>
 6    1  0.1901260E-004  0.3000000E+03  0.7818608E-02  0.1093470E+00
          1   -1    0    0  502    0  0.00000000000E+00  0.00000000000E+00  0.44412101284E+02  0.44412101284E+02  0.00000000000E+00 0.  1.
         13   -1    0    0    0    0 -0.00000000000E+00 -0.00000000000E+00 -0.10000000000E+04  0.10000000000E+04  0.00000000000E+00 0.  1.
    9000005    2    1    2  501    0  0.74757069561E+01  0.68800800922E+01 -0.95553319857E+03  0.10342521461E+04  0.39563946533E+03 0.  0.
         13    1    3    3    0    0 -0.21039720211E+02  0.15903462336E+03 -0.17051248560E+03  0.23411362412E+03  0.00000000000E+00 0.  1.
          1    1    3    3  501    0  0.28515427167E+02 -0.15215454327E+03 -0.78502071297E+03  0.80013852202E+03  0.00000000000E+00 0.  1.
         21    1    1    2  502  501 -0.74757069561E+01 -0.68800800922E+01 -0.54700150361E-01  0.10159955151E+02  0.00000000000E+00 0. -1.
<mgrwt>
<rscale>  1 0.30000000E+03</rscale>
<asrwt>0</asrwt>
<pdfrwt beam="1">  1        1 0.16149889E+00 0.30000000E+03</pdfrwt>
<pdfrwt beam="2">0</pdfrwt>
<totfact> 0.15731380E+01</totfact>
</mgrwt>
</event>
<event>
 6    1  0.1901260E-004  0.3000000E+03  0.7818608E-02  0.1093470E+00
          1   -1    0    0  502    0  0.00000000000E+00  0.00000000000E+00  0.32501294174E+02  0.32501294174E+02  0.00000000000E+00 0.  1.
         13   -1    0    0    0    0 -0.00000000000E+00 -0.00000000000E+00 -0.10000000000E+04  0.10000000000E+04  0.00000000000E+00 0.  1.
    9000005    2    1    2  501    0 -0.25035672827E+02 -0.15676951267E+02 -0.92376938652E+03  0.97973004175E+03  0.32503618803E+03 0.  0.
         13    1    3    3    0    0 -0.62537788240E+02 -0.15369090243E+03 -0.33501914432E+03  0.37385785469E+03  0.00000000000E+00 0.  1.
          1    1    3    3  501    0  0.37502115413E+02  0.13801395116E+03 -0.58875024220E+03  0.60587218707E+03  0.00000000000E+00 0.  1.
         21    1    1    2  502  501  0.25035672827E+02  0.15676951267E+02 -0.43729319306E+02  0.52771252419E+02  0.00000000000E+00 0. -1.
<mgrwt>
<rscale>  1 0.30000000E+03</rscale>
<asrwt>0</asrwt>
<pdfrwt beam="1">  1        1 0.11818677E+00 0.30000000E+03</pdfrwt>
<pdfrwt beam="2">0</pdfrwt>
<totfact> 0.26619599E+01</totfact>
</mgrwt>
</event>
<event>
 6    1  0.1901260E-004  0.3000000E+03  0.7818608E-02  0.1093470E+00
          1   -1    0    0  502    0  0.00000000000E+00  0.00000000000E+00  0.51377986930E+02  0.51377986930E+02  0.00000000000E+00 0.  1.
         13   -1    0    0    0    0 -0.00000000000E+00 -0.00000000000E+00 -0.10000000000E+04  0.10000000000E+04  0.00000000000E+00 0.  1.
    9000005    2    1    2  501    0  0.14784009043E+02  0.16657734928E+02 -0.96876432301E+03  0.10213486728E+04  0.32272705320E+03 0.  0.
         13    1    3    3    0    0 -0.10248075514E+03  0.10786499332E+03 -0.68583576915E+03  0.70178904538E+03  0.00000000000E+00 0.  1.
          3    1    3    3  501    0  0.11726476418E+03 -0.91207258394E+02 -0.28292855386E+03  0.31955962744E+03  0.00000000000E+00 0.  1.
         21    1    1    2  502  501 -0.14784009043E+02 -0.16657734928E+02  0.20142309943E+02  0.30029314114E+02  0.00000000000E+00 0.  1.
<mgrwt>
<rscale>  1 0.30000000E+03</rscale>
<asrwt>0</asrwt>
<pdfrwt beam="1">  1        1 0.18682944E+00 0.30000000E+03</pdfrwt>
<pdfrwt beam="2">0</pdfrwt>
<totfact> 0.11842077E+01</totfact>
</mgrwt>
</event>
<event>
 6    1  0.1901260E-004  0.3000000E+03  0.7818608E-02  0.1093470E+00
          1   -1    0    0  502    0  0.00000000000E+00  0.00000000000E+00  0.36363397349E+02  0.36363397349E+02  0.00000000000E+00 0.  1.
         13   -1    0    0    0    0 -0.00000000000E+00 -0.00000000000E+00 -0.10000000000E+04  0.10000000000E+04  0.00000000000E+00 0.  1.
    9000005    2    1    2  501    0  0.15432973922E+02 -0.89943646890E+01 -0.96787937229E+03  0.10180037575E+04  0.31499539005E+03 0.  0.
         13    1    3    3    0    0  0.25631220809E+02 -0.10326195478E+03 -0.88705414023E+03  0.89341202056E+03  0.00000000000E+00 0.  1.
          3    1    3    3  501    0 -0.10198246887E+02  0.94267590095E+02 -0.80825232061E+02  0.12459173696E+03  0.00000000000E+00 0.  1.
         21    1    1    2  502  501 -0.15432973922E+02  0.89943646890E+01  0.42427696395E+01  0.18359639823E+02  0.00000000000E+00 0.  1.
<mgrwt>
<rscale>  1 0.30000000E+03</rscale>
<asrwt>0</asrwt>
<pdfrwt beam="1">  1        1 0.13223081E+00 0.30000000E+03</pdfrwt>
<pdfrwt beam="2">0</pdfrwt>
<totfact> 0.22251374E+01</totfact>
</mgrwt>
</event>
<event>
 6    1  0.1901260E-004  0.3000000E+03  0.7818608E-02  0.1093470E+00
          1   -1    0    0  502    0  0.00000000000E+00  0.00000000000E+00  0.47422601014E+02  0.47422601014E+02  0.00000000000E+00 0.  1.
         13   -1    0    0    0    0 -0.00000000000E+00 -0.00000000000E+00 -0.10000000000E+04  0.10000000000E+04  0.00000000000E+00 0.  1.
    9000005    2    1    2  501    0 -0.21898340103E+02  0.17611077566E+02 -0.96410744837E+03  0.10170477859E+04  0.32263499428E+03 0.  0.
         13    1    3    3    0    0  0.15869250941E+02 -0.13999274247E+03 -0.63190964556E+03  0.64742536344E+03  0.00000000000E+00 0.  1.
          1    1    3    3  501    0 -0.37767591044E+02  0.15760382004E+03 -0.33219780280E+03  0.36962242249E+03  0.00000000000E+00 0.  1.
         21    1    1    2  502  501  0.21898340103E+02 -0.17611077566E+02  0.11530049380E+02  0.30374815078E+02  0.00000000000E+00 0.  1.
<mgrwt>
<rscale>  1 0.30000000E+03</rscale>
<asrwt>0</asrwt>
<pdfrwt beam="1">  1        1 0.17244619E+00 0.30000000E+03</pdfrwt>
<pdfrwt beam="2">0</pdfrwt>
<totfact> 0.13899885E+01</totfact>
</mgrwt>
</event>
<event>
 6    1  0.1901260E-004  0.3000000E+03  0.7818608E-02  0.1093470E+00
          1   -1    0    0  502    0  0.00000000000E+00  0.00000000000E+00  0.29543260347E+02  0.29543260347E+02  0.00000000000E+00 0.  1.
         13   -1    0    0    0    0 -0.00000000000E+00 -0.00000000000E+00 -0.10000000000E+04  0.10000000000E+04  0.00000000000E+00 0.  1.
    9000005    2    1    2  501    0  0.87690884922E+01  0.12163591596E+01 -0.95450294006E+03  0.10112977084E+04  0.33401918521E+03 0.  0.
         13    1    3    3    0    0  0.14900305895E+03 -0.71663840906E+02 -0.36011943384E+03  0.39626206518E+03  0.00000000000E+00 0.  1.
          3    1    3    3  501    0 -0.14023397045E+03  0.72880200066E+02 -0.59438350622E+03  0.61503564327E+03  0.00000000000E+00 0.  1.
         21    1    1    2  502  501 -0.87690884922E+01 -0.12163591596E+01 -0.15953799596E+02  0.18245551900E+02  0.00000000000E+00 0.  1.
<mgrwt>
<rscale>  1 0.30000000E+03</rscale>
<asrwt>0</asrwt>
<pdfrwt beam="1">  1        1 0.10743026E+00 0.30000000E+03</pdfrwt>
<pdfrwt beam="2">0</pdfrwt>
<totfact> 0.30784336E+01</totfact>
</mgrwt>
</event>
<event>
 6    1  0.1901260E-004  0.3000000E+03  0.7818608E-02  0.1093470E+00
          1   -1    0    0  502    0  0.00000000000E+00  0.00000000000E+00  0.74573399745E+02  0.74573399745E+02  0.00000000000E+00 0.  1.
         13   -1    0    0    0    0 -0.00000000000E+00 -0.00000000000E+00 -0.10000000000E+04  0.10000000000E+04  0.00000000000E+00 0.  1.
    9000005    2    1    2  501    0  0.14939407240E+03 -0.49553723322E+01 -0.79278370264E+03  0.87473025408E+03  0.33808855887E+03 0.  0.
         13    1    3    3    0    0 -0.83730224905E+02  0.78104844462E+02 -0.33948610624E+03  0.35827633696E+03  0.00000000000E+00 0.  1.
          1    1    3    3  501    0  0.23312429731E+03 -0.83060216794E+02 -0.45329759640E+03  0.51645391712E+03  0.00000000000E+00 0.  1.
         21    1    1    2  502  501 -0.14939407240E+03  0.49553723322E+01 -0.13264289761E+03  0.19984314567E+03  0.00000000000E+00 0.  1.
<mgrwt>
<rscale>  1 0.30000000E+03</rscale>
<asrwt>0</asrwt>
<pdfrwt beam="1">  1        1 0.27117657E+00 0.30000000E+03</pdfrwt>
<pdfrwt beam="2">0</pdfrwt>
<totfact> 0.47475263E+00</totfact>
</mgrwt>
</event>
<event>
 6    1  0.1901260E-004  0.3000000E+03  0.7818608E-02  0.1093470E+00
          1   -1    0    0  502    0  0.00000000000E+00  0.00000000000E+00  0.38263556305E+02  0.38263556305E+02  0.00000000000E+00 0.  1.
         13   -1    0    0    0    0 -0.00000000000E+00 -0.00000000000E+00 -0.10000000000E+04  0.10000000000E+04  0.00000000000E+00 0.  1.
    9000005    2    1    2  501    0  0.19529609345E+02 -0.34382892853E+02 -0.93356207040E+03  0.98971065451E+03  0.32622913941E+03 0.  0.
         13    1    3    3    0    0 -0.11981379697E+03 -0.64740402766E+02 -0.19713179020E+03  0.23959884892E+03  0.00000000000E+00 0.  1.
          1    1    3    3  501    0  0.13934340632E+03  0.30357509913E+02 -0.73643028020E+03  0.75011180559E+03  0.00000000000E+00 0.  1.
         21    1    1    2  502  501 -0.19529609345E+02  0.34382892853E+02 -0.28174373294E+02  0.48552901794E+02  0.00000000000E+00 0. -1.
<mgrwt>
<rscale>  1 0.30000000E+03</rscale>
<asrwt>0</asrwt>
<pdfrwt beam="1">  1        1 0.13914050E+00 0.30000000E+03</pdfrwt>
<pdfrwt beam="2">0</pdfrwt>
<totfact> 0.20443591E+01</totfact>
</mgrwt>
</event>
<event>
 6    1  0.1901260E-004  0.3000000E+03  0.7818608E-02  0.1093470E+00
          1   -1    0    0  502    0  0.00000000000E+00  0.00000000000E+00  0.38001920477E+02  0.38001920477E+02  0.00000000000E+00 0.  1.
         13   -1    0    0    0    0 -0.00000000000E+00 -0.00000000000E+00 -0.10000000000E+04  0.10000000000E+04  0.00000000000E+00 0.  1.
    9000005    2    1    2  501    0 -0.14774097220E+02 -0.20162391453E+02 -0.94022164075E+03  0.10048506119E+04  0.35367106530E+03 0.  0.
         13    1    3    3    0    0 -0.10838376744E+03 -0.13110050576E+03 -0.72885466962E+03  0.74844072116E+03  0.00000000000E+00 0.  1.
          3    1    3    3  501    0  0.93609670221E+02  0.11093811430E+03 -0.21136697112E+03  0.25640989069E+03  0.00000000000E+00 0.  1.
         21    1    1    2  502  501  0.14774097220E+02  0.20162391453E+02 -0.21776438778E+02  0.33151308626E+02  0.00000000000E+00 0.  1.
<mgrwt>
<rscale>  1 0.30000000E+03</rscale>
<asrwt>0</asrwt>
<pdfrwt beam="1">  1        1 0.13818909E+00 0.30000000E+03</pdfrwt>
<pdfrwt beam="2">0</pdfrwt>
<totfact> 0.20680848E+01</totfact>
</mgrwt>
</event>
<event>
 6    1  0.1901260E-004  0.3000000E+03  0.7818608E-02  0.1093470E+00
          1   -1    0    0  502    0  0.00000000000E+00  0.00000000000E+00  0.34359984340E+02  0.34359984340E+02  0.00000000000E+00 0.  1.
         13   -1    0    0    0    0 -0.00000000000E+00 -0.00000000000E+00 -0.10000000000E+04  0.10000000000E+04  0.00000000000E+00 0.  1.
    9000005    2    1    2  501    0 -0.14701982668E+02  0.22349865455E+02 -0.89413973195E+03  0.95801893803E+03  0.34292675691E+03 0.  0.
         13    1    3    3    0    0 -0.86462687702E+02 -0.42752093334E+02 -0.84292391543E+03  0.84842457830E+03  0.00000000000E+00 0.  1.
          3    1    3    3  501    0  0.71760705034E+02  0.65101958788E+02 -0.51215816515E+02  0.10959435974E+03  0.00000000000E+00 0.  1.
         21    1    1    2  502  501  0.14701982668E+02 -0.22349865455E+02 -0.71500283712E+02  0.76341046306E+02  0.00000000000E+00 0.  1.
<mgrwt>
<rscale>  1 0.30000000E+03</rscale>
<asrwt>0</asrwt>
<pdfrwt beam="1">  1        1 0.12494566E+00 0.30000000E+03</pdfrwt>
<pdfrwt beam="2">0</pdfrwt>
<totfact> 0.24390857E+01</totfact>
</mgrwt>
</event>
<event>
 6    1  0.1901260E-004  0.3000000E+03  0.7818608E-02  0.1093470E+00
          1   -1    0    0  502    0  0.00000000000E+00  0.00000000000E+00  0.36708891648E+02  0.36708891648E+02  0.00000000000E+00 0.  1.
         13   -1    0    0    0    0 -0.00000000000E+00 -0.00000000000E+00 -0.10000000000E+04  0.10000000000E+04  0.00000000000E+00 0.  1.
    9000005    2    1    2  501    0 -0.38882649062E+01 -0.15727759755E+02 -0.96696707496E+03  0.10200958317E+04  0.32451148011E+03 0.  0.
         13    1    3    3    0    0  0.15762478756E+03 -0.14106864863E+02 -0.56905707851E+03  0.59065263556E+03  0.00000000000E+00 0.  1.
          1    1    3    3  501    0 -0.16151305247E+03 -0.16208948921E+01 -0.39790999646E+03  0.42944319613E+03  0.00000000000E+00 0.  1.
         21    1    1    2  502  501  0.38882649062E+01  0.15727759755E+02  0.36759666114E+01  0.16613059966E+02  0.00000000000E+00 0. -1.
<mgrwt>
<rscale>  1 0.30000000E+03</rscale>
<asrwt>0</asrwt>
<pdfrwt beam="1">  1        1 0.13348716E+00 0.30000000E+03</pdfrwt>
<pdfrwt beam="2">0</pdfrwt>
<totfact> 0.21907418E+01</totfact>
</mgrwt>
</event>
<event>
 6    1  0.1901260E-004  0.3000000E+03  0.7818608E-02  0.1093470E+00
          1   -1    0    0  502    0  0.00000000000E+00  0.00000000000E+00  0.41505325759E+02  0.41505325759E+02  0.00000000000E+00 0.  1.
         13   -1    0    0    0    0 -0.00000000000E+00 -0.00000000000E+00 -0.10000000000E+04  0.10000000000E+04  0.00000000000E+00 0.  1.
    9000005    2    1    2  501    0 -0.61512164693E+02 -0.53170445868E+02 -0.78988599631E+03  0.85431630634E+03  0.31515967601E+03 0.  0.
         13    1    3    3    0    0  0.93725260090E+02 -0.90703819958E+02 -0.55606182203E+03  0.57115353212E+03  0.00000000000E+00 0.  1.
          1    1    3    3  501    0 -0.15523742478E+03  0.37533374090E+02 -0.23382417428E+03  0.28316277421E+03  0.00000000000E+00 0.  1.
         21    1    1    2  502  501  0.61512164693E+02  0.53170445868E+02 -0.16860867793E+03  0.18718901942E+03  0.00000000000E+00 0.  1.
<mgrwt>
<rscale>  1 0.30000000E+03</rscale>
<asrwt>0</asrwt>
<pdfrwt beam="1">  1        1 0.15092878E+00 0.30000000E+03</pdfrwt>
<pdfrwt beam="2">0</pdfrwt>
<totfact> 0.17770903E+01</totfact>
</mgrwt>
</event>
<event>
 6    1  0.1901260E-004  0.3000000E+03  0.7818608E-02  0.1093470E+00
          1   -1    0    0  502    0  0.00000000000E+00  0.00000000000E+00  0.38902556380E+02  0.38902556380E+02  0.00000000000E+00 0.  1.
         13   -1    0    0    0    0 -0.00000000000E+00 -0.00000000000E+00 -0.10000000000E+04  0.10000000000E+04  0.00000000000E+00 0.  1.
    9000005    2    1    2  501    0  0.21799875266E+02  0.20369538591E+02 -0.88652250694E+03  0.95858086663E+03  0.36340744336E+03 0.  0.
         13    1    3    3    0    0 -0.80365715742E+02  0.41259669420E+02 -0.83923056155E+03  0.84407875463E+03  0.00000000000E+00 0.  1.
          3    1    3    3  501    0  0.10216559101E+03 -0.20890130829E+02 -0.47291945391E+02  0.11450211199E+03  0.00000000000E+00 0.  1.
         21    1    1    2  502  501 -0.21799875266E+02 -0.20369538591E+02 -0.74574936680E+02  0.80321689754E+02  0.00000000000E+00 0.  1.
<mgrwt>
<rscale>  1 0.30000000E+03</rscale>
<asrwt>0</asrwt>
<pdfrwt beam="1">  1        1 0.14146414E+00 0.30000000E+03</pdfrwt>
<pdfrwt beam="2">0</pdfrwt>
<totfact> 0.19878553E+01</totfact>
</mgrwt>
</event>
<event>
 6    1  0.1901260E-004  0.3000000E+03  0.7818608E-02  0.1093470E+00
          1   -1    0    0  502    0  0.00000000000E+00  0.00000000000E+00  0.47387563357E+02  0.47387563357E+02  0.00000000000E+00 0.  1.
         13   -1    0    0    0    0 -0.00000000000E+00 -0.00000000000E+00 -0.10000000000E+04  0.10000000000E+04  0.00000000000E+00 0.  1.
    9000005    2    1    2  501    0  0.39496611644E+02  0.40642029475E+02 -0.92266900896E+03  0.98329102872E+03  0.33515875369E+03 0.  0.
         13    1    3    3    0    0 -0.14650799865E+03  0.27987586026E+01 -0.47366438444E+03  0.49581284352E+03  0.00000000000E+00 0.  1.
          1    1    3    3  501    0  0.18600461029E+03  0.37843270872E+02 -0.44900462452E+03  0.48747818520E+03  0.00000000000E+00 0.  1.
         21    1    1    2  502  501 -0.39496611644E+02 -0.40642029475E+02 -0.29943427681E+02  0.64096534637E+02  0.00000000000E+00 0.  1.
<mgrwt>
<rscale>  1 0.30000000E+03</rscale>
<asrwt>0</asrwt>
<pdfrwt beam="1">  1        1 0.17231878E+00 0.30000000E+03</pdfrwt>
<pdfrwt beam="2">0</pdfrwt>
<totfact> 0.13919766E+01</totfact>
</mgrwt>
</event>
<event>
 6    1  0.1901260E-004  0.3000000E+03  0.7818608E-02  0.1093470E+00
          1   -1    0    0  502    0  0.00000000000E+00  0.00000000000E+00  0.38755064195E+02  0.38755064195E+02  0.00000000000E+00 0.  1.
         13   -1    0    0    0    0 -0.00000000000E+00 -0.00000000000E+00 -0.10000000000E+04  0.10000000000E+04  0.00000000000E+00 0.  1.
    9000005    2    1    2  501    0 -0.29817922359E+01 -0.18345242520E+02 -0.97933866945E+03  0.10128162476E+04  0.25757927508E+03 0.  0.
         13    1    3    3    0    0 -0.12358879080E+03  0.31142028146E+02 -0.45488060044E+03  0.47239853490E+03  0.00000000000E+00 0.  1.
          3    1    3    3  501    0  0.12060699856E+03 -0.49487270666E+02 -0.52445806902E+03  0.54041771271E+03  0.00000000000E+00 0.  1.
         21    1    1    2  502  501  0.29817922359E+01  0.18345242520E+02  0.18093733647E+02  0.25938816575E+02  0.00000000000E+00 0.  1.
<mgrwt>
<rscale>  1 0.30000000E+03</rscale>
<asrwt>0</asrwt>
<pdfrwt beam="1">  1        1 0.14092780E+00 0.30000000E+03</pdfrwt>
<pdfrwt beam="2">0</pdfrwt>
<totfact> 0.20007192E+01</totfact>
</mgrwt>
</event>
<event>
 6    1  0.1901260E-004  0.3000000E+03  0.7818608E-02  0.1093470E+00
          1   -1    0    0  502    0  0.00000000000E+00  0.00000000000E+00  0.38084962273E+02  0.38084962273E+02  0.00000000000E+00 0.  1.
         13   -1    0    0    0    0 -0.00000000000E+00 -0.00000000000E+00 -0.10000000000E+04  0.10000000000E+04  0.00000000000E+00 0.  1.
    9000005    2    1    2  501    0  0.14400619691E+02  0.74362144803E+00 -0.96703527118E+03  0.10227830797E+04  0.33274627202E+03 0.  0.
         13    1    3    3    0    0  0.12843651563E+01 -0.15651174987E+03 -0.31263804426E+03  0.34962855169E+03  0.00000000000E+00 0.  1.
          3    1    3    3  501    0  0.13116254535E+02  0.15725537132E+03 -0.65439722692E+03  0.67315452799E+03  0.00000000000E+00 0.  1.
         21    1    1    2  502  501 -0.14400619691E+02 -0.74362144803E+00  0.51202334541E+01  0.15301882596E+02  0.00000000000E+00 0.  1.
<mgrwt>
<rscale>  1 0.30000000E+03</rscale>
<asrwt>0</asrwt>
<pdfrwt beam="1">  1        1 0.13849106E+00 0.30000000E+03</pdfrwt>
<pdfrwt beam="2">0</pdfrwt>
<totfact> 0.20605165E+01</totfact>
</mgrwt>
</event>
<event>
 6    1  0.1901260E-004  0.3000000E+03  0.7818608E-02  0.1093470E+00
          1   -1    0    0  502    0  0.00000000000E+00  0.00000000000E+00  0.34919534805E+02  0.34919534805E+02  0.00000000000E+00 0.  1.
         13   -1    0    0    0    0 -0.00000000000E+00 -0.00000000000E+00 -0.10000000000E+04  0.10000000000E+04  0.00000000000E+00 0.  1.
    9000005    2    1    2  501    0  0.47694765682E+00 -0.17395330056E+02 -0.96290413742E+03  0.10173821066E+04  0.32799260342E+03 0.  0.
         13    1    3    3    0    0  0.32504659855E+02 -0.10084896831E+03 -0.90432054575E+03  0.91050684610E+03  0.00000000000E+00 0.  1.
          3    1    3    3  501    0 -0.32027712198E+02  0.83453638253E+02 -0.58583591674E+02  0.10687526047E+03  0.00000000000E+00 0.  1.
         21    1    1    2  502  501 -0.47694765682E+00  0.17395330056E+02 -0.21763277711E+01  0.17537428243E+02  0.00000000000E+00 0.  1.
<mgrwt>
<rscale>  1 0.30000000E+03</rscale>
<asrwt>0</asrwt>
<pdfrwt beam="1">  1        1 0.12698039E+00 0.30000000E+03</pdfrwt>
<pdfrwt beam="2">0</pdfrwt>
<totfact> 0.23767590E+01</totfact>
</mgrwt>
</event>
<event>
 6    1  0.1901260E-004  0.3000000E+03  0.7818608E-02  0.1093470E+00
          1   -1    0    0  502    0  0.00000000000E+00  0.00000000000E+00  0.35758129932E+02  0.35758129932E+02  0.00000000000E+00 0.  1.
         13   -1    0    0    0    0 -0.00000000000E+00 -0.00000000000E+00 -0.10000000000E+04  0.10000000000E+04  0.00000000000E+00 0.  1.
    9000005    2    1    2  501    0 -0.13446751721E+02 -0.52219754581E+01 -0.96645184724E+03  0.10211647013E+04  0.32945423056E+03 0.  0.
         13    1    3    3    0    0  0.83058861735E+02 -0.98939970610E+02 -0.78350629558E+03  0.79408438312E+03  0.00000000000E+00 0.  1.
          3    1    3    3  501    0 -0.96505613455E+02  0.93717995152E+02 -0.18294555166E+03  0.22708031821E+03  0.00000000000E+00 0.  1.
         21    1    1    2  502  501  0.13446751721E+02  0.52219754581E+01  0.22099771726E+01  0.14593428611E+02  0.00000000000E+00 0.  1.
<mgrwt>
<rscale>  1 0.30000000E+03</rscale>
<asrwt>0</asrwt>
<pdfrwt beam="1">  1        1 0.13002984E+00 0.30000000E+03</pdfrwt>
<pdfrwt beam="2">0</pdfrwt>
<totfact> 0.22871222E+01</totfact>
</mgrwt>
</event>
<event>
 6    1  0.1901260E-004  0.3000000E+03  0.7818608E-02  0.1093470E+00
          1   -1    0    0  502    0  0.00000000000E+00  0.00000000000E+00  0.28029752556E+02  0.28029752556E+02  0.00000000000E+00 0.  1.
         13   -1    0    0    0    0 -0.00000000000E+00 -0.00000000000E+00 -0.10000000000E+04  0.10000000000E+04  0.00000000000E+00 0.  1.
    9000005    2    1    2  501    0 -0.80433842485E+01  0.33032689211E+02 -0.93317227973E+03  0.97644354427E+03  0.28543937518E+03 0.  0.
         13    1    3    3    0    0  0.25217691343E+01 -0.11997985274E+03 -0.26520007924E+03  0.29108865730E+03  0.00000000000E+00 0.  1.
          3    1    3    3  501    0 -0.10565153383E+02  0.15301254195E+03 -0.66797220049E+03  0.68535488696E+03  0.00000000000E+00 0.  1.
         21    1    1    2  502  501  0.80433842485E+01 -0.33032689211E+02 -0.38797967719E+02  0.51586208290E+02  0.00000000000E+00 0.  1.
<mgrwt>
<rscale>  1 0.30000000E+03</rscale>
<asrwt>0</asrwt>
<pdfrwt beam="1">  1        1 0.10192659E+00 0.30000000E+03</pdfrwt>
<pdfrwt beam="2">0</pdfrwt>
<totfact> 0.33282424E+01</totfact>
</mgrwt>
</event>
<event>
 6    1  0.1901260E-004  0.3000000E+03  0.7818608E-02  0.1093470E+00
          1   -1    0    0  502    0  0.00000000000E+00  0.00000000000E+00  0.34613260586E+02  0.34613260586E+02  0.00000000000E+00 0.  1.
         13   -1    0    0    0    0 -0.00000000000E+00 -0.00000000000E+00 -0.10000000000E+04  0.10000000000E+04  0.00000000000E+00 0.  1.
    9000005    2    1    2  501    0  0.10263310416E+02 -0.29885087179E+01 -0.96837876151E+03  0.10235128587E+04  0.33122028850E+03 0.  0.
         13    1    3    3    0    0 -0.27401027701E+02  0.63319367471E+02 -0.19668482476E+02  0.71742649929E+02  0.00000000000E+00 0.  1.
          1    1    3    3  501    0  0.37664338117E+02 -0.66307876189E+02 -0.94871027904E+03  0.95177020880E+03  0.00000000000E+00 0.  1.
         21    1    1    2  502  501 -0.10263310416E+02  0.29885087179E+01  0.29920221007E+01  0.11100401853E+02  0.00000000000E+00 0. -1.
<mgrwt>
<rscale>  1 0.30000000E+03</rscale>
<asrwt>0</asrwt>
<pdfrwt beam="1">  1        1 0.12586667E+00 0.30000000E+03</pdfrwt>
<pdfrwt beam="2">0</pdfrwt>
<totfact> 0.24106193E+01</totfact>
</mgrwt>
</event>
<event>
 6    1  0.1901260E-004  0.3000000E+03  0.7818608E-02  0.1093470E+00
          1   -1    0    0  502    0  0.00000000000E+00  0.00000000000E+00  0.30113081123E+02  0.30113081123E+02  0.00000000000E+00 0.  1.
         13   -1    0    0    0    0 -0.00000000000E+00 -0.00000000000E+00 -0.10000000000E+04  0.10000000000E+04  0.00000000000E+00 0.  1.
    9000005    2    1    2  501    0  0.13740048396E+02  0.23476869525E+00 -0.95518253012E+03  0.10099869018E+04  0.32788874923E+03 0.  0.
         13    1    3    3    0    0  0.64456750470E+02 -0.71825360427E+02 -0.90182276103E+03  0.90697180077E+03  0.00000000000E+00 0.  1.
          1    1    3    3  501    0 -0.50716702074E+02  0.72060129122E+02 -0.53359769090E+02  0.10301510101E+03  0.00000000000E+00 0.  1.
         21    1    1    2  502  501 -0.13740048396E+02 -0.23476869525E+00 -0.14704388757E+02  0.20126179344E+02  0.00000000000E+00 0.  1.
<mgrwt>
<rscale>  1 0.30000000E+03</rscale>
<asrwt>0</asrwt>
<pdfrwt beam="1">  1        1 0.10950234E+00 0.30000000E+03</pdfrwt>
<pdfrwt beam="2">0</pdfrwt>
<totfact> 0.29913546E+01</totfact>
</mgrwt>
</event>
<event>
 6    1  0.1901260E-004  0.3000000E+03  0.7818608E-02  0.1093470E+00
          1   -1    0    0  502    0  0.00000000000E+00  0.00000000000E+00  0.23366590439E+02  0.23366590439E+02  0.00000000000E+00 0.  1.
         13   -1    0    0    0    0 -0.00000000000E+00 -0.00000000000E+00 -0.10000000000E+04  0.10000000000E+04  0.00000000000E+00 0.  1.
    9000005    2    1    2  501    0  0.12777871194E+02 -0.16366248402E+02 -0.94813886238E+03  0.98810943091E+03  0.27741992902E+03 0.  0.
         13    1    3    3    0    0 -0.10867692959E+03 -0.45265077716E+02 -0.70530105236E+03  0.71505886243E+03  0.00000000000E+00 0.  1.
          1    1    3    3  501    0  0.12145480079E+03  0.28898829314E+02 -0.24283781002E+03  0.27305056848E+03  0.00000000000E+00 0.  1.
         21    1    1    2  502  501 -0.12777871194E+02  0.16366248402E+02 -0.28494547181E+02  0.35257159529E+02  0.00000000000E+00 0. -1.
<mgrwt>
<rscale>  1 0.30000000E+03</rscale>
<asrwt>0</asrwt>
<pdfrwt beam="1">  1        1 0.84969599E-01 0.30000000E+03</pdfrwt>
<pdfrwt beam="2">0</pdfrwt>
<totfact> 0.43190805E+01</totfact>
</mgrwt>
</event>
<event>
 6    1  0.1901260E-004  0.3000000E+03  0.7818608E-02  0.1093470E+00
          1   -1    0    0  502    0  0.00000000000E+00  0.00000000000E+00  0.23905524406E+02  0.23905524406E+02  0.00000000000E+00 0.  1.
         13   -1    0    0    0    0 -0.00000000000E+00 -0.00000000000E+00 -0.10000000000E+04  0.10000000000E+04  0.00000000000E+00 0.  1.
    9000005    2    1    2  501    0 -0.12798867651E+02  0.11538596502E+02 -0.96331611635E+03  0.10024523967E+04  0.27683192997E+03 0.  0.
         13    1    3    3    0    0  0.37568761213E+02  0.88078175545E+02 -0.85601498853E+03  0.86135407204E+03  0.00000000000E+00 0.  1.
          3    1    3    3  501    0 -0.50367628864E+02 -0.76539579043E+02 -0.10730112782E+03  0.14109832468E+03  0.00000000000E+00 0.  1.
         21    1    1    2  502  501  0.12798867651E+02 -0.11538596502E+02 -0.12778359240E+02  0.21453127681E+02  0.00000000000E+00 0. -1.
<mgrwt>
<rscale>  1 0.30000000E+03</rscale>
<asrwt>0</asrwt>
<pdfrwt beam="1">  1        1 0.86929363E-01 0.30000000E+03</pdfrwt>
<pdfrwt beam="2">0</pdfrwt>
<totfact> 0.41831883E+01</totfact>
</mgrwt>
</event>
<event>
 6    1  0.1901260E-004  0.3000000E+03  0.7818608E-02  0.1093470E+00
          1   -1    0    0  502    0  0.00000000000E+00  0.00000000000E+00  0.30417123282E+02  0.30417123282E+02  0.00000000000E+00 0.  1.
         13   -1    0    0    0    0 -0.00000000000E+00 -0.00000000000E+00 -0.10000000000E+04  0.10000000000E+04  0.00000000000E+00 0.  1.
    9000005    2    1    2  501    0 -0.78957845246E+01 -0.16579433976E+02 -0.95207467979E+03  0.10050447366E+04  0.32145218262E+03 0.  0.
         13    1    3    3    0    0  0.45729202994E+02 -0.13633653871E+03 -0.23080740270E+03  0.27193909049E+03  0.00000000000E+00 0.  1.
          3    1    3    3  501    0 -0.53624987519E+02  0.11975710474E+03 -0.72126727708E+03  0.73310564615E+03  0.00000000000E+00 0.  1.
         21    1    1    2  502  501  0.78957845246E+01  0.16579433976E+02 -0.17508196932E+02  0.25372386644E+02  0.00000000000E+00 0. -1.
<mgrwt>
<rscale>  1 0.30000000E+03</rscale>
<asrwt>0</asrwt>
<pdfrwt beam="1">  1        1 0.11060795E+00 0.30000000E+03</pdfrwt>
<pdfrwt beam="2">0</pdfrwt>
<totfact> 0.29463212E+01</totfact>
</mgrwt>
</event>
<event>
 6    1  0.1901260E-004  0.3000000E+03  0.7818608E-02  0.1093470E+00
          1   -1    0    0  502    0  0.00000000000E+00  0.00000000000E+00  0.33745083511E+02  0.33745083511E+02  0.00000000000E+00 0.  1.
         13   -1    0    0    0    0 -0.00000000000E+00 -0.00000000000E+00 -0.10000000000E+04  0.10000000000E+04  0.00000000000E+00 0.  1.
    9000005    2    1    2  501    0 -0.38828971895E+02 -0.88552881565E+01 -0.87190831329E+03  0.93133714084E+03  0.32492869670E+03 0.  0.
         13    1    3    3    0    0 -0.10599645833E+03  0.13270686930E+03 -0.42032356968E+03  0.45334122421E+03  0.00000000000E+00 0.  1.
          1    1    3    3  501    0  0.67167486436E+02 -0.14156215745E+03 -0.45158474361E+03  0.47799591663E+03  0.00000000000E+00 0.  1.
         21    1    1    2  502  501  0.38828971895E+02  0.88552881565E+01 -0.94346603200E+02  0.10240794267E+03  0.00000000000E+00 0. -1.
<mgrwt>
<rscale>  1 0.30000000E+03</rscale>
<asrwt>0</asrwt>
<pdfrwt beam="1">  1        1 0.12270965E+00 0.30000000E+03</pdfrwt>
<pdfrwt beam="2">0</pdfrwt>
<totfact> 0.25100031E+01</totfact>
</mgrwt>
</event>
<event>
 6    1  0.1901260E-004  0.3000000E+03  0.7818608E-02  0.1093470E+00
          3   -1    0    0  502    0  0.00000000000E+00  0.00000000000E+00  0.38699959295E+02  0.38699959295E+02  0.00000000000E+00 0.  1.
         13   -1    0    0    0    0 -0.00000000000E+00 -0.00000000000E+00 -0.10000000000E+04  0.10000000000E+04  0.00000000000E+00 0.  1.
    9000005    2    1    2  501    0  0.21573756384E+02 -0.13012138811E+02 -0.96553458285E+03  0.10131524728E+04  0.30591855069E+03 0.  0.
         13    1    3    3    0    0 -0.10149143716E+03 -0.10557871868E+03 -0.36738886821E+03  0.39550215946E+03  0.00000000000E+00 0.  1.
          1    1    3    3  501    0  0.12306519354E+03  0.92566579873E+02 -0.59814571465E+03  0.61765031330E+03  0.00000000000E+00 0.  1.
         21    1    1    2  502  501 -0.21573756384E+02  0.13012138811E+02  0.42345421487E+01  0.25547486533E+02  0.00000000000E+00 0.  1.
<mgrwt>
<rscale>  1 0.30000000E+03</rscale>
<asrwt>0</asrwt>
<pdfrwt beam="1">  1        3 0.14072742E+00 0.30000000E+03</pdfrwt>
<pdfrwt beam="2">0</pdfrwt>
<totfact> 0.13112623E+00</totfact>
</mgrwt>
</event>
<event>
 6    1  0.1901260E-004  0.3000000E+03  0.7818608E-02  0.1093470E+00
          1   -1    0    0  502    0  0.00000000000E+00  0.00000000000E+00  0.48714513217E+02  0.48714513217E+02  0.00000000000E+00 0.  1.
         13   -1    0    0    0    0 -0.00000000000E+00 -0.00000000000E+00 -0.10000000000E+04  0.10000000000E+04  0.00000000000E+00 0.  1.
    9000005    2    1    2  501    0  0.15686848050E+02 -0.14362548884E+02 -0.96516072456E+03  0.10233199816E+04  0.33940565774E+03 0.  0.
         13    1    3    3    0    0  0.12803619232E+03  0.32493275588E+02 -0.83392001005E+03  0.84431727607E+03  0.00000000000E+00 0.  1.
          1    1    3    3  501    0 -0.11234934427E+03 -0.46855824472E+02 -0.13124071451E+03  0.17900270554E+03  0.00000000000E+00 0.  1.
         21    1    1    2  502  501 -0.15686848050E+02  0.14362548884E+02  0.13875237780E+02  0.25394531609E+02  0.00000000000E+00 0. -1.
<mgrwt>
<rscale>  1 0.30000000E+03</rscale>
<asrwt>0</asrwt>
<pdfrwt beam="1">  1        1 0.17714406E+00 0.30000000E+03</pdfrwt>
<pdfrwt beam="2">0</pdfrwt>
<totfact> 0.13187910E+01</totfact>
</mgrwt>
</event>
<event>
 6    1  0.1901260E-004  0.3000000E+03  0.7818608E-02  0.1093470E+00
          1   -1    0    0  502    0  0.00000000000E+00  0.00000000000E+00  0.32814748678E+02  0.32814748678E+02  0.00000000000E+00 0.  1.
         13   -1    0    0    0    0 -0.00000000000E+00 -0.00000000000E+00 -0.10000000000E+04  0.10000000000E+04  0.00000000000E+00 0.  1.
    9000005    2    1    2  501    0 -0.79173813931E+01  0.69988996982E+01 -0.96985962379E+03  0.10219142077E+04  0.32182182735E+03 0.  0.
         13    1    3    3    0    0 -0.15048471491E+03 -0.37355463628E+02 -0.32635384674E+03  0.36131414775E+03  0.00000000000E+00 0.  1.
          1    1    3    3  501    0  0.14256733352E+03  0.44354363326E+02 -0.64350577705E+03  0.66060005997E+03  0.00000000000E+00 0.  1.
         21    1    1    2  502  501  0.79173813931E+01 -0.69988996982E+01  0.26743724645E+01  0.10900540959E+02  0.00000000000E+00 0.  1.
<mgrwt>
<rscale>  1 0.30000000E+03</rscale>
<asrwt>0</asrwt>
<pdfrwt beam="1">  1        1 0.11932661E+00 0.30000000E+03</pdfrwt>
<pdfrwt beam="2">0</pdfrwt>
<totfact> 0.26225277E+01</totfact>
</mgrwt>
</event>
<event>
 6    1  0.1901260E-004  0.3000000E+03  0.7818608E-02  0.1093470E+00
          1   -1    0    0  502    0  0.00000000000E+00  0.00000000000E+00  0.58854016203E+02  0.58854016203E+02  0.00000000000E+00 0.  1.
         13   -1    0    0    0    0 -0.00000000000E+00 -0.00000000000E+00 -0.10000000000E+04  0.10000000000E+04  0.00000000000E+00 0.  1.
    9000005    2    1    2  501    0  0.71794212997E+01  0.22452076372E+02 -0.95453885626E+03  0.10317429694E+04  0.39088807487E+03 0.  0.
         13    1    3    3    0    0  0.11397668196E+03  0.49323648725E+02 -0.74463940095E+02  0.14480464332E+03  0.00000000000E+00 0.  1.
          1    1    3    3  501    0 -0.10679726066E+03 -0.26871572353E+02 -0.88007491616E+03  0.88693832612E+03  0.00000000000E+00 0.  1.
         21    1    1    2  502  501 -0.71794212997E+01 -0.22452076372E+02  0.13392872460E+02  0.27111046758E+02  0.00000000000E+00 0.  1.
<mgrwt>
<rscale>  1 0.30000000E+03</rscale>
<asrwt>0</asrwt>
<pdfrwt beam="1">  1        1 0.21401506E+00 0.30000000E+03</pdfrwt>
<pdfrwt beam="2">0</pdfrwt>
<totfact> 0.87941851E+00</totfact>
</mgrwt>
</event>
<event>
 6    1  0.1901260E-004  0.3000000E+03  0.7818608E-02  0.1093470E+00
          3   -1    0    0  502    0  0.00000000000E+00  0.00000000000E+00  0.53969519670E+02  0.53969519670E+02  0.00000000000E+00 0.  1.
         13   -1    0    0    0    0 -0.00000000000E+00 -0.00000000000E+00 -0.10000000000E+04  0.10000000000E+04  0.00000000000E+00 0.  1.
    9000005    2    1    2  501    0  0.10575614470E+02 -0.28149674590E+01 -0.97129221020E+03  0.10264391245E+04  0.33173626725E+03 0.  0.
         13    1    3    3    0    0 -0.15269908587E+03 -0.36516088711E+02 -0.35849158792E+03  0.39136511619E+03  0.00000000000E+00 0.  1.
          3    1    3    3  501    0  0.16327470034E+03  0.33701121252E+02 -0.61280062228E+03  0.63507400829E+03  0.00000000000E+00 0.  1.
         21    1    1    2  502  501 -0.10575614470E+02  0.28149674590E+01  0.25261729870E+02  0.27530395189E+02  0.00000000000E+00 0.  1.
<mgrwt>
<rscale>  1 0.30000000E+03</rscale>
<asrwt>0</asrwt>
<pdfrwt beam="1">  1        3 0.19625321E+00 0.30000000E+03</pdfrwt>
<pdfrwt beam="2">0</pdfrwt>
<totfact> 0.14799818E-01</totfact>
</mgrwt>
</event>
<event>
 6    1  0.1901260E-004  0.3000000E+03  0.7818608E-02  0.1093470E+00
          1   -1    0    0  502    0  0.00000000000E+00  0.00000000000E+00  0.22678378365E+02  0.22678378365E+02  0.00000000000E+00 0.  1.
         13   -1    0    0    0    0 -0.00000000000E+00 -0.00000000000E+00 -0.10000000000E+04  0.10000000000E+04  0.00000000000E+00 0.  1.
    9000005    2    1    2  501    0  0.98592823101E+01  0.48912023699E+01 -0.96824797645E+03  0.10084144257E+04  0.28155706487E+03 0.  0.
         13    1    3    3    0    0  0.13900811695E+03  0.87247825112E+00 -0.34576977098E+03  0.37266707974E+03  0.00000000000E+00 0.  1.
          1    1    3    3  501    0 -0.12914883464E+03  0.40187241188E+01 -0.62247820547E+03  0.63574734598E+03  0.00000000000E+00 0.  1.
         21    1    1    2  502  501 -0.98592823101E+01 -0.48912023699E+01 -0.90736451862E+01  0.14263952652E+02  0.00000000000E+00 0.  1.
<mgrwt>
<rscale>  1 0.30000000E+03</rscale>
<asrwt>0</asrwt>
<pdfrwt beam="1">  1        1 0.82467004E-01 0.30000000E+03</pdfrwt>
<pdfrwt beam="2">0</pdfrwt>
<totfact> 0.45029288E+01</totfact>
</mgrwt>
</event>
<event>
 6    1  0.1901260E-004  0.3000000E+03  0.7818608E-02  0.1093470E+00
          1   -1    0    0  502    0  0.00000000000E+00  0.00000000000E+00  0.38306920684E+02  0.38306920684E+02  0.00000000000E+00 0.  1.
         13   -1    0    0    0    0 -0.00000000000E+00 -0.00000000000E+00 -0.10000000000E+04  0.10000000000E+04  0.00000000000E+00 0.  1.
    9000005    2    1    2  501    0 -0.11735810371E+02  0.75277877681E+01 -0.96886986358E+03  0.10226256240E+04  0.32689441330E+03 0.  0.
         13    1    3    3    0    0 -0.20253689852E+02  0.13381609216E+03 -0.18848346861E+03  0.23204089384E+03  0.00000000000E+00 0.  1.
          3    1    3    3  501    0  0.85178794817E+01 -0.12628830439E+03 -0.78038639497E+03  0.79058473015E+03  0.00000000000E+00 0.  1.
         21    1    1    2  502  501  0.11735810371E+02 -0.75277877681E+01  0.71767842634E+01  0.15681296697E+02  0.00000000000E+00 0. -1.
<mgrwt>
<rscale>  1 0.30000000E+03</rscale>
<asrwt>0</asrwt>
<pdfrwt beam="1">  1        1 0.13929819E+00 0.30000000E+03</pdfrwt>
<pdfrwt beam="2">0</pdfrwt>
<totfact> 0.20404604E+01</totfact>
</mgrwt>
</event>
<event>
 6    1  0.1901260E-004  0.3000000E+03  0.7818608E-02  0.1093470E+00
          1   -1    0    0  502    0  0.00000000000E+00  0.00000000000E+00  0.33926046967E+02  0.33926046967E+02  0.00000000000E+00 0.  1.
         13   -1    0    0    0    0 -0.00000000000E+00 -0.00000000000E+00 -0.10000000000E+04  0.10000000000E+04  0.00000000000E+00 0.  1.
    9000005    2    1    2  501    0 -0.26847176985E+02 -0.22229888918E+02 -0.92240432254E+03  0.97805140602E+03  0.32332627439E+03 0.  0.
         13    1    3    3    0    0 -0.61162600333E+01  0.33303076375E+02  0.16228876645E+02  0.37548368407E+02  0.00000000000E+00 0.  1.
          1    1    3    3  501    0 -0.20730916952E+02 -0.55532965293E+02 -0.93863319918E+03  0.94050303761E+03  0.00000000000E+00 0.  1.
         21    1    1    2  502  501  0.26847176985E+02  0.22229888918E+02 -0.43669630494E+02  0.55874640946E+02  0.00000000000E+00 0. -1.
<mgrwt>
<rscale>  1 0.30000000E+03</rscale>
<asrwt>0</asrwt>
<pdfrwt beam="1">  1        1 0.12336770E+00 0.30000000E+03</pdfrwt>
<pdfrwt beam="2">0</pdfrwt>
<totfact> 0.24888586E+01</totfact>
</mgrwt>
</event>
<event>
 6    1  0.1901260E-004  0.3000000E+03  0.7818608E-02  0.1093470E+00
          1   -1    0    0  502    0  0.00000000000E+00  0.00000000000E+00  0.32852007567E+02  0.32852007567E+02  0.00000000000E+00 0.  1.
         13   -1    0    0    0    0 -0.00000000000E+00 -0.00000000000E+00 -0.10000000000E+04  0.10000000000E+04  0.00000000000E+00 0.  1.
    9000005    2    1    2  501    0 -0.11768119691E+02 -0.29388244394E+01 -0.93575951882E+03  0.99920142651E+03  0.35015780490E+03 0.  0.
         13    1    3    3    0    0  0.19891178960E+02  0.14893503680E+03 -0.21734797569E+03  0.26422991262E+03  0.00000000000E+00 0.  1.
          1    1    3    3  501    0 -0.31659298651E+02 -0.15187386124E+03 -0.71841154314E+03  0.73497151389E+03  0.00000000000E+00 0.  1.
         21    1    1    2  502  501  0.11768119691E+02  0.29388244394E+01 -0.31388473611E+02  0.33650581061E+02  0.00000000000E+00 0. -1.
<mgrwt>
<rscale>  1 0.30000000E+03</rscale>
<asrwt>0</asrwt>
<pdfrwt beam="1">  1        1 0.11946210E+00 0.30000000E+03</pdfrwt>
<pdfrwt beam="2">0</pdfrwt>
<totfact> 0.26178932E+01</totfact>
</mgrwt>
</event>
<event>
 6    1  0.1901260E-004  0.3000000E+03  0.7818608E-02  0.1093470E+00
          3   -1    0    0  502    0  0.00000000000E+00  0.00000000000E+00  0.34206573113E+02  0.34206573113E+02  0.00000000000E+00 0.  1.
         13   -1    0    0    0    0 -0.00000000000E+00 -0.00000000000E+00 -0.10000000000E+04  0.10000000000E+04  0.00000000000E+00 0.  1.
    9000005    2    1    2  501    0 -0.12200506024E+02 -0.31904797483E+02 -0.92591542067E+03  0.98169920383E+03  0.32441823640E+03 0.  0.
         13    1    3    3    0    0  0.14778430646E+02  0.13414402377E+03 -0.59928541916E+03  0.61429311794E+03  0.00000000000E+00 0.  1.
          3    1    3    3  501    0 -0.26978936670E+02 -0.16604882125E+03 -0.32663000151E+03  0.36740608589E+03  0.00000000000E+00 0.  1.
         21    1    1    2  502  501  0.12200506024E+02  0.31904797483E+02 -0.39878006215E+02  0.52507369286E+02  0.00000000000E+00 0. -1.
<mgrwt>
<rscale>  1 0.30000000E+03</rscale>
<asrwt>0</asrwt>
<pdfrwt beam="1">  1        3 0.12438780E+00 0.30000000E+03</pdfrwt>
<pdfrwt beam="2">0</pdfrwt>
<totfact> 0.20568717E+00</totfact>
</mgrwt>
</event>
<event>
 6    1  0.1901260E-004  0.3000000E+03  0.7818608E-02  0.1093470E+00
          1   -1    0    0  502    0  0.00000000000E+00  0.00000000000E+00  0.33380084759E+02  0.33380084759E+02  0.00000000000E+00 0.  1.
         13   -1    0    0    0    0 -0.00000000000E+00 -0.00000000000E+00 -0.10000000000E+04  0.10000000000E+04  0.00000000000E+00 0.  1.
    9000005    2    1    2  501    0  0.12283816918E+02 -0.11756060814E+01 -0.96717059829E+03  0.10210278599E+04  0.32699640707E+03 0.  0.
         13    1    3    3    0    0 -0.95238802592E+02  0.12221621715E+03 -0.35466822444E+03  0.38703589327E+03  0.00000000000E+00 0.  1.
          1    1    3    3  501    0  0.10752261951E+03 -0.12339182323E+03 -0.61250237385E+03  0.63399196660E+03  0.00000000000E+00 0.  1.
         21    1    1    2  502  501 -0.12283816918E+02  0.11756060814E+01  0.55068305034E+00  0.12352224883E+02  0.00000000000E+00 0. -1.
<mgrwt>
<rscale>  1 0.30000000E+03</rscale>
<asrwt>0</asrwt>
<pdfrwt beam="1">  1        1 0.12138238E+00 0.30000000E+03</pdfrwt>
<pdfrwt beam="2">0</pdfrwt>
<totfact> 0.25533719E+01</totfact>
</mgrwt>
</event>
<event>
 6    1  0.1901260E-004  0.3000000E+03  0.7818608E-02  0.1093470E+00
          1   -1    0    0  502    0  0.00000000000E+00  0.00000000000E+00  0.26644605551E+02  0.26644605551E+02  0.00000000000E+00 0.  1.
         13   -1    0    0    0    0 -0.00000000000E+00 -0.00000000000E+00 -0.10000000000E+04  0.10000000000E+04  0.00000000000E+00 0.  1.
    9000005    2    1    2  501    0 -0.41966525200E+02 -0.82242854506E+02 -0.84906789149E+03  0.87181418301E+03  0.17498173896E+03 0.  0.
         13    1    3    3    0    0 -0.42399432425E+02  0.48881939984E+02 -0.22503171150E+03  0.23415043692E+03  0.00000000000E+00 0.  1.
          1    1    3    3  501    0  0.43290722524E+00 -0.13112479449E+03 -0.62403617999E+03  0.63766374609E+03  0.00000000000E+00 0.  1.
         21    1    1    2  502  501  0.41966525200E+02  0.82242854506E+02 -0.12428750295E+03  0.15483042254E+03  0.00000000000E+00 0.  1.
<mgrwt>
<rscale>  1 0.30000000E+03</rscale>
<asrwt>0</asrwt>
<pdfrwt beam="1">  1        1 0.96889679E-01 0.30000000E+03</pdfrwt>
<pdfrwt beam="2">0</pdfrwt>
<totfact> 0.35837294E+01</totfact>
</mgrwt>
</event>
<event>
 6    1  0.1901260E-004  0.3000000E+03  0.7818608E-02  0.1093470E+00
          1   -1    0    0  502    0  0.00000000000E+00  0.00000000000E+00  0.36888026755E+02  0.36888026755E+02  0.00000000000E+00 0.  1.
         13   -1    0    0    0    0 -0.00000000000E+00 -0.00000000000E+00 -0.10000000000E+04  0.10000000000E+04  0.00000000000E+00 0.  1.
    9000005    2    1    2  501    0  0.10189024620E+02 -0.20340361448E+02 -0.93520604026E+03  0.10008840322E+04  0.35586649420E+03 0.  0.
         13    1    3    3    0    0 -0.15374055660E+03  0.32585437238E+01 -0.67611085496E+03  0.69337772176E+03  0.00000000000E+00 0.  1.
          1    1    3    3  501    0  0.16392958122E+03 -0.23598905171E+02 -0.25909518531E+03  0.30750631046E+03  0.00000000000E+00 0.  1.
         21    1    1    2  502  501 -0.10189024620E+02  0.20340361448E+02 -0.27905932983E+02  0.36003994531E+02  0.00000000000E+00 0. -1.
<mgrwt>
<rscale>  1 0.30000000E+03</rscale>
<asrwt>0</asrwt>
<pdfrwt beam="1">  1        1 0.13413856E+00 0.30000000E+03</pdfrwt>
<pdfrwt beam="2">0</pdfrwt>
<totfact> 0.21731842E+01</totfact>
</mgrwt>
</event>
<event>
 6    1  0.1901260E-004  0.3000000E+03  0.7818608E-02  0.1093470E+00
          1   -1    0    0  502    0  0.00000000000E+00  0.00000000000E+00  0.14765055308E+02  0.14765055308E+02  0.00000000000E+00 0.  1.
         13   -1    0    0    0    0 -0.00000000000E+00 -0.00000000000E+00 -0.10000000000E+04  0.10000000000E+04  0.00000000000E+00 0.  1.
    9000005    2    1    2  501    0 -0.15024053570E+02  0.47567792249E+01 -0.94783750158E+03  0.97418281922E+03  0.22447246320E+03 0.  0.
         13    1    3    3    0    0  0.37269049144E+02 -0.60164206058E+02 -0.81008237009E+03  0.81316797776E+03  0.00000000000E+00 0.  1.
          3    1    3    3  501    0 -0.52293102714E+02  0.64920985283E+02 -0.13775513149E+03  0.16101484147E+03  0.00000000000E+00 0.  1.
         21    1    1    2  502  501  0.15024053570E+02 -0.47567792249E+01 -0.37397443114E+02  0.40582236086E+02  0.00000000000E+00 0. -1.
<mgrwt>
<rscale>  1 0.30000000E+03</rscale>
<asrwt>0</asrwt>
<pdfrwt beam="1">  1        1 0.53691223E-01 0.30000000E+03</pdfrwt>
<pdfrwt beam="2">0</pdfrwt>
<totfact> 0.80343479E+01</totfact>
</mgrwt>
</event>
<event>
 6    1  0.1901260E-004  0.3000000E+03  0.7818608E-02  0.1093470E+00
          1   -1    0    0  502    0  0.00000000000E+00  0.00000000000E+00  0.24391471918E+02  0.24391471918E+02  0.00000000000E+00 0.  1.
         13   -1    0    0    0    0 -0.00000000000E+00 -0.00000000000E+00 -0.10000000000E+04  0.10000000000E+04  0.00000000000E+00 0.  1.
    9000005    2    1    2  501    0  0.96243367384E+01  0.29906887704E+01 -0.92467520172E+03  0.97247061088E+03  0.30095396370E+03 0.  0.
         13    1    3    3    0    0 -0.17594020181E+02  0.15014015187E+03 -0.44262992553E+03  0.46773161719E+03  0.00000000000E+00 0.  1.
          1    1    3    3  501    0  0.27218356920E+02 -0.14714946310E+03 -0.48204527619E+03  0.50473899368E+03  0.00000000000E+00 0.  1.
         21    1    1    2  502  501 -0.96243367384E+01 -0.29906887704E+01 -0.50933326361E+02  0.51920861041E+02  0.00000000000E+00 0.  1.
<mgrwt>
<rscale>  1 0.30000000E+03</rscale>
<asrwt>0</asrwt>
<pdfrwt beam="1">  1        1 0.88696449E-01 0.30000000E+03</pdfrwt>
<pdfrwt beam="2">0</pdfrwt>
<totfact> 0.40662676E+01</totfact>
</mgrwt>
</event>
<event>
 6    1  0.1901260E-004  0.3000000E+03  0.7818608E-02  0.1093470E+00
          1   -1    0    0  502    0  0.00000000000E+00  0.00000000000E+00  0.35213845945E+02  0.35213845945E+02  0.00000000000E+00 0.  1.
         13   -1    0    0    0    0 -0.00000000000E+00 -0.00000000000E+00 -0.10000000000E+04  0.10000000000E+04  0.00000000000E+00 0.  1.
    9000005    2    1    2  501    0 -0.20186509032E+02 -0.30960197995E+02 -0.92960639265E+03  0.98418792489E+03  0.32107911368E+03 0.  0.
         13    1    3    3    0    0 -0.15437135559E+02  0.14342667821E+03 -0.50338831155E+03  0.52364998748E+03  0.00000000000E+00 0.  1.
          3    1    3    3  501    0 -0.47493734727E+01 -0.17438687621E+03 -0.42621808110E+03  0.46053793742E+03  0.00000000000E+00 0.  1.
         21    1    1    2  502  501  0.20186509032E+02  0.30960197995E+02 -0.35179761401E+02  0.51025921050E+02  0.00000000000E+00 0.  1.
<mgrwt>
<rscale>  1 0.30000000E+03</rscale>
<asrwt>0</asrwt>
<pdfrwt beam="1">  1        1 0.12805062E+00 0.30000000E+03</pdfrwt>
<pdfrwt beam="2">0</pdfrwt>
<totfact> 0.23447928E+01</totfact>
</mgrwt>
</event>
<event>
 6    1  0.1901260E-004  0.3000000E+03  0.7818608E-02  0.1093470E+00
          1   -1    0    0  502    0  0.00000000000E+00  0.00000000000E+00  0.33625286673E+02  0.33625286673E+02  0.00000000000E+00 0.  1.
         13   -1    0    0    0    0 -0.00000000000E+00 -0.00000000000E+00 -0.10000000000E+04  0.10000000000E+04  0.00000000000E+00 0.  1.
    9000005    2    1    2  501    0 -0.13821404452E+02  0.27579836560E+01 -0.96392131248E+03  0.10193194532E+04  0.33116342397E+03 0.  0.
         13    1    3    3    0    0  0.37966106839E+02  0.93885005054E+02 -0.87791001913E+03  0.88373175858E+03  0.00000000000E+00 0.  1.
          1    1    3    3  501    0 -0.51787511291E+02 -0.91127021398E+02 -0.86011293356E+02  0.13558769465E+03  0.00000000000E+00 0.  1.
         21    1    1    2  502  501  0.13821404452E+02 -0.27579836560E+01 -0.24534008432E+01  0.14305833445E+02  0.00000000000E+00 0.  1.
<mgrwt>
<rscale>  1 0.30000000E+03</rscale>
<asrwt>0</asrwt>
<pdfrwt beam="1">  1        1 0.12227403E+00 0.30000000E+03</pdfrwt>
<pdfrwt beam="2">0</pdfrwt>
<totfact> 0.25241298E+01</totfact>
</mgrwt>
</event>
<event>
 6    1  0.1901260E-004  0.3000000E+03  0.7818608E-02  0.1093470E+00
          1   -1    0    0  502    0  0.00000000000E+00  0.00000000000E+00  0.33709828550E+02  0.33709828550E+02  0.00000000000E+00 0.  1.
         13   -1    0    0    0    0 -0.00000000000E+00 -0.00000000000E+00 -0.10000000000E+04  0.10000000000E+04  0.00000000000E+00 0.  1.
    9000005    2    1    2  501    0 -0.70399332562E+00  0.15116417356E+02 -0.96676405359E+03  0.10185696091E+04  0.32034717357E+03 0.  0.
         13    1    3    3    0    0 -0.12394022554E+03  0.10101762647E+03 -0.36773771947E+03  0.40099472651E+03  0.00000000000E+00 0.  1.
          1    1    3    3  501    0  0.12323623221E+03 -0.85901209116E+02 -0.59902633412E+03  0.61757488261E+03  0.00000000000E+00 0.  1.
         21    1    1    2  502  501  0.70399332562E+00 -0.15116417356E+02  0.47388214126E+00  0.15140219436E+02  0.00000000000E+00 0. -1.
<mgrwt>
<rscale>  1 0.30000000E+03</rscale>
<asrwt>0</asrwt>
<pdfrwt beam="1">  1        1 0.12258145E+00 0.30000000E+03</pdfrwt>
<pdfrwt beam="2">0</pdfrwt>
<totfact> 0.25141496E+01</totfact>
</mgrwt>
</event>
<event>
 6    1  0.1901260E-004  0.3000000E+03  0.7818608E-02  0.1093470E+00
          1   -1    0    0  502    0  0.00000000000E+00  0.00000000000E+00  0.35267728882E+02  0.35267728882E+02  0.00000000000E+00 0.  1.
         13   -1    0    0    0    0 -0.00000000000E+00 -0.00000000000E+00 -0.10000000000E+04  0.10000000000E+04  0.00000000000E+00 0.  1.
    9000005    2    1    2  501    0  0.28344283590E+02  0.82819014402E+01 -0.94088594532E+03  0.99731202367E+03  0.32938263792E+03 0.  0.
         13    1    3    3    0    0  0.15201769814E+03 -0.85562829236E+02 -0.45873855553E+03  0.49078655302E+03  0.00000000000E+00 0.  1.
          1    1    3    3  501    0 -0.12367341455E+03  0.93844730676E+02 -0.48214738978E+03  0.50652547065E+03  0.00000000000E+00 0.  1.
         21    1    1    2  502  501 -0.28344283590E+02 -0.82819014402E+01 -0.23846325802E+02  0.37955705210E+02  0.00000000000E+00 0.  1.
<mgrwt>
<rscale>  1 0.30000000E+03</rscale>
<asrwt>0</asrwt>
<pdfrwt beam="1">  1        1 0.12824656E+00 0.30000000E+03</pdfrwt>
<pdfrwt beam="2">0</pdfrwt>
<totfact> 0.23390003E+01</totfact>
</mgrwt>
</event>
<event>
 6    1  0.1901260E-004  0.3000000E+03  0.7818608E-02  0.1093470E+00
          1   -1    0    0  502    0  0.00000000000E+00  0.00000000000E+00  0.22045836884E+02  0.22045836884E+02  0.00000000000E+00 0.  1.
         13   -1    0    0    0    0 -0.00000000000E+00 -0.00000000000E+00 -0.10000000000E+04  0.10000000000E+04  0.00000000000E+00 0.  1.
    9000005    2    1    2  501    0  0.23072071399E+02 -0.68095115741E+01 -0.96615908995E+03  0.99525379184E+03  0.23767211270E+03 0.  0.
         13    1    3    3    0    0 -0.42834058614E+02  0.34342523668E+02 -0.86952634110E+03  0.87125783978E+03  0.00000000000E+00 0.  1.
          1    1    3    3  501    0  0.65906130013E+02 -0.41152035242E+02 -0.96632748850E+02  0.12399595206E+03  0.00000000000E+00 0.  1.
         21    1    1    2  502  501 -0.23072071399E+02  0.68095115741E+01 -0.11795073164E+02  0.26792045040E+02  0.00000000000E+00 0.  1.
<mgrwt>
<rscale>  1 0.30000000E+03</rscale>
<asrwt>0</asrwt>
<pdfrwt beam="1">  1        1 0.80166849E-01 0.30000000E+03</pdfrwt>
<pdfrwt beam="2">0</pdfrwt>
<totfact> 0.46830687E+01</totfact>
</mgrwt>
</event>
<event>
 6    1  0.1901260E-004  0.3000000E+03  0.7818608E-02  0.1093470E+00
          1   -1    0    0  502    0  0.00000000000E+00  0.00000000000E+00  0.47155600723E+02  0.47155600723E+02  0.00000000000E+00 0.  1.
         13   -1    0    0    0    0 -0.00000000000E+00 -0.00000000000E+00 -0.10000000000E+04  0.10000000000E+04  0.00000000000E+00 0.  1.
    9000005    2    1    2  501    0 -0.25198891597E+02  0.12954100725E+02 -0.96297140858E+03  0.10170665798E+04  0.32604861772E+03 0.  0.
         13    1    3    3    0    0  0.12791264912E+03  0.84655503797E+02 -0.37190587333E+03  0.40229613315E+03  0.00000000000E+00 0.  1.
          3    1    3    3  501    0 -0.15311154072E+03 -0.71701403071E+02 -0.59106553525E+03  0.61477044664E+03  0.00000000000E+00 0.  1.
         21    1    1    2  502  501  0.25198891597E+02 -0.12954100725E+02  0.10127009303E+02  0.30089020933E+02  0.00000000000E+00 0.  1.
<mgrwt>
<rscale>  1 0.30000000E+03</rscale>
<asrwt>0</asrwt>
<pdfrwt beam="1">  1        1 0.17147527E+00 0.30000000E+03</pdfrwt>
<pdfrwt beam="2">0</pdfrwt>
<totfact> 0.14052187E+01</totfact>
</mgrwt>
</event>
<event>
 6    1  0.1901260E-004  0.3000000E+03  0.7818608E-02  0.1093470E+00
          1   -1    0    0  502    0  0.00000000000E+00  0.00000000000E+00  0.36674898822E+02  0.36674898822E+02  0.00000000000E+00 0.  1.
         13   -1    0    0    0    0 -0.00000000000E+00 -0.00000000000E+00 -0.10000000000E+04  0.10000000000E+04  0.00000000000E+00 0.  1.
    9000005    2    1    2  501    0 -0.14028221044E+02 -0.41809514381E+01 -0.96376286415E+03  0.10220303443E+04  0.33984245618E+03 0.  0.
         13    1    3    3    0    0 -0.12827630845E+03  0.54358208691E+02 -0.17895020616E+03  0.22678801212E+03  0.00000000000E+00 0.  1.
          3    1    3    3  501    0  0.11424808740E+03 -0.58539160129E+02 -0.78481265799E+03  0.79524233218E+03  0.00000000000E+00 0.  1.
         21    1    1    2  502  501  0.14028221044E+02  0.41809514381E+01  0.43776297113E+00  0.14644554517E+02  0.00000000000E+00 0. -1.
<mgrwt>
<rscale>  1 0.30000000E+03</rscale>
<asrwt>0</asrwt>
<pdfrwt beam="1">  1        1 0.13336355E+00 0.30000000E+03</pdfrwt>
<pdfrwt beam="2">0</pdfrwt>
<totfact> 0.21940947E+01</totfact>
</mgrwt>
</event>
<event>
 6    1  0.1901260E-004  0.3000000E+03  0.7818608E-02  0.1093470E+00
          1   -1    0    0  502    0  0.00000000000E+00  0.00000000000E+00  0.24472270015E+02  0.24472270015E+02  0.00000000000E+00 0.  1.
         13   -1    0    0    0    0 -0.00000000000E+00 -0.00000000000E+00 -0.10000000000E+04  0.10000000000E+04  0.00000000000E+00 0.  1.
    9000005    2    1    2  501    0  0.69205316841E+01 -0.27855032046E+01 -0.95370772690E+03  0.10014122327E+04  0.30530702357E+03 0.  0.
         13    1    3    3    0    0  0.15747806397E+02 -0.14171014383E+03 -0.67475403074E+03  0.68965408740E+03  0.00000000000E+00 0.  1.
          1    1    3    3  501    0 -0.88272747132E+01  0.13892464062E+03 -0.27895369616E+03  0.31175814528E+03  0.00000000000E+00 0.  1.
         21    1    1    2  502  501 -0.69205316841E+01  0.27855032046E+01 -0.21820003086E+02  0.23060037328E+02  0.00000000000E+00 0.  1.
<mgrwt>
<rscale>  1 0.30000000E+03</rscale>
<asrwt>0</asrwt>
<pdfrwt beam="1">  1        1 0.88990260E-01 0.30000000E+03</pdfrwt>
<pdfrwt beam="2">0</pdfrwt>
<totfact> 0.40473141E+01</totfact>
</mgrwt>
</event>
<event>
 6    1  0.1901260E-004  0.3000000E+03  0.7818608E-02  0.1093470E+00
          1   -1    0    0  502    0  0.00000000000E+00  0.00000000000E+00  0.31721796379E+02  0.31721796379E+02  0.00000000000E+00 0.  1.
         13   -1    0    0    0    0 -0.00000000000E+00 -0.00000000000E+00 -0.10000000000E+04  0.10000000000E+04  0.00000000000E+00 0.  1.
    9000005    2    1    2  501    0  0.14501927820E+02  0.18061638741E+02 -0.95592582694E+03  0.10054708933E+04  0.31087135907E+03 0.  0.
         13    1    3    3    0    0 -0.21736937647E+02 -0.14341397198E+03 -0.49051732537E+03  0.51151471954E+03  0.00000000000E+00 0.  1.
          3    1    3    3  501    0  0.36238865467E+02  0.16147561072E+03 -0.46540850157E+03  0.49395617373E+03  0.00000000000E+00 0.  1.
         21    1    1    2  502  501 -0.14501927820E+02 -0.18061638741E+02 -0.12352376681E+02  0.26250903112E+02  0.00000000000E+00 0. -1.
<mgrwt>
<rscale>  1 0.30000000E+03</rscale>
<asrwt>0</asrwt>
<pdfrwt beam="1">  1        1 0.11535223E+00 0.30000000E+03</pdfrwt>
<pdfrwt beam="2">0</pdfrwt>
<totfact> 0.27636074E+01</totfact>
</mgrwt>
</event>
<event>
 6    1  0.1901260E-004  0.3000000E+03  0.7818608E-02  0.1093470E+00
          1   -1    0    0  502    0  0.00000000000E+00  0.00000000000E+00  0.41804981549E+02  0.41804981549E+02  0.00000000000E+00 0.  1.
         13   -1    0    0    0    0 -0.00000000000E+00 -0.00000000000E+00 -0.10000000000E+04  0.10000000000E+04  0.00000000000E+00 0.  1.
    9000005    2    1    2  501    0  0.77047726630E+01 -0.73378278587E+02 -0.74543531381E+03  0.81661522333E+03  0.32518130420E+03 0.  0.
         13    1    3    3    0    0 -0.15121526164E+03 -0.54928850845E+02 -0.26260112621E+03  0.30796523423E+03  0.00000000000E+00 0.  1.
          3    1    3    3  501    0  0.15892003431E+03 -0.18449427742E+02 -0.48283418760E+03  0.50864998909E+03  0.00000000000E+00 0.  1.
         21    1    1    2  502  501 -0.77047726630E+01  0.73378278587E+02 -0.21275970464E+03  0.22518975822E+03  0.00000000000E+00 0. -1.
<mgrwt>
<rscale>  1 0.30000000E+03</rscale>
<asrwt>0</asrwt>
<pdfrwt beam="1">  1        1 0.15201844E+00 0.30000000E+03</pdfrwt>
<pdfrwt beam="2">0</pdfrwt>
<totfact> 0.17546514E+01</totfact>
</mgrwt>
</event>
<event>
 6    1  0.1901260E-004  0.3000000E+03  0.7818608E-02  0.1093470E+00
          1   -1    0    0  502    0  0.00000000000E+00  0.00000000000E+00  0.31093442392E+02  0.31093442392E+02  0.00000000000E+00 0.  1.
         13   -1    0    0    0    0 -0.00000000000E+00 -0.00000000000E+00 -0.10000000000E+04  0.10000000000E+04  0.00000000000E+00 0.  1.
    9000005    2    1    2  501    0 -0.10588633231E+02 -0.87470748791E+01 -0.95363868791E+03  0.10105571740E+04  0.33408146380E+03 0.  0.
         13    1    3    3    0    0 -0.13093009212E+03 -0.10870547332E+03 -0.60400119400E+03  0.62751654265E+03  0.00000000000E+00 0.  1.
          3    1    3    3  501    0  0.12034145889E+03  0.99958398443E+02 -0.34963749391E+03  0.38304063139E+03  0.00000000000E+00 0.  1.
         21    1    1    2  502  501  0.10588633231E+02  0.87470748791E+01 -0.15267869701E+02  0.20536268352E+02  0.00000000000E+00 0. -1.
<mgrwt>
<rscale>  1 0.30000000E+03</rscale>
<asrwt>0</asrwt>
<pdfrwt beam="1">  1        1 0.11306730E+00 0.30000000E+03</pdfrwt>
<pdfrwt beam="2">0</pdfrwt>
<totfact> 0.28495329E+01</totfact>
</mgrwt>
</event>
<event>
 6    1  0.1901260E-004  0.3000000E+03  0.7818608E-02  0.1093470E+00
          1   -1    0    0  502    0  0.00000000000E+00  0.00000000000E+00  0.53636530614E+02  0.53636530614E+02  0.00000000000E+00 0.  1.
         13   -1    0    0    0    0 -0.00000000000E+00 -0.00000000000E+00 -0.10000000000E+04  0.10000000000E+04  0.00000000000E+00 0.  1.
    9000005    2    1    2  501    0 -0.10552152500E+02 -0.12309617295E+02 -0.97307287178E+03  0.10223912625E+04  0.31328933168E+03 0.  0.
         13    1    3    3    0    0 -0.51776205413E+02 -0.93285927159E+02 -0.10540179099E+03  0.14997525528E+03  0.00000000000E+00 0.  1.
          3    1    3    3  501    0  0.41224052913E+02  0.80976309864E+02 -0.86767108079E+03  0.87241600727E+03  0.00000000000E+00 0.  1.
         21    1    1    2  502  501  0.10552152500E+02  0.12309617295E+02  0.26709402392E+02  0.31245268065E+02  0.00000000000E+00 0. -1.
<mgrwt>
<rscale>  1 0.30000000E+03</rscale>
<asrwt>0</asrwt>
<pdfrwt beam="1">  1        1 0.19504234E+00 0.30000000E+03</pdfrwt>
<pdfrwt beam="2">0</pdfrwt>
<totfact> 0.10815669E+01</totfact>
</mgrwt>
</event>
<event>
 6    1  0.1901260E-004  0.3000000E+03  0.7818608E-02  0.1093470E+00
          1   -1    0    0  502    0  0.00000000000E+00  0.00000000000E+00  0.58101668547E+02  0.58101668547E+02  0.00000000000E+00 0.  1.
         13   -1    0    0    0    0 -0.00000000000E+00 -0.00000000000E+00 -0.10000000000E+04  0.10000000000E+04  0.00000000000E+00 0.  1.
    9000005    2    1    2  501    0  0.12169286050E+03 -0.10776262270E+02 -0.78638452219E+03  0.86033962720E+03  0.32689199633E+03 0.  0.
         13    1    3    3    0    0  0.18431098311E+03 -0.64387932469E+02 -0.74089802029E+03  0.76618941575E+03  0.00000000000E+00 0.  1.
          3    1    3    3  501    0 -0.62618122608E+02  0.53611670199E+02 -0.45486501902E+02  0.94150211448E+02  0.00000000000E+00 0.  1.
         21    1    1    2  502  501 -0.12169286050E+03  0.10776262270E+02 -0.15551380926E+03  0.19776204135E+03  0.00000000000E+00 0.  1.
<mgrwt>
<rscale>  1 0.30000000E+03</rscale>
<asrwt>0</asrwt>
<pdfrwt beam="1">  1        1 0.21127924E+00 0.30000000E+03</pdfrwt>
<pdfrwt beam="2">0</pdfrwt>
<totfact> 0.90587405E+00</totfact>
</mgrwt>
</event>
<event>
 6    1  0.1901260E-004  0.3000000E+03  0.7818608E-02  0.1093470E+00
          1   -1    0    0  502    0  0.00000000000E+00  0.00000000000E+00  0.30809051698E+02  0.30809051698E+02  0.00000000000E+00 0.  1.
         13   -1    0    0    0    0 -0.00000000000E+00 -0.00000000000E+00 -0.10000000000E+04  0.10000000000E+04  0.00000000000E+00 0.  1.
    9000005    2    1    2  501    0 -0.16084747970E+02 -0.41034205090E+01 -0.95558794840E+03  0.10093474864E+04  0.32458968572E+03 0.  0.
         13    1    3    3    0    0 -0.41596619697E+02 -0.12369214255E+03 -0.80431627616E+03  0.81483415306E+03  0.00000000000E+00 0.  1.
          3    1    3    3  501    0  0.25511871727E+02  0.11958872204E+03 -0.15127167224E+03  0.19451333337E+03  0.00000000000E+00 0.  1.
         21    1    1    2  502  501  0.16084747970E+02  0.41034205090E+01 -0.13602999903E+02  0.21461565262E+02  0.00000000000E+00 0.  1.
<mgrwt>
<rscale>  1 0.30000000E+03</rscale>
<asrwt>0</asrwt>
<pdfrwt beam="1">  1        1 0.11203315E+00 0.30000000E+03</pdfrwt>
<pdfrwt beam="2">0</pdfrwt>
<totfact> 0.28896743E+01</totfact>
</mgrwt>
</event>
<event>
 6    1  0.1901260E-004  0.3000000E+03  0.7818608E-02  0.1093470E+00
          1   -1    0    0  502    0  0.00000000000E+00  0.00000000000E+00  0.76157071635E+02  0.76157071635E+02  0.00000000000E+00 0.  1.
         13   -1    0    0    0    0 -0.00000000000E+00 -0.00000000000E+00 -0.10000000000E+04  0.10000000000E+04  0.00000000000E+00 0.  1.
    9000005    2    1    2  501    0 -0.82387452701E+02  0.91728517995E+02 -0.86410272987E+03  0.93915085027E+03  0.34659627583E+03 0.  0.
         13    1    3    3    0    0  0.12846431498E+03 -0.18758666752E+02 -0.30409073108E+03  0.33064503706E+03  0.00000000000E+00 0.  1.
          3    1    3    3  501    0 -0.21085176768E+03  0.11048718475E+03 -0.56001199879E+03  0.60850581321E+03  0.00000000000E+00 0.  1.
         21    1    1    2  502  501  0.82387452701E+02 -0.91728517995E+02 -0.59740198495E+02  0.13700622136E+03  0.00000000000E+00 0.  1.
<mgrwt>
<rscale>  1 0.30000000E+03</rscale>
<asrwt>0</asrwt>
<pdfrwt beam="1">  1        1 0.27693539E+00 0.30000000E+03</pdfrwt>
<pdfrwt beam="2">0</pdfrwt>
<totfact> 0.44626103E+00</totfact>
</mgrwt>
</event>
<event>
 6    1  0.1901260E-004  0.3000000E+03  0.7818608E-02  0.1093470E+00
          1   -1    0    0  502    0  0.00000000000E+00  0.00000000000E+00  0.28125573032E+02  0.28125573032E+02  0.00000000000E+00 0.  1.
         13   -1    0    0    0    0 -0.00000000000E+00 -0.00000000000E+00 -0.10000000000E+04  0.10000000000E+04  0.00000000000E+00 0.  1.
    9000005    2    1    2  501    0 -0.18830749649E+02  0.53611961878E+01 -0.91639405660E+03  0.96929181526E+03  0.31522248747E+03 0.  0.
         13    1    3    3    0    0 -0.14975998206E+02 -0.13269943377E+02 -0.93930105613E+03  0.93951415421E+03  0.00000000000E+00 0.  1.
          1    1    3    3  501    0 -0.38547514428E+01  0.18631139565E+02  0.22906999530E+02  0.29777661050E+02  0.00000000000E+00 0.  1.
         21    1    1    2  502  501  0.18830749649E+02 -0.53611961878E+01 -0.55480370370E+02  0.58833757770E+02  0.00000000000E+00 0.  1.
<mgrwt>
<rscale>  1 0.30000000E+03</rscale>
<asrwt>0</asrwt>
<pdfrwt beam="1">  1        1 0.10227503E+00 0.30000000E+03</pdfrwt>
<pdfrwt beam="2">0</pdfrwt>
<totfact> 0.33115688E+01</totfact>
</mgrwt>
</event>
<event>
 6    1  0.1901260E-004  0.3000000E+03  0.7818608E-02  0.1093470E+00
          1   -1    0    0  502    0  0.00000000000E+00  0.00000000000E+00  0.30523702975E+02  0.30523702975E+02  0.00000000000E+00 0.  1.
         13   -1    0    0    0    0 -0.00000000000E+00 -0.00000000000E+00 -0.10000000000E+04  0.10000000000E+04  0.00000000000E+00 0.  1.
    9000005    2    1    2  501    0 -0.10150552902E+02  0.12232956967E+02 -0.96075634503E+03  0.10123931618E+04  0.31880163204E+03 0.  0.
         13    1    3    3    0    0 -0.33163460604E+02 -0.14985149976E+03 -0.40838195063E+03  0.43626953217E+03  0.00000000000E+00 0.  1.
          3    1    3    3  501    0  0.23012907702E+02  0.16208445673E+03 -0.55237439440E+03  0.57612362963E+03  0.00000000000E+00 0.  1.
         21    1    1    2  502  501  0.10150552902E+02 -0.12232956967E+02 -0.87199519963E+01  0.18130541172E+02  0.00000000000E+00 0.  1.
<mgrwt>
<rscale>  1 0.30000000E+03</rscale>
<asrwt>0</asrwt>
<pdfrwt beam="1">  1        1 0.11099552E+00 0.30000000E+03</pdfrwt>
<pdfrwt beam="2">0</pdfrwt>
<totfact> 0.29307626E+01</totfact>
</mgrwt>
</event>
<event>
 6    1  0.1901260E-004  0.3000000E+03  0.7818608E-02  0.1093470E+00
          1   -1    0    0  502    0  0.00000000000E+00  0.00000000000E+00  0.27742371936E+02  0.27742371936E+02  0.00000000000E+00 0.  1.
         13   -1    0    0    0    0 -0.00000000000E+00 -0.00000000000E+00 -0.10000000000E+04  0.10000000000E+04  0.00000000000E+00 0.  1.
    9000005    2    1    2  501    0  0.95154720819E+01  0.25555770668E+02 -0.94217230820E+03  0.98713734645E+03  0.29327093411E+03 0.  0.
         13    1    3    3    0    0  0.12124265170E+03 -0.66651749465E+02 -0.59655299372E+03  0.61238689618E+03  0.00000000000E+00 0.  1.
          3    1    3    3  501    0 -0.11172717962E+03  0.92207520133E+02 -0.34561931448E+03  0.37475045027E+03  0.00000000000E+00 0.  1.
         21    1    1    2  502  501 -0.95154720819E+01 -0.25555770668E+02 -0.30085319861E+02  0.40605025484E+02  0.00000000000E+00 0. -1.
<mgrwt>
<rscale>  1 0.30000000E+03</rscale>
<asrwt>0</asrwt>
<pdfrwt beam="1">  1        1 0.10088157E+00 0.30000000E+03</pdfrwt>
<pdfrwt beam="2">0</pdfrwt>
<totfact> 0.33789933E+01</totfact>
</mgrwt>
</event>
<event>
 6    1  0.1901260E-004  0.3000000E+03  0.7818608E-02  0.1093470E+00
          1   -1    0    0  502    0  0.00000000000E+00  0.00000000000E+00  0.53152859163E+02  0.53152859163E+02  0.00000000000E+00 0.  1.
         13   -1    0    0    0    0 -0.00000000000E+00 -0.00000000000E+00 -0.10000000000E+04  0.10000000000E+04  0.00000000000E+00 0.  1.
    9000005    2    1    2  501    0  0.39198668276E+02  0.42543830306E+02 -0.93852980992E+03  0.99470894515E+03  0.32443977618E+03 0.  0.
         13    1    3    3    0    0 -0.14351981468E+03  0.28304988106E+02 -0.41649579797E+03  0.44143839806E+03  0.00000000000E+00 0.  1.
          3    1    3    3  501    0  0.18271848296E+03  0.14238842200E+02 -0.52203401195E+03  0.55327054709E+03  0.00000000000E+00 0.  1.
         21    1    1    2  502  501 -0.39198668276E+02 -0.42543830306E+02 -0.83173309203E+01  0.58443914015E+02  0.00000000000E+00 0.  1.
<mgrwt>
<rscale>  1 0.30000000E+03</rscale>
<asrwt>0</asrwt>
<pdfrwt beam="1">  1        1 0.19328353E+00 0.30000000E+03</pdfrwt>
<pdfrwt beam="2">0</pdfrwt>
<totfact> 0.11027093E+01</totfact>
</mgrwt>
</event>
<event>
 6    1  0.1901260E-004  0.3000000E+03  0.7818608E-02  0.1093470E+00
          1   -1    0    0  502    0  0.00000000000E+00  0.00000000000E+00  0.39664600198E+02  0.39664600198E+02  0.00000000000E+00 0.  1.
         13   -1    0    0    0    0 -0.00000000000E+00 -0.00000000000E+00 -0.10000000000E+04  0.10000000000E+04  0.00000000000E+00 0.  1.
    9000005    2    1    2  501    0  0.29893048916E+02 -0.81668647820E+01 -0.95518985997E+03  0.10082517265E+04  0.32128427185E+03 0.  0.
         13    1    3    3    0    0 -0.10376095239E+03  0.39814843377E+02 -0.75310933169E+03  0.76126554005E+03  0.00000000000E+00 0.  1.
          3    1    3    3  501    0  0.13365400131E+03 -0.47981708159E+02 -0.20208052828E+03  0.24698618645E+03  0.00000000000E+00 0.  1.
         21    1    1    2  502  501 -0.29893048916E+02  0.81668647820E+01 -0.51455398277E+01  0.31412873699E+02  0.00000000000E+00 0. -1.
<mgrwt>
<rscale>  1 0.30000000E+03</rscale>
<asrwt>0</asrwt>
<pdfrwt beam="1">  1        1 0.14423521E+00 0.30000000E+03</pdfrwt>
<pdfrwt beam="2">0</pdfrwt>
<totfact> 0.19230368E+01</totfact>
</mgrwt>
</event>
<event>
 6    1  0.1901260E-004  0.3000000E+03  0.7818608E-02  0.1093470E+00
          1   -1    0    0  502    0  0.00000000000E+00  0.00000000000E+00  0.90207882178E+02  0.90207882178E+02  0.00000000000E+00 0.  1.
         13   -1    0    0    0    0 -0.00000000000E+00 -0.00000000000E+00 -0.10000000000E+04  0.10000000000E+04  0.00000000000E+00 0.  1.
    9000005    2    1    2  501    0 -0.55197219572E+02 -0.36508504017E+02 -0.95716307087E+03  0.10088223116E+04  0.31173980839E+03 0.  0.
         13    1    3    3    0    0  0.95332777619E+02 -0.37576432636E+02 -0.72447973836E+03  0.73169065736E+03  0.00000000000E+00 0.  1.
          1    1    3    3  501    0 -0.15052999719E+03  0.10679286190E+01 -0.23268333251E+03  0.27713165419E+03  0.00000000000E+00 0.  1.
         21    1    1    2  502  501  0.55197219572E+02  0.36508504017E+02  0.47370953045E+02  0.81385570628E+02  0.00000000000E+00 0.  1.
<mgrwt>
<rscale>  1 0.30000000E+03</rscale>
<asrwt>0</asrwt>
<pdfrwt beam="1">  1        1 0.32802935E+00 0.30000000E+03</pdfrwt>
<pdfrwt beam="2">0</pdfrwt>
<totfact> 0.25428733E+00</totfact>
</mgrwt>
</event>
<event>
 6    1  0.1901260E-004  0.3000000E+03  0.7818608E-02  0.1093470E+00
          1   -1    0    0  502    0  0.00000000000E+00  0.00000000000E+00  0.64011251387E+02  0.64011251387E+02  0.00000000000E+00 0.  1.
         13   -1    0    0    0    0 -0.00000000000E+00 -0.00000000000E+00 -0.10000000000E+04  0.10000000000E+04  0.00000000000E+00 0.  1.
    9000005    2    1    2  501    0 -0.19097956153E+02 -0.11099651596E+03 -0.86111983588E+03  0.92876956929E+03  0.32924243742E+03 0.  0.
         13    1    3    3    0    0  0.85535359674E+02 -0.29028367517E+02 -0.43210140283E+02  0.10013021571E+03  0.00000000000E+00 0.  1.
          3    1    3    3  501    0 -0.10463331583E+03 -0.81968148439E+02 -0.81790969560E+03  0.82863935358E+03  0.00000000000E+00 0.  1.
         21    1    1    2  502  501  0.19097956153E+02  0.11099651596E+03 -0.74868912731E+02  0.13524168210E+03  0.00000000000E+00 0.  1.
<mgrwt>
<rscale>  1 0.30000000E+03</rscale>
<asrwt>0</asrwt>
<pdfrwt beam="1">  1        1 0.23276868E+00 0.30000000E+03</pdfrwt>
<pdfrwt beam="2">0</pdfrwt>
<totfact> 0.71828656E+00</totfact>
</mgrwt>
</event>
<event>
 6    1  0.1901260E-004  0.3000000E+03  0.7818608E-02  0.1093470E+00
          1   -1    0    0  502    0  0.00000000000E+00  0.00000000000E+00  0.13050102394E+03  0.13050102394E+03  0.00000000000E+00 0.  1.
         13   -1    0    0    0    0 -0.00000000000E+00 -0.00000000000E+00 -0.10000000000E+04  0.10000000000E+04  0.00000000000E+00 0.  1.
    9000005    2    1    2  501    0 -0.13510990291E+01 -0.99666096176E+01 -0.96416261353E+03  0.10353045795E+04  0.37702104479E+03 0.  0.
         13    1    3    3    0    0  0.73391490160E+02  0.11519382790E+03 -0.81635452995E+03  0.82770202814E+03  0.00000000000E+00 0.  1.
          1    1    3    3  501    0 -0.74742589189E+02 -0.12516043752E+03 -0.14780808358E+03  0.20760255136E+03  0.00000000000E+00 0.  1.
         21    1    1    2  502  501  0.13510990291E+01  0.99666096176E+01  0.94663637469E+02  0.95196444444E+02  0.00000000000E+00 0.  1.
<mgrwt>
<rscale>  1 0.30000000E+03</rscale>
<asrwt>0</asrwt>
<pdfrwt beam="1">  1        1 0.47455018E+00 0.30000000E+03</pdfrwt>
<pdfrwt beam="2">0</pdfrwt>
<totfact> 0.34928591E-01</totfact>
</mgrwt>
</event>
<event>
 6    1  0.1901260E-004  0.3000000E+03  0.7818608E-02  0.1093470E+00
          1   -1    0    0  502    0  0.00000000000E+00  0.00000000000E+00  0.36116827878E+02  0.36116827878E+02  0.00000000000E+00 0.  1.
         13   -1    0    0    0    0 -0.00000000000E+00 -0.00000000000E+00 -0.10000000000E+04  0.10000000000E+04  0.00000000000E+00 0.  1.
    9000005    2    1    2  501    0 -0.46659544443E+02  0.11937396103E+02 -0.89248039537E+03  0.94998918400E+03  0.32192946288E+03 0.  0.
         13    1    3    3    0    0 -0.30323273521E+02  0.13909798823E+03 -0.72619869020E+03  0.74002181649E+03  0.00000000000E+00 0.  1.
          1    1    3    3  501    0 -0.16336270923E+02 -0.12716059213E+03 -0.16628170518E+03  0.20996736750E+03  0.00000000000E+00 0.  1.
         21    1    1    2  502  501  0.46659544443E+02 -0.11937396103E+02 -0.71402776748E+02  0.86127643882E+02  0.00000000000E+00 0.  1.
<mgrwt>
<rscale>  1 0.30000000E+03</rscale>
<asrwt>0</asrwt>
<pdfrwt beam="1">  1        1 0.13133420E+00 0.30000000E+03</pdfrwt>
<pdfrwt beam="2">0</pdfrwt>
<totfact> 0.22501199E+01</totfact>
</mgrwt>
</event>
<event>
 6    1  0.1901260E-004  0.3000000E+03  0.7818608E-02  0.1093470E+00
          1   -1    0    0  502    0  0.00000000000E+00  0.00000000000E+00  0.29588575044E+02  0.29588575044E+02  0.00000000000E+00 0.  1.
         13   -1    0    0    0    0 -0.00000000000E+00 -0.00000000000E+00 -0.10000000000E+04  0.10000000000E+04  0.00000000000E+00 0.  1.
    9000005    2    1    2  501    0  0.15629248942E+02  0.22917410718E+02 -0.94183005632E+03  0.98975924201E+03  0.30300168486E+03 0.  0.
         13    1    3    3    0    0  0.11353182976E+02  0.11456770940E+03 -0.85733186891E+03  0.86502750722E+03  0.00000000000E+00 0.  1.
          1    1    3    3  501    0  0.42760659656E+01 -0.91650298682E+02 -0.84498187409E+02  0.12473173479E+03  0.00000000000E+00 0.  1.
         21    1    1    2  502  501 -0.15629248942E+02 -0.22917410718E+02 -0.28581368638E+02  0.39829333032E+02  0.00000000000E+00 0. -1.
<mgrwt>
<rscale>  1 0.30000000E+03</rscale>
<asrwt>0</asrwt>
<pdfrwt beam="1">  1        1 0.10759505E+00 0.30000000E+03</pdfrwt>
<pdfrwt beam="2">0</pdfrwt>
<totfact> 0.30713770E+01</totfact>
</mgrwt>
</event>
<event>
 6    1  0.1901260E-004  0.3000000E+03  0.7818608E-02  0.1093470E+00
          1   -1    0    0  502    0  0.00000000000E+00  0.00000000000E+00  0.28845011875E+02  0.28845011875E+02  0.00000000000E+00 0.  1.
         13   -1    0    0    0    0 -0.00000000000E+00 -0.00000000000E+00 -0.10000000000E+04  0.10000000000E+04  0.00000000000E+00 0.  1.
    9000005    2    1    2  501    0 -0.39621208831E+01  0.96664035375E+01 -0.96627797032E+03  0.10173157855E+04  0.31800810311E+03 0.  0.
         13    1    3    3    0    0  0.13861088773E+03 -0.12301703286E+02 -0.24506647251E+03  0.28181888874E+03  0.00000000000E+00 0.  1.
          1    1    3    3  501    0 -0.14257300861E+03  0.21968106824E+02 -0.72121149781E+03  0.73549689672E+03  0.00000000000E+00 0.  1.
         21    1    1    2  502  501  0.39621208831E+01 -0.96664035375E+01 -0.48770178007E+01  0.11529226421E+02  0.00000000000E+00 0.  1.
<mgrwt>
<rscale>  1 0.30000000E+03</rscale>
<asrwt>0</asrwt>
<pdfrwt beam="1">  1        1 0.10489117E+00 0.30000000E+03</pdfrwt>
<pdfrwt beam="2">0</pdfrwt>
<totfact> 0.31901814E+01</totfact>
</mgrwt>
</event>
<event>
 6    1  0.1901260E-004  0.3000000E+03  0.7818608E-02  0.1093470E+00
          1   -1    0    0  502    0  0.00000000000E+00  0.00000000000E+00  0.87514826203E+02  0.87514826203E+02  0.00000000000E+00 0.  1.
         13   -1    0    0    0    0 -0.00000000000E+00 -0.00000000000E+00 -0.10000000000E+04  0.10000000000E+04  0.00000000000E+00 0.  1.
    9000005    2    1    2  501    0  0.19408077024E+01  0.14784023021E+02 -0.96792485602E+03  0.10301049626E+04  0.35215816480E+03 0.  0.
         13    1    3    3    0    0 -0.98904469696E+02 -0.73080655828E+01 -0.59126849075E+02  0.11546205537E+03  0.00000000000E+00 0.  1.
          1    1    3    3  501    0  0.10084527740E+03  0.22092088604E+02 -0.90879800695E+03  0.91464290725E+03  0.00000000000E+00 0.  1.
         21    1    1    2  502  501 -0.19408077024E+01 -0.14784023021E+02  0.55439682226E+02  0.57409863583E+02  0.00000000000E+00 0.  1.
<mgrwt>
<rscale>  1 0.30000000E+03</rscale>
<asrwt>0</asrwt>
<pdfrwt beam="1">  1        1 0.31823640E+00 0.30000000E+03</pdfrwt>
<pdfrwt beam="2">0</pdfrwt>
<totfact> 0.28401792E+00</totfact>
</mgrwt>
</event>
<event>
 6    1  0.1901260E-004  0.3000000E+03  0.7818608E-02  0.1093470E+00
          1   -1    0    0  502    0  0.00000000000E+00  0.00000000000E+00  0.32804734677E+02  0.32804734677E+02  0.00000000000E+00 0.  1.
         13   -1    0    0    0    0 -0.00000000000E+00 -0.00000000000E+00 -0.10000000000E+04  0.10000000000E+04  0.00000000000E+00 0.  1.
    9000005    2    1    2  501    0  0.22896262575E+01 -0.19610223469E+02 -0.95344037543E+03  0.10087423107E+04  0.32882015844E+03 0.  0.
         13    1    3    3    0    0  0.78571961019E+02 -0.15361742834E+03 -0.43907698080E+03  0.47176314229E+03  0.00000000000E+00 0.  1.
          3    1    3    3  501    0 -0.76282334761E+02  0.13400720487E+03 -0.51436339462E+03  0.53697916839E+03  0.00000000000E+00 0.  1.
         21    1    1    2  502  501 -0.22896262575E+01  0.19610223469E+02 -0.13754889897E+02  0.24062424005E+02  0.00000000000E+00 0. -1.
<mgrwt>
<rscale>  1 0.30000000E+03</rscale>
<asrwt>0</asrwt>
<pdfrwt beam="1">  1        1 0.11929020E+00 0.30000000E+03</pdfrwt>
<pdfrwt beam="2">0</pdfrwt>
<totfact> 0.26237752E+01</totfact>
</mgrwt>
</event>
<event>
 6    1  0.1901260E-004  0.3000000E+03  0.7818608E-02  0.1093470E+00
          1   -1    0    0  502    0  0.00000000000E+00  0.00000000000E+00  0.27672083288E+02  0.27672083288E+02  0.00000000000E+00 0.  1.
         13   -1    0    0    0    0 -0.00000000000E+00 -0.00000000000E+00 -0.10000000000E+04  0.10000000000E+04  0.00000000000E+00 0.  1.
    9000005    2    1    2  501    0 -0.95642209486E+01  0.31304973364E+01 -0.95141154481E+03  0.10044606863E+04  0.32195662505E+03 0.  0.
         13    1    3    3    0    0 -0.16030410528E+02 -0.15764717763E+03 -0.53756023247E+03  0.56042895197E+03  0.00000000000E+00 0.  1.
          1    1    3    3  501    0  0.64661895790E+01  0.16077767497E+03 -0.41385131235E+03  0.44403173435E+03  0.00000000000E+00 0.  1.
         21    1    1    2  502  501  0.95642209486E+01 -0.31304973364E+01 -0.20916371900E+02  0.23211396972E+02  0.00000000000E+00 0.  1.
<mgrwt>
<rscale>  1 0.30000000E+03</rscale>
<asrwt>0</asrwt>
<pdfrwt beam="1">  1        1 0.10062597E+00 0.30000000E+03</pdfrwt>
<pdfrwt beam="2">0</pdfrwt>
<totfact> 0.33915789E+01</totfact>
</mgrwt>
</event>
<event>
 6    1  0.1901260E-004  0.3000000E+03  0.7818608E-02  0.1093470E+00
          1   -1    0    0  502    0  0.00000000000E+00  0.00000000000E+00  0.31261181360E+02  0.31261181360E+02  0.00000000000E+00 0.  1.
         13   -1    0    0    0    0 -0.00000000000E+00 -0.00000000000E+00 -0.10000000000E+04  0.10000000000E+04  0.00000000000E+00 0.  1.
    9000005    2    1    2  501    0  0.89981853765E+01 -0.75231018968E+01 -0.96267671151E+03  0.10180583959E+04  0.33099680072E+03 0.  0.
         13    1    3    3    0    0  0.17895250176E+02 -0.89977348619E+02 -0.92041983027E+03  0.92498044693E+03  0.00000000000E+00 0.  1.
          3    1    3    3  501    0 -0.88970647998E+01  0.82454246723E+02 -0.42256881240E+02  0.93077948929E+02  0.00000000000E+00 0.  1.
         21    1    1    2  502  501 -0.89981853765E+01  0.75231018968E+01 -0.60621071305E+01  0.13202785505E+02  0.00000000000E+00 0.  1.
<mgrwt>
<rscale>  1 0.30000000E+03</rscale>
<asrwt>0</asrwt>
<pdfrwt beam="1">  1        1 0.11367726E+00 0.30000000E+03</pdfrwt>
<pdfrwt beam="2">0</pdfrwt>
<totfact> 0.28262293E+01</totfact>
</mgrwt>
</event>
<event>
 6    1  0.1901260E-004  0.3000000E+03  0.7818608E-02  0.1093470E+00
          1   -1    0    0  502    0  0.00000000000E+00  0.00000000000E+00  0.34389093279E+02  0.34389093279E+02  0.00000000000E+00 0.  1.
         13   -1    0    0    0    0 -0.00000000000E+00 -0.00000000000E+00 -0.10000000000E+04  0.10000000000E+04  0.00000000000E+00 0.  1.
    9000005    2    1    2  501    0  0.38817425849E+02 -0.58783454835E+01 -0.81396655095E+03  0.87774504414E+03  0.32611879575E+03 0.  0.
         13    1    3    3    0    0  0.11177837737E+03  0.78276693695E+02 -0.71761120219E+03  0.73047072764E+03  0.00000000000E+00 0.  1.
          1    1    3    3  501    0 -0.72960951520E+02 -0.84155039178E+02 -0.96355348762E+02  0.14727431650E+03  0.00000000000E+00 0.  1.
         21    1    1    2  502  501 -0.38817425849E+02  0.58783454835E+01 -0.15164435577E+03  0.15664404914E+03  0.00000000000E+00 0.  1.
<mgrwt>
<rscale>  1 0.30000000E+03</rscale>
<asrwt>0</asrwt>
<pdfrwt beam="1">  1        1 0.12505151E+00 0.30000000E+03</pdfrwt>
<pdfrwt beam="2">0</pdfrwt>
<totfact> 0.24357924E+01</totfact>
</mgrwt>
</event>
<event>
 6    1  0.1901260E-004  0.3000000E+03  0.7818608E-02  0.1093470E+00
          1   -1    0    0  502    0  0.00000000000E+00  0.00000000000E+00  0.51212668297E+02  0.51212668297E+02  0.00000000000E+00 0.  1.
         13   -1    0    0    0    0 -0.00000000000E+00 -0.00000000000E+00 -0.10000000000E+04  0.10000000000E+04  0.00000000000E+00 0.  1.
    9000005    2    1    2  501    0 -0.44617865965E+02  0.43161600542E+02 -0.92780017943E+03  0.98568299345E+03  0.32696194412E+03 0.  0.
         13    1    3    3    0    0 -0.39076537220E+02 -0.47090211993E+02 -0.83055694428E+01  0.61753107699E+02  0.00000000000E+00 0.  1.
          1    1    3    3  501    0 -0.55413287452E+01  0.90251812535E+02 -0.91949460999E+03  0.92392988575E+03  0.00000000000E+00 0.  1.
         21    1    1    2  502  501  0.44617865965E+02 -0.43161600542E+02 -0.20987152271E+02  0.65529674844E+02  0.00000000000E+00 0.  1.
<mgrwt>
<rscale>  1 0.30000000E+03</rscale>
<asrwt>0</asrwt>
<pdfrwt beam="1">  1        1 0.18622828E+00 0.30000000E+03</pdfrwt>
<pdfrwt beam="2">0</pdfrwt>
<totfact> 0.11921145E+01</totfact>
</mgrwt>
</event>
<event>
 6    1  0.1901260E-004  0.3000000E+03  0.7818608E-02  0.1093470E+00
          1   -1    0    0  502    0  0.00000000000E+00  0.00000000000E+00  0.28771446298E+02  0.28771446298E+02  0.00000000000E+00 0.  1.
         13   -1    0    0    0    0 -0.00000000000E+00 -0.00000000000E+00 -0.10000000000E+04  0.10000000000E+04  0.00000000000E+00 0.  1.
    9000005    2    1    2  501    0  0.57319284245E+01 -0.85655089201E+01 -0.94896370375E+03  0.10042368485E+04  0.32841028283E+03 0.  0.
         13    1    3    3    0    0  0.81114249679E+02  0.75919857779E+00 -0.91901656291E+03  0.92258958416E+03  0.00000000000E+00 0.  1.
          3    1    3    3  501    0 -0.75382321255E+02 -0.93247074979E+01 -0.29947140833E+02  0.81647264325E+02  0.00000000000E+00 0.  1.
         21    1    1    2  502  501 -0.57319284245E+01  0.85655089201E+01 -0.22264849955E+02  0.24534597817E+02  0.00000000000E+00 0.  1.
<mgrwt>
<rscale>  1 0.30000000E+03</rscale>
<asrwt>0</asrwt>
<pdfrwt beam="1">  1        1 0.10462366E+00 0.30000000E+03</pdfrwt>
<pdfrwt beam="2">0</pdfrwt>
<totfact> 0.32022943E+01</totfact>
</mgrwt>
</event>
<event>
 6    1  0.1901260E-004  0.3000000E+03  0.7818608E-02  0.1093470E+00
          1   -1    0    0  502    0  0.00000000000E+00  0.00000000000E+00  0.37242048384E+02  0.37242048384E+02  0.00000000000E+00 0.  1.
         13   -1    0    0    0    0 -0.00000000000E+00 -0.00000000000E+00 -0.10000000000E+04  0.10000000000E+04  0.00000000000E+00 0.  1.
    9000005    2    1    2  501    0 -0.19001567438E+02 -0.17705804167E+02 -0.95597528941E+03  0.10103988077E+04  0.32610188819E+03 0.  0.
         13    1    3    3    0    0  0.62565552086E+02  0.12226228263E+03 -0.64821460115E+03  0.66260446965E+03  0.00000000000E+00 0.  1.
          3    1    3    3  501    0 -0.81567119524E+02 -0.13996808679E+03 -0.30776068826E+03  0.34779433800E+03  0.00000000000E+00 0.  1.
         21    1    1    2  502  501  0.19001567438E+02  0.17705804167E+02 -0.67826622092E+01  0.26843240731E+02  0.00000000000E+00 0.  1.
<mgrwt>
<rscale>  1 0.30000000E+03</rscale>
<asrwt>0</asrwt>
<pdfrwt beam="1">  1        1 0.13542592E+00 0.30000000E+03</pdfrwt>
<pdfrwt beam="2">0</pdfrwt>
<totfact> 0.21390312E+01</totfact>
</mgrwt>
</event>
<event>
 6    1  0.1901260E-004  0.3000000E+03  0.7818608E-02  0.1093470E+00
          1   -1    0    0  502    0  0.00000000000E+00  0.00000000000E+00  0.65768317184E+02  0.65768317184E+02  0.00000000000E+00 0.  1.
         13   -1    0    0    0    0 -0.00000000000E+00 -0.00000000000E+00 -0.10000000000E+04  0.10000000000E+04  0.00000000000E+00 0.  1.
    9000005    2    1    2  501    0  0.32526451172E+02  0.14800379836E+03 -0.72114790236E+03  0.80429596330E+03  0.32229583482E+03 0.  0.
         13    1    3    3    0    0 -0.10600377270E+03  0.54192994962E+02 -0.84399797803E+02  0.14593493892E+03  0.00000000000E+00 0.  1.
          1    1    3    3  501    0  0.13853022387E+03  0.93810803394E+02 -0.63674810456E+03  0.65836102438E+03  0.00000000000E+00 0.  1.
         21    1    1    2  502  501 -0.32526451172E+02 -0.14800379836E+03 -0.21308378045E+03  0.26147235388E+03  0.00000000000E+00 0.  1.
<mgrwt>
<rscale>  1 0.30000000E+03</rscale>
<asrwt>0</asrwt>
<pdfrwt beam="1">  1        1 0.23915802E+00 0.30000000E+03</pdfrwt>
<pdfrwt beam="2">0</pdfrwt>
<totfact> 0.67045120E+00</totfact>
</mgrwt>
</event>
<event>
 6    1  0.1901260E-004  0.3000000E+03  0.7818608E-02  0.1093470E+00
          1   -1    0    0  502    0  0.00000000000E+00  0.00000000000E+00  0.54510666430E+02  0.54510666430E+02  0.00000000000E+00 0.  1.
         13   -1    0    0    0    0 -0.00000000000E+00 -0.00000000000E+00 -0.10000000000E+04  0.10000000000E+04  0.00000000000E+00 0.  1.
    9000005    2    1    2  501    0  0.26176278502E+02  0.30610953352E+02 -0.95716020215E+03  0.10125769426E+04  0.32792405231E+03 0.  0.
         13    1    3    3    0    0 -0.57041352777E+02  0.89202480424E+02 -0.88561482107E+02  0.13803599007E+03  0.00000000000E+00 0.  1.
          1    1    3    3  501    0  0.83217631279E+02 -0.58591527072E+02 -0.86859872004E+03  0.87454095253E+03  0.00000000000E+00 0.  1.
         21    1    1    2  502  501 -0.26176278502E+02 -0.30610953352E+02  0.11670868575E+02  0.41933723834E+02  0.00000000000E+00 0.  1.
<mgrwt>
<rscale>  1 0.30000000E+03</rscale>
<asrwt>0</asrwt>
<pdfrwt beam="1">  1        1 0.19822102E+00 0.30000000E+03</pdfrwt>
<pdfrwt beam="2">0</pdfrwt>
<totfact> 0.10444937E+01</totfact>
</mgrwt>
</event>
<event>
 6    1  0.1901260E-004  0.3000000E+03  0.7818608E-02  0.1093470E+00
          1   -1    0    0  502    0  0.00000000000E+00  0.00000000000E+00  0.51257295964E+02  0.51257295964E+02  0.00000000000E+00 0.  1.
         13   -1    0    0    0    0 -0.00000000000E+00 -0.00000000000E+00 -0.10000000000E+04  0.10000000000E+04  0.00000000000E+00 0.  1.
    9000005    2    1    2  501    0  0.43575324047E+02 -0.69269601371E+02 -0.89249154782E+03  0.95195332265E+03  0.32090010757E+03 0.  0.
         13    1    3    3    0    0  0.16369378163E+03 -0.23817031208E+02 -0.27232486897E+03  0.31862790113E+03  0.00000000000E+00 0.  1.
          3    1    3    3  501    0 -0.12011845758E+03 -0.45452570163E+02 -0.62016667885E+03  0.63332542152E+03  0.00000000000E+00 0.  1.
         21    1    1    2  502  501 -0.43575324047E+02  0.69269601371E+02 -0.56251156212E+02  0.99303973310E+02  0.00000000000E+00 0.  1.
<mgrwt>
<rscale>  1 0.30000000E+03</rscale>
<asrwt>0</asrwt>
<pdfrwt beam="1">  1        1 0.18639056E+00 0.30000000E+03</pdfrwt>
<pdfrwt beam="2">0</pdfrwt>
<totfact> 0.11899747E+01</totfact>
</mgrwt>
</event>
<event>
 6    1  0.1901260E-004  0.3000000E+03  0.7818608E-02  0.1093470E+00
          1   -1    0    0  502    0  0.00000000000E+00  0.00000000000E+00  0.26969088190E+02  0.26969088190E+02  0.00000000000E+00 0.  1.
         13   -1    0    0    0    0 -0.00000000000E+00 -0.00000000000E+00 -0.10000000000E+04  0.10000000000E+04  0.00000000000E+00 0.  1.
    9000005    2    1    2  501    0  0.66254030397E+01  0.71894670176E+01 -0.96594384216E+03  0.10148938674E+04  0.31123378903E+03 0.  0.
         13    1    3    3    0    0 -0.13521988000E+03 -0.64738289762E+02 -0.53216882871E+03  0.55288255928E+03  0.00000000000E+00 0.  1.
          1    1    3    3  501    0  0.14184528304E+03  0.71927756780E+02 -0.43377501345E+03  0.46201130810E+03  0.00000000000E+00 0.  1.
         21    1    1    2  502  501 -0.66254030397E+01 -0.71894670176E+01 -0.70870696501E+01  0.12075220812E+02  0.00000000000E+00 0. -1.
<mgrwt>
<rscale>  1 0.30000000E+03</rscale>
<asrwt>0</asrwt>
<pdfrwt beam="1">  1        1 0.98069618E-01 0.30000000E+03</pdfrwt>
<pdfrwt beam="2">0</pdfrwt>
<totfact> 0.35213459E+01</totfact>
</mgrwt>
</event>
<event>
 6    1  0.1901260E-004  0.3000000E+03  0.7818608E-02  0.1093470E+00
          1   -1    0    0  502    0  0.00000000000E+00  0.00000000000E+00  0.37369464352E+02  0.37369464352E+02  0.00000000000E+00 0.  1.
         13   -1    0    0    0    0 -0.00000000000E+00 -0.00000000000E+00 -0.10000000000E+04  0.10000000000E+04  0.00000000000E+00 0.  1.
    9000005    2    1    2  501    0  0.10057267386E+02 -0.38427253450E+01 -0.96881086875E+03  0.10249552917E+04  0.33439936514E+03 0.  0.
         13    1    3    3    0    0  0.16274252311E+03 -0.33051290386E+01 -0.66882294163E+03  0.68834597402E+03  0.00000000000E+00 0.  1.
          3    1    3    3  501    0 -0.15268525573E+03 -0.53759630645E+00 -0.29998792712E+03  0.33660931768E+03  0.00000000000E+00 0.  1.
         21    1    1    2  502  501 -0.10057267386E+02  0.38427253450E+01  0.61803331049E+01  0.12414172652E+02  0.00000000000E+00 0. -1.
<mgrwt>
<rscale>  1 0.30000000E+03</rscale>
<asrwt>0</asrwt>
<pdfrwt beam="1">  1        1 0.13588925E+00 0.30000000E+03</pdfrwt>
<pdfrwt beam="2">0</pdfrwt>
<totfact> 0.21269142E+01</totfact>
</mgrwt>
</event>
<event>
 6    1  0.1901260E-004  0.3000000E+03  0.7818608E-02  0.1093470E+00
          1   -1    0    0  502    0  0.00000000000E+00  0.00000000000E+00  0.31776638122E+02  0.31776638122E+02  0.00000000000E+00 0.  1.
         13   -1    0    0    0    0 -0.00000000000E+00 -0.00000000000E+00 -0.10000000000E+04  0.10000000000E+04  0.00000000000E+00 0.  1.
    9000005    2    1    2  501    0  0.17365296252E+01 -0.16536885182E+02 -0.95887513312E+03  0.10127011699E+04  0.32533929138E+03 0.  0.
         13    1    3    3    0    0 -0.51517212238E+02  0.11830968350E+03 -0.18620573549E+03  0.22654752326E+03  0.00000000000E+00 0.  1.
          1    1    3    3  501    0  0.53253741864E+02 -0.13484656868E+03 -0.77266939762E+03  0.78615364664E+03  0.00000000000E+00 0.  1.
         21    1    1    2  502  501 -0.17365296252E+01  0.16536885182E+02 -0.93482287615E+01  0.19075468215E+02  0.00000000000E+00 0.  1.
<mgrwt>
<rscale>  1 0.30000000E+03</rscale>
<asrwt>0</asrwt>
<pdfrwt beam="1">  1        1 0.11555166E+00 0.30000000E+03</pdfrwt>
<pdfrwt beam="2">0</pdfrwt>
<totfact> 0.27562817E+01</totfact>
</mgrwt>
</event>
<event>
 6    1  0.1901260E-004  0.3000000E+03  0.7818608E-02  0.1093470E+00
          1   -1    0    0  502    0  0.00000000000E+00  0.00000000000E+00  0.28579098450E+02  0.28579098450E+02  0.00000000000E+00 0.  1.
         13   -1    0    0    0    0 -0.00000000000E+00 -0.00000000000E+00 -0.10000000000E+04  0.10000000000E+04  0.00000000000E+00 0.  1.
    9000005    2    1    2  501    0 -0.14555060826E+02  0.66204205551E+01 -0.95322109934E+03  0.10043528201E+04  0.31597221900E+03 0.  0.
         13    1    3    3    0    0  0.14758371871E+03 -0.75068553102E+01 -0.55047042186E+03  0.56996051815E+03  0.00000000000E+00 0.  1.
          1    1    3    3  501    0 -0.16213877954E+03  0.14127275865E+02 -0.40275067748E+03  0.43439230192E+03  0.00000000000E+00 0.  1.
         21    1    1    2  502  501  0.14555060826E+02 -0.66204205551E+01 -0.18199802205E+02  0.24226278383E+02  0.00000000000E+00 0. -1.
<mgrwt>
<rscale>  1 0.30000000E+03</rscale>
<asrwt>0</asrwt>
<pdfrwt beam="1">  1        1 0.10392421E+00 0.30000000E+03</pdfrwt>
<pdfrwt beam="2">0</pdfrwt>
<totfact> 0.32342822E+01</totfact>
</mgrwt>
</event>
<event>
 6    1  0.1901260E-004  0.3000000E+03  0.7818608E-02  0.1093470E+00
          1   -1    0    0  502    0  0.00000000000E+00  0.00000000000E+00  0.32038784720E+02  0.32038784720E+02  0.00000000000E+00 0.  1.
         13   -1    0    0    0    0 -0.00000000000E+00 -0.00000000000E+00 -0.10000000000E+04  0.10000000000E+04  0.00000000000E+00 0.  1.
    9000005    2    1    2  501    0  0.73893922831E+01  0.72115691786E+01 -0.96883007995E+03  0.10216770873E+04  0.32416930296E+03 0.  0.
         13    1    3    3    0    0  0.35553503294E+01  0.15222081023E+03 -0.69832498129E+03  0.71473183438E+03  0.00000000000E+00 0.  1.
          3    1    3    3  501    0  0.38340419536E+01 -0.14500924105E+03 -0.27050509866E+03  0.30694525289E+03  0.00000000000E+00 0.  1.
         21    1    1    2  502  501 -0.73893922831E+01 -0.72115691786E+01  0.86886466953E+00  0.10361697455E+02  0.00000000000E+00 0.  1.
<mgrwt>
<rscale>  1 0.30000000E+03</rscale>
<asrwt>0</asrwt>
<pdfrwt beam="1">  1        1 0.11650492E+00 0.30000000E+03</pdfrwt>
<pdfrwt beam="2">0</pdfrwt>
<totfact> 0.27216355E+01</totfact>
</mgrwt>
</event>
<event>
 6    1  0.1901260E-004  0.3000000E+03  0.7818608E-02  0.1093470E+00
          1   -1    0    0  502    0  0.00000000000E+00  0.00000000000E+00  0.39198519853E+02  0.39198519853E+02  0.00000000000E+00 0.  1.
         13   -1    0    0    0    0 -0.00000000000E+00 -0.00000000000E+00 -0.10000000000E+04  0.10000000000E+04  0.00000000000E+00 0.  1.
    9000005    2    1    2  501    0  0.57199920139E+02 -0.24706656064E+02 -0.73204928195E+03  0.80211242178E+03  0.32187876019E+03 0.  0.
         13    1    3    3    0    0  0.85248037812E+02  0.13386815628E+03 -0.27483523530E+03  0.31736779575E+03  0.00000000000E+00 0.  1.
          3    1    3    3  501    0 -0.28048117672E+02 -0.15857481235E+03 -0.45721404665E+03  0.48474462603E+03  0.00000000000E+00 0.  1.
         21    1    1    2  502  501 -0.57199920139E+02  0.24706656064E+02 -0.22875219820E+03  0.23708609807E+03  0.00000000000E+00 0.  1.
<mgrwt>
<rscale>  1 0.30000000E+03</rscale>
<asrwt>0</asrwt>
<pdfrwt beam="1">  1        1 0.14254037E+00 0.30000000E+03</pdfrwt>
<pdfrwt beam="2">0</pdfrwt>
<totfact> 0.19623573E+01</totfact>
</mgrwt>
</event>
<event>
 6    1  0.1901260E-004  0.3000000E+03  0.7818608E-02  0.1093470E+00
          1   -1    0    0  502    0  0.00000000000E+00  0.00000000000E+00  0.30851830808E+02  0.30851830808E+02  0.00000000000E+00 0.  1.
         13   -1    0    0    0    0 -0.00000000000E+00 -0.00000000000E+00 -0.10000000000E+04  0.10000000000E+04  0.00000000000E+00 0.  1.
    9000005    2    1    2  501    0 -0.10262737427E+02  0.15363838255E+02 -0.96007742552E+03  0.10102690784E+04  0.31393243939E+03 0.  0.
         13    1    3    3    0    0 -0.15478336292E+03  0.32918477226E+02 -0.62893830402E+03  0.64854059691E+03  0.00000000000E+00 0.  1.
          3    1    3    3  501    0  0.14452062549E+03 -0.17554638971E+02 -0.33113912150E+03  0.36172848150E+03  0.00000000000E+00 0.  1.
         21    1    1    2  502  501  0.10262737427E+02 -0.15363838255E+02 -0.90707436755E+01  0.20582752397E+02  0.00000000000E+00 0. -1.
<mgrwt>
<rscale>  1 0.30000000E+03</rscale>
<asrwt>0</asrwt>
<pdfrwt beam="1">  1        1 0.11218871E+00 0.30000000E+03</pdfrwt>
<pdfrwt beam="2">0</pdfrwt>
<totfact> 0.28835846E+01</totfact>
</mgrwt>
</event>
<event>
 6    1  0.1901260E-004  0.3000000E+03  0.7818608E-02  0.1093470E+00
          1   -1    0    0  502    0  0.00000000000E+00  0.00000000000E+00  0.38173873965E+02  0.38173873965E+02  0.00000000000E+00 0.  1.
         13   -1    0    0    0    0 -0.00000000000E+00 -0.00000000000E+00 -0.10000000000E+04  0.10000000000E+04  0.00000000000E+00 0.  1.
    9000005    2    1    2  501    0  0.14382577629E+02  0.81564086663E+01 -0.96744242890E+03  0.10207116748E+04  0.32501397557E+03 0.  0.
         13    1    3    3    0    0 -0.12113466489E+03 -0.24489517913E+02 -0.76500964386E+03  0.77492780227E+03  0.00000000000E+00 0.  1.
          3    1    3    3  501    0  0.13551724252E+03  0.32645926579E+02 -0.20243278503E+03  0.24578387254E+03  0.00000000000E+00 0.  1.
         21    1    1    2  502  501 -0.14382577629E+02 -0.81564086663E+01  0.56163028628E+01  0.17462199158E+02  0.00000000000E+00 0.  1.
<mgrwt>
<rscale>  1 0.30000000E+03</rscale>
<asrwt>0</asrwt>
<pdfrwt beam="1">  1        1 0.13881438E+00 0.30000000E+03</pdfrwt>
<pdfrwt beam="2">0</pdfrwt>
<totfact> 0.20524523E+01</totfact>
</mgrwt>
</event>
<event>
 6    1  0.1901260E-004  0.3000000E+03  0.7818608E-02  0.1093470E+00
          1   -1    0    0  502    0  0.00000000000E+00  0.00000000000E+00  0.45543939902E+02  0.45543939902E+02  0.00000000000E+00 0.  1.
         13   -1    0    0    0    0 -0.00000000000E+00 -0.00000000000E+00 -0.10000000000E+04  0.10000000000E+04  0.00000000000E+00 0.  1.
    9000005    2    1    2  501    0 -0.30064406867E+02 -0.29039732381E+02 -0.94566094435E+03  0.10028294379E+04  0.33112699271E+03 0.  0.
         13    1    3    3    0    0  0.15025736558E+03 -0.49746546585E+01 -0.47547705477E+03  0.49867870690E+03  0.00000000000E+00 0.  1.
          1    1    3    3  501    0 -0.18032177245E+03 -0.24065077723E+02 -0.47018388958E+03  0.50415073104E+03  0.00000000000E+00 0.  1.
         21    1    1    2  502  501  0.30064406867E+02  0.29039732381E+02 -0.87951157440E+01  0.42714501964E+02  0.00000000000E+00 0. -1.
<mgrwt>
<rscale>  1 0.30000000E+03</rscale>
<asrwt>0</asrwt>
<pdfrwt beam="1">  1        1 0.16561468E+00 0.30000000E+03</pdfrwt>
<pdfrwt beam="2">0</pdfrwt>
<totfact> 0.15012360E+01</totfact>
</mgrwt>
</event>
<event>
 6    1  0.1901260E-004  0.3000000E+03  0.7818608E-02  0.1093470E+00
          1   -1    0    0  502    0  0.00000000000E+00  0.00000000000E+00  0.35231263839E+02  0.35231263839E+02  0.00000000000E+00 0.  1.
         13   -1    0    0    0    0 -0.00000000000E+00 -0.00000000000E+00 -0.10000000000E+04  0.10000000000E+04  0.00000000000E+00 0.  1.
    9000005    2    1    2  501    0 -0.16011728852E+02  0.14582861788E+02 -0.95786791477E+03  0.10125011812E+04  0.32738152751E+03 0.  0.
         13    1    3    3    0    0  0.90131750218E+02 -0.82301648547E+02 -0.74954314226E+03  0.75941570688E+03  0.00000000000E+00 0.  1.
          1    1    3    3  501    0 -0.10614347907E+03  0.96884510335E+02 -0.20832477251E+03  0.25308547437E+03  0.00000000000E+00 0.  1.
         21    1    1    2  502  501  0.16011728852E+02 -0.14582861788E+02 -0.69008213882E+01  0.22730082591E+02  0.00000000000E+00 0. -1.
<mgrwt>
<rscale>  1 0.30000000E+03</rscale>
<asrwt>0</asrwt>
<pdfrwt beam="1">  1        1 0.12811396E+00 0.30000000E+03</pdfrwt>
<pdfrwt beam="2">0</pdfrwt>
<totfact> 0.23429183E+01</totfact>
</mgrwt>
</event>
<event>
 6    1  0.1901260E-004  0.3000000E+03  0.7818608E-02  0.1093470E+00
          1   -1    0    0  502    0  0.00000000000E+00  0.00000000000E+00  0.36137727139E+02  0.36137727139E+02  0.00000000000E+00 0.  1.
         13   -1    0    0    0    0 -0.00000000000E+00 -0.00000000000E+00 -0.10000000000E+04  0.10000000000E+04  0.00000000000E+00 0.  1.
    9000005    2    1    2  501    0  0.12624706566E+01  0.10937800985E+02 -0.96261733360E+03  0.10250571497E+04  0.35212043378E+03 0.  0.
         13    1    3    3    0    0  0.53458781262E+02 -0.13359919427E+03 -0.19578342705E+03  0.24297682258E+03  0.00000000000E+00 0.  1.
          3    1    3    3  501    0 -0.52196310605E+02  0.14453699525E+03 -0.76683390655E+03  0.78208032713E+03  0.00000000000E+00 0.  1.
         21    1    1    2  502  501 -0.12624706566E+01 -0.10937800985E+02 -0.12449392603E+01  0.11080577436E+02  0.00000000000E+00 0.  1.
<mgrwt>
<rscale>  1 0.30000000E+03</rscale>
<asrwt>0</asrwt>
<pdfrwt beam="1">  1        1 0.13141019E+00 0.30000000E+03</pdfrwt>
<pdfrwt beam="2">0</pdfrwt>
<totfact> 0.22479882E+01</totfact>
</mgrwt>
</event>
<event>
 6    1  0.1901260E-004  0.3000000E+03  0.7818608E-02  0.1093470E+00
          1   -1    0    0  502    0  0.00000000000E+00  0.00000000000E+00  0.31066316874E+02  0.31066316874E+02  0.00000000000E+00 0.  1.
         13   -1    0    0    0    0 -0.00000000000E+00 -0.00000000000E+00 -0.10000000000E+04  0.10000000000E+04  0.00000000000E+00 0.  1.
    9000005    2    1    2  501    0  0.34833109449E+01  0.10548375084E+02 -0.96650375019E+03  0.10196950264E+04  0.32484618845E+03 0.  0.
         13    1    3    3    0    0  0.44338584443E+02  0.83228584550E+02 -0.65443848389E+02  0.11478590788E+03  0.00000000000E+00 0.  1.
          3    1    3    3  501    0 -0.40855273498E+02 -0.72680209466E+02 -0.90105990180E+03  0.90490911856E+03  0.00000000000E+00 0.  1.
         21    1    1    2  502  501 -0.34833109449E+01 -0.10548375084E+02 -0.24299329404E+01  0.11371290434E+02  0.00000000000E+00 0.  1.
<mgrwt>
<rscale>  1 0.30000000E+03</rscale>
<asrwt>0</asrwt>
<pdfrwt beam="1">  1        1 0.11296866E+00 0.30000000E+03</pdfrwt>
<pdfrwt beam="2">0</pdfrwt>
<totfact> 0.28533271E+01</totfact>
</mgrwt>
</event>
<event>
 6    1  0.1901260E-004  0.3000000E+03  0.7818608E-02  0.1093470E+00
          1   -1    0    0  502    0  0.00000000000E+00  0.00000000000E+00  0.40006933050E+02  0.40006933050E+02  0.00000000000E+00 0.  1.
         13   -1    0    0    0    0 -0.00000000000E+00 -0.00000000000E+00 -0.10000000000E+04  0.10000000000E+04  0.00000000000E+00 0.  1.
    9000005    2    1    2  501    0  0.96165572077E+00  0.25727560713E+02 -0.94035551218E+03  0.10076269127E+04  0.36108264110E+03 0.  0.
         13    1    3    3    0    0 -0.66887228696E+02 -0.82439988284E+02 -0.83602219544E+03  0.84273564318E+03  0.00000000000E+00 0.  1.
          3    1    3    3  501    0  0.67848884417E+02  0.10816754900E+03 -0.10433331675E+03  0.16489126950E+03  0.00000000000E+00 0.  1.
         21    1    1    2  502  501 -0.96165572077E+00 -0.25727560713E+02 -0.19637554768E+02  0.32380020371E+02  0.00000000000E+00 0.  1.
<mgrwt>
<rscale>  1 0.30000000E+03</rscale>
<asrwt>0</asrwt>
<pdfrwt beam="1">  1        1 0.14548006E+00 0.30000000E+03</pdfrwt>
<pdfrwt beam="2">0</pdfrwt>
<totfact> 0.18947878E+01</totfact>
</mgrwt>
</event>
<event>
 6    1  0.1901260E-004  0.3000000E+03  0.7818608E-02  0.1093470E+00
          1   -1    0    0  502    0  0.00000000000E+00  0.00000000000E+00  0.77320956421E+02  0.77320956421E+02  0.00000000000E+00 0.  1.
         13   -1    0    0    0    0 -0.00000000000E+00 -0.00000000000E+00 -0.10000000000E+04  0.10000000000E+04  0.00000000000E+00 0.  1.
    9000005    2    1    2  501    0  0.67760798446E+02  0.34785325271E+00 -0.94959095691E+03  0.10044107521E+04  0.32019732474E+03 0.  0.
         13    1    3    3    0    0  0.17519593404E+03 -0.58497481048E+01 -0.80672049593E+03  0.82554575489E+03  0.00000000000E+00 0.  1.
          1    1    3    3  501    0 -0.10743513560E+03  0.61976013575E+01 -0.14287046098E+03  0.17886499726E+03  0.00000000000E+00 0.  1.
         21    1    1    2  502  501 -0.67760798446E+02 -0.34785325271E+00  0.26911913333E+02  0.72910204273E+02  0.00000000000E+00 0.  1.
<mgrwt>
<rscale>  1 0.30000000E+03</rscale>
<asrwt>0</asrwt>
<pdfrwt beam="1">  1        1 0.28116771E+00 0.30000000E+03</pdfrwt>
<pdfrwt beam="2">0</pdfrwt>
<totfact> 0.42640407E+00</totfact>
</mgrwt>
</event>
<event>
 6    1  0.1901260E-004  0.3000000E+03  0.7818608E-02  0.1093470E+00
          1   -1    0    0  502    0  0.00000000000E+00  0.00000000000E+00  0.30426980817E+02  0.30426980817E+02  0.00000000000E+00 0.  1.
         13   -1    0    0    0    0 -0.00000000000E+00 -0.00000000000E+00 -0.10000000000E+04  0.10000000000E+04  0.00000000000E+00 0.  1.
    9000005    2    1    2  501    0 -0.81231923087E+01  0.88226448926E+01 -0.96257490752E+03  0.10165417771E+04  0.32659287596E+03 0.  0.
         13    1    3    3    0    0 -0.73006147815E+02 -0.58478898774E+02 -0.64517480007E+02  0.11363179329E+03  0.00000000000E+00 0.  1.
          3    1    3    3  501    0  0.64882955506E+02  0.67301543666E+02 -0.89805742751E+03  0.90290998378E+03  0.00000000000E+00 0.  1.
         21    1    1    2  502  501  0.81231923087E+01 -0.88226448926E+01 -0.69981116631E+01  0.13885203745E+02  0.00000000000E+00 0.  1.
<mgrwt>
<rscale>  1 0.30000000E+03</rscale>
<asrwt>0</asrwt>
<pdfrwt beam="1">  1        1 0.11064380E+00 0.30000000E+03</pdfrwt>
<pdfrwt beam="2">0</pdfrwt>
<totfact> 0.29448773E+01</totfact>
</mgrwt>
</event>
<event>
 6    1  0.1901260E-004  0.3000000E+03  0.7818608E-02  0.1093470E+00
          1   -1    0    0  502    0  0.00000000000E+00  0.00000000000E+00  0.51910317465E+02  0.51910317465E+02  0.00000000000E+00 0.  1.
         13   -1    0    0    0    0 -0.00000000000E+00 -0.00000000000E+00 -0.10000000000E+04  0.10000000000E+04  0.00000000000E+00 0.  1.
    9000005    2    1    2  501    0  0.29951401030E+02  0.77540573140E+02 -0.88968119316E+03  0.95031711623E+03  0.32351254849E+03 0.  0.
         13    1    3    3    0    0 -0.54053937695E+02 -0.98768320549E+02 -0.16481341585E+03  0.19960077998E+03  0.00000000000E+00 0.  1.
          1    1    3    3  501    0  0.84005338725E+02  0.17630889369E+03 -0.72486777731E+03  0.75071633625E+03  0.00000000000E+00 0.  1.
         21    1    1    2  502  501 -0.29951401030E+02 -0.77540573140E+02 -0.58408489376E+02  0.10159320124E+03  0.00000000000E+00 0. -1.
<mgrwt>
<rscale>  1 0.30000000E+03</rscale>
<asrwt>0</asrwt>
<pdfrwt beam="1">  1        1 0.18876519E+00 0.30000000E+03</pdfrwt>
<pdfrwt beam="2">0</pdfrwt>
<totfact> 0.11591144E+01</totfact>
</mgrwt>
</event>
<event>
 6    1  0.1901260E-004  0.3000000E+03  0.7818608E-02  0.1093470E+00
          1   -1    0    0  502    0  0.00000000000E+00  0.00000000000E+00  0.41994242869E+02  0.41994242869E+02  0.00000000000E+00 0.  1.
         13   -1    0    0    0    0 -0.00000000000E+00 -0.00000000000E+00 -0.10000000000E+04  0.10000000000E+04  0.00000000000E+00 0.  1.
    9000005    2    1    2  501    0 -0.24565196710E+02  0.16828198813E+02 -0.95726380073E+03  0.10122085472E+04  0.32760574133E+03 0.  0.
         13    1    3    3    0    0  0.13442915203E+03 -0.37749882516E+02 -0.61806140686E+03  0.63363724101E+03  0.00000000000E+00 0.  1.
          3    1    3    3  501    0 -0.15899434874E+03  0.54578081329E+02 -0.33920239387E+03  0.37857130623E+03  0.00000000000E+00 0.  1.
         21    1    1    2  502  501  0.24565196710E+02 -0.16828198813E+02 -0.74195640070E+00  0.29785695627E+02  0.00000000000E+00 0. -1.
<mgrwt>
<rscale>  1 0.30000000E+03</rscale>
<asrwt>0</asrwt>
<pdfrwt beam="1">  1        1 0.15270666E+00 0.30000000E+03</pdfrwt>
<pdfrwt beam="2">0</pdfrwt>
<totfact> 0.17406576E+01</totfact>
</mgrwt>
</event>
<event>
 6    1  0.1901260E-004  0.3000000E+03  0.7818608E-02  0.1093470E+00
          3   -1    0    0  502    0  0.00000000000E+00  0.00000000000E+00  0.33796685057E+02  0.33796685057E+02  0.00000000000E+00 0.  1.
         13   -1    0    0    0    0 -0.00000000000E+00 -0.00000000000E+00 -0.10000000000E+04  0.10000000000E+04  0.00000000000E+00 0.  1.
    9000005    2    1    2  501    0  0.43952917814E+01  0.10680527139E+02 -0.93811044499E+03  0.10034223276E+04  0.35590977542E+03 0.  0.
         13    1    3    3    0    0  0.12097180794E+02  0.17050405242E+03 -0.29729289711E+03  0.34293008085E+03  0.00000000000E+00 0.  1.
          1    1    3    3  501    0 -0.77018890130E+01 -0.15982352529E+03 -0.64081754788E+03  0.66049224674E+03  0.00000000000E+00 0.  1.
         21    1    1    2  502  501 -0.43952917814E+01 -0.10680527139E+02 -0.28092869949E+02  0.30374357471E+02  0.00000000000E+00 0. -1.
<mgrwt>
<rscale>  1 0.30000000E+03</rscale>
<asrwt>0</asrwt>
<pdfrwt beam="1">  1        3 0.12289730E+00 0.30000000E+03</pdfrwt>
<pdfrwt beam="2">0</pdfrwt>
<totfact> 0.21406068E+00</totfact>
</mgrwt>
</event>
<event>
 6    1  0.1901260E-004  0.3000000E+03  0.7818608E-02  0.1093470E+00
          1   -1    0    0  502    0  0.00000000000E+00  0.00000000000E+00  0.23458463553E+02  0.23458463553E+02  0.00000000000E+00 0.  1.
         13   -1    0    0    0    0 -0.00000000000E+00 -0.00000000000E+00 -0.10000000000E+04  0.10000000000E+04  0.00000000000E+00 0.  1.
    9000005    2    1    2  501    0  0.33574748304E+01 -0.68353475680E+01 -0.95361260487E+03  0.99929794790E+03  0.29859905205E+03 0.  0.
         13    1    3    3    0    0  0.40941741265E+02  0.76659702302E+02 -0.87296813371E+03  0.87728347677E+03  0.00000000000E+00 0.  1.
          1    1    3    3  501    0 -0.37584266434E+02 -0.83495049870E+02 -0.80644471164E+02  0.12201447113E+03  0.00000000000E+00 0.  1.
         21    1    1    2  502  501 -0.33574748304E+01  0.68353475680E+01 -0.22928931574E+02  0.24160515655E+02  0.00000000000E+00 0. -1.
<mgrwt>
<rscale>  1 0.30000000E+03</rscale>
<asrwt>0</asrwt>
<pdfrwt beam="1">  1        1 0.85303684E-01 0.30000000E+03</pdfrwt>
<pdfrwt beam="2">0</pdfrwt>
<totfact> 0.42954315E+01</totfact>
</mgrwt>
</event>
<event>
 6    1  0.1901260E-004  0.3000000E+03  0.7818608E-02  0.1093470E+00
          1   -1    0    0  502    0  0.00000000000E+00  0.00000000000E+00  0.43893698000E+02  0.43893698000E+02  0.00000000000E+00 0.  1.
         13   -1    0    0    0    0 -0.00000000000E+00 -0.00000000000E+00 -0.10000000000E+04  0.10000000000E+04  0.00000000000E+00 0.  1.
    9000005    2    1    2  501    0 -0.17183087861E+02  0.63246292566E+01 -0.96645519901E+03  0.10228613631E+04  0.33447639213E+03 0.  0.
         13    1    3    3    0    0 -0.91506703776E+02 -0.11483163054E+03 -0.74772522685E+03  0.76200577103E+03  0.00000000000E+00 0.  1.
          3    1    3    3  501    0  0.74323615915E+02  0.12115625980E+03 -0.21872997216E+03  0.26085559203E+03  0.00000000000E+00 0.  1.
         21    1    1    2  502  501  0.17183087861E+02 -0.63246292566E+01  0.10348897014E+02  0.21032334941E+02  0.00000000000E+00 0. -1.
<mgrwt>
<rscale>  1 0.30000000E+03</rscale>
<asrwt>0</asrwt>
<pdfrwt beam="1">  1        1 0.15961378E+00 0.30000000E+03</pdfrwt>
<pdfrwt beam="2">0</pdfrwt>
<totfact> 0.16073927E+01</totfact>
</mgrwt>
</event>
<event>
 6    1  0.1901260E-004  0.3000000E+03  0.7818608E-02  0.1093470E+00
          1   -1    0    0  502    0  0.00000000000E+00  0.00000000000E+00  0.35309269649E+02  0.35309269649E+02  0.00000000000E+00 0.  1.
         13   -1    0    0    0    0 -0.00000000000E+00 -0.00000000000E+00 -0.10000000000E+04  0.10000000000E+04  0.00000000000E+00 0.  1.
    9000005    2    1    2  501    0 -0.35257684166E+01  0.15863465431E+02 -0.96237026732E+03  0.10188938767E+04  0.33425158172E+03 0.  0.
         13    1    3    3    0    0 -0.99108772563E+02  0.12628300183E+03 -0.70432672151E+03  0.72238914443E+03  0.00000000000E+00 0.  1.
          3    1    3    3  501    0  0.95583004146E+02 -0.11041953640E+03 -0.25804354581E+03  0.29650473223E+03  0.00000000000E+00 0.  1.
         21    1    1    2  502  501  0.35257684166E+01 -0.15863465431E+02 -0.23204630270E+01  0.16415392991E+02  0.00000000000E+00 0.  1.
<mgrwt>
<rscale>  1 0.30000000E+03</rscale>
<asrwt>0</asrwt>
<pdfrwt beam="1">  1        1 0.12839761E+00 0.30000000E+03</pdfrwt>
<pdfrwt beam="2">0</pdfrwt>
<totfact> 0.23345473E+01</totfact>
</mgrwt>
</event>
<event>
 6    1  0.1901260E-004  0.3000000E+03  0.7818608E-02  0.1093470E+00
          1   -1    0    0  502    0  0.00000000000E+00  0.00000000000E+00  0.37784585730E+02  0.37784585730E+02  0.00000000000E+00 0.  1.
         13   -1    0    0    0    0 -0.00000000000E+00 -0.00000000000E+00 -0.10000000000E+04  0.10000000000E+04  0.00000000000E+00 0.  1.
    9000005    2    1    2  501    0 -0.48257210100E+01 -0.12280091371E+02 -0.96967514526E+03  0.10226275473E+04  0.32453524452E+03 0.  0.
         13    1    3    3    0    0 -0.53364960291E+02  0.14621483538E+03 -0.54358324776E+03  0.56542846083E+03  0.00000000000E+00 0.  1.
          1    1    3    3  501    0  0.48539239281E+02 -0.15849492675E+03 -0.42609189750E+03  0.45719908647E+03  0.00000000000E+00 0.  1.
         21    1    1    2  502  501  0.48257210100E+01  0.12280091371E+02  0.74597309929E+01  0.15157038426E+02  0.00000000000E+00 0. -1.
<mgrwt>
<rscale>  1 0.30000000E+03</rscale>
<asrwt>0</asrwt>
<pdfrwt beam="1">  1        1 0.13739878E+00 0.30000000E+03</pdfrwt>
<pdfrwt beam="2">0</pdfrwt>
<totfact> 0.20880616E+01</totfact>
</mgrwt>
</event>
<event>
 6    1  0.1901260E-004  0.3000000E+03  0.7818608E-02  0.1093470E+00
          3   -1    0    0  502    0  0.00000000000E+00  0.00000000000E+00  0.30699540286E+02  0.30699540286E+02  0.00000000000E+00 0.  1.
         13   -1    0    0    0    0 -0.00000000000E+00 -0.00000000000E+00 -0.10000000000E+04  0.10000000000E+04  0.00000000000E+00 0.  1.
    9000005    2    1    2  501    0 -0.19269868726E+02 -0.25091333984E+01 -0.95779247695E+03  0.10081150930E+04  0.31392990982E+03 0.  0.
         13    1    3    3    0    0  0.74981611750E+01  0.19502002601E+02 -0.97085465812E+03  0.97107946005E+03  0.00000000000E+00 0.  1.
          1    1    3    3  501    0 -0.26768029900E+02 -0.22011135999E+02  0.13062181171E+02  0.37035632972E+02  0.00000000000E+00 0.  1.
         21    1    1    2  502  501  0.19269868726E+02  0.25091333984E+01 -0.11507982762E+02  0.22584447267E+02  0.00000000000E+00 0.  1.
<mgrwt>
<rscale>  1 0.30000000E+03</rscale>
<asrwt>0</asrwt>
<pdfrwt beam="1">  1        3 0.11163493E+00 0.30000000E+03</pdfrwt>
<pdfrwt beam="2">0</pdfrwt>
<totfact> 0.28869777E+00</totfact>
</mgrwt>
</event>
