<event>
 5    1  0.2343702E-004  0.6457504E+03  0.7818608E-02  0.9814786E-01
         13   -1    0    0    0    0  0.00000000000E+00  0.00000000000E+00  0.10000000000E+04  0.10000000000E+04  0.00000000000E+00 0. -1.
          2   -1    0    0  501    0 -0.00000000000E+00 -0.00000000000E+00 -0.10424838979E+03  0.10424838979E+03  0.00000000000E+00 0. -1.
    9000006    2    1    2  501    0  0.00000000000E+00  0.00000000000E+00  0.89575161021E+03  0.11042483898E+04  0.64575038457E+03 0.  0.
         13    1    3    3    0    0 -0.20271710400E+03 -0.11642851088E+03  0.67040969298E+02  0.24319604019E+03  0.00000000000E+00 0. -1.
          2    1    3    3  501    0  0.20271710400E+03  0.11642851088E+03  0.82871064091E+03  0.86105234960E+03  0.00000000000E+00 0. -1.
<mgrwt>
<rscale>  0 0.64575038E+03</rscale>
<asrwt>0</asrwt>
<pdfrwt beam="1">0</pdfrwt>
<pdfrwt beam="2">  1        2 0.37908585E+00 0.64575038E+03</pdfrwt>
<totfact> 0.47654425E+00</totfact>
</mgrwt>
</event>
<event>
 5    1  0.2343702E-004  0.6511985E+03  0.7818608E-02  0.9804533E-01
         13   -1    0    0    0    0  0.00000000000E+00  0.00000000000E+00  0.10000000000E+04  0.10000000000E+04  0.00000000000E+00 0. -1.
          2   -1    0    0  501    0 -0.00000000000E+00 -0.00000000000E+00 -0.10601486022E+03  0.10601486022E+03  0.00000000000E+00 0. -1.
    9000006    2    1    2  501    0  0.00000000000E+00  0.00000000000E+00  0.89398513978E+03  0.11060148602E+04  0.65119846505E+03 0.  0.
         13    1    3    3    0    0 -0.65185070040E+02 -0.23129403197E+03  0.82014048057E+03  0.85462063540E+03  0.00000000000E+00 0. -1.
          4    1    3    3  501    0  0.65185070040E+02  0.23129403197E+03  0.73844659213E+02  0.25139422482E+03  0.00000000000E+00 0. -1.
<mgrwt>
<rscale>  0 0.65119847E+03</rscale>
<asrwt>0</asrwt>
<pdfrwt beam="1">0</pdfrwt>
<pdfrwt beam="2">  1        2 0.38550940E+00 0.65119847E+03</pdfrwt>
<totfact> 0.45099942E+00</totfact>
</mgrwt>
</event>
<event>
 5    1  0.2343702E-004  0.6548870E+03  0.7818608E-02  0.9797652E-01
         13   -1    0    0    0    0  0.00000000000E+00  0.00000000000E+00  0.10000000000E+04  0.10000000000E+04  0.00000000000E+00 0. -1.
          2   -1    0    0  501    0 -0.00000000000E+00 -0.00000000000E+00 -0.10721925791E+03  0.10721925791E+03  0.00000000000E+00 0. -1.
    9000006    2    1    2  501    0  0.00000000000E+00  0.00000000000E+00  0.89278074209E+03  0.11072192579E+04  0.65488703733E+03 0.  0.
         13    1    3    3    0    0 -0.23150898690E+03 -0.20805566526E+03  0.27450579304E+03  0.41501445912E+03  0.00000000000E+00 0. -1.
          2    1    3    3  501    0  0.23150898690E+03  0.20805566526E+03  0.61827494904E+03  0.69220479880E+03  0.00000000000E+00 0. -1.
<mgrwt>
<rscale>  0 0.65488704E+03</rscale>
<asrwt>0</asrwt>
<pdfrwt beam="1">0</pdfrwt>
<pdfrwt beam="2">  1        2 0.38988903E+00 0.65488704E+03</pdfrwt>
<totfact> 0.43430163E+00</totfact>
</mgrwt>
</event>
<event>
 5    1  0.2343702E-004  0.6515467E+03  0.7818608E-02  0.9803881E-01
         13   -1    0    0    0    0  0.00000000000E+00  0.00000000000E+00  0.10000000000E+04  0.10000000000E+04  0.00000000000E+00 0. -1.
          2   -1    0    0  501    0 -0.00000000000E+00 -0.00000000000E+00 -0.10612827616E+03  0.10612827616E+03  0.00000000000E+00 0. -1.
    9000006    2    1    2  501    0  0.00000000000E+00  0.00000000000E+00  0.89387172384E+03  0.11061282762E+04  0.65154670182E+03 0.  0.
         13    1    3    3    0    0  0.20842257071E+03 -0.17284199863E+03  0.13940464207E+03  0.30454552813E+03  0.00000000000E+00 0. -1.
          4    1    3    3  501    0 -0.20842257071E+03  0.17284199863E+03  0.75446708177E+03  0.80158274804E+03  0.00000000000E+00 0. -1.
<mgrwt>
<rscale>  0 0.65154670E+03</rscale>
<asrwt>0</asrwt>
<pdfrwt beam="1">0</pdfrwt>
<pdfrwt beam="2">  1        2 0.38592182E+00 0.65154670E+03</pdfrwt>
<totfact> 0.44940259E+00</totfact>
</mgrwt>
</event>
<event>
 5    1  0.2343702E-004  0.6439027E+03  0.7818608E-02  0.9818288E-01
         13   -1    0    0    0    0  0.00000000000E+00  0.00000000000E+00  0.10000000000E+04  0.10000000000E+04  0.00000000000E+00 0. -1.
          2   -1    0    0  501    0 -0.00000000000E+00 -0.00000000000E+00 -0.10365267398E+03  0.10365267398E+03  0.00000000000E+00 0. -1.
    9000006    2    1    2  501    0  0.00000000000E+00  0.00000000000E+00  0.89634732602E+03  0.11036526740E+04  0.64390270689E+03 0.  0.
         13    1    3    3    0    0 -0.28990631704E+03 -0.32279012696E+02  0.21463412027E+03  0.36215385254E+03  0.00000000000E+00 0. -1.
          4    1    3    3  501    0  0.28990631704E+03  0.32279012696E+02  0.68171320574E+03  0.74149882145E+03  0.00000000000E+00 0. -1.
<mgrwt>
<rscale>  0 0.64390271E+03</rscale>
<asrwt>0</asrwt>
<pdfrwt beam="1">0</pdfrwt>
<pdfrwt beam="2">  1        2 0.37691961E+00 0.64390271E+03</pdfrwt>
<totfact> 0.48545121E+00</totfact>
</mgrwt>
</event>
<event>
 5    1  0.2343702E-004  0.7092564E+03  0.7818608E-02  0.9701532E-01
         13   -1    0    0    0    0  0.00000000000E+00  0.00000000000E+00  0.10000000000E+04  0.10000000000E+04  0.00000000000E+00 0. -1.
          2   -1    0    0  501    0 -0.00000000000E+00 -0.00000000000E+00 -0.12576115989E+03  0.12576115989E+03  0.00000000000E+00 0. -1.
    9000006    2    1    2  501    0  0.00000000000E+00  0.00000000000E+00  0.87423884011E+03  0.11257611599E+04  0.70925639901E+03 0.  0.
         13    1    3    3    0    0 -0.81975808768E+02 -0.25519990224E+03  0.80566764626E+03  0.84908620266E+03  0.00000000000E+00 0. -1.
          2    1    3    3  501    0  0.81975808768E+02  0.25519990224E+03  0.68571193859E+02  0.27667495722E+03  0.00000000000E+00 0. -1.
<mgrwt>
<rscale>  0 0.70925640E+03</rscale>
<asrwt>0</asrwt>
<pdfrwt beam="1">0</pdfrwt>
<pdfrwt beam="2">  1        2 0.45731427E+00 0.70925640E+03</pdfrwt>
<totfact> 0.23812548E+00</totfact>
</mgrwt>
</event>
<event>
 5    1  0.2343702E-004  0.6596002E+03  0.7818608E-02  0.9788930E-01
         13   -1    0    0    0    0  0.00000000000E+00  0.00000000000E+00  0.10000000000E+04  0.10000000000E+04  0.00000000000E+00 0. -1.
          2   -1    0    0  501    0 -0.00000000000E+00 -0.00000000000E+00 -0.10876811769E+03  0.10876811769E+03  0.00000000000E+00 0. -1.
    9000006    2    1    2  501    0  0.00000000000E+00  0.00000000000E+00  0.89123188231E+03  0.11087681177E+04  0.65960023557E+03 0.  0.
         13    1    3    3    0    0  0.11064640018E+03 -0.22838780492E+03  0.79967665012E+03  0.83897935616E+03  0.00000000000E+00 0. -1.
          2    1    3    3  501    0 -0.11064640018E+03  0.22838780492E+03  0.91555232189E+02  0.26978876153E+03  0.00000000000E+00 0. -1.
<mgrwt>
<rscale>  0 0.65960024E+03</rscale>
<asrwt>0</asrwt>
<pdfrwt beam="1">0</pdfrwt>
<pdfrwt beam="2">  1        2 0.39552126E+00 0.65960024E+03</pdfrwt>
<totfact> 0.41365043E+00</totfact>
</mgrwt>
</event>
<event>
 5    1  0.2343702E-004  0.6496063E+03  0.7818608E-02  0.9807518E-01
         13   -1    0    0    0    0  0.00000000000E+00  0.00000000000E+00  0.10000000000E+04  0.10000000000E+04  0.00000000000E+00 0. -1.
          2   -1    0    0  501    0 -0.00000000000E+00 -0.00000000000E+00 -0.10549709953E+03  0.10549709953E+03  0.00000000000E+00 0. -1.
    9000006    2    1    2  501    0  0.00000000000E+00  0.00000000000E+00  0.89450290047E+03  0.11054970995E+04  0.64960634089E+03 0.  0.
         13    1    3    3    0    0  0.40217656584E+02  0.55514899066E+02  0.98754867896E+03  0.98992512709E+03  0.00000000000E+00 0. -1.
          4    1    3    3  501    0 -0.40217656584E+02 -0.55514899066E+02 -0.93045778491E+02  0.11557197244E+03  0.00000000000E+00 0. -1.
<mgrwt>
<rscale>  0 0.64960634E+03</rscale>
<asrwt>0</asrwt>
<pdfrwt beam="1">0</pdfrwt>
<pdfrwt beam="2">  1        2 0.38362663E+00 0.64960634E+03</pdfrwt>
<totfact> 0.45835473E+00</totfact>
</mgrwt>
</event>
<event>
 5    1  0.2343702E-004  0.6535864E+03  0.7818608E-02  0.9800073E-01
         13   -1    0    0    0    0  0.00000000000E+00  0.00000000000E+00  0.10000000000E+04  0.10000000000E+04  0.00000000000E+00 0. -1.
          2   -1    0    0  501    0 -0.00000000000E+00 -0.00000000000E+00 -0.10679381014E+03  0.10679381014E+03  0.00000000000E+00 0. -1.
    9000006    2    1    2  501    0  0.00000000000E+00  0.00000000000E+00  0.89320618986E+03  0.11067938101E+04  0.65358644460E+03 0.  0.
         13    1    3    3    0    0  0.31377300353E+03  0.71953553017E+02  0.35136445484E+03  0.47653729304E+03  0.00000000000E+00 0. -1.
          2    1    3    3  501    0 -0.31377300353E+03 -0.71953553017E+02  0.54184173502E+03  0.63025651710E+03  0.00000000000E+00 0. -1.
<mgrwt>
<rscale>  0 0.65358644E+03</rscale>
<asrwt>0</asrwt>
<pdfrwt beam="1">0</pdfrwt>
<pdfrwt beam="2">  1        2 0.38834195E+00 0.65358644E+03</pdfrwt>
<totfact> 0.44013502E+00</totfact>
</mgrwt>
</event>
<event>
 5    1  0.2343702E-004  0.6508968E+03  0.7818608E-02  0.9805098E-01
         13   -1    0    0    0    0  0.00000000000E+00  0.00000000000E+00  0.10000000000E+04  0.10000000000E+04  0.00000000000E+00 0. -1.
          2   -1    0    0  501    0 -0.00000000000E+00 -0.00000000000E+00 -0.10591666743E+03  0.10591666743E+03  0.00000000000E+00 0. -1.
    9000006    2    1    2  501    0  0.00000000000E+00  0.00000000000E+00  0.89408333257E+03  0.11059166674E+04  0.65089681956E+03 0.  0.
         13    1    3    3    0    0  0.16922574304E+03  0.22666733791E+02 -0.23711655286E+02  0.17237568136E+03  0.00000000000E+00 0. -1.
          2    1    3    3  501    0 -0.16922574304E+03 -0.22666733791E+02  0.91779498786E+03  0.93354098607E+03  0.00000000000E+00 0. -1.
<mgrwt>
<rscale>  0 0.65089682E+03</rscale>
<asrwt>0</asrwt>
<pdfrwt beam="1">0</pdfrwt>
<pdfrwt beam="2">  1        2 0.38515233E+00 0.65089682E+03</pdfrwt>
<totfact> 0.45238606E+00</totfact>
</mgrwt>
</event>
<event>
 5    1  0.2343702E-004  0.6496195E+03  0.7818608E-02  0.9807493E-01
         13   -1    0    0    0    0  0.00000000000E+00  0.00000000000E+00  0.10000000000E+04  0.10000000000E+04  0.00000000000E+00 0. -1.
          2   -1    0    0  501    0 -0.00000000000E+00 -0.00000000000E+00 -0.10550137409E+03  0.10550137409E+03  0.00000000000E+00 0. -1.
    9000006    2    1    2  501    0  0.00000000000E+00  0.00000000000E+00  0.89449862591E+03  0.11055013741E+04  0.64961950120E+03 0.  0.
         13    1    3    3    0    0  0.24783295818E+03  0.55929852413E+02  0.79162942203E+03  0.83140030393E+03  0.00000000000E+00 0. -1.
          2    1    3    3  501    0 -0.24783295818E+03 -0.55929852413E+02  0.10286920388E+03  0.27410107015E+03  0.00000000000E+00 0. -1.
<mgrwt>
<rscale>  0 0.64961950E+03</rscale>
<asrwt>0</asrwt>
<pdfrwt beam="1">0</pdfrwt>
<pdfrwt beam="2">  1        2 0.38364217E+00 0.64961950E+03</pdfrwt>
<totfact> 0.45829356E+00</totfact>
</mgrwt>
</event>
<event>
 5    1  0.2343702E-004  0.6389052E+03  0.7818608E-02  0.9827823E-01
         13   -1    0    0    0    0  0.00000000000E+00  0.00000000000E+00  0.10000000000E+04  0.10000000000E+04  0.00000000000E+00 0. -1.
          2   -1    0    0  501    0 -0.00000000000E+00 -0.00000000000E+00 -0.10204995799E+03  0.10204995799E+03  0.00000000000E+00 0. -1.
    9000006    2    1    2  501    0  0.00000000000E+00  0.00000000000E+00  0.89795004201E+03  0.11020499580E+04  0.63890518229E+03 0.  0.
         13    1    3    3    0    0 -0.15111760559E+03 -0.24861997448E+03  0.22143454714E+03  0.36562505534E+03  0.00000000000E+00 0. -1.
          4    1    3    3  501    0  0.15111760559E+03  0.24861997448E+03  0.67651549487E+03  0.73642490265E+03  0.00000000000E+00 0. -1.
<mgrwt>
<rscale>  0 0.63890518E+03</rscale>
<asrwt>0</asrwt>
<pdfrwt beam="1">0</pdfrwt>
<pdfrwt beam="2">  1        2 0.37109154E+00 0.63890518E+03</pdfrwt>
<totfact> 0.51017607E+00</totfact>
</mgrwt>
</event>
<event>
 5    1  0.2343702E-004  0.6627443E+03  0.7818608E-02  0.9783155E-01
         13   -1    0    0    0    0  0.00000000000E+00  0.00000000000E+00  0.10000000000E+04  0.10000000000E+04  0.00000000000E+00 0. -1.
          2   -1    0    0  501    0 -0.00000000000E+00 -0.00000000000E+00 -0.10980751512E+03  0.10980751512E+03  0.00000000000E+00 0. -1.
    9000006    2    1    2  501    0  0.00000000000E+00  0.00000000000E+00  0.89019248488E+03  0.11098075151E+04  0.66274434021E+03 0.  0.
         13    1    3    3    0    0  0.19590791851E+03 -0.24614427363E+03  0.61944878160E+03  0.69475442352E+03  0.00000000000E+00 0. -1.
          2    1    3    3  501    0 -0.19590791851E+03  0.24614427363E+03  0.27074370328E+03  0.41505309160E+03  0.00000000000E+00 0. -1.
<mgrwt>
<rscale>  0 0.66274434E+03</rscale>
<asrwt>0</asrwt>
<pdfrwt beam="1">0</pdfrwt>
<pdfrwt beam="2">  1        2 0.39930090E+00 0.66274434E+03</pdfrwt>
<totfact> 0.40029334E+00</totfact>
</mgrwt>
</event>
<event>
 5    1  0.2343702E-004  0.6218751E+03  0.7818608E-02  0.9861033E-01
         13   -1    0    0    0    0  0.00000000000E+00  0.00000000000E+00  0.10000000000E+04  0.10000000000E+04  0.00000000000E+00 0. -1.
          2   -1    0    0  501    0 -0.00000000000E+00 -0.00000000000E+00 -0.96682159074E+02  0.96682159074E+02  0.00000000000E+00 0. -1.
    9000006    2    1    2  501    0  0.00000000000E+00  0.00000000000E+00  0.90331784093E+03  0.10966821591E+04  0.62187509702E+03 0.  0.
         13    1    3    3    0    0 -0.54954217665E+02 -0.30122695606E+03  0.54702731314E+03  0.62689435028E+03  0.00000000000E+00 0. -1.
          2    1    3    3  501    0  0.54954217665E+02  0.30122695606E+03  0.35629052779E+03  0.46978780879E+03  0.00000000000E+00 0. -1.
<mgrwt>
<rscale>  0 0.62187510E+03</rscale>
<asrwt>0</asrwt>
<pdfrwt beam="1">0</pdfrwt>
<pdfrwt beam="2">  1        2 0.35157223E+00 0.62187510E+03</pdfrwt>
<totfact> 0.60166623E+00</totfact>
</mgrwt>
</event>
<event>
 5    1  0.2343702E-004  0.5773047E+03  0.7818608E-02  0.9953643E-01
         13   -1    0    0    0    0  0.00000000000E+00  0.00000000000E+00  0.10000000000E+04  0.10000000000E+04  0.00000000000E+00 0. -1.
          2   -1    0    0  501    0 -0.00000000000E+00 -0.00000000000E+00 -0.83320190629E+02  0.83320190629E+02  0.00000000000E+00 0. -1.
    9000006    2    1    2  501    0  0.00000000000E+00  0.00000000000E+00  0.91667980937E+03  0.10833201906E+04  0.57730473973E+03 0.  0.
         13    1    3    3    0    0  0.27348839211E+03 -0.43216704442E+02  0.30523885943E+03  0.41210962797E+03  0.00000000000E+00 0. -1.
          4    1    3    3  501    0 -0.27348839211E+03  0.43216704442E+02  0.61144094994E+03  0.67121056266E+03  0.00000000000E+00 0. -1.
<mgrwt>
<rscale>  0 0.57730474E+03</rscale>
<asrwt>0</asrwt>
<pdfrwt beam="1">0</pdfrwt>
<pdfrwt beam="2">  1        2 0.30298315E+00 0.57730474E+03</pdfrwt>
<totfact> 0.90085690E+00</totfact>
</mgrwt>
</event>
<event>
 5    1  0.2343702E-004  0.6600715E+03  0.7818608E-02  0.9788062E-01
         13   -1    0    0    0    0  0.00000000000E+00  0.00000000000E+00  0.10000000000E+04  0.10000000000E+04  0.00000000000E+00 0. -1.
          2   -1    0    0  501    0 -0.00000000000E+00 -0.00000000000E+00 -0.10892360282E+03  0.10892360282E+03  0.00000000000E+00 0. -1.
    9000006    2    1    2  501    0  0.00000000000E+00  0.00000000000E+00  0.89107639718E+03  0.11089236028E+04  0.66007151982E+03 0.  0.
         13    1    3    3    0    0 -0.28408423536E+03  0.24124878513E+02  0.16624401057E+03  0.33003474604E+03  0.00000000000E+00 0. -1.
          4    1    3    3  501    0  0.28408423536E+03 -0.24124878513E+02  0.72483238661E+03  0.77888885678E+03  0.00000000000E+00 0. -1.
<mgrwt>
<rscale>  0 0.66007152E+03</rscale>
<asrwt>0</asrwt>
<pdfrwt beam="1">0</pdfrwt>
<pdfrwt beam="2">  1        2 0.39608666E+00 0.66007152E+03</pdfrwt>
<totfact> 0.41162715E+00</totfact>
</mgrwt>
</event>
<event>
 5    1  0.2343702E-004  0.5616511E+03  0.7818608E-02  0.9988326E-01
         13   -1    0    0    0    0  0.00000000000E+00  0.00000000000E+00  0.10000000000E+04  0.10000000000E+04  0.00000000000E+00 0. -1.
          4   -1    0    0  501    0 -0.00000000000E+00 -0.00000000000E+00 -0.78862990059E+02  0.78862990059E+02  0.00000000000E+00 0. -1.
    9000006    2    1    2  501    0  0.00000000000E+00  0.00000000000E+00  0.92113700994E+03  0.10788629901E+04  0.56165110187E+03 0.  0.
         13    1    3    3    0    0 -0.11196531937E+03 -0.29611600379E+02  0.95199006711E+03  0.95900895068E+03  0.00000000000E+00 0. -1.
          4    1    3    3  501    0  0.11196531937E+03  0.29611600379E+02 -0.30853057164E+02  0.11985403938E+03  0.00000000000E+00 0. -1.
<mgrwt>
<rscale>  0 0.56165110E+03</rscale>
<asrwt>0</asrwt>
<pdfrwt beam="1">0</pdfrwt>
<pdfrwt beam="2">  1        4 0.28677511E+00 0.56165110E+03</pdfrwt>
<totfact> 0.17183855E-01</totfact>
</mgrwt>
</event>
<event>
 5    1  0.2343702E-004  0.6724708E+03  0.7818608E-02  0.9765505E-01
         13   -1    0    0    0    0  0.00000000000E+00  0.00000000000E+00  0.10000000000E+04  0.10000000000E+04  0.00000000000E+00 0. -1.
          2   -1    0    0  501    0 -0.00000000000E+00 -0.00000000000E+00 -0.11305423348E+03  0.11305423348E+03  0.00000000000E+00 0. -1.
    9000006    2    1    2  501    0  0.00000000000E+00  0.00000000000E+00  0.88694576652E+03  0.11130542335E+04  0.67247076807E+03 0.  0.
         13    1    3    3    0    0 -0.20048959545E+03 -0.18990563085E+03  0.12598185428E+03  0.30353196556E+03  0.00000000000E+00 0. -1.
          4    1    3    3  501    0  0.20048959545E+03  0.18990563085E+03  0.76096391224E+03  0.80952226791E+03  0.00000000000E+00 0. -1.
<mgrwt>
<rscale>  0 0.67247077E+03</rscale>
<asrwt>0</asrwt>
<pdfrwt beam="1">0</pdfrwt>
<pdfrwt beam="2">  1        2 0.41110717E+00 0.67247077E+03</pdfrwt>
<totfact> 0.36102452E+00</totfact>
</mgrwt>
</event>
<event>
 5    1  0.2343702E-004  0.6482915E+03  0.7818608E-02  0.9809990E-01
         13   -1    0    0    0    0  0.00000000000E+00  0.00000000000E+00  0.10000000000E+04  0.10000000000E+04  0.00000000000E+00 0. -1.
          2   -1    0    0  501    0 -0.00000000000E+00 -0.00000000000E+00 -0.10507045391E+03  0.10507045391E+03  0.00000000000E+00 0. -1.
    9000006    2    1    2  501    0  0.00000000000E+00  0.00000000000E+00  0.89492954609E+03  0.11050704539E+04  0.64829145888E+03 0.  0.
         13    1    3    3    0    0  0.13761249809E+03  0.12897647721E+03 -0.19080759247E+01  0.18861540780E+03  0.00000000000E+00 0. -1.
          4    1    3    3  501    0 -0.13761249809E+03 -0.12897647721E+03  0.89683762201E+03  0.91645504612E+03  0.00000000000E+00 0. -1.
<mgrwt>
<rscale>  0 0.64829146E+03</rscale>
<asrwt>0</asrwt>
<pdfrwt beam="1">0</pdfrwt>
<pdfrwt beam="2">  1        2 0.38207518E+00 0.64829146E+03</pdfrwt>
<totfact> 0.46449729E+00</totfact>
</mgrwt>
</event>
<event>
 5    1  0.2343702E-004  0.6772143E+03  0.7818608E-02  0.9757012E-01
         13   -1    0    0    0    0  0.00000000000E+00  0.00000000000E+00  0.10000000000E+04  0.10000000000E+04  0.00000000000E+00 0. -1.
          2   -1    0    0  501    0 -0.00000000000E+00 -0.00000000000E+00 -0.11465480003E+03  0.11465480003E+03  0.00000000000E+00 0. -1.
    9000006    2    1    2  501    0  0.00000000000E+00  0.00000000000E+00  0.88534519997E+03  0.11146548000E+04  0.67721429408E+03 0.  0.
         13    1    3    3    0    0  0.10620486766E+03  0.14528095234E+03 -0.29424985261E+02  0.18235092208E+03  0.00000000000E+00 0. -1.
          2    1    3    3  501    0 -0.10620486766E+03 -0.14528095234E+03  0.91477018524E+03  0.93230387794E+03  0.00000000000E+00 0. -1.
<mgrwt>
<rscale>  0 0.67721429E+03</rscale>
<asrwt>0</asrwt>
<pdfrwt beam="1">0</pdfrwt>
<pdfrwt beam="2">  1        2 0.41692742E+00 0.67721429E+03</pdfrwt>
<totfact> 0.34296386E+00</totfact>
</mgrwt>
</event>
<event>
 5    1  0.2343702E-004  0.6187003E+03  0.7818608E-02  0.9867351E-01
         13   -1    0    0    0    0  0.00000000000E+00  0.00000000000E+00  0.10000000000E+04  0.10000000000E+04  0.00000000000E+00 0. -1.
          2   -1    0    0  501    0 -0.00000000000E+00 -0.00000000000E+00 -0.95697530101E+02  0.95697530101E+02  0.00000000000E+00 0. -1.
    9000006    2    1    2  501    0  0.00000000000E+00  0.00000000000E+00  0.90430246990E+03  0.10956975301E+04  0.61870034783E+03 0.  0.
         13    1    3    3    0    0 -0.14877695549E+03 -0.73833003835E+02 -0.10039223705E+02  0.16639315176E+03  0.00000000000E+00 0. -1.
          2    1    3    3  501    0  0.14877695549E+03  0.73833003835E+02  0.91434169360E+03  0.92930437834E+03  0.00000000000E+00 0. -1.
<mgrwt>
<rscale>  0 0.61870035E+03</rscale>
<asrwt>0</asrwt>
<pdfrwt beam="1">0</pdfrwt>
<pdfrwt beam="2">  1        2 0.34799175E+00 0.61870035E+03</pdfrwt>
<totfact> 0.62001555E+00</totfact>
</mgrwt>
</event>
<event>
 5    1  0.2343702E-004  0.6685445E+03  0.7818608E-02  0.9772591E-01
         13   -1    0    0    0    0  0.00000000000E+00  0.00000000000E+00  0.10000000000E+04  0.10000000000E+04  0.00000000000E+00 0. -1.
          2   -1    0    0  501    0 -0.00000000000E+00 -0.00000000000E+00 -0.11173793482E+03  0.11173793482E+03  0.00000000000E+00 0. -1.
    9000006    2    1    2  501    0  0.00000000000E+00  0.00000000000E+00  0.88826206518E+03  0.11117379348E+04  0.66854449312E+03 0.  0.
         13    1    3    3    0    0  0.21561232366E+03  0.23684581137E+03  0.28503421687E+03  0.42875297931E+03  0.00000000000E+00 0. -1.
          2    1    3    3  501    0 -0.21561232366E+03 -0.23684581137E+03  0.60322784831E+03  0.68298495551E+03  0.00000000000E+00 0. -1.
<mgrwt>
<rscale>  0 0.66854449E+03</rscale>
<asrwt>0</asrwt>
<pdfrwt beam="1">0</pdfrwt>
<pdfrwt beam="2">  1        2 0.40632062E+00 0.66854449E+03</pdfrwt>
<totfact> 0.37650901E+00</totfact>
</mgrwt>
</event>
<event>
 5    1  0.2343702E-004  0.6610990E+03  0.7818608E-02  0.9786173E-01
         13   -1    0    0    0    0  0.00000000000E+00  0.00000000000E+00  0.10000000000E+04  0.10000000000E+04  0.00000000000E+00 0. -1.
          2   -1    0    0  501    0 -0.00000000000E+00 -0.00000000000E+00 -0.10926295649E+03  0.10926295649E+03  0.00000000000E+00 0. -1.
    9000006    2    1    2  501    0  0.00000000000E+00  0.00000000000E+00  0.89073704351E+03  0.11092629565E+04  0.66109895322E+03 0.  0.
         13    1    3    3    0    0 -0.25158711849E+03  0.17319152551E+03  0.23331675426E+03  0.38435412124E+03  0.00000000000E+00 0. -1.
          4    1    3    3  501    0  0.25158711849E+03 -0.17319152551E+03  0.65742028925E+03  0.72490883525E+03  0.00000000000E+00 0. -1.
<mgrwt>
<rscale>  0 0.66109895E+03</rscale>
<asrwt>0</asrwt>
<pdfrwt beam="1">0</pdfrwt>
<pdfrwt beam="2">  1        2 0.39732068E+00 0.66109895E+03</pdfrwt>
<totfact> 0.40724216E+00</totfact>
</mgrwt>
</event>
<event>
 5    1  0.2343702E-004  0.6483738E+03  0.7818608E-02  0.9809835E-01
         13   -1    0    0    0    0  0.00000000000E+00  0.00000000000E+00  0.10000000000E+04  0.10000000000E+04  0.00000000000E+00 0. -1.
          2   -1    0    0  501    0 -0.00000000000E+00 -0.00000000000E+00 -0.10509713818E+03  0.10509713818E+03  0.00000000000E+00 0. -1.
    9000006    2    1    2  501    0  0.00000000000E+00  0.00000000000E+00  0.89490286182E+03  0.11050971382E+04  0.64837377547E+03 0.  0.
         13    1    3    3    0    0 -0.22686689181E+03 -0.22926200833E+03  0.39176421308E+03  0.50745330200E+03  0.00000000000E+00 0. -1.
          4    1    3    3  501    0  0.22686689181E+03  0.22926200833E+03  0.50313864874E+03  0.59764383618E+03  0.00000000000E+00 0. -1.
<mgrwt>
<rscale>  0 0.64837378E+03</rscale>
<asrwt>0</asrwt>
<pdfrwt beam="1">0</pdfrwt>
<pdfrwt beam="2">  1        2 0.38217222E+00 0.64837378E+03</pdfrwt>
<totfact> 0.46411092E+00</totfact>
</mgrwt>
</event>
<event>
 5    1  0.2343702E-004  0.6651835E+03  0.7818608E-02  0.9778698E-01
         13   -1    0    0    0    0  0.00000000000E+00  0.00000000000E+00  0.10000000000E+04  0.10000000000E+04  0.00000000000E+00 0. -1.
          2   -1    0    0  501    0 -0.00000000000E+00 -0.00000000000E+00 -0.11061728037E+03  0.11061728037E+03  0.00000000000E+00 0. -1.
    9000006    2    1    2  501    0  0.00000000000E+00  0.00000000000E+00  0.88938271963E+03  0.11106172804E+04  0.66518352466E+03 0.  0.
         13    1    3    3    0    0  0.20940519229E+03  0.24964899519E+03  0.55597167081E+03  0.64442195346E+03  0.00000000000E+00 0. -1.
          4    1    3    3  501    0 -0.20940519229E+03 -0.24964899519E+03  0.33341104882E+03  0.46619532691E+03  0.00000000000E+00 0. -1.
<mgrwt>
<rscale>  0 0.66518352E+03</rscale>
<asrwt>0</asrwt>
<pdfrwt beam="1">0</pdfrwt>
<pdfrwt beam="2">  1        2 0.40224550E+00 0.66518352E+03</pdfrwt>
<totfact> 0.39015718E+00</totfact>
</mgrwt>
</event>
<event>
 5    1  0.2343702E-004  0.6284236E+03  0.7818608E-02  0.9848130E-01
         13   -1    0    0    0    0  0.00000000000E+00  0.00000000000E+00  0.10000000000E+04  0.10000000000E+04  0.00000000000E+00 0. -1.
          2   -1    0    0  501    0 -0.00000000000E+00 -0.00000000000E+00 -0.98729062082E+02  0.98729062082E+02  0.00000000000E+00 0. -1.
    9000006    2    1    2  501    0  0.00000000000E+00  0.00000000000E+00  0.90127093792E+03  0.10987290621E+04  0.62842362171E+03 0.  0.
         13    1    3    3    0    0  0.32027849314E+02 -0.30976900226E+03  0.37756944639E+03  0.48942957077E+03  0.00000000000E+00 0. -1.
          4    1    3    3  501    0 -0.32027849314E+02  0.30976900226E+03  0.52370149153E+03  0.60929949132E+03  0.00000000000E+00 0. -1.
<mgrwt>
<rscale>  0 0.62842362E+03</rscale>
<asrwt>0</asrwt>
<pdfrwt beam="1">0</pdfrwt>
<pdfrwt beam="2">  1        2 0.35901553E+00 0.62842362E+03</pdfrwt>
<totfact> 0.56512473E+00</totfact>
</mgrwt>
</event>
<event>
 5    1  0.2343702E-004  0.6933064E+03  0.7818608E-02  0.9728748E-01
         13   -1    0    0    0    0  0.00000000000E+00  0.00000000000E+00  0.10000000000E+04  0.10000000000E+04  0.00000000000E+00 0. -1.
          2   -1    0    0  501    0 -0.00000000000E+00 -0.00000000000E+00 -0.12016842517E+03  0.12016842517E+03  0.00000000000E+00 0. -1.
    9000006    2    1    2  501    0  0.00000000000E+00  0.00000000000E+00  0.87983157483E+03  0.11201684252E+04  0.69330635414E+03 0.  0.
         13    1    3    3    0    0 -0.22651615486E+03 -0.26080791059E+03  0.39314188411E+03  0.52334584710E+03  0.00000000000E+00 0. -1.
          2    1    3    3  501    0  0.22651615486E+03  0.26080791059E+03  0.48668969072E+03  0.59682257807E+03  0.00000000000E+00 0. -1.
<mgrwt>
<rscale>  0 0.69330635E+03</rscale>
<asrwt>0</asrwt>
<pdfrwt beam="1">0</pdfrwt>
<pdfrwt beam="2">  1        2 0.43697701E+00 0.69330635E+03</pdfrwt>
<totfact> 0.28672286E+00</totfact>
</mgrwt>
</event>
<event>
 5    1  0.2343702E-004  0.6399949E+03  0.7818608E-02  0.9825736E-01
         13   -1    0    0    0    0  0.00000000000E+00  0.00000000000E+00  0.10000000000E+04  0.10000000000E+04  0.00000000000E+00 0. -1.
          2   -1    0    0  501    0 -0.00000000000E+00 -0.00000000000E+00 -0.10239836222E+03  0.10239836222E+03  0.00000000000E+00 0. -1.
    9000006    2    1    2  501    0  0.00000000000E+00  0.00000000000E+00  0.89760163778E+03  0.11023983622E+04  0.63999488192E+03 0.  0.
         13    1    3    3    0    0  0.11241712184E+02  0.11716619995E+03 -0.63755737557E+02  0.13386219995E+03  0.00000000000E+00 0. -1.
          2    1    3    3  501    0 -0.11241712184E+02 -0.11716619995E+03  0.96135737534E+03  0.96853616227E+03  0.00000000000E+00 0. -1.
<mgrwt>
<rscale>  0 0.63999488E+03</rscale>
<asrwt>0</asrwt>
<pdfrwt beam="1">0</pdfrwt>
<pdfrwt beam="2">  1        2 0.37235847E+00 0.63999488E+03</pdfrwt>
<totfact> 0.50470527E+00</totfact>
</mgrwt>
</event>
<event>
 5    1  0.2343702E-004  0.6293251E+03  0.7818608E-02  0.9846367E-01
         13   -1    0    0    0    0  0.00000000000E+00  0.00000000000E+00  0.10000000000E+04  0.10000000000E+04  0.00000000000E+00 0. -1.
          2   -1    0    0  501    0 -0.00000000000E+00 -0.00000000000E+00 -0.99012508557E+02  0.99012508557E+02  0.00000000000E+00 0. -1.
    9000006    2    1    2  501    0  0.00000000000E+00  0.00000000000E+00  0.90098749144E+03  0.10990125086E+04  0.62932506245E+03 0.  0.
         13    1    3    3    0    0  0.30604504693E+03 -0.14996130990E+02  0.57550077970E+03  0.65198895860E+03  0.00000000000E+00 0. -1.
          2    1    3    3  501    0 -0.30604504693E+03  0.14996130990E+02  0.32548671174E+03  0.44702354996E+03  0.00000000000E+00 0. -1.
<mgrwt>
<rscale>  0 0.62932506E+03</rscale>
<asrwt>0</asrwt>
<pdfrwt beam="1">0</pdfrwt>
<pdfrwt beam="2">  1        2 0.36004624E+00 0.62932506E+03</pdfrwt>
<totfact> 0.56023021E+00</totfact>
</mgrwt>
</event>
<event>
 5    1  0.2343702E-004  0.6405755E+03  0.7818608E-02  0.9824626E-01
         13   -1    0    0    0    0  0.00000000000E+00  0.00000000000E+00  0.10000000000E+04  0.10000000000E+04  0.00000000000E+00 0. -1.
          2   -1    0    0  501    0 -0.00000000000E+00 -0.00000000000E+00 -0.10258425255E+03  0.10258425255E+03  0.00000000000E+00 0. -1.
    9000006    2    1    2  501    0  0.00000000000E+00  0.00000000000E+00  0.89741574745E+03  0.11025842525E+04  0.64057553044E+03 0.  0.
         13    1    3    3    0    0 -0.14871741374E+03 -0.27195134956E+03  0.30983199273E+03  0.43825822228E+03  0.00000000000E+00 0. -1.
          4    1    3    3  501    0  0.14871741374E+03  0.27195134956E+03  0.58758375472E+03  0.66432603027E+03  0.00000000000E+00 0. -1.
<mgrwt>
<rscale>  0 0.64057553E+03</rscale>
<asrwt>0</asrwt>
<pdfrwt beam="1">0</pdfrwt>
<pdfrwt beam="2">  1        2 0.37303443E+00 0.64057553E+03</pdfrwt>
<totfact> 0.50180835E+00</totfact>
</mgrwt>
</event>
<event>
 5    1  0.2343702E-004  0.6305616E+03  0.7818608E-02  0.9843953E-01
         13   -1    0    0    0    0  0.00000000000E+00  0.00000000000E+00  0.10000000000E+04  0.10000000000E+04  0.00000000000E+00 0. -1.
          2   -1    0    0  501    0 -0.00000000000E+00 -0.00000000000E+00 -0.99401987905E+02  0.99401987905E+02  0.00000000000E+00 0. -1.
    9000006    2    1    2  501    0  0.00000000000E+00  0.00000000000E+00  0.90059801209E+03  0.10994019879E+04  0.63056161604E+03 0.  0.
         13    1    3    3    0    0  0.28080332181E+03 -0.13032423892E+03  0.34616678904E+03  0.46439892186E+03  0.00000000000E+00 0. -1.
          2    1    3    3  501    0 -0.28080332181E+03  0.13032423892E+03  0.55443122306E+03  0.63500306605E+03  0.00000000000E+00 0. -1.
<mgrwt>
<rscale>  0 0.63056162E+03</rscale>
<asrwt>0</asrwt>
<pdfrwt beam="1">0</pdfrwt>
<pdfrwt beam="2">  1        2 0.36146254E+00 0.63056162E+03</pdfrwt>
<totfact> 0.55356859E+00</totfact>
</mgrwt>
</event>
<event>
 5    1  0.2343702E-004  0.6541573E+03  0.7818608E-02  0.9799010E-01
         13   -1    0    0    0    0  0.00000000000E+00  0.00000000000E+00  0.10000000000E+04  0.10000000000E+04  0.00000000000E+00 0. -1.
          2   -1    0    0  501    0 -0.00000000000E+00 -0.00000000000E+00 -0.10698042845E+03  0.10698042845E+03  0.00000000000E+00 0. -1.
    9000006    2    1    2  501    0  0.00000000000E+00  0.00000000000E+00  0.89301957155E+03  0.11069804284E+04  0.65415725463E+03 0.  0.
         13    1    3    3    0    0 -0.22781081958E+03  0.14670103711E+03  0.75652159181E+03  0.80358190789E+03  0.00000000000E+00 0. -1.
          4    1    3    3  501    0  0.22781081958E+03 -0.14670103711E+03  0.13649797974E+03  0.30339852056E+03  0.00000000000E+00 0. -1.
<mgrwt>
<rscale>  0 0.65415725E+03</rscale>
<asrwt>0</asrwt>
<pdfrwt beam="1">0</pdfrwt>
<pdfrwt beam="2">  1        2 0.38902056E+00 0.65415725E+03</pdfrwt>
<totfact> 0.43756760E+00</totfact>
</mgrwt>
</event>
<event>
 5    1  0.2343702E-004  0.6621599E+03  0.7818608E-02  0.9784226E-01
         13   -1    0    0    0    0  0.00000000000E+00  0.00000000000E+00  0.10000000000E+04  0.10000000000E+04  0.00000000000E+00 0. -1.
          2   -1    0    0  501    0 -0.00000000000E+00 -0.00000000000E+00 -0.10961392957E+03  0.10961392957E+03  0.00000000000E+00 0. -1.
    9000006    2    1    2  501    0  0.00000000000E+00  0.00000000000E+00  0.89038607043E+03  0.11096139296E+04  0.66215988875E+03 0.  0.
         13    1    3    3    0    0  0.21423727620E+03  0.22661431835E+03  0.63151246188E+03  0.70431502135E+03  0.00000000000E+00 0. -1.
          4    1    3    3  501    0 -0.21423727620E+03 -0.22661431835E+03  0.25887360855E+03  0.40529890821E+03  0.00000000000E+00 0. -1.
<mgrwt>
<rscale>  0 0.66215989E+03</rscale>
<asrwt>0</asrwt>
<pdfrwt beam="1">0</pdfrwt>
<pdfrwt beam="2">  1        2 0.39859695E+00 0.66215989E+03</pdfrwt>
<totfact> 0.40275128E+00</totfact>
</mgrwt>
</event>
<event>
 5    1  0.2343702E-004  0.6548664E+03  0.7818608E-02  0.9797690E-01
         13   -1    0    0    0    0  0.00000000000E+00  0.00000000000E+00  0.10000000000E+04  0.10000000000E+04  0.00000000000E+00 0. -1.
          2   -1    0    0  501    0 -0.00000000000E+00 -0.00000000000E+00 -0.10721250792E+03  0.10721250792E+03  0.00000000000E+00 0. -1.
    9000006    2    1    2  501    0  0.00000000000E+00  0.00000000000E+00  0.89278749208E+03  0.11072125079E+04  0.65486642276E+03 0.  0.
         13    1    3    3    0    0 -0.11427865403E+03  0.60139813964E+01  0.96508828183E+03  0.97184935585E+03  0.00000000000E+00 0. -1.
          2    1    3    3  501    0  0.11427865403E+03 -0.60139813964E+01 -0.72300789750E+02  0.13536315206E+03  0.00000000000E+00 0. -1.
<mgrwt>
<rscale>  0 0.65486642E+03</rscale>
<asrwt>0</asrwt>
<pdfrwt beam="1">0</pdfrwt>
<pdfrwt beam="2">  1        2 0.38986449E+00 0.65486642E+03</pdfrwt>
<totfact> 0.43439364E+00</totfact>
</mgrwt>
</event>
<event>
 5    1  0.2343702E-004  0.6465585E+03  0.7818608E-02  0.9813258E-01
         13   -1    0    0    0    0  0.00000000000E+00  0.00000000000E+00  0.10000000000E+04  0.10000000000E+04  0.00000000000E+00 0. -1.
          2   -1    0    0  501    0 -0.00000000000E+00 -0.00000000000E+00 -0.10450948347E+03  0.10450948347E+03  0.00000000000E+00 0. -1.
    9000006    2    1    2  501    0  0.00000000000E+00  0.00000000000E+00  0.89549051653E+03  0.11045094835E+04  0.64655853089E+03 0.  0.
         13    1    3    3    0    0  0.11947536200E+03  0.28604871503E+03  0.60441747060E+03  0.67927807874E+03  0.00000000000E+00 0. -1.
          4    1    3    3  501    0 -0.11947536200E+03 -0.28604871503E+03  0.29107304594E+03  0.42523140472E+03  0.00000000000E+00 0. -1.
<mgrwt>
<rscale>  0 0.64655853E+03</rscale>
<asrwt>0</asrwt>
<pdfrwt beam="1">0</pdfrwt>
<pdfrwt beam="2">  1        2 0.38003529E+00 0.64655853E+03</pdfrwt>
<totfact> 0.47268760E+00</totfact>
</mgrwt>
</event>
<event>
 5    1  0.2343702E-004  0.6529160E+03  0.7818608E-02  0.9801323E-01
         13   -1    0    0    0    0  0.00000000000E+00  0.00000000000E+00  0.10000000000E+04  0.10000000000E+04  0.00000000000E+00 0. -1.
          2   -1    0    0  501    0 -0.00000000000E+00 -0.00000000000E+00 -0.10657482987E+03  0.10657482987E+03  0.00000000000E+00 0. -1.
    9000006    2    1    2  501    0  0.00000000000E+00  0.00000000000E+00  0.89342517013E+03  0.11065748299E+04  0.65291601258E+03 0.  0.
         13    1    3    3    0    0 -0.29083630147E+03 -0.10497797497E+03  0.62421368755E+03  0.69659806001E+03  0.00000000000E+00 0. -1.
          4    1    3    3  501    0  0.29083630147E+03  0.10497797497E+03  0.26921148258E+03  0.40997676987E+03  0.00000000000E+00 0. -1.
<mgrwt>
<rscale>  0 0.65291601E+03</rscale>
<asrwt>0</asrwt>
<pdfrwt beam="1">0</pdfrwt>
<pdfrwt beam="2">  1        2 0.38754565E+00 0.65291601E+03</pdfrwt>
<totfact> 0.44316505E+00</totfact>
</mgrwt>
</event>
<event>
 5    1  0.2343702E-004  0.6679514E+03  0.7818608E-02  0.9773666E-01
         13   -1    0    0    0    0  0.00000000000E+00  0.00000000000E+00  0.10000000000E+04  0.10000000000E+04  0.00000000000E+00 0. -1.
          2   -1    0    0  501    0 -0.00000000000E+00 -0.00000000000E+00 -0.11153976600E+03  0.11153976600E+03  0.00000000000E+00 0. -1.
    9000006    2    1    2  501    0  0.00000000000E+00  0.00000000000E+00  0.88846023400E+03  0.11115397660E+04  0.66795139344E+03 0.  0.
         13    1    3    3    0    0 -0.48836758607E+02 -0.32438251569E+03  0.54856180342E+03  0.63916280997E+03  0.00000000000E+00 0. -1.
          2    1    3    3  501    0  0.48836758607E+02  0.32438251569E+03  0.33989843058E+03  0.47237695603E+03  0.00000000000E+00 0. -1.
<mgrwt>
<rscale>  0 0.66795139E+03</rscale>
<asrwt>0</asrwt>
<pdfrwt beam="1">0</pdfrwt>
<pdfrwt beam="2">  1        2 0.40560000E+00 0.66795139E+03</pdfrwt>
<totfact> 0.37889090E+00</totfact>
</mgrwt>
</event>
<event>
 5    1  0.2343702E-004  0.4743553E+03  0.7818608E-02  0.1020698E+00
         13   -1    0    0    0    0  0.00000000000E+00  0.00000000000E+00  0.10000000000E+04  0.10000000000E+04  0.00000000000E+00 0. -1.
          2   -1    0    0  501    0 -0.00000000000E+00 -0.00000000000E+00 -0.56253249127E+02  0.56253249127E+02  0.00000000000E+00 0. -1.
    9000006    2    1    2  501    0  0.00000000000E+00  0.00000000000E+00  0.94374675087E+03  0.10562532491E+04  0.47435534835E+03 0.  0.
         13    1    3    3    0    0 -0.51597909947E+02  0.20233978130E+02 -0.41631428184E+02  0.69317631195E+02  0.00000000000E+00 0. -1.
          2    1    3    3  501    0  0.51597909947E+02 -0.20233978130E+02  0.98537817906E+03  0.98693561793E+03  0.00000000000E+00 0. -1.
<mgrwt>
<rscale>  0 0.47435535E+03</rscale>
<asrwt>0</asrwt>
<pdfrwt beam="1">0</pdfrwt>
<pdfrwt beam="2">  1        2 0.20455770E+00 0.47435535E+03</pdfrwt>
<totfact> 0.20426446E+01</totfact>
</mgrwt>
</event>
<event>
 5    1  0.2343702E-004  0.5984047E+03  0.7818608E-02  0.9908721E-01
         13   -1    0    0    0    0  0.00000000000E+00  0.00000000000E+00  0.10000000000E+04  0.10000000000E+04  0.00000000000E+00 0. -1.
          2   -1    0    0  501    0 -0.00000000000E+00 -0.00000000000E+00 -0.89522054059E+02  0.89522054059E+02  0.00000000000E+00 0. -1.
    9000006    2    1    2  501    0  0.00000000000E+00  0.00000000000E+00  0.91047794594E+03  0.10895220541E+04  0.59840472611E+03 0.  0.
         13    1    3    3    0    0 -0.24665916568E+02  0.22399869069E+03  0.96886079620E+02  0.24529723459E+03  0.00000000000E+00 0. -1.
          2    1    3    3  501    0  0.24665916568E+02 -0.22399869069E+03  0.81359186632E+03  0.84422481947E+03  0.00000000000E+00 0. -1.
<mgrwt>
<rscale>  0 0.59840473E+03</rscale>
<asrwt>0</asrwt>
<pdfrwt beam="1">0</pdfrwt>
<pdfrwt beam="2">  1        2 0.32553543E+00 0.59840473E+03</pdfrwt>
<totfact> 0.74763239E+00</totfact>
</mgrwt>
</event>
<event>
 5    1  0.2343702E-004  0.6361488E+03  0.7818608E-02  0.9833123E-01
         13   -1    0    0    0    0  0.00000000000E+00  0.00000000000E+00  0.10000000000E+04  0.10000000000E+04  0.00000000000E+00 0. -1.
          2   -1    0    0  501    0 -0.00000000000E+00 -0.00000000000E+00 -0.10117132515E+03  0.10117132515E+03  0.00000000000E+00 0. -1.
    9000006    2    1    2  501    0  0.00000000000E+00  0.00000000000E+00  0.89882867485E+03  0.11011713252E+04  0.63614880383E+03 0.  0.
         13    1    3    3    0    0 -0.31070282876E+03  0.64172000954E+02  0.48877430582E+03  0.58271315030E+03  0.00000000000E+00 0. -1.
          4    1    3    3  501    0  0.31070282876E+03 -0.64172000954E+02  0.41005436903E+03  0.51845817485E+03  0.00000000000E+00 0. -1.
<mgrwt>
<rscale>  0 0.63614880E+03</rscale>
<asrwt>0</asrwt>
<pdfrwt beam="1">0</pdfrwt>
<pdfrwt beam="2">  1        2 0.36789650E+00 0.63614880E+03</pdfrwt>
<totfact> 0.52421496E+00</totfact>
</mgrwt>
</event>
<event>
 5    1  0.2343702E-004  0.6478754E+03  0.7818608E-02  0.9810774E-01
         13   -1    0    0    0    0  0.00000000000E+00  0.00000000000E+00  0.10000000000E+04  0.10000000000E+04  0.00000000000E+00 0. -1.
          2   -1    0    0  501    0 -0.00000000000E+00 -0.00000000000E+00 -0.10493562755E+03  0.10493562755E+03  0.00000000000E+00 0. -1.
    9000006    2    1    2  501    0  0.00000000000E+00  0.00000000000E+00  0.89506437245E+03  0.11049356276E+04  0.64787538170E+03 0.  0.
         13    1    3    3    0    0  0.27633427703E+03  0.16883760537E+03  0.46168433567E+03  0.56393190675E+03  0.00000000000E+00 0. -1.
          4    1    3    3  501    0 -0.27633427703E+03 -0.16883760537E+03  0.43338003678E+03  0.54100372081E+03  0.00000000000E+00 0. -1.
<mgrwt>
<rscale>  0 0.64787538E+03</rscale>
<asrwt>0</asrwt>
<pdfrwt beam="1">0</pdfrwt>
<pdfrwt beam="2">  1        2 0.38158490E+00 0.64787538E+03</pdfrwt>
<totfact> 0.46645392E+00</totfact>
</mgrwt>
</event>
<event>
 5    1  0.2343702E-004  0.6502408E+03  0.7818608E-02  0.9806327E-01
         13   -1    0    0    0    0  0.00000000000E+00  0.00000000000E+00  0.10000000000E+04  0.10000000000E+04  0.00000000000E+00 0. -1.
          2   -1    0    0  501    0 -0.00000000000E+00 -0.00000000000E+00 -0.10570328091E+03  0.10570328091E+03  0.00000000000E+00 0. -1.
    9000006    2    1    2  501    0  0.00000000000E+00  0.00000000000E+00  0.89429671909E+03  0.11057032809E+04  0.65024081973E+03 0.  0.
         13    1    3    3    0    0 -0.31370703943E+03 -0.63154033469E+02  0.34942425078E+03  0.47381203612E+03  0.00000000000E+00 0. -1.
          2    1    3    3  501    0  0.31370703943E+03  0.63154033469E+02  0.54487246830E+03  0.63189124479E+03  0.00000000000E+00 0. -1.
<mgrwt>
<rscale>  0 0.65024082E+03</rscale>
<asrwt>0</asrwt>
<pdfrwt beam="1">0</pdfrwt>
<pdfrwt beam="2">  1        2 0.38437638E+00 0.65024082E+03</pdfrwt>
<totfact> 0.45541278E+00</totfact>
</mgrwt>
</event>
<event>
 5    1  0.2343702E-004  0.6507112E+03  0.7818608E-02  0.9805446E-01
         13   -1    0    0    0    0  0.00000000000E+00  0.00000000000E+00  0.10000000000E+04  0.10000000000E+04  0.00000000000E+00 0. -1.
          2   -1    0    0  501    0 -0.00000000000E+00 -0.00000000000E+00 -0.10585626510E+03  0.10585626510E+03  0.00000000000E+00 0. -1.
    9000006    2    1    2  501    0  0.00000000000E+00  0.00000000000E+00  0.89414373490E+03  0.11058562651E+04  0.65071119584E+03 0.  0.
         13    1    3    3    0    0 -0.13043343935E+03  0.29340478810E+03  0.53630575944E+03  0.62507849058E+03  0.00000000000E+00 0. -1.
          4    1    3    3  501    0  0.13043343935E+03 -0.29340478810E+03  0.35783797547E+03  0.48077777452E+03  0.00000000000E+00 0. -1.
<mgrwt>
<rscale>  0 0.65071120E+03</rscale>
<asrwt>0</asrwt>
<pdfrwt beam="1">0</pdfrwt>
<pdfrwt beam="2">  1        2 0.38493268E+00 0.65071120E+03</pdfrwt>
<totfact> 0.45324097E+00</totfact>
</mgrwt>
</event>
<event>
 5    1  0.2343702E-004  0.6662218E+03  0.7818608E-02  0.9776807E-01
         13   -1    0    0    0    0  0.00000000000E+00  0.00000000000E+00  0.10000000000E+04  0.10000000000E+04  0.00000000000E+00 0. -1.
          2   -1    0    0  501    0 -0.00000000000E+00 -0.00000000000E+00 -0.11096285767E+03  0.11096285767E+03  0.00000000000E+00 0. -1.
    9000006    2    1    2  501    0  0.00000000000E+00  0.00000000000E+00  0.88903714233E+03  0.11109628577E+04  0.66622175789E+03 0.  0.
         13    1    3    3    0    0  0.96068861836E+02  0.17920378303E+02 -0.86520473591E+02  0.13052263606E+03  0.00000000000E+00 0. -1.
          2    1    3    3  501    0 -0.96068861836E+02 -0.17920378303E+02  0.97555761592E+03  0.98044022161E+03  0.00000000000E+00 0. -1.
<mgrwt>
<rscale>  0 0.66622176E+03</rscale>
<asrwt>0</asrwt>
<pdfrwt beam="1">0</pdfrwt>
<pdfrwt beam="2">  1        2 0.40350215E+00 0.66622176E+03</pdfrwt>
<totfact> 0.38590199E+00</totfact>
</mgrwt>
</event>
<event>
 5    1  0.2343702E-004  0.6456387E+03  0.7818608E-02  0.9814997E-01
         13   -1    0    0    0    0  0.00000000000E+00  0.00000000000E+00  0.10000000000E+04  0.10000000000E+04  0.00000000000E+00 0. -1.
          2   -1    0    0  501    0 -0.00000000000E+00 -0.00000000000E+00 -0.10421232721E+03  0.10421232721E+03  0.00000000000E+00 0. -1.
    9000006    2    1    2  501    0  0.00000000000E+00  0.00000000000E+00  0.89578767279E+03  0.11042123272E+04  0.64563868289E+03 0.  0.
         13    1    3    3    0    0 -0.22092653544E+02  0.32107188015E+03  0.49106197507E+03  0.58712613715E+03  0.00000000000E+00 0. -1.
          4    1    3    3  501    0  0.22092653544E+02 -0.32107188015E+03  0.40472569771E+03  0.51708619006E+03  0.00000000000E+00 0. -1.
<mgrwt>
<rscale>  0 0.64563868E+03</rscale>
<asrwt>0</asrwt>
<pdfrwt beam="1">0</pdfrwt>
<pdfrwt beam="2">  1        2 0.37895472E+00 0.64563868E+03</pdfrwt>
<totfact> 0.47707918E+00</totfact>
</mgrwt>
</event>
<event>
 5    1  0.2343702E-004  0.6626498E+03  0.7818608E-02  0.9783328E-01
         13   -1    0    0    0    0  0.00000000000E+00  0.00000000000E+00  0.10000000000E+04  0.10000000000E+04  0.00000000000E+00 0. -1.
          2   -1    0    0  501    0 -0.00000000000E+00 -0.00000000000E+00 -0.10977619396E+03  0.10977619396E+03  0.00000000000E+00 0. -1.
    9000006    2    1    2  501    0  0.00000000000E+00  0.00000000000E+00  0.89022380604E+03  0.11097761940E+04  0.66264981390E+03 0.  0.
         13    1    3    3    0    0  0.98729958626E+00 -0.16887554601E+03 -0.32285182277E+02  0.17193678430E+03  0.00000000000E+00 0. -1.
          4    1    3    3  501    0 -0.98729958626E+00  0.16887554601E+03  0.92250898831E+03  0.93783940966E+03  0.00000000000E+00 0. -1.
<mgrwt>
<rscale>  0 0.66264981E+03</rscale>
<asrwt>0</asrwt>
<pdfrwt beam="1">0</pdfrwt>
<pdfrwt beam="2">  1        2 0.39918700E+00 0.66264981E+03</pdfrwt>
<totfact> 0.40069011E+00</totfact>
</mgrwt>
</event>
<event>
 5    1  0.2343702E-004  0.6636303E+03  0.7818608E-02  0.9781534E-01
         13   -1    0    0    0    0  0.00000000000E+00  0.00000000000E+00  0.10000000000E+04  0.10000000000E+04  0.00000000000E+00 0. -1.
          2   -1    0    0  501    0 -0.00000000000E+00 -0.00000000000E+00 -0.11010128330E+03  0.11010128330E+03  0.00000000000E+00 0. -1.
    9000006    2    1    2  501    0  0.00000000000E+00  0.00000000000E+00  0.88989871670E+03  0.11101012833E+04  0.66363026843E+03 0.  0.
         13    1    3    3    0    0  0.22474335355E+03 -0.14405579606E+03  0.11528348344E+03  0.29077814377E+03  0.00000000000E+00 0. -1.
          2    1    3    3  501    0 -0.22474335355E+03  0.14405579606E+03  0.77461523327E+03  0.81932313952E+03  0.00000000000E+00 0. -1.
<mgrwt>
<rscale>  0 0.66363027E+03</rscale>
<asrwt>0</asrwt>
<pdfrwt beam="1">0</pdfrwt>
<pdfrwt beam="2">  1        2 0.40036915E+00 0.66363027E+03</pdfrwt>
<totfact> 0.39658913E+00</totfact>
</mgrwt>
</event>
<event>
 5    1  0.2343702E-004  0.6484106E+03  0.7818608E-02  0.9809766E-01
         13   -1    0    0    0    0  0.00000000000E+00  0.00000000000E+00  0.10000000000E+04  0.10000000000E+04  0.00000000000E+00 0. -1.
          2   -1    0    0  501    0 -0.00000000000E+00 -0.00000000000E+00 -0.10510906835E+03  0.10510906835E+03  0.00000000000E+00 0. -1.
    9000006    2    1    2  501    0  0.00000000000E+00  0.00000000000E+00  0.89489093165E+03  0.11051090684E+04  0.64841057473E+03 0.  0.
         13    1    3    3    0    0 -0.38565587181E+01  0.11836614856E+03  0.96181503477E+03  0.96907872708E+03  0.00000000000E+00 0. -1.
          4    1    3    3  501    0  0.38565587181E+01 -0.11836614856E+03 -0.66924103122E+02  0.13603034128E+03  0.00000000000E+00 0. -1.
<mgrwt>
<rscale>  0 0.64841057E+03</rscale>
<asrwt>0</asrwt>
<pdfrwt beam="1">0</pdfrwt>
<pdfrwt beam="2">  1        2 0.38221560E+00 0.64841057E+03</pdfrwt>
<totfact> 0.46393828E+00</totfact>
</mgrwt>
</event>
<event>
 5    1  0.2343702E-004  0.6441629E+03  0.7818608E-02  0.9817794E-01
         13   -1    0    0    0    0  0.00000000000E+00  0.00000000000E+00  0.10000000000E+04  0.10000000000E+04  0.00000000000E+00 0. -1.
          2   -1    0    0  501    0 -0.00000000000E+00 -0.00000000000E+00 -0.10373647020E+03  0.10373647020E+03  0.00000000000E+00 0. -1.
    9000006    2    1    2  501    0  0.00000000000E+00  0.00000000000E+00  0.89626352980E+03  0.11037364702E+04  0.64416293033E+03 0.  0.
         13    1    3    3    0    0  0.23373178357E+03 -0.21938104224E+03  0.39455051263E+03  0.50835882540E+03  0.00000000000E+00 0. -1.
          4    1    3    3  501    0 -0.23373178357E+03  0.21938104224E+03  0.50171301717E+03  0.59537764481E+03  0.00000000000E+00 0. -1.
<mgrwt>
<rscale>  0 0.64416293E+03</rscale>
<asrwt>0</asrwt>
<pdfrwt beam="1">0</pdfrwt>
<pdfrwt beam="2">  1        2 0.37722432E+00 0.64416293E+03</pdfrwt>
<totfact> 0.48418921E+00</totfact>
</mgrwt>
</event>
<event>
 5    1  0.2343702E-004  0.6424354E+03  0.7818608E-02  0.9821078E-01
         13   -1    0    0    0    0  0.00000000000E+00  0.00000000000E+00  0.10000000000E+04  0.10000000000E+04  0.00000000000E+00 0. -1.
          2   -1    0    0  501    0 -0.00000000000E+00 -0.00000000000E+00 -0.10318081657E+03  0.10318081657E+03  0.00000000000E+00 0. -1.
    9000006    2    1    2  501    0  0.00000000000E+00  0.00000000000E+00  0.89681918343E+03  0.11031808166E+04  0.64243541800E+03 0.  0.
         13    1    3    3    0    0 -0.33053731174E+02  0.38140896912E+02 -0.96329571167E+02  0.10875046410E+03  0.00000000000E+00 0. -1.
          4    1    3    3  501    0  0.33053731174E+02 -0.38140896912E+02  0.99314875459E+03  0.99443035247E+03  0.00000000000E+00 0. -1.
<mgrwt>
<rscale>  0 0.64243542E+03</rscale>
<asrwt>0</asrwt>
<pdfrwt beam="1">0</pdfrwt>
<pdfrwt beam="2">  1        2 0.37520376E+00 0.64243542E+03</pdfrwt>
<totfact> 0.49261386E+00</totfact>
</mgrwt>
</event>
<event>
 5    1  0.2343702E-004  0.6487456E+03  0.7818608E-02  0.9809136E-01
         13   -1    0    0    0    0  0.00000000000E+00  0.00000000000E+00  0.10000000000E+04  0.10000000000E+04  0.00000000000E+00 0. -1.
          2   -1    0    0  501    0 -0.00000000000E+00 -0.00000000000E+00 -0.10521771911E+03  0.10521771911E+03  0.00000000000E+00 0. -1.
    9000006    2    1    2  501    0  0.00000000000E+00  0.00000000000E+00  0.89478228089E+03  0.11052177191E+04  0.64874561766E+03 0.  0.
         13    1    3    3    0    0  0.88247179970E+01  0.32036670634E+02  0.99709263160E+03  0.99764619976E+03  0.00000000000E+00 0. -1.
          2    1    3    3  501    0 -0.88247179970E+01 -0.32036670634E+02 -0.10231035070E+03  0.10757151935E+03  0.00000000000E+00 0. -1.
<mgrwt>
<rscale>  0 0.64874562E+03</rscale>
<asrwt>0</asrwt>
<pdfrwt beam="1">0</pdfrwt>
<pdfrwt beam="2">  1        2 0.38261069E+00 0.64874562E+03</pdfrwt>
<totfact> 0.46236866E+00</totfact>
</mgrwt>
</event>
<event>
 5    1  0.2343702E-004  0.6573329E+03  0.7818608E-02  0.9793116E-01
         13   -1    0    0    0    0  0.00000000000E+00  0.00000000000E+00  0.10000000000E+04  0.10000000000E+04  0.00000000000E+00 0. -1.
          2   -1    0    0  501    0 -0.00000000000E+00 -0.00000000000E+00 -0.10802163621E+03  0.10802163621E+03  0.00000000000E+00 0. -1.
    9000006    2    1    2  501    0  0.00000000000E+00  0.00000000000E+00  0.89197836379E+03  0.11080216362E+04  0.65733290260E+03 0.  0.
         13    1    3    3    0    0 -0.14352035899E+03  0.21457741727E+03  0.10309627207E+03  0.27797554346E+03  0.00000000000E+00 0. -1.
          4    1    3    3  501    0  0.14352035899E+03 -0.21457741727E+03  0.78888209172E+03  0.83004609275E+03  0.00000000000E+00 0. -1.
<mgrwt>
<rscale>  0 0.65733290E+03</rscale>
<asrwt>0</asrwt>
<pdfrwt beam="1">0</pdfrwt>
<pdfrwt beam="2">  1        2 0.39280678E+00 0.65733290E+03</pdfrwt>
<totfact> 0.42348984E+00</totfact>
</mgrwt>
</event>
<event>
 5    1  0.2343702E-004  0.6068215E+03  0.7818608E-02  0.9891354E-01
         13   -1    0    0    0    0  0.00000000000E+00  0.00000000000E+00  0.10000000000E+04  0.10000000000E+04  0.00000000000E+00 0. -1.
          2   -1    0    0  501    0 -0.00000000000E+00 -0.00000000000E+00 -0.92058096229E+02  0.92058096229E+02  0.00000000000E+00 0. -1.
    9000006    2    1    2  501    0  0.00000000000E+00  0.00000000000E+00  0.90794190377E+03  0.10920580962E+04  0.60682154289E+03 0.  0.
         13    1    3    3    0    0  0.29589929825E+03 -0.65793754672E+02  0.47763349178E+03  0.56570218784E+03  0.00000000000E+00 0. -1.
          2    1    3    3  501    0 -0.29589929825E+03  0.65793754672E+02  0.43030841200E+03  0.52635590839E+03  0.00000000000E+00 0. -1.
<mgrwt>
<rscale>  0 0.60682154E+03</rscale>
<asrwt>0</asrwt>
<pdfrwt beam="1">0</pdfrwt>
<pdfrwt beam="2">  1        2 0.33475742E+00 0.60682154E+03</pdfrwt>
<totfact> 0.69248558E+00</totfact>
</mgrwt>
</event>
<event>
 5    1  0.2343702E-004  0.6468728E+03  0.7818608E-02  0.9812665E-01
         13   -1    0    0    0    0  0.00000000000E+00  0.00000000000E+00  0.10000000000E+04  0.10000000000E+04  0.00000000000E+00 0. -1.
          2   -1    0    0  501    0 -0.00000000000E+00 -0.00000000000E+00 -0.10461110564E+03  0.10461110564E+03  0.00000000000E+00 0. -1.
    9000006    2    1    2  501    0  0.00000000000E+00  0.00000000000E+00  0.89538889436E+03  0.11046111056E+04  0.64687280246E+03 0.  0.
         13    1    3    3    0    0  0.25915622180E+03 -0.19287035545E+03  0.42068469683E+03  0.53041166602E+03  0.00000000000E+00 0. -1.
          4    1    3    3  501    0 -0.25915622180E+03  0.19287035545E+03  0.47470419753E+03  0.57419943962E+03  0.00000000000E+00 0. -1.
<mgrwt>
<rscale>  0 0.64687280E+03</rscale>
<asrwt>0</asrwt>
<pdfrwt beam="1">0</pdfrwt>
<pdfrwt beam="2">  1        2 0.38040482E+00 0.64687280E+03</pdfrwt>
<totfact> 0.47119422E+00</totfact>
</mgrwt>
</event>
<event>
 5    1  0.2343702E-004  0.6478130E+03  0.7818608E-02  0.9810892E-01
         13   -1    0    0    0    0  0.00000000000E+00  0.00000000000E+00  0.10000000000E+04  0.10000000000E+04  0.00000000000E+00 0. -1.
          2   -1    0    0  501    0 -0.00000000000E+00 -0.00000000000E+00 -0.10491542485E+03  0.10491542485E+03  0.00000000000E+00 0. -1.
    9000006    2    1    2  501    0  0.00000000000E+00  0.00000000000E+00  0.89508457515E+03  0.11049154248E+04  0.64781301267E+03 0.  0.
         13    1    3    3    0    0 -0.54509527818E+02 -0.23243947067E+03  0.82089540089E+03  0.85490856549E+03  0.00000000000E+00 0. -1.
          2    1    3    3  501    0  0.54509527818E+02  0.23243947067E+03  0.74189174262E+02  0.25000685936E+03  0.00000000000E+00 0. -1.
<mgrwt>
<rscale>  0 0.64781301E+03</rscale>
<asrwt>0</asrwt>
<pdfrwt beam="1">0</pdfrwt>
<pdfrwt beam="2">  1        2 0.38151144E+00 0.64781301E+03</pdfrwt>
<totfact> 0.46674775E+00</totfact>
</mgrwt>
</event>
<event>
 5    1  0.2343702E-004  0.6531157E+03  0.7818608E-02  0.9800950E-01
         13   -1    0    0    0    0  0.00000000000E+00  0.00000000000E+00  0.10000000000E+04  0.10000000000E+04  0.00000000000E+00 0. -1.
          2   -1    0    0  501    0 -0.00000000000E+00 -0.00000000000E+00 -0.10664001333E+03  0.10664001333E+03  0.00000000000E+00 0. -1.
    9000006    2    1    2  501    0  0.00000000000E+00  0.00000000000E+00  0.89335998667E+03  0.11066400133E+04  0.65311565081E+03 0.  0.
         13    1    3    3    0    0  0.88847516656E+02 -0.15830411950E+03 -0.13267849045E+02  0.18201678847E+03  0.00000000000E+00 0. -1.
          4    1    3    3  501    0 -0.88847516656E+02  0.15830411950E+03  0.90662783571E+03  0.92462322486E+03  0.00000000000E+00 0. -1.
<mgrwt>
<rscale>  0 0.65311565E+03</rscale>
<asrwt>0</asrwt>
<pdfrwt beam="1">0</pdfrwt>
<pdfrwt beam="2">  1        2 0.38778268E+00 0.65311565E+03</pdfrwt>
<totfact> 0.44226114E+00</totfact>
</mgrwt>
</event>
<event>
 5    1  0.2343702E-004  0.6389736E+03  0.7818608E-02  0.9827692E-01
         13   -1    0    0    0    0  0.00000000000E+00  0.00000000000E+00  0.10000000000E+04  0.10000000000E+04  0.00000000000E+00 0. -1.
          2   -1    0    0  501    0 -0.00000000000E+00 -0.00000000000E+00 -0.10207183103E+03  0.10207183103E+03  0.00000000000E+00 0. -1.
    9000006    2    1    2  501    0  0.00000000000E+00  0.00000000000E+00  0.89792816897E+03  0.11020718310E+04  0.63897364900E+03 0.  0.
         13    1    3    3    0    0  0.18563581737E+03  0.25998552635E+03  0.44150556371E+03  0.54495898322E+03  0.00000000000E+00 0. -1.
          2    1    3    3  501    0 -0.18563581737E+03 -0.25998552635E+03  0.45642260526E+03  0.55711284781E+03  0.00000000000E+00 0. -1.
<mgrwt>
<rscale>  0 0.63897365E+03</rscale>
<asrwt>0</asrwt>
<pdfrwt beam="1">0</pdfrwt>
<pdfrwt beam="2">  1        2 0.37117108E+00 0.63897365E+03</pdfrwt>
<totfact> 0.50983102E+00</totfact>
</mgrwt>
</event>
<event>
 5    1  0.2343702E-004  0.6590855E+03  0.7818608E-02  0.9789879E-01
         13   -1    0    0    0    0  0.00000000000E+00  0.00000000000E+00  0.10000000000E+04  0.10000000000E+04  0.00000000000E+00 0. -1.
          2   -1    0    0  501    0 -0.00000000000E+00 -0.00000000000E+00 -0.10859841722E+03  0.10859841722E+03  0.00000000000E+00 0. -1.
    9000006    2    1    2  501    0  0.00000000000E+00  0.00000000000E+00  0.89140158278E+03  0.11085984172E+04  0.65908547919E+03 0.  0.
         13    1    3    3    0    0 -0.27922347622E+03  0.13550215808E+03  0.25936888653E+03  0.40447348963E+03  0.00000000000E+00 0. -1.
          2    1    3    3  501    0  0.27922347622E+03 -0.13550215808E+03  0.63203269626E+03  0.70412492759E+03  0.00000000000E+00 0. -1.
<mgrwt>
<rscale>  0 0.65908548E+03</rscale>
<asrwt>0</asrwt>
<pdfrwt beam="1">0</pdfrwt>
<pdfrwt beam="2">  1        2 0.39490417E+00 0.65908548E+03</pdfrwt>
<totfact> 0.41586891E+00</totfact>
</mgrwt>
</event>
<event>
 5    1  0.2343702E-004  0.6436769E+03  0.7818608E-02  0.9818717E-01
         13   -1    0    0    0    0  0.00000000000E+00  0.00000000000E+00  0.10000000000E+04  0.10000000000E+04  0.00000000000E+00 0. -1.
          2   -1    0    0  501    0 -0.00000000000E+00 -0.00000000000E+00 -0.10357998679E+03  0.10357998679E+03  0.00000000000E+00 0. -1.
    9000006    2    1    2  501    0  0.00000000000E+00  0.00000000000E+00  0.89642001321E+03  0.11035799868E+04  0.64367689656E+03 0.  0.
         13    1    3    3    0    0  0.11938197977E+03  0.29862569735E+03  0.42716830137E+03  0.53469815963E+03  0.00000000000E+00 0. -1.
          2    1    3    3  501    0 -0.11938197977E+03 -0.29862569735E+03  0.46925171184E+03  0.56888182716E+03  0.00000000000E+00 0. -1.
<mgrwt>
<rscale>  0 0.64367690E+03</rscale>
<asrwt>0</asrwt>
<pdfrwt beam="1">0</pdfrwt>
<pdfrwt beam="2">  1        2 0.37665529E+00 0.64367690E+03</pdfrwt>
<totfact> 0.48654833E+00</totfact>
</mgrwt>
</event>
<event>
 5    1  0.2343702E-004  0.6365797E+03  0.7818608E-02  0.9832292E-01
         13   -1    0    0    0    0  0.00000000000E+00  0.00000000000E+00  0.10000000000E+04  0.10000000000E+04  0.00000000000E+00 0. -1.
          4   -1    0    0  501    0 -0.00000000000E+00 -0.00000000000E+00 -0.10130843739E+03  0.10130843739E+03  0.00000000000E+00 0. -1.
    9000006    2    1    2  501    0  0.00000000000E+00  0.00000000000E+00  0.89869156261E+03  0.11013084374E+04  0.63657972758E+03 0.  0.
         13    1    3    3    0    0  0.42608996456E+02 -0.29412497523E+03  0.25221676973E+03  0.38979267125E+03  0.00000000000E+00 0. -1.
          2    1    3    3  501    0 -0.42608996456E+02  0.29412497523E+03  0.64647479288E+03  0.71151576614E+03  0.00000000000E+00 0. -1.
<mgrwt>
<rscale>  0 0.63657973E+03</rscale>
<asrwt>0</asrwt>
<pdfrwt beam="1">0</pdfrwt>
<pdfrwt beam="2">  1        4 0.36839509E+00 0.63657973E+03</pdfrwt>
<totfact> 0.52429578E-02</totfact>
</mgrwt>
</event>
<event>
 5    1  0.2343702E-004  0.6477048E+03  0.7818608E-02  0.9811096E-01
         13   -1    0    0    0    0  0.00000000000E+00  0.00000000000E+00  0.10000000000E+04  0.10000000000E+04  0.00000000000E+00 0. -1.
          2   -1    0    0  501    0 -0.00000000000E+00 -0.00000000000E+00 -0.10488037927E+03  0.10488037927E+03  0.00000000000E+00 0. -1.
    9000006    2    1    2  501    0  0.00000000000E+00  0.00000000000E+00  0.89511962073E+03  0.11048803793E+04  0.64770480705E+03 0.  0.
         13    1    3    3    0    0 -0.16688404014E+03  0.24410275045E+03  0.67285944037E+03  0.73496684423E+03  0.00000000000E+00 0. -1.
          2    1    3    3  501    0  0.16688404014E+03 -0.24410275045E+03  0.22226018036E+03  0.36991353504E+03  0.00000000000E+00 0. -1.
<mgrwt>
<rscale>  0 0.64770481E+03</rscale>
<asrwt>0</asrwt>
<pdfrwt beam="1">0</pdfrwt>
<pdfrwt beam="2">  1        2 0.38138400E+00 0.64770481E+03</pdfrwt>
<totfact> 0.46725786E+00</totfact>
</mgrwt>
</event>
<event>
 5    1  0.2343702E-004  0.6498542E+03  0.7818608E-02  0.9807053E-01
         13   -1    0    0    0    0  0.00000000000E+00  0.00000000000E+00  0.10000000000E+04  0.10000000000E+04  0.00000000000E+00 0. -1.
          2   -1    0    0  501    0 -0.00000000000E+00 -0.00000000000E+00 -0.10557763223E+03  0.10557763223E+03  0.00000000000E+00 0. -1.
    9000006    2    1    2  501    0  0.00000000000E+00  0.00000000000E+00  0.89442236777E+03  0.11055776322E+04  0.64985423668E+03 0.  0.
         13    1    3    3    0    0  0.15109155090E+03  0.12727770455E+03  0.88609062291E+03  0.90784627710E+03  0.00000000000E+00 0. -1.
          2    1    3    3  501    0 -0.15109155090E+03 -0.12727770455E+03  0.83317448563E+01  0.19773135513E+03  0.00000000000E+00 0. -1.
<mgrwt>
<rscale>  0 0.64985424E+03</rscale>
<asrwt>0</asrwt>
<pdfrwt beam="1">0</pdfrwt>
<pdfrwt beam="2">  1        2 0.38391947E+00 0.64985424E+03</pdfrwt>
<totfact> 0.45720358E+00</totfact>
</mgrwt>
</event>
<event>
 5    1  0.2343702E-004  0.6592390E+03  0.7818608E-02  0.9789596E-01
         13   -1    0    0    0    0  0.00000000000E+00  0.00000000000E+00  0.10000000000E+04  0.10000000000E+04  0.00000000000E+00 0. -1.
          2   -1    0    0  501    0 -0.00000000000E+00 -0.00000000000E+00 -0.10864901779E+03  0.10864901779E+03  0.00000000000E+00 0. -1.
    9000006    2    1    2  501    0  0.00000000000E+00  0.00000000000E+00  0.89135098221E+03  0.11086490178E+04  0.65923900914E+03 0.  0.
         13    1    3    3    0    0  0.19096149783E+03 -0.10552164273E+03  0.86119035902E+03  0.88839740275E+03  0.00000000000E+00 0. -1.
          2    1    3    3  501    0 -0.19096149783E+03  0.10552164273E+03  0.30160623184E+02  0.22025161504E+03  0.00000000000E+00 0. -1.
<mgrwt>
<rscale>  0 0.65923901E+03</rscale>
<asrwt>0</asrwt>
<pdfrwt beam="1">0</pdfrwt>
<pdfrwt beam="2">  1        2 0.39508817E+00 0.65923901E+03</pdfrwt>
<totfact> 0.41520629E+00</totfact>
</mgrwt>
</event>
<event>
 5    1  0.2343702E-004  0.6575510E+03  0.7818608E-02  0.9792713E-01
         13   -1    0    0    0    0  0.00000000000E+00  0.00000000000E+00  0.10000000000E+04  0.10000000000E+04  0.00000000000E+00 0. -1.
          2   -1    0    0  501    0 -0.00000000000E+00 -0.00000000000E+00 -0.10809332416E+03  0.10809332416E+03  0.00000000000E+00 0. -1.
    9000006    2    1    2  501    0  0.00000000000E+00  0.00000000000E+00  0.89190667584E+03  0.11080933242E+04  0.65755098407E+03 0.  0.
         13    1    3    3    0    0  0.32026026618E+03  0.73744321385E+02  0.46180311475E+03  0.56680418120E+03  0.00000000000E+00 0. -1.
          2    1    3    3  501    0 -0.32026026618E+03 -0.73744321385E+02  0.43010356109E+03  0.54128914296E+03  0.00000000000E+00 0. -1.
<mgrwt>
<rscale>  0 0.65755098E+03</rscale>
<asrwt>0</asrwt>
<pdfrwt beam="1">0</pdfrwt>
<pdfrwt beam="2">  1        2 0.39306746E+00 0.65755098E+03</pdfrwt>
<totfact> 0.42253579E+00</totfact>
</mgrwt>
</event>
<event>
 5    1  0.2343702E-004  0.6488233E+03  0.7818608E-02  0.9808990E-01
         13   -1    0    0    0    0  0.00000000000E+00  0.00000000000E+00  0.10000000000E+04  0.10000000000E+04  0.00000000000E+00 0. -1.
          2   -1    0    0  501    0 -0.00000000000E+00 -0.00000000000E+00 -0.10524292899E+03  0.10524292899E+03  0.00000000000E+00 0. -1.
    9000006    2    1    2  501    0  0.00000000000E+00  0.00000000000E+00  0.89475707101E+03  0.11052429290E+04  0.64882333185E+03 0.  0.
         13    1    3    3    0    0 -0.91090403654E+02 -0.29091671453E+02 -0.80690912144E+02  0.12511918433E+03  0.00000000000E+00 0. -1.
          2    1    3    3  501    0  0.91090403654E+02  0.29091671453E+02  0.97544798316E+03  0.98012374465E+03  0.00000000000E+00 0. -1.
<mgrwt>
<rscale>  0 0.64882333E+03</rscale>
<asrwt>0</asrwt>
<pdfrwt beam="1">0</pdfrwt>
<pdfrwt beam="2">  1        2 0.38270237E+00 0.64882333E+03</pdfrwt>
<totfact> 0.46200516E+00</totfact>
</mgrwt>
</event>
<event>
 5    1  0.2343702E-004  0.6473662E+03  0.7818608E-02  0.9811734E-01
         13   -1    0    0    0    0  0.00000000000E+00  0.00000000000E+00  0.10000000000E+04  0.10000000000E+04  0.00000000000E+00 0. -1.
          2   -1    0    0  501    0 -0.00000000000E+00 -0.00000000000E+00 -0.10477076164E+03  0.10477076164E+03  0.00000000000E+00 0. -1.
    9000006    2    1    2  501    0  0.00000000000E+00  0.00000000000E+00  0.89522923836E+03  0.11047707616E+04  0.64736623834E+03 0.  0.
         13    1    3    3    0    0  0.27324101237E+03 -0.13808677919E+03  0.26828625358E+03  0.40707016998E+03  0.00000000000E+00 0. -1.
          4    1    3    3  501    0 -0.27324101237E+03  0.13808677919E+03  0.62694298478E+03  0.69770059166E+03  0.00000000000E+00 0. -1.
<mgrwt>
<rscale>  0 0.64736624E+03</rscale>
<asrwt>0</asrwt>
<pdfrwt beam="1">0</pdfrwt>
<pdfrwt beam="2">  1        2 0.38098539E+00 0.64736624E+03</pdfrwt>
<totfact> 0.46885667E+00</totfact>
</mgrwt>
</event>
<event>
 5    1  0.2343702E-004  0.6359445E+03  0.7818608E-02  0.9833517E-01
         13   -1    0    0    0    0  0.00000000000E+00  0.00000000000E+00  0.10000000000E+04  0.10000000000E+04  0.00000000000E+00 0. -1.
          2   -1    0    0  501    0 -0.00000000000E+00 -0.00000000000E+00 -0.10110635135E+03  0.10110635135E+03  0.00000000000E+00 0. -1.
    9000006    2    1    2  501    0  0.00000000000E+00  0.00000000000E+00  0.89889364865E+03  0.11011063513E+04  0.63594449867E+03 0.  0.
         13    1    3    3    0    0  0.31826368062E+02 -0.29373472781E+03  0.24594914732E+03  0.38442683451E+03  0.00000000000E+00 0. -1.
          4    1    3    3  501    0 -0.31826368062E+02  0.29373472781E+03  0.65294450133E+03  0.71667951683E+03  0.00000000000E+00 0. -1.
<mgrwt>
<rscale>  0 0.63594450E+03</rscale>
<asrwt>0</asrwt>
<pdfrwt beam="1">0</pdfrwt>
<pdfrwt beam="2">  1        2 0.36766023E+00 0.63594450E+03</pdfrwt>
<totfact> 0.52526706E+00</totfact>
</mgrwt>
</event>
<event>
 5    1  0.2343702E-004  0.6407444E+03  0.7818608E-02  0.9824303E-01
         13   -1    0    0    0    0  0.00000000000E+00  0.00000000000E+00  0.10000000000E+04  0.10000000000E+04  0.00000000000E+00 0. -1.
          2   -1    0    0  501    0 -0.00000000000E+00 -0.00000000000E+00 -0.10263833958E+03  0.10263833958E+03  0.00000000000E+00 0. -1.
    9000006    2    1    2  501    0  0.00000000000E+00  0.00000000000E+00  0.89736166042E+03  0.11026383396E+04  0.64074437828E+03 0.  0.
         13    1    3    3    0    0  0.18392197515E+03 -0.26183878477E+03  0.42139010622E+03  0.52910912274E+03  0.00000000000E+00 0. -1.
          4    1    3    3  501    0 -0.18392197515E+03  0.26183878477E+03  0.47597155421E+03  0.57352921684E+03  0.00000000000E+00 0. -1.
<mgrwt>
<rscale>  0 0.64074438E+03</rscale>
<asrwt>0</asrwt>
<pdfrwt beam="1">0</pdfrwt>
<pdfrwt beam="2">  1        2 0.37323111E+00 0.64074438E+03</pdfrwt>
<totfact> 0.50096832E+00</totfact>
</mgrwt>
</event>
<event>
 5    1  0.2343702E-004  0.6482206E+03  0.7818608E-02  0.9810124E-01
         13   -1    0    0    0    0  0.00000000000E+00  0.00000000000E+00  0.10000000000E+04  0.10000000000E+04  0.00000000000E+00 0. -1.
          2   -1    0    0  501    0 -0.00000000000E+00 -0.00000000000E+00 -0.10504747392E+03  0.10504747392E+03  0.00000000000E+00 0. -1.
    9000006    2    1    2  501    0  0.00000000000E+00  0.00000000000E+00  0.89495252608E+03  0.11050474739E+04  0.64822056098E+03 0.  0.
         13    1    3    3    0    0 -0.21233273225E+03  0.24431320376E+03  0.41929163718E+03  0.52969765690E+03  0.00000000000E+00 0. -1.
          2    1    3    3  501    0  0.21233273225E+03 -0.24431320376E+03  0.47566088890E+03  0.57534981702E+03  0.00000000000E+00 0. -1.
<mgrwt>
<rscale>  0 0.64822056E+03</rscale>
<asrwt>0</asrwt>
<pdfrwt beam="1">0</pdfrwt>
<pdfrwt beam="2">  1        2 0.38199162E+00 0.64822056E+03</pdfrwt>
<totfact> 0.46483025E+00</totfact>
</mgrwt>
</event>
<event>
 5    1  0.2343702E-004  0.6422937E+03  0.7818608E-02  0.9821348E-01
         13   -1    0    0    0    0  0.00000000000E+00  0.00000000000E+00  0.10000000000E+04  0.10000000000E+04  0.00000000000E+00 0. -1.
          2   -1    0    0  501    0 -0.00000000000E+00 -0.00000000000E+00 -0.10313530064E+03  0.10313530064E+03  0.00000000000E+00 0. -1.
    9000006    2    1    2  501    0  0.00000000000E+00  0.00000000000E+00  0.89686469936E+03  0.11031353006E+04  0.64229370428E+03 0.  0.
         13    1    3    3    0    0 -0.28614131176E+03  0.12817374154E+03  0.56779435036E+03  0.64861065565E+03  0.00000000000E+00 0. -1.
          4    1    3    3  501    0  0.28614131176E+03 -0.12817374154E+03  0.32907034900E+03  0.45452464499E+03  0.00000000000E+00 0. -1.
<mgrwt>
<rscale>  0 0.64229370E+03</rscale>
<asrwt>0</asrwt>
<pdfrwt beam="1">0</pdfrwt>
<pdfrwt beam="2">  1        2 0.37503825E+00 0.64229370E+03</pdfrwt>
<totfact> 0.49330991E+00</totfact>
</mgrwt>
</event>
<event>
 5    1  0.2343702E-004  0.6307548E+03  0.7818608E-02  0.9843577E-01
         13   -1    0    0    0    0  0.00000000000E+00  0.00000000000E+00  0.10000000000E+04  0.10000000000E+04  0.00000000000E+00 0. -1.
          2   -1    0    0  501    0 -0.00000000000E+00 -0.00000000000E+00 -0.99462895296E+02  0.99462895296E+02  0.00000000000E+00 0. -1.
    9000006    2    1    2  501    0  0.00000000000E+00  0.00000000000E+00  0.90053710470E+03  0.10994628953E+04  0.63075477104E+03 0.  0.
         13    1    3    3    0    0 -0.12900599528E+03 -0.13566607795E+03  0.78699424224E+01  0.18737600572E+03  0.00000000000E+00 0. -1.
          2    1    3    3  501    0  0.12900599528E+03  0.13566607795E+03  0.89266716228E+03  0.91208688958E+03  0.00000000000E+00 0. -1.
<mgrwt>
<rscale>  0 0.63075477E+03</rscale>
<asrwt>0</asrwt>
<pdfrwt beam="1">0</pdfrwt>
<pdfrwt beam="2">  1        2 0.36168402E+00 0.63075477E+03</pdfrwt>
<totfact> 0.55253347E+00</totfact>
</mgrwt>
</event>
<event>
 5    1  0.2343702E-004  0.6405113E+03  0.7818608E-02  0.9824749E-01
         13   -1    0    0    0    0  0.00000000000E+00  0.00000000000E+00  0.10000000000E+04  0.10000000000E+04  0.00000000000E+00 0. -1.
          2   -1    0    0  501    0 -0.00000000000E+00 -0.00000000000E+00 -0.10256369636E+03  0.10256369636E+03  0.00000000000E+00 0. -1.
    9000006    2    1    2  501    0  0.00000000000E+00  0.00000000000E+00  0.89743630364E+03  0.11025636964E+04  0.64051134685E+03 0.  0.
         13    1    3    3    0    0 -0.99168549895E+02  0.29484413511E+03  0.57977197824E+03  0.65795365494E+03  0.00000000000E+00 0. -1.
          4    1    3    3  501    0  0.99168549895E+02 -0.29484413511E+03  0.31766432540E+03  0.44461004142E+03  0.00000000000E+00 0. -1.
<mgrwt>
<rscale>  0 0.64051135E+03</rscale>
<asrwt>0</asrwt>
<pdfrwt beam="1">0</pdfrwt>
<pdfrwt beam="2">  1        2 0.37295968E+00 0.64051135E+03</pdfrwt>
<totfact> 0.50212795E+00</totfact>
</mgrwt>
</event>
<event>
 5    1  0.2343702E-004  0.6213100E+03  0.7818608E-02  0.9862155E-01
         13   -1    0    0    0    0  0.00000000000E+00  0.00000000000E+00  0.10000000000E+04  0.10000000000E+04  0.00000000000E+00 0. -1.
          2   -1    0    0  501    0 -0.00000000000E+00 -0.00000000000E+00 -0.96506532996E+02  0.96506532996E+02  0.00000000000E+00 0. -1.
    9000006    2    1    2  501    0  0.00000000000E+00  0.00000000000E+00  0.90349346700E+03  0.10965065330E+04  0.62131001278E+03 0.  0.
         13    1    3    3    0    0 -0.84831692636E+02 -0.19459773032E+03  0.85202417876E+03  0.87807169065E+03  0.00000000000E+00 0. -1.
          2    1    3    3  501    0  0.84831692636E+02  0.19459773032E+03  0.51469288240E+02  0.21843484235E+03  0.00000000000E+00 0. -1.
<mgrwt>
<rscale>  0 0.62131001E+03</rscale>
<asrwt>0</asrwt>
<pdfrwt beam="1">0</pdfrwt>
<pdfrwt beam="2">  1        2 0.35093359E+00 0.62131001E+03</pdfrwt>
<totfact> 0.60490165E+00</totfact>
</mgrwt>
</event>
<event>
 5    1  0.2343702E-004  0.6662390E+03  0.7818608E-02  0.9776776E-01
         13   -1    0    0    0    0  0.00000000000E+00  0.00000000000E+00  0.10000000000E+04  0.10000000000E+04  0.00000000000E+00 0. -1.
          2   -1    0    0  501    0 -0.00000000000E+00 -0.00000000000E+00 -0.11096858805E+03  0.11096858805E+03  0.00000000000E+00 0. -1.
    9000006    2    1    2  501    0  0.00000000000E+00  0.00000000000E+00  0.88903141195E+03  0.11109685880E+04  0.66623896027E+03 0.  0.
         13    1    3    3    0    0  0.10698087460E+03  0.79473188030E+02  0.95360930098E+03  0.96287672839E+03  0.00000000000E+00 0. -1.
          2    1    3    3  501    0 -0.10698087460E+03 -0.79473188030E+02 -0.64577889029E+02  0.14809185966E+03  0.00000000000E+00 0. -1.
<mgrwt>
<rscale>  0 0.66623896E+03</rscale>
<asrwt>0</asrwt>
<pdfrwt beam="1">0</pdfrwt>
<pdfrwt beam="2">  1        2 0.40352299E+00 0.66623896E+03</pdfrwt>
<totfact> 0.38583178E+00</totfact>
</mgrwt>
</event>
<event>
 5    1  0.2343702E-004  0.6515594E+03  0.7818608E-02  0.9803857E-01
         13   -1    0    0    0    0  0.00000000000E+00  0.00000000000E+00  0.10000000000E+04  0.10000000000E+04  0.00000000000E+00 0. -1.
          2   -1    0    0  501    0 -0.00000000000E+00 -0.00000000000E+00 -0.10613241553E+03  0.10613241553E+03  0.00000000000E+00 0. -1.
    9000006    2    1    2  501    0  0.00000000000E+00  0.00000000000E+00  0.89386758447E+03  0.11061324155E+04  0.65155940798E+03 0.  0.
         13    1    3    3    0    0  0.28753339495E+03  0.79418936853E+02  0.22461302573E+03  0.37340839850E+03  0.00000000000E+00 0. -1.
          2    1    3    3  501    0 -0.28753339495E+03 -0.79418936853E+02  0.66925455874E+03  0.73272401703E+03  0.00000000000E+00 0. -1.
<mgrwt>
<rscale>  0 0.65155941E+03</rscale>
<asrwt>0</asrwt>
<pdfrwt beam="1">0</pdfrwt>
<pdfrwt beam="2">  1        2 0.38593687E+00 0.65155941E+03</pdfrwt>
<totfact> 0.44934441E+00</totfact>
</mgrwt>
</event>
<event>
 5    1  0.2343702E-004  0.6391829E+03  0.7818608E-02  0.9827291E-01
         13   -1    0    0    0    0  0.00000000000E+00  0.00000000000E+00  0.10000000000E+04  0.10000000000E+04  0.00000000000E+00 0. -1.
          2   -1    0    0  501    0 -0.00000000000E+00 -0.00000000000E+00 -0.10213868590E+03  0.10213868590E+03  0.00000000000E+00 0. -1.
    9000006    2    1    2  501    0  0.00000000000E+00  0.00000000000E+00  0.89786131410E+03  0.11021386859E+04  0.63918287181E+03 0.  0.
         13    1    3    3    0    0 -0.64172769690E+02 -0.23198160767E+03  0.86397957392E+02  0.25573075237E+03  0.00000000000E+00 0. -1.
          2    1    3    3  501    0  0.64172769690E+02  0.23198160767E+03  0.81146335671E+03  0.84640793353E+03  0.00000000000E+00 0. -1.
<mgrwt>
<rscale>  0 0.63918287E+03</rscale>
<asrwt>0</asrwt>
<pdfrwt beam="1">0</pdfrwt>
<pdfrwt beam="2">  1        2 0.37141419E+00 0.63918287E+03</pdfrwt>
<totfact> 0.50877770E+00</totfact>
</mgrwt>
</event>
<event>
 5    1  0.2343702E-004  0.6594241E+03  0.7818608E-02  0.9789255E-01
         13   -1    0    0    0    0  0.00000000000E+00  0.00000000000E+00  0.10000000000E+04  0.10000000000E+04  0.00000000000E+00 0. -1.
          2   -1    0    0  501    0 -0.00000000000E+00 -0.00000000000E+00 -0.10871001955E+03  0.10871001955E+03  0.00000000000E+00 0. -1.
    9000006    2    1    2  501    0  0.00000000000E+00  0.00000000000E+00  0.89128998045E+03  0.11087100195E+04  0.65942405036E+03 0.  0.
         13    1    3    3    0    0 -0.79896841998E+02 -0.31796670556E+03  0.50446005783E+03  0.60163633629E+03  0.00000000000E+00 0. -1.
          2    1    3    3  501    0  0.79896841998E+02  0.31796670556E+03  0.38682992263E+03  0.50707368325E+03  0.00000000000E+00 0. -1.
<mgrwt>
<rscale>  0 0.65942405E+03</rscale>
<asrwt>0</asrwt>
<pdfrwt beam="1">0</pdfrwt>
<pdfrwt beam="2">  1        2 0.39531000E+00 0.65942405E+03</pdfrwt>
<totfact> 0.41440874E+00</totfact>
</mgrwt>
</event>
<event>
 5    1  0.2343702E-004  0.6397795E+03  0.7818608E-02  0.9826149E-01
         13   -1    0    0    0    0  0.00000000000E+00  0.00000000000E+00  0.10000000000E+04  0.10000000000E+04  0.00000000000E+00 0. -1.
          2   -1    0    0  501    0 -0.00000000000E+00 -0.00000000000E+00 -0.10232944495E+03  0.10232944495E+03  0.00000000000E+00 0. -1.
    9000006    2    1    2  501    0  0.00000000000E+00  0.00000000000E+00  0.89767055505E+03  0.11023294449E+04  0.63977947748E+03 0.  0.
         13    1    3    3    0    0 -0.30122944527E+03 -0.49145651603E+02  0.61387308970E+03  0.68556155378E+03  0.00000000000E+00 0. -1.
          2    1    3    3  501    0  0.30122944527E+03  0.49145651603E+02  0.28379746535E+03  0.41676789117E+03  0.00000000000E+00 0. -1.
<mgrwt>
<rscale>  0 0.63977948E+03</rscale>
<asrwt>0</asrwt>
<pdfrwt beam="1">0</pdfrwt>
<pdfrwt beam="2">  1        2 0.37210786E+00 0.63977948E+03</pdfrwt>
<totfact> 0.50578316E+00</totfact>
</mgrwt>
</event>
<event>
 5    1  0.2343702E-004  0.6507251E+03  0.7818608E-02  0.9805420E-01
         13   -1    0    0    0    0  0.00000000000E+00  0.00000000000E+00  0.10000000000E+04  0.10000000000E+04  0.00000000000E+00 0. -1.
          2   -1    0    0  501    0 -0.00000000000E+00 -0.00000000000E+00 -0.10586079415E+03  0.10586079415E+03  0.00000000000E+00 0. -1.
    9000006    2    1    2  501    0  0.00000000000E+00  0.00000000000E+00  0.89413920585E+03  0.11058607942E+04  0.65072511601E+03 0.  0.
         13    1    3    3    0    0  0.25315040105E+03 -0.15425469902E+03  0.67495248402E+03  0.73718416519E+03  0.00000000000E+00 0. -1.
          2    1    3    3  501    0 -0.25315040105E+03  0.15425469902E+03  0.21918672183E+03  0.36867662897E+03  0.00000000000E+00 0. -1.
<mgrwt>
<rscale>  0 0.65072512E+03</rscale>
<asrwt>0</asrwt>
<pdfrwt beam="1">0</pdfrwt>
<pdfrwt beam="2">  1        2 0.38494915E+00 0.65072512E+03</pdfrwt>
<totfact> 0.45317681E+00</totfact>
</mgrwt>
</event>
<event>
 5    1  0.2343702E-004  0.6636048E+03  0.7818608E-02  0.9781580E-01
         13   -1    0    0    0    0  0.00000000000E+00  0.00000000000E+00  0.10000000000E+04  0.10000000000E+04  0.00000000000E+00 0. -1.
          2   -1    0    0  501    0 -0.00000000000E+00 -0.00000000000E+00 -0.11009281919E+03  0.11009281919E+03  0.00000000000E+00 0. -1.
    9000006    2    1    2  501    0  0.00000000000E+00  0.00000000000E+00  0.88990718081E+03  0.11100928192E+04  0.66360475944E+03 0.  0.
         13    1    3    3    0    0  0.19534860149E+03  0.13650008929E+03  0.83115267601E+03  0.86464334921E+03  0.00000000000E+00 0. -1.
          4    1    3    3  501    0 -0.19534860149E+03 -0.13650008929E+03  0.58754504798E+02  0.24544946998E+03  0.00000000000E+00 0. -1.
<mgrwt>
<rscale>  0 0.66360476E+03</rscale>
<asrwt>0</asrwt>
<pdfrwt beam="1">0</pdfrwt>
<pdfrwt beam="2">  1        2 0.40033837E+00 0.66360476E+03</pdfrwt>
<totfact> 0.39669543E+00</totfact>
</mgrwt>
</event>
<event>
 5    1  0.2343702E-004  0.6016816E+03  0.7818608E-02  0.9901923E-01
         13   -1    0    0    0    0  0.00000000000E+00  0.00000000000E+00  0.10000000000E+04  0.10000000000E+04  0.00000000000E+00 0. -1.
          2   -1    0    0  501    0 -0.00000000000E+00 -0.00000000000E+00 -0.90505187008E+02  0.90505187008E+02  0.00000000000E+00 0. -1.
    9000006    2    1    2  501    0  0.00000000000E+00  0.00000000000E+00  0.90949481299E+03  0.10905051870E+04  0.60168160021E+03 0.  0.
         13    1    3    3    0    0 -0.29947635054E+03  0.31743636056E+01  0.50629901428E+03  0.58824727197E+03  0.00000000000E+00 0. -1.
          2    1    3    3  501    0  0.29947635054E+03 -0.31743636056E+01  0.40319579871E+03  0.50225791503E+03  0.00000000000E+00 0. -1.
<mgrwt>
<rscale>  0 0.60168160E+03</rscale>
<asrwt>0</asrwt>
<pdfrwt beam="1">0</pdfrwt>
<pdfrwt beam="2">  1        2 0.32911046E+00 0.60168160E+03</pdfrwt>
<totfact> 0.72577708E+00</totfact>
</mgrwt>
</event>
<event>
 5    1  0.2343702E-004  0.6460550E+03  0.7818608E-02  0.9814210E-01
         13   -1    0    0    0    0  0.00000000000E+00  0.00000000000E+00  0.10000000000E+04  0.10000000000E+04  0.00000000000E+00 0. -1.
          2   -1    0    0  501    0 -0.00000000000E+00 -0.00000000000E+00 -0.10434677431E+03  0.10434677431E+03  0.00000000000E+00 0. -1.
    9000006    2    1    2  501    0  0.00000000000E+00  0.00000000000E+00  0.89565322569E+03  0.11043467743E+04  0.64605502649E+03 0.  0.
         13    1    3    3    0    0 -0.22117721387E+03 -0.81120241671E+02  0.82562017507E+03  0.85857354200E+03  0.00000000000E+00 0. -1.
          4    1    3    3  501    0  0.22117721387E+03  0.81120241671E+02  0.70033050620E+02  0.24577323232E+03  0.00000000000E+00 0. -1.
<mgrwt>
<rscale>  0 0.64605503E+03</rscale>
<asrwt>0</asrwt>
<pdfrwt beam="1">0</pdfrwt>
<pdfrwt beam="2">  1        2 0.37944362E+00 0.64605503E+03</pdfrwt>
<totfact> 0.47508765E+00</totfact>
</mgrwt>
</event>
<event>
 5    1  0.2343702E-004  0.6406583E+03  0.7818608E-02  0.9824468E-01
         13   -1    0    0    0    0  0.00000000000E+00  0.00000000000E+00  0.10000000000E+04  0.10000000000E+04  0.00000000000E+00 0. -1.
          2   -1    0    0  501    0 -0.00000000000E+00 -0.00000000000E+00 -0.10261076953E+03  0.10261076953E+03  0.00000000000E+00 0. -1.
    9000006    2    1    2  501    0  0.00000000000E+00  0.00000000000E+00  0.89738923047E+03  0.11026107695E+04  0.64065831621E+03 0.  0.
         13    1    3    3    0    0  0.30012589236E+03 -0.18801435983E+00  0.64138546855E+03  0.70813198338E+03  0.00000000000E+00 0. -1.
          2    1    3    3  501    0 -0.30012589236E+03  0.18801435983E+00  0.25600376191E+03  0.39447878615E+03  0.00000000000E+00 0. -1.
<mgrwt>
<rscale>  0 0.64065832E+03</rscale>
<asrwt>0</asrwt>
<pdfrwt beam="1">0</pdfrwt>
<pdfrwt beam="2">  1        2 0.37313086E+00 0.64065832E+03</pdfrwt>
<totfact> 0.50139635E+00</totfact>
</mgrwt>
</event>
<event>
 5    1  0.2343702E-004  0.6409812E+03  0.7818608E-02  0.9823851E-01
         13   -1    0    0    0    0  0.00000000000E+00  0.00000000000E+00  0.10000000000E+04  0.10000000000E+04  0.00000000000E+00 0. -1.
          2   -1    0    0  501    0 -0.00000000000E+00 -0.00000000000E+00 -0.10271423511E+03  0.10271423511E+03  0.00000000000E+00 0. -1.
    9000006    2    1    2  501    0  0.00000000000E+00  0.00000000000E+00  0.89728576489E+03  0.11027142351E+04  0.64098123252E+03 0.  0.
         13    1    3    3    0    0  0.30911626821E+03 -0.71002967083E+02  0.52785290151E+03  0.61581082667E+03  0.00000000000E+00 0. -1.
          4    1    3    3  501    0 -0.30911626821E+03  0.71002967083E+02  0.36943286338E+03  0.48690340844E+03  0.00000000000E+00 0. -1.
<mgrwt>
<rscale>  0 0.64098123E+03</rscale>
<asrwt>0</asrwt>
<pdfrwt beam="1">0</pdfrwt>
<pdfrwt beam="2">  1        2 0.37350710E+00 0.64098123E+03</pdfrwt>
<totfact> 0.49979175E+00</totfact>
</mgrwt>
</event>
<event>
 5    1  0.2343702E-004  0.6431304E+03  0.7818608E-02  0.9819756E-01
         13   -1    0    0    0    0  0.00000000000E+00  0.00000000000E+00  0.10000000000E+04  0.10000000000E+04  0.00000000000E+00 0. -1.
          2   -1    0    0  501    0 -0.00000000000E+00 -0.00000000000E+00 -0.10340418131E+03  0.10340418131E+03  0.00000000000E+00 0. -1.
    9000006    2    1    2  501    0  0.00000000000E+00  0.00000000000E+00  0.89659581869E+03  0.11034041813E+04  0.64313041074E+03 0.  0.
         13    1    3    3    0    0  0.42572053793E+02 -0.13987866263E+03  0.93967025900E+03  0.95097771566E+03  0.00000000000E+00 0. -1.
          2    1    3    3  501    0 -0.42572053793E+02  0.13987866263E+03 -0.43074440308E+02  0.15242646565E+03  0.00000000000E+00 0. -1.
<mgrwt>
<rscale>  0 0.64313041E+03</rscale>
<asrwt>0</asrwt>
<pdfrwt beam="1">0</pdfrwt>
<pdfrwt beam="2">  1        2 0.37601600E+00 0.64313041E+03</pdfrwt>
<totfact> 0.48921126E+00</totfact>
</mgrwt>
</event>
<event>
 5    1  0.2343702E-004  0.6441116E+03  0.7818608E-02  0.9817891E-01
         13   -1    0    0    0    0  0.00000000000E+00  0.00000000000E+00  0.10000000000E+04  0.10000000000E+04  0.00000000000E+00 0. -1.
          2   -1    0    0  501    0 -0.00000000000E+00 -0.00000000000E+00 -0.10371994809E+03  0.10371994809E+03  0.00000000000E+00 0. -1.
    9000006    2    1    2  501    0  0.00000000000E+00  0.00000000000E+00  0.89628005191E+03  0.11037199481E+04  0.64411163034E+03 0.  0.
         13    1    3    3    0    0  0.10870700152E+03  0.97211557166E+02  0.94017962676E+03  0.95142263459E+03  0.00000000000E+00 0. -1.
          2    1    3    3  501    0 -0.10870700152E+03 -0.97211557166E+02 -0.43899574848E+02  0.15229731350E+03  0.00000000000E+00 0. -1.
<mgrwt>
<rscale>  0 0.64411163E+03</rscale>
<asrwt>0</asrwt>
<pdfrwt beam="1">0</pdfrwt>
<pdfrwt beam="2">  1        2 0.37716424E+00 0.64411163E+03</pdfrwt>
<totfact> 0.48443780E+00</totfact>
</mgrwt>
</event>
<event>
 5    1  0.2343702E-004  0.6510715E+03  0.7818608E-02  0.9804771E-01
         13   -1    0    0    0    0  0.00000000000E+00  0.00000000000E+00  0.10000000000E+04  0.10000000000E+04  0.00000000000E+00 0. -1.
          2   -1    0    0  501    0 -0.00000000000E+00 -0.00000000000E+00 -0.10597351806E+03  0.10597351806E+03  0.00000000000E+00 0. -1.
    9000006    2    1    2  501    0  0.00000000000E+00  0.00000000000E+00  0.89402648194E+03  0.11059735181E+04  0.65107148014E+03 0.  0.
         13    1    3    3    0    0  0.17292634750E+03 -0.80657473901E+02 -0.10192185291E+01  0.19081453970E+03  0.00000000000E+00 0. -1.
          4    1    3    3  501    0 -0.17292634750E+03  0.80657473901E+02  0.89504570047E+03  0.91515897836E+03  0.00000000000E+00 0. -1.
<mgrwt>
<rscale>  0 0.65107148E+03</rscale>
<asrwt>0</asrwt>
<pdfrwt beam="1">0</pdfrwt>
<pdfrwt beam="2">  1        2 0.38535906E+00 0.65107148E+03</pdfrwt>
<totfact> 0.45158277E+00</totfact>
</mgrwt>
</event>
<event>
 5    1  0.2343702E-004  0.6574394E+03  0.7818608E-02  0.9792919E-01
         13   -1    0    0    0    0  0.00000000000E+00  0.00000000000E+00  0.10000000000E+04  0.10000000000E+04  0.00000000000E+00 0. -1.
          2   -1    0    0  501    0 -0.00000000000E+00 -0.00000000000E+00 -0.10805663079E+03  0.10805663079E+03  0.00000000000E+00 0. -1.
    9000006    2    1    2  501    0  0.00000000000E+00  0.00000000000E+00  0.89194336921E+03  0.11080566308E+04  0.65743936843E+03 0.  0.
         13    1    3    3    0    0 -0.93006310607E+02  0.30292891998E+03  0.59329378126E+03  0.67261699001E+03  0.00000000000E+00 0. -1.
          2    1    3    3  501    0  0.93006310607E+02 -0.30292891998E+03  0.29864958795E+03  0.43543964078E+03  0.00000000000E+00 0. -1.
<mgrwt>
<rscale>  0 0.65743937E+03</rscale>
<asrwt>0</asrwt>
<pdfrwt beam="1">0</pdfrwt>
<pdfrwt beam="2">  1        2 0.39293403E+00 0.65743937E+03</pdfrwt>
<totfact> 0.42302388E+00</totfact>
</mgrwt>
</event>
<event>
 5    1  0.2343702E-004  0.6148287E+03  0.7818608E-02  0.9875110E-01
         13   -1    0    0    0    0  0.00000000000E+00  0.00000000000E+00  0.10000000000E+04  0.10000000000E+04  0.00000000000E+00 0. -1.
          2   -1    0    0  501    0 -0.00000000000E+00 -0.00000000000E+00 -0.94503579705E+02  0.94503579705E+02  0.00000000000E+00 0. -1.
    9000006    2    1    2  501    0  0.00000000000E+00  0.00000000000E+00  0.90549642029E+03  0.10945035797E+04  0.61482869063E+03 0.  0.
         13    1    3    3    0    0 -0.15214125794E+03 -0.64277783232E+02 -0.88120552761E+01  0.16539724333E+03  0.00000000000E+00 0. -1.
          4    1    3    3  501    0  0.15214125794E+03  0.64277783232E+02  0.91430847557E+03  0.92910633637E+03  0.00000000000E+00 0. -1.
<mgrwt>
<rscale>  0 0.61482869E+03</rscale>
<asrwt>0</asrwt>
<pdfrwt beam="1">0</pdfrwt>
<pdfrwt beam="2">  1        2 0.34365011E+00 0.61482869E+03</pdfrwt>
<totfact> 0.64296607E+00</totfact>
</mgrwt>
</event>
<event>
 5    1  0.2343702E-004  0.5883855E+03  0.7818608E-02  0.9929800E-01
         13   -1    0    0    0    0  0.00000000000E+00  0.00000000000E+00  0.10000000000E+04  0.10000000000E+04  0.00000000000E+00 0. -1.
          2   -1    0    0  501    0 -0.00000000000E+00 -0.00000000000E+00 -0.86549371530E+02  0.86549371530E+02  0.00000000000E+00 0. -1.
    9000006    2    1    2  501    0  0.00000000000E+00  0.00000000000E+00  0.91345062847E+03  0.10865493715E+04  0.58838549108E+03 0.  0.
         13    1    3    3    0    0  0.24287249488E+03 -0.98486692026E+01  0.15068411659E+03  0.28598906980E+03  0.00000000000E+00 0. -1.
          2    1    3    3  501    0 -0.24287249488E+03  0.98486692026E+01  0.76276651188E+03  0.80056030173E+03  0.00000000000E+00 0. -1.
<mgrwt>
<rscale>  0 0.58838549E+03</rscale>
<asrwt>0</asrwt>
<pdfrwt beam="1">0</pdfrwt>
<pdfrwt beam="2">  1        2 0.31472565E+00 0.58838549E+03</pdfrwt>
<totfact> 0.81764277E+00</totfact>
</mgrwt>
</event>
<event>
 5    1  0.2343702E-004  0.6515647E+03  0.7818608E-02  0.9803848E-01
         13   -1    0    0    0    0  0.00000000000E+00  0.00000000000E+00  0.10000000000E+04  0.10000000000E+04  0.00000000000E+00 0. -1.
          2   -1    0    0  501    0 -0.00000000000E+00 -0.00000000000E+00 -0.10613414655E+03  0.10613414655E+03  0.00000000000E+00 0. -1.
    9000006    2    1    2  501    0  0.00000000000E+00  0.00000000000E+00  0.89386585345E+03  0.11061341465E+04  0.65156472141E+03 0.  0.
         13    1    3    3    0    0  0.25616750977E+03 -0.26841666852E+02  0.78558010249E+03  0.82672750382E+03  0.00000000000E+00 0. -1.
          4    1    3    3  501    0 -0.25616750977E+03  0.26841666852E+02  0.10828575097E+03  0.27940664273E+03  0.00000000000E+00 0. -1.
<mgrwt>
<rscale>  0 0.65156472E+03</rscale>
<asrwt>0</asrwt>
<pdfrwt beam="1">0</pdfrwt>
<pdfrwt beam="2">  1        2 0.38594316E+00 0.65156472E+03</pdfrwt>
<totfact> 0.44932008E+00</totfact>
</mgrwt>
</event>
<event>
 5    1  0.2343702E-004  0.6543917E+03  0.7818608E-02  0.9798573E-01
         13   -1    0    0    0    0  0.00000000000E+00  0.00000000000E+00  0.10000000000E+04  0.10000000000E+04  0.00000000000E+00 0. -1.
          2   -1    0    0  501    0 -0.00000000000E+00 -0.00000000000E+00 -0.10705711117E+03  0.10705711117E+03  0.00000000000E+00 0. -1.
    9000006    2    1    2  501    0  0.00000000000E+00  0.00000000000E+00  0.89294288883E+03  0.11070571112E+04  0.65439166000E+03 0.  0.
         13    1    3    3    0    0  0.15939483681E+03  0.16757629236E+02  0.92904476147E+03  0.94276810561E+03  0.00000000000E+00 0. -1.
          4    1    3    3  501    0 -0.15939483681E+03 -0.16757629236E+02 -0.36101872640E+02  0.16428900556E+03  0.00000000000E+00 0. -1.
<mgrwt>
<rscale>  0 0.65439166E+03</rscale>
<asrwt>0</asrwt>
<pdfrwt beam="1">0</pdfrwt>
<pdfrwt beam="2">  1        2 0.38929941E+00 0.65439166E+03</pdfrwt>
<totfact> 0.43651656E+00</totfact>
</mgrwt>
</event>
<event>
 5    1  0.2343702E-004  0.6510805E+03  0.7818608E-02  0.9804754E-01
         13   -1    0    0    0    0  0.00000000000E+00  0.00000000000E+00  0.10000000000E+04  0.10000000000E+04  0.00000000000E+00 0. -1.
          2   -1    0    0  501    0 -0.00000000000E+00 -0.00000000000E+00 -0.10597644527E+03  0.10597644527E+03  0.00000000000E+00 0. -1.
    9000006    2    1    2  501    0  0.00000000000E+00  0.00000000000E+00  0.89402355473E+03  0.11059764453E+04  0.65108047206E+03 0.  0.
         13    1    3    3    0    0  0.55319560299E+02  0.32029088417E+03  0.47786704927E+03  0.57793029079E+03  0.00000000000E+00 0. -1.
          4    1    3    3  501    0 -0.55319560299E+02 -0.32029088417E+03  0.41615650545E+03  0.52804615448E+03  0.00000000000E+00 0. -1.
<mgrwt>
<rscale>  0 0.65108047E+03</rscale>
<asrwt>0</asrwt>
<pdfrwt beam="1">0</pdfrwt>
<pdfrwt beam="2">  1        2 0.38536970E+00 0.65108047E+03</pdfrwt>
<totfact> 0.45154144E+00</totfact>
</mgrwt>
</event>
<event>
 5    1  0.2343702E-004  0.6552042E+03  0.7818608E-02  0.9797063E-01
         13   -1    0    0    0    0  0.00000000000E+00  0.00000000000E+00  0.10000000000E+04  0.10000000000E+04  0.00000000000E+00 0. -1.
          2   -1    0    0  501    0 -0.00000000000E+00 -0.00000000000E+00 -0.10732314852E+03  0.10732314852E+03  0.00000000000E+00 0. -1.
    9000006    2    1    2  501    0  0.00000000000E+00  0.00000000000E+00  0.89267685148E+03  0.11073231485E+04  0.65520423846E+03 0.  0.
         13    1    3    3    0    0 -0.64782883792E+02 -0.44800628304E+02 -0.91082481943E+02  0.12041568355E+03  0.00000000000E+00 0. -1.
          4    1    3    3  501    0  0.64782883792E+02  0.44800628304E+02  0.98375933342E+03  0.98690746497E+03  0.00000000000E+00 0. -1.
<mgrwt>
<rscale>  0 0.65520424E+03</rscale>
<asrwt>0</asrwt>
<pdfrwt beam="1">0</pdfrwt>
<pdfrwt beam="2">  1        2 0.39026682E+00 0.65520424E+03</pdfrwt>
<totfact> 0.43288783E+00</totfact>
</mgrwt>
</event>
<event>
 5    1  0.2343702E-004  0.6597341E+03  0.7818608E-02  0.9788683E-01
         13   -1    0    0    0    0  0.00000000000E+00  0.00000000000E+00  0.10000000000E+04  0.10000000000E+04  0.00000000000E+00 0. -1.
          2   -1    0    0  501    0 -0.00000000000E+00 -0.00000000000E+00 -0.10881226920E+03  0.10881226920E+03  0.00000000000E+00 0. -1.
    9000006    2    1    2  501    0  0.00000000000E+00  0.00000000000E+00  0.89118773080E+03  0.11088122692E+04  0.65973409554E+03 0.  0.
         13    1    3    3    0    0  0.23787579415E+03  0.29861666581E+02  0.82639536873E+03  0.86046842942E+03  0.00000000000E+00 0. -1.
          4    1    3    3  501    0 -0.23787579415E+03 -0.29861666581E+02  0.64792362066E+02  0.24834383978E+03  0.00000000000E+00 0. -1.
<mgrwt>
<rscale>  0 0.65973410E+03</rscale>
<asrwt>0</asrwt>
<pdfrwt beam="1">0</pdfrwt>
<pdfrwt beam="2">  1        2 0.39568181E+00 0.65973410E+03</pdfrwt>
<totfact> 0.41307499E+00</totfact>
</mgrwt>
</event>
<event>
 5    1  0.2343702E-004  0.6054296E+03  0.7818608E-02  0.9894205E-01
         13   -1    0    0    0    0  0.00000000000E+00  0.00000000000E+00  0.10000000000E+04  0.10000000000E+04  0.00000000000E+00 0. -1.
          2   -1    0    0  501    0 -0.00000000000E+00 -0.00000000000E+00 -0.91636257110E+02  0.91636257110E+02  0.00000000000E+00 0. -1.
    9000006    2    1    2  501    0  0.00000000000E+00  0.00000000000E+00  0.90836374289E+03  0.10916362571E+04  0.60542962303E+03 0.  0.
         13    1    3    3    0    0 -0.68762521763E+02  0.16214985153E+03  0.89810294984E+03  0.91521023118E+03  0.00000000000E+00 0. -1.
          4    1    3    3  501    0  0.68762521763E+02 -0.16214985153E+03  0.10260793050E+02  0.17642602593E+03  0.00000000000E+00 0. -1.
<mgrwt>
<rscale>  0 0.60542962E+03</rscale>
<asrwt>0</asrwt>
<pdfrwt beam="1">0</pdfrwt>
<pdfrwt beam="2">  1        2 0.33322346E+00 0.60542962E+03</pdfrwt>
<totfact> 0.70138319E+00</totfact>
</mgrwt>
</event>
<event>
 5    1  0.2343702E-004  0.6324247E+03  0.7818608E-02  0.9840329E-01
         13   -1    0    0    0    0  0.00000000000E+00  0.00000000000E+00  0.10000000000E+04  0.10000000000E+04  0.00000000000E+00 0. -1.
          2   -1    0    0  501    0 -0.00000000000E+00 -0.00000000000E+00 -0.99990237051E+02  0.99990237051E+02  0.00000000000E+00 0. -1.
    9000006    2    1    2  501    0  0.00000000000E+00  0.00000000000E+00  0.90000976295E+03  0.10999902371E+04  0.63242465812E+03 0.  0.
         13    1    3    3    0    0 -0.17715663226E+03 -0.70262258882E+02  0.88888305313E+03  0.90908434126E+03  0.00000000000E+00 0. -1.
          4    1    3    3  501    0  0.17715663226E+03  0.70262258882E+02  0.11126709817E+02  0.19090589579E+03  0.00000000000E+00 0. -1.
<mgrwt>
<rscale>  0 0.63242466E+03</rscale>
<asrwt>0</asrwt>
<pdfrwt beam="1">0</pdfrwt>
<pdfrwt beam="2">  1        2 0.36360163E+00 0.63242466E+03</pdfrwt>
<totfact> 0.54364564E+00</totfact>
</mgrwt>
</event>
<event>
 5    1  0.2343702E-004  0.6496686E+03  0.7818608E-02  0.9807401E-01
         13   -1    0    0    0    0  0.00000000000E+00  0.00000000000E+00  0.10000000000E+04  0.10000000000E+04  0.00000000000E+00 0. -1.
          2   -1    0    0  501    0 -0.00000000000E+00 -0.00000000000E+00 -0.10551732781E+03  0.10551732781E+03  0.00000000000E+00 0. -1.
    9000006    2    1    2  501    0  0.00000000000E+00  0.00000000000E+00  0.89448267219E+03  0.11055173278E+04  0.64966861649E+03 0.  0.
         13    1    3    3    0    0  0.31329819736E+03  0.37322671713E+02  0.31577656885E+03  0.44638949777E+03  0.00000000000E+00 0. -1.
          4    1    3    3  501    0 -0.31329819736E+03 -0.37322671713E+02  0.57870610334E+03  0.65912783004E+03  0.00000000000E+00 0. -1.
<mgrwt>
<rscale>  0 0.64966862E+03</rscale>
<asrwt>0</asrwt>
<pdfrwt beam="1">0</pdfrwt>
<pdfrwt beam="2">  1        2 0.38370018E+00 0.64966862E+03</pdfrwt>
<totfact> 0.45806534E+00</totfact>
</mgrwt>
</event>
<event>
 5    1  0.2343702E-004  0.6436876E+03  0.7818608E-02  0.9818697E-01
         13   -1    0    0    0    0  0.00000000000E+00  0.00000000000E+00  0.10000000000E+04  0.10000000000E+04  0.00000000000E+00 0. -1.
          2   -1    0    0  501    0 -0.00000000000E+00 -0.00000000000E+00 -0.10358342516E+03  0.10358342516E+03  0.00000000000E+00 0. -1.
    9000006    2    1    2  501    0  0.00000000000E+00  0.00000000000E+00  0.89641657484E+03  0.11035834252E+04  0.64368758000E+03 0.  0.
         13    1    3    3    0    0  0.19571773856E+03  0.10876647735E+03  0.84457314378E+03  0.87375017882E+03  0.00000000000E+00 0. -1.
          4    1    3    3  501    0 -0.19571773856E+03 -0.10876647735E+03  0.51843431054E+02  0.22983324635E+03  0.00000000000E+00 0. -1.
<mgrwt>
<rscale>  0 0.64368758E+03</rscale>
<asrwt>0</asrwt>
<pdfrwt beam="1">0</pdfrwt>
<pdfrwt beam="2">  1        2 0.37666779E+00 0.64368758E+03</pdfrwt>
<totfact> 0.48649638E+00</totfact>
</mgrwt>
</event>
<event>
 5    1  0.2343702E-004  0.6587635E+03  0.7818608E-02  0.9790473E-01
         13   -1    0    0    0    0  0.00000000000E+00  0.00000000000E+00  0.10000000000E+04  0.10000000000E+04  0.00000000000E+00 0. -1.
          2   -1    0    0  501    0 -0.00000000000E+00 -0.00000000000E+00 -0.10849233742E+03  0.10849233742E+03  0.00000000000E+00 0. -1.
    9000006    2    1    2  501    0  0.00000000000E+00  0.00000000000E+00  0.89150766258E+03  0.11084923374E+04  0.65876350056E+03 0.  0.
         13    1    3    3    0    0 -0.57495863351E+02 -0.31939658517E+03  0.35097833311E+03  0.47802274343E+03  0.00000000000E+00 0. -1.
          2    1    3    3  501    0  0.57495863351E+02  0.31939658517E+03  0.54052932948E+03  0.63046959399E+03  0.00000000000E+00 0. -1.
<mgrwt>
<rscale>  0 0.65876350E+03</rscale>
<asrwt>0</asrwt>
<pdfrwt beam="1">0</pdfrwt>
<pdfrwt beam="2">  1        2 0.39451842E+00 0.65876350E+03</pdfrwt>
<totfact> 0.41726112E+00</totfact>
</mgrwt>
</event>
<event>
 5    1  0.2343702E-004  0.6617603E+03  0.7818608E-02  0.9784959E-01
         13   -1    0    0    0    0  0.00000000000E+00  0.00000000000E+00  0.10000000000E+04  0.10000000000E+04  0.00000000000E+00 0. -1.
          2   -1    0    0  501    0 -0.00000000000E+00 -0.00000000000E+00 -0.10948167330E+03  0.10948167330E+03  0.00000000000E+00 0. -1.
    9000006    2    1    2  501    0  0.00000000000E+00  0.00000000000E+00  0.89051832670E+03  0.11094816733E+04  0.66176029891E+03 0.  0.
         13    1    3    3    0    0 -0.18264349195E+03 -0.16117824416E+03  0.82069136235E+03  0.85607907566E+03  0.00000000000E+00 0. -1.
          2    1    3    3  501    0  0.18264349195E+03  0.16117824416E+03  0.69826964343E+02  0.25340259764E+03  0.00000000000E+00 0. -1.
<mgrwt>
<rscale>  0 0.66176030E+03</rscale>
<asrwt>0</asrwt>
<pdfrwt beam="1">0</pdfrwt>
<pdfrwt beam="2">  1        2 0.39811602E+00 0.66176030E+03</pdfrwt>
<totfact> 0.40443831E+00</totfact>
</mgrwt>
</event>
<event>
 5    1  0.2343702E-004  0.6485797E+03  0.7818608E-02  0.9809448E-01
         13   -1    0    0    0    0  0.00000000000E+00  0.00000000000E+00  0.10000000000E+04  0.10000000000E+04  0.00000000000E+00 0. -1.
          2   -1    0    0  501    0 -0.00000000000E+00 -0.00000000000E+00 -0.10516390168E+03  0.10516390168E+03  0.00000000000E+00 0. -1.
    9000006    2    1    2  501    0  0.00000000000E+00  0.00000000000E+00  0.89483609832E+03  0.11051639017E+04  0.64857968417E+03 0.  0.
         13    1    3    3    0    0 -0.14532220023E+03  0.13169710238E+03  0.88749668044E+03  0.90890760061E+03  0.00000000000E+00 0. -1.
          4    1    3    3  501    0  0.14532220023E+03 -0.13169710238E+03  0.73394178786E+01  0.19625630107E+03  0.00000000000E+00 0. -1.
<mgrwt>
<rscale>  0 0.64857968E+03</rscale>
<asrwt>0</asrwt>
<pdfrwt beam="1">0</pdfrwt>
<pdfrwt beam="2">  1        2 0.38241499E+00 0.64857968E+03</pdfrwt>
<totfact> 0.46314553E+00</totfact>
</mgrwt>
</event>
<event>
 5    1  0.2343702E-004  0.6577528E+03  0.7818608E-02  0.9792339E-01
         13   -1    0    0    0    0  0.00000000000E+00  0.00000000000E+00  0.10000000000E+04  0.10000000000E+04  0.00000000000E+00 0. -1.
          2   -1    0    0  501    0 -0.00000000000E+00 -0.00000000000E+00 -0.10815969893E+03  0.10815969893E+03  0.00000000000E+00 0. -1.
    9000006    2    1    2  501    0  0.00000000000E+00  0.00000000000E+00  0.89184030107E+03  0.11081596989E+04  0.65775283788E+03 0.  0.
         13    1    3    3    0    0  0.29261261357E+02  0.15577733001E+03 -0.39564146889E+02  0.16336498915E+03  0.00000000000E+00 0. -1.
          4    1    3    3  501    0 -0.29261261357E+02 -0.15577733001E+03  0.93140444796E+03  0.94479470978E+03  0.00000000000E+00 0. -1.
<mgrwt>
<rscale>  0 0.65775284E+03</rscale>
<asrwt>0</asrwt>
<pdfrwt beam="1">0</pdfrwt>
<pdfrwt beam="2">  1        2 0.39330883E+00 0.65775284E+03</pdfrwt>
<totfact> 0.42165418E+00</totfact>
</mgrwt>
</event>
<event>
 5    1  0.2343702E-004  0.6466694E+03  0.7818608E-02  0.9813049E-01
         13   -1    0    0    0    0  0.00000000000E+00  0.00000000000E+00  0.10000000000E+04  0.10000000000E+04  0.00000000000E+00 0. -1.
          2   -1    0    0  501    0 -0.00000000000E+00 -0.00000000000E+00 -0.10454533225E+03  0.10454533225E+03  0.00000000000E+00 0. -1.
    9000006    2    1    2  501    0  0.00000000000E+00  0.00000000000E+00  0.89545466775E+03  0.11045453322E+04  0.64666941245E+03 0.  0.
         13    1    3    3    0    0  0.14827361352E+03  0.57895632382E+00 -0.43051574502E+02  0.15439830868E+03  0.00000000000E+00 0. -1.
          4    1    3    3  501    0 -0.14827361352E+03 -0.57895632382E+00  0.93850624225E+03  0.95014702357E+03  0.00000000000E+00 0. -1.
<mgrwt>
<rscale>  0 0.64666941E+03</rscale>
<asrwt>0</asrwt>
<pdfrwt beam="1">0</pdfrwt>
<pdfrwt beam="2">  1        2 0.38016565E+00 0.64666941E+03</pdfrwt>
<totfact> 0.47216029E+00</totfact>
</mgrwt>
</event>
<event>
 5    1  0.2343702E-004  0.6472490E+03  0.7818608E-02  0.9811955E-01
         13   -1    0    0    0    0  0.00000000000E+00  0.00000000000E+00  0.10000000000E+04  0.10000000000E+04  0.00000000000E+00 0. -1.
          2   -1    0    0  501    0 -0.00000000000E+00 -0.00000000000E+00 -0.10473280415E+03  0.10473280415E+03  0.00000000000E+00 0. -1.
    9000006    2    1    2  501    0  0.00000000000E+00  0.00000000000E+00  0.89526719585E+03  0.11047328041E+04  0.64724896028E+03 0.  0.
         13    1    3    3    0    0  0.31151005608E+03  0.51725432678E+02  0.32671740075E+03  0.45437682091E+03  0.00000000000E+00 0. -1.
          2    1    3    3  501    0 -0.31151005608E+03 -0.51725432678E+02  0.56854979510E+03  0.65035598324E+03  0.00000000000E+00 0. -1.
<mgrwt>
<rscale>  0 0.64724896E+03</rscale>
<asrwt>0</asrwt>
<pdfrwt beam="1">0</pdfrwt>
<pdfrwt beam="2">  1        2 0.38084736E+00 0.64724896E+03</pdfrwt>
<totfact> 0.46941145E+00</totfact>
</mgrwt>
</event>
<event>
 5    1  0.2343702E-004  0.6505165E+03  0.7818608E-02  0.9805811E-01
         13   -1    0    0    0    0  0.00000000000E+00  0.00000000000E+00  0.10000000000E+04  0.10000000000E+04  0.00000000000E+00 0. -1.
          2   -1    0    0  501    0 -0.00000000000E+00 -0.00000000000E+00 -0.10579292328E+03  0.10579292328E+03  0.00000000000E+00 0. -1.
    9000006    2    1    2  501    0  0.00000000000E+00  0.00000000000E+00  0.89420707672E+03  0.11057929233E+04  0.65051648183E+03 0.  0.
         13    1    3    3    0    0  0.85159503299E+02  0.30711091722E+03  0.33662947533E+03  0.46356084837E+03  0.00000000000E+00 0. -1.
          4    1    3    3  501    0 -0.85159503299E+02 -0.30711091722E+03  0.55757760138E+03  0.64223207491E+03  0.00000000000E+00 0. -1.
<mgrwt>
<rscale>  0 0.65051648E+03</rscale>
<asrwt>0</asrwt>
<pdfrwt beam="1">0</pdfrwt>
<pdfrwt beam="2">  1        2 0.38470235E+00 0.65051648E+03</pdfrwt>
<totfact> 0.45413904E+00</totfact>
</mgrwt>
</event>
<event>
 5    1  0.2343702E-004  0.6452264E+03  0.7818608E-02  0.9815778E-01
         13   -1    0    0    0    0  0.00000000000E+00  0.00000000000E+00  0.10000000000E+04  0.10000000000E+04  0.00000000000E+00 0. -1.
          2   -1    0    0  501    0 -0.00000000000E+00 -0.00000000000E+00 -0.10407927908E+03  0.10407927908E+03  0.00000000000E+00 0. -1.
    9000006    2    1    2  501    0  0.00000000000E+00  0.00000000000E+00  0.89592072092E+03  0.11040792791E+04  0.64522640701E+03 0.  0.
         13    1    3    3    0    0 -0.31279578279E+03  0.57076214735E+02  0.54137698455E+03  0.62784387823E+03  0.00000000000E+00 0. -1.
          4    1    3    3  501    0  0.31279578279E+03 -0.57076214735E+02  0.35454373637E+03  0.47623540085E+03  0.00000000000E+00 0. -1.
<mgrwt>
<rscale>  0 0.64522641E+03</rscale>
<asrwt>0</asrwt>
<pdfrwt beam="1">0</pdfrwt>
<pdfrwt beam="2">  1        2 0.37847090E+00 0.64522641E+03</pdfrwt>
<totfact> 0.47905748E+00</totfact>
</mgrwt>
</event>
<event>
 5    1  0.2343702E-004  0.6514795E+03  0.7818608E-02  0.9804007E-01
         13   -1    0    0    0    0  0.00000000000E+00  0.00000000000E+00  0.10000000000E+04  0.10000000000E+04  0.00000000000E+00 0. -1.
          2   -1    0    0  501    0 -0.00000000000E+00 -0.00000000000E+00 -0.10610639596E+03  0.10610639596E+03  0.00000000000E+00 0. -1.
    9000006    2    1    2  501    0  0.00000000000E+00  0.00000000000E+00  0.89389360404E+03  0.11061063960E+04  0.65147953449E+03 0.  0.
         13    1    3    3    0    0 -0.32204432834E+03  0.41849455275E+01  0.52971238060E+03  0.61993973042E+03  0.00000000000E+00 0. -1.
          4    1    3    3  501    0  0.32204432834E+03 -0.41849455275E+01  0.36418122344E+03  0.48616666555E+03  0.00000000000E+00 0. -1.
<mgrwt>
<rscale>  0 0.65147953E+03</rscale>
<asrwt>0</asrwt>
<pdfrwt beam="1">0</pdfrwt>
<pdfrwt beam="2">  1        2 0.38584225E+00 0.65147953E+03</pdfrwt>
<totfact> 0.44971025E+00</totfact>
</mgrwt>
</event>
<event>
 5    1  0.2343702E-004  0.6498983E+03  0.7818608E-02  0.9806970E-01
         13   -1    0    0    0    0  0.00000000000E+00  0.00000000000E+00  0.10000000000E+04  0.10000000000E+04  0.00000000000E+00 0. -1.
          2   -1    0    0  501    0 -0.00000000000E+00 -0.00000000000E+00 -0.10559193769E+03  0.10559193769E+03  0.00000000000E+00 0. -1.
    9000006    2    1    2  501    0  0.00000000000E+00  0.00000000000E+00  0.89440806231E+03  0.11055919377E+04  0.64989826185E+03 0.  0.
         13    1    3    3    0    0  0.86316764461E+02  0.28469938743E+03  0.66958119297E+03  0.73269591169E+03  0.00000000000E+00 0. -1.
          2    1    3    3  501    0 -0.86316764461E+02 -0.28469938743E+03  0.22482686934E+03  0.37289602600E+03  0.00000000000E+00 0. -1.
<mgrwt>
<rscale>  0 0.64989826E+03</rscale>
<asrwt>0</asrwt>
<pdfrwt beam="1">0</pdfrwt>
<pdfrwt beam="2">  1        2 0.38397149E+00 0.64989826E+03</pdfrwt>
<totfact> 0.45699937E+00</totfact>
</mgrwt>
</event>
<event>
 5    1  0.2343702E-004  0.6614195E+03  0.7818608E-02  0.9785584E-01
         13   -1    0    0    0    0  0.00000000000E+00  0.00000000000E+00  0.10000000000E+04  0.10000000000E+04  0.00000000000E+00 0. -1.
          2   -1    0    0  501    0 -0.00000000000E+00 -0.00000000000E+00 -0.10936895283E+03  0.10936895283E+03  0.00000000000E+00 0. -1.
    9000006    2    1    2  501    0  0.00000000000E+00  0.00000000000E+00  0.89063104717E+03  0.11093689528E+04  0.66141954260E+03 0.  0.
         13    1    3    3    0    0  0.31903657595E+02 -0.18265119071E+03  0.90461891678E+03  0.92342551699E+03  0.00000000000E+00 0. -1.
          2    1    3    3  501    0 -0.31903657595E+02  0.18265119071E+03 -0.13987869607E+02  0.18594343584E+03  0.00000000000E+00 0. -1.
<mgrwt>
<rscale>  0 0.66141954E+03</rscale>
<asrwt>0</asrwt>
<pdfrwt beam="1">0</pdfrwt>
<pdfrwt beam="2">  1        2 0.39770612E+00 0.66141954E+03</pdfrwt>
<totfact> 0.40588116E+00</totfact>
</mgrwt>
</event>
<event>
 5    1  0.2343702E-004  0.6536400E+03  0.7818608E-02  0.9799973E-01
         13   -1    0    0    0    0  0.00000000000E+00  0.00000000000E+00  0.10000000000E+04  0.10000000000E+04  0.00000000000E+00 0. -1.
          2   -1    0    0  501    0 -0.00000000000E+00 -0.00000000000E+00 -0.10681131660E+03  0.10681131660E+03  0.00000000000E+00 0. -1.
    9000006    2    1    2  501    0  0.00000000000E+00  0.00000000000E+00  0.89318868340E+03  0.11068113166E+04  0.65364001285E+03 0.  0.
         13    1    3    3    0    0  0.52901950127E+02  0.10038916240E+03 -0.72382555512E+02  0.13459507642E+03  0.00000000000E+00 0. -1.
          2    1    3    3  501    0 -0.52901950127E+02 -0.10038916240E+03  0.96557123891E+03  0.97221624018E+03  0.00000000000E+00 0. -1.
<mgrwt>
<rscale>  0 0.65364001E+03</rscale>
<asrwt>0</asrwt>
<pdfrwt beam="1">0</pdfrwt>
<pdfrwt beam="2">  1        2 0.38840561E+00 0.65364001E+03</pdfrwt>
<totfact> 0.43989360E+00</totfact>
</mgrwt>
</event>
<event>
 5    1  0.2343702E-004  0.6547800E+03  0.7818608E-02  0.9797851E-01
         13   -1    0    0    0    0  0.00000000000E+00  0.00000000000E+00  0.10000000000E+04  0.10000000000E+04  0.00000000000E+00 0. -1.
          2   -1    0    0  501    0 -0.00000000000E+00 -0.00000000000E+00 -0.10718422574E+03  0.10718422574E+03  0.00000000000E+00 0. -1.
    9000006    2    1    2  501    0  0.00000000000E+00  0.00000000000E+00  0.89281577426E+03  0.11071842257E+04  0.65478004167E+03 0.  0.
         13    1    3    3    0    0 -0.10651077080E+02  0.15742038185E+03 -0.38653765164E+02  0.16244610068E+03  0.00000000000E+00 0. -1.
          4    1    3    3  501    0  0.10651077080E+02 -0.15742038185E+03  0.93146953942E+03  0.94473812506E+03  0.00000000000E+00 0. -1.
<mgrwt>
<rscale>  0 0.65478004E+03</rscale>
<asrwt>0</asrwt>
<pdfrwt beam="1">0</pdfrwt>
<pdfrwt beam="2">  1        2 0.38976164E+00 0.65478004E+03</pdfrwt>
<totfact> 0.43477931E+00</totfact>
</mgrwt>
</event>
<event>
 5    1  0.2343702E-004  0.6622298E+03  0.7818608E-02  0.9784098E-01
         13   -1    0    0    0    0  0.00000000000E+00  0.00000000000E+00  0.10000000000E+04  0.10000000000E+04  0.00000000000E+00 0. -1.
          2   -1    0    0  501    0 -0.00000000000E+00 -0.00000000000E+00 -0.10963708564E+03  0.10963708564E+03  0.00000000000E+00 0. -1.
    9000006    2    1    2  501    0  0.00000000000E+00  0.00000000000E+00  0.89036291436E+03  0.11096370856E+04  0.66222982609E+03 0.  0.
         13    1    3    3    0    0 -0.28386040986E+03  0.23748800802E+02  0.72803838987E+03  0.78178042630E+03  0.00000000000E+00 0. -1.
          2    1    3    3  501    0  0.28386040986E+03 -0.23748800802E+02  0.16232452449E+03  0.32785665934E+03  0.00000000000E+00 0. -1.
<mgrwt>
<rscale>  0 0.66222983E+03</rscale>
<asrwt>0</asrwt>
<pdfrwt beam="1">0</pdfrwt>
<pdfrwt beam="2">  1        2 0.39868115E+00 0.66222983E+03</pdfrwt>
<totfact> 0.40245656E+00</totfact>
</mgrwt>
</event>
<event>
 5    1  0.2343702E-004  0.6491623E+03  0.7818608E-02  0.9808352E-01
         13   -1    0    0    0    0  0.00000000000E+00  0.00000000000E+00  0.10000000000E+04  0.10000000000E+04  0.00000000000E+00 0. -1.
          2   -1    0    0  501    0 -0.00000000000E+00 -0.00000000000E+00 -0.10535291868E+03  0.10535291868E+03  0.00000000000E+00 0. -1.
    9000006    2    1    2  501    0  0.00000000000E+00  0.00000000000E+00  0.89464708132E+03  0.11053529187E+04  0.64916228690E+03 0.  0.
         13    1    3    3    0    0 -0.16601447538E+03 -0.24396089770E+03  0.67750941409E+03  0.73898358021E+03  0.00000000000E+00 0. -1.
          2    1    3    3  501    0  0.16601447538E+03  0.24396089770E+03  0.21713766723E+03  0.36636933847E+03  0.00000000000E+00 0. -1.
<mgrwt>
<rscale>  0 0.64916229E+03</rscale>
<asrwt>0</asrwt>
<pdfrwt beam="1">0</pdfrwt>
<pdfrwt beam="2">  1        2 0.38310233E+00 0.64916229E+03</pdfrwt>
<totfact> 0.46042225E+00</totfact>
</mgrwt>
</event>
<event>
 5    1  0.2343702E-004  0.6611575E+03  0.7818608E-02  0.9786065E-01
         13   -1    0    0    0    0  0.00000000000E+00  0.00000000000E+00  0.10000000000E+04  0.10000000000E+04  0.00000000000E+00 0. -1.
          2   -1    0    0  501    0 -0.00000000000E+00 -0.00000000000E+00 -0.10928231547E+03  0.10928231547E+03  0.00000000000E+00 0. -1.
    9000006    2    1    2  501    0  0.00000000000E+00  0.00000000000E+00  0.89071768453E+03  0.11092823155E+04  0.66115751669E+03 0.  0.
         13    1    3    3    0    0 -0.15602346434E+03  0.25149921071E+03  0.19827843888E+03  0.35624361571E+03  0.00000000000E+00 0. -1.
          4    1    3    3  501    0  0.15602346434E+03 -0.25149921071E+03  0.69243924565E+03  0.75303869976E+03  0.00000000000E+00 0. -1.
<mgrwt>
<rscale>  0 0.66115752E+03</rscale>
<asrwt>0</asrwt>
<pdfrwt beam="1">0</pdfrwt>
<pdfrwt beam="2">  1        2 0.39739108E+00 0.66115752E+03</pdfrwt>
<totfact> 0.40699329E+00</totfact>
</mgrwt>
</event>
<event>
 5    1  0.2343702E-004  0.6538311E+03  0.7818608E-02  0.9799617E-01
         13   -1    0    0    0    0  0.00000000000E+00  0.00000000000E+00  0.10000000000E+04  0.10000000000E+04  0.00000000000E+00 0. -1.
          2   -1    0    0  501    0 -0.00000000000E+00 -0.00000000000E+00 -0.10687376391E+03  0.10687376391E+03  0.00000000000E+00 0. -1.
    9000006    2    1    2  501    0  0.00000000000E+00  0.00000000000E+00  0.89312623609E+03  0.11068737639E+04  0.65383106046E+03 0.  0.
         13    1    3    3    0    0  0.10037060720E+02  0.18324420485E+03  0.90457001199E+03  0.92299842242E+03  0.00000000000E+00 0. -1.
          4    1    3    3  501    0 -0.10037060720E+02 -0.18324420485E+03 -0.11443775895E+02  0.18387534149E+03  0.00000000000E+00 0. -1.
<mgrwt>
<rscale>  0 0.65383106E+03</rscale>
<asrwt>0</asrwt>
<pdfrwt beam="1">0</pdfrwt>
<pdfrwt beam="2">  1        2 0.38863269E+00 0.65383106E+03</pdfrwt>
<totfact> 0.43903339E+00</totfact>
</mgrwt>
</event>
<event>
 5    1  0.2343702E-004  0.6455407E+03  0.7818608E-02  0.9815183E-01
         13   -1    0    0    0    0  0.00000000000E+00  0.00000000000E+00  0.10000000000E+04  0.10000000000E+04  0.00000000000E+00 0. -1.
          4   -1    0    0  501    0 -0.00000000000E+00 -0.00000000000E+00 -0.10418070085E+03  0.10418070085E+03  0.00000000000E+00 0. -1.
    9000006    2    1    2  501    0  0.00000000000E+00  0.00000000000E+00  0.89581929915E+03  0.11041807009E+04  0.64554070623E+03 0.  0.
         13    1    3    3    0    0 -0.21543775854E+03 -0.73022716232E+01  0.36989991458E+02  0.21871216345E+03  0.00000000000E+00 0. -1.
          4    1    3    3  501    0  0.21543775854E+03  0.73022716232E+01  0.85882930769E+03  0.88546853740E+03  0.00000000000E+00 0. -1.
<mgrwt>
<rscale>  0 0.64554071E+03</rscale>
<asrwt>0</asrwt>
<pdfrwt beam="1">0</pdfrwt>
<pdfrwt beam="2">  1        4 0.37883971E+00 0.64554071E+03</pdfrwt>
<totfact> 0.44668200E-02</totfact>
</mgrwt>
</event>
<event>
 5    1  0.2343702E-004  0.6391628E+03  0.7818608E-02  0.9827330E-01
         13   -1    0    0    0    0  0.00000000000E+00  0.00000000000E+00  0.10000000000E+04  0.10000000000E+04  0.00000000000E+00 0. -1.
          2   -1    0    0  501    0 -0.00000000000E+00 -0.00000000000E+00 -0.10213226166E+03  0.10213226166E+03  0.00000000000E+00 0. -1.
    9000006    2    1    2  501    0  0.00000000000E+00  0.00000000000E+00  0.89786773834E+03  0.11021322617E+04  0.63916277008E+03 0.  0.
         13    1    3    3    0    0  0.37069275880E+02  0.21289112762E+03  0.42943040903E+02  0.22031992238E+03  0.00000000000E+00 0. -1.
          2    1    3    3  501    0 -0.37069275880E+02 -0.21289112762E+03  0.85492469743E+03  0.88181233929E+03  0.00000000000E+00 0. -1.
<mgrwt>
<rscale>  0 0.63916277E+03</rscale>
<asrwt>0</asrwt>
<pdfrwt beam="1">0</pdfrwt>
<pdfrwt beam="2">  1        2 0.37139083E+00 0.63916277E+03</pdfrwt>
<totfact> 0.50887883E+00</totfact>
</mgrwt>
</event>
<event>
 5    1  0.2343702E-004  0.6321125E+03  0.7818608E-02  0.9840935E-01
         13   -1    0    0    0    0  0.00000000000E+00  0.00000000000E+00  0.10000000000E+04  0.10000000000E+04  0.00000000000E+00 0. -1.
          2   -1    0    0  501    0 -0.00000000000E+00 -0.00000000000E+00 -0.99891563369E+02  0.99891563369E+02  0.00000000000E+00 0. -1.
    9000006    2    1    2  501    0  0.00000000000E+00  0.00000000000E+00  0.90010843663E+03  0.10998915634E+04  0.63211253229E+03 0.  0.
         13    1    3    3    0    0 -0.16833731488E+02 -0.12037469907E+03  0.95770666449E+03  0.96538878070E+03  0.00000000000E+00 0. -1.
          2    1    3    3  501    0  0.16833731488E+02  0.12037469907E+03 -0.57598227861E+02  0.13450278267E+03  0.00000000000E+00 0. -1.
<mgrwt>
<rscale>  0 0.63211253E+03</rscale>
<asrwt>0</asrwt>
<pdfrwt beam="1">0</pdfrwt>
<pdfrwt beam="2">  1        2 0.36324281E+00 0.63211253E+03</pdfrwt>
<totfact> 0.54529860E+00</totfact>
</mgrwt>
</event>
<event>
 5    1  0.2343702E-004  0.6625451E+03  0.7818608E-02  0.9783520E-01
         13   -1    0    0    0    0  0.00000000000E+00  0.00000000000E+00  0.10000000000E+04  0.10000000000E+04  0.00000000000E+00 0. -1.
          2   -1    0    0  501    0 -0.00000000000E+00 -0.00000000000E+00 -0.10974149646E+03  0.10974149646E+03  0.00000000000E+00 0. -1.
    9000006    2    1    2  501    0  0.00000000000E+00  0.00000000000E+00  0.89025850354E+03  0.11097414965E+04  0.66254508212E+03 0.  0.
         13    1    3    3    0    0  0.31643770654E+03 -0.73458293887E+02  0.55384165607E+03  0.64208217781E+03  0.00000000000E+00 0. -1.
          2    1    3    3  501    0 -0.31643770654E+03  0.73458293887E+02  0.33641684747E+03  0.46765931865E+03  0.00000000000E+00 0. -1.
<mgrwt>
<rscale>  0 0.66254508E+03</rscale>
<asrwt>0</asrwt>
<pdfrwt beam="1">0</pdfrwt>
<pdfrwt beam="2">  1        2 0.39906083E+00 0.66254508E+03</pdfrwt>
<totfact> 0.40113006E+00</totfact>
</mgrwt>
</event>
<event>
 5    1  0.2343702E-004  0.6547858E+03  0.7818608E-02  0.9797840E-01
         13   -1    0    0    0    0  0.00000000000E+00  0.00000000000E+00  0.10000000000E+04  0.10000000000E+04  0.00000000000E+00 0. -1.
          2   -1    0    0  501    0 -0.00000000000E+00 -0.00000000000E+00 -0.10718610422E+03  0.10718610422E+03  0.00000000000E+00 0. -1.
    9000006    2    1    2  501    0  0.00000000000E+00  0.00000000000E+00  0.89281389578E+03  0.11071861042E+04  0.65478577940E+03 0.  0.
         13    1    3    3    0    0  0.10513150874E+03 -0.86179669150E+02  0.95002257147E+03  0.95969914860E+03  0.00000000000E+00 0. -1.
          2    1    3    3  501    0 -0.10513150874E+03  0.86179669150E+02 -0.57208675700E+02  0.14748695563E+03  0.00000000000E+00 0. -1.
<mgrwt>
<rscale>  0 0.65478578E+03</rscale>
<asrwt>0</asrwt>
<pdfrwt beam="1">0</pdfrwt>
<pdfrwt beam="2">  1        2 0.38976847E+00 0.65478578E+03</pdfrwt>
<totfact> 0.43475369E+00</totfact>
</mgrwt>
</event>
<event>
 5    1  0.2343702E-004  0.5923285E+03  0.7818608E-02  0.9921451E-01
         13   -1    0    0    0    0  0.00000000000E+00  0.00000000000E+00  0.10000000000E+04  0.10000000000E+04  0.00000000000E+00 0. -1.
          2   -1    0    0  501    0 -0.00000000000E+00 -0.00000000000E+00 -0.87713253300E+02  0.87713253300E+02  0.00000000000E+00 0. -1.
    9000006    2    1    2  501    0  0.00000000000E+00  0.00000000000E+00  0.91228674670E+03  0.10877132533E+04  0.59232846732E+03 0.  0.
         13    1    3    3    0    0  0.27519292392E+02 -0.24952686417E+03  0.74470093757E+03  0.78587559691E+03  0.00000000000E+00 0. -1.
          4    1    3    3  501    0 -0.27519292392E+02  0.24952686417E+03  0.16758580913E+03  0.30183765639E+03  0.00000000000E+00 0. -1.
<mgrwt>
<rscale>  0 0.59232847E+03</rscale>
<asrwt>0</asrwt>
<pdfrwt beam="1">0</pdfrwt>
<pdfrwt beam="2">  1        2 0.31895796E+00 0.59232847E+03</pdfrwt>
<totfact> 0.78951017E+00</totfact>
</mgrwt>
</event>
<event>
 5    1  0.2343702E-004  0.6325258E+03  0.7818608E-02  0.9840132E-01
         13   -1    0    0    0    0  0.00000000000E+00  0.00000000000E+00  0.10000000000E+04  0.10000000000E+04  0.00000000000E+00 0. -1.
          2   -1    0    0  501    0 -0.00000000000E+00 -0.00000000000E+00 -0.10002221075E+03  0.10002221075E+03  0.00000000000E+00 0. -1.
    9000006    2    1    2  501    0  0.00000000000E+00  0.00000000000E+00  0.89997778925E+03  0.11000222107E+04  0.63252576468E+03 0.  0.
         13    1    3    3    0    0  0.22020970798E+03  0.15807235933E+02  0.56169269433E+02  0.22780950600E+03  0.00000000000E+00 0. -1.
          2    1    3    3  501    0 -0.22020970798E+03 -0.15807235933E+02  0.84380851982E+03  0.87221270474E+03  0.00000000000E+00 0. -1.
<mgrwt>
<rscale>  0 0.63252576E+03</rscale>
<asrwt>0</asrwt>
<pdfrwt beam="1">0</pdfrwt>
<pdfrwt beam="2">  1        2 0.36371790E+00 0.63252576E+03</pdfrwt>
<totfact> 0.54311102E+00</totfact>
</mgrwt>
</event>
<event>
 5    1  0.2343702E-004  0.6493003E+03  0.7818608E-02  0.9808093E-01
         13   -1    0    0    0    0  0.00000000000E+00  0.00000000000E+00  0.10000000000E+04  0.10000000000E+04  0.00000000000E+00 0. -1.
          2   -1    0    0  501    0 -0.00000000000E+00 -0.00000000000E+00 -0.10539771169E+03  0.10539771169E+03  0.00000000000E+00 0. -1.
    9000006    2    1    2  501    0  0.00000000000E+00  0.00000000000E+00  0.89460228831E+03  0.11053977117E+04  0.64930027471E+03 0.  0.
         13    1    3    3    0    0 -0.21310014182E+03  0.12801758778E+03  0.91830321467E+02  0.26501505838E+03  0.00000000000E+00 0. -1.
          4    1    3    3  501    0  0.21310014182E+03 -0.12801758778E+03  0.80277196685E+03  0.84038265331E+03  0.00000000000E+00 0. -1.
<mgrwt>
<rscale>  0 0.64930027E+03</rscale>
<asrwt>0</asrwt>
<pdfrwt beam="1">0</pdfrwt>
<pdfrwt beam="2">  1        2 0.38326521E+00 0.64930027E+03</pdfrwt>
<totfact> 0.45977902E+00</totfact>
</mgrwt>
</event>
<event>
 5    1  0.2343702E-004  0.6549224E+03  0.7818608E-02  0.9797586E-01
         13   -1    0    0    0    0  0.00000000000E+00  0.00000000000E+00  0.10000000000E+04  0.10000000000E+04  0.00000000000E+00 0. -1.
          2   -1    0    0  501    0 -0.00000000000E+00 -0.00000000000E+00 -0.10723084220E+03  0.10723084220E+03  0.00000000000E+00 0. -1.
    9000006    2    1    2  501    0  0.00000000000E+00  0.00000000000E+00  0.89276915780E+03  0.11072308422E+04  0.65492241434E+03 0.  0.
         13    1    3    3    0    0 -0.89714954613E+02  0.31387075897E+03  0.49005440637E+03  0.58882675519E+03  0.00000000000E+00 0. -1.
          2    1    3    3  501    0  0.89714954613E+02 -0.31387075897E+03  0.40271475142E+03  0.51840408701E+03  0.00000000000E+00 0. -1.
<mgrwt>
<rscale>  0 0.65492241E+03</rscale>
<asrwt>0</asrwt>
<pdfrwt beam="1">0</pdfrwt>
<pdfrwt beam="2">  1        2 0.38993116E+00 0.65492241E+03</pdfrwt>
<totfact> 0.43414378E+00</totfact>
</mgrwt>
</event>
<event>
 5    1  0.2343702E-004  0.6679679E+03  0.7818608E-02  0.9773636E-01
         13   -1    0    0    0    0  0.00000000000E+00  0.00000000000E+00  0.10000000000E+04  0.10000000000E+04  0.00000000000E+00 0. -1.
          2   -1    0    0  501    0 -0.00000000000E+00 -0.00000000000E+00 -0.11154526281E+03  0.11154526281E+03  0.00000000000E+00 0. -1.
    9000006    2    1    2  501    0  0.00000000000E+00  0.00000000000E+00  0.88845473719E+03  0.11115452628E+04  0.66796785194E+03 0.  0.
         13    1    3    3    0    0 -0.22080007565E+03 -0.17066648279E+03  0.13890094533E+03  0.31172615285E+03  0.00000000000E+00 0. -1.
          2    1    3    3  501    0  0.22080007565E+03  0.17066648279E+03  0.74955379186E+03  0.79981910996E+03  0.00000000000E+00 0. -1.
<mgrwt>
<rscale>  0 0.66796785E+03</rscale>
<asrwt>0</asrwt>
<pdfrwt beam="1">0</pdfrwt>
<pdfrwt beam="2">  1        2 0.40561999E+00 0.66796785E+03</pdfrwt>
<totfact> 0.37882465E+00</totfact>
</mgrwt>
</event>
<event>
 5    1  0.2343702E-004  0.6465307E+03  0.7818608E-02  0.9813311E-01
         13   -1    0    0    0    0  0.00000000000E+00  0.00000000000E+00  0.10000000000E+04  0.10000000000E+04  0.00000000000E+00 0. -1.
          2   -1    0    0  501    0 -0.00000000000E+00 -0.00000000000E+00 -0.10450047074E+03  0.10450047074E+03  0.00000000000E+00 0. -1.
    9000006    2    1    2  501    0  0.00000000000E+00  0.00000000000E+00  0.89549952926E+03  0.11045004707E+04  0.64653065121E+03 0.  0.
         13    1    3    3    0    0  0.15769698041E+03 -0.39505191709E+02 -0.29584898094E+02  0.16524001935E+03  0.00000000000E+00 0. -1.
          4    1    3    3  501    0 -0.15769698041E+03  0.39505191709E+02  0.92508442735E+03  0.93926045138E+03  0.00000000000E+00 0. -1.
<mgrwt>
<rscale>  0 0.64653065E+03</rscale>
<asrwt>0</asrwt>
<pdfrwt beam="1">0</pdfrwt>
<pdfrwt beam="2">  1        2 0.38000251E+00 0.64653065E+03</pdfrwt>
<totfact> 0.47282025E+00</totfact>
</mgrwt>
</event>
<event>
 5    1  0.2343702E-004  0.5492107E+03  0.7818608E-02  0.1001677E+00
         13   -1    0    0    0    0  0.00000000000E+00  0.00000000000E+00  0.10000000000E+04  0.10000000000E+04  0.00000000000E+00 0. -1.
          2   -1    0    0  501    0 -0.00000000000E+00 -0.00000000000E+00 -0.75408095764E+02  0.75408095764E+02  0.00000000000E+00 0. -1.
    9000006    2    1    2  501    0  0.00000000000E+00  0.00000000000E+00  0.92459190424E+03  0.10754080958E+04  0.54921069095E+03 0.  0.
         13    1    3    3    0    0  0.99066461629E+02 -0.15028375259E+03  0.86837689258E+03  0.88683583468E+03  0.00000000000E+00 0. -1.
          2    1    3    3  501    0 -0.99066461629E+02  0.15028375259E+03  0.56215011655E+02  0.18857226108E+03  0.00000000000E+00 0. -1.
<mgrwt>
<rscale>  0 0.54921069E+03</rscale>
<asrwt>0</asrwt>
<pdfrwt beam="1">0</pdfrwt>
<pdfrwt beam="2">  1        2 0.27421184E+00 0.54921069E+03</pdfrwt>
<totfact> 0.11415576E+01</totfact>
</mgrwt>
</event>
<event>
 5    1  0.2343702E-004  0.6450994E+03  0.7818608E-02  0.9816019E-01
         13   -1    0    0    0    0  0.00000000000E+00  0.00000000000E+00  0.10000000000E+04  0.10000000000E+04  0.00000000000E+00 0. -1.
          2   -1    0    0  501    0 -0.00000000000E+00 -0.00000000000E+00 -0.10403830345E+03  0.10403830345E+03  0.00000000000E+00 0. -1.
    9000006    2    1    2  501    0  0.00000000000E+00  0.00000000000E+00  0.89596169655E+03  0.11040383035E+04  0.64509938289E+03 0.  0.
         13    1    3    3    0    0  0.72343206633E+02  0.28495298352E+03  0.67506916104E+03  0.73630843710E+03  0.00000000000E+00 0. -1.
          2    1    3    3  501    0 -0.72343206633E+02 -0.28495298352E+03  0.22089253551E+03  0.36772986635E+03  0.00000000000E+00 0. -1.
<mgrwt>
<rscale>  0 0.64509938E+03</rscale>
<asrwt>0</asrwt>
<pdfrwt beam="1">0</pdfrwt>
<pdfrwt beam="2">  1        2 0.37832190E+00 0.64509938E+03</pdfrwt>
<totfact> 0.47966825E+00</totfact>
</mgrwt>
</event>
<event>
 5    1  0.2343702E-004  0.6515894E+03  0.7818608E-02  0.9803801E-01
         13   -1    0    0    0    0  0.00000000000E+00  0.00000000000E+00  0.10000000000E+04  0.10000000000E+04  0.00000000000E+00 0. -1.
          2   -1    0    0  501    0 -0.00000000000E+00 -0.00000000000E+00 -0.10614218037E+03  0.10614218037E+03  0.00000000000E+00 0. -1.
    9000006    2    1    2  501    0  0.00000000000E+00  0.00000000000E+00  0.89385781963E+03  0.11061421804E+04  0.65158938103E+03 0.  0.
         13    1    3    3    0    0  0.17293365540E+03 -0.25813287390E+03  0.61329042617E+03  0.68750547386E+03  0.00000000000E+00 0. -1.
          4    1    3    3  501    0 -0.17293365540E+03  0.25813287390E+03  0.28056739346E+03  0.41863670650E+03  0.00000000000E+00 0. -1.
<mgrwt>
<rscale>  0 0.65158938E+03</rscale>
<asrwt>0</asrwt>
<pdfrwt beam="1">0</pdfrwt>
<pdfrwt beam="2">  1        2 0.38597238E+00 0.65158938E+03</pdfrwt>
<totfact> 0.44920718E+00</totfact>
</mgrwt>
</event>
<event>
 5    1  0.2343702E-004  0.6363433E+03  0.7818608E-02  0.9832748E-01
         13   -1    0    0    0    0  0.00000000000E+00  0.00000000000E+00  0.10000000000E+04  0.10000000000E+04  0.00000000000E+00 0. -1.
          2   -1    0    0  501    0 -0.00000000000E+00 -0.00000000000E+00 -0.10123318837E+03  0.10123318837E+03  0.00000000000E+00 0. -1.
    9000006    2    1    2  501    0  0.00000000000E+00  0.00000000000E+00  0.89876681163E+03  0.11012331884E+04  0.63634326703E+03 0.  0.
         13    1    3    3    0    0 -0.68177395357E+02  0.23901009402E+03  0.79314868462E+03  0.83117917334E+03  0.00000000000E+00 0. -1.
          4    1    3    3  501    0  0.68177395357E+02 -0.23901009402E+03  0.10561812701E+03  0.27005401503E+03  0.00000000000E+00 0. -1.
<mgrwt>
<rscale>  0 0.63634327E+03</rscale>
<asrwt>0</asrwt>
<pdfrwt beam="1">0</pdfrwt>
<pdfrwt beam="2">  1        2 0.36812146E+00 0.63634327E+03</pdfrwt>
<totfact> 0.52321502E+00</totfact>
</mgrwt>
</event>
<event>
 5    1  0.2343702E-004  0.6440651E+03  0.7818608E-02  0.9817980E-01
         13   -1    0    0    0    0  0.00000000000E+00  0.00000000000E+00  0.10000000000E+04  0.10000000000E+04  0.00000000000E+00 0. -1.
          2   -1    0    0  501    0 -0.00000000000E+00 -0.00000000000E+00 -0.10370496758E+03  0.10370496758E+03  0.00000000000E+00 0. -1.
    9000006    2    1    2  501    0  0.00000000000E+00  0.00000000000E+00  0.89629503242E+03  0.11037049676E+04  0.64406511342E+03 0.  0.
         13    1    3    3    0    0 -0.26852878495E+03  0.42443228579E+02  0.15234560416E+03  0.31163812204E+03  0.00000000000E+00 0. -1.
          4    1    3    3  501    0  0.26852878495E+03 -0.42443228579E+02  0.74394942826E+03  0.79206684554E+03  0.00000000000E+00 0. -1.
<mgrwt>
<rscale>  0 0.64406511E+03</rscale>
<asrwt>0</asrwt>
<pdfrwt beam="1">0</pdfrwt>
<pdfrwt beam="2">  1        2 0.37710977E+00 0.64406511E+03</pdfrwt>
<totfact> 0.48466330E+00</totfact>
</mgrwt>
</event>
<event>
 5    1  0.2343702E-004  0.6394651E+03  0.7818608E-02  0.9826751E-01
         13   -1    0    0    0    0  0.00000000000E+00  0.00000000000E+00  0.10000000000E+04  0.10000000000E+04  0.00000000000E+00 0. -1.
          2   -1    0    0  501    0 -0.00000000000E+00 -0.00000000000E+00 -0.10222889638E+03  0.10222889638E+03  0.00000000000E+00 0. -1.
    9000006    2    1    2  501    0  0.00000000000E+00  0.00000000000E+00  0.89777110362E+03  0.11022288964E+04  0.63946507763E+03 0.  0.
         13    1    3    3    0    0 -0.26054468838E+03  0.18509076104E+03  0.43282928604E+03  0.53803653716E+03  0.00000000000E+00 0. -1.
          4    1    3    3  501    0  0.26054468838E+03 -0.18509076104E+03  0.46494181758E+03  0.56419235922E+03  0.00000000000E+00 0. -1.
<mgrwt>
<rscale>  0 0.63946508E+03</rscale>
<asrwt>0</asrwt>
<pdfrwt beam="1">0</pdfrwt>
<pdfrwt beam="2">  1        2 0.37174223E+00 0.63946508E+03</pdfrwt>
<totfact> 0.50735956E+00</totfact>
</mgrwt>
</event>
<event>
 5    1  0.2343702E-004  0.5982816E+03  0.7818608E-02  0.9908978E-01
         13   -1    0    0    0    0  0.00000000000E+00  0.00000000000E+00  0.10000000000E+04  0.10000000000E+04  0.00000000000E+00 0. -1.
          2   -1    0    0  501    0 -0.00000000000E+00 -0.00000000000E+00 -0.89485220960E+02  0.89485220960E+02  0.00000000000E+00 0. -1.
    9000006    2    1    2  501    0  0.00000000000E+00  0.00000000000E+00  0.91051477904E+03  0.10894852210E+04  0.59828160915E+03 0.  0.
         13    1    3    3    0    0 -0.93299508575E+02  0.28402098743E+03  0.43594239538E+03  0.52860050292E+03  0.00000000000E+00 0. -1.
          4    1    3    3  501    0  0.93299508575E+02 -0.28402098743E+03  0.47457238366E+03  0.56088471804E+03  0.00000000000E+00 0. -1.
<mgrwt>
<rscale>  0 0.59828161E+03</rscale>
<asrwt>0</asrwt>
<pdfrwt beam="1">0</pdfrwt>
<pdfrwt beam="2">  1        2 0.32540149E+00 0.59828161E+03</pdfrwt>
<totfact> 0.74846325E+00</totfact>
</mgrwt>
</event>
<event>
 5    1  0.2343702E-004  0.6543156E+03  0.7818608E-02  0.9798715E-01
         13   -1    0    0    0    0  0.00000000000E+00  0.00000000000E+00  0.10000000000E+04  0.10000000000E+04  0.00000000000E+00 0. -1.
          2   -1    0    0  501    0 -0.00000000000E+00 -0.00000000000E+00 -0.10703223727E+03  0.10703223727E+03  0.00000000000E+00 0. -1.
    9000006    2    1    2  501    0  0.00000000000E+00  0.00000000000E+00  0.89296776273E+03  0.11070322373E+04  0.65431563415E+03 0.  0.
         13    1    3    3    0    0  0.29629390954E+03 -0.10458721858E+03  0.60065677198E+03  0.67787692456E+03  0.00000000000E+00 0. -1.
          2    1    3    3  501    0 -0.29629390954E+03  0.10458721858E+03  0.29231099075E+03  0.42915531272E+03  0.00000000000E+00 0. -1.
<mgrwt>
<rscale>  0 0.65431563E+03</rscale>
<asrwt>0</asrwt>
<pdfrwt beam="1">0</pdfrwt>
<pdfrwt beam="2">  1        2 0.38920896E+00 0.65431563E+03</pdfrwt>
<totfact> 0.43685724E+00</totfact>
</mgrwt>
</event>
<event>
 5    1  0.2343702E-004  0.6473779E+03  0.7818608E-02  0.9811712E-01
         13   -1    0    0    0    0  0.00000000000E+00  0.00000000000E+00  0.10000000000E+04  0.10000000000E+04  0.00000000000E+00 0. -1.
          2   -1    0    0  501    0 -0.00000000000E+00 -0.00000000000E+00 -0.10477454171E+03  0.10477454171E+03  0.00000000000E+00 0. -1.
    9000006    2    1    2  501    0  0.00000000000E+00  0.00000000000E+00  0.89522545829E+03  0.11047745417E+04  0.64737791654E+03 0.  0.
         13    1    3    3    0    0  0.19755933293E+03  0.52094595590E+02  0.87605557210E+03  0.89956484054E+03  0.00000000000E+00 0. -1.
          4    1    3    3  501    0 -0.19755933293E+03 -0.52094595590E+02  0.19169886189E+02  0.20520970117E+03  0.00000000000E+00 0. -1.
<mgrwt>
<rscale>  0 0.64737792E+03</rscale>
<asrwt>0</asrwt>
<pdfrwt beam="1">0</pdfrwt>
<pdfrwt beam="2">  1        2 0.38099914E+00 0.64737792E+03</pdfrwt>
<totfact> 0.46880145E+00</totfact>
</mgrwt>
</event>
<event>
 5    1  0.2343702E-004  0.6515121E+03  0.7818608E-02  0.9803946E-01
         13   -1    0    0    0    0  0.00000000000E+00  0.00000000000E+00  0.10000000000E+04  0.10000000000E+04  0.00000000000E+00 0. -1.
          2   -1    0    0  501    0 -0.00000000000E+00 -0.00000000000E+00 -0.10611701363E+03  0.10611701363E+03  0.00000000000E+00 0. -1.
    9000006    2    1    2  501    0  0.00000000000E+00  0.00000000000E+00  0.89388298637E+03  0.11061170136E+04  0.65151212923E+03 0.  0.
         13    1    3    3    0    0 -0.25178981824E+03 -0.15751382597E+03  0.67414011642E+03  0.73666384092E+03  0.00000000000E+00 0. -1.
          4    1    3    3  501    0  0.25178981824E+03  0.15751382597E+03  0.21974286994E+03  0.36945317272E+03  0.00000000000E+00 0. -1.
<mgrwt>
<rscale>  0 0.65151213E+03</rscale>
<asrwt>0</asrwt>
<pdfrwt beam="1">0</pdfrwt>
<pdfrwt beam="2">  1        2 0.38588086E+00 0.65151213E+03</pdfrwt>
<totfact> 0.44956093E+00</totfact>
</mgrwt>
</event>
<event>
 5    1  0.2343702E-004  0.6648592E+03  0.7818608E-02  0.9779290E-01
         13   -1    0    0    0    0  0.00000000000E+00  0.00000000000E+00  0.10000000000E+04  0.10000000000E+04  0.00000000000E+00 0. -1.
          2   -1    0    0  501    0 -0.00000000000E+00 -0.00000000000E+00 -0.11050944341E+03  0.11050944341E+03  0.00000000000E+00 0. -1.
    9000006    2    1    2  501    0  0.00000000000E+00  0.00000000000E+00  0.88949055659E+03  0.11105094434E+04  0.66485921340E+03 0.  0.
         13    1    3    3    0    0 -0.13653469825E+03  0.29180816487E+03  0.58162486241E+03  0.66489187804E+03  0.00000000000E+00 0. -1.
          2    1    3    3  501    0  0.13653469825E+03 -0.29180816487E+03  0.30786569418E+03  0.44561756537E+03  0.00000000000E+00 0. -1.
<mgrwt>
<rscale>  0 0.66485921E+03</rscale>
<asrwt>0</asrwt>
<pdfrwt beam="1">0</pdfrwt>
<pdfrwt beam="2">  1        2 0.40185337E+00 0.66485921E+03</pdfrwt>
<totfact> 0.39149359E+00</totfact>
</mgrwt>
</event>
<event>
 5    1  0.2343702E-004  0.6528865E+03  0.7818608E-02  0.9801378E-01
         13   -1    0    0    0    0  0.00000000000E+00  0.00000000000E+00  0.10000000000E+04  0.10000000000E+04  0.00000000000E+00 0. -1.
          2   -1    0    0  501    0 -0.00000000000E+00 -0.00000000000E+00 -0.10656518044E+03  0.10656518044E+03  0.00000000000E+00 0. -1.
    9000006    2    1    2  501    0  0.00000000000E+00  0.00000000000E+00  0.89343481956E+03  0.11065651804E+04  0.65288645395E+03 0.  0.
         13    1    3    3    0    0  0.88038040439E+02 -0.20710629072E+03  0.45916567901E+02  0.22967813006E+03  0.00000000000E+00 0. -1.
          2    1    3    3  501    0 -0.88038040439E+02  0.20710629072E+03  0.84751825166E+03  0.87688705038E+03  0.00000000000E+00 0. -1.
<mgrwt>
<rscale>  0 0.65288645E+03</rscale>
<asrwt>0</asrwt>
<pdfrwt beam="1">0</pdfrwt>
<pdfrwt beam="2">  1        2 0.38751056E+00 0.65288645E+03</pdfrwt>
<totfact> 0.44329900E+00</totfact>
</mgrwt>
</event>
<event>
 5    1  0.2343702E-004  0.6627809E+03  0.7818608E-02  0.9783088E-01
         13   -1    0    0    0    0  0.00000000000E+00  0.00000000000E+00  0.10000000000E+04  0.10000000000E+04  0.00000000000E+00 0. -1.
          2   -1    0    0  501    0 -0.00000000000E+00 -0.00000000000E+00 -0.10981962447E+03  0.10981962447E+03  0.00000000000E+00 0. -1.
    9000006    2    1    2  501    0  0.00000000000E+00  0.00000000000E+00  0.89018037553E+03  0.11098196245E+04  0.66278088225E+03 0.  0.
         13    1    3    3    0    0  0.24708648371E+03 -0.22055380977E+03  0.46372982366E+03  0.56986056434E+03  0.00000000000E+00 0. -1.
          2    1    3    3  501    0 -0.24708648371E+03  0.22055380977E+03  0.42645055187E+03  0.53995906013E+03  0.00000000000E+00 0. -1.
<mgrwt>
<rscale>  0 0.66278088E+03</rscale>
<asrwt>0</asrwt>
<pdfrwt beam="1">0</pdfrwt>
<pdfrwt beam="2">  1        2 0.39934493E+00 0.66278088E+03</pdfrwt>
<totfact> 0.40014004E+00</totfact>
</mgrwt>
</event>
<event>
 5    1  0.2343702E-004  0.6393016E+03  0.7818608E-02  0.9827064E-01
         13   -1    0    0    0    0  0.00000000000E+00  0.00000000000E+00  0.10000000000E+04  0.10000000000E+04  0.00000000000E+00 0. -1.
          2   -1    0    0  501    0 -0.00000000000E+00 -0.00000000000E+00 -0.10217664417E+03  0.10217664417E+03  0.00000000000E+00 0. -1.
    9000006    2    1    2  501    0  0.00000000000E+00  0.00000000000E+00  0.89782335583E+03  0.11021766442E+04  0.63930163200E+03 0.  0.
         13    1    3    3    0    0  0.19478690592E+03 -0.10858596072E+03  0.54097768544E+02  0.22947639997E+03  0.00000000000E+00 0. -1.
          4    1    3    3  501    0 -0.19478690592E+03  0.10858596072E+03  0.84372558729E+03  0.87270024420E+03  0.00000000000E+00 0. -1.
<mgrwt>
<rscale>  0 0.63930163E+03</rscale>
<asrwt>0</asrwt>
<pdfrwt beam="1">0</pdfrwt>
<pdfrwt beam="2">  1        2 0.37155222E+00 0.63930163E+03</pdfrwt>
<totfact> 0.50818054E+00</totfact>
</mgrwt>
</event>
<event>
 5    1  0.2343702E-004  0.6536650E+03  0.7818608E-02  0.9799926E-01
         13   -1    0    0    0    0  0.00000000000E+00  0.00000000000E+00  0.10000000000E+04  0.10000000000E+04  0.00000000000E+00 0. -1.
          2   -1    0    0  501    0 -0.00000000000E+00 -0.00000000000E+00 -0.10681946740E+03  0.10681946740E+03  0.00000000000E+00 0. -1.
    9000006    2    1    2  501    0  0.00000000000E+00  0.00000000000E+00  0.89318053260E+03  0.11068194674E+04  0.65366495210E+03 0.  0.
         13    1    3    3    0    0  0.11965289260E+03  0.25086166201E+02  0.95982534831E+03  0.96757988286E+03  0.00000000000E+00 0. -1.
          2    1    3    3  501    0 -0.11965289260E+03 -0.25086166201E+02 -0.66644815717E+02  0.13923958455E+03  0.00000000000E+00 0. -1.
<mgrwt>
<rscale>  0 0.65366495E+03</rscale>
<asrwt>0</asrwt>
<pdfrwt beam="1">0</pdfrwt>
<pdfrwt beam="2">  1        2 0.38843525E+00 0.65366495E+03</pdfrwt>
<totfact> 0.43978124E+00</totfact>
</mgrwt>
</event>
<event>
 5    1  0.2343702E-004  0.6463328E+03  0.7818608E-02  0.9813685E-01
         13   -1    0    0    0    0  0.00000000000E+00  0.00000000000E+00  0.10000000000E+04  0.10000000000E+04  0.00000000000E+00 0. -1.
          2   -1    0    0  501    0 -0.00000000000E+00 -0.00000000000E+00 -0.10443653359E+03  0.10443653359E+03  0.00000000000E+00 0. -1.
    9000006    2    1    2  501    0  0.00000000000E+00  0.00000000000E+00  0.89556346641E+03  0.11044365336E+04  0.64633283560E+03 0.  0.
         13    1    3    3    0    0  0.20986199981E+03 -0.89276534798E+02  0.56535340397E+02  0.23496511091E+03  0.00000000000E+00 0. -1.
          2    1    3    3  501    0 -0.20986199981E+03  0.89276534798E+02  0.83902812601E+03  0.86947142269E+03  0.00000000000E+00 0. -1.
<mgrwt>
<rscale>  0 0.64633284E+03</rscale>
<asrwt>0</asrwt>
<pdfrwt beam="1">0</pdfrwt>
<pdfrwt beam="2">  1        2 0.37977001E+00 0.64633284E+03</pdfrwt>
<totfact> 0.47376228E+00</totfact>
</mgrwt>
</event>
<event>
 5    1  0.2343702E-004  0.6513778E+03  0.7818608E-02  0.9804197E-01
         13   -1    0    0    0    0  0.00000000000E+00  0.00000000000E+00  0.10000000000E+04  0.10000000000E+04  0.00000000000E+00 0. -1.
          2   -1    0    0  501    0 -0.00000000000E+00 -0.00000000000E+00 -0.10607326646E+03  0.10607326646E+03  0.00000000000E+00 0. -1.
    9000006    2    1    2  501    0  0.00000000000E+00  0.00000000000E+00  0.89392673354E+03  0.11060732665E+04  0.65137782111E+03 0.  0.
         13    1    3    3    0    0  0.22522801737E+03  0.14474418977E+03  0.76188091143E+03  0.80755251438E+03  0.00000000000E+00 0. -1.
          2    1    3    3  501    0 -0.22522801737E+03 -0.14474418977E+03  0.13204582212E+03  0.29852075208E+03  0.00000000000E+00 0. -1.
<mgrwt>
<rscale>  0 0.65137782E+03</rscale>
<asrwt>0</asrwt>
<pdfrwt beam="1">0</pdfrwt>
<pdfrwt beam="2">  1        2 0.38572178E+00 0.65137782E+03</pdfrwt>
<totfact> 0.45017645E+00</totfact>
</mgrwt>
</event>
<event>
 5    1  0.2343702E-004  0.6551072E+03  0.7818608E-02  0.9797243E-01
         13   -1    0    0    0    0  0.00000000000E+00  0.00000000000E+00  0.10000000000E+04  0.10000000000E+04  0.00000000000E+00 0. -1.
          2   -1    0    0  501    0 -0.00000000000E+00 -0.00000000000E+00 -0.10729136491E+03  0.10729136491E+03  0.00000000000E+00 0. -1.
    9000006    2    1    2  501    0  0.00000000000E+00  0.00000000000E+00  0.89270863509E+03  0.11072913649E+04  0.65510721233E+03 0.  0.
         13    1    3    3    0    0  0.78314535648E+02  0.30587219869E+03  0.29899837434E+03  0.43484594546E+03  0.00000000000E+00 0. -1.
          2    1    3    3  501    0 -0.78314535648E+02 -0.30587219869E+03  0.59371026075E+03  0.67244541945E+03  0.00000000000E+00 0. -1.
<mgrwt>
<rscale>  0 0.65510721E+03</rscale>
<asrwt>0</asrwt>
<pdfrwt beam="1">0</pdfrwt>
<pdfrwt beam="2">  1        2 0.39015124E+00 0.65510721E+03</pdfrwt>
<totfact> 0.43331992E+00</totfact>
</mgrwt>
</event>
<event>
 5    1  0.2343702E-004  0.6526831E+03  0.7818608E-02  0.9801758E-01
         13   -1    0    0    0    0  0.00000000000E+00  0.00000000000E+00  0.10000000000E+04  0.10000000000E+04  0.00000000000E+00 0. -1.
          2   -1    0    0  501    0 -0.00000000000E+00 -0.00000000000E+00 -0.10649881060E+03  0.10649881060E+03  0.00000000000E+00 0. -1.
    9000006    2    1    2  501    0  0.00000000000E+00  0.00000000000E+00  0.89350118940E+03  0.11064988106E+04  0.65268311026E+03 0.  0.
         13    1    3    3    0    0  0.31006828142E+03 -0.33756051175E+02  0.28399220597E+03  0.42182150631E+03  0.00000000000E+00 0. -1.
          2    1    3    3  501    0 -0.31006828142E+03  0.33756051175E+02  0.60950898343E+03  0.68467730429E+03  0.00000000000E+00 0. -1.
<mgrwt>
<rscale>  0 0.65268311E+03</rscale>
<asrwt>0</asrwt>
<pdfrwt beam="1">0</pdfrwt>
<pdfrwt beam="2">  1        2 0.38726922E+00 0.65268311E+03</pdfrwt>
<totfact> 0.44422133E+00</totfact>
</mgrwt>
</event>
<event>
 5    1  0.2343702E-004  0.6732572E+03  0.7818608E-02  0.9764092E-01
         13   -1    0    0    0    0  0.00000000000E+00  0.00000000000E+00  0.10000000000E+04  0.10000000000E+04  0.00000000000E+00 0. -1.
          2   -1    0    0  501    0 -0.00000000000E+00 -0.00000000000E+00 -0.11331880337E+03  0.11331880337E+03  0.00000000000E+00 0. -1.
    9000006    2    1    2  501    0  0.00000000000E+00  0.00000000000E+00  0.88668119663E+03  0.11133188034E+04  0.67325716741E+03 0.  0.
         13    1    3    3    0    0  0.28474379994E+03 -0.18120394479E+02  0.73874138287E+03  0.79192563481E+03  0.00000000000E+00 0. -1.
          2    1    3    3  501    0 -0.28474379994E+03  0.18120394479E+02  0.14793981376E+03  0.32139316856E+03  0.00000000000E+00 0. -1.
<mgrwt>
<rscale>  0 0.67325717E+03</rscale>
<asrwt>0</asrwt>
<pdfrwt beam="1">0</pdfrwt>
<pdfrwt beam="2">  1        2 0.41206924E+00 0.67325717E+03</pdfrwt>
<totfact> 0.35798172E+00</totfact>
</mgrwt>
</event>
<event>
 5    1  0.2343702E-004  0.6536303E+03  0.7818608E-02  0.9799991E-01
         13   -1    0    0    0    0  0.00000000000E+00  0.00000000000E+00  0.10000000000E+04  0.10000000000E+04  0.00000000000E+00 0. -1.
          2   -1    0    0  501    0 -0.00000000000E+00 -0.00000000000E+00 -0.10680815455E+03  0.10680815455E+03  0.00000000000E+00 0. -1.
    9000006    2    1    2  501    0  0.00000000000E+00  0.00000000000E+00  0.89319184545E+03  0.11068081545E+04  0.65363033757E+03 0.  0.
         13    1    3    3    0    0  0.13659252690E+03 -0.10050315380E+03 -0.26474627719E+02  0.17163714120E+03  0.00000000000E+00 0. -1.
          2    1    3    3  501    0 -0.13659252690E+03  0.10050315380E+03  0.91966647317E+03  0.93517101334E+03  0.00000000000E+00 0. -1.
<mgrwt>
<rscale>  0 0.65363034E+03</rscale>
<asrwt>0</asrwt>
<pdfrwt beam="1">0</pdfrwt>
<pdfrwt beam="2">  1        2 0.38839411E+00 0.65363034E+03</pdfrwt>
<totfact> 0.43993720E+00</totfact>
</mgrwt>
</event>
<event>
 5    1  0.2343702E-004  0.6491627E+03  0.7818608E-02  0.9808352E-01
         13   -1    0    0    0    0  0.00000000000E+00  0.00000000000E+00  0.10000000000E+04  0.10000000000E+04  0.00000000000E+00 0. -1.
          2   -1    0    0  501    0 -0.00000000000E+00 -0.00000000000E+00 -0.10535305225E+03  0.10535305225E+03  0.00000000000E+00 0. -1.
    9000006    2    1    2  501    0  0.00000000000E+00  0.00000000000E+00  0.89464694775E+03  0.11053530522E+04  0.64916269840E+03 0.  0.
         13    1    3    3    0    0 -0.19107759709E+03  0.25970393842E+03  0.51094907949E+03  0.60417360550E+03  0.00000000000E+00 0. -1.
          4    1    3    3  501    0  0.19107759709E+03 -0.25970393842E+03  0.38369786826E+03  0.50117944675E+03  0.00000000000E+00 0. -1.
<mgrwt>
<rscale>  0 0.64916270E+03</rscale>
<asrwt>0</asrwt>
<pdfrwt beam="1">0</pdfrwt>
<pdfrwt beam="2">  1        2 0.38310282E+00 0.64916270E+03</pdfrwt>
<totfact> 0.46042033E+00</totfact>
</mgrwt>
</event>
<event>
 5    1  0.2343702E-004  0.6694253E+03  0.7818608E-02  0.9770997E-01
         13   -1    0    0    0    0  0.00000000000E+00  0.00000000000E+00  0.10000000000E+04  0.10000000000E+04  0.00000000000E+00 0. -1.
          2   -1    0    0  501    0 -0.00000000000E+00 -0.00000000000E+00 -0.11203255796E+03  0.11203255796E+03  0.00000000000E+00 0. -1.
    9000006    2    1    2  501    0  0.00000000000E+00  0.00000000000E+00  0.88796744204E+03  0.11120325580E+04  0.66942529968E+03 0.  0.
         13    1    3    3    0    0 -0.32189618390E+03 -0.45227783413E+02  0.57656434668E+03  0.66188303458E+03  0.00000000000E+00 0. -1.
          4    1    3    3  501    0  0.32189618390E+03  0.45227783413E+02  0.31140309535E+03  0.45014952338E+03  0.00000000000E+00 0. -1.
<mgrwt>
<rscale>  0 0.66942530E+03</rscale>
<asrwt>0</asrwt>
<pdfrwt beam="1">0</pdfrwt>
<pdfrwt beam="2">  1        2 0.40739198E+00 0.66942530E+03</pdfrwt>
<totfact> 0.37299255E+00</totfact>
</mgrwt>
</event>
<event>
 5    1  0.2343702E-004  0.6633335E+03  0.7818608E-02  0.9782077E-01
         13   -1    0    0    0    0  0.00000000000E+00  0.00000000000E+00  0.10000000000E+04  0.10000000000E+04  0.00000000000E+00 0. -1.
          2   -1    0    0  501    0 -0.00000000000E+00 -0.00000000000E+00 -0.11000282821E+03  0.11000282821E+03  0.00000000000E+00 0. -1.
    9000006    2    1    2  501    0  0.00000000000E+00  0.00000000000E+00  0.88999717179E+03  0.11100028282E+04  0.66333348538E+03 0.  0.
         13    1    3    3    0    0 -0.11710107159E+03 -0.30443858909E+03  0.34449442076E+03  0.47441745481E+03  0.00000000000E+00 0. -1.
          4    1    3    3  501    0  0.11710107159E+03  0.30443858909E+03  0.54550275104E+03  0.63558537340E+03  0.00000000000E+00 0. -1.
<mgrwt>
<rscale>  0 0.66333349E+03</rscale>
<asrwt>0</asrwt>
<pdfrwt beam="1">0</pdfrwt>
<pdfrwt beam="2">  1        2 0.40001113E+00 0.66333349E+03</pdfrwt>
<totfact> 0.39782714E+00</totfact>
</mgrwt>
</event>
<event>
 5    1  0.2343702E-004  0.6466289E+03  0.7818608E-02  0.9813126E-01
         13   -1    0    0    0    0  0.00000000000E+00  0.00000000000E+00  0.10000000000E+04  0.10000000000E+04  0.00000000000E+00 0. -1.
          2   -1    0    0  501    0 -0.00000000000E+00 -0.00000000000E+00 -0.10453222014E+03  0.10453222014E+03  0.00000000000E+00 0. -1.
    9000006    2    1    2  501    0  0.00000000000E+00  0.00000000000E+00  0.89546777986E+03  0.11045322201E+04  0.64662885844E+03 0.  0.
         13    1    3    3    0    0  0.17282048069E+03  0.78383579707E+02  0.60147627506E+00  0.18976634551E+03  0.00000000000E+00 0. -1.
          2    1    3    3  501    0 -0.17282048069E+03 -0.78383579707E+02  0.89486630358E+03  0.91476587464E+03  0.00000000000E+00 0. -1.
<mgrwt>
<rscale>  0 0.64662886E+03</rscale>
<asrwt>0</asrwt>
<pdfrwt beam="1">0</pdfrwt>
<pdfrwt beam="2">  1        2 0.38011797E+00 0.64662886E+03</pdfrwt>
<totfact> 0.47235310E+00</totfact>
</mgrwt>
</event>
<event>
 5    1  0.2343702E-004  0.6491039E+03  0.7818608E-02  0.9808462E-01
         13   -1    0    0    0    0  0.00000000000E+00  0.00000000000E+00  0.10000000000E+04  0.10000000000E+04  0.00000000000E+00 0. -1.
          2   -1    0    0  501    0 -0.00000000000E+00 -0.00000000000E+00 -0.10533397221E+03  0.10533397221E+03  0.00000000000E+00 0. -1.
    9000006    2    1    2  501    0  0.00000000000E+00  0.00000000000E+00  0.89466602779E+03  0.11053339722E+04  0.64910391220E+03 0.  0.
         13    1    3    3    0    0  0.24715998056E+03 -0.20901818686E+03  0.40713272433E+03  0.52012855493E+03  0.00000000000E+00 0. -1.
          2    1    3    3  501    0 -0.24715998056E+03  0.20901818686E+03  0.48753330346E+03  0.58520541728E+03  0.00000000000E+00 0. -1.
<mgrwt>
<rscale>  0 0.64910391E+03</rscale>
<asrwt>0</asrwt>
<pdfrwt beam="1">0</pdfrwt>
<pdfrwt beam="2">  1        2 0.38303343E+00 0.64910391E+03</pdfrwt>
<totfact> 0.46069456E+00</totfact>
</mgrwt>
</event>
<event>
 5    1  0.2343702E-004  0.6480425E+03  0.7818608E-02  0.9810459E-01
         13   -1    0    0    0    0  0.00000000000E+00  0.00000000000E+00  0.10000000000E+04  0.10000000000E+04  0.00000000000E+00 0. -1.
          2   -1    0    0  501    0 -0.00000000000E+00 -0.00000000000E+00 -0.10498978293E+03  0.10498978293E+03  0.00000000000E+00 0. -1.
    9000006    2    1    2  501    0  0.00000000000E+00  0.00000000000E+00  0.89501021707E+03  0.11049897829E+04  0.64804253850E+03 0.  0.
         13    1    3    3    0    0  0.11189178279E+02  0.27416019947E+03  0.74136384303E+03  0.79051208747E+03  0.00000000000E+00 0. -1.
          2    1    3    3  501    0 -0.11189178279E+02 -0.27416019947E+03  0.15364637404E+03  0.31447769546E+03  0.00000000000E+00 0. -1.
<mgrwt>
<rscale>  0 0.64804254E+03</rscale>
<asrwt>0</asrwt>
<pdfrwt beam="1">0</pdfrwt>
<pdfrwt beam="2">  1        2 0.38178183E+00 0.64804254E+03</pdfrwt>
<totfact> 0.46566710E+00</totfact>
</mgrwt>
</event>
<event>
 5    1  0.2343702E-004  0.6522451E+03  0.7818608E-02  0.9802575E-01
         13   -1    0    0    0    0  0.00000000000E+00  0.00000000000E+00  0.10000000000E+04  0.10000000000E+04  0.00000000000E+00 0. -1.
          2   -1    0    0  501    0 -0.00000000000E+00 -0.00000000000E+00 -0.10635592200E+03  0.10635592200E+03  0.00000000000E+00 0. -1.
    9000006    2    1    2  501    0  0.00000000000E+00  0.00000000000E+00  0.89364407800E+03  0.11063559220E+04  0.65224511344E+03 0.  0.
         13    1    3    3    0    0  0.31042894065E+03  0.84664807304E+02  0.35671955315E+03  0.48039889299E+03  0.00000000000E+00 0. -1.
          2    1    3    3  501    0 -0.31042894065E+03 -0.84664807304E+02  0.53692452485E+03  0.62595702901E+03  0.00000000000E+00 0. -1.
<mgrwt>
<rscale>  0 0.65224511E+03</rscale>
<asrwt>0</asrwt>
<pdfrwt beam="1">0</pdfrwt>
<pdfrwt beam="2">  1        2 0.38674962E+00 0.65224511E+03</pdfrwt>
<totfact> 0.44621293E+00</totfact>
</mgrwt>
</event>
<event>
 5    1  0.2343702E-004  0.6596272E+03  0.7818608E-02  0.9788880E-01
         13   -1    0    0    0    0  0.00000000000E+00  0.00000000000E+00  0.10000000000E+04  0.10000000000E+04  0.00000000000E+00 0. -1.
          2   -1    0    0  501    0 -0.00000000000E+00 -0.00000000000E+00 -0.10877701405E+03  0.10877701405E+03  0.00000000000E+00 0. -1.
    9000006    2    1    2  501    0  0.00000000000E+00  0.00000000000E+00  0.89122298595E+03  0.11087770140E+04  0.65962721001E+03 0.  0.
         13    1    3    3    0    0 -0.19526311984E+03  0.20092228878E+03  0.15311514649E+03  0.31928310351E+03  0.00000000000E+00 0. -1.
          4    1    3    3  501    0  0.19526311984E+03 -0.20092228878E+03  0.73810783946E+03  0.78949391054E+03  0.00000000000E+00 0. -1.
<mgrwt>
<rscale>  0 0.65962721E+03</rscale>
<asrwt>0</asrwt>
<pdfrwt beam="1">0</pdfrwt>
<pdfrwt beam="2">  1        2 0.39555361E+00 0.65962721E+03</pdfrwt>
<totfact> 0.41353442E+00</totfact>
</mgrwt>
</event>
<event>
 5    1  0.2343702E-004  0.6544801E+03  0.7818608E-02  0.9798409E-01
         13   -1    0    0    0    0  0.00000000000E+00  0.00000000000E+00  0.10000000000E+04  0.10000000000E+04  0.00000000000E+00 0. -1.
          2   -1    0    0  501    0 -0.00000000000E+00 -0.00000000000E+00 -0.10708605856E+03  0.10708605856E+03  0.00000000000E+00 0. -1.
    9000006    2    1    2  501    0  0.00000000000E+00  0.00000000000E+00  0.89291394144E+03  0.11070860586E+04  0.65448012517E+03 0.  0.
         13    1    3    3    0    0 -0.21603214576E+03  0.16188474527E+03  0.13359103453E+03  0.30120279424E+03  0.00000000000E+00 0. -1.
          2    1    3    3  501    0  0.21603214576E+03 -0.16188474527E+03  0.75932290691E+03  0.80588326432E+03  0.00000000000E+00 0. -1.
<mgrwt>
<rscale>  0 0.65448013E+03</rscale>
<asrwt>0</asrwt>
<pdfrwt beam="1">0</pdfrwt>
<pdfrwt beam="2">  1        2 0.38940467E+00 0.65448013E+03</pdfrwt>
<totfact> 0.43612039E+00</totfact>
</mgrwt>
</event>
<event>
 5    1  0.2343702E-004  0.6341801E+03  0.7818608E-02  0.9836925E-01
         13   -1    0    0    0    0  0.00000000000E+00  0.00000000000E+00  0.10000000000E+04  0.10000000000E+04  0.00000000000E+00 0. -1.
          2   -1    0    0  501    0 -0.00000000000E+00 -0.00000000000E+00 -0.10054610968E+03  0.10054610968E+03  0.00000000000E+00 0. -1.
    9000006    2    1    2  501    0  0.00000000000E+00  0.00000000000E+00  0.89945389032E+03  0.11005461097E+04  0.63418013114E+03 0.  0.
         13    1    3    3    0    0 -0.11335982423E+03 -0.20739281156E+03  0.82891698039E+02  0.25046608881E+03  0.00000000000E+00 0. -1.
          4    1    3    3  501    0  0.11335982423E+03  0.20739281156E+03  0.81656219228E+03  0.85008002088E+03  0.00000000000E+00 0. -1.
<mgrwt>
<rscale>  0 0.63418013E+03</rscale>
<asrwt>0</asrwt>
<pdfrwt beam="1">0</pdfrwt>
<pdfrwt beam="2">  1        2 0.36562299E+00 0.63418013E+03</pdfrwt>
<totfact> 0.53441967E+00</totfact>
</mgrwt>
</event>
<event>
 5    1  0.2343702E-004  0.6495328E+03  0.7818608E-02  0.9807656E-01
         13   -1    0    0    0    0  0.00000000000E+00  0.00000000000E+00  0.10000000000E+04  0.10000000000E+04  0.00000000000E+00 0. -1.
          2   -1    0    0  501    0 -0.00000000000E+00 -0.00000000000E+00 -0.10547320502E+03  0.10547320502E+03  0.00000000000E+00 0. -1.
    9000006    2    1    2  501    0  0.00000000000E+00  0.00000000000E+00  0.89452679498E+03  0.11054732050E+04  0.64953277060E+03 0.  0.
         13    1    3    3    0    0 -0.56934254429E+01 -0.82301599273E+01  0.99973751597E+03  0.99978760318E+03  0.00000000000E+00 0. -1.
          4    1    3    3  501    0  0.56934254429E+01  0.82301599273E+01 -0.10521072099E+03  0.10568560184E+03  0.00000000000E+00 0. -1.
<mgrwt>
<rscale>  0 0.64953277E+03</rscale>
<asrwt>0</asrwt>
<pdfrwt beam="1">0</pdfrwt>
<pdfrwt beam="2">  1        2 0.38353974E+00 0.64953277E+03</pdfrwt>
<totfact> 0.45869679E+00</totfact>
</mgrwt>
</event>
<event>
 5    1  0.2343702E-004  0.6072173E+03  0.7818608E-02  0.9890544E-01
         13   -1    0    0    0    0  0.00000000000E+00  0.00000000000E+00  0.10000000000E+04  0.10000000000E+04  0.00000000000E+00 0. -1.
          2   -1    0    0  501    0 -0.00000000000E+00 -0.00000000000E+00 -0.92178225349E+02  0.92178225349E+02  0.00000000000E+00 0. -1.
    9000006    2    1    2  501    0  0.00000000000E+00  0.00000000000E+00  0.90782177465E+03  0.10921782253E+04  0.60721734280E+03 0.  0.
         13    1    3    3    0    0 -0.10793340780E+03 -0.16225217136E+03  0.87266622790E+03  0.89415979162E+03  0.00000000000E+00 0. -1.
          2    1    3    3  501    0  0.10793340780E+03  0.16225217136E+03  0.35155546753E+02  0.19801843373E+03  0.00000000000E+00 0. -1.
<mgrwt>
<rscale>  0 0.60721734E+03</rscale>
<asrwt>0</asrwt>
<pdfrwt beam="1">0</pdfrwt>
<pdfrwt beam="2">  1        2 0.33519425E+00 0.60721734E+03</pdfrwt>
<totfact> 0.68997134E+00</totfact>
</mgrwt>
</event>
<event>
 5    1  0.2343702E-004  0.6531816E+03  0.7818608E-02  0.9800827E-01
         13   -1    0    0    0    0  0.00000000000E+00  0.00000000000E+00  0.10000000000E+04  0.10000000000E+04  0.00000000000E+00 0. -1.
          2   -1    0    0  501    0 -0.00000000000E+00 -0.00000000000E+00 -0.10666155628E+03  0.10666155628E+03  0.00000000000E+00 0. -1.
    9000006    2    1    2  501    0  0.00000000000E+00  0.00000000000E+00  0.89333844372E+03  0.11066615563E+04  0.65318161726E+03 0.  0.
         13    1    3    3    0    0 -0.32118750359E+03 -0.58202110238E+02  0.42868621778E+03  0.53881422718E+03  0.00000000000E+00 0. -1.
          4    1    3    3  501    0  0.32118750359E+03  0.58202110238E+02  0.46465222594E+03  0.56784732910E+03  0.00000000000E+00 0. -1.
<mgrwt>
<rscale>  0 0.65318162E+03</rscale>
<asrwt>0</asrwt>
<pdfrwt beam="1">0</pdfrwt>
<pdfrwt beam="2">  1        2 0.38786102E+00 0.65318162E+03</pdfrwt>
<totfact> 0.44196277E+00</totfact>
</mgrwt>
</event>
<event>
 5    1  0.2343702E-004  0.6443829E+03  0.7818608E-02  0.9817377E-01
         13   -1    0    0    0    0  0.00000000000E+00  0.00000000000E+00  0.10000000000E+04  0.10000000000E+04  0.00000000000E+00 0. -1.
          2   -1    0    0  501    0 -0.00000000000E+00 -0.00000000000E+00 -0.10380731896E+03  0.10380731896E+03  0.00000000000E+00 0. -1.
    9000006    2    1    2  501    0  0.00000000000E+00  0.00000000000E+00  0.89619268104E+03  0.11038073190E+04  0.64438286433E+03 0.  0.
         13    1    3    3    0    0  0.14386631434E+03  0.25292345956E+03  0.68507807692E+03  0.74431160429E+03  0.00000000000E+00 0. -1.
          2    1    3    3  501    0 -0.14386631434E+03 -0.25292345956E+03  0.21111460412E+03  0.35949571467E+03  0.00000000000E+00 0. -1.
<mgrwt>
<rscale>  0 0.64438286E+03</rscale>
<asrwt>0</asrwt>
<pdfrwt beam="1">0</pdfrwt>
<pdfrwt beam="2">  1        2 0.37748196E+00 0.64438286E+03</pdfrwt>
<totfact> 0.48312454E+00</totfact>
</mgrwt>
</event>
<event>
 5    1  0.2343702E-004  0.6467284E+03  0.7818608E-02  0.9812937E-01
         13   -1    0    0    0    0  0.00000000000E+00  0.00000000000E+00  0.10000000000E+04  0.10000000000E+04  0.00000000000E+00 0. -1.
          2   -1    0    0  501    0 -0.00000000000E+00 -0.00000000000E+00 -0.10456442035E+03  0.10456442035E+03  0.00000000000E+00 0. -1.
    9000006    2    1    2  501    0  0.00000000000E+00  0.00000000000E+00  0.89543557965E+03  0.11045644203E+04  0.64672844486E+03 0.  0.
         13    1    3    3    0    0 -0.19776475986E+03 -0.25211386470E+03  0.37342556775E+03  0.49205584609E+03  0.00000000000E+00 0. -1.
          4    1    3    3  501    0  0.19776475986E+03  0.25211386470E+03  0.52201001190E+03  0.61250857426E+03  0.00000000000E+00 0. -1.
<mgrwt>
<rscale>  0 0.64672844E+03</rscale>
<asrwt>0</asrwt>
<pdfrwt beam="1">0</pdfrwt>
<pdfrwt beam="2">  1        2 0.38023506E+00 0.64672844E+03</pdfrwt>
<totfact> 0.47187974E+00</totfact>
</mgrwt>
</event>
<event>
 5    1  0.2343702E-004  0.6462961E+03  0.7818608E-02  0.9813754E-01
         13   -1    0    0    0    0  0.00000000000E+00  0.00000000000E+00  0.10000000000E+04  0.10000000000E+04  0.00000000000E+00 0. -1.
          2   -1    0    0  501    0 -0.00000000000E+00 -0.00000000000E+00 -0.10442465966E+03  0.10442465966E+03  0.00000000000E+00 0. -1.
    9000006    2    1    2  501    0  0.00000000000E+00  0.00000000000E+00  0.89557534034E+03  0.11044246597E+04  0.64629609208E+03 0.  0.
         13    1    3    3    0    0  0.23474230468E+03  0.20944107508E+03  0.57400173658E+03  0.65455901731E+03  0.00000000000E+00 0. -1.
          2    1    3    3  501    0 -0.23474230468E+03 -0.20944107508E+03  0.32157360376E+03  0.44986564235E+03  0.00000000000E+00 0. -1.
<mgrwt>
<rscale>  0 0.64629609E+03</rscale>
<asrwt>0</asrwt>
<pdfrwt beam="1">0</pdfrwt>
<pdfrwt beam="2">  1        2 0.37972684E+00 0.64629609E+03</pdfrwt>
<totfact> 0.47393742E+00</totfact>
</mgrwt>
</event>
<event>
 5    1  0.2343702E-004  0.6264598E+03  0.7818608E-02  0.9851982E-01
         13   -1    0    0    0    0  0.00000000000E+00  0.00000000000E+00  0.10000000000E+04  0.10000000000E+04  0.00000000000E+00 0. -1.
          2   -1    0    0  501    0 -0.00000000000E+00 -0.00000000000E+00 -0.98112976398E+02  0.98112976398E+02  0.00000000000E+00 0. -1.
    9000006    2    1    2  501    0  0.00000000000E+00  0.00000000000E+00  0.90188702360E+03  0.10981129764E+04  0.62645981962E+03 0.  0.
         13    1    3    3    0    0 -0.13498805312E+02 -0.14458925539E+03  0.93742780926E+03  0.94860907021E+03  0.00000000000E+00 0. -1.
          4    1    3    3  501    0  0.13498805312E+02  0.14458925539E+03 -0.35540785658E+02  0.14950390618E+03  0.00000000000E+00 0. -1.
<mgrwt>
<rscale>  0 0.62645982E+03</rscale>
<asrwt>0</asrwt>
<pdfrwt beam="1">0</pdfrwt>
<pdfrwt beam="2">  1        2 0.35677521E+00 0.62645982E+03</pdfrwt>
<totfact> 0.57590010E+00</totfact>
</mgrwt>
</event>
<event>
 5    1  0.2343702E-004  0.6501452E+03  0.7818608E-02  0.9806507E-01
         13   -1    0    0    0    0  0.00000000000E+00  0.00000000000E+00  0.10000000000E+04  0.10000000000E+04  0.00000000000E+00 0. -1.
          2   -1    0    0  501    0 -0.00000000000E+00 -0.00000000000E+00 -0.10567218879E+03  0.10567218879E+03  0.00000000000E+00 0. -1.
    9000006    2    1    2  501    0  0.00000000000E+00  0.00000000000E+00  0.89432781121E+03  0.11056721888E+04  0.65014518007E+03 0.  0.
         13    1    3    3    0    0 -0.16638218188E+03  0.45305147776E+02 -0.21478537269E+02  0.17377259400E+03  0.00000000000E+00 0. -1.
          4    1    3    3  501    0  0.16638218188E+03 -0.45305147776E+02  0.91580634848E+03  0.93189959479E+03  0.00000000000E+00 0. -1.
<mgrwt>
<rscale>  0 0.65014518E+03</rscale>
<asrwt>0</asrwt>
<pdfrwt beam="1">0</pdfrwt>
<pdfrwt beam="2">  1        2 0.38426332E+00 0.65014518E+03</pdfrwt>
<totfact> 0.45585532E+00</totfact>
</mgrwt>
</event>
<event>
 5    1  0.2343702E-004  0.6433611E+03  0.7818608E-02  0.9819317E-01
         13   -1    0    0    0    0  0.00000000000E+00  0.00000000000E+00  0.10000000000E+04  0.10000000000E+04  0.00000000000E+00 0. -1.
          2   -1    0    0  501    0 -0.00000000000E+00 -0.00000000000E+00 -0.10347837891E+03  0.10347837891E+03  0.00000000000E+00 0. -1.
    9000006    2    1    2  501    0  0.00000000000E+00  0.00000000000E+00  0.89652162109E+03  0.11034783789E+04  0.64336110826E+03 0.  0.
         13    1    3    3    0    0 -0.42487036530E+02 -0.44703059437E+02 -0.93243423789E+02  0.11179377387E+03  0.00000000000E+00 0. -1.
          4    1    3    3  501    0  0.42487036530E+02  0.44703059437E+02  0.98976504488E+03  0.99168460504E+03  0.00000000000E+00 0. -1.
<mgrwt>
<rscale>  0 0.64336111E+03</rscale>
<asrwt>0</asrwt>
<pdfrwt beam="1">0</pdfrwt>
<pdfrwt beam="2">  1        2 0.37628581E+00 0.64336111E+03</pdfrwt>
<totfact> 0.48808577E+00</totfact>
</mgrwt>
</event>
<event>
 5    1  0.2343702E-004  0.7568533E+03  0.7818608E-02  0.9624660E-01
         13   -1    0    0    0    0  0.00000000000E+00  0.00000000000E+00  0.10000000000E+04  0.10000000000E+04  0.00000000000E+00 0. -1.
          2   -1    0    0  501    0 -0.00000000000E+00 -0.00000000000E+00 -0.14320671904E+03  0.14320671904E+03  0.00000000000E+00 0. -1.
    9000006    2    1    2  501    0  0.00000000000E+00  0.00000000000E+00  0.85679328096E+03  0.11432067190E+04  0.75685327254E+03 0.  0.
         13    1    3    3    0    0 -0.12237560152E+02 -0.66113677435E+02 -0.13411212819E+03  0.15002279543E+03  0.00000000000E+00 0. -1.
          4    1    3    3  501    0  0.12237560152E+02  0.66113677435E+02  0.99090540915E+03  0.99318392360E+03  0.00000000000E+00 0. -1.
<mgrwt>
<rscale>  0 0.75685327E+03</rscale>
<asrwt>0</asrwt>
<pdfrwt beam="1">0</pdfrwt>
<pdfrwt beam="2">  1        2 0.52075280E+00 0.75685327E+03</pdfrwt>
<totfact> 0.12926883E+00</totfact>
</mgrwt>
</event>
<event>
 5    1  0.2343702E-004  0.7645664E+03  0.7818608E-02  0.9612771E-01
         13   -1    0    0    0    0  0.00000000000E+00  0.00000000000E+00  0.10000000000E+04  0.10000000000E+04  0.00000000000E+00 0. -1.
          2   -1    0    0  501    0 -0.00000000000E+00 -0.00000000000E+00 -0.14614046402E+03  0.14614046402E+03  0.00000000000E+00 0. -1.
    9000006    2    1    2  501    0  0.00000000000E+00  0.00000000000E+00  0.85385953598E+03  0.11461404640E+04  0.76456644975E+03 0.  0.
         13    1    3    3    0    0  0.64172172759E+02  0.36812852943E+03  0.30603553076E+03  0.48300561904E+03  0.00000000000E+00 0. -1.
          4    1    3    3  501    0 -0.64172172759E+02 -0.36812852943E+03  0.54782400521E+03  0.66313484498E+03  0.00000000000E+00 0. -1.
<mgrwt>
<rscale>  0 0.76456645E+03</rscale>
<asrwt>0</asrwt>
<pdfrwt beam="1">0</pdfrwt>
<pdfrwt beam="2">  1        2 0.53142099E+00 0.76456645E+03</pdfrwt>
<totfact> 0.11599790E+00</totfact>
</mgrwt>
</event>
<event>
 5    1  0.2343702E-004  0.6771982E+03  0.7818608E-02  0.9757041E-01
         13   -1    0    0    0    0  0.00000000000E+00  0.00000000000E+00  0.10000000000E+04  0.10000000000E+04  0.00000000000E+00 0. -1.
          2   -1    0    0  501    0 -0.00000000000E+00 -0.00000000000E+00 -0.11464933677E+03  0.11464933677E+03  0.00000000000E+00 0. -1.
    9000006    2    1    2  501    0  0.00000000000E+00  0.00000000000E+00  0.88535066323E+03  0.11146493368E+04  0.67719815938E+03 0.  0.
         13    1    3    3    0    0  0.11589568973E+02  0.21335495437E+03  0.10330469889E+02  0.21391908113E+03  0.00000000000E+00 0. -1.
          2    1    3    3  501    0 -0.11589568973E+02 -0.21335495437E+03  0.87502019335E+03  0.90073025564E+03  0.00000000000E+00 0. -1.
<mgrwt>
<rscale>  0 0.67719816E+03</rscale>
<asrwt>0</asrwt>
<pdfrwt beam="1">0</pdfrwt>
<pdfrwt beam="2">  1        2 0.41690756E+00 0.67719816E+03</pdfrwt>
<totfact> 0.34302411E+00</totfact>
</mgrwt>
</event>
<event>
 5    1  0.2343702E-004  0.6498701E+03  0.7818608E-02  0.9807023E-01
         13   -1    0    0    0    0  0.00000000000E+00  0.00000000000E+00  0.10000000000E+04  0.10000000000E+04  0.00000000000E+00 0. -1.
          2   -1    0    0  501    0 -0.00000000000E+00 -0.00000000000E+00 -0.10558279284E+03  0.10558279284E+03  0.00000000000E+00 0. -1.
    9000006    2    1    2  501    0  0.00000000000E+00  0.00000000000E+00  0.89441720716E+03  0.11055827928E+04  0.64987011885E+03 0.  0.
         13    1    3    3    0    0  0.30415745027E+03 -0.11432849987E+03  0.44751487361E+03  0.55303916908E+03  0.00000000000E+00 0. -1.
          4    1    3    3  501    0 -0.30415745027E+03  0.11432849987E+03  0.44690233354E+03  0.55254362376E+03  0.00000000000E+00 0. -1.
<mgrwt>
<rscale>  0 0.64987012E+03</rscale>
<asrwt>0</asrwt>
<pdfrwt beam="1">0</pdfrwt>
<pdfrwt beam="2">  1        2 0.38393824E+00 0.64987012E+03</pdfrwt>
<totfact> 0.45712990E+00</totfact>
</mgrwt>
</event>
<event>
 5    1  0.2343702E-004  0.6515765E+03  0.7818608E-02  0.9803825E-01
         13   -1    0    0    0    0  0.00000000000E+00  0.00000000000E+00  0.10000000000E+04  0.10000000000E+04  0.00000000000E+00 0. -1.
          2   -1    0    0  501    0 -0.00000000000E+00 -0.00000000000E+00 -0.10613799524E+03  0.10613799524E+03  0.00000000000E+00 0. -1.
    9000006    2    1    2  501    0  0.00000000000E+00  0.00000000000E+00  0.89386200476E+03  0.11061379952E+04  0.65157653498E+03 0.  0.
         13    1    3    3    0    0 -0.39354502616E+02  0.55466171810E+02  0.98781497350E+03  0.99015336942E+03  0.00000000000E+00 0. -1.
          2    1    3    3  501    0  0.39354502616E+02 -0.55466171810E+02 -0.93952968739E+02  0.11598462582E+03  0.00000000000E+00 0. -1.
<mgrwt>
<rscale>  0 0.65157653E+03</rscale>
<asrwt>0</asrwt>
<pdfrwt beam="1">0</pdfrwt>
<pdfrwt beam="2">  1        2 0.38595716E+00 0.65157653E+03</pdfrwt>
<totfact> 0.44926599E+00</totfact>
</mgrwt>
</event>
<event>
 5    1  0.2343702E-004  0.6344494E+03  0.7818608E-02  0.9836404E-01
         13   -1    0    0    0    0  0.00000000000E+00  0.00000000000E+00  0.10000000000E+04  0.10000000000E+04  0.00000000000E+00 0. -1.
          2   -1    0    0  501    0 -0.00000000000E+00 -0.00000000000E+00 -0.10063152006E+03  0.10063152006E+03  0.00000000000E+00 0. -1.
    9000006    2    1    2  501    0  0.00000000000E+00  0.00000000000E+00  0.89936847994E+03  0.11006315201E+04  0.63444943081E+03 0.  0.
         13    1    3    3    0    0  0.28364378552E+03  0.69981801749E+02  0.66412653870E+03  0.72554483600E+03  0.00000000000E+00 0. -1.
          4    1    3    3  501    0 -0.28364378552E+03 -0.69981801749E+02  0.23524194124E+03  0.37508668406E+03  0.00000000000E+00 0. -1.
<mgrwt>
<rscale>  0 0.63444943E+03</rscale>
<asrwt>0</asrwt>
<pdfrwt beam="1">0</pdfrwt>
<pdfrwt beam="2">  1        2 0.36593357E+00 0.63444943E+03</pdfrwt>
<totfact> 0.53301492E+00</totfact>
</mgrwt>
</event>
<event>
 5    1  0.2343702E-004  0.6965161E+03  0.7818608E-02  0.9723209E-01
         13   -1    0    0    0    0  0.00000000000E+00  0.00000000000E+00  0.10000000000E+04  0.10000000000E+04  0.00000000000E+00 0. -1.
          2   -1    0    0  501    0 -0.00000000000E+00 -0.00000000000E+00 -0.12128367291E+03  0.12128367291E+03  0.00000000000E+00 0. -1.
    9000006    2    1    2  501    0  0.00000000000E+00  0.00000000000E+00  0.87871632709E+03  0.11212836729E+04  0.69651611010E+03 0.  0.
         13    1    3    3    0    0  0.49945852931E+02 -0.33757180391E+03  0.55129007267E+03  0.64835951080E+03  0.00000000000E+00 0. -1.
          2    1    3    3  501    0 -0.49945852931E+02  0.33757180391E+03  0.32742625442E+03  0.47292416210E+03  0.00000000000E+00 0. -1.
<mgrwt>
<rscale>  0 0.69651611E+03</rscale>
<asrwt>0</asrwt>
<pdfrwt beam="1">0</pdfrwt>
<pdfrwt beam="2">  1        2 0.44103247E+00 0.69651611E+03</pdfrwt>
<totfact> 0.27639269E+00</totfact>
</mgrwt>
</event>
<event>
 5    1  0.2343702E-004  0.6191269E+03  0.7818608E-02  0.9866500E-01
         13   -1    0    0    0    0  0.00000000000E+00  0.00000000000E+00  0.10000000000E+04  0.10000000000E+04  0.00000000000E+00 0. -1.
          2   -1    0    0  501    0 -0.00000000000E+00 -0.00000000000E+00 -0.95829522019E+02  0.95829522019E+02  0.00000000000E+00 0. -1.
    9000006    2    1    2  501    0  0.00000000000E+00  0.00000000000E+00  0.90417047798E+03  0.10958295220E+04  0.61912687559E+03 0.  0.
         13    1    3    3    0    0 -0.19150213002E+02  0.17847690276E+03  0.89848288419E+03  0.91623808514E+03  0.00000000000E+00 0. -1.
          2    1    3    3  501    0  0.19150213002E+02 -0.17847690276E+03  0.56875937947E+01  0.17959143688E+03  0.00000000000E+00 0. -1.
<mgrwt>
<rscale>  0 0.61912688E+03</rscale>
<asrwt>0</asrwt>
<pdfrwt beam="1">0</pdfrwt>
<pdfrwt beam="2">  1        2 0.34847172E+00 0.61912688E+03</pdfrwt>
<totfact> 0.61752587E+00</totfact>
</mgrwt>
</event>
<event>
 5    1  0.2343702E-004  0.6481175E+03  0.7818608E-02  0.9810318E-01
         13   -1    0    0    0    0  0.00000000000E+00  0.00000000000E+00  0.10000000000E+04  0.10000000000E+04  0.00000000000E+00 0. -1.
          2   -1    0    0  501    0 -0.00000000000E+00 -0.00000000000E+00 -0.10501406909E+03  0.10501406909E+03  0.00000000000E+00 0. -1.
    9000006    2    1    2  501    0  0.00000000000E+00  0.00000000000E+00  0.89498593091E+03  0.11050140691E+04  0.64811748655E+03 0.  0.
         13    1    3    3    0    0 -0.26819970910E+03  0.15651485414E+03  0.60547644486E+03  0.68046286365E+03  0.00000000000E+00 0. -1.
          2    1    3    3  501    0  0.26819970910E+03 -0.15651485414E+03  0.28950948604E+03  0.42455120544E+03  0.00000000000E+00 0. -1.
<mgrwt>
<rscale>  0 0.64811749E+03</rscale>
<asrwt>0</asrwt>
<pdfrwt beam="1">0</pdfrwt>
<pdfrwt beam="2">  1        2 0.38187015E+00 0.64811749E+03</pdfrwt>
<totfact> 0.46531465E+00</totfact>
</mgrwt>
</event>
<event>
 5    1  0.2343702E-004  0.5865982E+03  0.7818608E-02  0.9933607E-01
         13   -1    0    0    0    0  0.00000000000E+00  0.00000000000E+00  0.10000000000E+04  0.10000000000E+04  0.00000000000E+00 0. -1.
          2   -1    0    0  501    0 -0.00000000000E+00 -0.00000000000E+00 -0.86024352399E+02  0.86024352399E+02  0.00000000000E+00 0. -1.
    9000006    2    1    2  501    0  0.00000000000E+00  0.00000000000E+00  0.91397564760E+03  0.10860243524E+04  0.58659816706E+03 0.  0.
         13    1    3    3    0    0  0.21152381420E+03  0.64729534306E+02  0.10042204006E+03  0.24293378257E+03  0.00000000000E+00 0. -1.
          2    1    3    3  501    0 -0.21152381420E+03 -0.64729534306E+02  0.81355360754E+03  0.84309056982E+03  0.00000000000E+00 0. -1.
<mgrwt>
<rscale>  0 0.58659817E+03</rscale>
<asrwt>0</asrwt>
<pdfrwt beam="1">0</pdfrwt>
<pdfrwt beam="2">  1        2 0.31281649E+00 0.58659817E+03</pdfrwt>
<totfact> 0.83064649E+00</totfact>
</mgrwt>
</event>
<event>
 5    1  0.2343702E-004  0.6464511E+03  0.7818608E-02  0.9813461E-01
         13   -1    0    0    0    0  0.00000000000E+00  0.00000000000E+00  0.10000000000E+04  0.10000000000E+04  0.00000000000E+00 0. -1.
          2   -1    0    0  501    0 -0.00000000000E+00 -0.00000000000E+00 -0.10447475099E+03  0.10447475099E+03  0.00000000000E+00 0. -1.
    9000006    2    1    2  501    0  0.00000000000E+00  0.00000000000E+00  0.89552524901E+03  0.11044747510E+04  0.64645108395E+03 0.  0.
         13    1    3    3    0    0  0.11768275018E+03 -0.19314154221E+03  0.84228604840E+03  0.87212308325E+03  0.00000000000E+00 0. -1.
          4    1    3    3  501    0 -0.11768275018E+03  0.19314154221E+03  0.53239200614E+02  0.23235166773E+03  0.00000000000E+00 0. -1.
<mgrwt>
<rscale>  0 0.64645108E+03</rscale>
<asrwt>0</asrwt>
<pdfrwt beam="1">0</pdfrwt>
<pdfrwt beam="2">  1        2 0.37990899E+00 0.64645108E+03</pdfrwt>
<totfact> 0.47319899E+00</totfact>
</mgrwt>
</event>
<event>
 5    1  0.2343702E-004  0.6534656E+03  0.7818608E-02  0.9800298E-01
         13   -1    0    0    0    0  0.00000000000E+00  0.00000000000E+00  0.10000000000E+04  0.10000000000E+04  0.00000000000E+00 0. -1.
          2   -1    0    0  501    0 -0.00000000000E+00 -0.00000000000E+00 -0.10675430747E+03  0.10675430747E+03  0.00000000000E+00 0. -1.
    9000006    2    1    2  501    0  0.00000000000E+00  0.00000000000E+00  0.89324569253E+03  0.11067543075E+04  0.65346555372E+03 0.  0.
         13    1    3    3    0    0  0.32298155739E+03  0.43733926468E+02  0.48541358635E+03  0.58468460947E+03  0.00000000000E+00 0. -1.
          2    1    3    3  501    0 -0.32298155739E+03 -0.43733926468E+02  0.40783210618E+03  0.52206969800E+03  0.00000000000E+00 0. -1.
<mgrwt>
<rscale>  0 0.65346555E+03</rscale>
<asrwt>0</asrwt>
<pdfrwt beam="1">0</pdfrwt>
<pdfrwt beam="2">  1        2 0.38819830E+00 0.65346555E+03</pdfrwt>
<totfact> 0.44068023E+00</totfact>
</mgrwt>
</event>
<event>
 5    1  0.2343702E-004  0.6646820E+03  0.7818608E-02  0.9779613E-01
         13   -1    0    0    0    0  0.00000000000E+00  0.00000000000E+00  0.10000000000E+04  0.10000000000E+04  0.00000000000E+00 0. -1.
          2   -1    0    0  501    0 -0.00000000000E+00 -0.00000000000E+00 -0.11045054128E+03  0.11045054128E+03  0.00000000000E+00 0. -1.
    9000006    2    1    2  501    0  0.00000000000E+00  0.00000000000E+00  0.88954945872E+03  0.11104505413E+04  0.66468200300E+03 0.  0.
         13    1    3    3    0    0 -0.16060926795E+03  0.31771427969E+02 -0.38403457375E+02  0.16816535352E+03  0.00000000000E+00 0. -1.
          2    1    3    3  501    0  0.16060926795E+03 -0.31771427969E+02  0.92795291610E+03  0.94228518776E+03  0.00000000000E+00 0. -1.
<mgrwt>
<rscale>  0 0.66468200E+03</rscale>
<asrwt>0</asrwt>
<pdfrwt beam="1">0</pdfrwt>
<pdfrwt beam="2">  1        2 0.40163918E+00 0.66468200E+03</pdfrwt>
<totfact> 0.39222529E+00</totfact>
</mgrwt>
</event>
<event>
 5    1  0.2343702E-004  0.6461334E+03  0.7818608E-02  0.9814062E-01
         13   -1    0    0    0    0  0.00000000000E+00  0.00000000000E+00  0.10000000000E+04  0.10000000000E+04  0.00000000000E+00 0. -1.
          2   -1    0    0  501    0 -0.00000000000E+00 -0.00000000000E+00 -0.10437209647E+03  0.10437209647E+03  0.00000000000E+00 0. -1.
    9000006    2    1    2  501    0  0.00000000000E+00  0.00000000000E+00  0.89562790353E+03  0.11043720965E+04  0.64613341184E+03 0.  0.
         13    1    3    3    0    0  0.31383513814E+03  0.72615064150E+02  0.40571569455E+03  0.51804504271E+03  0.00000000000E+00 0. -1.
          4    1    3    3  501    0 -0.31383513814E+03 -0.72615064150E+02  0.48991220897E+03  0.58632705376E+03  0.00000000000E+00 0. -1.
<mgrwt>
<rscale>  0 0.64613341E+03</rscale>
<asrwt>0</asrwt>
<pdfrwt beam="1">0</pdfrwt>
<pdfrwt beam="2">  1        2 0.37953570E+00 0.64613341E+03</pdfrwt>
<totfact> 0.47471341E+00</totfact>
</mgrwt>
</event>
<event>
 5    1  0.2343702E-004  0.6548389E+03  0.7818608E-02  0.9797741E-01
         13   -1    0    0    0    0  0.00000000000E+00  0.00000000000E+00  0.10000000000E+04  0.10000000000E+04  0.00000000000E+00 0. -1.
          2   -1    0    0  501    0 -0.00000000000E+00 -0.00000000000E+00 -0.10720349894E+03  0.10720349894E+03  0.00000000000E+00 0. -1.
    9000006    2    1    2  501    0  0.00000000000E+00  0.00000000000E+00  0.89279650106E+03  0.11072034989E+04  0.65483890826E+03 0.  0.
         13    1    3    3    0    0  0.21853804398E+03  0.24311323837E+03  0.41519500677E+03  0.52844093046E+03  0.00000000000E+00 0. -1.
          4    1    3    3  501    0 -0.21853804398E+03 -0.24311323837E+03  0.47760149429E+03  0.57876256849E+03  0.00000000000E+00 0. -1.
<mgrwt>
<rscale>  0 0.65483891E+03</rscale>
<asrwt>0</asrwt>
<pdfrwt beam="1">0</pdfrwt>
<pdfrwt beam="2">  1        2 0.38983173E+00 0.65483891E+03</pdfrwt>
<totfact> 0.43451646E+00</totfact>
</mgrwt>
</event>
<event>
 5    1  0.2343702E-004  0.6663918E+03  0.7818608E-02  0.9776498E-01
         13   -1    0    0    0    0  0.00000000000E+00  0.00000000000E+00  0.10000000000E+04  0.10000000000E+04  0.00000000000E+00 0. -1.
          2   -1    0    0  501    0 -0.00000000000E+00 -0.00000000000E+00 -0.11101950394E+03  0.11101950394E+03  0.00000000000E+00 0. -1.
    9000006    2    1    2  501    0  0.00000000000E+00  0.00000000000E+00  0.88898049606E+03  0.11110195039E+04  0.66639178849E+03 0.  0.
         13    1    3    3    0    0 -0.50154201655E+02 -0.32388560145E+03  0.34442700341E+03  0.47544430531E+03  0.00000000000E+00 0. -1.
          4    1    3    3  501    0  0.50154201655E+02  0.32388560145E+03  0.54455349265E+03  0.63557519864E+03  0.00000000000E+00 0. -1.
<mgrwt>
<rscale>  0 0.66639179E+03</rscale>
<asrwt>0</asrwt>
<pdfrwt beam="1">0</pdfrwt>
<pdfrwt beam="2">  1        2 0.40370814E+00 0.66639179E+03</pdfrwt>
<totfact> 0.38520847E+00</totfact>
</mgrwt>
</event>
<event>
 5    1  0.2343702E-004  0.5784736E+03  0.7818608E-02  0.9951101E-01
         13   -1    0    0    0    0  0.00000000000E+00  0.00000000000E+00  0.10000000000E+04  0.10000000000E+04  0.00000000000E+00 0. -1.
          2   -1    0    0  501    0 -0.00000000000E+00 -0.00000000000E+00 -0.83657917963E+02  0.83657917963E+02  0.00000000000E+00 0. -1.
    9000006    2    1    2  501    0  0.00000000000E+00  0.00000000000E+00  0.91634208204E+03  0.10836579180E+04  0.57847357057E+03 0.  0.
         13    1    3    3    0    0 -0.44271454207E+02 -0.26533525809E+03  0.65726350674E+03  0.71018172191E+03  0.00000000000E+00 0. -1.
          4    1    3    3  501    0  0.44271454207E+02  0.26533525809E+03  0.25907857530E+03  0.37347619605E+03  0.00000000000E+00 0. -1.
<mgrwt>
<rscale>  0 0.57847357E+03</rscale>
<asrwt>0</asrwt>
<pdfrwt beam="1">0</pdfrwt>
<pdfrwt beam="2">  1        2 0.30421125E+00 0.57847357E+03</pdfrwt>
<totfact> 0.89178292E+00</totfact>
</mgrwt>
</event>
<event>
 5    1  0.2343702E-004  0.5558889E+03  0.7818608E-02  0.1000140E+00
         13   -1    0    0    0    0  0.00000000000E+00  0.00000000000E+00  0.10000000000E+04  0.10000000000E+04  0.00000000000E+00 0. -1.
          2   -1    0    0  501    0 -0.00000000000E+00 -0.00000000000E+00 -0.77253115941E+02  0.77253115941E+02  0.00000000000E+00 0. -1.
    9000006    2    1    2  501    0  0.00000000000E+00  0.00000000000E+00  0.92274688406E+03  0.10772531159E+04  0.55588889516E+03 0.  0.
         13    1    3    3    0    0  0.10524424271E+03 -0.10266262731E+03  0.91847447139E+03  0.93016736143E+03  0.00000000000E+00 0. -1.
          4    1    3    3  501    0 -0.10524424271E+03  0.10266262731E+03  0.42724126676E+01  0.14708575451E+03  0.00000000000E+00 0. -1.
<mgrwt>
<rscale>  0 0.55588890E+03</rscale>
<asrwt>0</asrwt>
<pdfrwt beam="1">0</pdfrwt>
<pdfrwt beam="2">  1        2 0.28092101E+00 0.55588890E+03</pdfrwt>
<totfact> 0.10802473E+01</totfact>
</mgrwt>
</event>
<event>
 5    1  0.2343702E-004  0.6428594E+03  0.7818608E-02  0.9820271E-01
         13   -1    0    0    0    0  0.00000000000E+00  0.00000000000E+00  0.10000000000E+04  0.10000000000E+04  0.00000000000E+00 0. -1.
          2   -1    0    0  501    0 -0.00000000000E+00 -0.00000000000E+00 -0.10331704513E+03  0.10331704513E+03  0.00000000000E+00 0. -1.
    9000006    2    1    2  501    0  0.00000000000E+00  0.00000000000E+00  0.89668295487E+03  0.11033170451E+04  0.64285937848E+03 0.  0.
         13    1    3    3    0    0 -0.45724712752E+02  0.21060248701E+03  0.85763699230E+03  0.88429936529E+03  0.00000000000E+00 0. -1.
          2    1    3    3  501    0  0.45724712752E+02 -0.21060248701E+03  0.39045962577E+02  0.21901767984E+03  0.00000000000E+00 0. -1.
<mgrwt>
<rscale>  0 0.64285938E+03</rscale>
<asrwt>0</asrwt>
<pdfrwt beam="1">0</pdfrwt>
<pdfrwt beam="2">  1        2 0.37569914E+00 0.64285938E+03</pdfrwt>
<totfact> 0.49053603E+00</totfact>
</mgrwt>
</event>
<event>
 5    1  0.2343702E-004  0.6548457E+03  0.7818608E-02  0.9797729E-01
         13   -1    0    0    0    0  0.00000000000E+00  0.00000000000E+00  0.10000000000E+04  0.10000000000E+04  0.00000000000E+00 0. -1.
          2   -1    0    0  501    0 -0.00000000000E+00 -0.00000000000E+00 -0.10720573900E+03  0.10720573900E+03  0.00000000000E+00 0. -1.
    9000006    2    1    2  501    0  0.00000000000E+00  0.00000000000E+00  0.89279426100E+03  0.11072057390E+04  0.65484574977E+03 0.  0.
         13    1    3    3    0    0  0.16605551722E+03 -0.27497319288E+03  0.33918130068E+03  0.46714949035E+03  0.00000000000E+00 0. -1.
          4    1    3    3  501    0 -0.16605551722E+03  0.27497319288E+03  0.55361296032E+03  0.64005624865E+03  0.00000000000E+00 0. -1.
<mgrwt>
<rscale>  0 0.65484575E+03</rscale>
<asrwt>0</asrwt>
<pdfrwt beam="1">0</pdfrwt>
<pdfrwt beam="2">  1        2 0.38983987E+00 0.65484575E+03</pdfrwt>
<totfact> 0.43448591E+00</totfact>
</mgrwt>
</event>
<event>
 5    1  0.2343702E-004  0.6599877E+03  0.7818608E-02  0.9788216E-01
         13   -1    0    0    0    0  0.00000000000E+00  0.00000000000E+00  0.10000000000E+04  0.10000000000E+04  0.00000000000E+00 0. -1.
          2   -1    0    0  501    0 -0.00000000000E+00 -0.00000000000E+00 -0.10889592531E+03  0.10889592531E+03  0.00000000000E+00 0. -1.
    9000006    2    1    2  501    0  0.00000000000E+00  0.00000000000E+00  0.89110407469E+03  0.11088959253E+04  0.65998765233E+03 0.  0.
         13    1    3    3    0    0 -0.72604853278E+01  0.59187654588E+02 -0.99768307417E+02  0.11623084043E+03  0.00000000000E+00 0. -1.
          4    1    3    3  501    0  0.72604853278E+01 -0.59187654588E+02  0.99087238211E+03  0.99266508488E+03  0.00000000000E+00 0. -1.
<mgrwt>
<rscale>  0 0.65998765E+03</rscale>
<asrwt>0</asrwt>
<pdfrwt beam="1">0</pdfrwt>
<pdfrwt beam="2">  1        2 0.39598602E+00 0.65998765E+03</pdfrwt>
<totfact> 0.41198666E+00</totfact>
</mgrwt>
</event>
<event>
 5    1  0.2343702E-004  0.6503729E+03  0.7818608E-02  0.9806080E-01
         13   -1    0    0    0    0  0.00000000000E+00  0.00000000000E+00  0.10000000000E+04  0.10000000000E+04  0.00000000000E+00 0. -1.
          2   -1    0    0  501    0 -0.00000000000E+00 -0.00000000000E+00 -0.10574623843E+03  0.10574623843E+03  0.00000000000E+00 0. -1.
    9000006    2    1    2  501    0  0.00000000000E+00  0.00000000000E+00  0.89425376157E+03  0.11057462384E+04  0.65037293434E+03 0.  0.
         13    1    3    3    0    0  0.22433602022E+02  0.24307964892E+03  0.81865636560E+02  0.25747420195E+03  0.00000000000E+00 0. -1.
          2    1    3    3  501    0 -0.22433602022E+02 -0.24307964892E+03  0.81238812501E+03  0.84827203648E+03  0.00000000000E+00 0. -1.
<mgrwt>
<rscale>  0 0.65037293E+03</rscale>
<asrwt>0</asrwt>
<pdfrwt beam="1">0</pdfrwt>
<pdfrwt beam="2">  1        2 0.38453259E+00 0.65037293E+03</pdfrwt>
<totfact> 0.45480199E+00</totfact>
</mgrwt>
</event>
<event>
 5    1  0.2343702E-004  0.6540715E+03  0.7818608E-02  0.9799169E-01
         13   -1    0    0    0    0  0.00000000000E+00  0.00000000000E+00  0.10000000000E+04  0.10000000000E+04  0.00000000000E+00 0. -1.
          2   -1    0    0  501    0 -0.00000000000E+00 -0.00000000000E+00 -0.10695238113E+03  0.10695238113E+03  0.00000000000E+00 0. -1.
    9000006    2    1    2  501    0  0.00000000000E+00  0.00000000000E+00  0.89304761887E+03  0.11069523811E+04  0.65407149801E+03 0.  0.
         13    1    3    3    0    0 -0.60569777690E+00  0.17614201129E+03 -0.19812242926E+02  0.17725377282E+03  0.00000000000E+00 0. -1.
          4    1    3    3  501    0  0.60569777690E+00 -0.17614201129E+03  0.91285986180E+03  0.92969860831E+03  0.00000000000E+00 0. -1.
<mgrwt>
<rscale>  0 0.65407150E+03</rscale>
<asrwt>0</asrwt>
<pdfrwt beam="1">0</pdfrwt>
<pdfrwt beam="2">  1        2 0.38891857E+00 0.65407150E+03</pdfrwt>
<totfact> 0.43795260E+00</totfact>
</mgrwt>
</event>
<event>
 5    1  0.2343702E-004  0.6672986E+03  0.7818608E-02  0.9774850E-01
         13   -1    0    0    0    0  0.00000000000E+00  0.00000000000E+00  0.10000000000E+04  0.10000000000E+04  0.00000000000E+00 0. -1.
          2   -1    0    0  501    0 -0.00000000000E+00 -0.00000000000E+00 -0.11132184176E+03  0.11132184176E+03  0.00000000000E+00 0. -1.
    9000006    2    1    2  501    0  0.00000000000E+00  0.00000000000E+00  0.88867815824E+03  0.11113218418E+04  0.66729855913E+03 0.  0.
         13    1    3    3    0    0 -0.12790250015E+03  0.24380920722E+03  0.75821305016E+03  0.80665296659E+03  0.00000000000E+00 0. -1.
          2    1    3    3  501    0  0.12790250015E+03 -0.24380920722E+03  0.13046510808E+03  0.30466887517E+03  0.00000000000E+00 0. -1.
<mgrwt>
<rscale>  0 0.66729856E+03</rscale>
<asrwt>0</asrwt>
<pdfrwt beam="1">0</pdfrwt>
<pdfrwt beam="2">  1        2 0.40480755E+00 0.66729856E+03</pdfrwt>
<totfact> 0.38152578E+00</totfact>
</mgrwt>
</event>
<event>
 5    1  0.2343702E-004  0.6575561E+03  0.7818608E-02  0.9792703E-01
         13   -1    0    0    0    0  0.00000000000E+00  0.00000000000E+00  0.10000000000E+04  0.10000000000E+04  0.00000000000E+00 0. -1.
          2   -1    0    0  501    0 -0.00000000000E+00 -0.00000000000E+00 -0.10809500494E+03  0.10809500494E+03  0.00000000000E+00 0. -1.
    9000006    2    1    2  501    0  0.00000000000E+00  0.00000000000E+00  0.89190499506E+03  0.11080950049E+04  0.65755609629E+03 0.  0.
         13    1    3    3    0    0  0.31324582776E+03  0.95935378225E+02  0.49266731866E+03  0.59164823357E+03  0.00000000000E+00 0. -1.
          4    1    3    3  501    0 -0.31324582776E+03 -0.95935378225E+02  0.39923767639E+03  0.51644677137E+03  0.00000000000E+00 0. -1.
<mgrwt>
<rscale>  0 0.65755610E+03</rscale>
<asrwt>0</asrwt>
<pdfrwt beam="1">0</pdfrwt>
<pdfrwt beam="2">  1        2 0.39307357E+00 0.65755610E+03</pdfrwt>
<totfact> 0.42251345E+00</totfact>
</mgrwt>
</event>
<event>
 5    1  0.2343702E-004  0.6374914E+03  0.7818608E-02  0.9830538E-01
         13   -1    0    0    0    0  0.00000000000E+00  0.00000000000E+00  0.10000000000E+04  0.10000000000E+04  0.00000000000E+00 0. -1.
          2   -1    0    0  501    0 -0.00000000000E+00 -0.00000000000E+00 -0.10159881706E+03  0.10159881706E+03  0.00000000000E+00 0. -1.
    9000006    2    1    2  501    0  0.00000000000E+00  0.00000000000E+00  0.89840118294E+03  0.11015988171E+04  0.63749138679E+03 0.  0.
         13    1    3    3    0    0 -0.91543116611E+02 -0.29671094606E+03  0.32481557657E+03  0.44935808271E+03  0.00000000000E+00 0. -1.
          4    1    3    3  501    0  0.91543116611E+02  0.29671094606E+03  0.57358560637E+03  0.65224073435E+03  0.00000000000E+00 0. -1.
<mgrwt>
<rscale>  0 0.63749139E+03</rscale>
<asrwt>0</asrwt>
<pdfrwt beam="1">0</pdfrwt>
<pdfrwt beam="2">  1        2 0.36945102E+00 0.63749139E+03</pdfrwt>
<totfact> 0.51734080E+00</totfact>
</mgrwt>
</event>
<event>
 5    1  0.2343702E-004  0.5998997E+03  0.7818608E-02  0.9905614E-01
         13   -1    0    0    0    0  0.00000000000E+00  0.00000000000E+00  0.10000000000E+04  0.10000000000E+04  0.00000000000E+00 0. -1.
          2   -1    0    0  501    0 -0.00000000000E+00 -0.00000000000E+00 -0.89969915676E+02  0.89969915676E+02  0.00000000000E+00 0. -1.
    9000006    2    1    2  501    0  0.00000000000E+00  0.00000000000E+00  0.91003008432E+03  0.10899699157E+04  0.59989971054E+03 0.  0.
         13    1    3    3    0    0  0.16401468827E+03  0.22533679658E+03  0.25357089363E+03  0.37679661352E+03  0.00000000000E+00 0. -1.
          2    1    3    3  501    0 -0.16401468827E+03 -0.22533679658E+03  0.65645919069E+03  0.71317330216E+03  0.00000000000E+00 0. -1.
<mgrwt>
<rscale>  0 0.59989971E+03</rscale>
<asrwt>0</asrwt>
<pdfrwt beam="1">0</pdfrwt>
<pdfrwt beam="2">  1        2 0.32716402E+00 0.59989971E+03</pdfrwt>
<totfact> 0.73759982E+00</totfact>
</mgrwt>
</event>
<event>
 5    1  0.2343702E-004  0.7087471E+03  0.7818608E-02  0.9702389E-01
         13   -1    0    0    0    0  0.00000000000E+00  0.00000000000E+00  0.10000000000E+04  0.10000000000E+04  0.00000000000E+00 0. -1.
          2   -1    0    0  501    0 -0.00000000000E+00 -0.00000000000E+00 -0.12558061747E+03  0.12558061747E+03  0.00000000000E+00 0. -1.
    9000006    2    1    2  501    0  0.00000000000E+00  0.00000000000E+00  0.87441938253E+03  0.11255806175E+04  0.70874711279E+03 0.  0.
         13    1    3    3    0    0  0.11052145915E+03  0.22859502074E+03  0.82980150140E+03  0.86777946978E+03  0.00000000000E+00 0. -1.
          2    1    3    3  501    0 -0.11052145915E+03 -0.22859502074E+03  0.44617881126E+02  0.25780114770E+03  0.00000000000E+00 0. -1.
<mgrwt>
<rscale>  0 0.70874711E+03</rscale>
<asrwt>0</asrwt>
<pdfrwt beam="1">0</pdfrwt>
<pdfrwt beam="2">  1        2 0.45665775E+00 0.70874711E+03</pdfrwt>
<totfact> 0.23957385E+00</totfact>
</mgrwt>
</event>
<event>
 5    1  0.2343702E-004  0.6555718E+03  0.7818608E-02  0.9796380E-01
         13   -1    0    0    0    0  0.00000000000E+00  0.00000000000E+00  0.10000000000E+04  0.10000000000E+04  0.00000000000E+00 0. -1.
          2   -1    0    0  501    0 -0.00000000000E+00 -0.00000000000E+00 -0.10744360621E+03  0.10744360621E+03  0.00000000000E+00 0. -1.
    9000006    2    1    2  501    0  0.00000000000E+00  0.00000000000E+00  0.89255639379E+03  0.11074436062E+04  0.65557183043E+03 0.  0.
         13    1    3    3    0    0 -0.11933614981E+02  0.28073106187E+03  0.16113881128E+03  0.32391056909E+03  0.00000000000E+00 0. -1.
          2    1    3    3  501    0  0.11933614981E+02 -0.28073106187E+03  0.73141758251E+03  0.78353303712E+03  0.00000000000E+00 0. -1.
<mgrwt>
<rscale>  0 0.65557183E+03</rscale>
<asrwt>0</asrwt>
<pdfrwt beam="1">0</pdfrwt>
<pdfrwt beam="2">  1        2 0.39070485E+00 0.65557183E+03</pdfrwt>
<totfact> 0.43125378E+00</totfact>
</mgrwt>
</event>
<event>
 5    1  0.2343702E-004  0.6306534E+03  0.7818608E-02  0.9843775E-01
         13   -1    0    0    0    0  0.00000000000E+00  0.00000000000E+00  0.10000000000E+04  0.10000000000E+04  0.00000000000E+00 0. -1.
          2   -1    0    0  501    0 -0.00000000000E+00 -0.00000000000E+00 -0.99430922345E+02  0.99430922345E+02  0.00000000000E+00 0. -1.
    9000006    2    1    2  501    0  0.00000000000E+00  0.00000000000E+00  0.90056907766E+03  0.10994309223E+04  0.63065338291E+03 0.  0.
         13    1    3    3    0    0 -0.18516776819E+03  0.22264698517E+03  0.66783067150E+03  0.72791248662E+03  0.00000000000E+00 0. -1.
          2    1    3    3  501    0  0.18516776819E+03 -0.22264698517E+03  0.23273840615E+03  0.37151843572E+03  0.00000000000E+00 0. -1.
<mgrwt>
<rscale>  0 0.63065338E+03</rscale>
<asrwt>0</asrwt>
<pdfrwt beam="1">0</pdfrwt>
<pdfrwt beam="2">  1        2 0.36156775E+00 0.63065338E+03</pdfrwt>
<totfact> 0.55307662E+00</totfact>
</mgrwt>
</event>
<event>
 5    1  0.2343702E-004  0.6623023E+03  0.7818608E-02  0.9783965E-01
         13   -1    0    0    0    0  0.00000000000E+00  0.00000000000E+00  0.10000000000E+04  0.10000000000E+04  0.00000000000E+00 0. -1.
          2   -1    0    0  501    0 -0.00000000000E+00 -0.00000000000E+00 -0.10966106851E+03  0.10966106851E+03  0.00000000000E+00 0. -1.
    9000006    2    1    2  501    0  0.00000000000E+00  0.00000000000E+00  0.89033893149E+03  0.11096610685E+04  0.66230225279E+03 0.  0.
         13    1    3    3    0    0  0.26780903243E+03  0.14649667580E+03  0.23009548313E+03  0.38226546434E+03  0.00000000000E+00 0. -1.
          4    1    3    3  501    0 -0.26780903243E+03 -0.14649667580E+03  0.66024344836E+03  0.72739560418E+03  0.00000000000E+00 0. -1.
<mgrwt>
<rscale>  0 0.66230225E+03</rscale>
<asrwt>0</asrwt>
<pdfrwt beam="1">0</pdfrwt>
<pdfrwt beam="2">  1        2 0.39876836E+00 0.66230225E+03</pdfrwt>
<totfact> 0.40215151E+00</totfact>
</mgrwt>
</event>
<event>
 5    1  0.2343702E-004  0.6505687E+03  0.7818608E-02  0.9805713E-01
         13   -1    0    0    0    0  0.00000000000E+00  0.00000000000E+00  0.10000000000E+04  0.10000000000E+04  0.00000000000E+00 0. -1.
          2   -1    0    0  501    0 -0.00000000000E+00 -0.00000000000E+00 -0.10580992222E+03  0.10580992222E+03  0.00000000000E+00 0. -1.
    9000006    2    1    2  501    0  0.00000000000E+00  0.00000000000E+00  0.89419007778E+03  0.11058099222E+04  0.65056874263E+03 0.  0.
         13    1    3    3    0    0 -0.65127684614E+02 -0.29252665959E+03  0.23211445598E+03  0.37906540669E+03  0.00000000000E+00 0. -1.
          2    1    3    3  501    0  0.65127684614E+02  0.29252665959E+03  0.66207562180E+03  0.72674451553E+03  0.00000000000E+00 0. -1.
<mgrwt>
<rscale>  0 0.65056874E+03</rscale>
<asrwt>0</asrwt>
<pdfrwt beam="1">0</pdfrwt>
<pdfrwt beam="2">  1        2 0.38476416E+00 0.65056874E+03</pdfrwt>
<totfact> 0.45389787E+00</totfact>
</mgrwt>
</event>
<event>
 5    1  0.2343702E-004  0.6414913E+03  0.7818608E-02  0.9822877E-01
         13   -1    0    0    0    0  0.00000000000E+00  0.00000000000E+00  0.10000000000E+04  0.10000000000E+04  0.00000000000E+00 0. -1.
          2   -1    0    0  501    0 -0.00000000000E+00 -0.00000000000E+00 -0.10287777443E+03  0.10287777443E+03  0.00000000000E+00 0. -1.
    9000006    2    1    2  501    0  0.00000000000E+00  0.00000000000E+00  0.89712222557E+03  0.11028777744E+04  0.64149130759E+03 0.  0.
         13    1    3    3    0    0 -0.27488725996E+03 -0.37858456242E+02  0.17197435664E+03  0.32645282621E+03  0.00000000000E+00 0. -1.
          4    1    3    3  501    0  0.27488725996E+03  0.37858456242E+02  0.72514786894E+03  0.77642494822E+03  0.00000000000E+00 0. -1.
<mgrwt>
<rscale>  0 0.64149131E+03</rscale>
<asrwt>0</asrwt>
<pdfrwt beam="1">0</pdfrwt>
<pdfrwt beam="2">  1        2 0.37410179E+00 0.64149131E+03</pdfrwt>
<totfact> 0.49726505E+00</totfact>
</mgrwt>
</event>
<event>
 5    1  0.2343702E-004  0.6537566E+03  0.7818608E-02  0.9799756E-01
         13   -1    0    0    0    0  0.00000000000E+00  0.00000000000E+00  0.10000000000E+04  0.10000000000E+04  0.00000000000E+00 0. -1.
          2   -1    0    0  501    0 -0.00000000000E+00 -0.00000000000E+00 -0.10684943302E+03  0.10684943302E+03  0.00000000000E+00 0. -1.
    9000006    2    1    2  501    0  0.00000000000E+00  0.00000000000E+00  0.89315056698E+03  0.11068494330E+04  0.65375663062E+03 0.  0.
         13    1    3    3    0    0 -0.21916964066E+03  0.20234226440E+03  0.22023831718E+03  0.37078651500E+03  0.00000000000E+00 0. -1.
          4    1    3    3  501    0  0.21916964066E+03 -0.20234226440E+03  0.67291224980E+03  0.73606291802E+03  0.00000000000E+00 0. -1.
<mgrwt>
<rscale>  0 0.65375663E+03</rscale>
<asrwt>0</asrwt>
<pdfrwt beam="1">0</pdfrwt>
<pdfrwt beam="2">  1        2 0.38854421E+00 0.65375663E+03</pdfrwt>
<totfact> 0.43936836E+00</totfact>
</mgrwt>
</event>
<event>
 5    1  0.2343702E-004  0.6335505E+03  0.7818608E-02  0.9838145E-01
         13   -1    0    0    0    0  0.00000000000E+00  0.00000000000E+00  0.10000000000E+04  0.10000000000E+04  0.00000000000E+00 0. -1.
          2   -1    0    0  501    0 -0.00000000000E+00 -0.00000000000E+00 -0.10034657285E+03  0.10034657285E+03  0.00000000000E+00 0. -1.
    9000006    2    1    2  501    0  0.00000000000E+00  0.00000000000E+00  0.89965342715E+03  0.11003465728E+04  0.63355054367E+03 0.  0.
         13    1    3    3    0    0 -0.37457438669E+02  0.12885020327E+03  0.94820218595E+03  0.95764963323E+03  0.00000000000E+00 0. -1.
          4    1    3    3  501    0  0.37457438669E+02 -0.12885020327E+03 -0.48548758796E+02  0.14269693961E+03  0.00000000000E+00 0. -1.
<mgrwt>
<rscale>  0 0.63355054E+03</rscale>
<asrwt>0</asrwt>
<pdfrwt beam="1">0</pdfrwt>
<pdfrwt beam="2">  1        2 0.36489740E+00 0.63355054E+03</pdfrwt>
<totfact> 0.53771473E+00</totfact>
</mgrwt>
</event>
<event>
 5    1  0.2343702E-004  0.6480458E+03  0.7818608E-02  0.9810453E-01
         13   -1    0    0    0    0  0.00000000000E+00  0.00000000000E+00  0.10000000000E+04  0.10000000000E+04  0.00000000000E+00 0. -1.
          2   -1    0    0  501    0 -0.00000000000E+00 -0.00000000000E+00 -0.10499085109E+03  0.10499085109E+03  0.00000000000E+00 0. -1.
    9000006    2    1    2  501    0  0.00000000000E+00  0.00000000000E+00  0.89500914891E+03  0.11049908511E+04  0.64804583508E+03 0.  0.
         13    1    3    3    0    0 -0.17390587499E+03 -0.27184951397E+03  0.39792597856E+03  0.51233826328E+03  0.00000000000E+00 0. -1.
          4    1    3    3  501    0  0.17390587499E+03  0.27184951397E+03  0.49708317034E+03  0.59265258781E+03  0.00000000000E+00 0. -1.
<mgrwt>
<rscale>  0 0.64804584E+03</rscale>
<asrwt>0</asrwt>
<pdfrwt beam="1">0</pdfrwt>
<pdfrwt beam="2">  1        2 0.38178572E+00 0.64804584E+03</pdfrwt>
<totfact> 0.46565160E+00</totfact>
</mgrwt>
</event>
<event>
 5    1  0.2343702E-004  0.6431876E+03  0.7818608E-02  0.9819647E-01
         13   -1    0    0    0    0  0.00000000000E+00  0.00000000000E+00  0.10000000000E+04  0.10000000000E+04  0.00000000000E+00 0. -1.
          2   -1    0    0  501    0 -0.00000000000E+00 -0.00000000000E+00 -0.10342255903E+03  0.10342255903E+03  0.00000000000E+00 0. -1.
    9000006    2    1    2  501    0  0.00000000000E+00  0.00000000000E+00  0.89657744097E+03  0.11034225590E+04  0.64318755906E+03 0.  0.
         13    1    3    3    0    0  0.53419879837E+02 -0.14338552625E+03  0.93354918554E+03  0.94600590618E+03  0.00000000000E+00 0. -1.
          4    1    3    3  501    0 -0.53419879837E+02  0.14338552625E+03 -0.36971744570E+02  0.15741665286E+03  0.00000000000E+00 0. -1.
<mgrwt>
<rscale>  0 0.64318756E+03</rscale>
<asrwt>0</asrwt>
<pdfrwt beam="1">0</pdfrwt>
<pdfrwt beam="2">  1        2 0.37608283E+00 0.64318756E+03</pdfrwt>
<totfact> 0.48893227E+00</totfact>
</mgrwt>
</event>
<event>
 5    1  0.2343702E-004  0.6527881E+03  0.7818608E-02  0.9801561E-01
         13   -1    0    0    0    0  0.00000000000E+00  0.00000000000E+00  0.10000000000E+04  0.10000000000E+04  0.00000000000E+00 0. -1.
          2   -1    0    0  501    0 -0.00000000000E+00 -0.00000000000E+00 -0.10653308248E+03  0.10653308248E+03  0.00000000000E+00 0. -1.
    9000006    2    1    2  501    0  0.00000000000E+00  0.00000000000E+00  0.89346691752E+03  0.11065330825E+04  0.65278812025E+03 0.  0.
         13    1    3    3    0    0 -0.55027648275E+02 -0.18387464098E+03 -0.76697459367E+00  0.19193361853E+03  0.00000000000E+00 0. -1.
          4    1    3    3  501    0  0.55027648275E+02  0.18387464098E+03  0.89423389211E+03  0.91459946396E+03  0.00000000000E+00 0. -1.
<mgrwt>
<rscale>  0 0.65278812E+03</rscale>
<asrwt>0</asrwt>
<pdfrwt beam="1">0</pdfrwt>
<pdfrwt beam="2">  1        2 0.38739384E+00 0.65278812E+03</pdfrwt>
<totfact> 0.44374484E+00</totfact>
</mgrwt>
</event>
<event>
 5    1  0.2343702E-004  0.6514527E+03  0.7818608E-02  0.9804057E-01
         13   -1    0    0    0    0  0.00000000000E+00  0.00000000000E+00  0.10000000000E+04  0.10000000000E+04  0.00000000000E+00 0. -1.
          2   -1    0    0  501    0 -0.00000000000E+00 -0.00000000000E+00 -0.10609767038E+03  0.10609767038E+03  0.00000000000E+00 0. -1.
    9000006    2    1    2  501    0  0.00000000000E+00  0.00000000000E+00  0.89390232962E+03  0.11060976704E+04  0.65145274695E+03 0.  0.
         13    1    3    3    0    0  0.22978332053E+02  0.32233967506E+03  0.37763215166E+03  0.49702807952E+03  0.00000000000E+00 0. -1.
          4    1    3    3  501    0 -0.22978332053E+02 -0.32233967506E+03  0.51627017796E+03  0.60906959086E+03  0.00000000000E+00 0. -1.
<mgrwt>
<rscale>  0 0.65145275E+03</rscale>
<asrwt>0</asrwt>
<pdfrwt beam="1">0</pdfrwt>
<pdfrwt beam="2">  1        2 0.38581052E+00 0.65145275E+03</pdfrwt>
<totfact> 0.44983300E+00</totfact>
</mgrwt>
</event>
<event>
 5    1  0.2343702E-004  0.6427558E+03  0.7818608E-02  0.9820468E-01
         13   -1    0    0    0    0  0.00000000000E+00  0.00000000000E+00  0.10000000000E+04  0.10000000000E+04  0.00000000000E+00 0. -1.
          2   -1    0    0  501    0 -0.00000000000E+00 -0.00000000000E+00 -0.10328374088E+03  0.10328374088E+03  0.00000000000E+00 0. -1.
    9000006    2    1    2  501    0  0.00000000000E+00  0.00000000000E+00  0.89671625912E+03  0.11032837409E+04  0.64275575728E+03 0.  0.
         13    1    3    3    0    0  0.26810401336E+03 -0.20692048550E+02  0.14625680130E+03  0.30610288267E+03  0.00000000000E+00 0. -1.
          2    1    3    3  501    0 -0.26810401336E+03  0.20692048550E+02  0.75045945782E+03  0.79718085821E+03  0.00000000000E+00 0. -1.
<mgrwt>
<rscale>  0 0.64275576E+03</rscale>
<asrwt>0</asrwt>
<pdfrwt beam="1">0</pdfrwt>
<pdfrwt beam="2">  1        2 0.37557803E+00 0.64275576E+03</pdfrwt>
<totfact> 0.49104324E+00</totfact>
</mgrwt>
</event>
<event>
 5    1  0.2343702E-004  0.6592381E+03  0.7818608E-02  0.9789597E-01
         13   -1    0    0    0    0  0.00000000000E+00  0.00000000000E+00  0.10000000000E+04  0.10000000000E+04  0.00000000000E+00 0. -1.
          2   -1    0    0  501    0 -0.00000000000E+00 -0.00000000000E+00 -0.10864871729E+03  0.10864871729E+03  0.00000000000E+00 0. -1.
    9000006    2    1    2  501    0  0.00000000000E+00  0.00000000000E+00  0.89135128271E+03  0.11086487173E+04  0.65923809748E+03 0.  0.
         13    1    3    3    0    0 -0.26802579883E+02 -0.26783500164E+03  0.12573128228E+03  0.29708975367E+03  0.00000000000E+00 0. -1.
          2    1    3    3  501    0  0.26802579883E+02  0.26783500164E+03  0.76562000042E+03  0.81155896362E+03  0.00000000000E+00 0. -1.
<mgrwt>
<rscale>  0 0.65923810E+03</rscale>
<asrwt>0</asrwt>
<pdfrwt beam="1">0</pdfrwt>
<pdfrwt beam="2">  1        2 0.39508708E+00 0.65923810E+03</pdfrwt>
<totfact> 0.41521022E+00</totfact>
</mgrwt>
</event>
<event>
 5    1  0.2343702E-004  0.6464147E+03  0.7818608E-02  0.9813530E-01
         13   -1    0    0    0    0  0.00000000000E+00  0.00000000000E+00  0.10000000000E+04  0.10000000000E+04  0.00000000000E+00 0. -1.
          2   -1    0    0  501    0 -0.00000000000E+00 -0.00000000000E+00 -0.10446299923E+03  0.10446299923E+03  0.00000000000E+00 0. -1.
    9000006    2    1    2  501    0  0.00000000000E+00  0.00000000000E+00  0.89553700077E+03  0.11044629992E+04  0.64641472519E+03 0.  0.
         13    1    3    3    0    0  0.21565462751E+03  0.43057749750E+02  0.43071922656E+02  0.22408944353E+03  0.00000000000E+00 0. -1.
          4    1    3    3  501    0 -0.21565462751E+03 -0.43057749750E+02  0.85246507811E+03  0.88037355570E+03  0.00000000000E+00 0. -1.
<mgrwt>
<rscale>  0 0.64641473E+03</rscale>
<asrwt>0</asrwt>
<pdfrwt beam="1">0</pdfrwt>
<pdfrwt beam="2">  1        2 0.37986625E+00 0.64641473E+03</pdfrwt>
<totfact> 0.47337214E+00</totfact>
</mgrwt>
</event>
<event>
 5    1  0.2343702E-004  0.6621382E+03  0.7818608E-02  0.9784266E-01
         13   -1    0    0    0    0  0.00000000000E+00  0.00000000000E+00  0.10000000000E+04  0.10000000000E+04  0.00000000000E+00 0. -1.
          2   -1    0    0  501    0 -0.00000000000E+00 -0.00000000000E+00 -0.10960675718E+03  0.10960675718E+03  0.00000000000E+00 0. -1.
    9000006    2    1    2  501    0  0.00000000000E+00  0.00000000000E+00  0.89039324282E+03  0.11096067572E+04  0.66213822479E+03 0.  0.
         13    1    3    3    0    0  0.20366520767E+03  0.23088857609E+03  0.24120566387E+03  0.39111280172E+03  0.00000000000E+00 0. -1.
          4    1    3    3  501    0 -0.20366520767E+03 -0.23088857609E+03  0.64918757894E+03  0.71849395546E+03  0.00000000000E+00 0. -1.
<mgrwt>
<rscale>  0 0.66213822E+03</rscale>
<asrwt>0</asrwt>
<pdfrwt beam="1">0</pdfrwt>
<pdfrwt beam="2">  1        2 0.39857087E+00 0.66213822E+03</pdfrwt>
<totfact> 0.40284261E+00</totfact>
</mgrwt>
</event>
<event>
 5    1  0.2343702E-004  0.6451070E+03  0.7818608E-02  0.9816004E-01
         13   -1    0    0    0    0  0.00000000000E+00  0.00000000000E+00  0.10000000000E+04  0.10000000000E+04  0.00000000000E+00 0. -1.
          2   -1    0    0  501    0 -0.00000000000E+00 -0.00000000000E+00 -0.10404076161E+03  0.10404076161E+03  0.00000000000E+00 0. -1.
    9000006    2    1    2  501    0  0.00000000000E+00  0.00000000000E+00  0.89595923839E+03  0.11040407616E+04  0.64510700387E+03 0.  0.
         13    1    3    3    0    0  0.14437580098E+03  0.23741813424E+03  0.72830069385E+03  0.77950859074E+03  0.00000000000E+00 0. -1.
          2    1    3    3  501    0 -0.14437580098E+03 -0.23741813424E+03  0.16765854454E+03  0.32453217087E+03  0.00000000000E+00 0. -1.
<mgrwt>
<rscale>  0 0.64510700E+03</rscale>
<asrwt>0</asrwt>
<pdfrwt beam="1">0</pdfrwt>
<pdfrwt beam="2">  1        2 0.37833084E+00 0.64510700E+03</pdfrwt>
<totfact> 0.47963159E+00</totfact>
</mgrwt>
</event>
<event>
 5    1  0.2343702E-004  0.6576792E+03  0.7818608E-02  0.9792476E-01
         13   -1    0    0    0    0  0.00000000000E+00  0.00000000000E+00  0.10000000000E+04  0.10000000000E+04  0.00000000000E+00 0. -1.
          2   -1    0    0  501    0 -0.00000000000E+00 -0.00000000000E+00 -0.10813546978E+03  0.10813546978E+03  0.00000000000E+00 0. -1.
    9000006    2    1    2  501    0  0.00000000000E+00  0.00000000000E+00  0.89186453022E+03  0.11081354698E+04  0.65767916124E+03 0.  0.
         13    1    3    3    0    0 -0.27843233303E+03 -0.17460887095E+03  0.42727238637E+03  0.53904963968E+03  0.00000000000E+00 0. -1.
          2    1    3    3  501    0  0.27843233303E+03  0.17460887095E+03  0.46459214385E+03  0.56908583010E+03  0.00000000000E+00 0. -1.
<mgrwt>
<rscale>  0 0.65767916E+03</rscale>
<asrwt>0</asrwt>
<pdfrwt beam="1">0</pdfrwt>
<pdfrwt beam="2">  1        2 0.39322072E+00 0.65767916E+03</pdfrwt>
<totfact> 0.42197581E+00</totfact>
</mgrwt>
</event>
<event>
 5    1  0.2343702E-004  0.6108012E+03  0.7818608E-02  0.9883247E-01
         13   -1    0    0    0    0  0.00000000000E+00  0.00000000000E+00  0.10000000000E+04  0.10000000000E+04  0.00000000000E+00 0. -1.
          2   -1    0    0  501    0 -0.00000000000E+00 -0.00000000000E+00 -0.93269535249E+02  0.93269535249E+02  0.00000000000E+00 0. -1.
    9000006    2    1    2  501    0  0.00000000000E+00  0.00000000000E+00  0.90673046475E+03  0.10932695352E+04  0.61080122871E+03 0.  0.
         13    1    3    3    0    0  0.22461787186E+03  0.19562036292E+03  0.33264326862E+03  0.44651098408E+03  0.00000000000E+00 0. -1.
          2    1    3    3  501    0 -0.22461787186E+03 -0.19562036292E+03  0.57408719613E+03  0.64675855117E+03  0.00000000000E+00 0. -1.
<mgrwt>
<rscale>  0 0.61080123E+03</rscale>
<asrwt>0</asrwt>
<pdfrwt beam="1">0</pdfrwt>
<pdfrwt beam="2">  1        2 0.33916266E+00 0.61080123E+03</pdfrwt>
<totfact> 0.66752182E+00</totfact>
</mgrwt>
</event>
<event>
 5    1  0.2343702E-004  0.6566895E+03  0.7818608E-02  0.9794307E-01
         13   -1    0    0    0    0  0.00000000000E+00  0.00000000000E+00  0.10000000000E+04  0.10000000000E+04  0.00000000000E+00 0. -1.
          2   -1    0    0  501    0 -0.00000000000E+00 -0.00000000000E+00 -0.10781026281E+03  0.10781026281E+03  0.00000000000E+00 0. -1.
    9000006    2    1    2  501    0  0.00000000000E+00  0.00000000000E+00  0.89218973719E+03  0.11078102628E+04  0.65668946331E+03 0.  0.
         13    1    3    3    0    0  0.22321393632E+03  0.14766267008E+02  0.85155494274E+03  0.88044779772E+03  0.00000000000E+00 0. -1.
          4    1    3    3  501    0 -0.22321393632E+03 -0.14766267008E+02  0.40634794456E+02  0.22736246509E+03  0.00000000000E+00 0. -1.
<mgrwt>
<rscale>  0 0.65668946E+03</rscale>
<asrwt>0</asrwt>
<pdfrwt beam="1">0</pdfrwt>
<pdfrwt beam="2">  1        2 0.39203815E+00 0.65668946E+03</pdfrwt>
<totfact> 0.42631419E+00</totfact>
</mgrwt>
</event>
<event>
 5    1  0.2343702E-004  0.6518898E+03  0.7818608E-02  0.9803240E-01
         13   -1    0    0    0    0  0.00000000000E+00  0.00000000000E+00  0.10000000000E+04  0.10000000000E+04  0.00000000000E+00 0. -1.
          2   -1    0    0  501    0 -0.00000000000E+00 -0.00000000000E+00 -0.10624006306E+03  0.10624006306E+03  0.00000000000E+00 0. -1.
    9000006    2    1    2  501    0  0.00000000000E+00  0.00000000000E+00  0.89375993694E+03  0.11062400631E+04  0.65188975466E+03 0.  0.
         13    1    3    3    0    0 -0.68645849740E+01  0.25278404744E+03  0.97892104237E+02  0.27116371667E+03  0.00000000000E+00 0. -1.
          2    1    3    3  501    0  0.68645849740E+01 -0.25278404744E+03  0.79586783270E+03  0.83507634639E+03  0.00000000000E+00 0. -1.
<mgrwt>
<rscale>  0 0.65188975E+03</rscale>
<asrwt>0</asrwt>
<pdfrwt beam="1">0</pdfrwt>
<pdfrwt beam="2">  1        2 0.38632832E+00 0.65188975E+03</pdfrwt>
<totfact> 0.44783371E+00</totfact>
</mgrwt>
</event>
<event>
 5    1  0.2343702E-004  0.6561864E+03  0.7818608E-02  0.9795240E-01
         13   -1    0    0    0    0  0.00000000000E+00  0.00000000000E+00  0.10000000000E+04  0.10000000000E+04  0.00000000000E+00 0. -1.
          2   -1    0    0  501    0 -0.00000000000E+00 -0.00000000000E+00 -0.10764515433E+03  0.10764515433E+03  0.00000000000E+00 0. -1.
    9000006    2    1    2  501    0  0.00000000000E+00  0.00000000000E+00  0.89235484567E+03  0.11076451543E+04  0.65618641963E+03 0.  0.
         13    1    3    3    0    0 -0.15167298384E+03  0.28915396504E+03  0.50036325909E+03  0.59747644353E+03  0.00000000000E+00 0. -1.
          2    1    3    3  501    0  0.15167298384E+03 -0.28915396504E+03  0.39199158659E+03  0.51016871080E+03  0.00000000000E+00 0. -1.
<mgrwt>
<rscale>  0 0.65618642E+03</rscale>
<asrwt>0</asrwt>
<pdfrwt beam="1">0</pdfrwt>
<pdfrwt beam="2">  1        2 0.39143775E+00 0.65618642E+03</pdfrwt>
<totfact> 0.42853217E+00</totfact>
</mgrwt>
</event>
<event>
 5    1  0.2343702E-004  0.6418495E+03  0.7818608E-02  0.9822194E-01
         13   -1    0    0    0    0  0.00000000000E+00  0.00000000000E+00  0.10000000000E+04  0.10000000000E+04  0.00000000000E+00 0. -1.
          2   -1    0    0  501    0 -0.00000000000E+00 -0.00000000000E+00 -0.10299270883E+03  0.10299270883E+03  0.00000000000E+00 0. -1.
    9000006    2    1    2  501    0  0.00000000000E+00  0.00000000000E+00  0.89700729117E+03  0.11029927088E+04  0.64184954258E+03 0.  0.
         13    1    3    3    0    0  0.11450793743E+03  0.24148057090E+03  0.14317933046E+03  0.30319177846E+03  0.00000000000E+00 0. -1.
          4    1    3    3  501    0 -0.11450793743E+03 -0.24148057090E+03  0.75382796072E+03  0.79980093036E+03  0.00000000000E+00 0. -1.
<mgrwt>
<rscale>  0 0.64184954E+03</rscale>
<asrwt>0</asrwt>
<pdfrwt beam="1">0</pdfrwt>
<pdfrwt beam="2">  1        2 0.37451973E+00 0.64184954E+03</pdfrwt>
<totfact> 0.49549630E+00</totfact>
</mgrwt>
</event>
<event>
 5    1  0.2343702E-004  0.6563472E+03  0.7818608E-02  0.9794942E-01
         13   -1    0    0    0    0  0.00000000000E+00  0.00000000000E+00  0.10000000000E+04  0.10000000000E+04  0.00000000000E+00 0. -1.
          2   -1    0    0  501    0 -0.00000000000E+00 -0.00000000000E+00 -0.10769790303E+03  0.10769790303E+03  0.00000000000E+00 0. -1.
    9000006    2    1    2  501    0  0.00000000000E+00  0.00000000000E+00  0.89230209697E+03  0.11076979030E+04  0.65634717347E+03 0.  0.
         13    1    3    3    0    0 -0.20948546470E+03  0.24220734148E+03  0.56725652618E+03  0.65140503735E+03  0.00000000000E+00 0. -1.
          4    1    3    3  501    0  0.20948546470E+03 -0.24220734148E+03  0.32504557078E+03  0.45629286568E+03  0.00000000000E+00 0. -1.
<mgrwt>
<rscale>  0 0.65634717E+03</rscale>
<asrwt>0</asrwt>
<pdfrwt beam="1">0</pdfrwt>
<pdfrwt beam="2">  1        2 0.39162956E+00 0.65634717E+03</pdfrwt>
<totfact> 0.42782244E+00</totfact>
</mgrwt>
</event>
<event>
 5    1  0.2343702E-004  0.4652012E+03  0.7818608E-02  0.1023283E+00
         13   -1    0    0    0    0  0.00000000000E+00  0.00000000000E+00  0.10000000000E+04  0.10000000000E+04  0.00000000000E+00 0. -1.
          2   -1    0    0  501    0 -0.00000000000E+00 -0.00000000000E+00 -0.54103032244E+02  0.54103032244E+02  0.00000000000E+00 0. -1.
    9000006    2    1    2  501    0  0.00000000000E+00  0.00000000000E+00  0.94589696776E+03  0.10541030322E+04  0.46520117044E+03 0.  0.
         13    1    3    3    0    0 -0.22775776643E+03  0.27900866100E+02  0.38663631281E+03  0.44959948497E+03  0.00000000000E+00 0. -1.
          2    1    3    3  501    0  0.22775776643E+03 -0.27900866100E+02  0.55926065494E+03  0.60450354727E+03  0.00000000000E+00 0. -1.
<mgrwt>
<rscale>  0 0.46520117E+03</rscale>
<asrwt>0</asrwt>
<pdfrwt beam="1">0</pdfrwt>
<pdfrwt beam="2">  1        2 0.19673871E+00 0.46520117E+03</pdfrwt>
<totfact> 0.21853375E+01</totfact>
</mgrwt>
</event>
<event>
 5    1  0.2343702E-004  0.6507481E+03  0.7818608E-02  0.9805377E-01
         13   -1    0    0    0    0  0.00000000000E+00  0.00000000000E+00  0.10000000000E+04  0.10000000000E+04  0.00000000000E+00 0. -1.
          2   -1    0    0  501    0 -0.00000000000E+00 -0.00000000000E+00 -0.10586826094E+03  0.10586826094E+03  0.00000000000E+00 0. -1.
    9000006    2    1    2  501    0  0.00000000000E+00  0.00000000000E+00  0.89413173906E+03  0.11058682609E+04  0.65074806475E+03 0.  0.
         13    1    3    3    0    0 -0.28406402886E+03  0.53954940185E+02  0.19349494851E+03  0.34791349954E+03  0.00000000000E+00 0. -1.
          2    1    3    3  501    0  0.28406402886E+03 -0.53954940185E+02  0.70063679055E+03  0.75795476140E+03  0.00000000000E+00 0. -1.
<mgrwt>
<rscale>  0 0.65074806E+03</rscale>
<asrwt>0</asrwt>
<pdfrwt beam="1">0</pdfrwt>
<pdfrwt beam="2">  1        2 0.38497631E+00 0.65074806E+03</pdfrwt>
<totfact> 0.45307107E+00</totfact>
</mgrwt>
</event>
<event>
 5    1  0.2343702E-004  0.6448958E+03  0.7818608E-02  0.9816404E-01
         13   -1    0    0    0    0  0.00000000000E+00  0.00000000000E+00  0.10000000000E+04  0.10000000000E+04  0.00000000000E+00 0. -1.
          2   -1    0    0  501    0 -0.00000000000E+00 -0.00000000000E+00 -0.10397263890E+03  0.10397263890E+03  0.00000000000E+00 0. -1.
    9000006    2    1    2  501    0  0.00000000000E+00  0.00000000000E+00  0.89602736110E+03  0.11039726389E+04  0.64489577111E+03 0.  0.
         13    1    3    3    0    0  0.29923657413E+03  0.12010724035E+03  0.44443821645E+03  0.54908433298E+03  0.00000000000E+00 0. -1.
          2    1    3    3  501    0 -0.29923657413E+03 -0.12010724035E+03  0.45158914465E+03  0.55488830592E+03  0.00000000000E+00 0. -1.
<mgrwt>
<rscale>  0 0.64489577E+03</rscale>
<asrwt>0</asrwt>
<pdfrwt beam="1">0</pdfrwt>
<pdfrwt beam="2">  1        2 0.37808312E+00 0.64489577E+03</pdfrwt>
<totfact> 0.48064851E+00</totfact>
</mgrwt>
</event>
<event>
 5    1  0.2343702E-004  0.6584378E+03  0.7818608E-02  0.9791074E-01
         13   -1    0    0    0    0  0.00000000000E+00  0.00000000000E+00  0.10000000000E+04  0.10000000000E+04  0.00000000000E+00 0. -1.
          2   -1    0    0  501    0 -0.00000000000E+00 -0.00000000000E+00 -0.10838508013E+03  0.10838508013E+03  0.00000000000E+00 0. -1.
    9000006    2    1    2  501    0  0.00000000000E+00  0.00000000000E+00  0.89161491987E+03  0.11083850801E+04  0.65843778789E+03 0.  0.
         13    1    3    3    0    0 -0.18203589449E+03  0.25846980940E+03  0.29114588980E+03  0.42977859230E+03  0.00000000000E+00 0. -1.
          4    1    3    3  501    0  0.18203589449E+03 -0.25846980940E+03  0.60046903007E+03  0.67860648783E+03  0.00000000000E+00 0. -1.
<mgrwt>
<rscale>  0 0.65843779E+03</rscale>
<asrwt>0</asrwt>
<pdfrwt beam="1">0</pdfrwt>
<pdfrwt beam="2">  1        2 0.39412840E+00 0.65843779E+03</pdfrwt>
<totfact> 0.41867305E+00</totfact>
</mgrwt>
</event>
<event>
 5    1  0.2343702E-004  0.6481230E+03  0.7818608E-02  0.9810308E-01
         13   -1    0    0    0    0  0.00000000000E+00  0.00000000000E+00  0.10000000000E+04  0.10000000000E+04  0.00000000000E+00 0. -1.
          2   -1    0    0  501    0 -0.00000000000E+00 -0.00000000000E+00 -0.10501584147E+03  0.10501584147E+03  0.00000000000E+00 0. -1.
    9000006    2    1    2  501    0  0.00000000000E+00  0.00000000000E+00  0.89498415853E+03  0.11050158415E+04  0.64812295585E+03 0.  0.
         13    1    3    3    0    0  0.12913824828E+03 -0.16370107884E+03  0.24537465703E+02  0.20994479657E+03  0.00000000000E+00 0. -1.
          2    1    3    3  501    0 -0.12913824828E+03  0.16370107884E+03  0.87044669282E+03  0.89507104491E+03  0.00000000000E+00 0. -1.
<mgrwt>
<rscale>  0 0.64812296E+03</rscale>
<asrwt>0</asrwt>
<pdfrwt beam="1">0</pdfrwt>
<pdfrwt beam="2">  1        2 0.38187659E+00 0.64812296E+03</pdfrwt>
<totfact> 0.46528893E+00</totfact>
</mgrwt>
</event>
<event>
 5    1  0.2343702E-004  0.6463337E+03  0.7818608E-02  0.9813683E-01
         13   -1    0    0    0    0  0.00000000000E+00  0.00000000000E+00  0.10000000000E+04  0.10000000000E+04  0.00000000000E+00 0. -1.
          2   -1    0    0  501    0 -0.00000000000E+00 -0.00000000000E+00 -0.10443679842E+03  0.10443679842E+03  0.00000000000E+00 0. -1.
    9000006    2    1    2  501    0  0.00000000000E+00  0.00000000000E+00  0.89556320158E+03  0.11044367984E+04  0.64633365507E+03 0.  0.
         13    1    3    3    0    0  0.29769330325E+03 -0.12259210514E+03  0.49570865896E+03  0.59108138324E+03  0.00000000000E+00 0. -1.
          4    1    3    3  501    0 -0.29769330325E+03  0.12259210514E+03  0.39985454262E+03  0.51335541518E+03  0.00000000000E+00 0. -1.
<mgrwt>
<rscale>  0 0.64633366E+03</rscale>
<asrwt>0</asrwt>
<pdfrwt beam="1">0</pdfrwt>
<pdfrwt beam="2">  1        2 0.37977098E+00 0.64633366E+03</pdfrwt>
<totfact> 0.47375838E+00</totfact>
</mgrwt>
</event>
<event>
 5    1  0.2343702E-004  0.6571891E+03  0.7818608E-02  0.9793382E-01
         13   -1    0    0    0    0  0.00000000000E+00  0.00000000000E+00  0.10000000000E+04  0.10000000000E+04  0.00000000000E+00 0. -1.
          2   -1    0    0  501    0 -0.00000000000E+00 -0.00000000000E+00 -0.10797437786E+03  0.10797437786E+03  0.00000000000E+00 0. -1.
    9000006    2    1    2  501    0  0.00000000000E+00  0.00000000000E+00  0.89202562214E+03  0.11079743779E+04  0.65718909870E+03 0.  0.
         13    1    3    3    0    0 -0.13015899505E+03  0.89628262057E+02  0.93172372188E+03  0.94503104884E+03  0.00000000000E+00 0. -1.
          2    1    3    3  501    0  0.13015899505E+03 -0.89628262057E+02 -0.39698099743E+02  0.16294332903E+03  0.00000000000E+00 0. -1.
<mgrwt>
<rscale>  0 0.65718910E+03</rscale>
<asrwt>0</asrwt>
<pdfrwt beam="1">0</pdfrwt>
<pdfrwt beam="2">  1        2 0.39263493E+00 0.65718910E+03</pdfrwt>
<totfact> 0.42411983E+00</totfact>
</mgrwt>
</event>
<event>
 5    1  0.2343702E-004  0.6412134E+03  0.7818608E-02  0.9823408E-01
         13   -1    0    0    0    0  0.00000000000E+00  0.00000000000E+00  0.10000000000E+04  0.10000000000E+04  0.00000000000E+00 0. -1.
          2   -1    0    0  501    0 -0.00000000000E+00 -0.00000000000E+00 -0.10278866209E+03  0.10278866209E+03  0.00000000000E+00 0. -1.
    9000006    2    1    2  501    0  0.00000000000E+00  0.00000000000E+00  0.89721133791E+03  0.11027886621E+04  0.64121341872E+03 0.  0.
         13    1    3    3    0    0 -0.13519083600E+03 -0.28821313645E+03  0.38322236287E+03  0.49819951181E+03  0.00000000000E+00 0. -1.
          4    1    3    3  501    0  0.13519083600E+03  0.28821313645E+03  0.51398897505E+03  0.60458915028E+03  0.00000000000E+00 0. -1.
<mgrwt>
<rscale>  0 0.64121342E+03</rscale>
<asrwt>0</asrwt>
<pdfrwt beam="1">0</pdfrwt>
<pdfrwt beam="2">  1        2 0.37377774E+00 0.64121342E+03</pdfrwt>
<totfact> 0.49864039E+00</totfact>
</mgrwt>
</event>
<event>
 5    1  0.2343702E-004  0.6250395E+03  0.7818608E-02  0.9854777E-01
         13   -1    0    0    0    0  0.00000000000E+00  0.00000000000E+00  0.10000000000E+04  0.10000000000E+04  0.00000000000E+00 0. -1.
          2   -1    0    0  501    0 -0.00000000000E+00 -0.00000000000E+00 -0.97668588293E+02  0.97668588293E+02  0.00000000000E+00 0. -1.
    9000006    2    1    2  501    0  0.00000000000E+00  0.00000000000E+00  0.90233141171E+03  0.10976685883E+04  0.62503948129E+03 0.  0.
         13    1    3    3    0    0  0.19996533731E+03 -0.12254270877E+03  0.88419056303E+02  0.25064074113E+03  0.00000000000E+00 0. -1.
          4    1    3    3  501    0 -0.19996533731E+03  0.12254270877E+03  0.81391235540E+03  0.84702784717E+03  0.00000000000E+00 0. -1.
<mgrwt>
<rscale>  0 0.62503948E+03</rscale>
<asrwt>0</asrwt>
<pdfrwt beam="1">0</pdfrwt>
<pdfrwt beam="2">  1        2 0.35515925E+00 0.62503948E+03</pdfrwt>
<totfact> 0.58379087E+00</totfact>
</mgrwt>
</event>
<event>
 5    1  0.2343702E-004  0.6505213E+03  0.7818608E-02  0.9805802E-01
         13   -1    0    0    0    0  0.00000000000E+00  0.00000000000E+00  0.10000000000E+04  0.10000000000E+04  0.00000000000E+00 0. -1.
          2   -1    0    0  501    0 -0.00000000000E+00 -0.00000000000E+00 -0.10579447461E+03  0.10579447461E+03  0.00000000000E+00 0. -1.
    9000006    2    1    2  501    0  0.00000000000E+00  0.00000000000E+00  0.89420552539E+03  0.11057944746E+04  0.65052125134E+03 0.  0.
         13    1    3    3    0    0  0.22675024156E+03 -0.15629231357E+03  0.15291654261E+03  0.31500226719E+03  0.00000000000E+00 0. -1.
          2    1    3    3  501    0 -0.22675024156E+03  0.15629231357E+03  0.74128898278E+03  0.79079220742E+03  0.00000000000E+00 0. -1.
<mgrwt>
<rscale>  0 0.65052125E+03</rscale>
<asrwt>0</asrwt>
<pdfrwt beam="1">0</pdfrwt>
<pdfrwt beam="2">  1        2 0.38470799E+00 0.65052125E+03</pdfrwt>
<totfact> 0.45411703E+00</totfact>
</mgrwt>
</event>
<event>
 5    1  0.2343702E-004  0.6510645E+03  0.7818608E-02  0.9804784E-01
         13   -1    0    0    0    0  0.00000000000E+00  0.00000000000E+00  0.10000000000E+04  0.10000000000E+04  0.00000000000E+00 0. -1.
          2   -1    0    0  501    0 -0.00000000000E+00 -0.00000000000E+00 -0.10597123994E+03  0.10597123994E+03  0.00000000000E+00 0. -1.
    9000006    2    1    2  501    0  0.00000000000E+00  0.00000000000E+00  0.89402876006E+03  0.11059712399E+04  0.65106448201E+03 0.  0.
         13    1    3    3    0    0  0.10187721464E+03  0.21638361582E+03  0.82215838106E+03  0.85623900846E+03  0.00000000000E+00 0. -1.
          4    1    3    3  501    0 -0.10187721464E+03 -0.21638361582E+03  0.71870379001E+02  0.24973223147E+03  0.00000000000E+00 0. -1.
<mgrwt>
<rscale>  0 0.65106448E+03</rscale>
<asrwt>0</asrwt>
<pdfrwt beam="1">0</pdfrwt>
<pdfrwt beam="2">  1        2 0.38535078E+00 0.65106448E+03</pdfrwt>
<totfact> 0.45161493E+00</totfact>
</mgrwt>
</event>
<event>
 5    1  0.2343702E-004  0.8318008E+03  0.7818608E-02  0.9515094E-01
         13   -1    0    0    0    0  0.00000000000E+00  0.00000000000E+00  0.10000000000E+04  0.10000000000E+04  0.00000000000E+00 0. -1.
          2   -1    0    0  501    0 -0.00000000000E+00 -0.00000000000E+00 -0.17297315485E+03  0.17297315485E+03  0.00000000000E+00 0. -1.
    9000006    2    1    2  501    0  0.00000000000E+00  0.00000000000E+00  0.82702684515E+03  0.11729731549E+04  0.83180082917E+03 0.  0.
         13    1    3    3    0    0 -0.33279842377E+03 -0.17830171872E+03  0.16753483710E+03  0.41305473657E+03  0.00000000000E+00 0. -1.
          2    1    3    3  501    0  0.33279842377E+03  0.17830171872E+03  0.65949200805E+03  0.75991841828E+03  0.00000000000E+00 0. -1.
<mgrwt>
<rscale>  0 0.83180083E+03</rscale>
<asrwt>0</asrwt>
<pdfrwt beam="1">0</pdfrwt>
<pdfrwt beam="2">  1        2 0.62899462E+00 0.83180083E+03</pdfrwt>
<totfact> 0.38913308E-01</totfact>
</mgrwt>
</event>
<event>
 5    1  0.2343702E-004  0.6513216E+03  0.7818608E-02  0.9804302E-01
         13   -1    0    0    0    0  0.00000000000E+00  0.00000000000E+00  0.10000000000E+04  0.10000000000E+04  0.00000000000E+00 0. -1.
          2   -1    0    0  501    0 -0.00000000000E+00 -0.00000000000E+00 -0.10605496197E+03  0.10605496197E+03  0.00000000000E+00 0. -1.
    9000006    2    1    2  501    0  0.00000000000E+00  0.00000000000E+00  0.89394503803E+03  0.11060549620E+04  0.65132161632E+03 0.  0.
         13    1    3    3    0    0 -0.27330980989E+03 -0.15061425025E+03  0.60511272083E+03  0.68084088410E+03  0.00000000000E+00 0. -1.
          4    1    3    3  501    0  0.27330980989E+03  0.15061425025E+03  0.28883231720E+03  0.42521407787E+03  0.00000000000E+00 0. -1.
<mgrwt>
<rscale>  0 0.65132162E+03</rscale>
<asrwt>0</asrwt>
<pdfrwt beam="1">0</pdfrwt>
<pdfrwt beam="2">  1        2 0.38565522E+00 0.65132162E+03</pdfrwt>
<totfact> 0.45043422E+00</totfact>
</mgrwt>
</event>
<event>
 5    1  0.2343702E-004  0.7047861E+03  0.7818608E-02  0.9709082E-01
         13   -1    0    0    0    0  0.00000000000E+00  0.00000000000E+00  0.10000000000E+04  0.10000000000E+04  0.00000000000E+00 0. -1.
          2   -1    0    0  501    0 -0.00000000000E+00 -0.00000000000E+00 -0.12418084780E+03  0.12418084780E+03  0.00000000000E+00 0. -1.
    9000006    2    1    2  501    0  0.00000000000E+00  0.00000000000E+00  0.87581915220E+03  0.11241808478E+04  0.70478606060E+03 0.  0.
         13    1    3    3    0    0  0.75031165982E+02  0.31687950854E+03  0.65273226462E+03  0.72945301979E+03  0.00000000000E+00 0. -1.
          2    1    3    3  501    0 -0.75031165982E+02 -0.31687950854E+03  0.22308688758E+03  0.39472782802E+03  0.00000000000E+00 0. -1.
<mgrwt>
<rscale>  0 0.70478606E+03</rscale>
<asrwt>0</asrwt>
<pdfrwt beam="1">0</pdfrwt>
<pdfrwt beam="2">  1        2 0.45156767E+00 0.70478606E+03</pdfrwt>
<totfact> 0.25106598E+00</totfact>
</mgrwt>
</event>
<event>
 5    1  0.2343702E-004  0.6509373E+03  0.7818608E-02  0.9805022E-01
         13   -1    0    0    0    0  0.00000000000E+00  0.00000000000E+00  0.10000000000E+04  0.10000000000E+04  0.00000000000E+00 0. -1.
          2   -1    0    0  501    0 -0.00000000000E+00 -0.00000000000E+00 -0.10592984426E+03  0.10592984426E+03  0.00000000000E+00 0. -1.
    9000006    2    1    2  501    0  0.00000000000E+00  0.00000000000E+00  0.89407015574E+03  0.11059298443E+04  0.65093730653E+03 0.  0.
         13    1    3    3    0    0  0.71838953702E+02  0.13669200881E+03 -0.39728948394E+02  0.15944883155E+03  0.00000000000E+00 0. -1.
          4    1    3    3  501    0 -0.71838953702E+02 -0.13669200881E+03  0.93379910413E+03  0.94648101271E+03  0.00000000000E+00 0. -1.
<mgrwt>
<rscale>  0 0.65093731E+03</rscale>
<asrwt>0</asrwt>
<pdfrwt beam="1">0</pdfrwt>
<pdfrwt beam="2">  1        2 0.38520025E+00 0.65093731E+03</pdfrwt>
<totfact> 0.45219976E+00</totfact>
</mgrwt>
</event>
<event>
 5    1  0.2343702E-004  0.6409526E+03  0.7818608E-02  0.9823906E-01
         13   -1    0    0    0    0  0.00000000000E+00  0.00000000000E+00  0.10000000000E+04  0.10000000000E+04  0.00000000000E+00 0. -1.
          2   -1    0    0  501    0 -0.00000000000E+00 -0.00000000000E+00 -0.10270506671E+03  0.10270506671E+03  0.00000000000E+00 0. -1.
    9000006    2    1    2  501    0  0.00000000000E+00  0.00000000000E+00  0.89729493329E+03  0.11027050667E+04  0.64095262450E+03 0.  0.
         13    1    3    3    0    0  0.18538110140E+03  0.22672904691E+03  0.22477611978E+03  0.36918358237E+03  0.00000000000E+00 0. -1.
          4    1    3    3  501    0 -0.18538110140E+03 -0.22672904691E+03  0.67251881351E+03  0.73352148434E+03  0.00000000000E+00 0. -1.
<mgrwt>
<rscale>  0 0.64095262E+03</rscale>
<asrwt>0</asrwt>
<pdfrwt beam="1">0</pdfrwt>
<pdfrwt beam="2">  1        2 0.37347376E+00 0.64095262E+03</pdfrwt>
<totfact> 0.49993374E+00</totfact>
</mgrwt>
</event>
<event>
 5    1  0.2343702E-004  0.6395287E+03  0.7818608E-02  0.9826629E-01
         13   -1    0    0    0    0  0.00000000000E+00  0.00000000000E+00  0.10000000000E+04  0.10000000000E+04  0.00000000000E+00 0. -1.
          2   -1    0    0  501    0 -0.00000000000E+00 -0.00000000000E+00 -0.10224923002E+03  0.10224923002E+03  0.00000000000E+00 0. -1.
    9000006    2    1    2  501    0  0.00000000000E+00  0.00000000000E+00  0.89775076998E+03  0.11022492300E+04  0.63952867027E+03 0.  0.
         13    1    3    3    0    0  0.27321150992E+03  0.16597532516E+03  0.46187548129E+03  0.56171282515E+03  0.00000000000E+00 0. -1.
          4    1    3    3  501    0 -0.27321150992E+03 -0.16597532516E+03  0.43587528868E+03  0.54053640488E+03  0.00000000000E+00 0. -1.
<mgrwt>
<rscale>  0 0.63952867E+03</rscale>
<asrwt>0</asrwt>
<pdfrwt beam="1">0</pdfrwt>
<pdfrwt beam="2">  1        2 0.37181617E+00 0.63952867E+03</pdfrwt>
<totfact> 0.50704040E+00</totfact>
</mgrwt>
</event>
<event>
 5    1  0.2343702E-004  0.6499067E+03  0.7818608E-02  0.9806954E-01
         13   -1    0    0    0    0  0.00000000000E+00  0.00000000000E+00  0.10000000000E+04  0.10000000000E+04  0.00000000000E+00 0. -1.
          2   -1    0    0  501    0 -0.00000000000E+00 -0.00000000000E+00 -0.10559467044E+03  0.10559467044E+03  0.00000000000E+00 0. -1.
    9000006    2    1    2  501    0  0.00000000000E+00  0.00000000000E+00  0.89440532956E+03  0.11055946704E+04  0.64990667156E+03 0.  0.
         13    1    3    3    0    0  0.22485153378E+03 -0.20824337008E+03  0.26342112023E+03  0.40412151638E+03  0.00000000000E+00 0. -1.
          2    1    3    3  501    0 -0.22485153378E+03  0.20824337008E+03  0.63098420934E+03  0.70147315405E+03  0.00000000000E+00 0. -1.
<mgrwt>
<rscale>  0 0.64990667E+03</rscale>
<asrwt>0</asrwt>
<pdfrwt beam="1">0</pdfrwt>
<pdfrwt beam="2">  1        2 0.38398143E+00 0.64990667E+03</pdfrwt>
<totfact> 0.45696037E+00</totfact>
</mgrwt>
</event>
<event>
 5    1  0.2343702E-004  0.6301127E+03  0.7818608E-02  0.9844829E-01
         13   -1    0    0    0    0  0.00000000000E+00  0.00000000000E+00  0.10000000000E+04  0.10000000000E+04  0.00000000000E+00 0. -1.
          2   -1    0    0  501    0 -0.00000000000E+00 -0.00000000000E+00 -0.99260505168E+02  0.99260505168E+02  0.00000000000E+00 0. -1.
    9000006    2    1    2  501    0  0.00000000000E+00  0.00000000000E+00  0.90073949483E+03  0.10992605052E+04  0.63011270474E+03 0.  0.
         13    1    3    3    0    0 -0.19528663326E+03  0.18376284688E+03  0.16183403478E+03  0.31320266256E+03  0.00000000000E+00 0. -1.
          2    1    3    3  501    0  0.19528663326E+03 -0.18376284688E+03  0.73890546005E+03  0.78605784261E+03  0.00000000000E+00 0. -1.
<mgrwt>
<rscale>  0 0.63011270E+03</rscale>
<asrwt>0</asrwt>
<pdfrwt beam="1">0</pdfrwt>
<pdfrwt beam="2">  1        2 0.36094805E+00 0.63011270E+03</pdfrwt>
<totfact> 0.55597999E+00</totfact>
</mgrwt>
</event>
<event>
 5    1  0.2343702E-004  0.6638711E+03  0.7818608E-02  0.9781094E-01
         13   -1    0    0    0    0  0.00000000000E+00  0.00000000000E+00  0.10000000000E+04  0.10000000000E+04  0.00000000000E+00 0. -1.
          2   -1    0    0  501    0 -0.00000000000E+00 -0.00000000000E+00 -0.11018121447E+03  0.11018121447E+03  0.00000000000E+00 0. -1.
    9000006    2    1    2  501    0  0.00000000000E+00  0.00000000000E+00  0.88981878553E+03  0.11101812145E+04  0.66387111542E+03 0.  0.
         13    1    3    3    0    0 -0.26212944460E+03  0.20329616762E+03  0.46469874008E+03  0.57095192138E+03  0.00000000000E+00 0. -1.
          2    1    3    3  501    0  0.26212944460E+03 -0.20329616762E+03  0.42512004545E+03  0.53922929310E+03  0.00000000000E+00 0. -1.
<mgrwt>
<rscale>  0 0.66387112E+03</rscale>
<asrwt>0</asrwt>
<pdfrwt beam="1">0</pdfrwt>
<pdfrwt beam="2">  1        2 0.40065981E+00 0.66387112E+03</pdfrwt>
<totfact> 0.39558660E+00</totfact>
</mgrwt>
</event>
<event>
 5    1  0.2343702E-004  0.6037977E+03  0.7818608E-02  0.9897558E-01
         13   -1    0    0    0    0  0.00000000000E+00  0.00000000000E+00  0.10000000000E+04  0.10000000000E+04  0.00000000000E+00 0. -1.
          2   -1    0    0  501    0 -0.00000000000E+00 -0.00000000000E+00 -0.91142903589E+02  0.91142903589E+02  0.00000000000E+00 0. -1.
    9000006    2    1    2  501    0  0.00000000000E+00  0.00000000000E+00  0.90885709641E+03  0.10911429036E+04  0.60379766011E+03 0.  0.
         13    1    3    3    0    0 -0.19695669955E+03  0.10934098792E+03  0.91219418069E+02  0.24303986375E+03  0.00000000000E+00 0. -1.
          2    1    3    3  501    0  0.19695669955E+03 -0.10934098792E+03  0.81763767834E+03  0.84810303984E+03  0.00000000000E+00 0. -1.
<mgrwt>
<rscale>  0 0.60379766E+03</rscale>
<asrwt>0</asrwt>
<pdfrwt beam="1">0</pdfrwt>
<pdfrwt beam="2">  1        2 0.33142944E+00 0.60379766E+03</pdfrwt>
<totfact> 0.71192633E+00</totfact>
</mgrwt>
</event>
<event>
 5    1  0.2343702E-004  0.6184490E+03  0.7818608E-02  0.9867853E-01
         13   -1    0    0    0    0  0.00000000000E+00  0.00000000000E+00  0.10000000000E+04  0.10000000000E+04  0.00000000000E+00 0. -1.
          2   -1    0    0  501    0 -0.00000000000E+00 -0.00000000000E+00 -0.95619795283E+02  0.95619795283E+02  0.00000000000E+00 0. -1.
    9000006    2    1    2  501    0  0.00000000000E+00  0.00000000000E+00  0.90438020472E+03  0.10956197953E+04  0.61844901256E+03 0.  0.
         13    1    3    3    0    0  0.28880515843E+03  0.10931633927E+03  0.48082773224E+03  0.57144885131E+03  0.00000000000E+00 0. -1.
          4    1    3    3  501    0 -0.28880515843E+03 -0.10931633927E+03  0.42355247247E+03  0.52417094397E+03  0.00000000000E+00 0. -1.
<mgrwt>
<rscale>  0 0.61844901E+03</rscale>
<asrwt>0</asrwt>
<pdfrwt beam="1">0</pdfrwt>
<pdfrwt beam="2">  1        2 0.34770908E+00 0.61844901E+03</pdfrwt>
<totfact> 0.62148619E+00</totfact>
</mgrwt>
</event>
<event>
 5    1  0.2343702E-004  0.6589867E+03  0.7818608E-02  0.9790061E-01
         13   -1    0    0    0    0  0.00000000000E+00  0.00000000000E+00  0.10000000000E+04  0.10000000000E+04  0.00000000000E+00 0. -1.
          2   -1    0    0  501    0 -0.00000000000E+00 -0.00000000000E+00 -0.10856587892E+03  0.10856587892E+03  0.00000000000E+00 0. -1.
    9000006    2    1    2  501    0  0.00000000000E+00  0.00000000000E+00  0.89143412108E+03  0.11085658789E+04  0.65898673407E+03 0.  0.
         13    1    3    3    0    0 -0.74764329905E+02  0.25021608273E+03  0.78370710902E+03  0.82607180428E+03  0.00000000000E+00 0. -1.
          4    1    3    3  501    0  0.74764329905E+02 -0.25021608273E+03  0.10772701206E+03  0.28249407464E+03  0.00000000000E+00 0. -1.
<mgrwt>
<rscale>  0 0.65898673E+03</rscale>
<asrwt>0</asrwt>
<pdfrwt beam="1">0</pdfrwt>
<pdfrwt beam="2">  1        2 0.39478585E+00 0.65898673E+03</pdfrwt>
<totfact> 0.41629550E+00</totfact>
</mgrwt>
</event>
<event>
 5    1  0.2343702E-004  0.6496978E+03  0.7818608E-02  0.9807346E-01
         13   -1    0    0    0    0  0.00000000000E+00  0.00000000000E+00  0.10000000000E+04  0.10000000000E+04  0.00000000000E+00 0. -1.
          2   -1    0    0  501    0 -0.00000000000E+00 -0.00000000000E+00 -0.10552682186E+03  0.10552682186E+03  0.00000000000E+00 0. -1.
    9000006    2    1    2  501    0  0.00000000000E+00  0.00000000000E+00  0.89447317814E+03  0.11055268219E+04  0.64969784317E+03 0.  0.
         13    1    3    3    0    0 -0.34643622117E+02  0.69147280015E+02  0.98410546551E+03  0.98713985541E+03  0.00000000000E+00 0. -1.
          2    1    3    3  501    0  0.34643622117E+02 -0.69147280015E+02 -0.89632287365E+02  0.11838696645E+03  0.00000000000E+00 0. -1.
<mgrwt>
<rscale>  0 0.64969784E+03</rscale>
<asrwt>0</asrwt>
<pdfrwt beam="1">0</pdfrwt>
<pdfrwt beam="2">  1        2 0.38373471E+00 0.64969784E+03</pdfrwt>
<totfact> 0.45792957E+00</totfact>
</mgrwt>
</event>
<event>
 5    1  0.2343702E-004  0.6536570E+03  0.7818608E-02  0.9799941E-01
         13   -1    0    0    0    0  0.00000000000E+00  0.00000000000E+00  0.10000000000E+04  0.10000000000E+04  0.00000000000E+00 0. -1.
          2   -1    0    0  501    0 -0.00000000000E+00 -0.00000000000E+00 -0.10681687336E+03  0.10681687336E+03  0.00000000000E+00 0. -1.
    9000006    2    1    2  501    0  0.00000000000E+00  0.00000000000E+00  0.89318312664E+03  0.11068168734E+04  0.65365701514E+03 0.  0.
         13    1    3    3    0    0  0.19879490702E+03 -0.18001903519E+03  0.13030547026E+03  0.29817072906E+03  0.00000000000E+00 0. -1.
          2    1    3    3  501    0 -0.19879490702E+03  0.18001903519E+03  0.76287765638E+03  0.80864614430E+03  0.00000000000E+00 0. -1.
<mgrwt>
<rscale>  0 0.65365702E+03</rscale>
<asrwt>0</asrwt>
<pdfrwt beam="1">0</pdfrwt>
<pdfrwt beam="2">  1        2 0.38842581E+00 0.65365702E+03</pdfrwt>
<totfact> 0.43981699E+00</totfact>
</mgrwt>
</event>
<event>
 5    1  0.2343702E-004  0.6685516E+03  0.7818608E-02  0.9772578E-01
         13   -1    0    0    0    0  0.00000000000E+00  0.00000000000E+00  0.10000000000E+04  0.10000000000E+04  0.00000000000E+00 0. -1.
          2   -1    0    0  501    0 -0.00000000000E+00 -0.00000000000E+00 -0.11174030673E+03  0.11174030673E+03  0.00000000000E+00 0. -1.
    9000006    2    1    2  501    0  0.00000000000E+00  0.00000000000E+00  0.88825969327E+03  0.11117403067E+04  0.66855158881E+03 0.  0.
         13    1    3    3    0    0 -0.27619583972E+03 -0.35484975837E+02  0.13661767380E+03  0.31017368390E+03  0.00000000000E+00 0. -1.
          2    1    3    3  501    0  0.27619583972E+03  0.35484975837E+02  0.75164201947E+03  0.80156662282E+03  0.00000000000E+00 0. -1.
<mgrwt>
<rscale>  0 0.66855159E+03</rscale>
<asrwt>0</asrwt>
<pdfrwt beam="1">0</pdfrwt>
<pdfrwt beam="2">  1        2 0.40632924E+00 0.66855159E+03</pdfrwt>
<totfact> 0.37648059E+00</totfact>
</mgrwt>
</event>
<event>
 5    1  0.2343702E-004  0.6474239E+03  0.7818608E-02  0.9811625E-01
         13   -1    0    0    0    0  0.00000000000E+00  0.00000000000E+00  0.10000000000E+04  0.10000000000E+04  0.00000000000E+00 0. -1.
          2   -1    0    0  501    0 -0.00000000000E+00 -0.00000000000E+00 -0.10478941313E+03  0.10478941313E+03  0.00000000000E+00 0. -1.
    9000006    2    1    2  501    0  0.00000000000E+00  0.00000000000E+00  0.89521058687E+03  0.11047894131E+04  0.64742385846E+03 0.  0.
         13    1    3    3    0    0 -0.46274057416E+02  0.12363683110E+03 -0.56768175914E+02  0.14370100971E+03  0.00000000000E+00 0. -1.
          4    1    3    3  501    0  0.46274057416E+02 -0.12363683110E+03  0.95197876279E+03  0.96108840342E+03  0.00000000000E+00 0. -1.
<mgrwt>
<rscale>  0 0.64742386E+03</rscale>
<asrwt>0</asrwt>
<pdfrwt beam="1">0</pdfrwt>
<pdfrwt beam="2">  1        2 0.38105321E+00 0.64742386E+03</pdfrwt>
<totfact> 0.46858428E+00</totfact>
</mgrwt>
</event>
<event>
 5    1  0.2343702E-004  0.6395499E+03  0.7818608E-02  0.9826588E-01
         13   -1    0    0    0    0  0.00000000000E+00  0.00000000000E+00  0.10000000000E+04  0.10000000000E+04  0.00000000000E+00 0. -1.
          2   -1    0    0  501    0 -0.00000000000E+00 -0.00000000000E+00 -0.10225600766E+03  0.10225600766E+03  0.00000000000E+00 0. -1.
    9000006    2    1    2  501    0  0.00000000000E+00  0.00000000000E+00  0.89774399234E+03  0.11022560077E+04  0.63954986564E+03 0.  0.
         13    1    3    3    0    0 -0.50486420107E+02 -0.14017130652E+03 -0.38783929894E+02  0.15395150861E+03  0.00000000000E+00 0. -1.
          2    1    3    3  501    0  0.50486420107E+02  0.14017130652E+03  0.93652792223E+03  0.94830449905E+03  0.00000000000E+00 0. -1.
<mgrwt>
<rscale>  0 0.63954987E+03</rscale>
<asrwt>0</asrwt>
<pdfrwt beam="1">0</pdfrwt>
<pdfrwt beam="2">  1        2 0.37184081E+00 0.63954987E+03</pdfrwt>
<totfact> 0.50693406E+00</totfact>
</mgrwt>
</event>
<event>
 5    1  0.2343702E-004  0.6546586E+03  0.7818608E-02  0.9798077E-01
         13   -1    0    0    0    0  0.00000000000E+00  0.00000000000E+00  0.10000000000E+04  0.10000000000E+04  0.00000000000E+00 0. -1.
          2   -1    0    0  501    0 -0.00000000000E+00 -0.00000000000E+00 -0.10714448696E+03  0.10714448696E+03  0.00000000000E+00 0. -1.
    9000006    2    1    2  501    0  0.00000000000E+00  0.00000000000E+00  0.89285551304E+03  0.11071444870E+04  0.65465864986E+03 0.  0.
         13    1    3    3    0    0 -0.16622759145E+03  0.25560016806E+03  0.64782308248E+03  0.71598729337E+03  0.00000000000E+00 0. -1.
          2    1    3    3  501    0  0.16622759145E+03 -0.25560016806E+03  0.24503243056E+03  0.39115719359E+03  0.00000000000E+00 0. -1.
<mgrwt>
<rscale>  0 0.65465865E+03</rscale>
<asrwt>0</asrwt>
<pdfrwt beam="1">0</pdfrwt>
<pdfrwt beam="2">  1        2 0.38961714E+00 0.65465865E+03</pdfrwt>
<totfact> 0.43532174E+00</totfact>
</mgrwt>
</event>
<event>
 5    1  0.2343702E-004  0.6530705E+03  0.7818608E-02  0.9801035E-01
         13   -1    0    0    0    0  0.00000000000E+00  0.00000000000E+00  0.10000000000E+04  0.10000000000E+04  0.00000000000E+00 0. -1.
          2   -1    0    0  501    0 -0.00000000000E+00 -0.00000000000E+00 -0.10662528471E+03  0.10662528471E+03  0.00000000000E+00 0. -1.
    9000006    2    1    2  501    0  0.00000000000E+00  0.00000000000E+00  0.89337471529E+03  0.11066252847E+04  0.65307054659E+03 0.  0.
         13    1    3    3    0    0  0.27366311438E+03 -0.15743589251E+03  0.58792868133E+03  0.66733626813E+03  0.00000000000E+00 0. -1.
          4    1    3    3  501    0 -0.27366311438E+03  0.15743589251E+03  0.30544603396E+03  0.43928901658E+03  0.00000000000E+00 0. -1.
<mgrwt>
<rscale>  0 0.65307055E+03</rscale>
<asrwt>0</asrwt>
<pdfrwt beam="1">0</pdfrwt>
<pdfrwt beam="2">  1        2 0.38772913E+00 0.65307055E+03</pdfrwt>
<totfact> 0.44246524E+00</totfact>
</mgrwt>
</event>
<event>
 5    1  0.2343702E-004  0.6425548E+03  0.7818608E-02  0.9820851E-01
         13   -1    0    0    0    0  0.00000000000E+00  0.00000000000E+00  0.10000000000E+04  0.10000000000E+04  0.00000000000E+00 0. -1.
          2   -1    0    0  501    0 -0.00000000000E+00 -0.00000000000E+00 -0.10321916709E+03  0.10321916709E+03  0.00000000000E+00 0. -1.
    9000006    2    1    2  501    0  0.00000000000E+00  0.00000000000E+00  0.89678083291E+03  0.11032191671E+04  0.64255479794E+03 0.  0.
         13    1    3    3    0    0  0.26403287547E+03 -0.14416217292E+03  0.64205387465E+03  0.70903403965E+03  0.00000000000E+00 0. -1.
          4    1    3    3  501    0 -0.26403287547E+03  0.14416217292E+03  0.25472695826E+03  0.39418512744E+03  0.00000000000E+00 0. -1.
<mgrwt>
<rscale>  0 0.64255480E+03</rscale>
<asrwt>0</asrwt>
<pdfrwt beam="1">0</pdfrwt>
<pdfrwt beam="2">  1        2 0.37534322E+00 0.64255480E+03</pdfrwt>
<totfact> 0.49202809E+00</totfact>
</mgrwt>
</event>
<event>
 5    1  0.2343702E-004  0.6581508E+03  0.7818608E-02  0.9791604E-01
         13   -1    0    0    0    0  0.00000000000E+00  0.00000000000E+00  0.10000000000E+04  0.10000000000E+04  0.00000000000E+00 0. -1.
          2   -1    0    0  501    0 -0.00000000000E+00 -0.00000000000E+00 -0.10829062461E+03  0.10829062461E+03  0.00000000000E+00 0. -1.
    9000006    2    1    2  501    0  0.00000000000E+00  0.00000000000E+00  0.89170937539E+03  0.11082906246E+04  0.65815081740E+03 0.  0.
         13    1    3    3    0    0  0.18796569451E+03  0.59717031693E+01 -0.88852122289E+01  0.18827031244E+03  0.00000000000E+00 0. -1.
          2    1    3    3  501    0 -0.18796569451E+03 -0.59717031693E+01  0.90059458762E+03  0.92002031217E+03  0.00000000000E+00 0. -1.
<mgrwt>
<rscale>  0 0.65815082E+03</rscale>
<asrwt>0</asrwt>
<pdfrwt beam="1">0</pdfrwt>
<pdfrwt beam="2">  1        2 0.39378492E+00 0.65815082E+03</pdfrwt>
<totfact> 0.41992005E+00</totfact>
</mgrwt>
</event>
<event>
 5    1  0.2343702E-004  0.6594763E+03  0.7818608E-02  0.9789158E-01
         13   -1    0    0    0    0  0.00000000000E+00  0.00000000000E+00  0.10000000000E+04  0.10000000000E+04  0.00000000000E+00 0. -1.
          2   -1    0    0  501    0 -0.00000000000E+00 -0.00000000000E+00 -0.10872723200E+03  0.10872723200E+03  0.00000000000E+00 0. -1.
    9000006    2    1    2  501    0  0.00000000000E+00  0.00000000000E+00  0.89127276800E+03  0.11087272320E+04  0.65947625278E+03 0.  0.
         13    1    3    3    0    0 -0.24068148670E+03  0.94844050140E+02  0.10189183209E+03  0.27803761856E+03  0.00000000000E+00 0. -1.
          2    1    3    3  501    0  0.24068148670E+03 -0.94844050140E+02  0.78938093591E+03  0.83068961344E+03  0.00000000000E+00 0. -1.
<mgrwt>
<rscale>  0 0.65947625E+03</rscale>
<asrwt>0</asrwt>
<pdfrwt beam="1">0</pdfrwt>
<pdfrwt beam="2">  1        2 0.39537259E+00 0.65947625E+03</pdfrwt>
<totfact> 0.41418395E+00</totfact>
</mgrwt>
</event>
<event>
 5    1  0.2343702E-004  0.6522178E+03  0.7818608E-02  0.9802627E-01
         13   -1    0    0    0    0  0.00000000000E+00  0.00000000000E+00  0.10000000000E+04  0.10000000000E+04  0.00000000000E+00 0. -1.
          2   -1    0    0  501    0 -0.00000000000E+00 -0.00000000000E+00 -0.10634700112E+03  0.10634700112E+03  0.00000000000E+00 0. -1.
    9000006    2    1    2  501    0  0.00000000000E+00  0.00000000000E+00  0.89365299888E+03  0.11063470011E+04  0.65221775847E+03 0.  0.
         13    1    3    3    0    0  0.13290754920E+03  0.17453998241E+03  0.37538700748E+02  0.22257083400E+03  0.00000000000E+00 0. -1.
          4    1    3    3  501    0 -0.13290754920E+03 -0.17453998241E+03  0.85611429814E+03  0.88377616712E+03  0.00000000000E+00 0. -1.
<mgrwt>
<rscale>  0 0.65221776E+03</rscale>
<asrwt>0</asrwt>
<pdfrwt beam="1">0</pdfrwt>
<pdfrwt beam="2">  1        2 0.38671718E+00 0.65221776E+03</pdfrwt>
<totfact> 0.44633753E+00</totfact>
</mgrwt>
</event>
<event>
 5    1  0.2343702E-004  0.6545169E+03  0.7818608E-02  0.9798340E-01
         13   -1    0    0    0    0  0.00000000000E+00  0.00000000000E+00  0.10000000000E+04  0.10000000000E+04  0.00000000000E+00 0. -1.
          2   -1    0    0  501    0 -0.00000000000E+00 -0.00000000000E+00 -0.10709809239E+03  0.10709809239E+03  0.00000000000E+00 0. -1.
    9000006    2    1    2  501    0  0.00000000000E+00  0.00000000000E+00  0.89290190761E+03  0.11070980924E+04  0.65451689784E+03 0.  0.
         13    1    3    3    0    0 -0.37627295599E+02 -0.67541473094E+02 -0.91428171054E+02  0.11973627030E+03  0.00000000000E+00 0. -1.
          2    1    3    3  501    0  0.37627295599E+02  0.67541473094E+02  0.98433007867E+03  0.98736182209E+03  0.00000000000E+00 0. -1.
<mgrwt>
<rscale>  0 0.65451690E+03</rscale>
<asrwt>0</asrwt>
<pdfrwt beam="1">0</pdfrwt>
<pdfrwt beam="2">  1        2 0.38944843E+00 0.65451690E+03</pdfrwt>
<totfact> 0.43595579E+00</totfact>
</mgrwt>
</event>
<event>
 5    1  0.2343702E-004  0.6506287E+03  0.7818608E-02  0.9805600E-01
         13   -1    0    0    0    0  0.00000000000E+00  0.00000000000E+00  0.10000000000E+04  0.10000000000E+04  0.00000000000E+00 0. -1.
          2   -1    0    0  501    0 -0.00000000000E+00 -0.00000000000E+00 -0.10582944048E+03  0.10582944048E+03  0.00000000000E+00 0. -1.
    9000006    2    1    2  501    0  0.00000000000E+00  0.00000000000E+00  0.89417055952E+03  0.11058294405E+04  0.65062874354E+03 0.  0.
         13    1    3    3    0    0 -0.13171317624E+03 -0.94519409418E+02  0.92645129827E+03  0.94052872770E+03  0.00000000000E+00 0. -1.
          2    1    3    3  501    0  0.13171317624E+03  0.94519409418E+02 -0.32280738754E+02  0.16530071278E+03  0.00000000000E+00 0. -1.
<mgrwt>
<rscale>  0 0.65062874E+03</rscale>
<asrwt>0</asrwt>
<pdfrwt beam="1">0</pdfrwt>
<pdfrwt beam="2">  1        2 0.38483514E+00 0.65062874E+03</pdfrwt>
<totfact> 0.45362110E+00</totfact>
</mgrwt>
</event>
<event>
 5    1  0.2343702E-004  0.6421765E+03  0.7818608E-02  0.9821571E-01
         13   -1    0    0    0    0  0.00000000000E+00  0.00000000000E+00  0.10000000000E+04  0.10000000000E+04  0.00000000000E+00 0. -1.
          2   -1    0    0  501    0 -0.00000000000E+00 -0.00000000000E+00 -0.10309765127E+03  0.10309765127E+03  0.00000000000E+00 0. -1.
    9000006    2    1    2  501    0  0.00000000000E+00  0.00000000000E+00  0.89690234873E+03  0.11030976513E+04  0.64217645945E+03 0.  0.
         13    1    3    3    0    0  0.76607411696E+02  0.13494259180E+03 -0.34414781743E+02  0.15894205174E+03  0.00000000000E+00 0. -1.
          4    1    3    3  501    0 -0.76607411696E+02 -0.13494259180E+03  0.93131713047E+03  0.94415559953E+03  0.00000000000E+00 0. -1.
<mgrwt>
<rscale>  0 0.64217646E+03</rscale>
<asrwt>0</asrwt>
<pdfrwt beam="1">0</pdfrwt>
<pdfrwt beam="2">  1        2 0.37490134E+00 0.64217646E+03</pdfrwt>
<totfact> 0.49388634E+00</totfact>
</mgrwt>
</event>
<event>
 5    1  0.2343702E-004  0.6461641E+03  0.7818608E-02  0.9814004E-01
         13   -1    0    0    0    0  0.00000000000E+00  0.00000000000E+00  0.10000000000E+04  0.10000000000E+04  0.00000000000E+00 0. -1.
          2   -1    0    0  501    0 -0.00000000000E+00 -0.00000000000E+00 -0.10438200137E+03  0.10438200137E+03  0.00000000000E+00 0. -1.
    9000006    2    1    2  501    0  0.00000000000E+00  0.00000000000E+00  0.89561799863E+03  0.11043820014E+04  0.64616407010E+03 0.  0.
         13    1    3    3    0    0 -0.18414585812E+03  0.13182716658E+03  0.84162997020E+03  0.87156704025E+03  0.00000000000E+00 0. -1.
          2    1    3    3  501    0  0.18414585812E+03 -0.13182716658E+03  0.53988028431E+02  0.23281496113E+03  0.00000000000E+00 0. -1.
<mgrwt>
<rscale>  0 0.64616407E+03</rscale>
<asrwt>0</asrwt>
<pdfrwt beam="1">0</pdfrwt>
<pdfrwt beam="2">  1        2 0.37957171E+00 0.64616407E+03</pdfrwt>
<totfact> 0.47456709E+00</totfact>
</mgrwt>
</event>
<event>
 5    1  0.2343702E-004  0.6630282E+03  0.7818608E-02  0.9782635E-01
         13   -1    0    0    0    0  0.00000000000E+00  0.00000000000E+00  0.10000000000E+04  0.10000000000E+04  0.00000000000E+00 0. -1.
          2   -1    0    0  501    0 -0.00000000000E+00 -0.00000000000E+00 -0.10990158335E+03  0.10990158335E+03  0.00000000000E+00 0. -1.
    9000006    2    1    2  501    0  0.00000000000E+00  0.00000000000E+00  0.89009841665E+03  0.11099015833E+04  0.66302815430E+03 0.  0.
         13    1    3    3    0    0 -0.20664622506E+03  0.18417942387E+03  0.75041731464E+03  0.79984427773E+03  0.00000000000E+00 0. -1.
          4    1    3    3  501    0  0.20664622506E+03 -0.18417942387E+03  0.13968110201E+03  0.31005730562E+03  0.00000000000E+00 0. -1.
<mgrwt>
<rscale>  0 0.66302815E+03</rscale>
<asrwt>0</asrwt>
<pdfrwt beam="1">0</pdfrwt>
<pdfrwt beam="2">  1        2 0.39964296E+00 0.66302815E+03</pdfrwt>
<totfact> 0.39910384E+00</totfact>
</mgrwt>
</event>
<event>
 5    1  0.2343702E-004  0.6400629E+03  0.7818608E-02  0.9825606E-01
         13   -1    0    0    0    0  0.00000000000E+00  0.00000000000E+00  0.10000000000E+04  0.10000000000E+04  0.00000000000E+00 0. -1.
          2   -1    0    0  501    0 -0.00000000000E+00 -0.00000000000E+00 -0.10242012040E+03  0.10242012040E+03  0.00000000000E+00 0. -1.
    9000006    2    1    2  501    0  0.00000000000E+00  0.00000000000E+00  0.89757987960E+03  0.11024201204E+04  0.64006287315E+03 0.  0.
         13    1    3    3    0    0  0.29750586674E+03 -0.94587939905E+02  0.57013401141E+03  0.65000723849E+03  0.00000000000E+00 0. -1.
          2    1    3    3  501    0 -0.29750586674E+03  0.94587939905E+02  0.32744586820E+03  0.45241288191E+03  0.00000000000E+00 0. -1.
<mgrwt>
<rscale>  0 0.64006287E+03</rscale>
<asrwt>0</asrwt>
<pdfrwt beam="1">0</pdfrwt>
<pdfrwt beam="2">  1        2 0.37243759E+00 0.64006287E+03</pdfrwt>
<totfact> 0.50436540E+00</totfact>
</mgrwt>
</event>
<event>
 5    1  0.2343702E-004  0.6725414E+03  0.7818608E-02  0.9765378E-01
         13   -1    0    0    0    0  0.00000000000E+00  0.00000000000E+00  0.10000000000E+04  0.10000000000E+04  0.00000000000E+00 0. -1.
          2   -1    0    0  501    0 -0.00000000000E+00 -0.00000000000E+00 -0.11307799677E+03  0.11307799677E+03  0.00000000000E+00 0. -1.
    9000006    2    1    2  501    0  0.00000000000E+00  0.00000000000E+00  0.88692200323E+03  0.11130779968E+04  0.67254143892E+03 0.  0.
         13    1    3    3    0    0  0.30841531070E+03  0.93287158085E+02  0.28423775732E+03  0.42966684818E+03  0.00000000000E+00 0. -1.
          2    1    3    3  501    0 -0.30841531070E+03 -0.93287158085E+02  0.60268424592E+03  0.68341114859E+03  0.00000000000E+00 0. -1.
<mgrwt>
<rscale>  0 0.67254144E+03</rscale>
<asrwt>0</asrwt>
<pdfrwt beam="1">0</pdfrwt>
<pdfrwt beam="2">  1        2 0.41119358E+00 0.67254144E+03</pdfrwt>
<totfact> 0.36075028E+00</totfact>
</mgrwt>
</event>
<event>
 5    1  0.2343702E-004  0.5843354E+03  0.7818608E-02  0.9938449E-01
         13   -1    0    0    0    0  0.00000000000E+00  0.00000000000E+00  0.10000000000E+04  0.10000000000E+04  0.00000000000E+00 0. -1.
          2   -1    0    0  501    0 -0.00000000000E+00 -0.00000000000E+00 -0.85361964711E+02  0.85361964711E+02  0.00000000000E+00 0. -1.
    9000006    2    1    2  501    0  0.00000000000E+00  0.00000000000E+00  0.91463803529E+03  0.10853619647E+04  0.58433539927E+03 0.  0.
         13    1    3    3    0    0 -0.20210727528E+03 -0.92177629164E+02  0.10480889936E+03  0.24561956645E+03  0.00000000000E+00 0. -1.
          4    1    3    3  501    0  0.20210727528E+03  0.92177629164E+02  0.80982913593E+03  0.83974239826E+03  0.00000000000E+00 0. -1.
<mgrwt>
<rscale>  0 0.58433540E+03</rscale>
<asrwt>0</asrwt>
<pdfrwt beam="1">0</pdfrwt>
<pdfrwt beam="2">  1        2 0.31040780E+00 0.58433540E+03</pdfrwt>
<totfact> 0.84733745E+00</totfact>
</mgrwt>
</event>
<event>
 5    1  0.2343702E-004  0.6512524E+03  0.7818608E-02  0.9804432E-01
         13   -1    0    0    0    0  0.00000000000E+00  0.00000000000E+00  0.10000000000E+04  0.10000000000E+04  0.00000000000E+00 0. -1.
          2   -1    0    0  501    0 -0.00000000000E+00 -0.00000000000E+00 -0.10603241994E+03  0.10603241994E+03  0.00000000000E+00 0. -1.
    9000006    2    1    2  501    0  0.00000000000E+00  0.00000000000E+00  0.89396758006E+03  0.11060324199E+04  0.65125239329E+03 0.  0.
         13    1    3    3    0    0 -0.10268549827E+03  0.17530852284E+02 -0.76970196607E+02  0.12952240540E+03  0.00000000000E+00 0. -1.
          4    1    3    3  501    0  0.10268549827E+03 -0.17530852284E+02  0.97093777667E+03  0.97651001454E+03  0.00000000000E+00 0. -1.
<mgrwt>
<rscale>  0 0.65125239E+03</rscale>
<asrwt>0</asrwt>
<pdfrwt beam="1">0</pdfrwt>
<pdfrwt beam="2">  1        2 0.38557325E+00 0.65125239E+03</pdfrwt>
<totfact> 0.45075185E+00</totfact>
</mgrwt>
</event>
<event>
 5    1  0.2343702E-004  0.6464754E+03  0.7818608E-02  0.9813415E-01
         13   -1    0    0    0    0  0.00000000000E+00  0.00000000000E+00  0.10000000000E+04  0.10000000000E+04  0.00000000000E+00 0. -1.
          2   -1    0    0  501    0 -0.00000000000E+00 -0.00000000000E+00 -0.10448261424E+03  0.10448261424E+03  0.00000000000E+00 0. -1.
    9000006    2    1    2  501    0  0.00000000000E+00  0.00000000000E+00  0.89551738576E+03  0.11044826142E+04  0.64647541094E+03 0.  0.
         13    1    3    3    0    0  0.39492604182E+02 -0.21042949597E+03  0.34032848488E+02  0.21679131287E+03  0.00000000000E+00 0. -1.
          2    1    3    3  501    0 -0.39492604182E+02  0.21042949597E+03  0.86148453727E+03  0.88769130137E+03  0.00000000000E+00 0. -1.
<mgrwt>
<rscale>  0 0.64647541E+03</rscale>
<asrwt>0</asrwt>
<pdfrwt beam="1">0</pdfrwt>
<pdfrwt beam="2">  1        2 0.37993758E+00 0.64647541E+03</pdfrwt>
<totfact> 0.47308317E+00</totfact>
</mgrwt>
</event>
<event>
 5    1  0.2343702E-004  0.6831627E+03  0.7818608E-02  0.9746468E-01
         13   -1    0    0    0    0  0.00000000000E+00  0.00000000000E+00  0.10000000000E+04  0.10000000000E+04  0.00000000000E+00 0. -1.
          2   -1    0    0  501    0 -0.00000000000E+00 -0.00000000000E+00 -0.11667780669E+03  0.11667780669E+03  0.00000000000E+00 0. -1.
    9000006    2    1    2  501    0  0.00000000000E+00  0.00000000000E+00  0.88332219331E+03  0.11166778067E+04  0.68316266492E+03 0.  0.
         13    1    3    3    0    0  0.55155456961E+02  0.22938794632E+03  0.37896104940E+02  0.23894993015E+03  0.00000000000E+00 0. -1.
          2    1    3    3  501    0 -0.55155456961E+02 -0.22938794632E+03  0.84542608837E+03  0.87772787654E+03  0.00000000000E+00 0. -1.
<mgrwt>
<rscale>  0 0.68316266E+03</rscale>
<asrwt>0</asrwt>
<pdfrwt beam="1">0</pdfrwt>
<pdfrwt beam="2">  1        2 0.42428383E+00 0.68316266E+03</pdfrwt>
<totfact> 0.32128778E+00</totfact>
</mgrwt>
</event>
<event>
 5    1  0.2343702E-004  0.6437191E+03  0.7818608E-02  0.9818637E-01
         13   -1    0    0    0    0  0.00000000000E+00  0.00000000000E+00  0.10000000000E+04  0.10000000000E+04  0.00000000000E+00 0. -1.
          2   -1    0    0  501    0 -0.00000000000E+00 -0.00000000000E+00 -0.10359357401E+03  0.10359357401E+03  0.00000000000E+00 0. -1.
    9000006    2    1    2  501    0  0.00000000000E+00  0.00000000000E+00  0.89640642599E+03  0.11035935740E+04  0.64371911269E+03 0.  0.
         13    1    3    3    0    0 -0.23580105114E+03  0.20919548158E+03  0.55968800313E+03  0.64235157513E+03  0.00000000000E+00 0. -1.
          2    1    3    3  501    0  0.23580105114E+03 -0.20919548158E+03  0.33671842286E+03  0.46124199888E+03  0.00000000000E+00 0. -1.
<mgrwt>
<rscale>  0 0.64371911E+03</rscale>
<asrwt>0</asrwt>
<pdfrwt beam="1">0</pdfrwt>
<pdfrwt beam="2">  1        2 0.37670470E+00 0.64371911E+03</pdfrwt>
<totfact> 0.48634307E+00</totfact>
</mgrwt>
</event>
<event>
 5    1  0.2343702E-004  0.6520541E+03  0.7818608E-02  0.9802933E-01
         13   -1    0    0    0    0  0.00000000000E+00  0.00000000000E+00  0.10000000000E+04  0.10000000000E+04  0.00000000000E+00 0. -1.
          2   -1    0    0  501    0 -0.00000000000E+00 -0.00000000000E+00 -0.10629362268E+03  0.10629362268E+03  0.00000000000E+00 0. -1.
    9000006    2    1    2  501    0  0.00000000000E+00  0.00000000000E+00  0.89370637732E+03  0.11062936227E+04  0.65205405505E+03 0.  0.
         13    1    3    3    0    0 -0.18904695113E+03 -0.22189326616E+03  0.19913231770E+03  0.35302840006E+03  0.00000000000E+00 0. -1.
          2    1    3    3  501    0  0.18904695113E+03  0.22189326616E+03  0.69457405963E+03  0.75326522262E+03  0.00000000000E+00 0. -1.
<mgrwt>
<rscale>  0 0.65205406E+03</rscale>
<asrwt>0</asrwt>
<pdfrwt beam="1">0</pdfrwt>
<pdfrwt beam="2">  1        2 0.38652308E+00 0.65205406E+03</pdfrwt>
<totfact> 0.44708379E+00</totfact>
</mgrwt>
</event>
<event>
 5    1  0.2343702E-004  0.6437054E+03  0.7818608E-02  0.9818663E-01
         13   -1    0    0    0    0  0.00000000000E+00  0.00000000000E+00  0.10000000000E+04  0.10000000000E+04  0.00000000000E+00 0. -1.
          2   -1    0    0  501    0 -0.00000000000E+00 -0.00000000000E+00 -0.10358916198E+03  0.10358916198E+03  0.00000000000E+00 0. -1.
    9000006    2    1    2  501    0  0.00000000000E+00  0.00000000000E+00  0.89641083802E+03  0.11035891620E+04  0.64370540461E+03 0.  0.
         13    1    3    3    0    0  0.13221920174E+03  0.25935856331E+03  0.21288202479E+03  0.36064877394E+03  0.00000000000E+00 0. -1.
          2    1    3    3  501    0 -0.13221920174E+03 -0.25935856331E+03  0.68352881323E+03  0.74294038804E+03  0.00000000000E+00 0. -1.
<mgrwt>
<rscale>  0 0.64370540E+03</rscale>
<asrwt>0</asrwt>
<pdfrwt beam="1">0</pdfrwt>
<pdfrwt beam="2">  1        2 0.37668866E+00 0.64370540E+03</pdfrwt>
<totfact> 0.48640972E+00</totfact>
</mgrwt>
</event>
<event>
 5    1  0.2343702E-004  0.7033535E+03  0.7818608E-02  0.9711514E-01
         13   -1    0    0    0    0  0.00000000000E+00  0.00000000000E+00  0.10000000000E+04  0.10000000000E+04  0.00000000000E+00 0. -1.
          2   -1    0    0  501    0 -0.00000000000E+00 -0.00000000000E+00 -0.12367652443E+03  0.12367652443E+03  0.00000000000E+00 0. -1.
    9000006    2    1    2  501    0  0.00000000000E+00  0.00000000000E+00  0.87632347557E+03  0.11236765244E+04  0.70335346571E+03 0.  0.
         13    1    3    3    0    0 -0.31635842649E+03 -0.12308508347E+03  0.29135700522E+03  0.44734941184E+03  0.00000000000E+00 0. -1.
          2    1    3    3  501    0  0.31635842649E+03  0.12308508347E+03  0.58496647035E+03  0.67632711259E+03  0.00000000000E+00 0. -1.
<mgrwt>
<rscale>  0 0.70335347E+03</rscale>
<asrwt>0</asrwt>
<pdfrwt beam="1">0</pdfrwt>
<pdfrwt beam="2">  1        2 0.44973376E+00 0.70335347E+03</pdfrwt>
<totfact> 0.25532270E+00</totfact>
</mgrwt>
</event>
<event>
 5    1  0.2343702E-004  0.6526575E+03  0.7818608E-02  0.9801805E-01
         13   -1    0    0    0    0  0.00000000000E+00  0.00000000000E+00  0.10000000000E+04  0.10000000000E+04  0.00000000000E+00 0. -1.
          2   -1    0    0  501    0 -0.00000000000E+00 -0.00000000000E+00 -0.10649046542E+03  0.10649046542E+03  0.00000000000E+00 0. -1.
    9000006    2    1    2  501    0  0.00000000000E+00  0.00000000000E+00  0.89350953458E+03  0.11064904654E+04  0.65265753782E+03 0.  0.
         13    1    3    3    0    0 -0.45669388403E+02 -0.32280928592E+03  0.47066701675E+03  0.57255477360E+03  0.00000000000E+00 0. -1.
          2    1    3    3  501    0  0.45669388403E+02  0.32280928592E+03  0.42284251783E+03  0.53393569182E+03  0.00000000000E+00 0. -1.
<mgrwt>
<rscale>  0 0.65265754E+03</rscale>
<asrwt>0</asrwt>
<pdfrwt beam="1">0</pdfrwt>
<pdfrwt beam="2">  1        2 0.38723887E+00 0.65265754E+03</pdfrwt>
<totfact> 0.44433742E+00</totfact>
</mgrwt>
</event>
<event>
 5    1  0.2343702E-004  0.6383125E+03  0.7818608E-02  0.9828961E-01
         13   -1    0    0    0    0  0.00000000000E+00  0.00000000000E+00  0.10000000000E+04  0.10000000000E+04  0.00000000000E+00 0. -1.
          2   -1    0    0  501    0 -0.00000000000E+00 -0.00000000000E+00 -0.10186069971E+03  0.10186069971E+03  0.00000000000E+00 0. -1.
    9000006    2    1    2  501    0  0.00000000000E+00  0.00000000000E+00  0.89813930029E+03  0.11018606997E+04  0.63831246175E+03 0.  0.
         13    1    3    3    0    0 -0.22624660214E+03 -0.18212474113E+03  0.22068917981E+03  0.36477480779E+03  0.00000000000E+00 0. -1.
          4    1    3    3  501    0  0.22624660214E+03  0.18212474113E+03  0.67745012048E+03  0.73708589191E+03  0.00000000000E+00 0. -1.
<mgrwt>
<rscale>  0 0.63831246E+03</rscale>
<asrwt>0</asrwt>
<pdfrwt beam="1">0</pdfrwt>
<pdfrwt beam="2">  1        2 0.37040333E+00 0.63831246E+03</pdfrwt>
<totfact> 0.51317060E+00</totfact>
</mgrwt>
</event>
<event>
 5    1  0.2343702E-004  0.6568948E+03  0.7818608E-02  0.9793927E-01
         13   -1    0    0    0    0  0.00000000000E+00  0.00000000000E+00  0.10000000000E+04  0.10000000000E+04  0.00000000000E+00 0. -1.
          2   -1    0    0  501    0 -0.00000000000E+00 -0.00000000000E+00 -0.10787768127E+03  0.10787768127E+03  0.00000000000E+00 0. -1.
    9000006    2    1    2  501    0  0.00000000000E+00  0.00000000000E+00  0.89212231873E+03  0.11078776813E+04  0.65689475951E+03 0.  0.
         13    1    3    3    0    0  0.24352492775E+03  0.15729559498E+03  0.18570331183E+03  0.34428478715E+03  0.00000000000E+00 0. -1.
          4    1    3    3  501    0 -0.24352492775E+03 -0.15729559498E+03  0.70641900690E+03  0.76359289412E+03  0.00000000000E+00 0. -1.
<mgrwt>
<rscale>  0 0.65689476E+03</rscale>
<asrwt>0</asrwt>
<pdfrwt beam="1">0</pdfrwt>
<pdfrwt beam="2">  1        2 0.39228330E+00 0.65689476E+03</pdfrwt>
<totfact> 0.42541151E+00</totfact>
</mgrwt>
</event>
<event>
 5    1  0.2343702E-004  0.6269310E+03  0.7818608E-02  0.9851056E-01
         13   -1    0    0    0    0  0.00000000000E+00  0.00000000000E+00  0.10000000000E+04  0.10000000000E+04  0.00000000000E+00 0. -1.
          2   -1    0    0  501    0 -0.00000000000E+00 -0.00000000000E+00 -0.98260628406E+02  0.98260628406E+02  0.00000000000E+00 0. -1.
    9000006    2    1    2  501    0  0.00000000000E+00  0.00000000000E+00  0.90173937159E+03  0.10982606284E+04  0.62693102780E+03 0.  0.
         13    1    3    3    0    0  0.71970349942E+02  0.30500498064E+03  0.46360602997E+03  0.55958763434E+03  0.00000000000E+00 0. -1.
          2    1    3    3  501    0 -0.71970349942E+02 -0.30500498064E+03  0.43813334163E+03  0.53867299406E+03  0.00000000000E+00 0. -1.
<mgrwt>
<rscale>  0 0.62693103E+03</rscale>
<asrwt>0</asrwt>
<pdfrwt beam="1">0</pdfrwt>
<pdfrwt beam="2">  1        2 0.35731213E+00 0.62693103E+03</pdfrwt>
<totfact> 0.57330035E+00</totfact>
</mgrwt>
</event>
<event>
 5    1  0.2343702E-004  0.6425613E+03  0.7818608E-02  0.9820838E-01
         13   -1    0    0    0    0  0.00000000000E+00  0.00000000000E+00  0.10000000000E+04  0.10000000000E+04  0.00000000000E+00 0. -1.
          2   -1    0    0  501    0 -0.00000000000E+00 -0.00000000000E+00 -0.10322126480E+03  0.10322126480E+03  0.00000000000E+00 0. -1.
    9000006    2    1    2  501    0  0.00000000000E+00  0.00000000000E+00  0.89677873520E+03  0.11032212648E+04  0.64256132720E+03 0.  0.
         13    1    3    3    0    0 -0.12361566736E+03  0.14530031773E+03  0.45476884636E+01  0.19082373286E+03  0.00000000000E+00 0. -1.
          4    1    3    3  501    0  0.12361566736E+03 -0.14530031773E+03  0.89223104673E+03  0.91239753195E+03  0.00000000000E+00 0. -1.
<mgrwt>
<rscale>  0 0.64256133E+03</rscale>
<asrwt>0</asrwt>
<pdfrwt beam="1">0</pdfrwt>
<pdfrwt beam="2">  1        2 0.37535085E+00 0.64256133E+03</pdfrwt>
<totfact> 0.49199607E+00</totfact>
</mgrwt>
</event>
<event>
 5    1  0.2343702E-004  0.6357235E+03  0.7818608E-02  0.9833943E-01
         13   -1    0    0    0    0  0.00000000000E+00  0.00000000000E+00  0.10000000000E+04  0.10000000000E+04  0.00000000000E+00 0. -1.
          2   -1    0    0  501    0 -0.00000000000E+00 -0.00000000000E+00 -0.10103609998E+03  0.10103609998E+03  0.00000000000E+00 0. -1.
    9000006    2    1    2  501    0  0.00000000000E+00  0.00000000000E+00  0.89896390002E+03  0.11010361000E+04  0.63572352475E+03 0.  0.
         13    1    3    3    0    0 -0.20068045358E+03  0.80935718814E+02  0.46222591196E+02  0.22126853135E+03  0.00000000000E+00 0. -1.
          2    1    3    3  501    0  0.20068045358E+03 -0.80935718814E+02  0.85274130882E+03  0.87976756863E+03  0.00000000000E+00 0. -1.
<mgrwt>
<rscale>  0 0.63572352E+03</rscale>
<asrwt>0</asrwt>
<pdfrwt beam="1">0</pdfrwt>
<pdfrwt beam="2">  1        2 0.36740477E+00 0.63572352E+03</pdfrwt>
<totfact> 0.52640680E+00</totfact>
</mgrwt>
</event>
<event>
 5    1  0.2343702E-004  0.6455348E+03  0.7818608E-02  0.9815194E-01
         13   -1    0    0    0    0  0.00000000000E+00  0.00000000000E+00  0.10000000000E+04  0.10000000000E+04  0.00000000000E+00 0. -1.
          2   -1    0    0  501    0 -0.00000000000E+00 -0.00000000000E+00 -0.10417879603E+03  0.10417879603E+03  0.00000000000E+00 0. -1.
    9000006    2    1    2  501    0  0.00000000000E+00  0.00000000000E+00  0.89582120397E+03  0.11041787960E+04  0.64553480473E+03 0.  0.
         13    1    3    3    0    0 -0.42727019085E+02  0.41384897274E+02  0.99054348440E+03  0.99232792079E+03  0.00000000000E+00 0. -1.
          4    1    3    3  501    0  0.42727019085E+02 -0.41384897274E+02 -0.94722280433E+02  0.11185087524E+03  0.00000000000E+00 0. -1.
<mgrwt>
<rscale>  0 0.64553480E+03</rscale>
<asrwt>0</asrwt>
<pdfrwt beam="1">0</pdfrwt>
<pdfrwt beam="2">  1        2 0.37883278E+00 0.64553480E+03</pdfrwt>
<totfact> 0.47757706E+00</totfact>
</mgrwt>
</event>
<event>
 5    1  0.2343702E-004  0.6534822E+03  0.7818608E-02  0.9800267E-01
         13   -1    0    0    0    0  0.00000000000E+00  0.00000000000E+00  0.10000000000E+04  0.10000000000E+04  0.00000000000E+00 0. -1.
          2   -1    0    0  501    0 -0.00000000000E+00 -0.00000000000E+00 -0.10675975381E+03  0.10675975381E+03  0.00000000000E+00 0. -1.
    9000006    2    1    2  501    0  0.00000000000E+00  0.00000000000E+00  0.89324024619E+03  0.11067597538E+04  0.65348222259E+03 0.  0.
         13    1    3    3    0    0  0.72899764847E+02  0.26476790320E+03  0.74646193012E+03  0.79537527709E+03  0.00000000000E+00 0. -1.
          4    1    3    3  501    0 -0.72899764847E+02 -0.26476790320E+03  0.14677831607E+03  0.31138447672E+03  0.00000000000E+00 0. -1.
<mgrwt>
<rscale>  0 0.65348222E+03</rscale>
<asrwt>0</asrwt>
<pdfrwt beam="1">0</pdfrwt>
<pdfrwt beam="2">  1        2 0.38821811E+00 0.65348222E+03</pdfrwt>
<totfact> 0.44060503E+00</totfact>
</mgrwt>
</event>
<event>
 5    1  0.2343702E-004  0.7511327E+03  0.7818608E-02  0.9633575E-01
         13   -1    0    0    0    0  0.00000000000E+00  0.00000000000E+00  0.10000000000E+04  0.10000000000E+04  0.00000000000E+00 0. -1.
          2   -1    0    0  501    0 -0.00000000000E+00 -0.00000000000E+00 -0.14105007107E+03  0.14105007107E+03  0.00000000000E+00 0. -1.
    9000006    2    1    2  501    0  0.00000000000E+00  0.00000000000E+00  0.85894992893E+03  0.11410500711E+04  0.75113266757E+03 0.  0.
         13    1    3    3    0    0 -0.45968712647E+02 -0.28400007990E+03  0.79620897565E+03  0.84659193289E+03  0.00000000000E+00 0. -1.
          4    1    3    3  501    0  0.45968712647E+02  0.28400007990E+03  0.62740953280E+02  0.29445813819E+03  0.00000000000E+00 0. -1.
<mgrwt>
<rscale>  0 0.75113267E+03</rscale>
<asrwt>0</asrwt>
<pdfrwt beam="1">0</pdfrwt>
<pdfrwt beam="2">  1        2 0.51291043E+00 0.75113267E+03</pdfrwt>
<totfact> 0.13982549E+00</totfact>
</mgrwt>
</event>
<event>
 5    1  0.2343702E-004  0.6373225E+03  0.7818608E-02  0.9830863E-01
         13   -1    0    0    0    0  0.00000000000E+00  0.00000000000E+00  0.10000000000E+04  0.10000000000E+04  0.00000000000E+00 0. -1.
          2   -1    0    0  501    0 -0.00000000000E+00 -0.00000000000E+00 -0.10154499724E+03  0.10154499724E+03  0.00000000000E+00 0. -1.
    9000006    2    1    2  501    0  0.00000000000E+00  0.00000000000E+00  0.89845500276E+03  0.11015449972E+04  0.63732251567E+03 0.  0.
         13    1    3    3    0    0 -0.81865411913E+02  0.25196125204E+03  0.14315721610E+03  0.30113187596E+03  0.00000000000E+00 0. -1.
          4    1    3    3  501    0  0.81865411913E+02 -0.25196125204E+03  0.75529778666E+03  0.80041312128E+03  0.00000000000E+00 0. -1.
<mgrwt>
<rscale>  0 0.63732252E+03</rscale>
<asrwt>0</asrwt>
<pdfrwt beam="1">0</pdfrwt>
<pdfrwt beam="2">  1        2 0.36925531E+00 0.63732252E+03</pdfrwt>
<totfact> 0.51820166E+00</totfact>
</mgrwt>
</event>
<event>
 5    1  0.2343702E-004  0.6390299E+03  0.7818608E-02  0.9827584E-01
         13   -1    0    0    0    0  0.00000000000E+00  0.00000000000E+00  0.10000000000E+04  0.10000000000E+04  0.00000000000E+00 0. -1.
          2   -1    0    0  501    0 -0.00000000000E+00 -0.00000000000E+00 -0.10208981232E+03  0.10208981232E+03  0.00000000000E+00 0. -1.
    9000006    2    1    2  501    0  0.00000000000E+00  0.00000000000E+00  0.89791018768E+03  0.11020898123E+04  0.63902992831E+03 0.  0.
         13    1    3    3    0    0  0.17717401198E+03 -0.16887884922E+03  0.94758380807E+02  0.26246875427E+03  0.00000000000E+00 0. -1.
          4    1    3    3  501    0 -0.17717401198E+03  0.16887884922E+03  0.80315180688E+03  0.83962105805E+03  0.00000000000E+00 0. -1.
<mgrwt>
<rscale>  0 0.63902993E+03</rscale>
<asrwt>0</asrwt>
<pdfrwt beam="1">0</pdfrwt>
<pdfrwt beam="2">  1        2 0.37123646E+00 0.63902993E+03</pdfrwt>
<totfact> 0.50954752E+00</totfact>
</mgrwt>
</event>
<event>
 5    1  0.2343702E-004  0.6448256E+03  0.7818608E-02  0.9816537E-01
         13   -1    0    0    0    0  0.00000000000E+00  0.00000000000E+00  0.10000000000E+04  0.10000000000E+04  0.00000000000E+00 0. -1.
          2   -1    0    0  501    0 -0.00000000000E+00 -0.00000000000E+00 -0.10395000719E+03  0.10395000719E+03  0.00000000000E+00 0. -1.
    9000006    2    1    2  501    0  0.00000000000E+00  0.00000000000E+00  0.89604999281E+03  0.11039500072E+04  0.64482558012E+03 0.  0.
         13    1    3    3    0    0  0.27379748386E+03  0.15703291220E+03  0.33542696307E+03  0.46058185508E+03  0.00000000000E+00 0. -1.
          4    1    3    3  501    0 -0.27379748386E+03 -0.15703291220E+03  0.56062302974E+03  0.64336815211E+03  0.00000000000E+00 0. -1.
<mgrwt>
<rscale>  0 0.64482558E+03</rscale>
<asrwt>0</asrwt>
<pdfrwt beam="1">0</pdfrwt>
<pdfrwt beam="2">  1        2 0.37800082E+00 0.64482558E+03</pdfrwt>
<totfact> 0.48098678E+00</totfact>
</mgrwt>
</event>
<event>
 5    1  0.2343702E-004  0.6450750E+03  0.7818608E-02  0.9816065E-01
         13   -1    0    0    0    0  0.00000000000E+00  0.00000000000E+00  0.10000000000E+04  0.10000000000E+04  0.00000000000E+00 0. -1.
          2   -1    0    0  501    0 -0.00000000000E+00 -0.00000000000E+00 -0.10403045196E+03  0.10403045196E+03  0.00000000000E+00 0. -1.
    9000006    2    1    2  501    0  0.00000000000E+00  0.00000000000E+00  0.89596954804E+03  0.11040304520E+04  0.64507504046E+03 0.  0.
         13    1    3    3    0    0 -0.51982035197E+02 -0.21774313008E+03  0.84538732491E+03  0.87452497495E+03  0.00000000000E+00 0. -1.
          4    1    3    3  501    0  0.51982035197E+02  0.21774313008E+03  0.50582223131E+02  0.22950547701E+03  0.00000000000E+00 0. -1.
<mgrwt>
<rscale>  0 0.64507504E+03</rscale>
<asrwt>0</asrwt>
<pdfrwt beam="1">0</pdfrwt>
<pdfrwt beam="2">  1        2 0.37829335E+00 0.64507504E+03</pdfrwt>
<totfact> 0.47978536E+00</totfact>
</mgrwt>
</event>
<event>
 5    1  0.2343702E-004  0.6303620E+03  0.7818608E-02  0.9844343E-01
         13   -1    0    0    0    0  0.00000000000E+00  0.00000000000E+00  0.10000000000E+04  0.10000000000E+04  0.00000000000E+00 0. -1.
          2   -1    0    0  501    0 -0.00000000000E+00 -0.00000000000E+00 -0.99339053195E+02  0.99339053195E+02  0.00000000000E+00 0. -1.
    9000006    2    1    2  501    0  0.00000000000E+00  0.00000000000E+00  0.90066094680E+03  0.10993390532E+04  0.63036196965E+03 0.  0.
         13    1    3    3    0    0  0.18004827162E+03  0.25846283504E+03  0.46932593597E+03  0.56523203323E+03  0.00000000000E+00 0. -1.
          4    1    3    3  501    0 -0.18004827162E+03 -0.25846283504E+03  0.43133501083E+03  0.53410701997E+03  0.00000000000E+00 0. -1.
<mgrwt>
<rscale>  0 0.63036197E+03</rscale>
<asrwt>0</asrwt>
<pdfrwt beam="1">0</pdfrwt>
<pdfrwt beam="2">  1        2 0.36123368E+00 0.63036197E+03</pdfrwt>
<totfact> 0.55464004E+00</totfact>
</mgrwt>
</event>
<event>
 5    1  0.2343702E-004  0.6387754E+03  0.7818608E-02  0.9828072E-01
         13   -1    0    0    0    0  0.00000000000E+00  0.00000000000E+00  0.10000000000E+04  0.10000000000E+04  0.00000000000E+00 0. -1.
          2   -1    0    0  501    0 -0.00000000000E+00 -0.00000000000E+00 -0.10200849856E+03  0.10200849856E+03  0.00000000000E+00 0. -1.
    9000006    2    1    2  501    0  0.00000000000E+00  0.00000000000E+00  0.89799150144E+03  0.11020084986E+04  0.63877538639E+03 0.  0.
         13    1    3    3    0    0 -0.25725571725E+03  0.81050935662E+00  0.12244999879E+03  0.28491255358E+03  0.00000000000E+00 0. -1.
          4    1    3    3  501    0  0.25725571725E+03 -0.81050935662E+00  0.77554150265E+03  0.81709594498E+03  0.00000000000E+00 0. -1.
<mgrwt>
<rscale>  0 0.63877539E+03</rscale>
<asrwt>0</asrwt>
<pdfrwt beam="1">0</pdfrwt>
<pdfrwt beam="2">  1        2 0.37094078E+00 0.63877539E+03</pdfrwt>
<totfact> 0.51083069E+00</totfact>
</mgrwt>
</event>
<event>
 5    1  0.2343702E-004  0.6515200E+03  0.7818608E-02  0.9803931E-01
         13   -1    0    0    0    0  0.00000000000E+00  0.00000000000E+00  0.10000000000E+04  0.10000000000E+04  0.00000000000E+00 0. -1.
          2   -1    0    0  501    0 -0.00000000000E+00 -0.00000000000E+00 -0.10611958032E+03  0.10611958032E+03  0.00000000000E+00 0. -1.
    9000006    2    1    2  501    0  0.00000000000E+00  0.00000000000E+00  0.89388041968E+03  0.11061195803E+04  0.65152000835E+03 0.  0.
         13    1    3    3    0    0 -0.13143468679E+03  0.28833169725E+03  0.31865779821E+03  0.44939185228E+03  0.00000000000E+00 0. -1.
          4    1    3    3  501    0  0.13143468679E+03 -0.28833169725E+03  0.57522262147E+03  0.65672772804E+03  0.00000000000E+00 0. -1.
<mgrwt>
<rscale>  0 0.65152001E+03</rscale>
<asrwt>0</asrwt>
<pdfrwt beam="1">0</pdfrwt>
<pdfrwt beam="2">  1        2 0.38589020E+00 0.65152001E+03</pdfrwt>
<totfact> 0.44952484E+00</totfact>
</mgrwt>
</event>
<event>
 5    1  0.2343702E-004  0.6509390E+03  0.7818608E-02  0.9805019E-01
         13   -1    0    0    0    0  0.00000000000E+00  0.00000000000E+00  0.10000000000E+04  0.10000000000E+04  0.00000000000E+00 0. -1.
          2   -1    0    0  501    0 -0.00000000000E+00 -0.00000000000E+00 -0.10593040683E+03  0.10593040683E+03  0.00000000000E+00 0. -1.
    9000006    2    1    2  501    0  0.00000000000E+00  0.00000000000E+00  0.89406959317E+03  0.11059304068E+04  0.65093903503E+03 0.  0.
         13    1    3    3    0    0 -0.11827732814E+03 -0.30060182601E+03  0.51455545495E+03  0.60755106812E+03  0.00000000000E+00 0. -1.
          4    1    3    3  501    0  0.11827732814E+03  0.30060182601E+03  0.37951413822E+03  0.49837933872E+03  0.00000000000E+00 0. -1.
<mgrwt>
<rscale>  0 0.65093904E+03</rscale>
<asrwt>0</asrwt>
<pdfrwt beam="1">0</pdfrwt>
<pdfrwt beam="2">  1        2 0.38520229E+00 0.65093904E+03</pdfrwt>
<totfact> 0.45219181E+00</totfact>
</mgrwt>
</event>
<event>
 5    1  0.2343702E-004  0.6470224E+03  0.7818608E-02  0.9812383E-01
         13   -1    0    0    0    0  0.00000000000E+00  0.00000000000E+00  0.10000000000E+04  0.10000000000E+04  0.00000000000E+00 0. -1.
          2   -1    0    0  501    0 -0.00000000000E+00 -0.00000000000E+00 -0.10465948401E+03  0.10465948401E+03  0.00000000000E+00 0. -1.
    9000006    2    1    2  501    0  0.00000000000E+00  0.00000000000E+00  0.89534051599E+03  0.11046594840E+04  0.64702236133E+03 0.  0.
         13    1    3    3    0    0 -0.31579380121E+03  0.26697158196E+02  0.55859230747E+03  0.64223346931E+03  0.00000000000E+00 0. -1.
          2    1    3    3  501    0  0.31579380121E+03 -0.26697158196E+02  0.33674820852E+03  0.46242601471E+03  0.00000000000E+00 0. -1.
<mgrwt>
<rscale>  0 0.64702236E+03</rscale>
<asrwt>0</asrwt>
<pdfrwt beam="1">0</pdfrwt>
<pdfrwt beam="2">  1        2 0.38058074E+00 0.64702236E+03</pdfrwt>
<totfact> 0.47048479E+00</totfact>
</mgrwt>
</event>
<event>
 5    1  0.2343702E-004  0.6439362E+03  0.7818608E-02  0.9818225E-01
         13   -1    0    0    0    0  0.00000000000E+00  0.00000000000E+00  0.10000000000E+04  0.10000000000E+04  0.00000000000E+00 0. -1.
          2   -1    0    0  501    0 -0.00000000000E+00 -0.00000000000E+00 -0.10366344475E+03  0.10366344475E+03  0.00000000000E+00 0. -1.
    9000006    2    1    2  501    0  0.00000000000E+00  0.00000000000E+00  0.89633655525E+03  0.11036634448E+04  0.64393616066E+03 0.  0.
         13    1    3    3    0    0 -0.18247559929E+03 -0.19125184243E+03  0.76321897240E+03  0.80769908468E+03  0.00000000000E+00 0. -1.
          4    1    3    3  501    0  0.18247559929E+03  0.19125184243E+03  0.13311758285E+03  0.29596436007E+03  0.00000000000E+00 0. -1.
<mgrwt>
<rscale>  0 0.64393616E+03</rscale>
<asrwt>0</asrwt>
<pdfrwt beam="1">0</pdfrwt>
<pdfrwt beam="2">  1        2 0.37695878E+00 0.64393616E+03</pdfrwt>
<totfact> 0.48528883E+00</totfact>
</mgrwt>
</event>
<event>
 5    1  0.2343702E-004  0.6576586E+03  0.7818608E-02  0.9792514E-01
         13   -1    0    0    0    0  0.00000000000E+00  0.00000000000E+00  0.10000000000E+04  0.10000000000E+04  0.00000000000E+00 0. -1.
          2   -1    0    0  501    0 -0.00000000000E+00 -0.00000000000E+00 -0.10812870869E+03  0.10812870869E+03  0.00000000000E+00 0. -1.
    9000006    2    1    2  501    0  0.00000000000E+00  0.00000000000E+00  0.89187129131E+03  0.11081287087E+04  0.65765860046E+03 0.  0.
         13    1    3    3    0    0  0.87102857738E+02 -0.30613767426E+03  0.30677050960E+03  0.44205806065E+03  0.00000000000E+00 0. -1.
          2    1    3    3  501    0 -0.87102857738E+02  0.30613767426E+03  0.58510078171E+03  0.66607064804E+03  0.00000000000E+00 0. -1.
<mgrwt>
<rscale>  0 0.65765860E+03</rscale>
<asrwt>0</asrwt>
<pdfrwt beam="1">0</pdfrwt>
<pdfrwt beam="2">  1        2 0.39319613E+00 0.65765860E+03</pdfrwt>
<totfact> 0.42206560E+00</totfact>
</mgrwt>
</event>
<event>
 5    1  0.2343702E-004  0.6533823E+03  0.7818608E-02  0.9800453E-01
         13   -1    0    0    0    0  0.00000000000E+00  0.00000000000E+00  0.10000000000E+04  0.10000000000E+04  0.00000000000E+00 0. -1.
          2   -1    0    0  501    0 -0.00000000000E+00 -0.00000000000E+00 -0.10672712364E+03  0.10672712364E+03  0.00000000000E+00 0. -1.
    9000006    2    1    2  501    0  0.00000000000E+00  0.00000000000E+00  0.89327287636E+03  0.11067271236E+04  0.65338234945E+03 0.  0.
         13    1    3    3    0    0 -0.76569475232E+02  0.18531666527E+03  0.97629247240E+01  0.20074975881E+03  0.00000000000E+00 0. -1.
          2    1    3    3  501    0  0.76569475232E+02 -0.18531666527E+03  0.88350995163E+03  0.90597736484E+03  0.00000000000E+00 0. -1.
<mgrwt>
<rscale>  0 0.65338235E+03</rscale>
<asrwt>0</asrwt>
<pdfrwt beam="1">0</pdfrwt>
<pdfrwt beam="2">  1        2 0.38809945E+00 0.65338235E+03</pdfrwt>
<totfact> 0.44105577E+00</totfact>
</mgrwt>
</event>
<event>
 5    1  0.2343702E-004  0.6527018E+03  0.7818608E-02  0.9801723E-01
         13   -1    0    0    0    0  0.00000000000E+00  0.00000000000E+00  0.10000000000E+04  0.10000000000E+04  0.00000000000E+00 0. -1.
          2   -1    0    0  501    0 -0.00000000000E+00 -0.00000000000E+00 -0.10650489544E+03  0.10650489544E+03  0.00000000000E+00 0. -1.
    9000006    2    1    2  501    0  0.00000000000E+00  0.00000000000E+00  0.89349510456E+03  0.11065048954E+04  0.65270175558E+03 0.  0.
         13    1    3    3    0    0  0.26615547147E+03  0.16598252498E+03  0.59947199785E+03  0.67657638873E+03  0.00000000000E+00 0. -1.
          4    1    3    3  501    0 -0.26615547147E+03 -0.16598252498E+03  0.29402310672E+03  0.42992850670E+03  0.00000000000E+00 0. -1.
<mgrwt>
<rscale>  0 0.65270176E+03</rscale>
<asrwt>0</asrwt>
<pdfrwt beam="1">0</pdfrwt>
<pdfrwt beam="2">  1        2 0.38729135E+00 0.65270176E+03</pdfrwt>
<totfact> 0.44413670E+00</totfact>
</mgrwt>
</event>
<event>
 5    1  0.2343702E-004  0.6520715E+03  0.7818608E-02  0.9802900E-01
         13   -1    0    0    0    0  0.00000000000E+00  0.00000000000E+00  0.10000000000E+04  0.10000000000E+04  0.00000000000E+00 0. -1.
          2   -1    0    0  501    0 -0.00000000000E+00 -0.00000000000E+00 -0.10629932149E+03  0.10629932149E+03  0.00000000000E+00 0. -1.
    9000006    2    1    2  501    0  0.00000000000E+00  0.00000000000E+00  0.89370067851E+03  0.11062993215E+04  0.65207153440E+03 0.  0.
         13    1    3    3    0    0 -0.74850750827E+02  0.31715344448E+03  0.42902568481E+03  0.53875038791E+03  0.00000000000E+00 0. -1.
          2    1    3    3  501    0  0.74850750827E+02 -0.31715344448E+03  0.46467499370E+03  0.56754893359E+03  0.00000000000E+00 0. -1.
<mgrwt>
<rscale>  0 0.65207153E+03</rscale>
<asrwt>0</asrwt>
<pdfrwt beam="1">0</pdfrwt>
<pdfrwt beam="2">  1        2 0.38654380E+00 0.65207153E+03</pdfrwt>
<totfact> 0.44700406E+00</totfact>
</mgrwt>
</event>
<event>
 5    1  0.2343702E-004  0.6424386E+03  0.7818608E-02  0.9821072E-01
         13   -1    0    0    0    0  0.00000000000E+00  0.00000000000E+00  0.10000000000E+04  0.10000000000E+04  0.00000000000E+00 0. -1.
          2   -1    0    0  501    0 -0.00000000000E+00 -0.00000000000E+00 -0.10318183047E+03  0.10318183047E+03  0.00000000000E+00 0. -1.
    9000006    2    1    2  501    0  0.00000000000E+00  0.00000000000E+00  0.89681816953E+03  0.11031818305E+04  0.64243857440E+03 0.  0.
         13    1    3    3    0    0 -0.31840522649E+03  0.41593141903E+02  0.46277118366E+03  0.56326640778E+03  0.00000000000E+00 0. -1.
          4    1    3    3  501    0  0.31840522649E+03 -0.41593141903E+02  0.43404698587E+03  0.53991542269E+03  0.00000000000E+00 0. -1.
<mgrwt>
<rscale>  0 0.64243857E+03</rscale>
<asrwt>0</asrwt>
<pdfrwt beam="1">0</pdfrwt>
<pdfrwt beam="2">  1        2 0.37520745E+00 0.64243857E+03</pdfrwt>
<totfact> 0.49259837E+00</totfact>
</mgrwt>
</event>
<event>
 5    1  0.2343702E-004  0.6410175E+03  0.7818608E-02  0.9823782E-01
         13   -1    0    0    0    0  0.00000000000E+00  0.00000000000E+00  0.10000000000E+04  0.10000000000E+04  0.00000000000E+00 0. -1.
          2   -1    0    0  501    0 -0.00000000000E+00 -0.00000000000E+00 -0.10272586257E+03  0.10272586257E+03  0.00000000000E+00 0. -1.
    9000006    2    1    2  501    0  0.00000000000E+00  0.00000000000E+00  0.89727413743E+03  0.11027258626E+04  0.64101751167E+03 0.  0.
         13    1    3    3    0    0 -0.13969811451E+03 -0.28632350462E+03  0.38832556994E+03  0.50228822480E+03  0.00000000000E+00 0. -1.
          4    1    3    3  501    0  0.13969811451E+03  0.28632350462E+03  0.50894856749E+03  0.60043763777E+03  0.00000000000E+00 0. -1.
<mgrwt>
<rscale>  0 0.64101751E+03</rscale>
<asrwt>0</asrwt>
<pdfrwt beam="1">0</pdfrwt>
<pdfrwt beam="2">  1        2 0.37354938E+00 0.64101751E+03</pdfrwt>
<totfact> 0.49961171E+00</totfact>
</mgrwt>
</event>
<event>
 5    1  0.2343702E-004  0.6526200E+03  0.7818608E-02  0.9801875E-01
         13   -1    0    0    0    0  0.00000000000E+00  0.00000000000E+00  0.10000000000E+04  0.10000000000E+04  0.00000000000E+00 0. -1.
          2   -1    0    0  501    0 -0.00000000000E+00 -0.00000000000E+00 -0.10647820783E+03  0.10647820783E+03  0.00000000000E+00 0. -1.
    9000006    2    1    2  501    0  0.00000000000E+00  0.00000000000E+00  0.89352179217E+03  0.11064782078E+04  0.65261997465E+03 0.  0.
         13    1    3    3    0    0  0.27778174489E+03  0.15621173361E+03  0.56560393660E+03  0.64920922406E+03  0.00000000000E+00 0. -1.
          4    1    3    3  501    0 -0.27778174489E+03 -0.15621173361E+03  0.32791785557E+03  0.45726898376E+03  0.00000000000E+00 0. -1.
<mgrwt>
<rscale>  0 0.65261997E+03</rscale>
<asrwt>0</asrwt>
<pdfrwt beam="1">0</pdfrwt>
<pdfrwt beam="2">  1        2 0.38719430E+00 0.65261997E+03</pdfrwt>
<totfact> 0.44450799E+00</totfact>
</mgrwt>
</event>
<event>
 5    1  0.2343702E-004  0.6524199E+03  0.7818608E-02  0.9802249E-01
         13   -1    0    0    0    0  0.00000000000E+00  0.00000000000E+00  0.10000000000E+04  0.10000000000E+04  0.00000000000E+00 0. -1.
          2   -1    0    0  501    0 -0.00000000000E+00 -0.00000000000E+00 -0.10641294680E+03  0.10641294680E+03  0.00000000000E+00 0. -1.
    9000006    2    1    2  501    0  0.00000000000E+00  0.00000000000E+00  0.89358705320E+03  0.11064129468E+04  0.65241994696E+03 0.  0.
         13    1    3    3    0    0  0.25028694389E+03  0.13004693823E+03  0.16887322340E+03  0.32874599010E+03  0.00000000000E+00 0. -1.
          2    1    3    3  501    0 -0.25028694389E+03 -0.13004693823E+03  0.72471382980E+03  0.77766695669E+03  0.00000000000E+00 0. -1.
<mgrwt>
<rscale>  0 0.65241995E+03</rscale>
<asrwt>0</asrwt>
<pdfrwt beam="1">0</pdfrwt>
<pdfrwt beam="2">  1        2 0.38695699E+00 0.65241995E+03</pdfrwt>
<totfact> 0.44541714E+00</totfact>
</mgrwt>
</event>
<event>
 5    1  0.2343702E-004  0.6569953E+03  0.7818608E-02  0.9793741E-01
         13   -1    0    0    0    0  0.00000000000E+00  0.00000000000E+00  0.10000000000E+04  0.10000000000E+04  0.00000000000E+00 0. -1.
          2   -1    0    0  501    0 -0.00000000000E+00 -0.00000000000E+00 -0.10791071848E+03  0.10791071848E+03  0.00000000000E+00 0. -1.
    9000006    2    1    2  501    0  0.00000000000E+00  0.00000000000E+00  0.89208928152E+03  0.11079107185E+04  0.65699533783E+03 0.  0.
         13    1    3    3    0    0  0.31123636806E+03  0.10403870172E+03  0.42111259927E+03  0.53388008909E+03  0.00000000000E+00 0. -1.
          4    1    3    3  501    0 -0.31123636806E+03 -0.10403870172E+03  0.47097668225E+03  0.57403062939E+03  0.00000000000E+00 0. -1.
<mgrwt>
<rscale>  0 0.65699534E+03</rscale>
<asrwt>0</asrwt>
<pdfrwt beam="1">0</pdfrwt>
<pdfrwt beam="2">  1        2 0.39240344E+00 0.65699534E+03</pdfrwt>
<totfact> 0.42496980E+00</totfact>
</mgrwt>
</event>
<event>
 5    1  0.2343702E-004  0.5873802E+03  0.7818608E-02  0.9931940E-01
         13   -1    0    0    0    0  0.00000000000E+00  0.00000000000E+00  0.10000000000E+04  0.10000000000E+04  0.00000000000E+00 0. -1.
          2   -1    0    0  501    0 -0.00000000000E+00 -0.00000000000E+00 -0.86253887406E+02  0.86253887406E+02  0.00000000000E+00 0. -1.
    9000006    2    1    2  501    0  0.00000000000E+00  0.00000000000E+00  0.91374611259E+03  0.10862538874E+04  0.58738024279E+03 0.  0.
         13    1    3    3    0    0 -0.10880595102E+03 -0.10771840596E+03  0.92035515593E+03  0.93300353858E+03  0.00000000000E+00 0. -1.
          4    1    3    3  501    0  0.10880595102E+03  0.10771840596E+03 -0.66090433376E+01  0.15325034882E+03  0.00000000000E+00 0. -1.
<mgrwt>
<rscale>  0 0.58738024E+03</rscale>
<asrwt>0</asrwt>
<pdfrwt beam="1">0</pdfrwt>
<pdfrwt beam="2">  1        2 0.31365116E+00 0.58738024E+03</pdfrwt>
<totfact> 0.82493701E+00</totfact>
</mgrwt>
</event>
<event>
 5    1  0.2343702E-004  0.6421413E+03  0.7818608E-02  0.9821638E-01
         13   -1    0    0    0    0  0.00000000000E+00  0.00000000000E+00  0.10000000000E+04  0.10000000000E+04  0.00000000000E+00 0. -1.
          2   -1    0    0  501    0 -0.00000000000E+00 -0.00000000000E+00 -0.10308636002E+03  0.10308636002E+03  0.00000000000E+00 0. -1.
    9000006    2    1    2  501    0  0.00000000000E+00  0.00000000000E+00  0.89691363998E+03  0.11030863600E+04  0.64214129292E+03 0.  0.
         13    1    3    3    0    0 -0.67930566832E+02 -0.26936572378E+03  0.72498878973E+03  0.77638985071E+03  0.00000000000E+00 0. -1.
          4    1    3    3  501    0  0.67930566832E+02  0.26936572378E+03  0.17192485025E+03  0.32669650931E+03  0.00000000000E+00 0. -1.
<mgrwt>
<rscale>  0 0.64214129E+03</rscale>
<asrwt>0</asrwt>
<pdfrwt beam="1">0</pdfrwt>
<pdfrwt beam="2">  1        2 0.37486028E+00 0.64214129E+03</pdfrwt>
<totfact> 0.49405933E+00</totfact>
</mgrwt>
</event>
<event>
 5    1  0.2343702E-004  0.6362680E+03  0.7818608E-02  0.9832893E-01
         13   -1    0    0    0    0  0.00000000000E+00  0.00000000000E+00  0.10000000000E+04  0.10000000000E+04  0.00000000000E+00 0. -1.
          2   -1    0    0  501    0 -0.00000000000E+00 -0.00000000000E+00 -0.10120923766E+03  0.10120923766E+03  0.00000000000E+00 0. -1.
    9000006    2    1    2  501    0  0.00000000000E+00  0.00000000000E+00  0.89879076234E+03  0.11012092377E+04  0.63626798649E+03 0.  0.
         13    1    3    3    0    0 -0.27482177637E+03 -0.12819699291E+03  0.61583167878E+03  0.68644747384E+03  0.00000000000E+00 0. -1.
          2    1    3    3  501    0  0.27482177637E+03  0.12819699291E+03  0.28295908356E+03  0.41476176382E+03  0.00000000000E+00 0. -1.
<mgrwt>
<rscale>  0 0.63626799E+03</rscale>
<asrwt>0</asrwt>
<pdfrwt beam="1">0</pdfrwt>
<pdfrwt beam="2">  1        2 0.36803437E+00 0.63626799E+03</pdfrwt>
<totfact> 0.52360195E+00</totfact>
</mgrwt>
</event>
<event>
 5    1  0.2343702E-004  0.6475744E+03  0.7818608E-02  0.9811341E-01
         13   -1    0    0    0    0  0.00000000000E+00  0.00000000000E+00  0.10000000000E+04  0.10000000000E+04  0.00000000000E+00 0. -1.
          2   -1    0    0  501    0 -0.00000000000E+00 -0.00000000000E+00 -0.10483815643E+03  0.10483815643E+03  0.00000000000E+00 0. -1.
    9000006    2    1    2  501    0  0.00000000000E+00  0.00000000000E+00  0.89516184357E+03  0.11048381564E+04  0.64757441712E+03 0.  0.
         13    1    3    3    0    0 -0.77004907277E+02  0.95676705771E+02  0.95871728595E+03  0.96655192419E+03  0.00000000000E+00 0. -1.
          4    1    3    3  501    0  0.77004907277E+02 -0.95676705771E+02 -0.63555442377E+02  0.13828623224E+03  0.00000000000E+00 0. -1.
<mgrwt>
<rscale>  0 0.64757442E+03</rscale>
<asrwt>0</asrwt>
<pdfrwt beam="1">0</pdfrwt>
<pdfrwt beam="2">  1        2 0.38123046E+00 0.64757442E+03</pdfrwt>
<totfact> 0.46787310E+00</totfact>
</mgrwt>
</event>
<event>
 5    1  0.2343702E-004  0.6508547E+03  0.7818608E-02  0.9805177E-01
         13   -1    0    0    0    0  0.00000000000E+00  0.00000000000E+00  0.10000000000E+04  0.10000000000E+04  0.00000000000E+00 0. -1.
          2   -1    0    0  501    0 -0.00000000000E+00 -0.00000000000E+00 -0.10590296528E+03  0.10590296528E+03  0.00000000000E+00 0. -1.
    9000006    2    1    2  501    0  0.00000000000E+00  0.00000000000E+00  0.89409703472E+03  0.11059029653E+04  0.65085471584E+03 0.  0.
         13    1    3    3    0    0  0.89375188266E+02 -0.10314374811E+03 -0.54925685962E+02  0.14711691959E+03  0.00000000000E+00 0. -1.
          2    1    3    3  501    0 -0.89375188266E+02  0.10314374811E+03  0.94902272068E+03  0.95878604569E+03  0.00000000000E+00 0. -1.
<mgrwt>
<rscale>  0 0.65085472E+03</rscale>
<asrwt>0</asrwt>
<pdfrwt beam="1">0</pdfrwt>
<pdfrwt beam="2">  1        2 0.38510250E+00 0.65085472E+03</pdfrwt>
<totfact> 0.45257987E+00</totfact>
</mgrwt>
</event>
<event>
 5    1  0.2343702E-004  0.5509652E+03  0.7818608E-02  0.1001271E+00
         13   -1    0    0    0    0  0.00000000000E+00  0.00000000000E+00  0.10000000000E+04  0.10000000000E+04  0.00000000000E+00 0. -1.
          2   -1    0    0  501    0 -0.00000000000E+00 -0.00000000000E+00 -0.75890674733E+02  0.75890674733E+02  0.00000000000E+00 0. -1.
    9000006    2    1    2  501    0  0.00000000000E+00  0.00000000000E+00  0.92410932527E+03  0.10758906747E+04  0.55096524294E+03 0.  0.
         13    1    3    3    0    0 -0.65881567314E+02 -0.20369051456E+03  0.80061946799E+03  0.82874708998E+03  0.00000000000E+00 0. -1.
          2    1    3    3  501    0  0.65881567314E+02  0.20369051456E+03  0.12348985728E+03  0.24714358475E+03  0.00000000000E+00 0. -1.
<mgrwt>
<rscale>  0 0.55096524E+03</rscale>
<asrwt>0</asrwt>
<pdfrwt beam="1">0</pdfrwt>
<pdfrwt beam="2">  1        2 0.27596667E+00 0.55096524E+03</pdfrwt>
<totfact> 0.11251906E+01</totfact>
</mgrwt>
</event>
<event>
 5    1  0.2343702E-004  0.6463309E+03  0.7818608E-02  0.9813688E-01
         13   -1    0    0    0    0  0.00000000000E+00  0.00000000000E+00  0.10000000000E+04  0.10000000000E+04  0.00000000000E+00 0. -1.
          2   -1    0    0  501    0 -0.00000000000E+00 -0.00000000000E+00 -0.10443591741E+03  0.10443591741E+03  0.00000000000E+00 0. -1.
    9000006    2    1    2  501    0  0.00000000000E+00  0.00000000000E+00  0.89556408259E+03  0.11044359174E+04  0.64633092888E+03 0.  0.
         13    1    3    3    0    0  0.17942612200E+03  0.16273179217E+03  0.81331891348E+03  0.84862419508E+03  0.00000000000E+00 0. -1.
          2    1    3    3  501    0 -0.17942612200E+03 -0.16273179217E+03  0.82245169111E+02  0.25581172233E+03  0.00000000000E+00 0. -1.
<mgrwt>
<rscale>  0 0.64633093E+03</rscale>
<asrwt>0</asrwt>
<pdfrwt beam="1">0</pdfrwt>
<pdfrwt beam="2">  1        2 0.37976777E+00 0.64633093E+03</pdfrwt>
<totfact> 0.47377137E+00</totfact>
</mgrwt>
</event>
<event>
 5    1  0.2343702E-004  0.6540944E+03  0.7818608E-02  0.9799127E-01
         13   -1    0    0    0    0  0.00000000000E+00  0.00000000000E+00  0.10000000000E+04  0.10000000000E+04  0.00000000000E+00 0. -1.
          2   -1    0    0  501    0 -0.00000000000E+00 -0.00000000000E+00 -0.10695986067E+03  0.10695986067E+03  0.00000000000E+00 0. -1.
    9000006    2    1    2  501    0  0.00000000000E+00  0.00000000000E+00  0.89304013933E+03  0.11069598607E+04  0.65409436832E+03 0.  0.
         13    1    3    3    0    0  0.38852349104E+01  0.29785330947E+03  0.21803226856E+03  0.36914734070E+03  0.00000000000E+00 0. -1.
          2    1    3    3  501    0 -0.38852349104E+01 -0.29785330947E+03  0.67500787077E+03  0.73781251997E+03  0.00000000000E+00 0. -1.
<mgrwt>
<rscale>  0 0.65409437E+03</rscale>
<asrwt>0</asrwt>
<pdfrwt beam="1">0</pdfrwt>
<pdfrwt beam="2">  1        2 0.38894577E+00 0.65409437E+03</pdfrwt>
<totfact> 0.43784990E+00</totfact>
</mgrwt>
</event>
<event>
 5    1  0.2343702E-004  0.6537041E+03  0.7818608E-02  0.9799853E-01
         13   -1    0    0    0    0  0.00000000000E+00  0.00000000000E+00  0.10000000000E+04  0.10000000000E+04  0.00000000000E+00 0. -1.
          2   -1    0    0  501    0 -0.00000000000E+00 -0.00000000000E+00 -0.10683227080E+03  0.10683227080E+03  0.00000000000E+00 0. -1.
    9000006    2    1    2  501    0  0.00000000000E+00  0.00000000000E+00  0.89316772920E+03  0.11068322708E+04  0.65370412512E+03 0.  0.
         13    1    3    3    0    0  0.25685207545E+01 -0.30016338700E+03  0.66557049164E+03  0.73012925948E+03  0.00000000000E+00 0. -1.
          2    1    3    3  501    0 -0.25685207545E+01  0.30016338700E+03  0.22759723756E+03  0.37670301132E+03  0.00000000000E+00 0. -1.
<mgrwt>
<rscale>  0 0.65370413E+03</rscale>
<asrwt>0</asrwt>
<pdfrwt beam="1">0</pdfrwt>
<pdfrwt beam="2">  1        2 0.38848180E+00 0.65370413E+03</pdfrwt>
<totfact> 0.43960478E+00</totfact>
</mgrwt>
</event>
<event>
 5    1  0.2343702E-004  0.6542115E+03  0.7818608E-02  0.9798909E-01
         13   -1    0    0    0    0  0.00000000000E+00  0.00000000000E+00  0.10000000000E+04  0.10000000000E+04  0.00000000000E+00 0. -1.
          2   -1    0    0  501    0 -0.00000000000E+00 -0.00000000000E+00 -0.10699817453E+03  0.10699817453E+03  0.00000000000E+00 0. -1.
    9000006    2    1    2  501    0  0.00000000000E+00  0.00000000000E+00  0.89300182547E+03  0.11069981745E+04  0.65421150870E+03 0.  0.
         13    1    3    3    0    0  0.79189463861E+02  0.71778394736E+02 -0.76618728840E+02  0.13150490009E+03  0.00000000000E+00 0. -1.
          2    1    3    3  501    0 -0.79189463861E+02 -0.71778394736E+02  0.96962055431E+03  0.97549327444E+03  0.00000000000E+00 0. -1.
<mgrwt>
<rscale>  0 0.65421151E+03</rscale>
<asrwt>0</asrwt>
<pdfrwt beam="1">0</pdfrwt>
<pdfrwt beam="2">  1        2 0.38908509E+00 0.65421151E+03</pdfrwt>
<totfact> 0.43732416E+00</totfact>
</mgrwt>
</event>
<event>
 5    1  0.2343702E-004  0.6601158E+03  0.7818608E-02  0.9787981E-01
         13   -1    0    0    0    0  0.00000000000E+00  0.00000000000E+00  0.10000000000E+04  0.10000000000E+04  0.00000000000E+00 0. -1.
          2   -1    0    0  501    0 -0.00000000000E+00 -0.00000000000E+00 -0.10893820660E+03  0.10893820660E+03  0.00000000000E+00 0. -1.
    9000006    2    1    2  501    0  0.00000000000E+00  0.00000000000E+00  0.89106179340E+03  0.11089382066E+04  0.66011576741E+03 0.  0.
         13    1    3    3    0    0 -0.10819849889E+03 -0.31177294259E+03  0.45456560598E+03  0.56172873616E+03  0.00000000000E+00 0. -1.
          2    1    3    3  501    0  0.10819849889E+03  0.31177294259E+03  0.43649618743E+03  0.54720947043E+03  0.00000000000E+00 0. -1.
<mgrwt>
<rscale>  0 0.66011577E+03</rscale>
<asrwt>0</asrwt>
<pdfrwt beam="1">0</pdfrwt>
<pdfrwt beam="2">  1        2 0.39613977E+00 0.66011577E+03</pdfrwt>
<totfact> 0.41143758E+00</totfact>
</mgrwt>
</event>
<event>
 5    1  0.2343702E-004  0.6458626E+03  0.7818608E-02  0.9814574E-01
         13   -1    0    0    0    0  0.00000000000E+00  0.00000000000E+00  0.10000000000E+04  0.10000000000E+04  0.00000000000E+00 0. -1.
          2   -1    0    0  501    0 -0.00000000000E+00 -0.00000000000E+00 -0.10428462020E+03  0.10428462020E+03  0.00000000000E+00 0. -1.
    9000006    2    1    2  501    0  0.00000000000E+00  0.00000000000E+00  0.89571537980E+03  0.11042846202E+04  0.64586258664E+03 0.  0.
         13    1    3    3    0    0  0.69809233145E+02 -0.18141305490E+03  0.88877145812E+03  0.90977949542E+03  0.00000000000E+00 0. -1.
          4    1    3    3  501    0 -0.69809233145E+02  0.18141305490E+03  0.69439216749E+01  0.19450512478E+03  0.00000000000E+00 0. -1.
<mgrwt>
<rscale>  0 0.64586259E+03</rscale>
<asrwt>0</asrwt>
<pdfrwt beam="1">0</pdfrwt>
<pdfrwt beam="2">  1        2 0.37921760E+00 0.64586259E+03</pdfrwt>
<totfact> 0.47600738E+00</totfact>
</mgrwt>
</event>
<event>
 5    1  0.2343702E-004  0.6541520E+03  0.7818608E-02  0.9799019E-01
         13   -1    0    0    0    0  0.00000000000E+00  0.00000000000E+00  0.10000000000E+04  0.10000000000E+04  0.00000000000E+00 0. -1.
          2   -1    0    0  501    0 -0.00000000000E+00 -0.00000000000E+00 -0.10697871710E+03  0.10697871710E+03  0.00000000000E+00 0. -1.
    9000006    2    1    2  501    0  0.00000000000E+00  0.00000000000E+00  0.89302128290E+03  0.11069787171E+04  0.65415202239E+03 0.  0.
         13    1    3    3    0    0 -0.31819536928E+02 -0.32490975274E+03  0.48035054247E+03  0.58078866553E+03  0.00000000000E+00 0. -1.
          2    1    3    3  501    0  0.31819536928E+02  0.32490975274E+03  0.41267074043E+03  0.52619005157E+03  0.00000000000E+00 0. -1.
<mgrwt>
<rscale>  0 0.65415202E+03</rscale>
<asrwt>0</asrwt>
<pdfrwt beam="1">0</pdfrwt>
<pdfrwt beam="2">  1        2 0.38901434E+00 0.65415202E+03</pdfrwt>
<totfact> 0.43759108E+00</totfact>
</mgrwt>
</event>
<event>
 5    1  0.2343702E-004  0.6498906E+03  0.7818608E-02  0.9806984E-01
         13   -1    0    0    0    0  0.00000000000E+00  0.00000000000E+00  0.10000000000E+04  0.10000000000E+04  0.00000000000E+00 0. -1.
          2   -1    0    0  501    0 -0.00000000000E+00 -0.00000000000E+00 -0.10558945847E+03  0.10558945847E+03  0.00000000000E+00 0. -1.
    9000006    2    1    2  501    0  0.00000000000E+00  0.00000000000E+00  0.89441054153E+03  0.11055894585E+04  0.64989063225E+03 0.  0.
         13    1    3    3    0    0 -0.27121543823E+03 -0.12107236132E+03  0.22297583701E+03  0.37139541529E+03  0.00000000000E+00 0. -1.
          2    1    3    3  501    0  0.27121543823E+03  0.12107236132E+03  0.67143470452E+03  0.73419404318E+03  0.00000000000E+00 0. -1.
<mgrwt>
<rscale>  0 0.64989063E+03</rscale>
<asrwt>0</asrwt>
<pdfrwt beam="1">0</pdfrwt>
<pdfrwt beam="2">  1        2 0.38396248E+00 0.64989063E+03</pdfrwt>
<totfact> 0.45703476E+00</totfact>
</mgrwt>
</event>
<event>
 5    1  0.2343702E-004  0.6455133E+03  0.7818608E-02  0.9815235E-01
         13   -1    0    0    0    0  0.00000000000E+00  0.00000000000E+00  0.10000000000E+04  0.10000000000E+04  0.00000000000E+00 0. -1.
          2   -1    0    0  501    0 -0.00000000000E+00 -0.00000000000E+00 -0.10417183915E+03  0.10417183915E+03  0.00000000000E+00 0. -1.
    9000006    2    1    2  501    0  0.00000000000E+00  0.00000000000E+00  0.89582816085E+03  0.11041718392E+04  0.64551325053E+03 0.  0.
         13    1    3    3    0    0  0.14923073792E+03 -0.28235071628E+03  0.52778149311E+03  0.61688333143E+03  0.00000000000E+00 0. -1.
          4    1    3    3  501    0 -0.14923073792E+03  0.28235071628E+03  0.36804666774E+03  0.48728850772E+03  0.00000000000E+00 0. -1.
<mgrwt>
<rscale>  0 0.64551325E+03</rscale>
<asrwt>0</asrwt>
<pdfrwt beam="1">0</pdfrwt>
<pdfrwt beam="2">  1        2 0.37880749E+00 0.64551325E+03</pdfrwt>
<totfact> 0.47768041E+00</totfact>
</mgrwt>
</event>
<event>
 5    1  0.2343702E-004  0.6522902E+03  0.7818608E-02  0.9802491E-01
         13   -1    0    0    0    0  0.00000000000E+00  0.00000000000E+00  0.10000000000E+04  0.10000000000E+04  0.00000000000E+00 0. -1.
          2   -1    0    0  501    0 -0.00000000000E+00 -0.00000000000E+00 -0.10637063656E+03  0.10637063656E+03  0.00000000000E+00 0. -1.
    9000006    2    1    2  501    0  0.00000000000E+00  0.00000000000E+00  0.89362936344E+03  0.11063706366E+04  0.65229023160E+03 0.  0.
         13    1    3    3    0    0 -0.16989209831E+03 -0.23969400127E+03  0.68700822258E+03  0.74719263728E+03  0.00000000000E+00 0. -1.
          2    1    3    3  501    0  0.16989209831E+03  0.23969400127E+03  0.20662114086E+03  0.35917799928E+03  0.00000000000E+00 0. -1.
<mgrwt>
<rscale>  0 0.65229023E+03</rscale>
<asrwt>0</asrwt>
<pdfrwt beam="1">0</pdfrwt>
<pdfrwt beam="2">  1        2 0.38680313E+00 0.65229023E+03</pdfrwt>
<totfact> 0.44600746E+00</totfact>
</mgrwt>
</event>
<event>
 5    1  0.2343702E-004  0.6468475E+03  0.7818608E-02  0.9812713E-01
         13   -1    0    0    0    0  0.00000000000E+00  0.00000000000E+00  0.10000000000E+04  0.10000000000E+04  0.00000000000E+00 0. -1.
          2   -1    0    0  501    0 -0.00000000000E+00 -0.00000000000E+00 -0.10460293373E+03  0.10460293373E+03  0.00000000000E+00 0. -1.
    9000006    2    1    2  501    0  0.00000000000E+00  0.00000000000E+00  0.89539706627E+03  0.11046029337E+04  0.64684753608E+03 0.  0.
         13    1    3    3    0    0 -0.28773334518E+03 -0.13567417311E+03  0.54734483818E+03  0.63307529652E+03  0.00000000000E+00 0. -1.
          2    1    3    3  501    0  0.28773334518E+03  0.13567417311E+03  0.34805222808E+03  0.47152763721E+03  0.00000000000E+00 0. -1.
<mgrwt>
<rscale>  0 0.64684754E+03</rscale>
<asrwt>0</asrwt>
<pdfrwt beam="1">0</pdfrwt>
<pdfrwt beam="2">  1        2 0.38037511E+00 0.64684754E+03</pdfrwt>
<totfact> 0.47131415E+00</totfact>
</mgrwt>
</event>
<event>
 5    1  0.2343702E-004  0.6521506E+03  0.7818608E-02  0.9802752E-01
         13   -1    0    0    0    0  0.00000000000E+00  0.00000000000E+00  0.10000000000E+04  0.10000000000E+04  0.00000000000E+00 0. -1.
          2   -1    0    0  501    0 -0.00000000000E+00 -0.00000000000E+00 -0.10632510209E+03  0.10632510209E+03  0.00000000000E+00 0. -1.
    9000006    2    1    2  501    0  0.00000000000E+00  0.00000000000E+00  0.89367489791E+03  0.11063251021E+04  0.65215060253E+03 0.  0.
         13    1    3    3    0    0 -0.84483604010E+02  0.30193854796E+03  0.29490799477E+03  0.43043593190E+03  0.00000000000E+00 0. -1.
          2    1    3    3  501    0  0.84483604010E+02 -0.30193854796E+03  0.59876690314E+03  0.67588917019E+03  0.00000000000E+00 0. -1.
<mgrwt>
<rscale>  0 0.65215060E+03</rscale>
<asrwt>0</asrwt>
<pdfrwt beam="1">0</pdfrwt>
<pdfrwt beam="2">  1        2 0.38663755E+00 0.65215060E+03</pdfrwt>
<totfact> 0.44664356E+00</totfact>
</mgrwt>
</event>
<event>
 5    1  0.2343702E-004  0.6483186E+03  0.7818608E-02  0.9809939E-01
         13   -1    0    0    0    0  0.00000000000E+00  0.00000000000E+00  0.10000000000E+04  0.10000000000E+04  0.00000000000E+00 0. -1.
          2   -1    0    0  501    0 -0.00000000000E+00 -0.00000000000E+00 -0.10507925598E+03  0.10507925598E+03  0.00000000000E+00 0. -1.
    9000006    2    1    2  501    0  0.00000000000E+00  0.00000000000E+00  0.89492074402E+03  0.11050792560E+04  0.64831861298E+03 0.  0.
         13    1    3    3    0    0  0.77675660563E+02 -0.29932384282E+03  0.28175237412E+03  0.41834515827E+03  0.00000000000E+00 0. -1.
          2    1    3    3  501    0 -0.77675660563E+02  0.29932384282E+03  0.61316836990E+03  0.68673409772E+03  0.00000000000E+00 0. -1.
<mgrwt>
<rscale>  0 0.64831861E+03</rscale>
<asrwt>0</asrwt>
<pdfrwt beam="1">0</pdfrwt>
<pdfrwt beam="2">  1        2 0.38210719E+00 0.64831861E+03</pdfrwt>
<totfact> 0.46436981E+00</totfact>
</mgrwt>
</event>
<event>
 5    1  0.2343702E-004  0.6982149E+03  0.7818608E-02  0.9720290E-01
         13   -1    0    0    0    0  0.00000000000E+00  0.00000000000E+00  0.10000000000E+04  0.10000000000E+04  0.00000000000E+00 0. -1.
          2   -1    0    0  501    0 -0.00000000000E+00 -0.00000000000E+00 -0.12187599934E+03  0.12187599934E+03  0.00000000000E+00 0. -1.
    9000006    2    1    2  501    0  0.00000000000E+00  0.00000000000E+00  0.87812400066E+03  0.11218759993E+04  0.69821486475E+03 0.  0.
         13    1    3    3    0    0 -0.38401248048E+02 -0.32160888229E+03  0.22975449994E+03  0.39710711308E+03  0.00000000000E+00 0. -1.
          4    1    3    3  501    0  0.38401248048E+02  0.32160888229E+03  0.64836950072E+03  0.72476888626E+03  0.00000000000E+00 0. -1.
<mgrwt>
<rscale>  0 0.69821486E+03</rscale>
<asrwt>0</asrwt>
<pdfrwt beam="1">0</pdfrwt>
<pdfrwt beam="2">  1        2 0.44318639E+00 0.69821486E+03</pdfrwt>
<totfact> 0.27104010E+00</totfact>
</mgrwt>
</event>
<event>
 5    1  0.2343702E-004  0.6471760E+03  0.7818608E-02  0.9812093E-01
         13   -1    0    0    0    0  0.00000000000E+00  0.00000000000E+00  0.10000000000E+04  0.10000000000E+04  0.00000000000E+00 0. -1.
          2   -1    0    0  501    0 -0.00000000000E+00 -0.00000000000E+00 -0.10470920435E+03  0.10470920435E+03  0.00000000000E+00 0. -1.
    9000006    2    1    2  501    0  0.00000000000E+00  0.00000000000E+00  0.89529079565E+03  0.11047092043E+04  0.64717603277E+03 0.  0.
         13    1    3    3    0    0 -0.34091043950E+02  0.30817156773E+03  0.60573401179E+03  0.68047454579E+03  0.00000000000E+00 0. -1.
          4    1    3    3  501    0  0.34091043950E+02 -0.30817156773E+03  0.28955678386E+03  0.42423465855E+03  0.00000000000E+00 0. -1.
<mgrwt>
<rscale>  0 0.64717603E+03</rscale>
<asrwt>0</asrwt>
<pdfrwt beam="1">0</pdfrwt>
<pdfrwt beam="2">  1        2 0.38076155E+00 0.64717603E+03</pdfrwt>
<totfact> 0.46975669E+00</totfact>
</mgrwt>
</event>
<event>
 5    1  0.2343702E-004  0.6352814E+03  0.7818608E-02  0.9834796E-01
         13   -1    0    0    0    0  0.00000000000E+00  0.00000000000E+00  0.10000000000E+04  0.10000000000E+04  0.00000000000E+00 0. -1.
          2   -1    0    0  501    0 -0.00000000000E+00 -0.00000000000E+00 -0.10089560044E+03  0.10089560044E+03  0.00000000000E+00 0. -1.
    9000006    2    1    2  501    0  0.00000000000E+00  0.00000000000E+00  0.89910439956E+03  0.11008956004E+04  0.63528135638E+03 0.  0.
         13    1    3    3    0    0 -0.28567344565E+03 -0.10311807521E+03  0.61075107566E+03  0.68209935596E+03  0.00000000000E+00 0. -1.
          2    1    3    3  501    0  0.28567344565E+03  0.10311807521E+03  0.28835332390E+03  0.41879624448E+03  0.00000000000E+00 0. -1.
<mgrwt>
<rscale>  0 0.63528136E+03</rscale>
<asrwt>0</asrwt>
<pdfrwt beam="1">0</pdfrwt>
<pdfrwt beam="2">  1        2 0.36689387E+00 0.63528136E+03</pdfrwt>
<totfact> 0.52869304E+00</totfact>
</mgrwt>
</event>
<event>
 5    1  0.2343702E-004  0.6126703E+03  0.7818608E-02  0.9879462E-01
         13   -1    0    0    0    0  0.00000000000E+00  0.00000000000E+00  0.10000000000E+04  0.10000000000E+04  0.00000000000E+00 0. -1.
          2   -1    0    0  501    0 -0.00000000000E+00 -0.00000000000E+00 -0.93841238006E+02  0.93841238006E+02  0.00000000000E+00 0. -1.
    9000006    2    1    2  501    0  0.00000000000E+00  0.00000000000E+00  0.90615876199E+03  0.10938412380E+04  0.61267034531E+03 0.  0.
         13    1    3    3    0    0 -0.20195494369E+03  0.19615946766E+03  0.66863534777E+03  0.72549125723E+03  0.00000000000E+00 0. -1.
          4    1    3    3  501    0  0.20195494369E+03 -0.19615946766E+03  0.23752341423E+03  0.36834998078E+03  0.00000000000E+00 0. -1.
<mgrwt>
<rscale>  0 0.61267035E+03</rscale>
<asrwt>0</asrwt>
<pdfrwt beam="1">0</pdfrwt>
<pdfrwt beam="2">  1        2 0.34124159E+00 0.61267035E+03</pdfrwt>
<totfact> 0.65603830E+00</totfact>
</mgrwt>
</event>
<event>
 5    1  0.2343702E-004  0.6469390E+03  0.7818608E-02  0.9812540E-01
         13   -1    0    0    0    0  0.00000000000E+00  0.00000000000E+00  0.10000000000E+04  0.10000000000E+04  0.00000000000E+00 0. -1.
          2   -1    0    0  501    0 -0.00000000000E+00 -0.00000000000E+00 -0.10463252724E+03  0.10463252724E+03  0.00000000000E+00 0. -1.
    9000006    2    1    2  501    0  0.00000000000E+00  0.00000000000E+00  0.89536747276E+03  0.11046325272E+04  0.64693903033E+03 0.  0.
         13    1    3    3    0    0 -0.13535208529E+03  0.10778918015E+03 -0.18972255980E+02  0.17406504774E+03  0.00000000000E+00 0. -1.
          4    1    3    3  501    0  0.13535208529E+03 -0.10778918015E+03  0.91433972874E+03  0.93056747950E+03  0.00000000000E+00 0. -1.
<mgrwt>
<rscale>  0 0.64693903E+03</rscale>
<asrwt>0</asrwt>
<pdfrwt beam="1">0</pdfrwt>
<pdfrwt beam="2">  1        2 0.38048272E+00 0.64693903E+03</pdfrwt>
<totfact> 0.47087997E+00</totfact>
</mgrwt>
</event>
<event>
 5    1  0.2343702E-004  0.6465295E+03  0.7818608E-02  0.9813313E-01
         13   -1    0    0    0    0  0.00000000000E+00  0.00000000000E+00  0.10000000000E+04  0.10000000000E+04  0.00000000000E+00 0. -1.
          2   -1    0    0  501    0 -0.00000000000E+00 -0.00000000000E+00 -0.10450009212E+03  0.10450009212E+03  0.00000000000E+00 0. -1.
    9000006    2    1    2  501    0  0.00000000000E+00  0.00000000000E+00  0.89549990788E+03  0.11045000921E+04  0.64652947999E+03 0.  0.
         13    1    3    3    0    0  0.13447458916E+02 -0.29717598539E+02  0.99718143478E+03  0.99771478073E+03  0.00000000000E+00 0. -1.
          2    1    3    3  501    0 -0.13447458916E+02  0.29717598539E+02 -0.10168152691E+03  0.10678531139E+03  0.00000000000E+00 0. -1.
<mgrwt>
<rscale>  0 0.64652948E+03</rscale>
<asrwt>0</asrwt>
<pdfrwt beam="1">0</pdfrwt>
<pdfrwt beam="2">  1        2 0.38000114E+00 0.64652948E+03</pdfrwt>
<totfact> 0.47282582E+00</totfact>
</mgrwt>
</event>
<event>
 5    1  0.2343702E-004  0.6449550E+03  0.7818608E-02  0.9816292E-01
         13   -1    0    0    0    0  0.00000000000E+00  0.00000000000E+00  0.10000000000E+04  0.10000000000E+04  0.00000000000E+00 0. -1.
          2   -1    0    0  501    0 -0.00000000000E+00 -0.00000000000E+00 -0.10399172363E+03  0.10399172363E+03  0.00000000000E+00 0. -1.
    9000006    2    1    2  501    0  0.00000000000E+00  0.00000000000E+00  0.89600827637E+03  0.11039917236E+04  0.64495495541E+03 0.  0.
         13    1    3    3    0    0  0.18512794513E+03 -0.89536639310E+02  0.22809266954E+02  0.20690439460E+03  0.00000000000E+00 0. -1.
          2    1    3    3  501    0 -0.18512794513E+03  0.89536639310E+02  0.87319900942E+03  0.89708732902E+03  0.00000000000E+00 0. -1.
<mgrwt>
<rscale>  0 0.64495496E+03</rscale>
<asrwt>0</asrwt>
<pdfrwt beam="1">0</pdfrwt>
<pdfrwt beam="2">  1        2 0.37815252E+00 0.64495496E+03</pdfrwt>
<totfact> 0.48036342E+00</totfact>
</mgrwt>
</event>
<event>
 5    1  0.2343702E-004  0.5057862E+03  0.7818608E-02  0.1012280E+00
         13   -1    0    0    0    0  0.00000000000E+00  0.00000000000E+00  0.10000000000E+04  0.10000000000E+04  0.00000000000E+00 0. -1.
          2   -1    0    0  501    0 -0.00000000000E+00 -0.00000000000E+00 -0.63954931386E+02  0.63954931386E+02  0.00000000000E+00 0. -1.
    9000006    2    1    2  501    0  0.00000000000E+00  0.00000000000E+00  0.93604506861E+03  0.10639549314E+04  0.50578624492E+03 0.  0.
         13    1    3    3    0    0  0.56232150292E+02  0.13525905769E+03  0.90167295152E+03  0.91349394027E+03  0.00000000000E+00 0. -1.
          2    1    3    3  501    0 -0.56232150292E+02 -0.13525905769E+03  0.34372117093E+02  0.15046099111E+03  0.00000000000E+00 0. -1.
<mgrwt>
<rscale>  0 0.50578624E+03</rscale>
<asrwt>0</asrwt>
<pdfrwt beam="1">0</pdfrwt>
<pdfrwt beam="2">  1        2 0.23256388E+00 0.50578624E+03</pdfrwt>
<totfact> 0.16115013E+01</totfact>
</mgrwt>
</event>
<event>
 5    1  0.2343702E-004  0.6121233E+03  0.7818608E-02  0.9880568E-01
         13   -1    0    0    0    0  0.00000000000E+00  0.00000000000E+00  0.10000000000E+04  0.10000000000E+04  0.00000000000E+00 0. -1.
          2   -1    0    0  501    0 -0.00000000000E+00 -0.00000000000E+00 -0.93673738591E+02  0.93673738591E+02  0.00000000000E+00 0. -1.
    9000006    2    1    2  501    0  0.00000000000E+00  0.00000000000E+00  0.90632626141E+03  0.10936737386E+04  0.61212331631E+03 0.  0.
         13    1    3    3    0    0  0.15402025124E+03  0.10425876329E+03  0.18877933838E+02  0.18694518956E+03  0.00000000000E+00 0. -1.
          2    1    3    3  501    0 -0.15402025124E+03 -0.10425876329E+03  0.88744832757E+03  0.90672854903E+03  0.00000000000E+00 0. -1.
<mgrwt>
<rscale>  0 0.61212332E+03</rscale>
<asrwt>0</asrwt>
<pdfrwt beam="1">0</pdfrwt>
<pdfrwt beam="2">  1        2 0.34063249E+00 0.61212332E+03</pdfrwt>
<totfact> 0.65938341E+00</totfact>
</mgrwt>
</event>
<event>
 5    1  0.2343702E-004  0.6491952E+03  0.7818608E-02  0.9808291E-01
         13   -1    0    0    0    0  0.00000000000E+00  0.00000000000E+00  0.10000000000E+04  0.10000000000E+04  0.00000000000E+00 0. -1.
          2   -1    0    0  501    0 -0.00000000000E+00 -0.00000000000E+00 -0.10536358795E+03  0.10536358795E+03  0.00000000000E+00 0. -1.
    9000006    2    1    2  501    0  0.00000000000E+00  0.00000000000E+00  0.89463641205E+03  0.11053635880E+04  0.64919515695E+03 0.  0.
         13    1    3    3    0    0  0.27869823362E+03  0.11900693817E+03  0.24927935803E+03  0.39239719048E+03  0.00000000000E+00 0. -1.
          4    1    3    3  501    0 -0.27869823362E+03 -0.11900693817E+03  0.64535705402E+03  0.71296639747E+03  0.00000000000E+00 0. -1.
<mgrwt>
<rscale>  0 0.64919516E+03</rscale>
<asrwt>0</asrwt>
<pdfrwt beam="1">0</pdfrwt>
<pdfrwt beam="2">  1        2 0.38314113E+00 0.64919516E+03</pdfrwt>
<totfact> 0.46026896E+00</totfact>
</mgrwt>
</event>
<event>
 5    1  0.2343702E-004  0.6423279E+03  0.7818608E-02  0.9821283E-01
         13   -1    0    0    0    0  0.00000000000E+00  0.00000000000E+00  0.10000000000E+04  0.10000000000E+04  0.00000000000E+00 0. -1.
          2   -1    0    0  501    0 -0.00000000000E+00 -0.00000000000E+00 -0.10314629570E+03  0.10314629570E+03  0.00000000000E+00 0. -1.
    9000006    2    1    2  501    0  0.00000000000E+00  0.00000000000E+00  0.89685370430E+03  0.11031462957E+04  0.64232794023E+03 0.  0.
         13    1    3    3    0    0  0.64429680874E+02 -0.10098365682E+03  0.96019877312E+03  0.96764175531E+03  0.00000000000E+00 0. -1.
          2    1    3    3  501    0 -0.64429680874E+02  0.10098365682E+03 -0.63345068817E+02  0.13550454039E+03  0.00000000000E+00 0. -1.
<mgrwt>
<rscale>  0 0.64232794E+03</rscale>
<asrwt>0</asrwt>
<pdfrwt beam="1">0</pdfrwt>
<pdfrwt beam="2">  1        2 0.37507823E+00 0.64232794E+03</pdfrwt>
<totfact> 0.49314169E+00</totfact>
</mgrwt>
</event>
<event>
 5    1  0.2343702E-004  0.6494644E+03  0.7818608E-02  0.9807785E-01
         13   -1    0    0    0    0  0.00000000000E+00  0.00000000000E+00  0.10000000000E+04  0.10000000000E+04  0.00000000000E+00 0. -1.
          2   -1    0    0  501    0 -0.00000000000E+00 -0.00000000000E+00 -0.10545100018E+03  0.10545100018E+03  0.00000000000E+00 0. -1.
    9000006    2    1    2  501    0  0.00000000000E+00  0.00000000000E+00  0.89454899982E+03  0.11054510002E+04  0.64946439526E+03 0.  0.
         13    1    3    3    0    0 -0.17761382392E+03 -0.10809339481E+03  0.22704143248E+02  0.20915623483E+03  0.00000000000E+00 0. -1.
          4    1    3    3  501    0  0.17761382392E+03  0.10809339481E+03  0.87184485658E+03  0.89629476535E+03  0.00000000000E+00 0. -1.
<mgrwt>
<rscale>  0 0.64946440E+03</rscale>
<asrwt>0</asrwt>
<pdfrwt beam="1">0</pdfrwt>
<pdfrwt beam="2">  1        2 0.38345899E+00 0.64946440E+03</pdfrwt>
<totfact> 0.45901486E+00</totfact>
</mgrwt>
</event>
<event>
 5    1  0.2343702E-004  0.6464332E+03  0.7818608E-02  0.9813495E-01
         13   -1    0    0    0    0  0.00000000000E+00  0.00000000000E+00  0.10000000000E+04  0.10000000000E+04  0.00000000000E+00 0. -1.
          2   -1    0    0  501    0 -0.00000000000E+00 -0.00000000000E+00 -0.10446898458E+03  0.10446898458E+03  0.00000000000E+00 0. -1.
    9000006    2    1    2  501    0  0.00000000000E+00  0.00000000000E+00  0.89553101542E+03  0.11044689846E+04  0.64643324352E+03 0.  0.
         13    1    3    3    0    0  0.33895163884E+02  0.30078102647E+03  0.25408040498E+03  0.39518977747E+03  0.00000000000E+00 0. -1.
          4    1    3    3  501    0 -0.33895163884E+02 -0.30078102647E+03  0.64145061044E+03  0.70927920712E+03  0.00000000000E+00 0. -1.
<mgrwt>
<rscale>  0 0.64643324E+03</rscale>
<asrwt>0</asrwt>
<pdfrwt beam="1">0</pdfrwt>
<pdfrwt beam="2">  1        2 0.37988802E+00 0.64643324E+03</pdfrwt>
<totfact> 0.47328394E+00</totfact>
</mgrwt>
</event>
<event>
 5    1  0.2343702E-004  0.6537932E+03  0.7818608E-02  0.9799687E-01
         13   -1    0    0    0    0  0.00000000000E+00  0.00000000000E+00  0.10000000000E+04  0.10000000000E+04  0.00000000000E+00 0. -1.
          2   -1    0    0  501    0 -0.00000000000E+00 -0.00000000000E+00 -0.10686140126E+03  0.10686140126E+03  0.00000000000E+00 0. -1.
    9000006    2    1    2  501    0  0.00000000000E+00  0.00000000000E+00  0.89313859874E+03  0.11068614013E+04  0.65379324334E+03 0.  0.
         13    1    3    3    0    0 -0.25789056378E+03 -0.43668844608E+01  0.10655850262E+03  0.27907226134E+03  0.00000000000E+00 0. -1.
          2    1    3    3  501    0  0.25789056378E+03  0.43668844608E+01  0.78658009612E+03  0.82778913992E+03  0.00000000000E+00 0. -1.
<mgrwt>
<rscale>  0 0.65379324E+03</rscale>
<asrwt>0</asrwt>
<pdfrwt beam="1">0</pdfrwt>
<pdfrwt beam="2">  1        2 0.38858773E+00 0.65379324E+03</pdfrwt>
<totfact> 0.43920356E+00</totfact>
</mgrwt>
</event>
<event>
 5    1  0.2343702E-004  0.6434106E+03  0.7818608E-02  0.9819223E-01
         13   -1    0    0    0    0  0.00000000000E+00  0.00000000000E+00  0.10000000000E+04  0.10000000000E+04  0.00000000000E+00 0. -1.
          2   -1    0    0  501    0 -0.00000000000E+00 -0.00000000000E+00 -0.10349429628E+03  0.10349429628E+03  0.00000000000E+00 0. -1.
    9000006    2    1    2  501    0  0.00000000000E+00  0.00000000000E+00  0.89650570372E+03  0.11034942963E+04  0.64341058827E+03 0.  0.
         13    1    3    3    0    0 -0.24704106128E+03  0.11409571791E+02  0.95369792929E+02  0.26505633682E+03  0.00000000000E+00 0. -1.
          4    1    3    3  501    0  0.24704106128E+03 -0.11409571791E+02  0.80113591080E+03  0.83843795945E+03  0.00000000000E+00 0. -1.
<mgrwt>
<rscale>  0 0.64341059E+03</rscale>
<asrwt>0</asrwt>
<pdfrwt beam="1">0</pdfrwt>
<pdfrwt beam="2">  1        2 0.37634369E+00 0.64341059E+03</pdfrwt>
<totfact> 0.48784463E+00</totfact>
</mgrwt>
</event>
<event>
 5    1  0.2343702E-004  0.6494764E+03  0.7818608E-02  0.9807762E-01
         13   -1    0    0    0    0  0.00000000000E+00  0.00000000000E+00  0.10000000000E+04  0.10000000000E+04  0.00000000000E+00 0. -1.
          2   -1    0    0  501    0 -0.00000000000E+00 -0.00000000000E+00 -0.10545490249E+03  0.10545490249E+03  0.00000000000E+00 0. -1.
    9000006    2    1    2  501    0  0.00000000000E+00  0.00000000000E+00  0.89454509751E+03  0.11054549025E+04  0.64947641217E+03 0.  0.
         13    1    3    3    0    0 -0.27555984261E+03  0.70399973029E+02  0.71404478109E+03  0.76860219389E+03  0.00000000000E+00 0. -1.
          4    1    3    3  501    0  0.27555984261E+03 -0.70399973029E+02  0.18050031642E+03  0.33685270860E+03  0.00000000000E+00 0. -1.
<mgrwt>
<rscale>  0 0.64947641E+03</rscale>
<asrwt>0</asrwt>
<pdfrwt beam="1">0</pdfrwt>
<pdfrwt beam="2">  1        2 0.38347318E+00 0.64947641E+03</pdfrwt>
<totfact> 0.45895895E+00</totfact>
</mgrwt>
</event>
<event>
 5    1  0.2343702E-004  0.6393060E+03  0.7818608E-02  0.9827055E-01
         13   -1    0    0    0    0  0.00000000000E+00  0.00000000000E+00  0.10000000000E+04  0.10000000000E+04  0.00000000000E+00 0. -1.
          2   -1    0    0  501    0 -0.00000000000E+00 -0.00000000000E+00 -0.10217803553E+03  0.10217803553E+03  0.00000000000E+00 0. -1.
    9000006    2    1    2  501    0  0.00000000000E+00  0.00000000000E+00  0.89782196447E+03  0.11021780355E+04  0.63930598474E+03 0.  0.
         13    1    3    3    0    0  0.15775381131E+03 -0.27585338064E+03  0.38927168307E+03  0.50250750824E+03  0.00000000000E+00 0. -1.
          4    1    3    3  501    0 -0.15775381131E+03  0.27585338064E+03  0.50855028140E+03  0.59967052729E+03  0.00000000000E+00 0. -1.
<mgrwt>
<rscale>  0 0.63930598E+03</rscale>
<asrwt>0</asrwt>
<pdfrwt beam="1">0</pdfrwt>
<pdfrwt beam="2">  1        2 0.37155728E+00 0.63930598E+03</pdfrwt>
<totfact> 0.50815866E+00</totfact>
</mgrwt>
</event>
<event>
 5    1  0.2343702E-004  0.6503814E+03  0.7818608E-02  0.9806064E-01
         13   -1    0    0    0    0  0.00000000000E+00  0.00000000000E+00  0.10000000000E+04  0.10000000000E+04  0.00000000000E+00 0. -1.
          2   -1    0    0  501    0 -0.00000000000E+00 -0.00000000000E+00 -0.10574899959E+03  0.10574899959E+03  0.00000000000E+00 0. -1.
    9000006    2    1    2  501    0  0.00000000000E+00  0.00000000000E+00  0.89425100041E+03  0.11057489996E+04  0.65038142528E+03 0.  0.
         13    1    3    3    0    0 -0.13841684071E+03  0.29329715407E+03  0.48759336691E+03  0.58560202684E+03  0.00000000000E+00 0. -1.
          2    1    3    3  501    0  0.13841684071E+03 -0.29329715407E+03  0.40665763350E+03  0.52014697275E+03  0.00000000000E+00 0. -1.
<mgrwt>
<rscale>  0 0.65038143E+03</rscale>
<asrwt>0</asrwt>
<pdfrwt beam="1">0</pdfrwt>
<pdfrwt beam="2">  1        2 0.38454263E+00 0.65038143E+03</pdfrwt>
<totfact> 0.45476275E+00</totfact>
</mgrwt>
</event>
<event>
 5    1  0.2343702E-004  0.6329027E+03  0.7818608E-02  0.9839401E-01
         13   -1    0    0    0    0  0.00000000000E+00  0.00000000000E+00  0.10000000000E+04  0.10000000000E+04  0.00000000000E+00 0. -1.
          2   -1    0    0  501    0 -0.00000000000E+00 -0.00000000000E+00 -0.10014147097E+03  0.10014147097E+03  0.00000000000E+00 0. -1.
    9000006    2    1    2  501    0  0.00000000000E+00  0.00000000000E+00  0.89985852903E+03  0.11001414710E+04  0.63290274440E+03 0.  0.
         13    1    3    3    0    0 -0.14685570613E+03 -0.19995237829E+03  0.10844476312E+03  0.27075416645E+03  0.00000000000E+00 0. -1.
          4    1    3    3  501    0  0.14685570613E+03  0.19995237829E+03  0.79141376592E+03  0.82938730451E+03  0.00000000000E+00 0. -1.
<mgrwt>
<rscale>  0 0.63290274E+03</rscale>
<asrwt>0</asrwt>
<pdfrwt beam="1">0</pdfrwt>
<pdfrwt beam="2">  1        2 0.36415157E+00 0.63290274E+03</pdfrwt>
<totfact> 0.54112116E+00</totfact>
</mgrwt>
</event>
<event>
 5    1  0.2343702E-004  0.6358037E+03  0.7818608E-02  0.9833788E-01
         13   -1    0    0    0    0  0.00000000000E+00  0.00000000000E+00  0.10000000000E+04  0.10000000000E+04  0.00000000000E+00 0. -1.
          2   -1    0    0  501    0 -0.00000000000E+00 -0.00000000000E+00 -0.10106159471E+03  0.10106159471E+03  0.00000000000E+00 0. -1.
    9000006    2    1    2  501    0  0.00000000000E+00  0.00000000000E+00  0.89893840529E+03  0.11010615947E+04  0.63580372666E+03 0.  0.
         13    1    3    3    0    0  0.28816013276E+03 -0.13385370216E+03  0.43142899773E+03  0.53580225436E+03  0.00000000000E+00 0. -1.
          2    1    3    3  501    0 -0.28816013276E+03  0.13385370216E+03  0.46750940757E+03  0.56525934035E+03  0.00000000000E+00 0. -1.
<mgrwt>
<rscale>  0 0.63580373E+03</rscale>
<asrwt>0</asrwt>
<pdfrwt beam="1">0</pdfrwt>
<pdfrwt beam="2">  1        2 0.36749748E+00 0.63580373E+03</pdfrwt>
<totfact> 0.52599291E+00</totfact>
</mgrwt>
</event>
<event>
 5    1  0.2343702E-004  0.6469510E+03  0.7818608E-02  0.9812517E-01
         13   -1    0    0    0    0  0.00000000000E+00  0.00000000000E+00  0.10000000000E+04  0.10000000000E+04  0.00000000000E+00 0. -1.
          2   -1    0    0  501    0 -0.00000000000E+00 -0.00000000000E+00 -0.10463639919E+03  0.10463639919E+03  0.00000000000E+00 0. -1.
    9000006    2    1    2  501    0  0.00000000000E+00  0.00000000000E+00  0.89536360081E+03  0.11046363992E+04  0.64695100027E+03 0.  0.
         13    1    3    3    0    0 -0.28926931144E+03  0.10255009010E+03  0.62216900592E+03  0.69374889365E+03  0.00000000000E+00 0. -1.
          4    1    3    3  501    0  0.28926931144E+03 -0.10255009010E+03  0.27319459490E+03  0.41088750553E+03  0.00000000000E+00 0. -1.
<mgrwt>
<rscale>  0 0.64695100E+03</rscale>
<asrwt>0</asrwt>
<pdfrwt beam="1">0</pdfrwt>
<pdfrwt beam="2">  1        2 0.38049680E+00 0.64695100E+03</pdfrwt>
<totfact> 0.47082319E+00</totfact>
</mgrwt>
</event>
<event>
 5    1  0.2343702E-004  0.5775683E+03  0.7818608E-02  0.9953069E-01
         13   -1    0    0    0    0  0.00000000000E+00  0.00000000000E+00  0.10000000000E+04  0.10000000000E+04  0.00000000000E+00 0. -1.
          2   -1    0    0  501    0 -0.00000000000E+00 -0.00000000000E+00 -0.83396297699E+02  0.83396297699E+02  0.00000000000E+00 0. -1.
    9000006    2    1    2  501    0  0.00000000000E+00  0.00000000000E+00  0.91660370230E+03  0.10833962977E+04  0.57756834297E+03 0.  0.
         13    1    3    3    0    0 -0.37676389952E+02 -0.18470448145E+03  0.86867131814E+03  0.88888982151E+03  0.00000000000E+00 0. -1.
          4    1    3    3  501    0  0.37676389952E+02  0.18470448145E+03  0.47932384157E+02  0.19450647618E+03  0.00000000000E+00 0. -1.
<mgrwt>
<rscale>  0 0.57756834E+03</rscale>
<asrwt>0</asrwt>
<pdfrwt beam="1">0</pdfrwt>
<pdfrwt beam="2">  1        2 0.30325990E+00 0.57756834E+03</pdfrwt>
<totfact> 0.89880424E+00</totfact>
</mgrwt>
</event>
<event>
 5    1  0.2343702E-004  0.6509336E+03  0.7818608E-02  0.9805029E-01
         13   -1    0    0    0    0  0.00000000000E+00  0.00000000000E+00  0.10000000000E+04  0.10000000000E+04  0.00000000000E+00 0. -1.
          2   -1    0    0  501    0 -0.00000000000E+00 -0.00000000000E+00 -0.10592864664E+03  0.10592864664E+03  0.00000000000E+00 0. -1.
    9000006    2    1    2  501    0  0.00000000000E+00  0.00000000000E+00  0.89407135336E+03  0.11059286466E+04  0.65093362684E+03 0.  0.
         13    1    3    3    0    0 -0.13437718422E+03 -0.94718069750E+02  0.92426667328E+03  0.93877453295E+03  0.00000000000E+00 0. -1.
          2    1    3    3  501    0  0.13437718422E+03  0.94718069750E+02 -0.30195319920E+02  0.16715411369E+03  0.00000000000E+00 0. -1.
<mgrwt>
<rscale>  0 0.65093363E+03</rscale>
<asrwt>0</asrwt>
<pdfrwt beam="1">0</pdfrwt>
<pdfrwt beam="2">  1        2 0.38519589E+00 0.65093363E+03</pdfrwt>
<totfact> 0.45221669E+00</totfact>
</mgrwt>
</event>
<event>
 5    1  0.2343702E-004  0.6517358E+03  0.7818608E-02  0.9803528E-01
         13   -1    0    0    0    0  0.00000000000E+00  0.00000000000E+00  0.10000000000E+04  0.10000000000E+04  0.00000000000E+00 0. -1.
          2   -1    0    0  501    0 -0.00000000000E+00 -0.00000000000E+00 -0.10618988023E+03  0.10618988023E+03  0.00000000000E+00 0. -1.
    9000006    2    1    2  501    0  0.00000000000E+00  0.00000000000E+00  0.89381011977E+03  0.11061898802E+04  0.65173577539E+03 0.  0.
         13    1    3    3    0    0 -0.55720512435E+02 -0.30375863336E+03  0.27038771292E+03  0.41046753604E+03  0.00000000000E+00 0. -1.
          2    1    3    3  501    0  0.55720512435E+02  0.30375863336E+03  0.62342240685E+03  0.69572234419E+03  0.00000000000E+00 0. -1.
<mgrwt>
<rscale>  0 0.65173578E+03</rscale>
<asrwt>0</asrwt>
<pdfrwt beam="1">0</pdfrwt>
<pdfrwt beam="2">  1        2 0.38614583E+00 0.65173578E+03</pdfrwt>
<totfact> 0.44853739E+00</totfact>
</mgrwt>
</event>
<event>
 5    1  0.2343702E-004  0.6458456E+03  0.7818608E-02  0.9814606E-01
         13   -1    0    0    0    0  0.00000000000E+00  0.00000000000E+00  0.10000000000E+04  0.10000000000E+04  0.00000000000E+00 0. -1.
          2   -1    0    0  501    0 -0.00000000000E+00 -0.00000000000E+00 -0.10427913240E+03  0.10427913240E+03  0.00000000000E+00 0. -1.
    9000006    2    1    2  501    0  0.00000000000E+00  0.00000000000E+00  0.89572086760E+03  0.11042791324E+04  0.64584559269E+03 0.  0.
         13    1    3    3    0    0  0.25564117958E+02 -0.23750518687E+03  0.81939470037E+03  0.85350448910E+03  0.00000000000E+00 0. -1.
          2    1    3    3  501    0 -0.25564117958E+02  0.23750518687E+03  0.76326167228E+02  0.25077464330E+03  0.00000000000E+00 0. -1.
<mgrwt>
<rscale>  0 0.64584559E+03</rscale>
<asrwt>0</asrwt>
<pdfrwt beam="1">0</pdfrwt>
<pdfrwt beam="2">  1        2 0.37919764E+00 0.64584559E+03</pdfrwt>
<totfact> 0.47608867E+00</totfact>
</mgrwt>
</event>
<event>
 5    1  0.2343702E-004  0.6660377E+03  0.7818608E-02  0.9777142E-01
         13   -1    0    0    0    0  0.00000000000E+00  0.00000000000E+00  0.10000000000E+04  0.10000000000E+04  0.00000000000E+00 0. -1.
          2   -1    0    0  501    0 -0.00000000000E+00 -0.00000000000E+00 -0.11090154133E+03  0.11090154133E+03  0.00000000000E+00 0. -1.
    9000006    2    1    2  501    0  0.00000000000E+00  0.00000000000E+00  0.88909845867E+03  0.11109015413E+04  0.66603766058E+03 0.  0.
         13    1    3    3    0    0  0.18425816711E+03 -0.25952928747E+03  0.28116893191E+03  0.42469105415E+03  0.00000000000E+00 0. -1.
          2    1    3    3  501    0 -0.18425816711E+03  0.25952928747E+03  0.60792952676E+03  0.68621048718E+03  0.00000000000E+00 0. -1.
<mgrwt>
<rscale>  0 0.66603766E+03</rscale>
<asrwt>0</asrwt>
<pdfrwt beam="1">0</pdfrwt>
<pdfrwt beam="2">  1        2 0.40327918E+00 0.66603766E+03</pdfrwt>
<totfact> 0.38665394E+00</totfact>
</mgrwt>
</event>
<event>
 5    1  0.2343702E-004  0.6541774E+03  0.7818608E-02  0.9798972E-01
         13   -1    0    0    0    0  0.00000000000E+00  0.00000000000E+00  0.10000000000E+04  0.10000000000E+04  0.00000000000E+00 0. -1.
          2   -1    0    0  501    0 -0.00000000000E+00 -0.00000000000E+00 -0.10698701338E+03  0.10698701338E+03  0.00000000000E+00 0. -1.
    9000006    2    1    2  501    0  0.00000000000E+00  0.00000000000E+00  0.89301298662E+03  0.11069870134E+04  0.65417738691E+03 0.  0.
         13    1    3    3    0    0  0.91792282889E+02  0.14048645103E+03 -0.28586134937E+02  0.17023346684E+03  0.00000000000E+00 0. -1.
          2    1    3    3  501    0 -0.91792282889E+02 -0.14048645103E+03  0.92159912155E+03  0.93675354655E+03  0.00000000000E+00 0. -1.
<mgrwt>
<rscale>  0 0.65417739E+03</rscale>
<asrwt>0</asrwt>
<pdfrwt beam="1">0</pdfrwt>
<pdfrwt beam="2">  1        2 0.38904451E+00 0.65417739E+03</pdfrwt>
<totfact> 0.43747726E+00</totfact>
</mgrwt>
</event>
<event>
 5    1  0.2343702E-004  0.6796273E+03  0.7818608E-02  0.9752721E-01
         13   -1    0    0    0    0  0.00000000000E+00  0.00000000000E+00  0.10000000000E+04  0.10000000000E+04  0.00000000000E+00 0. -1.
          2   -1    0    0  501    0 -0.00000000000E+00 -0.00000000000E+00 -0.11547331129E+03  0.11547331129E+03  0.00000000000E+00 0. -1.
    9000006    2    1    2  501    0  0.00000000000E+00  0.00000000000E+00  0.88452668871E+03  0.11154733113E+04  0.67962728401E+03 0.  0.
         13    1    3    3    0    0  0.40181616282E+02  0.33570578101E+03  0.38635353033E+03  0.51340236081E+03  0.00000000000E+00 0. -1.
          2    1    3    3  501    0 -0.40181616282E+02 -0.33570578101E+03  0.49817315838E+03  0.60207095049E+03  0.00000000000E+00 0. -1.
<mgrwt>
<rscale>  0 0.67962728E+03</rscale>
<asrwt>0</asrwt>
<pdfrwt beam="1">0</pdfrwt>
<pdfrwt beam="2">  1        2 0.41990384E+00 0.67962728E+03</pdfrwt>
<totfact> 0.33404227E+00</totfact>
</mgrwt>
</event>
<event>
 5    1  0.2343702E-004  0.6472072E+03  0.7818608E-02  0.9812034E-01
         13   -1    0    0    0    0  0.00000000000E+00  0.00000000000E+00  0.10000000000E+04  0.10000000000E+04  0.00000000000E+00 0. -1.
          2   -1    0    0  501    0 -0.00000000000E+00 -0.00000000000E+00 -0.10471927539E+03  0.10471927539E+03  0.00000000000E+00 0. -1.
    9000006    2    1    2  501    0  0.00000000000E+00  0.00000000000E+00  0.89528072461E+03  0.11047192754E+04  0.64720715507E+03 0.  0.
         13    1    3    3    0    0 -0.12178022177E+03 -0.29241683109E+03  0.56062193954E+03  0.64392156713E+03  0.00000000000E+00 0. -1.
          4    1    3    3  501    0  0.12178022177E+03  0.29241683109E+03  0.33465878507E+03  0.46079770827E+03  0.00000000000E+00 0. -1.
<mgrwt>
<rscale>  0 0.64720716E+03</rscale>
<asrwt>0</asrwt>
<pdfrwt beam="1">0</pdfrwt>
<pdfrwt beam="2">  1        2 0.38079817E+00 0.64720716E+03</pdfrwt>
<totfact> 0.46960933E+00</totfact>
</mgrwt>
</event>
<event>
 5    1  0.2343702E-004  0.6495967E+03  0.7818608E-02  0.9807536E-01
         13   -1    0    0    0    0  0.00000000000E+00  0.00000000000E+00  0.10000000000E+04  0.10000000000E+04  0.00000000000E+00 0. -1.
          2   -1    0    0  501    0 -0.00000000000E+00 -0.00000000000E+00 -0.10549397717E+03  0.10549397717E+03  0.00000000000E+00 0. -1.
    9000006    2    1    2  501    0  0.00000000000E+00  0.00000000000E+00  0.89450602283E+03  0.11054939772E+04  0.64959672774E+03 0.  0.
         13    1    3    3    0    0  0.28484347875E+03 -0.12319645833E+03  0.28419097065E+03  0.42080599156E+03  0.00000000000E+00 0. -1.
          4    1    3    3  501    0 -0.28484347875E+03  0.12319645833E+03  0.61031505218E+03  0.68468798561E+03  0.00000000000E+00 0. -1.
<mgrwt>
<rscale>  0 0.64959673E+03</rscale>
<asrwt>0</asrwt>
<pdfrwt beam="1">0</pdfrwt>
<pdfrwt beam="2">  1        2 0.38361527E+00 0.64959673E+03</pdfrwt>
<totfact> 0.45839941E+00</totfact>
</mgrwt>
</event>
<event>
 5    1  0.2343702E-004  0.6466720E+03  0.7818608E-02  0.9813044E-01
         13   -1    0    0    0    0  0.00000000000E+00  0.00000000000E+00  0.10000000000E+04  0.10000000000E+04  0.00000000000E+00 0. -1.
          2   -1    0    0  501    0 -0.00000000000E+00 -0.00000000000E+00 -0.10454618032E+03  0.10454618032E+03  0.00000000000E+00 0. -1.
    9000006    2    1    2  501    0  0.00000000000E+00  0.00000000000E+00  0.89545381968E+03  0.11045461803E+04  0.64667203535E+03 0.  0.
         13    1    3    3    0    0  0.19017746772E+03  0.16475051268E+03  0.79457392048E+03  0.83346140628E+03  0.00000000000E+00 0. -1.
          2    1    3    3  501    0 -0.19017746772E+03 -0.16475051268E+03  0.10087989919E+03  0.27108477404E+03  0.00000000000E+00 0. -1.
<mgrwt>
<rscale>  0 0.64667204E+03</rscale>
<asrwt>0</asrwt>
<pdfrwt beam="1">0</pdfrwt>
<pdfrwt beam="2">  1        2 0.38016873E+00 0.64667204E+03</pdfrwt>
<totfact> 0.47214783E+00</totfact>
</mgrwt>
</event>
<event>
 5    1  0.2343702E-004  0.6647395E+03  0.7818608E-02  0.9779508E-01
         13   -1    0    0    0    0  0.00000000000E+00  0.00000000000E+00  0.10000000000E+04  0.10000000000E+04  0.00000000000E+00 0. -1.
          2   -1    0    0  501    0 -0.00000000000E+00 -0.00000000000E+00 -0.11046965531E+03  0.11046965531E+03  0.00000000000E+00 0. -1.
    9000006    2    1    2  501    0  0.00000000000E+00  0.00000000000E+00  0.88953034469E+03  0.11104696553E+04  0.66473951382E+03 0.  0.
         13    1    3    3    0    0 -0.22393172243E+03 -0.13157869021E+03  0.98310501537E+02  0.27771086176E+03  0.00000000000E+00 0. -1.
          2    1    3    3  501    0  0.22393172243E+03  0.13157869021E+03  0.79121984315E+03  0.83275879355E+03  0.00000000000E+00 0. -1.
<mgrwt>
<rscale>  0 0.66473951E+03</rscale>
<asrwt>0</asrwt>
<pdfrwt beam="1">0</pdfrwt>
<pdfrwt beam="2">  1        2 0.40170868E+00 0.66473951E+03</pdfrwt>
<totfact> 0.39198771E+00</totfact>
</mgrwt>
</event>
<event>
 5    1  0.2343702E-004  0.6900839E+03  0.7818608E-02  0.9734342E-01
         13   -1    0    0    0    0  0.00000000000E+00  0.00000000000E+00  0.10000000000E+04  0.10000000000E+04  0.00000000000E+00 0. -1.
          2   -1    0    0  501    0 -0.00000000000E+00 -0.00000000000E+00 -0.11905393715E+03  0.11905393715E+03  0.00000000000E+00 0. -1.
    9000006    2    1    2  501    0  0.00000000000E+00  0.00000000000E+00  0.88094606285E+03  0.11190539372E+04  0.69008387071E+03 0.  0.
         13    1    3    3    0    0 -0.22564876453E+03  0.15389079880E+03  0.78237808049E+03  0.82868281249E+03  0.00000000000E+00 0. -1.
          2    1    3    3  501    0  0.22564876453E+03 -0.15389079880E+03  0.98567982360E+02  0.29037112466E+03  0.00000000000E+00 0. -1.
<mgrwt>
<rscale>  0 0.69008387E+03</rscale>
<asrwt>0</asrwt>
<pdfrwt beam="1">0</pdfrwt>
<pdfrwt beam="2">  1        2 0.43292432E+00 0.69008387E+03</pdfrwt>
<totfact> 0.29738347E+00</totfact>
</mgrwt>
</event>
<event>
 5    1  0.2343702E-004  0.6573886E+03  0.7818608E-02  0.9793013E-01
         13   -1    0    0    0    0  0.00000000000E+00  0.00000000000E+00  0.10000000000E+04  0.10000000000E+04  0.00000000000E+00 0. -1.
          2   -1    0    0  501    0 -0.00000000000E+00 -0.00000000000E+00 -0.10803995339E+03  0.10803995339E+03  0.00000000000E+00 0. -1.
    9000006    2    1    2  501    0  0.00000000000E+00  0.00000000000E+00  0.89196004661E+03  0.11080399534E+04  0.65738863206E+03 0.  0.
         13    1    3    3    0    0  0.20295888065E+03 -0.23218329445E+03  0.63770392948E+03  0.70835562476E+03  0.00000000000E+00 0. -1.
          4    1    3    3  501    0 -0.20295888065E+03  0.23218329445E+03  0.25425611713E+03  0.39968432863E+03  0.00000000000E+00 0. -1.
<mgrwt>
<rscale>  0 0.65738863E+03</rscale>
<asrwt>0</asrwt>
<pdfrwt beam="1">0</pdfrwt>
<pdfrwt beam="2">  1        2 0.39287339E+00 0.65738863E+03</pdfrwt>
<totfact> 0.42324588E+00</totfact>
</mgrwt>
</event>
<event>
 5    1  0.2343702E-004  0.6133926E+03  0.7818608E-02  0.9878004E-01
         13   -1    0    0    0    0  0.00000000000E+00  0.00000000000E+00  0.10000000000E+04  0.10000000000E+04  0.00000000000E+00 0. -1.
          2   -1    0    0  501    0 -0.00000000000E+00 -0.00000000000E+00 -0.94062629594E+02  0.94062629594E+02  0.00000000000E+00 0. -1.
    9000006    2    1    2  501    0  0.00000000000E+00  0.00000000000E+00  0.90593737041E+03  0.10940626296E+04  0.61339262987E+03 0.  0.
         13    1    3    3    0    0 -0.88396654750E+02 -0.28284166758E+03  0.31196915912E+03  0.43027681059E+03  0.00000000000E+00 0. -1.
          4    1    3    3  501    0  0.88396654750E+02  0.28284166758E+03  0.59396821128E+03  0.66378581900E+03  0.00000000000E+00 0. -1.
<mgrwt>
<rscale>  0 0.61339263E+03</rscale>
<asrwt>0</asrwt>
<pdfrwt beam="1">0</pdfrwt>
<pdfrwt beam="2">  1        2 0.34204665E+00 0.61339263E+03</pdfrwt>
<totfact> 0.65164135E+00</totfact>
</mgrwt>
</event>
<event>
 5    1  0.2343702E-004  0.6515782E+03  0.7818608E-02  0.9803822E-01
         13   -1    0    0    0    0  0.00000000000E+00  0.00000000000E+00  0.10000000000E+04  0.10000000000E+04  0.00000000000E+00 0. -1.
          2   -1    0    0  501    0 -0.00000000000E+00 -0.00000000000E+00 -0.10613853335E+03  0.10613853335E+03  0.00000000000E+00 0. -1.
    9000006    2    1    2  501    0  0.00000000000E+00  0.00000000000E+00  0.89386146665E+03  0.11061385333E+04  0.65157818671E+03 0.  0.
         13    1    3    3    0    0 -0.80269976701E+02  0.21095122997E+03  0.84576478932E+03  0.87536379262E+03  0.00000000000E+00 0. -1.
          2    1    3    3  501    0  0.80269976701E+02 -0.21095122997E+03  0.48096677333E+02  0.23077474073E+03  0.00000000000E+00 0. -1.
<mgrwt>
<rscale>  0 0.65157819E+03</rscale>
<asrwt>0</asrwt>
<pdfrwt beam="1">0</pdfrwt>
<pdfrwt beam="2">  1        2 0.38595912E+00 0.65157819E+03</pdfrwt>
<totfact> 0.44925843E+00</totfact>
</mgrwt>
</event>
<event>
 5    1  0.2343702E-004  0.6426079E+03  0.7818608E-02  0.9820750E-01
         13   -1    0    0    0    0  0.00000000000E+00  0.00000000000E+00  0.10000000000E+04  0.10000000000E+04  0.00000000000E+00 0. -1.
          2   -1    0    0  501    0 -0.00000000000E+00 -0.00000000000E+00 -0.10323623063E+03  0.10323623063E+03  0.00000000000E+00 0. -1.
    9000006    2    1    2  501    0  0.00000000000E+00  0.00000000000E+00  0.89676376937E+03  0.11032362306E+04  0.64260790729E+03 0.  0.
         13    1    3    3    0    0  0.67320240545E+02 -0.27277137146E+03  0.71600618228E+03  0.76915608880E+03  0.00000000000E+00 0. -1.
          2    1    3    3  501    0 -0.67320240545E+02  0.27277137146E+03  0.18075758710E+03  0.33408014183E+03  0.00000000000E+00 0. -1.
<mgrwt>
<rscale>  0 0.64260791E+03</rscale>
<asrwt>0</asrwt>
<pdfrwt beam="1">0</pdfrwt>
<pdfrwt beam="2">  1        2 0.37540527E+00 0.64260791E+03</pdfrwt>
<totfact> 0.49176766E+00</totfact>
</mgrwt>
</event>
<event>
 5    1  0.2343702E-004  0.6522505E+03  0.7818608E-02  0.9802565E-01
         13   -1    0    0    0    0  0.00000000000E+00  0.00000000000E+00  0.10000000000E+04  0.10000000000E+04  0.00000000000E+00 0. -1.
          2   -1    0    0  501    0 -0.00000000000E+00 -0.00000000000E+00 -0.10635766616E+03  0.10635766616E+03  0.00000000000E+00 0. -1.
    9000006    2    1    2  501    0  0.00000000000E+00  0.00000000000E+00  0.89364233384E+03  0.11063576662E+04  0.65225046160E+03 0.  0.
         13    1    3    3    0    0 -0.57078923820E+02 -0.32105736072E+03  0.45474700713E+03  0.55958080106E+03  0.00000000000E+00 0. -1.
          4    1    3    3  501    0  0.57078923820E+02  0.32105736072E+03  0.43889532670E+03  0.54677686511E+03  0.00000000000E+00 0. -1.
<mgrwt>
<rscale>  0 0.65225046E+03</rscale>
<asrwt>0</asrwt>
<pdfrwt beam="1">0</pdfrwt>
<pdfrwt beam="2">  1        2 0.38675597E+00 0.65225046E+03</pdfrwt>
<totfact> 0.44618857E+00</totfact>
</mgrwt>
</event>
<event>
 5    1  0.2343702E-004  0.6375062E+03  0.7818608E-02  0.9830510E-01
         13   -1    0    0    0    0  0.00000000000E+00  0.00000000000E+00  0.10000000000E+04  0.10000000000E+04  0.00000000000E+00 0. -1.
          2   -1    0    0  501    0 -0.00000000000E+00 -0.00000000000E+00 -0.10160353072E+03  0.10160353072E+03  0.00000000000E+00 0. -1.
    9000006    2    1    2  501    0  0.00000000000E+00  0.00000000000E+00  0.89839646928E+03  0.11016035307E+04  0.63750617476E+03 0.  0.
         13    1    3    3    0    0  0.13469940634E+03 -0.18301099327E+03  0.83545911226E+03  0.86581111218E+03  0.00000000000E+00 0. -1.
          4    1    3    3  501    0 -0.13469940634E+03  0.18301099327E+03  0.62937357030E+02  0.23579241853E+03  0.00000000000E+00 0. -1.
<mgrwt>
<rscale>  0 0.63750617E+03</rscale>
<asrwt>0</asrwt>
<pdfrwt beam="1">0</pdfrwt>
<pdfrwt beam="2">  1        2 0.36946816E+00 0.63750617E+03</pdfrwt>
<totfact> 0.51726546E+00</totfact>
</mgrwt>
</event>
<event>
 5    1  0.2343702E-004  0.6461637E+03  0.7818608E-02  0.9814005E-01
         13   -1    0    0    0    0  0.00000000000E+00  0.00000000000E+00  0.10000000000E+04  0.10000000000E+04  0.00000000000E+00 0. -1.
          2   -1    0    0  501    0 -0.00000000000E+00 -0.00000000000E+00 -0.10438186965E+03  0.10438186965E+03  0.00000000000E+00 0. -1.
    9000006    2    1    2  501    0  0.00000000000E+00  0.00000000000E+00  0.89561813035E+03  0.11043818696E+04  0.64616366238E+03 0.  0.
         13    1    3    3    0    0 -0.30187637663E+02  0.29912862639E+03  0.24563446933E+03  0.38823384850E+03  0.00000000000E+00 0. -1.
          4    1    3    3  501    0  0.30187637663E+02 -0.29912862639E+03  0.64998366103E+03  0.71614802115E+03  0.00000000000E+00 0. -1.
<mgrwt>
<rscale>  0 0.64616366E+03</rscale>
<asrwt>0</asrwt>
<pdfrwt beam="1">0</pdfrwt>
<pdfrwt beam="2">  1        2 0.37957124E+00 0.64616366E+03</pdfrwt>
<totfact> 0.47456904E+00</totfact>
</mgrwt>
</event>
<event>
 5    1  0.2343702E-004  0.6523536E+03  0.7818608E-02  0.9802373E-01
         13   -1    0    0    0    0  0.00000000000E+00  0.00000000000E+00  0.10000000000E+04  0.10000000000E+04  0.00000000000E+00 0. -1.
          2   -1    0    0  501    0 -0.00000000000E+00 -0.00000000000E+00 -0.10639129714E+03  0.10639129714E+03  0.00000000000E+00 0. -1.
    9000006    2    1    2  501    0  0.00000000000E+00  0.00000000000E+00  0.89360870286E+03  0.11063912971E+04  0.65235357633E+03 0.  0.
         13    1    3    3    0    0 -0.48290812815E+02  0.25575430047E+03  0.11338176529E+03  0.28389732213E+03  0.00000000000E+00 0. -1.
          2    1    3    3  501    0  0.48290812815E+02 -0.25575430047E+03  0.78022693757E+03  0.82249397501E+03  0.00000000000E+00 0. -1.
<mgrwt>
<rscale>  0 0.65235358E+03</rscale>
<asrwt>0</asrwt>
<pdfrwt beam="1">0</pdfrwt>
<pdfrwt beam="2">  1        2 0.38687826E+00 0.65235358E+03</pdfrwt>
<totfact> 0.44571911E+00</totfact>
</mgrwt>
</event>
<event>
 5    1  0.2343702E-004  0.6528588E+03  0.7818608E-02  0.9801430E-01
         13   -1    0    0    0    0  0.00000000000E+00  0.00000000000E+00  0.10000000000E+04  0.10000000000E+04  0.00000000000E+00 0. -1.
          2   -1    0    0  501    0 -0.00000000000E+00 -0.00000000000E+00 -0.10655615407E+03  0.10655615407E+03  0.00000000000E+00 0. -1.
    9000006    2    1    2  501    0  0.00000000000E+00  0.00000000000E+00  0.89344384593E+03  0.11065561541E+04  0.65285880272E+03 0.  0.
         13    1    3    3    0    0 -0.29891541058E+02  0.25110317607E+03  0.79659390867E+03  0.83576800883E+03  0.00000000000E+00 0. -1.
          2    1    3    3  501    0  0.29891541058E+02 -0.25110317607E+03  0.96849937262E+02  0.27078814525E+03  0.00000000000E+00 0. -1.
<mgrwt>
<rscale>  0 0.65285880E+03</rscale>
<asrwt>0</asrwt>
<pdfrwt beam="1">0</pdfrwt>
<pdfrwt beam="2">  1        2 0.38747774E+00 0.65285880E+03</pdfrwt>
<totfact> 0.44342433E+00</totfact>
</mgrwt>
</event>
<event>
 5    1  0.2343702E-004  0.6461876E+03  0.7818608E-02  0.9813959E-01
         13   -1    0    0    0    0  0.00000000000E+00  0.00000000000E+00  0.10000000000E+04  0.10000000000E+04  0.00000000000E+00 0. -1.
          2   -1    0    0  501    0 -0.00000000000E+00 -0.00000000000E+00 -0.10438960955E+03  0.10438960955E+03  0.00000000000E+00 0. -1.
    9000006    2    1    2  501    0  0.00000000000E+00  0.00000000000E+00  0.89561039045E+03  0.11043896095E+04  0.64618761841E+03 0.  0.
         13    1    3    3    0    0 -0.39928955344E+02 -0.18443748585E+03 -0.41226750507E+00  0.18871056575E+03  0.00000000000E+00 0. -1.
          2    1    3    3  501    0  0.39928955344E+02  0.18443748585E+03  0.89602265796E+03  0.91567904379E+03  0.00000000000E+00 0. -1.
<mgrwt>
<rscale>  0 0.64618762E+03</rscale>
<asrwt>0</asrwt>
<pdfrwt beam="1">0</pdfrwt>
<pdfrwt beam="2">  1        2 0.37959938E+00 0.64618762E+03</pdfrwt>
<totfact> 0.47445473E+00</totfact>
</mgrwt>
</event>
<event>
 5    1  0.2343702E-004  0.6585399E+03  0.7818608E-02  0.9790885E-01
         13   -1    0    0    0    0  0.00000000000E+00  0.00000000000E+00  0.10000000000E+04  0.10000000000E+04  0.00000000000E+00 0. -1.
          2   -1    0    0  501    0 -0.00000000000E+00 -0.00000000000E+00 -0.10841869319E+03  0.10841869319E+03  0.00000000000E+00 0. -1.
    9000006    2    1    2  501    0  0.00000000000E+00  0.00000000000E+00  0.89158130681E+03  0.11084186932E+04  0.65853987940E+03 0.  0.
         13    1    3    3    0    0 -0.78637250713E+02 -0.31249405761E+03  0.55972781976E+03  0.64585724851E+03  0.00000000000E+00 0. -1.
          2    1    3    3  501    0  0.78637250713E+02  0.31249405761E+03  0.33185348705E+03  0.46256144468E+03  0.00000000000E+00 0. -1.
<mgrwt>
<rscale>  0 0.65853988E+03</rscale>
<asrwt>0</asrwt>
<pdfrwt beam="1">0</pdfrwt>
<pdfrwt beam="2">  1        2 0.39425062E+00 0.65853988E+03</pdfrwt>
<totfact> 0.41823010E+00</totfact>
</mgrwt>
</event>
<event>
 5    1  0.2343702E-004  0.6521961E+03  0.7818608E-02  0.9802667E-01
         13   -1    0    0    0    0  0.00000000000E+00  0.00000000000E+00  0.10000000000E+04  0.10000000000E+04  0.00000000000E+00 0. -1.
          2   -1    0    0  501    0 -0.00000000000E+00 -0.00000000000E+00 -0.10633994646E+03  0.10633994646E+03  0.00000000000E+00 0. -1.
    9000006    2    1    2  501    0  0.00000000000E+00  0.00000000000E+00  0.89366005354E+03  0.11063399465E+04  0.65219612528E+03 0.  0.
         13    1    3    3    0    0 -0.28514946527E+03  0.77970677381E+02  0.21331305428E+03  0.36454369176E+03  0.00000000000E+00 0. -1.
          2    1    3    3  501    0  0.28514946527E+03 -0.77970677381E+02  0.68034699926E+03  0.74179625469E+03  0.00000000000E+00 0. -1.
<mgrwt>
<rscale>  0 0.65219613E+03</rscale>
<asrwt>0</asrwt>
<pdfrwt beam="1">0</pdfrwt>
<pdfrwt beam="2">  1        2 0.38669153E+00 0.65219613E+03</pdfrwt>
<totfact> 0.44643610E+00</totfact>
</mgrwt>
</event>
<event>
 5    1  0.2343702E-004  0.6507007E+03  0.7818608E-02  0.9805465E-01
         13   -1    0    0    0    0  0.00000000000E+00  0.00000000000E+00  0.10000000000E+04  0.10000000000E+04  0.00000000000E+00 0. -1.
          2   -1    0    0  501    0 -0.00000000000E+00 -0.00000000000E+00 -0.10585286251E+03  0.10585286251E+03  0.00000000000E+00 0. -1.
    9000006    2    1    2  501    0  0.00000000000E+00  0.00000000000E+00  0.89414713749E+03  0.11058528625E+04  0.65070073771E+03 0.  0.
         13    1    3    3    0    0 -0.17705621420E+03 -0.25471968632E+03  0.28036990920E+03  0.41813670919E+03  0.00000000000E+00 0. -1.
          2    1    3    3  501    0  0.17705621420E+03  0.25471968632E+03  0.61377722828E+03  0.68771615332E+03  0.00000000000E+00 0. -1.
<mgrwt>
<rscale>  0 0.65070074E+03</rscale>
<asrwt>0</asrwt>
<pdfrwt beam="1">0</pdfrwt>
<pdfrwt beam="2">  1        2 0.38492031E+00 0.65070074E+03</pdfrwt>
<totfact> 0.45328917E+00</totfact>
</mgrwt>
</event>
<event>
 5    1  0.2343702E-004  0.6387880E+03  0.7818608E-02  0.9828048E-01
         13   -1    0    0    0    0  0.00000000000E+00  0.00000000000E+00  0.10000000000E+04  0.10000000000E+04  0.00000000000E+00 0. -1.
          2   -1    0    0  501    0 -0.00000000000E+00 -0.00000000000E+00 -0.10201254174E+03  0.10201254174E+03  0.00000000000E+00 0. -1.
    9000006    2    1    2  501    0  0.00000000000E+00  0.00000000000E+00  0.89798745826E+03  0.11020125417E+04  0.63878804540E+03 0.  0.
         13    1    3    3    0    0 -0.12593431504E+03 -0.27020902026E+02 -0.55222787217E+02  0.14013970558E+03  0.00000000000E+00 0. -1.
          4    1    3    3  501    0  0.12593431504E+03  0.27020902026E+02  0.95321024548E+03  0.96187283616E+03  0.00000000000E+00 0. -1.
<mgrwt>
<rscale>  0 0.63878805E+03</rscale>
<asrwt>0</asrwt>
<pdfrwt beam="1">0</pdfrwt>
<pdfrwt beam="2">  1        2 0.37095548E+00 0.63878805E+03</pdfrwt>
<totfact> 0.51076682E+00</totfact>
</mgrwt>
</event>
<event>
 5    1  0.2343702E-004  0.6705536E+03  0.7818608E-02  0.9768958E-01
         13   -1    0    0    0    0  0.00000000000E+00  0.00000000000E+00  0.10000000000E+04  0.10000000000E+04  0.00000000000E+00 0. -1.
          2   -1    0    0  501    0 -0.00000000000E+00 -0.00000000000E+00 -0.11241053484E+03  0.11241053484E+03  0.00000000000E+00 0. -1.
    9000006    2    1    2  501    0  0.00000000000E+00  0.00000000000E+00  0.88758946516E+03  0.11124105348E+04  0.67055360663E+03 0.  0.
         13    1    3    3    0    0 -0.99477940590E+02 -0.30441587317E+02  0.97254763118E+03  0.97809582650E+03  0.00000000000E+00 0. -1.
          4    1    3    3  501    0  0.99477940590E+02  0.30441587317E+02 -0.84958166022E+02  0.13431470834E+03  0.00000000000E+00 0. -1.
<mgrwt>
<rscale>  0 0.67055361E+03</rscale>
<asrwt>0</asrwt>
<pdfrwt beam="1">0</pdfrwt>
<pdfrwt beam="2">  1        2 0.40876644E+00 0.67055361E+03</pdfrwt>
<totfact> 0.36852422E+00</totfact>
</mgrwt>
</event>
<event>
 5    1  0.2343702E-004  0.6389183E+03  0.7818608E-02  0.9827798E-01
         13   -1    0    0    0    0  0.00000000000E+00  0.00000000000E+00  0.10000000000E+04  0.10000000000E+04  0.00000000000E+00 0. -1.
          2   -1    0    0  501    0 -0.00000000000E+00 -0.00000000000E+00 -0.10205414128E+03  0.10205414128E+03  0.00000000000E+00 0. -1.
    9000006    2    1    2  501    0  0.00000000000E+00  0.00000000000E+00  0.89794585872E+03  0.11020541413E+04  0.63891827733E+03 0.  0.
         13    1    3    3    0    0  0.82084444540E+02 -0.21998374710E+03  0.75333652319E+02  0.24658845105E+03  0.00000000000E+00 0. -1.
          2    1    3    3  501    0 -0.82084444540E+02  0.21998374710E+03  0.82261220640E+03  0.85546569022E+03  0.00000000000E+00 0. -1.
<mgrwt>
<rscale>  0 0.63891828E+03</rscale>
<asrwt>0</asrwt>
<pdfrwt beam="1">0</pdfrwt>
<pdfrwt beam="2">  1        2 0.37110675E+00 0.63891828E+03</pdfrwt>
<totfact> 0.51011006E+00</totfact>
</mgrwt>
</event>
<event>
 5    1  0.2343702E-004  0.6472087E+03  0.7818608E-02  0.9812031E-01
         13   -1    0    0    0    0  0.00000000000E+00  0.00000000000E+00  0.10000000000E+04  0.10000000000E+04  0.00000000000E+00 0. -1.
          2   -1    0    0  501    0 -0.00000000000E+00 -0.00000000000E+00 -0.10471976828E+03  0.10471976828E+03  0.00000000000E+00 0. -1.
    9000006    2    1    2  501    0  0.00000000000E+00  0.00000000000E+00  0.89528023172E+03  0.11047197683E+04  0.64720867818E+03 0.  0.
         13    1    3    3    0    0  0.22048200440E+03  0.15281067937E+03  0.75656688816E+03  0.80271842775E+03  0.00000000000E+00 0. -1.
          2    1    3    3  501    0 -0.22048200440E+03 -0.15281067937E+03  0.13871334356E+03  0.30200134052E+03  0.00000000000E+00 0. -1.
<mgrwt>
<rscale>  0 0.64720868E+03</rscale>
<asrwt>0</asrwt>
<pdfrwt beam="1">0</pdfrwt>
<pdfrwt beam="2">  1        2 0.38079996E+00 0.64720868E+03</pdfrwt>
<totfact> 0.46960212E+00</totfact>
</mgrwt>
</event>
<event>
 5    1  0.2343702E-004  0.6452794E+03  0.7818608E-02  0.9815678E-01
         13   -1    0    0    0    0  0.00000000000E+00  0.00000000000E+00  0.10000000000E+04  0.10000000000E+04  0.00000000000E+00 0. -1.
          2   -1    0    0  501    0 -0.00000000000E+00 -0.00000000000E+00 -0.10409636855E+03  0.10409636855E+03  0.00000000000E+00 0. -1.
    9000006    2    1    2  501    0  0.00000000000E+00  0.00000000000E+00  0.89590363145E+03  0.11040963686E+04  0.64527937687E+03 0.  0.
         13    1    3    3    0    0  0.79492179664E+01  0.32223727190E+03  0.47192581320E+03  0.57150155086E+03  0.00000000000E+00 0. -1.
          4    1    3    3  501    0 -0.79492179664E+01 -0.32223727190E+03  0.42397781825E+03  0.53259481770E+03  0.00000000000E+00 0. -1.
<mgrwt>
<rscale>  0 0.64527938E+03</rscale>
<asrwt>0</asrwt>
<pdfrwt beam="1">0</pdfrwt>
<pdfrwt beam="2">  1        2 0.37853305E+00 0.64527938E+03</pdfrwt>
<totfact> 0.47880296E+00</totfact>
</mgrwt>
</event>
<event>
 5    1  0.2343702E-004  0.6103954E+03  0.7818608E-02  0.9884071E-01
         13   -1    0    0    0    0  0.00000000000E+00  0.00000000000E+00  0.10000000000E+04  0.10000000000E+04  0.00000000000E+00 0. -1.
          2   -1    0    0  501    0 -0.00000000000E+00 -0.00000000000E+00 -0.93145629769E+02  0.93145629769E+02  0.00000000000E+00 0. -1.
    9000006    2    1    2  501    0  0.00000000000E+00  0.00000000000E+00  0.90685437023E+03  0.10931456298E+04  0.61039537930E+03 0.  0.
         13    1    3    3    0    0  0.72489727604E+02  0.15545385217E+03  0.13406190525E+01  0.17152975841E+03  0.00000000000E+00 0. -1.
          4    1    3    3  501    0 -0.72489727604E+02 -0.15545385217E+03  0.90551375118E+03  0.92161587136E+03  0.00000000000E+00 0. -1.
<mgrwt>
<rscale>  0 0.61039538E+03</rscale>
<asrwt>0</asrwt>
<pdfrwt beam="1">0</pdfrwt>
<pdfrwt beam="2">  1        2 0.33871210E+00 0.61039538E+03</pdfrwt>
<totfact> 0.67003547E+00</totfact>
</mgrwt>
</event>
<event>
 5    1  0.2343702E-004  0.6606817E+03  0.7818608E-02  0.9786940E-01
         13   -1    0    0    0    0  0.00000000000E+00  0.00000000000E+00  0.10000000000E+04  0.10000000000E+04  0.00000000000E+00 0. -1.
          2   -1    0    0  501    0 -0.00000000000E+00 -0.00000000000E+00 -0.10912507784E+03  0.10912507784E+03  0.00000000000E+00 0. -1.
    9000006    2    1    2  501    0  0.00000000000E+00  0.00000000000E+00  0.89087492216E+03  0.11091250778E+04  0.66068170199E+03 0.  0.
         13    1    3    3    0    0 -0.23899715542E+03 -0.12928475298E+03  0.13006806047E+03  0.30125054026E+03  0.00000000000E+00 0. -1.
          2    1    3    3  501    0  0.23899715542E+03  0.12928475298E+03  0.76080686170E+03  0.80787453757E+03  0.00000000000E+00 0. -1.
<mgrwt>
<rscale>  0 0.66068170E+03</rscale>
<asrwt>0</asrwt>
<pdfrwt beam="1">0</pdfrwt>
<pdfrwt beam="2">  1        2 0.39681930E+00 0.66068170E+03</pdfrwt>
<totfact> 0.40901868E+00</totfact>
</mgrwt>
</event>
<event>
 5    1  0.2343702E-004  0.5798761E+03  0.7818608E-02  0.9948059E-01
         13   -1    0    0    0    0  0.00000000000E+00  0.00000000000E+00  0.10000000000E+04  0.10000000000E+04  0.00000000000E+00 0. -1.
          2   -1    0    0  501    0 -0.00000000000E+00 -0.00000000000E+00 -0.84064067494E+02  0.84064067494E+02  0.00000000000E+00 0. -1.
    9000006    2    1    2  501    0  0.00000000000E+00  0.00000000000E+00  0.91593593251E+03  0.10840640675E+04  0.57987608157E+03 0.  0.
         13    1    3    3    0    0  0.90801136094E+01 -0.10341299632E+03 -0.48129689850E+02  0.11442536134E+03  0.00000000000E+00 0. -1.
          4    1    3    3  501    0 -0.90801136094E+01  0.10341299632E+03  0.96406562236E+03  0.96963870616E+03  0.00000000000E+00 0. -1.
<mgrwt>
<rscale>  0 0.57987608E+03</rscale>
<asrwt>0</asrwt>
<pdfrwt beam="1">0</pdfrwt>
<pdfrwt beam="2">  1        2 0.30568816E+00 0.57987608E+03</pdfrwt>
<totfact> 0.88098846E+00</totfact>
</mgrwt>
</event>
<event>
 5    1  0.2343702E-004  0.6523366E+03  0.7818608E-02  0.9802405E-01
         13   -1    0    0    0    0  0.00000000000E+00  0.00000000000E+00  0.10000000000E+04  0.10000000000E+04  0.00000000000E+00 0. -1.
          2   -1    0    0  501    0 -0.00000000000E+00 -0.00000000000E+00 -0.10638576380E+03  0.10638576380E+03  0.00000000000E+00 0. -1.
    9000006    2    1    2  501    0  0.00000000000E+00  0.00000000000E+00  0.89361423620E+03  0.11063857638E+04  0.65233661187E+03 0.  0.
         13    1    3    3    0    0  0.24526382660E+03  0.65308694924E+02  0.79425095693E+03  0.83381901685E+03  0.00000000000E+00 0. -1.
          4    1    3    3  501    0 -0.24526382660E+03 -0.65308694924E+02  0.99363279274E+02  0.27256674695E+03  0.00000000000E+00 0. -1.
<mgrwt>
<rscale>  0 0.65233661E+03</rscale>
<asrwt>0</asrwt>
<pdfrwt beam="1">0</pdfrwt>
<pdfrwt beam="2">  1        2 0.38685814E+00 0.65233661E+03</pdfrwt>
<totfact> 0.44579632E+00</totfact>
</mgrwt>
</event>
<event>
 5    1  0.2343702E-004  0.6358627E+03  0.7818608E-02  0.9833675E-01
         13   -1    0    0    0    0  0.00000000000E+00  0.00000000000E+00  0.10000000000E+04  0.10000000000E+04  0.00000000000E+00 0. -1.
          2   -1    0    0  501    0 -0.00000000000E+00 -0.00000000000E+00 -0.10108032791E+03  0.10108032791E+03  0.00000000000E+00 0. -1.
    9000006    2    1    2  501    0  0.00000000000E+00  0.00000000000E+00  0.89891967209E+03  0.11010803279E+04  0.63586265156E+03 0.  0.
         13    1    3    3    0    0 -0.83132420122E+01  0.23124565329E+03  0.71913686669E+02  0.24231227886E+03  0.00000000000E+00 0. -1.
          2    1    3    3  501    0  0.83132420122E+01 -0.23124565329E+03  0.82700598542E+03  0.85876804905E+03  0.00000000000E+00 0. -1.
<mgrwt>
<rscale>  0 0.63586265E+03</rscale>
<asrwt>0</asrwt>
<pdfrwt beam="1">0</pdfrwt>
<pdfrwt beam="2">  1        2 0.36756560E+00 0.63586265E+03</pdfrwt>
<totfact> 0.52568899E+00</totfact>
</mgrwt>
</event>
<event>
 5    1  0.2343702E-004  0.6152466E+03  0.7818608E-02  0.9874269E-01
         13   -1    0    0    0    0  0.00000000000E+00  0.00000000000E+00  0.10000000000E+04  0.10000000000E+04  0.00000000000E+00 0. -1.
          2   -1    0    0  501    0 -0.00000000000E+00 -0.00000000000E+00 -0.94632100041E+02  0.94632100041E+02  0.00000000000E+00 0. -1.
    9000006    2    1    2  501    0  0.00000000000E+00  0.00000000000E+00  0.90536789996E+03  0.10946321000E+04  0.61524661735E+03 0.  0.
         13    1    3    3    0    0 -0.84402299178E+02 -0.17690303633E+03  0.87451632288E+03  0.89621271546E+03  0.00000000000E+00 0. -1.
          4    1    3    3  501    0  0.84402299178E+02  0.17690303633E+03  0.30851577078E+02  0.19841938458E+03  0.00000000000E+00 0. -1.
<mgrwt>
<rscale>  0 0.61524662E+03</rscale>
<asrwt>0</asrwt>
<pdfrwt beam="1">0</pdfrwt>
<pdfrwt beam="2">  1        2 0.34411745E+00 0.61524662E+03</pdfrwt>
<totfact> 0.64045798E+00</totfact>
</mgrwt>
</event>
<event>
 5    1  0.2343702E-004  0.6520766E+03  0.7818608E-02  0.9802890E-01
         13   -1    0    0    0    0  0.00000000000E+00  0.00000000000E+00  0.10000000000E+04  0.10000000000E+04  0.00000000000E+00 0. -1.
          2   -1    0    0  501    0 -0.00000000000E+00 -0.00000000000E+00 -0.10630097208E+03  0.10630097208E+03  0.00000000000E+00 0. -1.
    9000006    2    1    2  501    0  0.00000000000E+00  0.00000000000E+00  0.89369902792E+03  0.11063009721E+04  0.65207659699E+03 0.  0.
         13    1    3    3    0    0  0.20318192146E+02 -0.31228835387E+03  0.60201138016E+03  0.67849432330E+03  0.00000000000E+00 0. -1.
          2    1    3    3  501    0 -0.20318192146E+02  0.31228835387E+03  0.29168764775E+03  0.42780664879E+03  0.00000000000E+00 0. -1.
<mgrwt>
<rscale>  0 0.65207660E+03</rscale>
<asrwt>0</asrwt>
<pdfrwt beam="1">0</pdfrwt>
<pdfrwt beam="2">  1        2 0.38654980E+00 0.65207660E+03</pdfrwt>
<totfact> 0.44698097E+00</totfact>
</mgrwt>
</event>
<event>
 5    1  0.2343702E-004  0.6516186E+03  0.7818608E-02  0.9803747E-01
         13   -1    0    0    0    0  0.00000000000E+00  0.00000000000E+00  0.10000000000E+04  0.10000000000E+04  0.00000000000E+00 0. -1.
          2   -1    0    0  501    0 -0.00000000000E+00 -0.00000000000E+00 -0.10615171608E+03  0.10615171608E+03  0.00000000000E+00 0. -1.
    9000006    2    1    2  501    0  0.00000000000E+00  0.00000000000E+00  0.89384828392E+03  0.11061517161E+04  0.65161864944E+03 0.  0.
         13    1    3    3    0    0  0.25993746150E+03  0.37232124533E+02  0.77432588968E+03  0.81763946726E+03  0.00000000000E+00 0. -1.
          4    1    3    3  501    0 -0.25993746150E+03 -0.37232124533E+02  0.11952239424E+03  0.28851224882E+03  0.00000000000E+00 0. -1.
<mgrwt>
<rscale>  0 0.65161865E+03</rscale>
<asrwt>0</asrwt>
<pdfrwt beam="1">0</pdfrwt>
<pdfrwt beam="2">  1        2 0.38600705E+00 0.65161865E+03</pdfrwt>
<totfact> 0.44907321E+00</totfact>
</mgrwt>
</event>
<event>
 5    1  0.2343702E-004  0.6198565E+03  0.7818608E-02  0.9865046E-01
         13   -1    0    0    0    0  0.00000000000E+00  0.00000000000E+00  0.10000000000E+04  0.10000000000E+04  0.00000000000E+00 0. -1.
          2   -1    0    0  501    0 -0.00000000000E+00 -0.00000000000E+00 -0.96055511120E+02  0.96055511120E+02  0.00000000000E+00 0. -1.
    9000006    2    1    2  501    0  0.00000000000E+00  0.00000000000E+00  0.90394448888E+03  0.10960555111E+04  0.61985647087E+03 0.  0.
         13    1    3    3    0    0 -0.94819302365E+02  0.28834154929E+03  0.34120692463E+03  0.45667681632E+03  0.00000000000E+00 0. -1.
          2    1    3    3  501    0  0.94819302365E+02 -0.28834154929E+03  0.56273756425E+03  0.63937869480E+03  0.00000000000E+00 0. -1.
<mgrwt>
<rscale>  0 0.61985647E+03</rscale>
<asrwt>0</asrwt>
<pdfrwt beam="1">0</pdfrwt>
<pdfrwt beam="2">  1        2 0.34929350E+00 0.61985647E+03</pdfrwt>
<totfact> 0.61328482E+00</totfact>
</mgrwt>
</event>
<event>
 5    1  0.2343702E-004  0.6372882E+03  0.7818608E-02  0.9830929E-01
         13   -1    0    0    0    0  0.00000000000E+00  0.00000000000E+00  0.10000000000E+04  0.10000000000E+04  0.00000000000E+00 0. -1.
          2   -1    0    0  501    0 -0.00000000000E+00 -0.00000000000E+00 -0.10153406193E+03  0.10153406193E+03  0.00000000000E+00 0. -1.
    9000006    2    1    2  501    0  0.00000000000E+00  0.00000000000E+00  0.89846593807E+03  0.11015340619E+04  0.63728819832E+03 0.  0.
         13    1    3    3    0    0  0.32958840051E+01  0.23680561387E+03  0.80755173796E+02  0.25021822417E+03  0.00000000000E+00 0. -1.
          4    1    3    3  501    0 -0.32958840051E+01 -0.23680561387E+03  0.81771076427E+03  0.85131583776E+03  0.00000000000E+00 0. -1.
<mgrwt>
<rscale>  0 0.63728820E+03</rscale>
<asrwt>0</asrwt>
<pdfrwt beam="1">0</pdfrwt>
<pdfrwt beam="2">  1        2 0.36921555E+00 0.63728820E+03</pdfrwt>
<totfact> 0.51837673E+00</totfact>
</mgrwt>
</event>
<event>
 5    1  0.2343702E-004  0.6538829E+03  0.7818608E-02  0.9799520E-01
         13   -1    0    0    0    0  0.00000000000E+00  0.00000000000E+00  0.10000000000E+04  0.10000000000E+04  0.00000000000E+00 0. -1.
          2   -1    0    0  501    0 -0.00000000000E+00 -0.00000000000E+00 -0.10689072268E+03  0.10689072268E+03  0.00000000000E+00 0. -1.
    9000006    2    1    2  501    0  0.00000000000E+00  0.00000000000E+00  0.89310927732E+03  0.11068907227E+04  0.65388293349E+03 0.  0.
         13    1    3    3    0    0  0.10568430021E+03  0.21092442604E+03  0.63397204641E+02  0.24428976722E+03  0.00000000000E+00 0. -1.
          2    1    3    3  501    0 -0.10568430021E+03 -0.21092442604E+03  0.82971207268E+03  0.86260095546E+03  0.00000000000E+00 0. -1.
<mgrwt>
<rscale>  0 0.65388293E+03</rscale>
<asrwt>0</asrwt>
<pdfrwt beam="1">0</pdfrwt>
<pdfrwt beam="2">  1        2 0.38869436E+00 0.65388293E+03</pdfrwt>
<totfact> 0.43880004E+00</totfact>
</mgrwt>
</event>
<event>
 5    1  0.2343702E-004  0.6401791E+03  0.7818608E-02  0.9825384E-01
         13   -1    0    0    0    0  0.00000000000E+00  0.00000000000E+00  0.10000000000E+04  0.10000000000E+04  0.00000000000E+00 0. -1.
          2   -1    0    0  501    0 -0.00000000000E+00 -0.00000000000E+00 -0.10245731012E+03  0.10245731012E+03  0.00000000000E+00 0. -1.
    9000006    2    1    2  501    0  0.00000000000E+00  0.00000000000E+00  0.89754268988E+03  0.11024573101E+04  0.64017906907E+03 0.  0.
         13    1    3    3    0    0  0.17725223818E+03  0.23872727363E+03  0.24465803922E+03  0.38505405241E+03  0.00000000000E+00 0. -1.
          4    1    3    3  501    0 -0.17725223818E+03 -0.23872727363E+03  0.65288465066E+03  0.71740325771E+03  0.00000000000E+00 0. -1.
<mgrwt>
<rscale>  0 0.64017907E+03</rscale>
<asrwt>0</asrwt>
<pdfrwt beam="1">0</pdfrwt>
<pdfrwt beam="2">  1        2 0.37257282E+00 0.64017907E+03</pdfrwt>
<totfact> 0.50378497E+00</totfact>
</mgrwt>
</event>
<event>
 5    1  0.2343702E-004  0.6240942E+03  0.7818608E-02  0.9856642E-01
         13   -1    0    0    0    0  0.00000000000E+00  0.00000000000E+00  0.10000000000E+04  0.10000000000E+04  0.00000000000E+00 0. -1.
          2   -1    0    0  501    0 -0.00000000000E+00 -0.00000000000E+00 -0.97373403245E+02  0.97373403245E+02  0.00000000000E+00 0. -1.
    9000006    2    1    2  501    0  0.00000000000E+00  0.00000000000E+00  0.90262659675E+03  0.10973734032E+04  0.62409423406E+03 0.  0.
         13    1    3    3    0    0 -0.61025719984E+02  0.27418443257E+03  0.69029415884E+03  0.74525651107E+03  0.00000000000E+00 0. -1.
          4    1    3    3  501    0  0.61025719984E+02 -0.27418443257E+03  0.21233243792E+03  0.35211689218E+03  0.00000000000E+00 0. -1.
<mgrwt>
<rscale>  0 0.62409423E+03</rscale>
<asrwt>0</asrwt>
<pdfrwt beam="1">0</pdfrwt>
<pdfrwt beam="2">  1        2 0.35408585E+00 0.62409423E+03</pdfrwt>
<totfact> 0.58908760E+00</totfact>
</mgrwt>
</event>
<event>
 5    1  0.2343702E-004  0.6569053E+03  0.7818608E-02  0.9793908E-01
         13   -1    0    0    0    0  0.00000000000E+00  0.00000000000E+00  0.10000000000E+04  0.10000000000E+04  0.00000000000E+00 0. -1.
          2   -1    0    0  501    0 -0.00000000000E+00 -0.00000000000E+00 -0.10788113683E+03  0.10788113683E+03  0.00000000000E+00 0. -1.
    9000006    2    1    2  501    0  0.00000000000E+00  0.00000000000E+00  0.89211886317E+03  0.11078811368E+04  0.65690528032E+03 0.  0.
         13    1    3    3    0    0 -0.83524443534E+02 -0.15767074101E+03 -0.19017725857E+02  0.17943820422E+03  0.00000000000E+00 0. -1.
          4    1    3    3  501    0  0.83524443534E+02  0.15767074101E+03  0.91113658903E+03  0.92844293260E+03  0.00000000000E+00 0. -1.
<mgrwt>
<rscale>  0 0.65690528E+03</rscale>
<asrwt>0</asrwt>
<pdfrwt beam="1">0</pdfrwt>
<pdfrwt beam="2">  1        2 0.39229587E+00 0.65690528E+03</pdfrwt>
<totfact> 0.42536529E+00</totfact>
</mgrwt>
</event>
<event>
 5    1  0.2343702E-004  0.6398898E+03  0.7818608E-02  0.9825937E-01
         13   -1    0    0    0    0  0.00000000000E+00  0.00000000000E+00  0.10000000000E+04  0.10000000000E+04  0.00000000000E+00 0. -1.
          2   -1    0    0  501    0 -0.00000000000E+00 -0.00000000000E+00 -0.10236475213E+03  0.10236475213E+03  0.00000000000E+00 0. -1.
    9000006    2    1    2  501    0  0.00000000000E+00  0.00000000000E+00  0.89763524787E+03  0.11023647521E+04  0.63988984092E+03 0.  0.
         13    1    3    3    0    0  0.10254116825E+02 -0.26066960636E+03  0.12971046487E+03  0.29133931298E+03  0.00000000000E+00 0. -1.
          4    1    3    3  501    0 -0.10254116825E+02  0.26066960636E+03  0.76792478300E+03  0.81102543915E+03  0.00000000000E+00 0. -1.
<mgrwt>
<rscale>  0 0.63988984E+03</rscale>
<asrwt>0</asrwt>
<pdfrwt beam="1">0</pdfrwt>
<pdfrwt beam="2">  1        2 0.37223625E+00 0.63988984E+03</pdfrwt>
<totfact> 0.50523068E+00</totfact>
</mgrwt>
</event>
<event>
 5    1  0.2343702E-004  0.6583208E+03  0.7818608E-02  0.9791290E-01
         13   -1    0    0    0    0  0.00000000000E+00  0.00000000000E+00  0.10000000000E+04  0.10000000000E+04  0.00000000000E+00 0. -1.
          2   -1    0    0  501    0 -0.00000000000E+00 -0.00000000000E+00 -0.10834655843E+03  0.10834655843E+03  0.00000000000E+00 0. -1.
    9000006    2    1    2  501    0  0.00000000000E+00  0.00000000000E+00  0.89165344157E+03  0.11083465584E+04  0.65832076810E+03 0.  0.
         13    1    3    3    0    0 -0.17490775434E+03  0.26381746728E+03  0.29379711677E+03  0.43186702165E+03  0.00000000000E+00 0. -1.
          4    1    3    3  501    0  0.17490775434E+03 -0.26381746728E+03  0.59785632480E+03  0.67647953678E+03  0.00000000000E+00 0. -1.
<mgrwt>
<rscale>  0 0.65832077E+03</rscale>
<asrwt>0</asrwt>
<pdfrwt beam="1">0</pdfrwt>
<pdfrwt beam="2">  1        2 0.39398832E+00 0.65832077E+03</pdfrwt>
<totfact> 0.41918120E+00</totfact>
</mgrwt>
</event>
<event>
 5    1  0.2343702E-004  0.6362940E+03  0.7818608E-02  0.9832843E-01
         13   -1    0    0    0    0  0.00000000000E+00  0.00000000000E+00  0.10000000000E+04  0.10000000000E+04  0.00000000000E+00 0. -1.
          2   -1    0    0  501    0 -0.00000000000E+00 -0.00000000000E+00 -0.10121751799E+03  0.10121751799E+03  0.00000000000E+00 0. -1.
    9000006    2    1    2  501    0  0.00000000000E+00  0.00000000000E+00  0.89878248201E+03  0.11012175180E+04  0.63629401376E+03 0.  0.
         13    1    3    3    0    0  0.10141098745E+03 -0.30146804471E+03  0.46167142282E+03  0.56063149484E+03  0.00000000000E+00 0. -1.
          2    1    3    3  501    0 -0.10141098745E+03  0.30146804471E+03  0.43711105919E+03  0.54058602315E+03  0.00000000000E+00 0. -1.
<mgrwt>
<rscale>  0 0.63629401E+03</rscale>
<asrwt>0</asrwt>
<pdfrwt beam="1">0</pdfrwt>
<pdfrwt beam="2">  1        2 0.36806448E+00 0.63629401E+03</pdfrwt>
<totfact> 0.52346815E+00</totfact>
</mgrwt>
</event>
<event>
 5    1  0.2343702E-004  0.6551702E+03  0.7818608E-02  0.9797126E-01
         13   -1    0    0    0    0  0.00000000000E+00  0.00000000000E+00  0.10000000000E+04  0.10000000000E+04  0.00000000000E+00 0. -1.
          2   -1    0    0  501    0 -0.00000000000E+00 -0.00000000000E+00 -0.10731200661E+03  0.10731200661E+03  0.00000000000E+00 0. -1.
    9000006    2    1    2  501    0  0.00000000000E+00  0.00000000000E+00  0.89268799339E+03  0.11073120066E+04  0.65517022708E+03 0.  0.
         13    1    3    3    0    0  0.20644305735E+01  0.28551935882E+03  0.71774506568E+03  0.77245294060E+03  0.00000000000E+00 0. -1.
          2    1    3    3  501    0 -0.20644305735E+01 -0.28551935882E+03  0.17494292770E+03  0.33485906601E+03  0.00000000000E+00 0. -1.
<mgrwt>
<rscale>  0 0.65517023E+03</rscale>
<asrwt>0</asrwt>
<pdfrwt beam="1">0</pdfrwt>
<pdfrwt beam="2">  1        2 0.39022630E+00 0.65517023E+03</pdfrwt>
<totfact> 0.43303926E+00</totfact>
</mgrwt>
</event>
<event>
 5    1  0.2343702E-004  0.6568919E+03  0.7818608E-02  0.9793932E-01
         13   -1    0    0    0    0  0.00000000000E+00  0.00000000000E+00  0.10000000000E+04  0.10000000000E+04  0.00000000000E+00 0. -1.
          2   -1    0    0  501    0 -0.00000000000E+00 -0.00000000000E+00 -0.10787674609E+03  0.10787674609E+03  0.00000000000E+00 0. -1.
    9000006    2    1    2  501    0  0.00000000000E+00  0.00000000000E+00  0.89212325391E+03  0.11078767461E+04  0.65689191225E+03 0.  0.
         13    1    3    3    0    0 -0.13625656258E+03  0.16346164584E+02 -0.57206152245E+02  0.14867949353E+03  0.00000000000E+00 0. -1.
          4    1    3    3  501    0  0.13625656258E+03 -0.16346164584E+02  0.94932940615E+03  0.95919725256E+03  0.00000000000E+00 0. -1.
<mgrwt>
<rscale>  0 0.65689191E+03</rscale>
<asrwt>0</asrwt>
<pdfrwt beam="1">0</pdfrwt>
<pdfrwt beam="2">  1        2 0.39227990E+00 0.65689191E+03</pdfrwt>
<totfact> 0.42542402E+00</totfact>
</mgrwt>
</event>
<event>
 5    1  0.2343702E-004  0.6545958E+03  0.7818608E-02  0.9798194E-01
         13   -1    0    0    0    0  0.00000000000E+00  0.00000000000E+00  0.10000000000E+04  0.10000000000E+04  0.00000000000E+00 0. -1.
          2   -1    0    0  501    0 -0.00000000000E+00 -0.00000000000E+00 -0.10712390092E+03  0.10712390092E+03  0.00000000000E+00 0. -1.
    9000006    2    1    2  501    0  0.00000000000E+00  0.00000000000E+00  0.89287609908E+03  0.11071239009E+04  0.65459575591E+03 0.  0.
         13    1    3    3    0    0 -0.28442834855E+03 -0.15743321236E+03  0.38227522395E+03  0.50181575170E+03  0.00000000000E+00 0. -1.
          4    1    3    3  501    0  0.28442834855E+03  0.15743321236E+03  0.51060087514E+03  0.60530814921E+03  0.00000000000E+00 0. -1.
<mgrwt>
<rscale>  0 0.65459576E+03</rscale>
<asrwt>0</asrwt>
<pdfrwt beam="1">0</pdfrwt>
<pdfrwt beam="2">  1        2 0.38954228E+00 0.65459576E+03</pdfrwt>
<totfact> 0.43560298E+00</totfact>
</mgrwt>
</event>
<event>
 5    1  0.2343702E-004  0.6480694E+03  0.7818608E-02  0.9810409E-01
         13   -1    0    0    0    0  0.00000000000E+00  0.00000000000E+00  0.10000000000E+04  0.10000000000E+04  0.00000000000E+00 0. -1.
          2   -1    0    0  501    0 -0.00000000000E+00 -0.00000000000E+00 -0.10499847115E+03  0.10499847115E+03  0.00000000000E+00 0. -1.
    9000006    2    1    2  501    0  0.00000000000E+00  0.00000000000E+00  0.89500152885E+03  0.11049984711E+04  0.64806935168E+03 0.  0.
         13    1    3    3    0    0 -0.49222073411E+02 -0.21246208367E+03  0.85613098174E+03  0.88347224484E+03  0.00000000000E+00 0. -1.
          2    1    3    3  501    0  0.49222073411E+02  0.21246208367E+03  0.38870547112E+02  0.22152622630E+03  0.00000000000E+00 0. -1.
<mgrwt>
<rscale>  0 0.64806935E+03</rscale>
<asrwt>0</asrwt>
<pdfrwt beam="1">0</pdfrwt>
<pdfrwt beam="2">  1        2 0.38181343E+00 0.64806935E+03</pdfrwt>
<totfact> 0.46554099E+00</totfact>
</mgrwt>
</event>
<event>
 5    1  0.2343702E-004  0.6567658E+03  0.7818608E-02  0.9794166E-01
         13   -1    0    0    0    0  0.00000000000E+00  0.00000000000E+00  0.10000000000E+04  0.10000000000E+04  0.00000000000E+00 0. -1.
          2   -1    0    0  501    0 -0.00000000000E+00 -0.00000000000E+00 -0.10783532076E+03  0.10783532076E+03  0.00000000000E+00 0. -1.
    9000006    2    1    2  501    0  0.00000000000E+00  0.00000000000E+00  0.89216467924E+03  0.11078353208E+04  0.65676577488E+03 0.  0.
         13    1    3    3    0    0 -0.98095108440E+02 -0.17191835741E+02 -0.81747563691E+02  0.12884437778E+03  0.00000000000E+00 0. -1.
          2    1    3    3  501    0  0.98095108440E+02  0.17191835741E+02  0.97391224293E+03  0.97899094298E+03  0.00000000000E+00 0. -1.
<mgrwt>
<rscale>  0 0.65676577E+03</rscale>
<asrwt>0</asrwt>
<pdfrwt beam="1">0</pdfrwt>
<pdfrwt beam="2">  1        2 0.39212927E+00 0.65676577E+03</pdfrwt>
<totfact> 0.42597848E+00</totfact>
</mgrwt>
</event>
<event>
 5    1  0.2343702E-004  0.6491298E+03  0.7818608E-02  0.9808413E-01
         13   -1    0    0    0    0  0.00000000000E+00  0.00000000000E+00  0.10000000000E+04  0.10000000000E+04  0.00000000000E+00 0. -1.
          2   -1    0    0  501    0 -0.00000000000E+00 -0.00000000000E+00 -0.10534238190E+03  0.10534238190E+03  0.00000000000E+00 0. -1.
    9000006    2    1    2  501    0  0.00000000000E+00  0.00000000000E+00  0.89465761810E+03  0.11053423819E+04  0.64912982338E+03 0.  0.
         13    1    3    3    0    0 -0.15521815042E+03  0.12152934323E+03  0.88637663534E+03  0.90803391741E+03  0.00000000000E+00 0. -1.
          4    1    3    3  501    0  0.15521815042E+03 -0.12152934323E+03  0.82809827540E+01  0.19730846449E+03  0.00000000000E+00 0. -1.
<mgrwt>
<rscale>  0 0.64912982E+03</rscale>
<asrwt>0</asrwt>
<pdfrwt beam="1">0</pdfrwt>
<pdfrwt beam="2">  1        2 0.38306401E+00 0.64912982E+03</pdfrwt>
<totfact> 0.46057367E+00</totfact>
</mgrwt>
</event>
<event>
 5    1  0.2343702E-004  0.6600184E+03  0.7818608E-02  0.9788160E-01
         13   -1    0    0    0    0  0.00000000000E+00  0.00000000000E+00  0.10000000000E+04  0.10000000000E+04  0.00000000000E+00 0. -1.
          2   -1    0    0  501    0 -0.00000000000E+00 -0.00000000000E+00 -0.10890608229E+03  0.10890608229E+03  0.00000000000E+00 0. -1.
    9000006    2    1    2  501    0  0.00000000000E+00  0.00000000000E+00  0.89109391771E+03  0.11089060823E+04  0.66001843092E+03 0.  0.
         13    1    3    3    0    0  0.81902493121E+02 -0.70719715544E+02  0.96934594545E+03  0.97536703784E+03  0.00000000000E+00 0. -1.
          4    1    3    3  501    0 -0.81902493121E+02  0.70719715544E+02 -0.78252027742E+02  0.13353904445E+03  0.00000000000E+00 0. -1.
<mgrwt>
<rscale>  0 0.66001843E+03</rscale>
<asrwt>0</asrwt>
<pdfrwt beam="1">0</pdfrwt>
<pdfrwt beam="2">  1        2 0.39602295E+00 0.66001843E+03</pdfrwt>
<totfact> 0.41185470E+00</totfact>
</mgrwt>
</event>
<event>
 5    1  0.2343702E-004  0.6317495E+03  0.7818608E-02  0.9841641E-01
         13   -1    0    0    0    0  0.00000000000E+00  0.00000000000E+00  0.10000000000E+04  0.10000000000E+04  0.00000000000E+00 0. -1.
          2   -1    0    0  501    0 -0.00000000000E+00 -0.00000000000E+00 -0.99776846564E+02  0.99776846564E+02  0.00000000000E+00 0. -1.
    9000006    2    1    2  501    0  0.00000000000E+00  0.00000000000E+00  0.90022315344E+03  0.10997768466E+04  0.63174946479E+03 0.  0.
         13    1    3    3    0    0  0.33861002977E+02  0.17440763233E+03  0.90477592273E+03  0.92205426093E+03  0.00000000000E+00 0. -1.
          2    1    3    3  501    0 -0.33861002977E+02 -0.17440763233E+03 -0.45527692986E+01  0.17772258564E+03  0.00000000000E+00 0. -1.
<mgrwt>
<rscale>  0 0.63174946E+03</rscale>
<asrwt>0</asrwt>
<pdfrwt beam="1">0</pdfrwt>
<pdfrwt beam="2">  1        2 0.36282566E+00 0.63174946E+03</pdfrwt>
<totfact> 0.54722613E+00</totfact>
</mgrwt>
</event>
<event>
 5    1  0.2343702E-004  0.5340862E+03  0.7818608E-02  0.1005246E+00
         13   -1    0    0    0    0  0.00000000000E+00  0.00000000000E+00  0.10000000000E+04  0.10000000000E+04  0.00000000000E+00 0. -1.
          2   -1    0    0  501    0 -0.00000000000E+00 -0.00000000000E+00 -0.71312015803E+02  0.71312015803E+02  0.00000000000E+00 0. -1.
    9000006    2    1    2  501    0  0.00000000000E+00  0.00000000000E+00  0.92868798420E+03  0.10713120158E+04  0.53408619455E+03 0.  0.
         13    1    3    3    0    0 -0.18726095373E+03  0.15351740594E+02  0.83704167012E+02  0.20569085615E+03  0.00000000000E+00 0. -1.
          2    1    3    3  501    0  0.18726095373E+03 -0.15351740594E+02  0.84498381719E+03  0.86562115965E+03  0.00000000000E+00 0. -1.
<mgrwt>
<rscale>  0 0.53408619E+03</rscale>
<asrwt>0</asrwt>
<pdfrwt beam="1">0</pdfrwt>
<pdfrwt beam="2">  1        2 0.25931697E+00 0.53408619E+03</pdfrwt>
<totfact> 0.12906253E+01</totfact>
</mgrwt>
</event>
<event>
 5    1  0.2343702E-004  0.6453018E+03  0.7818608E-02  0.9815635E-01
         13   -1    0    0    0    0  0.00000000000E+00  0.00000000000E+00  0.10000000000E+04  0.10000000000E+04  0.00000000000E+00 0. -1.
          2   -1    0    0  501    0 -0.00000000000E+00 -0.00000000000E+00 -0.10410359782E+03  0.10410359782E+03  0.00000000000E+00 0. -1.
    9000006    2    1    2  501    0  0.00000000000E+00  0.00000000000E+00  0.89589640218E+03  0.11041035978E+04  0.64530178311E+03 0.  0.
         13    1    3    3    0    0  0.34392290215E+02 -0.14100737276E+03 -0.45094560130E+02  0.15198496029E+03  0.00000000000E+00 0. -1.
          4    1    3    3  501    0 -0.34392290215E+02  0.14100737276E+03  0.94099096231E+03  0.95211863754E+03  0.00000000000E+00 0. -1.
<mgrwt>
<rscale>  0 0.64530178E+03</rscale>
<asrwt>0</asrwt>
<pdfrwt beam="1">0</pdfrwt>
<pdfrwt beam="2">  1        2 0.37855934E+00 0.64530178E+03</pdfrwt>
<totfact> 0.47869533E+00</totfact>
</mgrwt>
</event>
<event>
 5    1  0.2343702E-004  0.6510313E+03  0.7818608E-02  0.9804846E-01
         13   -1    0    0    0    0  0.00000000000E+00  0.00000000000E+00  0.10000000000E+04  0.10000000000E+04  0.00000000000E+00 0. -1.
          2   -1    0    0  501    0 -0.00000000000E+00 -0.00000000000E+00 -0.10596042402E+03  0.10596042402E+03  0.00000000000E+00 0. -1.
    9000006    2    1    2  501    0  0.00000000000E+00  0.00000000000E+00  0.89403957598E+03  0.11059604240E+04  0.65103125584E+03 0.  0.
         13    1    3    3    0    0 -0.14909915647E+03 -0.15685239196E+03  0.33942443260E+02  0.21905551985E+03  0.00000000000E+00 0. -1.
          2    1    3    3  501    0  0.14909915647E+03  0.15685239196E+03  0.86009713272E+03  0.88690490417E+03  0.00000000000E+00 0. -1.
<mgrwt>
<rscale>  0 0.65103126E+03</rscale>
<asrwt>0</asrwt>
<pdfrwt beam="1">0</pdfrwt>
<pdfrwt beam="2">  1        2 0.38531145E+00 0.65103126E+03</pdfrwt>
<totfact> 0.45176767E+00</totfact>
</mgrwt>
</event>
<event>
 5    1  0.2343702E-004  0.6478613E+03  0.7818608E-02  0.9810801E-01
         13   -1    0    0    0    0  0.00000000000E+00  0.00000000000E+00  0.10000000000E+04  0.10000000000E+04  0.00000000000E+00 0. -1.
          2   -1    0    0  501    0 -0.00000000000E+00 -0.00000000000E+00 -0.10493105011E+03  0.10493105011E+03  0.00000000000E+00 0. -1.
    9000006    2    1    2  501    0  0.00000000000E+00  0.00000000000E+00  0.89506894989E+03  0.11049310501E+04  0.64786125093E+03 0.  0.
         13    1    3    3    0    0 -0.17625934089E+03 -0.17507998524E+03  0.93007902703E+02  0.26527500155E+03  0.00000000000E+00 0. -1.
          2    1    3    3  501    0  0.17625934089E+03  0.17507998524E+03  0.80206104718E+03  0.83965604856E+03  0.00000000000E+00 0. -1.
<mgrwt>
<rscale>  0 0.64786125E+03</rscale>
<asrwt>0</asrwt>
<pdfrwt beam="1">0</pdfrwt>
<pdfrwt beam="2">  1        2 0.38156826E+00 0.64786125E+03</pdfrwt>
<totfact> 0.46652048E+00</totfact>
</mgrwt>
</event>
<event>
 5    1  0.2343702E-004  0.6470239E+03  0.7818608E-02  0.9812380E-01
         13   -1    0    0    0    0  0.00000000000E+00  0.00000000000E+00  0.10000000000E+04  0.10000000000E+04  0.00000000000E+00 0. -1.
          2   -1    0    0  501    0 -0.00000000000E+00 -0.00000000000E+00 -0.10465997497E+03  0.10465997497E+03  0.00000000000E+00 0. -1.
    9000006    2    1    2  501    0  0.00000000000E+00  0.00000000000E+00  0.89534002503E+03  0.11046599750E+04  0.64702387891E+03 0.  0.
         13    1    3    3    0    0  0.78855342742E+02 -0.17020248707E+03 -0.23336996630E+01  0.18759663600E+03  0.00000000000E+00 0. -1.
          2    1    3    3  501    0 -0.78855342742E+02  0.17020248707E+03  0.89767372469E+03  0.91706333897E+03  0.00000000000E+00 0. -1.
<mgrwt>
<rscale>  0 0.64702388E+03</rscale>
<asrwt>0</asrwt>
<pdfrwt beam="1">0</pdfrwt>
<pdfrwt beam="2">  1        2 0.38058253E+00 0.64702388E+03</pdfrwt>
<totfact> 0.47047759E+00</totfact>
</mgrwt>
</event>
<event>
 5    1  0.2343702E-004  0.6345346E+03  0.7818608E-02  0.9836240E-01
         13   -1    0    0    0    0  0.00000000000E+00  0.00000000000E+00  0.10000000000E+04  0.10000000000E+04  0.00000000000E+00 0. -1.
          2   -1    0    0  501    0 -0.00000000000E+00 -0.00000000000E+00 -0.10065855396E+03  0.10065855396E+03  0.00000000000E+00 0. -1.
    9000006    2    1    2  501    0  0.00000000000E+00  0.00000000000E+00  0.89934144604E+03  0.11006585540E+04  0.63453464509E+03 0.  0.
         13    1    3    3    0    0 -0.11334717272E+03 -0.27901207076E+03  0.62281075737E+03  0.69180095164E+03  0.00000000000E+00 0. -1.
          4    1    3    3  501    0  0.11334717272E+03  0.27901207076E+03  0.27653068868E+03  0.40885760232E+03  0.00000000000E+00 0. -1.
<mgrwt>
<rscale>  0 0.63453465E+03</rscale>
<asrwt>0</asrwt>
<pdfrwt beam="1">0</pdfrwt>
<pdfrwt beam="2">  1        2 0.36603188E+00 0.63453465E+03</pdfrwt>
<totfact> 0.53257101E+00</totfact>
</mgrwt>
</event>
<event>
 5    1  0.2343702E-004  0.6501929E+03  0.7818608E-02  0.9806417E-01
         13   -1    0    0    0    0  0.00000000000E+00  0.00000000000E+00  0.10000000000E+04  0.10000000000E+04  0.00000000000E+00 0. -1.
          2   -1    0    0  501    0 -0.00000000000E+00 -0.00000000000E+00 -0.10568770215E+03  0.10568770215E+03  0.00000000000E+00 0. -1.
    9000006    2    1    2  501    0  0.00000000000E+00  0.00000000000E+00  0.89431229785E+03  0.11056877022E+04  0.65019290108E+03 0.  0.
         13    1    3    3    0    0  0.26864756083E+03  0.10682569368E+03  0.19432520607E+03  0.34834684796E+03  0.00000000000E+00 0. -1.
          4    1    3    3  501    0 -0.26864756083E+03 -0.10682569368E+03  0.69998709178E+03  0.75734085419E+03  0.00000000000E+00 0. -1.
<mgrwt>
<rscale>  0 0.65019290E+03</rscale>
<asrwt>0</asrwt>
<pdfrwt beam="1">0</pdfrwt>
<pdfrwt beam="2">  1        2 0.38431973E+00 0.65019290E+03</pdfrwt>
<totfact> 0.45563447E+00</totfact>
</mgrwt>
</event>
<event>
 5    1  0.2343702E-004  0.6130523E+03  0.7818608E-02  0.9878691E-01
         13   -1    0    0    0    0  0.00000000000E+00  0.00000000000E+00  0.10000000000E+04  0.10000000000E+04  0.00000000000E+00 0. -1.
          2   -1    0    0  501    0 -0.00000000000E+00 -0.00000000000E+00 -0.93958285966E+02  0.93958285966E+02  0.00000000000E+00 0. -1.
    9000006    2    1    2  501    0  0.00000000000E+00  0.00000000000E+00  0.90604171403E+03  0.10939582860E+04  0.61305231740E+03 0.  0.
         13    1    3    3    0    0  0.52643809702E+02  0.52976825240E+02  0.98351566093E+03  0.98634728671E+03  0.00000000000E+00 0. -1.
          2    1    3    3  501    0 -0.52643809702E+02 -0.52976825240E+02 -0.77473946896E+02  0.10761099925E+03  0.00000000000E+00 0. -1.
<mgrwt>
<rscale>  0 0.61305232E+03</rscale>
<asrwt>0</asrwt>
<pdfrwt beam="1">0</pdfrwt>
<pdfrwt beam="2">  1        2 0.34166721E+00 0.61305232E+03</pdfrwt>
<totfact> 0.65371021E+00</totfact>
</mgrwt>
</event>
<event>
 5    1  0.2343702E-004  0.6397076E+03  0.7818608E-02  0.9826286E-01
         13   -1    0    0    0    0  0.00000000000E+00  0.00000000000E+00  0.10000000000E+04  0.10000000000E+04  0.00000000000E+00 0. -1.
          2   -1    0    0  501    0 -0.00000000000E+00 -0.00000000000E+00 -0.10230646733E+03  0.10230646733E+03  0.00000000000E+00 0. -1.
    9000006    2    1    2  501    0  0.00000000000E+00  0.00000000000E+00  0.89769353267E+03  0.11023064673E+04  0.63970764363E+03 0.  0.
         13    1    3    3    0    0  0.30883592567E+03  0.26060561985E+02  0.31264573578E+03  0.44023418538E+03  0.00000000000E+00 0. -1.
          2    1    3    3  501    0 -0.30883592567E+03 -0.26060561985E+02  0.58504779689E+03  0.66207228195E+03  0.00000000000E+00 0. -1.
<mgrwt>
<rscale>  0 0.63970764E+03</rscale>
<asrwt>0</asrwt>
<pdfrwt beam="1">0</pdfrwt>
<pdfrwt beam="2">  1        2 0.37202430E+00 0.63970764E+03</pdfrwt>
<totfact> 0.50614301E+00</totfact>
</mgrwt>
</event>
<event>
 5    1  0.2343702E-004  0.6834153E+03  0.7818608E-02  0.9746022E-01
         13   -1    0    0    0    0  0.00000000000E+00  0.00000000000E+00  0.10000000000E+04  0.10000000000E+04  0.00000000000E+00 0. -1.
          2   -1    0    0  501    0 -0.00000000000E+00 -0.00000000000E+00 -0.11676413361E+03  0.11676413361E+03  0.00000000000E+00 0. -1.
    9000006    2    1    2  501    0  0.00000000000E+00  0.00000000000E+00  0.88323586639E+03  0.11167641336E+04  0.68341534547E+03 0.  0.
         13    1    3    3    0    0 -0.31305316053E+03  0.12674884483E+03  0.52647413664E+03  0.62549385891E+03  0.00000000000E+00 0. -1.
          2    1    3    3  501    0  0.31305316053E+03 -0.12674884483E+03  0.35676172975E+03  0.49127027469E+03  0.00000000000E+00 0. -1.
<mgrwt>
<rscale>  0 0.68341535E+03</rscale>
<asrwt>0</asrwt>
<pdfrwt beam="1">0</pdfrwt>
<pdfrwt beam="2">  1        2 0.42459774E+00 0.68341535E+03</pdfrwt>
<totfact> 0.32039045E+00</totfact>
</mgrwt>
</event>
<event>
 5    1  0.2343702E-004  0.6530276E+03  0.7818608E-02  0.9801115E-01
         13   -1    0    0    0    0  0.00000000000E+00  0.00000000000E+00  0.10000000000E+04  0.10000000000E+04  0.00000000000E+00 0. -1.
          2   -1    0    0  501    0 -0.00000000000E+00 -0.00000000000E+00 -0.10661127063E+03  0.10661127063E+03  0.00000000000E+00 0. -1.
    9000006    2    1    2  501    0  0.00000000000E+00  0.00000000000E+00  0.89338872937E+03  0.11066112706E+04  0.65302762769E+03 0.  0.
         13    1    3    3    0    0  0.12741736151E+03  0.25083035118E+03  0.72750629318E+03  0.78001054846E+03  0.00000000000E+00 0. -1.
          4    1    3    3  501    0 -0.12741736151E+03 -0.25083035118E+03  0.16588243619E+03  0.32660072217E+03  0.00000000000E+00 0. -1.
<mgrwt>
<rscale>  0 0.65302763E+03</rscale>
<asrwt>0</asrwt>
<pdfrwt beam="1">0</pdfrwt>
<pdfrwt beam="2">  1        2 0.38767817E+00 0.65302763E+03</pdfrwt>
<totfact> 0.44265951E+00</totfact>
</mgrwt>
</event>
<event>
 5    1  0.2343702E-004  0.6473600E+03  0.7818608E-02  0.9811746E-01
         13   -1    0    0    0    0  0.00000000000E+00  0.00000000000E+00  0.10000000000E+04  0.10000000000E+04  0.00000000000E+00 0. -1.
          2   -1    0    0  501    0 -0.00000000000E+00 -0.00000000000E+00 -0.10476875704E+03  0.10476875704E+03  0.00000000000E+00 0. -1.
    9000006    2    1    2  501    0  0.00000000000E+00  0.00000000000E+00  0.89523124296E+03  0.11047687570E+04  0.64736004523E+03 0.  0.
         13    1    3    3    0    0 -0.66354759928E+02  0.27222082394E+03  0.72417366716E+03  0.77648865501E+03  0.00000000000E+00 0. -1.
          2    1    3    3  501    0  0.66354759928E+02 -0.27222082394E+03  0.17105757580E+03  0.32828010203E+03  0.00000000000E+00 0. -1.
<mgrwt>
<rscale>  0 0.64736005E+03</rscale>
<asrwt>0</asrwt>
<pdfrwt beam="1">0</pdfrwt>
<pdfrwt beam="2">  1        2 0.38097810E+00 0.64736005E+03</pdfrwt>
<totfact> 0.46888596E+00</totfact>
</mgrwt>
</event>
<event>
 5    1  0.2343702E-004  0.6343320E+03  0.7818608E-02  0.9836631E-01
         13   -1    0    0    0    0  0.00000000000E+00  0.00000000000E+00  0.10000000000E+04  0.10000000000E+04  0.00000000000E+00 0. -1.
          2   -1    0    0  501    0 -0.00000000000E+00 -0.00000000000E+00 -0.10059427308E+03  0.10059427308E+03  0.00000000000E+00 0. -1.
    9000006    2    1    2  501    0  0.00000000000E+00  0.00000000000E+00  0.89940572692E+03  0.11005942731E+04  0.63433200479E+03 0.  0.
         13    1    3    3    0    0 -0.24356287177E+03 -0.20050750852E+03  0.39299743548E+03  0.50395745631E+03  0.00000000000E+00 0. -1.
          2    1    3    3  501    0  0.24356287177E+03  0.20050750852E+03  0.50640829144E+03  0.59663681677E+03  0.00000000000E+00 0. -1.
<mgrwt>
<rscale>  0 0.63433200E+03</rscale>
<asrwt>0</asrwt>
<pdfrwt beam="1">0</pdfrwt>
<pdfrwt beam="2">  1        2 0.36579813E+00 0.63433200E+03</pdfrwt>
<totfact> 0.53362711E+00</totfact>
</mgrwt>
</event>
<event>
 5    1  0.2343702E-004  0.6532255E+03  0.7818608E-02  0.9800746E-01
         13   -1    0    0    0    0  0.00000000000E+00  0.00000000000E+00  0.10000000000E+04  0.10000000000E+04  0.00000000000E+00 0. -1.
          4   -1    0    0  501    0 -0.00000000000E+00 -0.00000000000E+00 -0.10667588818E+03  0.10667588818E+03  0.00000000000E+00 0. -1.
    9000006    2    1    2  501    0  0.00000000000E+00  0.00000000000E+00  0.89332411182E+03  0.11066758882E+04  0.65322549913E+03 0.  0.
         13    1    3    3    0    0  0.23024111013E+03  0.17678926574E+03  0.70028167641E+03  0.75806321609E+03  0.00000000000E+00 0. -1.
          2    1    3    3  501    0 -0.23024111013E+03 -0.17678926574E+03  0.19304243541E+03  0.34861267209E+03  0.00000000000E+00 0. -1.
<mgrwt>
<rscale>  0 0.65322550E+03</rscale>
<asrwt>0</asrwt>
<pdfrwt beam="1">0</pdfrwt>
<pdfrwt beam="2">  1        4 0.38791314E+00 0.65322550E+03</pdfrwt>
<totfact> 0.38788483E-02</totfact>
</mgrwt>
</event>
<event>
 5    1  0.2343702E-004  0.6560521E+03  0.7818608E-02  0.9795489E-01
         13   -1    0    0    0    0  0.00000000000E+00  0.00000000000E+00  0.10000000000E+04  0.10000000000E+04  0.00000000000E+00 0. -1.
          2   -1    0    0  501    0 -0.00000000000E+00 -0.00000000000E+00 -0.10760109499E+03  0.10760109499E+03  0.00000000000E+00 0. -1.
    9000006    2    1    2  501    0  0.00000000000E+00  0.00000000000E+00  0.89239890501E+03  0.11076010950E+04  0.65605211680E+03 0.  0.
         13    1    3    3    0    0  0.20127074062E+03  0.25027450562E+03  0.33352820285E+03  0.46302084326E+03  0.00000000000E+00 0. -1.
          4    1    3    3  501    0 -0.20127074062E+03 -0.25027450562E+03  0.55887070216E+03  0.64458025173E+03  0.00000000000E+00 0. -1.
<mgrwt>
<rscale>  0 0.65605212E+03</rscale>
<asrwt>0</asrwt>
<pdfrwt beam="1">0</pdfrwt>
<pdfrwt beam="2">  1        2 0.39127753E+00 0.65605212E+03</pdfrwt>
<totfact> 0.42912580E+00</totfact>
</mgrwt>
</event>
<event>
 5    1  0.2343702E-004  0.6597026E+03  0.7818608E-02  0.9788741E-01
         13   -1    0    0    0    0  0.00000000000E+00  0.00000000000E+00  0.10000000000E+04  0.10000000000E+04  0.00000000000E+00 0. -1.
          2   -1    0    0  501    0 -0.00000000000E+00 -0.00000000000E+00 -0.10880188121E+03  0.10880188121E+03  0.00000000000E+00 0. -1.
    9000006    2    1    2  501    0  0.00000000000E+00  0.00000000000E+00  0.89119811879E+03  0.11088018812E+04  0.65970260332E+03 0.  0.
         13    1    3    3    0    0 -0.75672009292E+02 -0.31929385837E+03  0.50202506628E+03  0.59975327274E+03  0.00000000000E+00 0. -1.
          4    1    3    3  501    0  0.75672009292E+02  0.31929385837E+03  0.38917305251E+03  0.50904860847E+03  0.00000000000E+00 0. -1.
<mgrwt>
<rscale>  0 0.65970260E+03</rscale>
<asrwt>0</asrwt>
<pdfrwt beam="1">0</pdfrwt>
<pdfrwt beam="2">  1        2 0.39564404E+00 0.65970260E+03</pdfrwt>
<totfact> 0.41321032E+00</totfact>
</mgrwt>
</event>
<event>
 5    1  0.2343702E-004  0.5925962E+03  0.7818608E-02  0.9920887E-01
         13   -1    0    0    0    0  0.00000000000E+00  0.00000000000E+00  0.10000000000E+04  0.10000000000E+04  0.00000000000E+00 0. -1.
          2   -1    0    0  501    0 -0.00000000000E+00 -0.00000000000E+00 -0.87792559185E+02  0.87792559185E+02  0.00000000000E+00 0. -1.
    9000006    2    1    2  501    0  0.00000000000E+00  0.00000000000E+00  0.91220744081E+03  0.10877925592E+04  0.59259618354E+03 0.  0.
         13    1    3    3    0    0 -0.99137439435E+02 -0.10015517336E+03 -0.22337389223E+02  0.14268233810E+03  0.00000000000E+00 0. -1.
          2    1    3    3  501    0  0.99137439435E+02  0.10015517336E+03  0.93454483004E+03  0.94511022108E+03  0.00000000000E+00 0. -1.
<mgrwt>
<rscale>  0 0.59259618E+03</rscale>
<asrwt>0</asrwt>
<pdfrwt beam="1">0</pdfrwt>
<pdfrwt beam="2">  1        2 0.31924634E+00 0.59259618E+03</pdfrwt>
<totfact> 0.78762743E+00</totfact>
</mgrwt>
</event>
<event>
 5    1  0.2343702E-004  0.6363990E+03  0.7818608E-02  0.9832641E-01
         13   -1    0    0    0    0  0.00000000000E+00  0.00000000000E+00  0.10000000000E+04  0.10000000000E+04  0.00000000000E+00 0. -1.
          2   -1    0    0  501    0 -0.00000000000E+00 -0.00000000000E+00 -0.10125092452E+03  0.10125092452E+03  0.00000000000E+00 0. -1.
    9000006    2    1    2  501    0  0.00000000000E+00  0.00000000000E+00  0.89874907548E+03  0.11012509245E+04  0.63639900855E+03 0.  0.
         13    1    3    3    0    0 -0.95791532042E+02  0.27439215600E+03  0.67355750212E+03  0.73358488367E+03  0.00000000000E+00 0. -1.
          2    1    3    3  501    0  0.95791532042E+02 -0.27439215600E+03  0.22519157336E+03  0.36766604085E+03  0.00000000000E+00 0. -1.
<mgrwt>
<rscale>  0 0.63639901E+03</rscale>
<asrwt>0</asrwt>
<pdfrwt beam="1">0</pdfrwt>
<pdfrwt beam="2">  1        2 0.36818596E+00 0.63639901E+03</pdfrwt>
<totfact> 0.52292867E+00</totfact>
</mgrwt>
</event>
<event>
 5    1  0.2343702E-004  0.6621968E+03  0.7818608E-02  0.9784158E-01
         13   -1    0    0    0    0  0.00000000000E+00  0.00000000000E+00  0.10000000000E+04  0.10000000000E+04  0.00000000000E+00 0. -1.
          2   -1    0    0  501    0 -0.00000000000E+00 -0.00000000000E+00 -0.10962615800E+03  0.10962615800E+03  0.00000000000E+00 0. -1.
    9000006    2    1    2  501    0  0.00000000000E+00  0.00000000000E+00  0.89037384200E+03  0.11096261580E+04  0.66219682271E+03 0.  0.
         13    1    3    3    0    0  0.14683837971E+03  0.23265821506E+03  0.13650424181E+03  0.30712336743E+03  0.00000000000E+00 0. -1.
          2    1    3    3  501    0 -0.14683837971E+03 -0.23265821506E+03  0.75386960018E+03  0.80250279057E+03  0.00000000000E+00 0. -1.
<mgrwt>
<rscale>  0 0.66219682E+03</rscale>
<asrwt>0</asrwt>
<pdfrwt beam="1">0</pdfrwt>
<pdfrwt beam="2">  1        2 0.39864142E+00 0.66219682E+03</pdfrwt>
<totfact> 0.40259562E+00</totfact>
</mgrwt>
</event>
<event>
 5    1  0.2343702E-004  0.6479187E+03  0.7818608E-02  0.9810692E-01
         13   -1    0    0    0    0  0.00000000000E+00  0.00000000000E+00  0.10000000000E+04  0.10000000000E+04  0.00000000000E+00 0. -1.
          2   -1    0    0  501    0 -0.00000000000E+00 -0.00000000000E+00 -0.10494966288E+03  0.10494966288E+03  0.00000000000E+00 0. -1.
    9000006    2    1    2  501    0  0.00000000000E+00  0.00000000000E+00  0.89505033712E+03  0.11049496629E+04  0.64791870749E+03 0.  0.
         13    1    3    3    0    0  0.28432620611E+03 -0.76562211247E+02  0.21716268587E+03  0.36587264971E+03  0.00000000000E+00 0. -1.
          2    1    3    3  501    0 -0.28432620611E+03  0.76562211247E+02  0.67788765125E+03  0.73907701317E+03  0.00000000000E+00 0. -1.
<mgrwt>
<rscale>  0 0.64791871E+03</rscale>
<asrwt>0</asrwt>
<pdfrwt beam="1">0</pdfrwt>
<pdfrwt beam="2">  1        2 0.38163594E+00 0.64791871E+03</pdfrwt>
<totfact> 0.46624989E+00</totfact>
</mgrwt>
</event>
<event>
 5    1  0.2343702E-004  0.6529149E+03  0.7818608E-02  0.9801325E-01
         13   -1    0    0    0    0  0.00000000000E+00  0.00000000000E+00  0.10000000000E+04  0.10000000000E+04  0.00000000000E+00 0. -1.
          2   -1    0    0  501    0 -0.00000000000E+00 -0.00000000000E+00 -0.10657448238E+03  0.10657448238E+03  0.00000000000E+00 0. -1.
    9000006    2    1    2  501    0  0.00000000000E+00  0.00000000000E+00  0.89342551762E+03  0.11065744824E+04  0.65291494816E+03 0.  0.
         13    1    3    3    0    0  0.24948105656E+03  0.14105450863E+03  0.18177080051E+03  0.33937854367E+03  0.00000000000E+00 0. -1.
          4    1    3    3  501    0 -0.24948105656E+03 -0.14105450863E+03  0.71165471711E+03  0.76719593871E+03  0.00000000000E+00 0. -1.
<mgrwt>
<rscale>  0 0.65291495E+03</rscale>
<asrwt>0</asrwt>
<pdfrwt beam="1">0</pdfrwt>
<pdfrwt beam="2">  1        2 0.38754439E+00 0.65291495E+03</pdfrwt>
<totfact> 0.44316987E+00</totfact>
</mgrwt>
</event>
<event>
 5    1  0.2343702E-004  0.6563867E+03  0.7818608E-02  0.9794868E-01
         13   -1    0    0    0    0  0.00000000000E+00  0.00000000000E+00  0.10000000000E+04  0.10000000000E+04  0.00000000000E+00 0. -1.
          2   -1    0    0  501    0 -0.00000000000E+00 -0.00000000000E+00 -0.10771086915E+03  0.10771086915E+03  0.00000000000E+00 0. -1.
    9000006    2    1    2  501    0  0.00000000000E+00  0.00000000000E+00  0.89228913085E+03  0.11077108691E+04  0.65638668222E+03 0.  0.
         13    1    3    3    0    0  0.17766013544E+03  0.24079086727E+03  0.67360940998E+03  0.73708412186E+03  0.00000000000E+00 0. -1.
          2    1    3    3  501    0 -0.17766013544E+03 -0.24079086727E+03  0.21867972088E+03  0.37062674729E+03  0.00000000000E+00 0. -1.
<mgrwt>
<rscale>  0 0.65638668E+03</rscale>
<asrwt>0</asrwt>
<pdfrwt beam="1">0</pdfrwt>
<pdfrwt beam="2">  1        2 0.39167671E+00 0.65638668E+03</pdfrwt>
<totfact> 0.42764815E+00</totfact>
</mgrwt>
</event>
<event>
 5    1  0.2343702E-004  0.6534712E+03  0.7818608E-02  0.9800288E-01
         13   -1    0    0    0    0  0.00000000000E+00  0.00000000000E+00  0.10000000000E+04  0.10000000000E+04  0.00000000000E+00 0. -1.
          2   -1    0    0  501    0 -0.00000000000E+00 -0.00000000000E+00 -0.10675613654E+03  0.10675613654E+03  0.00000000000E+00 0. -1.
    9000006    2    1    2  501    0  0.00000000000E+00  0.00000000000E+00  0.89324386346E+03  0.11067561365E+04  0.65347115174E+03 0.  0.
         13    1    3    3    0    0  0.78788318419E+02 -0.30039522575E+03  0.27464068699E+03  0.41457496032E+03  0.00000000000E+00 0. -1.
          2    1    3    3  501    0 -0.78788318419E+02  0.30039522575E+03  0.61860317647E+03  0.69218117622E+03  0.00000000000E+00 0. -1.
<mgrwt>
<rscale>  0 0.65347115E+03</rscale>
<asrwt>0</asrwt>
<pdfrwt beam="1">0</pdfrwt>
<pdfrwt beam="2">  1        2 0.38820495E+00 0.65347115E+03</pdfrwt>
<totfact> 0.44065497E+00</totfact>
</mgrwt>
</event>
<event>
 5    1  0.2343702E-004  0.6310443E+03  0.7818608E-02  0.9843013E-01
         13   -1    0    0    0    0  0.00000000000E+00  0.00000000000E+00  0.10000000000E+04  0.10000000000E+04  0.00000000000E+00 0. -1.
          2   -1    0    0  501    0 -0.00000000000E+00 -0.00000000000E+00 -0.99554232298E+02  0.99554232298E+02  0.00000000000E+00 0. -1.
    9000006    2    1    2  501    0  0.00000000000E+00  0.00000000000E+00  0.90044576770E+03  0.10995542323E+04  0.63104431634E+03 0.  0.
         13    1    3    3    0    0  0.13471378945E+03  0.90466667332E+02 -0.21273329674E+02  0.16365994477E+03  0.00000000000E+00 0. -1.
          2    1    3    3  501    0 -0.13471378945E+03 -0.90466667332E+02  0.92171909738E+03  0.93589428753E+03  0.00000000000E+00 0. -1.
<mgrwt>
<rscale>  0 0.63104432E+03</rscale>
<asrwt>0</asrwt>
<pdfrwt beam="1">0</pdfrwt>
<pdfrwt beam="2">  1        2 0.36201615E+00 0.63104432E+03</pdfrwt>
<totfact> 0.55098454E+00</totfact>
</mgrwt>
</event>
<event>
 5    1  0.2343702E-004  0.6550286E+03  0.7818608E-02  0.9797389E-01
         13   -1    0    0    0    0  0.00000000000E+00  0.00000000000E+00  0.10000000000E+04  0.10000000000E+04  0.00000000000E+00 0. -1.
          2   -1    0    0  501    0 -0.00000000000E+00 -0.00000000000E+00 -0.10726563299E+03  0.10726563299E+03  0.00000000000E+00 0. -1.
    9000006    2    1    2  501    0  0.00000000000E+00  0.00000000000E+00  0.89273436701E+03  0.11072656330E+04  0.65502864973E+03 0.  0.
         13    1    3    3    0    0  0.22698301213E+03 -0.97712996789E+02  0.83041470733E+02  0.26070098465E+03  0.00000000000E+00 0. -1.
          4    1    3    3  501    0 -0.22698301213E+03  0.97712996789E+02  0.80969289628E+03  0.84656464834E+03  0.00000000000E+00 0. -1.
<mgrwt>
<rscale>  0 0.65502865E+03</rscale>
<asrwt>0</asrwt>
<pdfrwt beam="1">0</pdfrwt>
<pdfrwt beam="2">  1        2 0.39005767E+00 0.65502865E+03</pdfrwt>
<totfact> 0.43367002E+00</totfact>
</mgrwt>
</event>
<event>
 5    1  0.2343702E-004  0.6558053E+03  0.7818608E-02  0.9795947E-01
         13   -1    0    0    0    0  0.00000000000E+00  0.00000000000E+00  0.10000000000E+04  0.10000000000E+04  0.00000000000E+00 0. -1.
          2   -1    0    0  501    0 -0.00000000000E+00 -0.00000000000E+00 -0.10752014732E+03  0.10752014732E+03  0.00000000000E+00 0. -1.
    9000006    2    1    2  501    0  0.00000000000E+00  0.00000000000E+00  0.89247985268E+03  0.11075201473E+04  0.65580529830E+03 0.  0.
         13    1    3    3    0    0  0.20955381406E+03  0.23257421608E+03  0.28149305583E+03  0.42100107773E+03  0.00000000000E+00 0. -1.
          2    1    3    3  501    0 -0.20955381406E+03 -0.23257421608E+03  0.61098679685E+03  0.68651906959E+03  0.00000000000E+00 0. -1.
<mgrwt>
<rscale>  0 0.65580530E+03</rscale>
<asrwt>0</asrwt>
<pdfrwt beam="1">0</pdfrwt>
<pdfrwt beam="2">  1        2 0.39098318E+00 0.65580530E+03</pdfrwt>
<totfact> 0.43021837E+00</totfact>
</mgrwt>
</event>
<event>
 5    1  0.2343702E-004  0.5405595E+03  0.7818608E-02  0.1003703E+00
         13   -1    0    0    0    0  0.00000000000E+00  0.00000000000E+00  0.10000000000E+04  0.10000000000E+04  0.00000000000E+00 0. -1.
          2   -1    0    0  501    0 -0.00000000000E+00 -0.00000000000E+00 -0.73051131979E+02  0.73051131979E+02  0.00000000000E+00 0. -1.
    9000006    2    1    2  501    0  0.00000000000E+00  0.00000000000E+00  0.92694886802E+03  0.10730511320E+04  0.54055945826E+03 0.  0.
         13    1    3    3    0    0  0.20721727879E+03  0.12754995214E+01  0.11901668272E+03  0.23896777669E+03  0.00000000000E+00 0. -1.
          2    1    3    3  501    0 -0.20721727879E+03 -0.12754995214E+01  0.80793218530E+03  0.83408335529E+03  0.00000000000E+00 0. -1.
<mgrwt>
<rscale>  0 0.54055946E+03</rscale>
<asrwt>0</asrwt>
<pdfrwt beam="1">0</pdfrwt>
<pdfrwt beam="2">  1        2 0.26564104E+00 0.54055946E+03</pdfrwt>
<totfact> 0.12250369E+01</totfact>
</mgrwt>
</event>
<event>
 5    1  0.2343702E-004  0.6417307E+03  0.7818608E-02  0.9822421E-01
         13   -1    0    0    0    0  0.00000000000E+00  0.00000000000E+00  0.10000000000E+04  0.10000000000E+04  0.00000000000E+00 0. -1.
          2   -1    0    0  501    0 -0.00000000000E+00 -0.00000000000E+00 -0.10295455701E+03  0.10295455701E+03  0.00000000000E+00 0. -1.
    9000006    2    1    2  501    0  0.00000000000E+00  0.00000000000E+00  0.89704544299E+03  0.11029545570E+04  0.64173065068E+03 0.  0.
         13    1    3    3    0    0 -0.17439148474E+03  0.22134547963E+03  0.71226820908E+03  0.76598447306E+03  0.00000000000E+00 0. -1.
          4    1    3    3  501    0  0.17439148474E+03 -0.22134547963E+03  0.18477723392E+03  0.33697008395E+03  0.00000000000E+00 0. -1.
<mgrwt>
<rscale>  0 0.64173065E+03</rscale>
<asrwt>0</asrwt>
<pdfrwt beam="1">0</pdfrwt>
<pdfrwt beam="2">  1        2 0.37438100E+00 0.64173065E+03</pdfrwt>
<totfact> 0.49608279E+00</totfact>
</mgrwt>
</event>
<event>
 5    1  0.2343702E-004  0.6545885E+03  0.7818608E-02  0.9798207E-01
         13   -1    0    0    0    0  0.00000000000E+00  0.00000000000E+00  0.10000000000E+04  0.10000000000E+04  0.00000000000E+00 0. -1.
          2   -1    0    0  501    0 -0.00000000000E+00 -0.00000000000E+00 -0.10712152355E+03  0.10712152355E+03  0.00000000000E+00 0. -1.
    9000006    2    1    2  501    0  0.00000000000E+00  0.00000000000E+00  0.89287847645E+03  0.11071215236E+04  0.65458849227E+03 0.  0.
         13    1    3    3    0    0 -0.15193551625E+03  0.21414885206E+03  0.77690772692E+03  0.82007911086E+03  0.00000000000E+00 0. -1.
          4    1    3    3  501    0  0.15193551625E+03 -0.21414885206E+03  0.11597074953E+03  0.28704241269E+03  0.00000000000E+00 0. -1.
<mgrwt>
<rscale>  0 0.65458849E+03</rscale>
<asrwt>0</asrwt>
<pdfrwt beam="1">0</pdfrwt>
<pdfrwt beam="2">  1        2 0.38953363E+00 0.65458849E+03</pdfrwt>
<totfact> 0.43563547E+00</totfact>
</mgrwt>
</event>
<event>
 5    1  0.2343702E-004  0.6553791E+03  0.7818608E-02  0.9796738E-01
         13   -1    0    0    0    0  0.00000000000E+00  0.00000000000E+00  0.10000000000E+04  0.10000000000E+04  0.00000000000E+00 0. -1.
          2   -1    0    0  501    0 -0.00000000000E+00 -0.00000000000E+00 -0.10738045421E+03  0.10738045421E+03  0.00000000000E+00 0. -1.
    9000006    2    1    2  501    0  0.00000000000E+00  0.00000000000E+00  0.89261954579E+03  0.11073804542E+04  0.65537913976E+03 0.  0.
         13    1    3    3    0    0  0.39814916420E+02  0.14732539371E+02  0.99533376473E+03  0.99623871562E+03  0.00000000000E+00 0. -1.
          4    1    3    3  501    0 -0.39814916420E+02 -0.14732539371E+02 -0.10271421894E+03  0.11114173859E+03  0.00000000000E+00 0. -1.
<mgrwt>
<rscale>  0 0.65537914E+03</rscale>
<asrwt>0</asrwt>
<pdfrwt beam="1">0</pdfrwt>
<pdfrwt beam="2">  1        2 0.39047520E+00 0.65537914E+03</pdfrwt>
<totfact> 0.43210976E+00</totfact>
</mgrwt>
</event>
<event>
 5    1  0.2343702E-004  0.6460313E+03  0.7818608E-02  0.9814255E-01
         13   -1    0    0    0    0  0.00000000000E+00  0.00000000000E+00  0.10000000000E+04  0.10000000000E+04  0.00000000000E+00 0. -1.
          2   -1    0    0  501    0 -0.00000000000E+00 -0.00000000000E+00 -0.10433911309E+03  0.10433911309E+03  0.00000000000E+00 0. -1.
    9000006    2    1    2  501    0  0.00000000000E+00  0.00000000000E+00  0.89566088691E+03  0.11043391131E+04  0.64603130911E+03 0.  0.
         13    1    3    3    0    0 -0.20526789455E+03  0.33093495431E+02  0.87040326939E+03  0.89489213838E+03  0.00000000000E+00 0. -1.
          4    1    3    3  501    0  0.20526789455E+03 -0.33093495431E+02  0.25257617527E+02  0.20944697471E+03  0.00000000000E+00 0. -1.
<mgrwt>
<rscale>  0 0.64603131E+03</rscale>
<asrwt>0</asrwt>
<pdfrwt beam="1">0</pdfrwt>
<pdfrwt beam="2">  1        2 0.37941576E+00 0.64603131E+03</pdfrwt>
<totfact> 0.47520093E+00</totfact>
</mgrwt>
</event>
<event>
 5    1  0.2343702E-004  0.6306990E+03  0.7818608E-02  0.9843686E-01
         13   -1    0    0    0    0  0.00000000000E+00  0.00000000000E+00  0.10000000000E+04  0.10000000000E+04  0.00000000000E+00 0. -1.
          2   -1    0    0  501    0 -0.00000000000E+00 -0.00000000000E+00 -0.99445297423E+02  0.99445297423E+02  0.00000000000E+00 0. -1.
    9000006    2    1    2  501    0  0.00000000000E+00  0.00000000000E+00  0.90055470258E+03  0.10994452974E+04  0.63069896915E+03 0.  0.
         13    1    3    3    0    0  0.78956827668E+02 -0.18647790011E+03  0.87167864847E+03  0.89489209074E+03  0.00000000000E+00 0. -1.
          4    1    3    3  501    0 -0.78956827668E+02  0.18647790011E+03  0.28876054108E+02  0.20455320669E+03  0.00000000000E+00 0. -1.
<mgrwt>
<rscale>  0 0.63069897E+03</rscale>
<asrwt>0</asrwt>
<pdfrwt beam="1">0</pdfrwt>
<pdfrwt beam="2">  1        2 0.36162003E+00 0.63069897E+03</pdfrwt>
<totfact> 0.55283236E+00</totfact>
</mgrwt>
</event>
<event>
 5    1  0.2343702E-004  0.6488622E+03  0.7818608E-02  0.9808916E-01
         13   -1    0    0    0    0  0.00000000000E+00  0.00000000000E+00  0.10000000000E+04  0.10000000000E+04  0.00000000000E+00 0. -1.
          2   -1    0    0  501    0 -0.00000000000E+00 -0.00000000000E+00 -0.10525554339E+03  0.10525554339E+03  0.00000000000E+00 0. -1.
    9000006    2    1    2  501    0  0.00000000000E+00  0.00000000000E+00  0.89474445661E+03  0.11052555434E+04  0.64886221463E+03 0.  0.
         13    1    3    3    0    0  0.19608030991E+03 -0.20920015697E+03  0.18879931811E+03  0.34330362091E+03  0.00000000000E+00 0. -1.
          4    1    3    3  501    0 -0.19608030991E+03  0.20920015697E+03  0.70594513850E+03  0.76195192249E+03  0.00000000000E+00 0. -1.
<mgrwt>
<rscale>  0 0.64886221E+03</rscale>
<asrwt>0</asrwt>
<pdfrwt beam="1">0</pdfrwt>
<pdfrwt beam="2">  1        2 0.38274824E+00 0.64886221E+03</pdfrwt>
<totfact> 0.46182337E+00</totfact>
</mgrwt>
</event>
<event>
 5    1  0.2343702E-004  0.6662122E+03  0.7818608E-02  0.9776825E-01
         13   -1    0    0    0    0  0.00000000000E+00  0.00000000000E+00  0.10000000000E+04  0.10000000000E+04  0.00000000000E+00 0. -1.
          2   -1    0    0  501    0 -0.00000000000E+00 -0.00000000000E+00 -0.11095966150E+03  0.11095966150E+03  0.00000000000E+00 0. -1.
    9000006    2    1    2  501    0  0.00000000000E+00  0.00000000000E+00  0.88904033850E+03  0.11109596615E+04  0.66621216289E+03 0.  0.
         13    1    3    3    0    0  0.11843258049E+03  0.29794974244E+03  0.59515075023E+03  0.67602125754E+03  0.00000000000E+00 0. -1.
          2    1    3    3  501    0 -0.11843258049E+03 -0.29794974244E+03  0.29388958827E+03  0.43493840396E+03  0.00000000000E+00 0. -1.
<mgrwt>
<rscale>  0 0.66621216E+03</rscale>
<asrwt>0</asrwt>
<pdfrwt beam="1">0</pdfrwt>
<pdfrwt beam="2">  1        2 0.40349053E+00 0.66621216E+03</pdfrwt>
<totfact> 0.38594115E+00</totfact>
</mgrwt>
</event>
<event>
 5    1  0.2343702E-004  0.6477255E+03  0.7818608E-02  0.9811057E-01
         13   -1    0    0    0    0  0.00000000000E+00  0.00000000000E+00  0.10000000000E+04  0.10000000000E+04  0.00000000000E+00 0. -1.
          2   -1    0    0  501    0 -0.00000000000E+00 -0.00000000000E+00 -0.10488707184E+03  0.10488707184E+03  0.00000000000E+00 0. -1.
    9000006    2    1    2  501    0  0.00000000000E+00  0.00000000000E+00  0.89511292816E+03  0.11048870718E+04  0.64772547221E+03 0.  0.
         13    1    3    3    0    0 -0.23956977294E+03 -0.92464711668E+02  0.78418069150E+03  0.82515620093E+03  0.00000000000E+00 0. -1.
          2    1    3    3  501    0  0.23956977294E+03  0.92464711668E+02  0.11093223666E+03  0.27973087091E+03  0.00000000000E+00 0. -1.
<mgrwt>
<rscale>  0 0.64772547E+03</rscale>
<asrwt>0</asrwt>
<pdfrwt beam="1">0</pdfrwt>
<pdfrwt beam="2">  1        2 0.38140834E+00 0.64772547E+03</pdfrwt>
<totfact> 0.46716040E+00</totfact>
</mgrwt>
</event>
<event>
 5    1  0.2343702E-004  0.6462826E+03  0.7818608E-02  0.9813780E-01
         13   -1    0    0    0    0  0.00000000000E+00  0.00000000000E+00  0.10000000000E+04  0.10000000000E+04  0.00000000000E+00 0. -1.
          2   -1    0    0  501    0 -0.00000000000E+00 -0.00000000000E+00 -0.10442028888E+03  0.10442028888E+03  0.00000000000E+00 0. -1.
    9000006    2    1    2  501    0  0.00000000000E+00  0.00000000000E+00  0.89557971112E+03  0.11044202889E+04  0.64628256632E+03 0.  0.
         13    1    3    3    0    0  0.23991305868E+03 -0.53787151943E+02  0.89458337357E+02  0.26163739710E+03  0.00000000000E+00 0. -1.
          4    1    3    3  501    0 -0.23991305868E+03  0.53787151943E+02  0.80612137376E+03  0.84278289178E+03  0.00000000000E+00 0. -1.
<mgrwt>
<rscale>  0 0.64628257E+03</rscale>
<asrwt>0</asrwt>
<pdfrwt beam="1">0</pdfrwt>
<pdfrwt beam="2">  1        2 0.37971094E+00 0.64628257E+03</pdfrwt>
<totfact> 0.47400190E+00</totfact>
</mgrwt>
</event>
<event>
 5    1  0.2343702E-004  0.6423190E+03  0.7818608E-02  0.9821300E-01
         13   -1    0    0    0    0  0.00000000000E+00  0.00000000000E+00  0.10000000000E+04  0.10000000000E+04  0.00000000000E+00 0. -1.
          2   -1    0    0  501    0 -0.00000000000E+00 -0.00000000000E+00 -0.10314343448E+03  0.10314343448E+03  0.00000000000E+00 0. -1.
    9000006    2    1    2  501    0  0.00000000000E+00  0.00000000000E+00  0.89685656552E+03  0.11031434345E+04  0.64231903125E+03 0.  0.
         13    1    3    3    0    0  0.16074391969E+03 -0.24146325667E+03  0.68516285182E+03  0.74403712646E+03  0.00000000000E+00 0. -1.
          4    1    3    3  501    0 -0.16074391969E+03  0.24146325667E+03  0.21169371370E+03  0.35910630802E+03  0.00000000000E+00 0. -1.
<mgrwt>
<rscale>  0 0.64231903E+03</rscale>
<asrwt>0</asrwt>
<pdfrwt beam="1">0</pdfrwt>
<pdfrwt beam="2">  1        2 0.37506783E+00 0.64231903E+03</pdfrwt>
<totfact> 0.49318546E+00</totfact>
</mgrwt>
</event>
<event>
 5    1  0.2343702E-004  0.6371701E+03  0.7818608E-02  0.9831156E-01
         13   -1    0    0    0    0  0.00000000000E+00  0.00000000000E+00  0.10000000000E+04  0.10000000000E+04  0.00000000000E+00 0. -1.
          2   -1    0    0  501    0 -0.00000000000E+00 -0.00000000000E+00 -0.10149644517E+03  0.10149644517E+03  0.00000000000E+00 0. -1.
    9000006    2    1    2  501    0  0.00000000000E+00  0.00000000000E+00  0.89850355483E+03  0.11014964452E+04  0.63717013481E+03 0.  0.
         13    1    3    3    0    0  0.28268664882E+03 -0.10283610088E+03  0.63064050947E+03  0.69870913637E+03  0.00000000000E+00 0. -1.
          4    1    3    3  501    0 -0.28268664882E+03  0.10283610088E+03  0.26786304536E+03  0.40278730880E+03  0.00000000000E+00 0. -1.
<mgrwt>
<rscale>  0 0.63717013E+03</rscale>
<asrwt>0</asrwt>
<pdfrwt beam="1">0</pdfrwt>
<pdfrwt beam="2">  1        2 0.36907876E+00 0.63717013E+03</pdfrwt>
<totfact> 0.51897938E+00</totfact>
</mgrwt>
</event>
<event>
 5    1  0.2343702E-004  0.6598144E+03  0.7818608E-02  0.9788536E-01
         13   -1    0    0    0    0  0.00000000000E+00  0.00000000000E+00  0.10000000000E+04  0.10000000000E+04  0.00000000000E+00 0. -1.
          2   -1    0    0  501    0 -0.00000000000E+00 -0.00000000000E+00 -0.10883874887E+03  0.10883874887E+03  0.00000000000E+00 0. -1.
    9000006    2    1    2  501    0  0.00000000000E+00  0.00000000000E+00  0.89116125113E+03  0.11088387489E+04  0.65981436441E+03 0.  0.
         13    1    3    3    0    0 -0.30264836575E+03 -0.41445270840E+02  0.23618745933E+03  0.38613243805E+03  0.00000000000E+00 0. -1.
          2    1    3    3  501    0  0.30264836575E+03  0.41445270840E+02  0.65497379180E+03  0.72270631082E+03  0.00000000000E+00 0. -1.
<mgrwt>
<rscale>  0 0.65981436E+03</rscale>
<asrwt>0</asrwt>
<pdfrwt beam="1">0</pdfrwt>
<pdfrwt beam="2">  1        2 0.39577810E+00 0.65981436E+03</pdfrwt>
<totfact> 0.41273022E+00</totfact>
</mgrwt>
</event>
<event>
 5    1  0.2343702E-004  0.6682637E+03  0.7818608E-02  0.9773100E-01
         13   -1    0    0    0    0  0.00000000000E+00  0.00000000000E+00  0.10000000000E+04  0.10000000000E+04  0.00000000000E+00 0. -1.
          2   -1    0    0  501    0 -0.00000000000E+00 -0.00000000000E+00 -0.11164407719E+03  0.11164407719E+03  0.00000000000E+00 0. -1.
    9000006    2    1    2  501    0  0.00000000000E+00  0.00000000000E+00  0.88835592281E+03  0.11116440772E+04  0.66826365214E+03 0.  0.
         13    1    3    3    0    0 -0.32105282503E+03  0.90318509448E+02  0.41042414356E+03  0.52884811357E+03  0.00000000000E+00 0. -1.
          2    1    3    3  501    0  0.32105282503E+03 -0.90318509448E+02  0.47793177925E+03  0.58279596363E+03  0.00000000000E+00 0. -1.
<mgrwt>
<rscale>  0 0.66826365E+03</rscale>
<asrwt>0</asrwt>
<pdfrwt beam="1">0</pdfrwt>
<pdfrwt beam="2">  1        2 0.40597932E+00 0.66826365E+03</pdfrwt>
<totfact> 0.37763546E+00</totfact>
</mgrwt>
</event>
<event>
 5    1  0.2343702E-004  0.6462927E+03  0.7818608E-02  0.9813761E-01
         13   -1    0    0    0    0  0.00000000000E+00  0.00000000000E+00  0.10000000000E+04  0.10000000000E+04  0.00000000000E+00 0. -1.
          2   -1    0    0  501    0 -0.00000000000E+00 -0.00000000000E+00 -0.10442355068E+03  0.10442355068E+03  0.00000000000E+00 0. -1.
    9000006    2    1    2  501    0  0.00000000000E+00  0.00000000000E+00  0.89557644932E+03  0.11044235507E+04  0.64629266027E+03 0.  0.
         13    1    3    3    0    0  0.31063910307E+02 -0.23116774100E+03  0.82997753678E+03  0.86212887816E+03  0.00000000000E+00 0. -1.
          4    1    3    3  501    0 -0.31063910307E+02  0.23116774100E+03  0.65598912539E+02  0.24229467252E+03  0.00000000000E+00 0. -1.
<mgrwt>
<rscale>  0 0.64629266E+03</rscale>
<asrwt>0</asrwt>
<pdfrwt beam="1">0</pdfrwt>
<pdfrwt beam="2">  1        2 0.37972280E+00 0.64629266E+03</pdfrwt>
<totfact> 0.47395378E+00</totfact>
</mgrwt>
</event>
<event>
 5    1  0.2343702E-004  0.5964234E+03  0.7818608E-02  0.9912854E-01
         13   -1    0    0    0    0  0.00000000000E+00  0.00000000000E+00  0.10000000000E+04  0.10000000000E+04  0.00000000000E+00 0. -1.
          2   -1    0    0  501    0 -0.00000000000E+00 -0.00000000000E+00 -0.88930213642E+02  0.88930213642E+02  0.00000000000E+00 0. -1.
    9000006    2    1    2  501    0  0.00000000000E+00  0.00000000000E+00  0.91106978636E+03  0.10889302136E+04  0.59642338533E+03 0.  0.
         13    1    3    3    0    0  0.15690909457E+03 -0.11837521410E+03  0.86499979153E+03  0.88705005193E+03  0.00000000000E+00 0. -1.
          4    1    3    3  501    0 -0.15690909457E+03  0.11837521410E+03  0.46069994825E+02  0.20188016172E+03  0.00000000000E+00 0. -1.
<mgrwt>
<rscale>  0 0.59642339E+03</rscale>
<asrwt>0</asrwt>
<pdfrwt beam="1">0</pdfrwt>
<pdfrwt beam="2">  1        2 0.32338328E+00 0.59642339E+03</pdfrwt>
<totfact> 0.76108980E+00</totfact>
</mgrwt>
</event>
<event>
 5    1  0.2343702E-004  0.6582858E+03  0.7818608E-02  0.9791355E-01
         13   -1    0    0    0    0  0.00000000000E+00  0.00000000000E+00  0.10000000000E+04  0.10000000000E+04  0.00000000000E+00 0. -1.
          2   -1    0    0  501    0 -0.00000000000E+00 -0.00000000000E+00 -0.10833503221E+03  0.10833503221E+03  0.00000000000E+00 0. -1.
    9000006    2    1    2  501    0  0.00000000000E+00  0.00000000000E+00  0.89166496779E+03  0.11083350322E+04  0.65828575013E+03 0.  0.
         13    1    3    3    0    0  0.52598394443E+02 -0.25688770076E+03  0.11088334416E+03  0.28469808203E+03  0.00000000000E+00 0. -1.
          4    1    3    3  501    0 -0.52598394443E+02  0.25688770076E+03  0.78078162363E+03  0.82363695018E+03  0.00000000000E+00 0. -1.
<mgrwt>
<rscale>  0 0.65828575E+03</rscale>
<asrwt>0</asrwt>
<pdfrwt beam="1">0</pdfrwt>
<pdfrwt beam="2">  1        2 0.39394640E+00 0.65828575E+03</pdfrwt>
<totfact> 0.41933335E+00</totfact>
</mgrwt>
</event>
<event>
 5    1  0.2343702E-004  0.6130512E+03  0.7818608E-02  0.9878693E-01
         13   -1    0    0    0    0  0.00000000000E+00  0.00000000000E+00  0.10000000000E+04  0.10000000000E+04  0.00000000000E+00 0. -1.
          2   -1    0    0  501    0 -0.00000000000E+00 -0.00000000000E+00 -0.93957930071E+02  0.93957930071E+02  0.00000000000E+00 0. -1.
    9000006    2    1    2  501    0  0.00000000000E+00  0.00000000000E+00  0.90604206993E+03  0.10939579301E+04  0.61305115634E+03 0.  0.
         13    1    3    3    0    0  0.58250311569E+02 -0.29172703430E+03  0.32116289753E+03  0.43777090823E+03  0.00000000000E+00 0. -1.
          4    1    3    3  501    0 -0.58250311569E+02  0.29172703430E+03  0.58487917240E+03  0.65618702185E+03  0.00000000000E+00 0. -1.
<mgrwt>
<rscale>  0 0.61305116E+03</rscale>
<asrwt>0</asrwt>
<pdfrwt beam="1">0</pdfrwt>
<pdfrwt beam="2">  1        2 0.34166592E+00 0.61305116E+03</pdfrwt>
<totfact> 0.65371728E+00</totfact>
</mgrwt>
</event>
<event>
 5    1  0.2343702E-004  0.6522861E+03  0.7818608E-02  0.9802499E-01
         13   -1    0    0    0    0  0.00000000000E+00  0.00000000000E+00  0.10000000000E+04  0.10000000000E+04  0.00000000000E+00 0. -1.
          2   -1    0    0  501    0 -0.00000000000E+00 -0.00000000000E+00 -0.10636927970E+03  0.10636927970E+03  0.00000000000E+00 0. -1.
    9000006    2    1    2  501    0  0.00000000000E+00  0.00000000000E+00  0.89363072030E+03  0.11063692797E+04  0.65228607130E+03 0.  0.
         13    1    3    3    0    0  0.23719381700E+03  0.22137458241E+03  0.50311261284E+03  0.59865675788E+03  0.00000000000E+00 0. -1.
          2    1    3    3  501    0 -0.23719381700E+03 -0.22137458241E+03  0.39051810746E+03  0.50771252182E+03  0.00000000000E+00 0. -1.
<mgrwt>
<rscale>  0 0.65228607E+03</rscale>
<asrwt>0</asrwt>
<pdfrwt beam="1">0</pdfrwt>
<pdfrwt beam="2">  1        2 0.38679820E+00 0.65228607E+03</pdfrwt>
<totfact> 0.44602640E+00</totfact>
</mgrwt>
</event>
<event>
 5    1  0.2343702E-004  0.6485807E+03  0.7818608E-02  0.9809446E-01
         13   -1    0    0    0    0  0.00000000000E+00  0.00000000000E+00  0.10000000000E+04  0.10000000000E+04  0.00000000000E+00 0. -1.
          2   -1    0    0  501    0 -0.00000000000E+00 -0.00000000000E+00 -0.10516422767E+03  0.10516422767E+03  0.00000000000E+00 0. -1.
    9000006    2    1    2  501    0  0.00000000000E+00  0.00000000000E+00  0.89483577233E+03  0.11051642277E+04  0.64858068942E+03 0.  0.
         13    1    3    3    0    0 -0.14330526216E+03  0.26468280366E+03  0.65310408096E+03  0.71912330325E+03  0.00000000000E+00 0. -1.
          2    1    3    3  501    0  0.14330526216E+03 -0.26468280366E+03  0.24173169137E+03  0.38604092442E+03  0.00000000000E+00 0. -1.
<mgrwt>
<rscale>  0 0.64858069E+03</rscale>
<asrwt>0</asrwt>
<pdfrwt beam="1">0</pdfrwt>
<pdfrwt beam="2">  1        2 0.38241618E+00 0.64858069E+03</pdfrwt>
<totfact> 0.46314082E+00</totfact>
</mgrwt>
</event>
<event>
 5    1  0.2343702E-004  0.6506942E+03  0.7818608E-02  0.9805477E-01
         13   -1    0    0    0    0  0.00000000000E+00  0.00000000000E+00  0.10000000000E+04  0.10000000000E+04  0.00000000000E+00 0. -1.
          2   -1    0    0  501    0 -0.00000000000E+00 -0.00000000000E+00 -0.10585074404E+03  0.10585074404E+03  0.00000000000E+00 0. -1.
    9000006    2    1    2  501    0  0.00000000000E+00  0.00000000000E+00  0.89414925596E+03  0.11058507440E+04  0.65069422632E+03 0.  0.
         13    1    3    3    0    0  0.25301304741E+03  0.20275545006E+03  0.40130270455E+03  0.51591591890E+03  0.00000000000E+00 0. -1.
          4    1    3    3  501    0 -0.25301304741E+03 -0.20275545006E+03  0.49284655140E+03  0.58993482515E+03  0.00000000000E+00 0. -1.
<mgrwt>
<rscale>  0 0.65069423E+03</rscale>
<asrwt>0</asrwt>
<pdfrwt beam="1">0</pdfrwt>
<pdfrwt beam="2">  1        2 0.38491261E+00 0.65069423E+03</pdfrwt>
<totfact> 0.45331918E+00</totfact>
</mgrwt>
</event>
<event>
 5    1  0.2343702E-004  0.6519554E+03  0.7818608E-02  0.9803117E-01
         13   -1    0    0    0    0  0.00000000000E+00  0.00000000000E+00  0.10000000000E+04  0.10000000000E+04  0.00000000000E+00 0. -1.
          2   -1    0    0  501    0 -0.00000000000E+00 -0.00000000000E+00 -0.10626144742E+03  0.10626144742E+03  0.00000000000E+00 0. -1.
    9000006    2    1    2  501    0  0.00000000000E+00  0.00000000000E+00  0.89373855258E+03  0.11062614474E+04  0.65195535867E+03 0.  0.
         13    1    3    3    0    0 -0.28744550675E+03  0.20353740816E+02  0.18829096347E+03  0.34422765874E+03  0.00000000000E+00 0. -1.
          2    1    3    3  501    0  0.28744550675E+03 -0.20353740816E+02  0.70544758910E+03  0.76203378868E+03  0.00000000000E+00 0. -1.
<mgrwt>
<rscale>  0 0.65195536E+03</rscale>
<asrwt>0</asrwt>
<pdfrwt beam="1">0</pdfrwt>
<pdfrwt beam="2">  1        2 0.38640608E+00 0.65195536E+03</pdfrwt>
<totfact> 0.44753416E+00</totfact>
</mgrwt>
</event>
<event>
 5    1  0.2343702E-004  0.6514461E+03  0.7818608E-02  0.9804069E-01
         13   -1    0    0    0    0  0.00000000000E+00  0.00000000000E+00  0.10000000000E+04  0.10000000000E+04  0.00000000000E+00 0. -1.
          2   -1    0    0  501    0 -0.00000000000E+00 -0.00000000000E+00 -0.10609551588E+03  0.10609551588E+03  0.00000000000E+00 0. -1.
    9000006    2    1    2  501    0  0.00000000000E+00  0.00000000000E+00  0.89390448412E+03  0.11060955159E+04  0.65144613247E+03 0.  0.
         13    1    3    3    0    0 -0.27499063160E+03  0.16249209334E+03  0.33860512324E+03  0.46548572196E+03  0.00000000000E+00 0. -1.
          2    1    3    3  501    0  0.27499063160E+03 -0.16249209334E+03  0.55529936088E+03  0.64060979391E+03  0.00000000000E+00 0. -1.
<mgrwt>
<rscale>  0 0.65144613E+03</rscale>
<asrwt>0</asrwt>
<pdfrwt beam="1">0</pdfrwt>
<pdfrwt beam="2">  1        2 0.38580269E+00 0.65144613E+03</pdfrwt>
<totfact> 0.44986331E+00</totfact>
</mgrwt>
</event>
<event>
 5    1  0.2343702E-004  0.6726927E+03  0.7818608E-02  0.9765106E-01
         13   -1    0    0    0    0  0.00000000000E+00  0.00000000000E+00  0.10000000000E+04  0.10000000000E+04  0.00000000000E+00 0. -1.
          2   -1    0    0  501    0 -0.00000000000E+00 -0.00000000000E+00 -0.11312885457E+03  0.11312885457E+03  0.00000000000E+00 0. -1.
    9000006    2    1    2  501    0  0.00000000000E+00  0.00000000000E+00  0.88687114543E+03  0.11131288546E+04  0.67269266257E+03 0.  0.
         13    1    3    3    0    0 -0.29609384118E+03  0.15650181342E+03  0.39204611273E+03  0.51562053381E+03  0.00000000000E+00 0. -1.
          2    1    3    3  501    0  0.29609384118E+03 -0.15650181342E+03  0.49482503270E+03  0.59750832076E+03  0.00000000000E+00 0. -1.
<mgrwt>
<rscale>  0 0.67269266E+03</rscale>
<asrwt>0</asrwt>
<pdfrwt beam="1">0</pdfrwt>
<pdfrwt beam="2">  1        2 0.41137852E+00 0.67269266E+03</pdfrwt>
<totfact> 0.36016398E+00</totfact>
</mgrwt>
</event>
<event>
 5    1  0.2343702E-004  0.6515875E+03  0.7818608E-02  0.9803805E-01
         13   -1    0    0    0    0  0.00000000000E+00  0.00000000000E+00  0.10000000000E+04  0.10000000000E+04  0.00000000000E+00 0. -1.
          2   -1    0    0  501    0 -0.00000000000E+00 -0.00000000000E+00 -0.10614155262E+03  0.10614155262E+03  0.00000000000E+00 0. -1.
    9000006    2    1    2  501    0  0.00000000000E+00  0.00000000000E+00  0.89385844738E+03  0.11061415526E+04  0.65158745420E+03 0.  0.
         13    1    3    3    0    0  0.16994677130E+03  0.47586602562E+01 -0.24862914143E+02  0.17182175189E+03  0.00000000000E+00 0. -1.
          2    1    3    3  501    0 -0.16994677130E+03 -0.47586602562E+01  0.91872136152E+03  0.93431980073E+03  0.00000000000E+00 0. -1.
<mgrwt>
<rscale>  0 0.65158745E+03</rscale>
<asrwt>0</asrwt>
<pdfrwt beam="1">0</pdfrwt>
<pdfrwt beam="2">  1        2 0.38597010E+00 0.65158745E+03</pdfrwt>
<totfact> 0.44921600E+00</totfact>
</mgrwt>
</event>
<event>
 5    1  0.2343702E-004  0.6504962E+03  0.7818608E-02  0.9805849E-01
         13   -1    0    0    0    0  0.00000000000E+00  0.00000000000E+00  0.10000000000E+04  0.10000000000E+04  0.00000000000E+00 0. -1.
          2   -1    0    0  501    0 -0.00000000000E+00 -0.00000000000E+00 -0.10578632785E+03  0.10578632785E+03  0.00000000000E+00 0. -1.
    9000006    2    1    2  501    0  0.00000000000E+00  0.00000000000E+00  0.89421367215E+03  0.11057863278E+04  0.65049620398E+03 0.  0.
         13    1    3    3    0    0 -0.59948735135E+02 -0.31941390191E+03  0.42512359689E+03  0.53511602874E+03  0.00000000000E+00 0. -1.
          2    1    3    3  501    0  0.59948735135E+02  0.31941390191E+03  0.46909007526E+03  0.57067029911E+03  0.00000000000E+00 0. -1.
<mgrwt>
<rscale>  0 0.65049620E+03</rscale>
<asrwt>0</asrwt>
<pdfrwt beam="1">0</pdfrwt>
<pdfrwt beam="2">  1        2 0.38467837E+00 0.65049620E+03</pdfrwt>
<totfact> 0.45423265E+00</totfact>
</mgrwt>
</event>
<event>
 5    1  0.2343702E-004  0.6436163E+03  0.7818608E-02  0.9818832E-01
         13   -1    0    0    0    0  0.00000000000E+00  0.00000000000E+00  0.10000000000E+04  0.10000000000E+04  0.00000000000E+00 0. -1.
          2   -1    0    0  501    0 -0.00000000000E+00 -0.00000000000E+00 -0.10356047302E+03  0.10356047302E+03  0.00000000000E+00 0. -1.
    9000006    2    1    2  501    0  0.00000000000E+00  0.00000000000E+00  0.89643952698E+03  0.11035604730E+04  0.64361626152E+03 0.  0.
         13    1    3    3    0    0 -0.12729550947E+03  0.28505504685E+03  0.58213566316E+03  0.66056222780E+03  0.00000000000E+00 0. -1.
          4    1    3    3  501    0  0.12729550947E+03 -0.28505504685E+03  0.31430386381E+03  0.44299824523E+03  0.00000000000E+00 0. -1.
<mgrwt>
<rscale>  0 0.64361626E+03</rscale>
<asrwt>0</asrwt>
<pdfrwt beam="1">0</pdfrwt>
<pdfrwt beam="2">  1        2 0.37658433E+00 0.64361626E+03</pdfrwt>
<totfact> 0.48684325E+00</totfact>
</mgrwt>
</event>
<event>
 5    1  0.2343702E-004  0.6272504E+03  0.7818608E-02  0.9850429E-01
         13   -1    0    0    0    0  0.00000000000E+00  0.00000000000E+00  0.10000000000E+04  0.10000000000E+04  0.00000000000E+00 0. -1.
          2   -1    0    0  501    0 -0.00000000000E+00 -0.00000000000E+00 -0.98360781502E+02  0.98360781502E+02  0.00000000000E+00 0. -1.
    9000006    2    1    2  501    0  0.00000000000E+00  0.00000000000E+00  0.90163921850E+03  0.10983607815E+04  0.62725044919E+03 0.  0.
         13    1    3    3    0    0  0.36480649008E+02 -0.27499930453E+03  0.19462796428E+03  0.33887386993E+03  0.00000000000E+00 0. -1.
          2    1    3    3  501    0 -0.36480649008E+02  0.27499930453E+03  0.70701125422E+03  0.75948691157E+03  0.00000000000E+00 0. -1.
<mgrwt>
<rscale>  0 0.62725045E+03</rscale>
<asrwt>0</asrwt>
<pdfrwt beam="1">0</pdfrwt>
<pdfrwt beam="2">  1        2 0.35767632E+00 0.62725045E+03</pdfrwt>
<totfact> 0.57154322E+00</totfact>
</mgrwt>
</event>
<event>
 5    1  0.2343702E-004  0.6557724E+03  0.7818608E-02  0.9796008E-01
         13   -1    0    0    0    0  0.00000000000E+00  0.00000000000E+00  0.10000000000E+04  0.10000000000E+04  0.00000000000E+00 0. -1.
          2   -1    0    0  501    0 -0.00000000000E+00 -0.00000000000E+00 -0.10750936653E+03  0.10750936653E+03  0.00000000000E+00 0. -1.
    9000006    2    1    2  501    0  0.00000000000E+00  0.00000000000E+00  0.89249063347E+03  0.11075093665E+04  0.65577241946E+03 0.  0.
         13    1    3    3    0    0  0.10232037795E+03  0.30268375489E+02  0.96985729527E+03  0.97570938680E+03  0.00000000000E+00 0. -1.
          4    1    3    3  501    0 -0.10232037795E+03 -0.30268375489E+02 -0.77366661805E+02  0.13179997973E+03  0.00000000000E+00 0. -1.
<mgrwt>
<rscale>  0 0.65577242E+03</rscale>
<asrwt>0</asrwt>
<pdfrwt beam="1">0</pdfrwt>
<pdfrwt beam="2">  1        2 0.39094398E+00 0.65577242E+03</pdfrwt>
<totfact> 0.43036407E+00</totfact>
</mgrwt>
</event>
<event>
 5    1  0.2343702E-004  0.6421925E+03  0.7818608E-02  0.9821541E-01
         13   -1    0    0    0    0  0.00000000000E+00  0.00000000000E+00  0.10000000000E+04  0.10000000000E+04  0.00000000000E+00 0. -1.
          2   -1    0    0  501    0 -0.00000000000E+00 -0.00000000000E+00 -0.10310279047E+03  0.10310279047E+03  0.00000000000E+00 0. -1.
    9000006    2    1    2  501    0  0.00000000000E+00  0.00000000000E+00  0.89689720953E+03  0.11031027905E+04  0.64219246481E+03 0.  0.
         13    1    3    3    0    0  0.21293622213E+03 -0.23354426960E+02  0.37575487397E+02  0.21748374929E+03  0.00000000000E+00 0. -1.
          4    1    3    3  501    0 -0.21293622213E+03  0.23354426960E+02  0.85932172214E+03  0.88561904117E+03  0.00000000000E+00 0. -1.
<mgrwt>
<rscale>  0 0.64219246E+03</rscale>
<asrwt>0</asrwt>
<pdfrwt beam="1">0</pdfrwt>
<pdfrwt beam="2">  1        2 0.37492003E+00 0.64219246E+03</pdfrwt>
<totfact> 0.49380762E+00</totfact>
</mgrwt>
</event>
<event>
 5    1  0.2343702E-004  0.6724752E+03  0.7818608E-02  0.9765497E-01
         13   -1    0    0    0    0  0.00000000000E+00  0.00000000000E+00  0.10000000000E+04  0.10000000000E+04  0.00000000000E+00 0. -1.
          2   -1    0    0  501    0 -0.00000000000E+00 -0.00000000000E+00 -0.11305572144E+03  0.11305572144E+03  0.00000000000E+00 0. -1.
    9000006    2    1    2  501    0  0.00000000000E+00  0.00000000000E+00  0.88694427856E+03  0.11130557214E+04  0.67247519343E+03 0.  0.
         13    1    3    3    0    0  0.31919893616E+03 -0.79840933166E+02  0.32888054059E+03  0.46521494541E+03  0.00000000000E+00 0. -1.
          2    1    3    3  501    0 -0.31919893616E+03  0.79840933166E+02  0.55806373796E+03  0.64784077603E+03  0.00000000000E+00 0. -1.
<mgrwt>
<rscale>  0 0.67247519E+03</rscale>
<asrwt>0</asrwt>
<pdfrwt beam="1">0</pdfrwt>
<pdfrwt beam="2">  1        2 0.41111258E+00 0.67247519E+03</pdfrwt>
<totfact> 0.36100734E+00</totfact>
</mgrwt>
</event>
<event>
 5    1  0.2343702E-004  0.6848449E+03  0.7818608E-02  0.9743506E-01
         13   -1    0    0    0    0  0.00000000000E+00  0.00000000000E+00  0.10000000000E+04  0.10000000000E+04  0.00000000000E+00 0. -1.
          2   -1    0    0  501    0 -0.00000000000E+00 -0.00000000000E+00 -0.11725312930E+03  0.11725312930E+03  0.00000000000E+00 0. -1.
    9000006    2    1    2  501    0  0.00000000000E+00  0.00000000000E+00  0.88274687070E+03  0.11172531293E+04  0.68484488549E+03 0.  0.
         13    1    3    3    0    0  0.23431941257E+03 -0.18682654844E+03  0.71163120369E+03  0.77215847879E+03  0.00000000000E+00 0. -1.
          2    1    3    3  501    0 -0.23431941257E+03  0.18682654844E+03  0.17111566701E+03  0.34509465050E+03  0.00000000000E+00 0. -1.
<mgrwt>
<rscale>  0 0.68484489E+03</rscale>
<asrwt>0</asrwt>
<pdfrwt beam="1">0</pdfrwt>
<pdfrwt beam="2">  1        2 0.42637591E+00 0.68484489E+03</pdfrwt>
<totfact> 0.31534927E+00</totfact>
</mgrwt>
</event>
<event>
 5    1  0.2343702E-004  0.6413808E+03  0.7818608E-02  0.9823088E-01
         13   -1    0    0    0    0  0.00000000000E+00  0.00000000000E+00  0.10000000000E+04  0.10000000000E+04  0.00000000000E+00 0. -1.
          2   -1    0    0  501    0 -0.00000000000E+00 -0.00000000000E+00 -0.10284232397E+03  0.10284232397E+03  0.00000000000E+00 0. -1.
    9000006    2    1    2  501    0  0.00000000000E+00  0.00000000000E+00  0.89715767603E+03  0.11028423240E+04  0.64138077293E+03 0.  0.
         13    1    3    3    0    0  0.55734870469E+02  0.31564136663E+03  0.46632167492E+03  0.56585488653E+03  0.00000000000E+00 0. -1.
          4    1    3    3  501    0 -0.55734870469E+02 -0.31564136663E+03  0.43083600111E+03  0.53698743744E+03  0.00000000000E+00 0. -1.
<mgrwt>
<rscale>  0 0.64138077E+03</rscale>
<asrwt>0</asrwt>
<pdfrwt beam="1">0</pdfrwt>
<pdfrwt beam="2">  1        2 0.37397288E+00 0.64138077E+03</pdfrwt>
<totfact> 0.49781177E+00</totfact>
</mgrwt>
</event>
<event>
 5    1  0.2343702E-004  0.5594902E+03  0.7818608E-02  0.9993209E-01
         13   -1    0    0    0    0  0.00000000000E+00  0.00000000000E+00  0.10000000000E+04  0.10000000000E+04  0.00000000000E+00 0. -1.
          2   -1    0    0  501    0 -0.00000000000E+00 -0.00000000000E+00 -0.78257314744E+02  0.78257314744E+02  0.00000000000E+00 0. -1.
    9000006    2    1    2  501    0  0.00000000000E+00  0.00000000000E+00  0.92174268526E+03  0.10782573147E+04  0.55949017773E+03 0.  0.
         13    1    3    3    0    0 -0.88019120803E+01 -0.16206275780E+03  0.89998655440E+03  0.91450402363E+03  0.00000000000E+00 0. -1.
          2    1    3    3  501    0  0.88019120803E+01  0.16206275780E+03  0.21756130854E+02  0.16375329112E+03  0.00000000000E+00 0. -1.
<mgrwt>
<rscale>  0 0.55949018E+03</rscale>
<asrwt>0</asrwt>
<pdfrwt beam="1">0</pdfrwt>
<pdfrwt beam="2">  1        2 0.28457265E+00 0.55949018E+03</pdfrwt>
<totfact> 0.10482790E+01</totfact>
</mgrwt>
</event>
<event>
 5    1  0.2343702E-004  0.7006109E+03  0.7818608E-02  0.9716188E-01
         13   -1    0    0    0    0  0.00000000000E+00  0.00000000000E+00  0.10000000000E+04  0.10000000000E+04  0.00000000000E+00 0. -1.
          2   -1    0    0  501    0 -0.00000000000E+00 -0.00000000000E+00 -0.12271389480E+03  0.12271389480E+03  0.00000000000E+00 0. -1.
    9000006    2    1    2  501    0  0.00000000000E+00  0.00000000000E+00  0.87728610520E+03  0.11227138948E+04  0.70061086146E+03 0.  0.
         13    1    3    3    0    0 -0.33090122661E+03  0.36173102746E+02  0.61352464342E+03  0.69800902804E+03  0.00000000000E+00 0. -1.
          2    1    3    3  501    0  0.33090122661E+03 -0.36173102746E+02  0.26376146178E+03  0.42470486676E+03  0.00000000000E+00 0. -1.
<mgrwt>
<rscale>  0 0.70061086E+03</rscale>
<asrwt>0</asrwt>
<pdfrwt beam="1">0</pdfrwt>
<pdfrwt beam="2">  1        2 0.44623329E+00 0.70061086E+03</pdfrwt>
<totfact> 0.26362355E+00</totfact>
</mgrwt>
</event>
<event>
 5    1  0.2343702E-004  0.6439049E+03  0.7818608E-02  0.9818284E-01
         13   -1    0    0    0    0  0.00000000000E+00  0.00000000000E+00  0.10000000000E+04  0.10000000000E+04  0.00000000000E+00 0. -1.
          2   -1    0    0  501    0 -0.00000000000E+00 -0.00000000000E+00 -0.10365338707E+03  0.10365338707E+03  0.00000000000E+00 0. -1.
    9000006    2    1    2  501    0  0.00000000000E+00  0.00000000000E+00  0.89634661293E+03  0.11036533871E+04  0.64390492179E+03 0.  0.
         13    1    3    3    0    0  0.14344885790E+03  0.19396077949E+03  0.81360139129E+03  0.84861391853E+03  0.00000000000E+00 0. -1.
          4    1    3    3  501    0 -0.14344885790E+03 -0.19396077949E+03  0.82745221633E+02  0.25503946854E+03  0.00000000000E+00 0. -1.
<mgrwt>
<rscale>  0 0.64390492E+03</rscale>
<asrwt>0</asrwt>
<pdfrwt beam="1">0</pdfrwt>
<pdfrwt beam="2">  1        2 0.37692220E+00 0.64390492E+03</pdfrwt>
<totfact> 0.48544045E+00</totfact>
</mgrwt>
</event>
<event>
 5    1  0.2343702E-004  0.6467588E+03  0.7818608E-02  0.9812880E-01
         13   -1    0    0    0    0  0.00000000000E+00  0.00000000000E+00  0.10000000000E+04  0.10000000000E+04  0.00000000000E+00 0. -1.
          2   -1    0    0  501    0 -0.00000000000E+00 -0.00000000000E+00 -0.10457425235E+03  0.10457425235E+03  0.00000000000E+00 0. -1.
    9000006    2    1    2  501    0  0.00000000000E+00  0.00000000000E+00  0.89542574765E+03  0.11045742523E+04  0.64675884948E+03 0.  0.
         13    1    3    3    0    0  0.25408244961E+03 -0.18985068448E+03  0.55536339143E+03  0.63955427459E+03  0.00000000000E+00 0. -1.
          4    1    3    3  501    0 -0.25408244961E+03  0.18985068448E+03  0.34006235622E+03  0.46501997776E+03  0.00000000000E+00 0. -1.
<mgrwt>
<rscale>  0 0.64675885E+03</rscale>
<asrwt>0</asrwt>
<pdfrwt beam="1">0</pdfrwt>
<pdfrwt beam="2">  1        2 0.38027081E+00 0.64675885E+03</pdfrwt>
<totfact> 0.47173529E+00</totfact>
</mgrwt>
</event>
<event>
 5    1  0.2343702E-004  0.6578682E+03  0.7818608E-02  0.9792126E-01
         13   -1    0    0    0    0  0.00000000000E+00  0.00000000000E+00  0.10000000000E+04  0.10000000000E+04  0.00000000000E+00 0. -1.
          2   -1    0    0  501    0 -0.00000000000E+00 -0.00000000000E+00 -0.10819762675E+03  0.10819762675E+03  0.00000000000E+00 0. -1.
    9000006    2    1    2  501    0  0.00000000000E+00  0.00000000000E+00  0.89180237325E+03  0.11081976268E+04  0.65786815321E+03 0.  0.
         13    1    3    3    0    0 -0.53795076069E+02 -0.55686011714E+02 -0.92628584523E+02  0.12072653718E+03  0.00000000000E+00 0. -1.
          2    1    3    3  501    0  0.53795076069E+02  0.55686011714E+02  0.98443095777E+03  0.98747108957E+03  0.00000000000E+00 0. -1.
<mgrwt>
<rscale>  0 0.65786815E+03</rscale>
<asrwt>0</asrwt>
<pdfrwt beam="1">0</pdfrwt>
<pdfrwt beam="2">  1        2 0.39344675E+00 0.65786815E+03</pdfrwt>
<totfact> 0.42115116E+00</totfact>
</mgrwt>
</event>
<event>
 5    1  0.2343702E-004  0.6296147E+03  0.7818608E-02  0.9845801E-01
         13   -1    0    0    0    0  0.00000000000E+00  0.00000000000E+00  0.10000000000E+04  0.10000000000E+04  0.00000000000E+00 0. -1.
          2   -1    0    0  501    0 -0.00000000000E+00 -0.00000000000E+00 -0.99103674634E+02  0.99103674634E+02  0.00000000000E+00 0. -1.
    9000006    2    1    2  501    0  0.00000000000E+00  0.00000000000E+00  0.90089632537E+03  0.10991036746E+04  0.62961472230E+03 0.  0.
         13    1    3    3    0    0 -0.23822130835E+03  0.10459848525E+03  0.14104729142E+03  0.29594690957E+03  0.00000000000E+00 0. -1.
          2    1    3    3  501    0  0.23822130835E+03 -0.10459848525E+03  0.75984903395E+03  0.80315676506E+03  0.00000000000E+00 0. -1.
<mgrwt>
<rscale>  0 0.62961472E+03</rscale>
<asrwt>0</asrwt>
<pdfrwt beam="1">0</pdfrwt>
<pdfrwt beam="2">  1        2 0.36037776E+00 0.62961472E+03</pdfrwt>
<totfact> 0.55866431E+00</totfact>
</mgrwt>
</event>
<event>
 5    1  0.2343702E-004  0.5350184E+03  0.7818608E-02  0.1005022E+00
         13   -1    0    0    0    0  0.00000000000E+00  0.00000000000E+00  0.10000000000E+04  0.10000000000E+04  0.00000000000E+00 0. -1.
          2   -1    0    0  501    0 -0.00000000000E+00 -0.00000000000E+00 -0.71561180561E+02  0.71561180561E+02  0.00000000000E+00 0. -1.
    9000006    2    1    2  501    0  0.00000000000E+00  0.00000000000E+00  0.92843881944E+03  0.10715611806E+04  0.53501843169E+03 0.  0.
         13    1    3    3    0    0 -0.16323847820E+03 -0.20794825542E+03  0.54611372367E+03  0.60673674429E+03  0.00000000000E+00 0. -1.
          2    1    3    3  501    0  0.16323847820E+03  0.20794825542E+03  0.38232509577E+03  0.46482443627E+03  0.00000000000E+00 0. -1.
<mgrwt>
<rscale>  0 0.53501843E+03</rscale>
<asrwt>0</asrwt>
<pdfrwt beam="1">0</pdfrwt>
<pdfrwt beam="2">  1        2 0.26022302E+00 0.53501843E+03</pdfrwt>
<totfact> 0.12810106E+01</totfact>
</mgrwt>
</event>
<event>
 5    1  0.2343702E-004  0.6535887E+03  0.7818608E-02  0.9800068E-01
         13   -1    0    0    0    0  0.00000000000E+00  0.00000000000E+00  0.10000000000E+04  0.10000000000E+04  0.00000000000E+00 0. -1.
          2   -1    0    0  501    0 -0.00000000000E+00 -0.00000000000E+00 -0.10679454991E+03  0.10679454991E+03  0.00000000000E+00 0. -1.
    9000006    2    1    2  501    0  0.00000000000E+00  0.00000000000E+00  0.89320545009E+03  0.11067945499E+04  0.65358870832E+03 0.  0.
         13    1    3    3    0    0 -0.15984198762E+03 -0.11673011106E+03  0.88695210531E+03  0.90876807654E+03  0.00000000000E+00 0. -1.
          4    1    3    3  501    0  0.15984198762E+03  0.11673011106E+03  0.62533447851E+01  0.19802647337E+03  0.00000000000E+00 0. -1.
<mgrwt>
<rscale>  0 0.65358871E+03</rscale>
<asrwt>0</asrwt>
<pdfrwt beam="1">0</pdfrwt>
<pdfrwt beam="2">  1        2 0.38834464E+00 0.65358871E+03</pdfrwt>
<totfact> 0.44012482E+00</totfact>
</mgrwt>
</event>
<event>
 5    1  0.2343702E-004  0.6529105E+03  0.7818608E-02  0.9801333E-01
         13   -1    0    0    0    0  0.00000000000E+00  0.00000000000E+00  0.10000000000E+04  0.10000000000E+04  0.00000000000E+00 0. -1.
          2   -1    0    0  501    0 -0.00000000000E+00 -0.00000000000E+00 -0.10657304312E+03  0.10657304312E+03  0.00000000000E+00 0. -1.
    9000006    2    1    2  501    0  0.00000000000E+00  0.00000000000E+00  0.89342695688E+03  0.11065730431E+04  0.65291053941E+03 0.  0.
         13    1    3    3    0    0  0.32380856987E+03 -0.39109795493E+01  0.37671557314E+03  0.49677148542E+03  0.00000000000E+00 0. -1.
          2    1    3    3  501    0 -0.32380856987E+03  0.39109795493E+01  0.51671138374E+03  0.60980155770E+03  0.00000000000E+00 0. -1.
<mgrwt>
<rscale>  0 0.65291054E+03</rscale>
<asrwt>0</asrwt>
<pdfrwt beam="1">0</pdfrwt>
<pdfrwt beam="2">  1        2 0.38753916E+00 0.65291054E+03</pdfrwt>
<totfact> 0.44318985E+00</totfact>
</mgrwt>
</event>
<event>
 5    1  0.2343702E-004  0.6424746E+03  0.7818608E-02  0.9821003E-01
         13   -1    0    0    0    0  0.00000000000E+00  0.00000000000E+00  0.10000000000E+04  0.10000000000E+04  0.00000000000E+00 0. -1.
          2   -1    0    0  501    0 -0.00000000000E+00 -0.00000000000E+00 -0.10319341611E+03  0.10319341611E+03  0.00000000000E+00 0. -1.
    9000006    2    1    2  501    0  0.00000000000E+00  0.00000000000E+00  0.89680658389E+03  0.11031934161E+04  0.64247464108E+03 0.  0.
         13    1    3    3    0    0 -0.15986653210E+03  0.19862459209E+03  0.78393884108E+03  0.82435983844E+03  0.00000000000E+00 0. -1.
          4    1    3    3  501    0  0.15986653210E+03 -0.19862459209E+03  0.11286774281E+03  0.27883357767E+03  0.00000000000E+00 0. -1.
<mgrwt>
<rscale>  0 0.64247464E+03</rscale>
<asrwt>0</asrwt>
<pdfrwt beam="1">0</pdfrwt>
<pdfrwt beam="2">  1        2 0.37524958E+00 0.64247464E+03</pdfrwt>
<totfact> 0.49242135E+00</totfact>
</mgrwt>
</event>
<event>
 5    1  0.2343702E-004  0.6470034E+03  0.7818608E-02  0.9812418E-01
         13   -1    0    0    0    0  0.00000000000E+00  0.00000000000E+00  0.10000000000E+04  0.10000000000E+04  0.00000000000E+00 0. -1.
          2   -1    0    0  501    0 -0.00000000000E+00 -0.00000000000E+00 -0.10465335695E+03  0.10465335695E+03  0.00000000000E+00 0. -1.
    9000006    2    1    2  501    0  0.00000000000E+00  0.00000000000E+00  0.89534664305E+03  0.11046533569E+04  0.64700342177E+03 0.  0.
         13    1    3    3    0    0  0.51800628765E+02 -0.91258125705E+02 -0.74788781425E+02  0.12885927392E+03  0.00000000000E+00 0. -1.
          4    1    3    3  501    0 -0.51800628765E+02  0.91258125705E+02  0.97013542448E+03  0.97579408303E+03  0.00000000000E+00 0. -1.
<mgrwt>
<rscale>  0 0.64700342E+03</rscale>
<asrwt>0</asrwt>
<pdfrwt beam="1">0</pdfrwt>
<pdfrwt beam="2">  1        2 0.38055846E+00 0.64700342E+03</pdfrwt>
<totfact> 0.47057458E+00</totfact>
</mgrwt>
</event>
<event>
 5    1  0.2343702E-004  0.6463336E+03  0.7818608E-02  0.9813683E-01
         13   -1    0    0    0    0  0.00000000000E+00  0.00000000000E+00  0.10000000000E+04  0.10000000000E+04  0.00000000000E+00 0. -1.
          2   -1    0    0  501    0 -0.00000000000E+00 -0.00000000000E+00 -0.10443678174E+03  0.10443678174E+03  0.00000000000E+00 0. -1.
    9000006    2    1    2  501    0  0.00000000000E+00  0.00000000000E+00  0.89556321826E+03  0.11044367817E+04  0.64633360347E+03 0.  0.
         13    1    3    3    0    0 -0.15347785244E+03 -0.15583296853E+03  0.85430208896E+03  0.88185680497E+03  0.00000000000E+00 0. -1.
          4    1    3    3  501    0  0.15347785244E+03  0.15583296853E+03  0.41261129297E+02  0.22257997677E+03  0.00000000000E+00 0. -1.
<mgrwt>
<rscale>  0 0.64633360E+03</rscale>
<asrwt>0</asrwt>
<pdfrwt beam="1">0</pdfrwt>
<pdfrwt beam="2">  1        2 0.37977092E+00 0.64633360E+03</pdfrwt>
<totfact> 0.47375862E+00</totfact>
</mgrwt>
</event>
<event>
 5    1  0.2343702E-004  0.5625571E+03  0.7818608E-02  0.9986285E-01
         13   -1    0    0    0    0  0.00000000000E+00  0.00000000000E+00  0.10000000000E+04  0.10000000000E+04  0.00000000000E+00 0. -1.
          2   -1    0    0  501    0 -0.00000000000E+00 -0.00000000000E+00 -0.79117616149E+02  0.79117616149E+02  0.00000000000E+00 0. -1.
    9000006    2    1    2  501    0  0.00000000000E+00  0.00000000000E+00  0.92088238385E+03  0.10791176161E+04  0.56255707674E+03 0.  0.
         13    1    3    3    0    0 -0.29872243893E+02 -0.27964519507E+03  0.45107711782E+03  0.53156782474E+03  0.00000000000E+00 0. -1.
          4    1    3    3  501    0  0.29872243893E+02  0.27964519507E+03  0.46980526603E+03  0.54754979141E+03  0.00000000000E+00 0. -1.
<mgrwt>
<rscale>  0 0.56255708E+03</rscale>
<asrwt>0</asrwt>
<pdfrwt beam="1">0</pdfrwt>
<pdfrwt beam="2">  1        2 0.28770103E+00 0.56255708E+03</pdfrwt>
<totfact> 0.10216456E+01</totfact>
</mgrwt>
</event>
<event>
 5    1  0.2343702E-004  0.6535622E+03  0.7818608E-02  0.9800118E-01
         13   -1    0    0    0    0  0.00000000000E+00  0.00000000000E+00  0.10000000000E+04  0.10000000000E+04  0.00000000000E+00 0. -1.
          2   -1    0    0  501    0 -0.00000000000E+00 -0.00000000000E+00 -0.10678589749E+03  0.10678589749E+03  0.00000000000E+00 0. -1.
    9000006    2    1    2  501    0  0.00000000000E+00  0.00000000000E+00  0.89321410251E+03  0.11067858975E+04  0.65356223112E+03 0.  0.
         13    1    3    3    0    0 -0.24246041226E+03 -0.30347933221E+02  0.79168283874E+02  0.25685728671E+03  0.00000000000E+00 0. -1.
          2    1    3    3  501    0  0.24246041226E+03  0.30347933221E+02  0.81404581864E+03  0.84992861077E+03  0.00000000000E+00 0. -1.
<mgrwt>
<rscale>  0 0.65356223E+03</rscale>
<asrwt>0</asrwt>
<pdfrwt beam="1">0</pdfrwt>
<pdfrwt beam="2">  1        2 0.38831317E+00 0.65356223E+03</pdfrwt>
<totfact> 0.44024418E+00</totfact>
</mgrwt>
</event>
<event>
 5    1  0.2343702E-004  0.6542735E+03  0.7818608E-02  0.9798793E-01
         13   -1    0    0    0    0  0.00000000000E+00  0.00000000000E+00  0.10000000000E+04  0.10000000000E+04  0.00000000000E+00 0. -1.
          2   -1    0    0  501    0 -0.00000000000E+00 -0.00000000000E+00 -0.10701846572E+03  0.10701846572E+03  0.00000000000E+00 0. -1.
    9000006    2    1    2  501    0  0.00000000000E+00  0.00000000000E+00  0.89298153428E+03  0.11070184657E+04  0.65427353828E+03 0.  0.
         13    1    3    3    0    0  0.24167965374E+03  0.21705344104E+03  0.38102149528E+03  0.50069814376E+03  0.00000000000E+00 0. -1.
          2    1    3    3  501    0 -0.24167965374E+03 -0.21705344104E+03  0.51196003900E+03  0.60632032197E+03  0.00000000000E+00 0. -1.
<mgrwt>
<rscale>  0 0.65427354E+03</rscale>
<asrwt>0</asrwt>
<pdfrwt beam="1">0</pdfrwt>
<pdfrwt beam="2">  1        2 0.38915888E+00 0.65427354E+03</pdfrwt>
<totfact> 0.43704596E+00</totfact>
</mgrwt>
</event>
<event>
 5    1  0.2343702E-004  0.6468049E+03  0.7818608E-02  0.9812793E-01
         13   -1    0    0    0    0  0.00000000000E+00  0.00000000000E+00  0.10000000000E+04  0.10000000000E+04  0.00000000000E+00 0. -1.
          2   -1    0    0  501    0 -0.00000000000E+00 -0.00000000000E+00 -0.10458912950E+03  0.10458912950E+03  0.00000000000E+00 0. -1.
    9000006    2    1    2  501    0  0.00000000000E+00  0.00000000000E+00  0.89541087050E+03  0.11045891295E+04  0.64680485310E+03 0.  0.
         13    1    3    3    0    0 -0.24772170077E+03  0.83637971916E+02  0.77275406880E+03  0.81578808659E+03  0.00000000000E+00 0. -1.
          4    1    3    3  501    0  0.24772170077E+03 -0.83637971916E+02  0.12265680171E+03  0.28880104291E+03  0.00000000000E+00 0. -1.
<mgrwt>
<rscale>  0 0.64680485E+03</rscale>
<asrwt>0</asrwt>
<pdfrwt beam="1">0</pdfrwt>
<pdfrwt beam="2">  1        2 0.38032491E+00 0.64680485E+03</pdfrwt>
<totfact> 0.47151680E+00</totfact>
</mgrwt>
</event>
<event>
 5    1  0.2343702E-004  0.6546427E+03  0.7818608E-02  0.9798106E-01
         13   -1    0    0    0    0  0.00000000000E+00  0.00000000000E+00  0.10000000000E+04  0.10000000000E+04  0.00000000000E+00 0. -1.
          2   -1    0    0  501    0 -0.00000000000E+00 -0.00000000000E+00 -0.10713927233E+03  0.10713927233E+03  0.00000000000E+00 0. -1.
    9000006    2    1    2  501    0  0.00000000000E+00  0.00000000000E+00  0.89286072767E+03  0.11071392723E+04  0.65464271883E+03 0.  0.
         13    1    3    3    0    0 -0.43455579179E+02  0.29979149060E+03  0.23672050255E+03  0.38444755367E+03  0.00000000000E+00 0. -1.
          4    1    3    3  501    0  0.43455579179E+02 -0.29979149060E+03  0.65614022512E+03  0.72269171866E+03  0.00000000000E+00 0. -1.
<mgrwt>
<rscale>  0 0.65464272E+03</rscale>
<asrwt>0</asrwt>
<pdfrwt beam="1">0</pdfrwt>
<pdfrwt beam="2">  1        2 0.38959818E+00 0.65464272E+03</pdfrwt>
<totfact> 0.43539297E+00</totfact>
</mgrwt>
</event>
<event>
 5    1  0.2343702E-004  0.6378021E+03  0.7818608E-02  0.9829941E-01
         13   -1    0    0    0    0  0.00000000000E+00  0.00000000000E+00  0.10000000000E+04  0.10000000000E+04  0.00000000000E+00 0. -1.
          2   -1    0    0  501    0 -0.00000000000E+00 -0.00000000000E+00 -0.10169787143E+03  0.10169787143E+03  0.00000000000E+00 0. -1.
    9000006    2    1    2  501    0  0.00000000000E+00  0.00000000000E+00  0.89830212857E+03  0.11016978714E+04  0.63780207410E+03 0.  0.
         13    1    3    3    0    0  0.19841391114E+03  0.16108458798E+03  0.77862204073E+03  0.81949289621E+03  0.00000000000E+00 0. -1.
          2    1    3    3  501    0 -0.19841391114E+03 -0.16108458798E+03  0.11968008783E+03  0.28220497522E+03  0.00000000000E+00 0. -1.
<mgrwt>
<rscale>  0 0.63780207E+03</rscale>
<asrwt>0</asrwt>
<pdfrwt beam="1">0</pdfrwt>
<pdfrwt beam="2">  1        2 0.36981122E+00 0.63780207E+03</pdfrwt>
<totfact> 0.51575983E+00</totfact>
</mgrwt>
</event>
<event>
 5    1  0.2343702E-004  0.6481941E+03  0.7818608E-02  0.9810174E-01
         13   -1    0    0    0    0  0.00000000000E+00  0.00000000000E+00  0.10000000000E+04  0.10000000000E+04  0.00000000000E+00 0. -1.
          2   -1    0    0  501    0 -0.00000000000E+00 -0.00000000000E+00 -0.10503888357E+03  0.10503888357E+03  0.00000000000E+00 0. -1.
    9000006    2    1    2  501    0  0.00000000000E+00  0.00000000000E+00  0.89496111643E+03  0.11050388836E+04  0.64819405604E+03 0.  0.
         13    1    3    3    0    0  0.39075800979E+02  0.12904691008E+03  0.94991520438E+03  0.95943677162E+03  0.00000000000E+00 0. -1.
          4    1    3    3  501    0 -0.39075800979E+02 -0.12904691008E+03 -0.54954087951E+02  0.14560211196E+03  0.00000000000E+00 0. -1.
<mgrwt>
<rscale>  0 0.64819406E+03</rscale>
<asrwt>0</asrwt>
<pdfrwt beam="1">0</pdfrwt>
<pdfrwt beam="2">  1        2 0.38196038E+00 0.64819406E+03</pdfrwt>
<totfact> 0.46495477E+00</totfact>
</mgrwt>
</event>
<event>
 5    1  0.2343702E-004  0.6392440E+03  0.7818608E-02  0.9827174E-01
         13   -1    0    0    0    0  0.00000000000E+00  0.00000000000E+00  0.10000000000E+04  0.10000000000E+04  0.00000000000E+00 0. -1.
          2   -1    0    0  501    0 -0.00000000000E+00 -0.00000000000E+00 -0.10215823035E+03  0.10215823035E+03  0.00000000000E+00 0. -1.
    9000006    2    1    2  501    0  0.00000000000E+00  0.00000000000E+00  0.89784176965E+03  0.11021582303E+04  0.63924402335E+03 0.  0.
         13    1    3    3    0    0  0.31620048917E+03 -0.10415868029E+02  0.52730833395E+03  0.61493521505E+03  0.00000000000E+00 0. -1.
          2    1    3    3  501    0 -0.31620048917E+03  0.10415868029E+02  0.37053343570E+03  0.48722301530E+03  0.00000000000E+00 0. -1.
<mgrwt>
<rscale>  0 0.63924402E+03</rscale>
<asrwt>0</asrwt>
<pdfrwt beam="1">0</pdfrwt>
<pdfrwt beam="2">  1        2 0.37148526E+00 0.63924402E+03</pdfrwt>
<totfact> 0.50847014E+00</totfact>
</mgrwt>
</event>
<event>
 5    1  0.2343702E-004  0.6542844E+03  0.7818608E-02  0.9798773E-01
         13   -1    0    0    0    0  0.00000000000E+00  0.00000000000E+00  0.10000000000E+04  0.10000000000E+04  0.00000000000E+00 0. -1.
          2   -1    0    0  501    0 -0.00000000000E+00 -0.00000000000E+00 -0.10702201490E+03  0.10702201490E+03  0.00000000000E+00 0. -1.
    9000006    2    1    2  501    0  0.00000000000E+00  0.00000000000E+00  0.89297798510E+03  0.11070220149E+04  0.65428438739E+03 0.  0.
         13    1    3    3    0    0 -0.14579761781E+03 -0.28698126124E+03  0.34773273400E+03  0.47384938953E+03  0.00000000000E+00 0. -1.
          2    1    3    3  501    0  0.14579761781E+03  0.28698126124E+03  0.54524525110E+03  0.63317262536E+03  0.00000000000E+00 0. -1.
<mgrwt>
<rscale>  0 0.65428439E+03</rscale>
<asrwt>0</asrwt>
<pdfrwt beam="1">0</pdfrwt>
<pdfrwt beam="2">  1        2 0.38917178E+00 0.65428439E+03</pdfrwt>
<totfact> 0.43699732E+00</totfact>
</mgrwt>
</event>
<event>
 5    1  0.2343702E-004  0.5108065E+03  0.7818608E-02  0.1010996E+00
         13   -1    0    0    0    0  0.00000000000E+00  0.00000000000E+00  0.10000000000E+04  0.10000000000E+04  0.00000000000E+00 0. -1.
          2   -1    0    0  501    0 -0.00000000000E+00 -0.00000000000E+00 -0.65230832004E+02  0.65230832004E+02  0.00000000000E+00 0. -1.
    9000006    2    1    2  501    0  0.00000000000E+00  0.00000000000E+00  0.93476916800E+03  0.10652308320E+04  0.51080654657E+03 0.  0.
         13    1    3    3    0    0  0.23313708360E+03  0.40596270084E+02  0.66773266446E+03  0.70842633215E+03  0.00000000000E+00 0. -1.
          4    1    3    3  501    0 -0.23313708360E+03 -0.40596270084E+02  0.26703650354E+03  0.35680449985E+03  0.00000000000E+00 0. -1.
<mgrwt>
<rscale>  0 0.51080655E+03</rscale>
<asrwt>0</asrwt>
<pdfrwt beam="1">0</pdfrwt>
<pdfrwt beam="2">  1        2 0.23720353E+00 0.51080655E+03</pdfrwt>
<totfact> 0.15502811E+01</totfact>
</mgrwt>
</event>
<event>
 5    1  0.2343702E-004  0.6449598E+03  0.7818608E-02  0.9816283E-01
         13   -1    0    0    0    0  0.00000000000E+00  0.00000000000E+00  0.10000000000E+04  0.10000000000E+04  0.00000000000E+00 0. -1.
          2   -1    0    0  501    0 -0.00000000000E+00 -0.00000000000E+00 -0.10399328127E+03  0.10399328127E+03  0.00000000000E+00 0. -1.
    9000006    2    1    2  501    0  0.00000000000E+00  0.00000000000E+00  0.89600671873E+03  0.11039932813E+04  0.64495978563E+03 0.  0.
         13    1    3    3    0    0  0.28592282828E+03 -0.14912594668E+03  0.45090298614E+03  0.55434999288E+03  0.00000000000E+00 0. -1.
          4    1    3    3  501    0 -0.28592282828E+03  0.14912594668E+03  0.44510373259E+03  0.54964328839E+03  0.00000000000E+00 0. -1.
<mgrwt>
<rscale>  0 0.64495979E+03</rscale>
<asrwt>0</asrwt>
<pdfrwt beam="1">0</pdfrwt>
<pdfrwt beam="2">  1        2 0.37815818E+00 0.64495979E+03</pdfrwt>
<totfact> 0.48034016E+00</totfact>
</mgrwt>
</event>
<event>
 5    1  0.2343702E-004  0.6531840E+03  0.7818608E-02  0.9800823E-01
         13   -1    0    0    0    0  0.00000000000E+00  0.00000000000E+00  0.10000000000E+04  0.10000000000E+04  0.00000000000E+00 0. -1.
          2   -1    0    0  501    0 -0.00000000000E+00 -0.00000000000E+00 -0.10666234977E+03  0.10666234977E+03  0.00000000000E+00 0. -1.
    9000006    2    1    2  501    0  0.00000000000E+00  0.00000000000E+00  0.89333765023E+03  0.11066623498E+04  0.65318404687E+03 0.  0.
         13    1    3    3    0    0 -0.30193905389E+03  0.11912046502E+03  0.50788460686E+03  0.60274675555E+03  0.00000000000E+00 0. -1.
          2    1    3    3  501    0  0.30193905389E+03 -0.11912046502E+03  0.38545304337E+03  0.50391559422E+03  0.00000000000E+00 0. -1.
<mgrwt>
<rscale>  0 0.65318405E+03</rscale>
<asrwt>0</asrwt>
<pdfrwt beam="1">0</pdfrwt>
<pdfrwt beam="2">  1        2 0.38786391E+00 0.65318405E+03</pdfrwt>
<totfact> 0.44195178E+00</totfact>
</mgrwt>
</event>
<event>
 5    1  0.2343702E-004  0.6500356E+03  0.7818608E-02  0.9806712E-01
         13   -1    0    0    0    0  0.00000000000E+00  0.00000000000E+00  0.10000000000E+04  0.10000000000E+04  0.00000000000E+00 0. -1.
          2   -1    0    0  501    0 -0.00000000000E+00 -0.00000000000E+00 -0.10563656074E+03  0.10563656074E+03  0.00000000000E+00 0. -1.
    9000006    2    1    2  501    0  0.00000000000E+00  0.00000000000E+00  0.89436343926E+03  0.11056365607E+04  0.65003557053E+03 0.  0.
         13    1    3    3    0    0 -0.37232194740E+02 -0.19154066800E+03  0.50739830795E+01  0.19519172403E+03  0.00000000000E+00 0. -1.
          4    1    3    3  501    0  0.37232194740E+02  0.19154066800E+03  0.88928945618E+03  0.91044483671E+03  0.00000000000E+00 0. -1.
<mgrwt>
<rscale>  0 0.65003557E+03</rscale>
<asrwt>0</asrwt>
<pdfrwt beam="1">0</pdfrwt>
<pdfrwt beam="2">  1        2 0.38413376E+00 0.65003557E+03</pdfrwt>
<totfact> 0.45636291E+00</totfact>
</mgrwt>
</event>
<event>
 5    1  0.2343702E-004  0.6590273E+03  0.7818608E-02  0.9789986E-01
         13   -1    0    0    0    0  0.00000000000E+00  0.00000000000E+00  0.10000000000E+04  0.10000000000E+04  0.00000000000E+00 0. -1.
          2   -1    0    0  501    0 -0.00000000000E+00 -0.00000000000E+00 -0.10857923309E+03  0.10857923309E+03  0.00000000000E+00 0. -1.
    9000006    2    1    2  501    0  0.00000000000E+00  0.00000000000E+00  0.89142076691E+03  0.11085792331E+04  0.65902726223E+03 0.  0.
         13    1    3    3    0    0 -0.92039461844E+02  0.29451076520E+03  0.64022465427E+03  0.71070068333E+03  0.00000000000E+00 0. -1.
          4    1    3    3  501    0  0.92039461844E+02 -0.29451076520E+03  0.25119611264E+03  0.39787854976E+03  0.00000000000E+00 0. -1.
<mgrwt>
<rscale>  0 0.65902726E+03</rscale>
<asrwt>0</asrwt>
<pdfrwt beam="1">0</pdfrwt>
<pdfrwt beam="2">  1        2 0.39483441E+00 0.65902726E+03</pdfrwt>
<totfact> 0.41612037E+00</totfact>
</mgrwt>
</event>
<event>
 5    1  0.2343702E-004  0.6275426E+03  0.7818608E-02  0.9849856E-01
         13   -1    0    0    0    0  0.00000000000E+00  0.00000000000E+00  0.10000000000E+04  0.10000000000E+04  0.00000000000E+00 0. -1.
          2   -1    0    0  501    0 -0.00000000000E+00 -0.00000000000E+00 -0.98452433614E+02  0.98452433614E+02  0.00000000000E+00 0. -1.
    9000006    2    1    2  501    0  0.00000000000E+00  0.00000000000E+00  0.90154756639E+03  0.10984524336E+04  0.62754261565E+03 0.  0.
         13    1    3    3    0    0  0.30717637631E+03  0.18775424104E+02  0.34368987563E+03  0.46133780825E+03  0.00000000000E+00 0. -1.
          2    1    3    3  501    0 -0.30717637631E+03 -0.18775424104E+02  0.55785769076E+03  0.63711462536E+03  0.00000000000E+00 0. -1.
<mgrwt>
<rscale>  0 0.62754262E+03</rscale>
<asrwt>0</asrwt>
<pdfrwt beam="1">0</pdfrwt>
<pdfrwt beam="2">  1        2 0.35800960E+00 0.62754262E+03</pdfrwt>
<totfact> 0.56993961E+00</totfact>
</mgrwt>
</event>
<event>
 5    1  0.2343702E-004  0.6496962E+03  0.7818608E-02  0.9807349E-01
         13   -1    0    0    0    0  0.00000000000E+00  0.00000000000E+00  0.10000000000E+04  0.10000000000E+04  0.00000000000E+00 0. -1.
          2   -1    0    0  501    0 -0.00000000000E+00 -0.00000000000E+00 -0.10552628629E+03  0.10552628629E+03  0.00000000000E+00 0. -1.
    9000006    2    1    2  501    0  0.00000000000E+00  0.00000000000E+00  0.89447371371E+03  0.11055262863E+04  0.64969619450E+03 0.  0.
         13    1    3    3    0    0  0.25567732360E+03  0.19299720791E+03  0.53898903602E+03  0.62699920018E+03  0.00000000000E+00 0. -1.
          4    1    3    3  501    0 -0.25567732360E+03 -0.19299720791E+03  0.35548467769E+03  0.47852708611E+03  0.00000000000E+00 0. -1.
<mgrwt>
<rscale>  0 0.64969619E+03</rscale>
<asrwt>0</asrwt>
<pdfrwt beam="1">0</pdfrwt>
<pdfrwt beam="2">  1        2 0.38373276E+00 0.64969619E+03</pdfrwt>
<totfact> 0.45793722E+00</totfact>
</mgrwt>
</event>
<event>
 5    1  0.2343702E-004  0.6511182E+03  0.7818608E-02  0.9804683E-01
         13   -1    0    0    0    0  0.00000000000E+00  0.00000000000E+00  0.10000000000E+04  0.10000000000E+04  0.00000000000E+00 0. -1.
          2   -1    0    0  501    0 -0.00000000000E+00 -0.00000000000E+00 -0.10598872122E+03  0.10598872122E+03  0.00000000000E+00 0. -1.
    9000006    2    1    2  501    0  0.00000000000E+00  0.00000000000E+00  0.89401127878E+03  0.11059887212E+04  0.65111818042E+03 0.  0.
         13    1    3    3    0    0  0.18140707122E+03  0.32905910519E+02  0.90277935220E+03  0.92141298189E+03  0.00000000000E+00 0. -1.
          4    1    3    3  501    0 -0.18140707122E+03 -0.32905910519E+02 -0.87680734217E+01  0.18457573933E+03  0.00000000000E+00 0. -1.
<mgrwt>
<rscale>  0 0.65111818E+03</rscale>
<asrwt>0</asrwt>
<pdfrwt beam="1">0</pdfrwt>
<pdfrwt beam="2">  1        2 0.38541434E+00 0.65111818E+03</pdfrwt>
<totfact> 0.45136817E+00</totfact>
</mgrwt>
</event>
<event>
 5    1  0.2343702E-004  0.6412577E+03  0.7818608E-02  0.9823323E-01
         13   -1    0    0    0    0  0.00000000000E+00  0.00000000000E+00  0.10000000000E+04  0.10000000000E+04  0.00000000000E+00 0. -1.
          2   -1    0    0  501    0 -0.00000000000E+00 -0.00000000000E+00 -0.10280287218E+03  0.10280287218E+03  0.00000000000E+00 0. -1.
    9000006    2    1    2  501    0  0.00000000000E+00  0.00000000000E+00  0.89719712782E+03  0.11028028722E+04  0.64125773971E+03 0.  0.
         13    1    3    3    0    0  0.97288407725E+02 -0.26560123442E+03  0.70823990675E+03  0.76263544077E+03  0.00000000000E+00 0. -1.
          4    1    3    3  501    0 -0.97288407725E+02  0.26560123442E+03  0.18895722106E+03  0.34016743141E+03  0.00000000000E+00 0. -1.
<mgrwt>
<rscale>  0 0.64125774E+03</rscale>
<asrwt>0</asrwt>
<pdfrwt beam="1">0</pdfrwt>
<pdfrwt beam="2">  1        2 0.37382941E+00 0.64125774E+03</pdfrwt>
<totfact> 0.49842084E+00</totfact>
</mgrwt>
</event>
<event>
 5    1  0.2343702E-004  0.6453435E+03  0.7818608E-02  0.9815556E-01
         13   -1    0    0    0    0  0.00000000000E+00  0.00000000000E+00  0.10000000000E+04  0.10000000000E+04  0.00000000000E+00 0. -1.
          2   -1    0    0  501    0 -0.00000000000E+00 -0.00000000000E+00 -0.10411707003E+03  0.10411707003E+03  0.00000000000E+00 0. -1.
    9000006    2    1    2  501    0  0.00000000000E+00  0.00000000000E+00  0.89588292997E+03  0.11041170700E+04  0.64534353651E+03 0.  0.
         13    1    3    3    0    0 -0.24387715771E+03 -0.95265471501E+02  0.77059659130E+03  0.81386158813E+03  0.00000000000E+00 0. -1.
          4    1    3    3  501    0  0.24387715771E+03  0.95265471501E+02  0.12528633867E+03  0.29025548190E+03  0.00000000000E+00 0. -1.
<mgrwt>
<rscale>  0 0.64534354E+03</rscale>
<asrwt>0</asrwt>
<pdfrwt beam="1">0</pdfrwt>
<pdfrwt beam="2">  1        2 0.37860833E+00 0.64534354E+03</pdfrwt>
<totfact> 0.47849481E+00</totfact>
</mgrwt>
</event>
<event>
 5    1  0.2343702E-004  0.6087675E+03  0.7818608E-02  0.9887381E-01
         13   -1    0    0    0    0  0.00000000000E+00  0.00000000000E+00  0.10000000000E+04  0.10000000000E+04  0.00000000000E+00 0. -1.
          2   -1    0    0  501    0 -0.00000000000E+00 -0.00000000000E+00 -0.92649467956E+02  0.92649467956E+02  0.00000000000E+00 0. -1.
    9000006    2    1    2  501    0  0.00000000000E+00  0.00000000000E+00  0.90735053204E+03  0.10926494680E+04  0.60876750227E+03 0.  0.
         13    1    3    3    0    0  0.29054757110E+03 -0.21106568203E+02  0.61205116692E+03  0.67784217133E+03  0.00000000000E+00 0. -1.
          4    1    3    3  501    0 -0.29054757110E+03  0.21106568203E+02  0.29529936512E+03  0.41480729663E+03  0.00000000000E+00 0. -1.
<mgrwt>
<rscale>  0 0.60876750E+03</rscale>
<asrwt>0</asrwt>
<pdfrwt beam="1">0</pdfrwt>
<pdfrwt beam="2">  1        2 0.33690787E+00 0.60876750E+03</pdfrwt>
<totfact> 0.68019135E+00</totfact>
</mgrwt>
</event>
<event>
 5    1  0.2343702E-004  0.6545249E+03  0.7818608E-02  0.9798325E-01
         13   -1    0    0    0    0  0.00000000000E+00  0.00000000000E+00  0.10000000000E+04  0.10000000000E+04  0.00000000000E+00 0. -1.
          2   -1    0    0  501    0 -0.00000000000E+00 -0.00000000000E+00 -0.10710070119E+03  0.10710070119E+03  0.00000000000E+00 0. -1.
    9000006    2    1    2  501    0  0.00000000000E+00  0.00000000000E+00  0.89289929881E+03  0.11071007012E+04  0.65452486949E+03 0.  0.
         13    1    3    3    0    0 -0.29804610928E+03 -0.99024201120E+02  0.29084088233E+03  0.42804870575E+03  0.00000000000E+00 0. -1.
          2    1    3    3  501    0  0.29804610928E+03  0.99024201120E+02  0.60205841648E+03  0.67905199544E+03  0.00000000000E+00 0. -1.
<mgrwt>
<rscale>  0 0.65452487E+03</rscale>
<asrwt>0</asrwt>
<pdfrwt beam="1">0</pdfrwt>
<pdfrwt beam="2">  1        2 0.38945792E+00 0.65452487E+03</pdfrwt>
<totfact> 0.43592012E+00</totfact>
</mgrwt>
</event>
<event>
 5    1  0.2343702E-004  0.6241772E+03  0.7818608E-02  0.9856478E-01
         13   -1    0    0    0    0  0.00000000000E+00  0.00000000000E+00  0.10000000000E+04  0.10000000000E+04  0.00000000000E+00 0. -1.
          2   -1    0    0  501    0 -0.00000000000E+00 -0.00000000000E+00 -0.97399285508E+02  0.97399285508E+02  0.00000000000E+00 0. -1.
    9000006    2    1    2  501    0  0.00000000000E+00  0.00000000000E+00  0.90260071449E+03  0.10973992855E+04  0.62417717199E+03 0.  0.
         13    1    3    3    0    0 -0.24960233259E+03  0.14221019067E+03  0.23687609115E+03  0.37233767648E+03  0.00000000000E+00 0. -1.
          2    1    3    3  501    0  0.24960233259E+03 -0.14221019067E+03  0.66572462334E+03  0.72506160903E+03  0.00000000000E+00 0. -1.
<mgrwt>
<rscale>  0 0.62417717E+03</rscale>
<asrwt>0</asrwt>
<pdfrwt beam="1">0</pdfrwt>
<pdfrwt beam="2">  1        2 0.35417997E+00 0.62417717E+03</pdfrwt>
<totfact> 0.58862140E+00</totfact>
</mgrwt>
</event>
<event>
 5    1  0.2343702E-004  0.6488221E+03  0.7818608E-02  0.9808992E-01
         13   -1    0    0    0    0  0.00000000000E+00  0.00000000000E+00  0.10000000000E+04  0.10000000000E+04  0.00000000000E+00 0. -1.
          2   -1    0    0  501    0 -0.00000000000E+00 -0.00000000000E+00 -0.10524253473E+03  0.10524253473E+03  0.00000000000E+00 0. -1.
    9000006    2    1    2  501    0  0.00000000000E+00  0.00000000000E+00  0.89475746527E+03  0.11052425347E+04  0.64882211656E+03 0.  0.
         13    1    3    3    0    0  0.13193597128E+03 -0.25764749276E+03  0.69688302588E+03  0.75460935775E+03  0.00000000000E+00 0. -1.
          2    1    3    3  501    0 -0.13193597128E+03  0.25764749276E+03  0.19787443938E+03  0.35063317698E+03  0.00000000000E+00 0. -1.
<mgrwt>
<rscale>  0 0.64882212E+03</rscale>
<asrwt>0</asrwt>
<pdfrwt beam="1">0</pdfrwt>
<pdfrwt beam="2">  1        2 0.38270093E+00 0.64882212E+03</pdfrwt>
<totfact> 0.46201084E+00</totfact>
</mgrwt>
</event>
<event>
 5    1  0.2343702E-004  0.6484398E+03  0.7818608E-02  0.9809711E-01
         13   -1    0    0    0    0  0.00000000000E+00  0.00000000000E+00  0.10000000000E+04  0.10000000000E+04  0.00000000000E+00 0. -1.
          2   -1    0    0  501    0 -0.00000000000E+00 -0.00000000000E+00 -0.10511853075E+03  0.10511853075E+03  0.00000000000E+00 0. -1.
    9000006    2    1    2  501    0  0.00000000000E+00  0.00000000000E+00  0.89488146925E+03  0.11051185308E+04  0.64843976051E+03 0.  0.
         13    1    3    3    0    0  0.62649132723E+02  0.31806741427E+03  0.43862832312E+03  0.54542332156E+03  0.00000000000E+00 0. -1.
          4    1    3    3  501    0 -0.62649132723E+02 -0.31806741427E+03  0.45625314612E+03  0.55969520920E+03  0.00000000000E+00 0. -1.
<mgrwt>
<rscale>  0 0.64843976E+03</rscale>
<asrwt>0</asrwt>
<pdfrwt beam="1">0</pdfrwt>
<pdfrwt beam="2">  1        2 0.38225001E+00 0.64843976E+03</pdfrwt>
<totfact> 0.46380139E+00</totfact>
</mgrwt>
</event>
<event>
 5    1  0.2343702E-004  0.6538354E+03  0.7818608E-02  0.9799609E-01
         13   -1    0    0    0    0  0.00000000000E+00  0.00000000000E+00  0.10000000000E+04  0.10000000000E+04  0.00000000000E+00 0. -1.
          2   -1    0    0  501    0 -0.00000000000E+00 -0.00000000000E+00 -0.10687518307E+03  0.10687518307E+03  0.00000000000E+00 0. -1.
    9000006    2    1    2  501    0  0.00000000000E+00  0.00000000000E+00  0.89312481693E+03  0.11068751831E+04  0.65383540152E+03 0.  0.
         13    1    3    3    0    0  0.30137876563E+03  0.12719322606E+02  0.65992263313E+03  0.72559549561E+03  0.00000000000E+00 0. -1.
          4    1    3    3  501    0 -0.30137876563E+03 -0.12719322606E+02  0.23320218380E+03  0.38127968746E+03  0.00000000000E+00 0. -1.
<mgrwt>
<rscale>  0 0.65383540E+03</rscale>
<asrwt>0</asrwt>
<pdfrwt beam="1">0</pdfrwt>
<pdfrwt beam="2">  1        2 0.38863785E+00 0.65383540E+03</pdfrwt>
<totfact> 0.43901386E+00</totfact>
</mgrwt>
</event>
<event>
 5    1  0.2343702E-004  0.6512273E+03  0.7818608E-02  0.9804479E-01
         13   -1    0    0    0    0  0.00000000000E+00  0.00000000000E+00  0.10000000000E+04  0.10000000000E+04  0.00000000000E+00 0. -1.
          2   -1    0    0  501    0 -0.00000000000E+00 -0.00000000000E+00 -0.10602423820E+03  0.10602423820E+03  0.00000000000E+00 0. -1.
    9000006    2    1    2  501    0  0.00000000000E+00  0.00000000000E+00  0.89397576180E+03  0.11060242382E+04  0.65122726663E+03 0.  0.
         13    1    3    3    0    0  0.26476032028E+03  0.38147821918E+02  0.13166264864E+03  0.29814147071E+03  0.00000000000E+00 0. -1.
          2    1    3    3  501    0 -0.26476032028E+03 -0.38147821918E+02  0.76231311316E+03  0.80788276749E+03  0.00000000000E+00 0. -1.
<mgrwt>
<rscale>  0 0.65122727E+03</rscale>
<asrwt>0</asrwt>
<pdfrwt beam="1">0</pdfrwt>
<pdfrwt beam="2">  1        2 0.38554350E+00 0.65122727E+03</pdfrwt>
<totfact> 0.45086719E+00</totfact>
</mgrwt>
</event>
<event>
 5    1  0.2343702E-004  0.6454416E+03  0.7818608E-02  0.9815371E-01
         13   -1    0    0    0    0  0.00000000000E+00  0.00000000000E+00  0.10000000000E+04  0.10000000000E+04  0.00000000000E+00 0. -1.
          2   -1    0    0  501    0 -0.00000000000E+00 -0.00000000000E+00 -0.10414870696E+03  0.10414870696E+03  0.00000000000E+00 0. -1.
    9000006    2    1    2  501    0  0.00000000000E+00  0.00000000000E+00  0.89585129304E+03  0.11041487070E+04  0.64544157585E+03 0.  0.
         13    1    3    3    0    0  0.31487242472E+01  0.31930771397E+03  0.36802764324E+03  0.48724909118E+03  0.00000000000E+00 0. -1.
          2    1    3    3  501    0 -0.31487242472E+01 -0.31930771397E+03  0.52782364980E+03  0.61689961578E+03  0.00000000000E+00 0. -1.
<mgrwt>
<rscale>  0 0.64544158E+03</rscale>
<asrwt>0</asrwt>
<pdfrwt beam="1">0</pdfrwt>
<pdfrwt beam="2">  1        2 0.37872337E+00 0.64544158E+03</pdfrwt>
<totfact> 0.47802422E+00</totfact>
</mgrwt>
</event>
<event>
 5    1  0.2343702E-004  0.6331000E+03  0.7818608E-02  0.9839018E-01
         13   -1    0    0    0    0  0.00000000000E+00  0.00000000000E+00  0.10000000000E+04  0.10000000000E+04  0.00000000000E+00 0. -1.
          2   -1    0    0  501    0 -0.00000000000E+00 -0.00000000000E+00 -0.10020391723E+03  0.10020391723E+03  0.00000000000E+00 0. -1.
    9000006    2    1    2  501    0  0.00000000000E+00  0.00000000000E+00  0.89979608277E+03  0.11002039172E+04  0.63310004654E+03 0.  0.
         13    1    3    3    0    0 -0.21345622048E+03 -0.16934604277E+03  0.16988888650E+03  0.32109791967E+03  0.00000000000E+00 0. -1.
          4    1    3    3  501    0  0.21345622048E+03  0.16934604277E+03  0.72990719627E+03  0.77910599756E+03  0.00000000000E+00 0. -1.
<mgrwt>
<rscale>  0 0.63310005E+03</rscale>
<asrwt>0</asrwt>
<pdfrwt beam="1">0</pdfrwt>
<pdfrwt beam="2">  1        2 0.36437865E+00 0.63310005E+03</pdfrwt>
<totfact> 0.54008193E+00</totfact>
</mgrwt>
</event>
<event>
 5    1  0.2343702E-004  0.6518709E+03  0.7818608E-02  0.9803275E-01
         13   -1    0    0    0    0  0.00000000000E+00  0.00000000000E+00  0.10000000000E+04  0.10000000000E+04  0.00000000000E+00 0. -1.
          2   -1    0    0  501    0 -0.00000000000E+00 -0.00000000000E+00 -0.10623392161E+03  0.10623392161E+03  0.00000000000E+00 0. -1.
    9000006    2    1    2  501    0  0.00000000000E+00  0.00000000000E+00  0.89376607839E+03  0.11062339216E+04  0.65187091242E+03 0.  0.
         13    1    3    3    0    0  0.10782156023E+03  0.24456964513E+03  0.13033596297E+03  0.29736721980E+03  0.00000000000E+00 0. -1.
          2    1    3    3  501    0 -0.10782156023E+03 -0.24456964513E+03  0.76343011542E+03  0.80886670181E+03  0.00000000000E+00 0. -1.
<mgrwt>
<rscale>  0 0.65187091E+03</rscale>
<asrwt>0</asrwt>
<pdfrwt beam="1">0</pdfrwt>
<pdfrwt beam="2">  1        2 0.38630598E+00 0.65187091E+03</pdfrwt>
<totfact> 0.44791978E+00</totfact>
</mgrwt>
</event>
<event>
 5    1  0.2343702E-004  0.6530622E+03  0.7818608E-02  0.9801050E-01
         13   -1    0    0    0    0  0.00000000000E+00  0.00000000000E+00  0.10000000000E+04  0.10000000000E+04  0.00000000000E+00 0. -1.
          2   -1    0    0  501    0 -0.00000000000E+00 -0.00000000000E+00 -0.10662256204E+03  0.10662256204E+03  0.00000000000E+00 0. -1.
    9000006    2    1    2  501    0  0.00000000000E+00  0.00000000000E+00  0.89337743796E+03  0.11066225620E+04  0.65306220850E+03 0.  0.
         13    1    3    3    0    0 -0.26714714541E+03  0.16907597934E+03  0.30831557305E+03  0.44160250982E+03  0.00000000000E+00 0. -1.
          4    1    3    3  501    0  0.26714714541E+03 -0.16907597934E+03  0.58506186490E+03  0.66502005222E+03  0.00000000000E+00 0. -1.
<mgrwt>
<rscale>  0 0.65306221E+03</rscale>
<asrwt>0</asrwt>
<pdfrwt beam="1">0</pdfrwt>
<pdfrwt beam="2">  1        2 0.38771923E+00 0.65306221E+03</pdfrwt>
<totfact> 0.44250297E+00</totfact>
</mgrwt>
</event>
<event>
 5    1  0.2343702E-004  0.6599614E+03  0.7818608E-02  0.9788265E-01
         13   -1    0    0    0    0  0.00000000000E+00  0.00000000000E+00  0.10000000000E+04  0.10000000000E+04  0.00000000000E+00 0. -1.
          2   -1    0    0  501    0 -0.00000000000E+00 -0.00000000000E+00 -0.10888726802E+03  0.10888726802E+03  0.00000000000E+00 0. -1.
    9000006    2    1    2  501    0  0.00000000000E+00  0.00000000000E+00  0.89111273198E+03  0.11088872680E+04  0.65996141713E+03 0.  0.
         13    1    3    3    0    0  0.12277395594E+03  0.29704104410E+03  0.32003919401E+03  0.45357679817E+03  0.00000000000E+00 0. -1.
          2    1    3    3  501    0 -0.12277395594E+03 -0.29704104410E+03  0.57107353797E+03  0.65531046986E+03  0.00000000000E+00 0. -1.
<mgrwt>
<rscale>  0 0.65996142E+03</rscale>
<asrwt>0</asrwt>
<pdfrwt beam="1">0</pdfrwt>
<pdfrwt beam="2">  1        2 0.39595454E+00 0.65996142E+03</pdfrwt>
<totfact> 0.41209917E+00</totfact>
</mgrwt>
</event>
<event>
 5    1  0.2343702E-004  0.7034590E+03  0.7818608E-02  0.9711335E-01
         13   -1    0    0    0    0  0.00000000000E+00  0.00000000000E+00  0.10000000000E+04  0.10000000000E+04  0.00000000000E+00 0. -1.
          2   -1    0    0  501    0 -0.00000000000E+00 -0.00000000000E+00 -0.12371364262E+03  0.12371364262E+03  0.00000000000E+00 0. -1.
    9000006    2    1    2  501    0  0.00000000000E+00  0.00000000000E+00  0.87628635738E+03  0.11237136426E+04  0.70345900411E+03 0.  0.
         13    1    3    3    0    0 -0.30866995827E+03 -0.14182376276E+03  0.29241475108E+03  0.44821591836E+03  0.00000000000E+00 0. -1.
          4    1    3    3  501    0  0.30866995827E+03  0.14182376276E+03  0.58387160630E+03  0.67549772425E+03  0.00000000000E+00 0. -1.
<mgrwt>
<rscale>  0 0.70345900E+03</rscale>
<asrwt>0</asrwt>
<pdfrwt beam="1">0</pdfrwt>
<pdfrwt beam="2">  1        2 0.44986874E+00 0.70345900E+03</pdfrwt>
<totfact> 0.25500728E+00</totfact>
</mgrwt>
</event>
<event>
 5    1  0.2343702E-004  0.6630514E+03  0.7818608E-02  0.9782593E-01
         13   -1    0    0    0    0  0.00000000000E+00  0.00000000000E+00  0.10000000000E+04  0.10000000000E+04  0.00000000000E+00 0. -1.
          2   -1    0    0  501    0 -0.00000000000E+00 -0.00000000000E+00 -0.10990927832E+03  0.10990927832E+03  0.00000000000E+00 0. -1.
    9000006    2    1    2  501    0  0.00000000000E+00  0.00000000000E+00  0.89009072168E+03  0.11099092783E+04  0.66305136549E+03 0.  0.
         13    1    3    3    0    0 -0.21750677113E+03 -0.14448553960E+03  0.78697231469E+03  0.82916264432E+03  0.00000000000E+00 0. -1.
          4    1    3    3  501    0  0.21750677113E+03  0.14448553960E+03  0.10311840699E+03  0.28074663400E+03  0.00000000000E+00 0. -1.
<mgrwt>
<rscale>  0 0.66305137E+03</rscale>
<asrwt>0</asrwt>
<pdfrwt beam="1">0</pdfrwt>
<pdfrwt beam="2">  1        2 0.39967095E+00 0.66305137E+03</pdfrwt>
<totfact> 0.39900668E+00</totfact>
</mgrwt>
</event>
<event>
 5    1  0.2343702E-004  0.6441192E+03  0.7818608E-02  0.9817877E-01
         13   -1    0    0    0    0  0.00000000000E+00  0.00000000000E+00  0.10000000000E+04  0.10000000000E+04  0.00000000000E+00 0. -1.
          2   -1    0    0  501    0 -0.00000000000E+00 -0.00000000000E+00 -0.10372239878E+03  0.10372239878E+03  0.00000000000E+00 0. -1.
    9000006    2    1    2  501    0  0.00000000000E+00  0.00000000000E+00  0.89627760122E+03  0.11037223988E+04  0.64411923984E+03 0.  0.
         13    1    3    3    0    0  0.15170057097E+03  0.24974907039E+03  0.21611585748E+03  0.36344700473E+03  0.00000000000E+00 0. -1.
          2    1    3    3  501    0 -0.15170057097E+03 -0.24974907039E+03  0.68016174374E+03  0.74027539405E+03  0.00000000000E+00 0. -1.
<mgrwt>
<rscale>  0 0.64411924E+03</rscale>
<asrwt>0</asrwt>
<pdfrwt beam="1">0</pdfrwt>
<pdfrwt beam="2">  1        2 0.37717315E+00 0.64411924E+03</pdfrwt>
<totfact> 0.48440092E+00</totfact>
</mgrwt>
</event>
<event>
 5    1  0.2343702E-004  0.6640976E+03  0.7818608E-02  0.9780680E-01
         13   -1    0    0    0    0  0.00000000000E+00  0.00000000000E+00  0.10000000000E+04  0.10000000000E+04  0.00000000000E+00 0. -1.
          2   -1    0    0  501    0 -0.00000000000E+00 -0.00000000000E+00 -0.11025641071E+03  0.11025641071E+03  0.00000000000E+00 0. -1.
    9000006    2    1    2  501    0  0.00000000000E+00  0.00000000000E+00  0.88974358929E+03  0.11102564107E+04  0.66409761544E+03 0.  0.
         13    1    3    3    0    0  0.21350055577E+03 -0.14010627516E+03  0.90049752547E+02  0.27077890167E+03  0.00000000000E+00 0. -1.
          2    1    3    3  501    0 -0.21350055577E+03  0.14010627516E+03  0.79969383674E+03  0.83947750904E+03  0.00000000000E+00 0. -1.
<mgrwt>
<rscale>  0 0.66409762E+03</rscale>
<asrwt>0</asrwt>
<pdfrwt beam="1">0</pdfrwt>
<pdfrwt beam="2">  1        2 0.40093325E+00 0.66409762E+03</pdfrwt>
<totfact> 0.39464553E+00</totfact>
</mgrwt>
</event>
<event>
 5    1  0.2343702E-004  0.6467321E+03  0.7818608E-02  0.9812931E-01
         13   -1    0    0    0    0  0.00000000000E+00  0.00000000000E+00  0.10000000000E+04  0.10000000000E+04  0.00000000000E+00 0. -1.
          2   -1    0    0  501    0 -0.00000000000E+00 -0.00000000000E+00 -0.10456560434E+03  0.10456560434E+03  0.00000000000E+00 0. -1.
    9000006    2    1    2  501    0  0.00000000000E+00  0.00000000000E+00  0.89543439566E+03  0.11045656043E+04  0.64673210634E+03 0.  0.
         13    1    3    3    0    0 -0.14721624890E+03  0.15050509824E+03  0.86691006657E+03  0.89210844187E+03  0.00000000000E+00 0. -1.
          2    1    3    3  501    0  0.14721624890E+03 -0.15050509824E+03  0.28524329091E+02  0.21245716247E+03  0.00000000000E+00 0. -1.
<mgrwt>
<rscale>  0 0.64673211E+03</rscale>
<asrwt>0</asrwt>
<pdfrwt beam="1">0</pdfrwt>
<pdfrwt beam="2">  1        2 0.38023936E+00 0.64673211E+03</pdfrwt>
<totfact> 0.47186235E+00</totfact>
</mgrwt>
</event>
<event>
 5    1  0.2343702E-004  0.6034060E+03  0.7818608E-02  0.9898365E-01
         13   -1    0    0    0    0  0.00000000000E+00  0.00000000000E+00  0.10000000000E+04  0.10000000000E+04  0.00000000000E+00 0. -1.
          2   -1    0    0  501    0 -0.00000000000E+00 -0.00000000000E+00 -0.91024706452E+02  0.91024706452E+02  0.00000000000E+00 0. -1.
    9000006    2    1    2  501    0  0.00000000000E+00  0.00000000000E+00  0.90897529355E+03  0.10910247065E+04  0.60340602069E+03 0.  0.
         13    1    3    3    0    0  0.95561665114E+02  0.18884419630E+03  0.84325469645E+03  0.86940936584E+03  0.00000000000E+00 0. -1.
          4    1    3    3  501    0 -0.95561665114E+02 -0.18884419630E+03  0.65720597096E+02  0.22161534062E+03  0.00000000000E+00 0. -1.
<mgrwt>
<rscale>  0 0.60340602E+03</rscale>
<asrwt>0</asrwt>
<pdfrwt beam="1">0</pdfrwt>
<pdfrwt beam="2">  1        2 0.33099963E+00 0.60340602E+03</pdfrwt>
<totfact> 0.71447442E+00</totfact>
</mgrwt>
</event>
<event>
 5    1  0.2343702E-004  0.6527089E+03  0.7818608E-02  0.9801709E-01
         13   -1    0    0    0    0  0.00000000000E+00  0.00000000000E+00  0.10000000000E+04  0.10000000000E+04  0.00000000000E+00 0. -1.
          2   -1    0    0  501    0 -0.00000000000E+00 -0.00000000000E+00 -0.10650722949E+03  0.10650722949E+03  0.00000000000E+00 0. -1.
    9000006    2    1    2  501    0  0.00000000000E+00  0.00000000000E+00  0.89349277051E+03  0.11065072295E+04  0.65270890752E+03 0.  0.
         13    1    3    3    0    0 -0.22571234892E+03 -0.35174789372E+02  0.51625320312E+02  0.23419757463E+03  0.00000000000E+00 0. -1.
          2    1    3    3  501    0  0.22571234892E+03  0.35174789372E+02  0.84186745020E+03  0.87230965486E+03  0.00000000000E+00 0. -1.
<mgrwt>
<rscale>  0 0.65270891E+03</rscale>
<asrwt>0</asrwt>
<pdfrwt beam="1">0</pdfrwt>
<pdfrwt beam="2">  1        2 0.38729983E+00 0.65270891E+03</pdfrwt>
<totfact> 0.44410424E+00</totfact>
</mgrwt>
</event>
<event>
 5    1  0.2343702E-004  0.6399542E+03  0.7818608E-02  0.9825814E-01
         13   -1    0    0    0    0  0.00000000000E+00  0.00000000000E+00  0.10000000000E+04  0.10000000000E+04  0.00000000000E+00 0. -1.
          2   -1    0    0  501    0 -0.00000000000E+00 -0.00000000000E+00 -0.10238533797E+03  0.10238533797E+03  0.00000000000E+00 0. -1.
    9000006    2    1    2  501    0  0.00000000000E+00  0.00000000000E+00  0.89761466203E+03  0.11023853380E+04  0.63995417953E+03 0.  0.
         13    1    3    3    0    0  0.15020044218E+02  0.30988728313E+03  0.58367284114E+03  0.66100659259E+03  0.00000000000E+00 0. -1.
          4    1    3    3  501    0 -0.15020044218E+02 -0.30988728313E+03  0.31394182089E+03  0.44137874538E+03  0.00000000000E+00 0. -1.
<mgrwt>
<rscale>  0 0.63995418E+03</rscale>
<asrwt>0</asrwt>
<pdfrwt beam="1">0</pdfrwt>
<pdfrwt beam="2">  1        2 0.37231111E+00 0.63995418E+03</pdfrwt>
<totfact> 0.50490881E+00</totfact>
</mgrwt>
</event>
<event>
 5    1  0.2343702E-004  0.6488717E+03  0.7818608E-02  0.9808899E-01
         13   -1    0    0    0    0  0.00000000000E+00  0.00000000000E+00  0.10000000000E+04  0.10000000000E+04  0.00000000000E+00 0. -1.
          2   -1    0    0  501    0 -0.00000000000E+00 -0.00000000000E+00 -0.10525862771E+03  0.10525862771E+03  0.00000000000E+00 0. -1.
    9000006    2    1    2  501    0  0.00000000000E+00  0.00000000000E+00  0.89474137229E+03  0.11052586277E+04  0.64887172140E+03 0.  0.
         13    1    3    3    0    0  0.23713889276E+03  0.20239580002E+03  0.29445048339E+03  0.42883563459E+03  0.00000000000E+00 0. -1.
          2    1    3    3  501    0 -0.23713889276E+03 -0.20239580002E+03  0.60029088890E+03  0.67642299312E+03  0.00000000000E+00 0. -1.
<mgrwt>
<rscale>  0 0.64887172E+03</rscale>
<asrwt>0</asrwt>
<pdfrwt beam="1">0</pdfrwt>
<pdfrwt beam="2">  1        2 0.38275945E+00 0.64887172E+03</pdfrwt>
<totfact> 0.46177893E+00</totfact>
</mgrwt>
</event>
<event>
 5    1  0.2343702E-004  0.6509416E+03  0.7818608E-02  0.9805014E-01
         13   -1    0    0    0    0  0.00000000000E+00  0.00000000000E+00  0.10000000000E+04  0.10000000000E+04  0.00000000000E+00 0. -1.
          2   -1    0    0  501    0 -0.00000000000E+00 -0.00000000000E+00 -0.10593124319E+03  0.10593124319E+03  0.00000000000E+00 0. -1.
    9000006    2    1    2  501    0  0.00000000000E+00  0.00000000000E+00  0.89406875681E+03  0.11059312432E+04  0.65094160473E+03 0.  0.
         13    1    3    3    0    0 -0.16176476611E+03  0.14115858941E+03  0.86263231670E+03  0.88894774916E+03  0.00000000000E+00 0. -1.
          2    1    3    3  501    0  0.16176476611E+03 -0.14115858941E+03  0.31436440106E+02  0.21698349403E+03  0.00000000000E+00 0. -1.
<mgrwt>
<rscale>  0 0.65094160E+03</rscale>
<asrwt>0</asrwt>
<pdfrwt beam="1">0</pdfrwt>
<pdfrwt beam="2">  1        2 0.38520533E+00 0.65094160E+03</pdfrwt>
<totfact> 0.45217999E+00</totfact>
</mgrwt>
</event>
<event>
 5    1  0.2343702E-004  0.6504758E+03  0.7818608E-02  0.9805887E-01
         13   -1    0    0    0    0  0.00000000000E+00  0.00000000000E+00  0.10000000000E+04  0.10000000000E+04  0.00000000000E+00 0. -1.
          2   -1    0    0  501    0 -0.00000000000E+00 -0.00000000000E+00 -0.10577970663E+03  0.10577970663E+03  0.00000000000E+00 0. -1.
    9000006    2    1    2  501    0  0.00000000000E+00  0.00000000000E+00  0.89422029337E+03  0.11057797066E+04  0.65047584622E+03 0.  0.
         13    1    3    3    0    0 -0.28235620462E+02  0.24768397236E+03  0.80221406084E+03  0.84005476002E+03  0.00000000000E+00 0. -1.
          4    1    3    3  501    0  0.28235620462E+02 -0.24768397236E+03  0.92006232533E+02  0.26572494661E+03  0.00000000000E+00 0. -1.
<mgrwt>
<rscale>  0 0.65047585E+03</rscale>
<asrwt>0</asrwt>
<pdfrwt beam="1">0</pdfrwt>
<pdfrwt beam="2">  1        2 0.38465429E+00 0.65047585E+03</pdfrwt>
<totfact> 0.45432664E+00</totfact>
</mgrwt>
</event>
<event>
 5    1  0.2343702E-004  0.6169744E+03  0.7818608E-02  0.9870802E-01
         13   -1    0    0    0    0  0.00000000000E+00  0.00000000000E+00  0.10000000000E+04  0.10000000000E+04  0.00000000000E+00 0. -1.
          2   -1    0    0  501    0 -0.00000000000E+00 -0.00000000000E+00 -0.95164352487E+02  0.95164352487E+02  0.00000000000E+00 0. -1.
    9000006    2    1    2  501    0  0.00000000000E+00  0.00000000000E+00  0.90483564751E+03  0.10951643525E+04  0.61697439975E+03 0.  0.
         13    1    3    3    0    0 -0.20274359849E+02  0.19335152237E+03  0.27261277359E+02  0.19631362182E+03  0.00000000000E+00 0. -1.
          4    1    3    3  501    0  0.20274359849E+02 -0.19335152237E+03  0.87757437015E+03  0.89885073067E+03  0.00000000000E+00 0. -1.
<mgrwt>
<rscale>  0 0.61697440E+03</rscale>
<asrwt>0</asrwt>
<pdfrwt beam="1">0</pdfrwt>
<pdfrwt beam="2">  1        2 0.34605292E+00 0.61697440E+03</pdfrwt>
<totfact> 0.63016818E+00</totfact>
</mgrwt>
</event>
<event>
 5    1  0.2343702E-004  0.6650702E+03  0.7818608E-02  0.9778905E-01
         13   -1    0    0    0    0  0.00000000000E+00  0.00000000000E+00  0.10000000000E+04  0.10000000000E+04  0.00000000000E+00 0. -1.
          2   -1    0    0  501    0 -0.00000000000E+00 -0.00000000000E+00 -0.11057959813E+03  0.11057959813E+03  0.00000000000E+00 0. -1.
    9000006    2    1    2  501    0  0.00000000000E+00  0.00000000000E+00  0.88942040187E+03  0.11105795981E+04  0.66507021622E+03 0.  0.
         13    1    3    3    0    0  0.20746660750E+03  0.94801707741E+02  0.84876944977E+03  0.87888528027E+03  0.00000000000E+00 0. -1.
          2    1    3    3  501    0 -0.20746660750E+03 -0.94801707741E+02  0.40650952105E+02  0.23169431785E+03  0.00000000000E+00 0. -1.
<mgrwt>
<rscale>  0 0.66507022E+03</rscale>
<asrwt>0</asrwt>
<pdfrwt beam="1">0</pdfrwt>
<pdfrwt beam="2">  1        2 0.40210848E+00 0.66507022E+03</pdfrwt>
<totfact> 0.39062371E+00</totfact>
</mgrwt>
</event>
<event>
 5    1  0.2343702E-004  0.6199613E+03  0.7818608E-02  0.9864837E-01
         13   -1    0    0    0    0  0.00000000000E+00  0.00000000000E+00  0.10000000000E+04  0.10000000000E+04  0.00000000000E+00 0. -1.
          2   -1    0    0  501    0 -0.00000000000E+00 -0.00000000000E+00 -0.96088010979E+02  0.96088010979E+02  0.00000000000E+00 0. -1.
    9000006    2    1    2  501    0  0.00000000000E+00  0.00000000000E+00  0.90391198902E+03  0.10960880110E+04  0.61996132453E+03 0.  0.
         13    1    3    3    0    0  0.21689666489E+03 -0.21450596766E+03  0.54929266582E+03  0.62831473492E+03  0.00000000000E+00 0. -1.
          4    1    3    3  501    0 -0.21689666489E+03  0.21450596766E+03  0.35461932320E+03  0.46777327606E+03  0.00000000000E+00 0. -1.
<mgrwt>
<rscale>  0 0.61996132E+03</rscale>
<asrwt>0</asrwt>
<pdfrwt beam="1">0</pdfrwt>
<pdfrwt beam="2">  1        2 0.34941169E+00 0.61996132E+03</pdfrwt>
<totfact> 0.61267714E+00</totfact>
</mgrwt>
</event>
<event>
 5    1  0.2343702E-004  0.6519104E+03  0.7818608E-02  0.9803201E-01
         13   -1    0    0    0    0  0.00000000000E+00  0.00000000000E+00  0.10000000000E+04  0.10000000000E+04  0.00000000000E+00 0. -1.
          2   -1    0    0  501    0 -0.00000000000E+00 -0.00000000000E+00 -0.10624679328E+03  0.10624679328E+03  0.00000000000E+00 0. -1.
    9000006    2    1    2  501    0  0.00000000000E+00  0.00000000000E+00  0.89375320672E+03  0.11062467933E+04  0.65191040268E+03 0.  0.
         13    1    3    3    0    0 -0.59181551648E+02  0.22346915151E+01  0.99079344512E+03  0.99256188764E+03  0.00000000000E+00 0. -1.
          2    1    3    3  501    0  0.59181551648E+02 -0.22346915151E+01 -0.97040238400E+02  0.11368490564E+03  0.00000000000E+00 0. -1.
<mgrwt>
<rscale>  0 0.65191040E+03</rscale>
<asrwt>0</asrwt>
<pdfrwt beam="1">0</pdfrwt>
<pdfrwt beam="2">  1        2 0.38635279E+00 0.65191040E+03</pdfrwt>
<totfact> 0.44773942E+00</totfact>
</mgrwt>
</event>
<event>
 5    1  0.2343702E-004  0.6577510E+03  0.7818608E-02  0.9792343E-01
         13   -1    0    0    0    0  0.00000000000E+00  0.00000000000E+00  0.10000000000E+04  0.10000000000E+04  0.00000000000E+00 0. -1.
          2   -1    0    0  501    0 -0.00000000000E+00 -0.00000000000E+00 -0.10815911070E+03  0.10815911070E+03  0.00000000000E+00 0. -1.
    9000006    2    1    2  501    0  0.00000000000E+00  0.00000000000E+00  0.89184088930E+03  0.11081591107E+04  0.65775104924E+03 0.  0.
         13    1    3    3    0    0  0.23045538920E+03 -0.10968321982E+03  0.79535898759E+03  0.83530594051E+03  0.00000000000E+00 0. -1.
          4    1    3    3  501    0 -0.23045538920E+03  0.10968321982E+03  0.96481901719E+02  0.27285317018E+03  0.00000000000E+00 0. -1.
<mgrwt>
<rscale>  0 0.65775105E+03</rscale>
<asrwt>0</asrwt>
<pdfrwt beam="1">0</pdfrwt>
<pdfrwt beam="2">  1        2 0.39330669E+00 0.65775105E+03</pdfrwt>
<totfact> 0.42166199E+00</totfact>
</mgrwt>
</event>
<event>
 5    1  0.2343702E-004  0.6496438E+03  0.7818608E-02  0.9807448E-01
         13   -1    0    0    0    0  0.00000000000E+00  0.00000000000E+00  0.10000000000E+04  0.10000000000E+04  0.00000000000E+00 0. -1.
          2   -1    0    0  501    0 -0.00000000000E+00 -0.00000000000E+00 -0.10550925102E+03  0.10550925102E+03  0.00000000000E+00 0. -1.
    9000006    2    1    2  501    0  0.00000000000E+00  0.00000000000E+00  0.89449074898E+03  0.11055092510E+04  0.64964375167E+03 0.  0.
         13    1    3    3    0    0  0.10840453761E+03 -0.26396624380E+03  0.18318021004E+03  0.33909395600E+03  0.00000000000E+00 0. -1.
          2    1    3    3  501    0 -0.10840453761E+03  0.26396624380E+03  0.71131053893E+03  0.76641529502E+03  0.00000000000E+00 0. -1.
<mgrwt>
<rscale>  0 0.64964375E+03</rscale>
<asrwt>0</asrwt>
<pdfrwt beam="1">0</pdfrwt>
<pdfrwt beam="2">  1        2 0.38367081E+00 0.64964375E+03</pdfrwt>
<totfact> 0.45818086E+00</totfact>
</mgrwt>
</event>
<event>
 5    1  0.2343702E-004  0.6417789E+03  0.7818608E-02  0.9822329E-01
         13   -1    0    0    0    0  0.00000000000E+00  0.00000000000E+00  0.10000000000E+04  0.10000000000E+04  0.00000000000E+00 0. -1.
          2   -1    0    0  501    0 -0.00000000000E+00 -0.00000000000E+00 -0.10297002587E+03  0.10297002587E+03  0.00000000000E+00 0. -1.
    9000006    2    1    2  501    0  0.00000000000E+00  0.00000000000E+00  0.89702997413E+03  0.11029700259E+04  0.64177885871E+03 0.  0.
         13    1    3    3    0    0 -0.72760520829E+02  0.94338260095E+02 -0.63551838660E+02  0.13502828188E+03  0.00000000000E+00 0. -1.
          2    1    3    3  501    0  0.72760520829E+02 -0.94338260095E+02  0.96058181279E+03  0.96794174400E+03  0.00000000000E+00 0. -1.
<mgrwt>
<rscale>  0 0.64177886E+03</rscale>
<asrwt>0</asrwt>
<pdfrwt beam="1">0</pdfrwt>
<pdfrwt beam="2">  1        2 0.37443725E+00 0.64177886E+03</pdfrwt>
<totfact> 0.49584492E+00</totfact>
</mgrwt>
</event>
<event>
 5    1  0.2343702E-004  0.6529840E+03  0.7818608E-02  0.9801196E-01
         13   -1    0    0    0    0  0.00000000000E+00  0.00000000000E+00  0.10000000000E+04  0.10000000000E+04  0.00000000000E+00 0. -1.
          2   -1    0    0  501    0 -0.00000000000E+00 -0.00000000000E+00 -0.10659703444E+03  0.10659703444E+03  0.00000000000E+00 0. -1.
    9000006    2    1    2  501    0  0.00000000000E+00  0.00000000000E+00  0.89340296556E+03  0.11065970344E+04  0.65298402564E+03 0.  0.
         13    1    3    3    0    0  0.21262803256E+03 -0.22583378713E+03  0.27399855307E+03  0.41386807889E+03  0.00000000000E+00 0. -1.
          2    1    3    3  501    0 -0.21262803256E+03  0.22583378713E+03  0.61940441250E+03  0.69272895555E+03  0.00000000000E+00 0. -1.
<mgrwt>
<rscale>  0 0.65298403E+03</rscale>
<asrwt>0</asrwt>
<pdfrwt beam="1">0</pdfrwt>
<pdfrwt beam="2">  1        2 0.38762640E+00 0.65298403E+03</pdfrwt>
<totfact> 0.44285694E+00</totfact>
</mgrwt>
</event>
<event>
 5    1  0.2343702E-004  0.6458110E+03  0.7818608E-02  0.9814672E-01
         13   -1    0    0    0    0  0.00000000000E+00  0.00000000000E+00  0.10000000000E+04  0.10000000000E+04  0.00000000000E+00 0. -1.
          2   -1    0    0  501    0 -0.00000000000E+00 -0.00000000000E+00 -0.10426795129E+03  0.10426795129E+03  0.00000000000E+00 0. -1.
    9000006    2    1    2  501    0  0.00000000000E+00  0.00000000000E+00  0.89573204871E+03  0.11042679513E+04  0.64581096705E+03 0.  0.
         13    1    3    3    0    0 -0.19120081341E+03 -0.17916058054E+03  0.12519102070E+03  0.29039465617E+03  0.00000000000E+00 0. -1.
          2    1    3    3  501    0  0.19120081341E+03  0.17916058054E+03  0.77054102801E+03  0.81387329512E+03  0.00000000000E+00 0. -1.
<mgrwt>
<rscale>  0 0.64581097E+03</rscale>
<asrwt>0</asrwt>
<pdfrwt beam="1">0</pdfrwt>
<pdfrwt beam="2">  1        2 0.37915699E+00 0.64581097E+03</pdfrwt>
<totfact> 0.47625432E+00</totfact>
</mgrwt>
</event>
<event>
 5    1  0.2343702E-004  0.6538330E+03  0.7818608E-02  0.9799613E-01
         13   -1    0    0    0    0  0.00000000000E+00  0.00000000000E+00  0.10000000000E+04  0.10000000000E+04  0.00000000000E+00 0. -1.
          2   -1    0    0  501    0 -0.00000000000E+00 -0.00000000000E+00 -0.10687440532E+03  0.10687440532E+03  0.00000000000E+00 0. -1.
    9000006    2    1    2  501    0  0.00000000000E+00  0.00000000000E+00  0.89312559468E+03  0.11068744053E+04  0.65383302247E+03 0.  0.
         13    1    3    3    0    0 -0.17033271145E+03 -0.53301281025E+02  0.91024502145E+03  0.92757762922E+03  0.00000000000E+00 0. -1.
          4    1    3    3  501    0  0.17033271145E+03  0.53301281025E+02 -0.17119426768E+02  0.17929677610E+03  0.00000000000E+00 0. -1.
<mgrwt>
<rscale>  0 0.65383302E+03</rscale>
<asrwt>0</asrwt>
<pdfrwt beam="1">0</pdfrwt>
<pdfrwt beam="2">  1        2 0.38863502E+00 0.65383302E+03</pdfrwt>
<totfact> 0.43902456E+00</totfact>
</mgrwt>
</event>
<event>
 5    1  0.2343702E-004  0.6249474E+03  0.7818608E-02  0.9854959E-01
         13   -1    0    0    0    0  0.00000000000E+00  0.00000000000E+00  0.10000000000E+04  0.10000000000E+04  0.00000000000E+00 0. -1.
          2   -1    0    0  501    0 -0.00000000000E+00 -0.00000000000E+00 -0.97639802853E+02  0.97639802853E+02  0.00000000000E+00 0. -1.
    9000006    2    1    2  501    0  0.00000000000E+00  0.00000000000E+00  0.90236019715E+03  0.10976398029E+04  0.62494736691E+03 0.  0.
         13    1    3    3    0    0 -0.10971726992E+03  0.12152579620E+03 -0.16270222276E+02  0.16453303193E+03  0.00000000000E+00 0. -1.
          2    1    3    3  501    0  0.10971726992E+03 -0.12152579620E+03  0.91863041942E+03  0.93310677093E+03  0.00000000000E+00 0. -1.
<mgrwt>
<rscale>  0 0.62494737E+03</rscale>
<asrwt>0</asrwt>
<pdfrwt beam="1">0</pdfrwt>
<pdfrwt beam="2">  1        2 0.35505458E+00 0.62494737E+03</pdfrwt>
<totfact> 0.58430544E+00</totfact>
</mgrwt>
</event>
<event>
 5    1  0.2343702E-004  0.6610718E+03  0.7818608E-02  0.9786223E-01
         13   -1    0    0    0    0  0.00000000000E+00  0.00000000000E+00  0.10000000000E+04  0.10000000000E+04  0.00000000000E+00 0. -1.
          2   -1    0    0  501    0 -0.00000000000E+00 -0.00000000000E+00 -0.10925399528E+03  0.10925399528E+03  0.00000000000E+00 0. -1.
    9000006    2    1    2  501    0  0.00000000000E+00  0.00000000000E+00  0.89074600472E+03  0.11092539953E+04  0.66107184263E+03 0.  0.
         13    1    3    3    0    0  0.20135320041E+03  0.20733857744E+03  0.17626208441E+03  0.33852728016E+03  0.00000000000E+00 0. -1.
          4    1    3    3  501    0 -0.20135320041E+03 -0.20733857744E+03  0.71448392032E+03  0.77072671512E+03  0.00000000000E+00 0. -1.
<mgrwt>
<rscale>  0 0.66107184E+03</rscale>
<asrwt>0</asrwt>
<pdfrwt beam="1">0</pdfrwt>
<pdfrwt beam="2">  1        2 0.39728809E+00 0.66107184E+03</pdfrwt>
<totfact> 0.40735741E+00</totfact>
</mgrwt>
</event>
<event>
 5    1  0.2343702E-004  0.6476349E+03  0.7818608E-02  0.9811227E-01
         13   -1    0    0    0    0  0.00000000000E+00  0.00000000000E+00  0.10000000000E+04  0.10000000000E+04  0.00000000000E+00 0. -1.
          2   -1    0    0  501    0 -0.00000000000E+00 -0.00000000000E+00 -0.10485774508E+03  0.10485774508E+03  0.00000000000E+00 0. -1.
    9000006    2    1    2  501    0  0.00000000000E+00  0.00000000000E+00  0.89514225492E+03  0.11048577451E+04  0.64763491283E+03 0.  0.
         13    1    3    3    0    0 -0.28153222505E+03 -0.45196158009E+01  0.72040624663E+03  0.77347655481E+03  0.00000000000E+00 0. -1.
          4    1    3    3  501    0  0.28153222505E+03  0.45196158009E+01  0.17473600829E+03  0.33138119026E+03  0.00000000000E+00 0. -1.
<mgrwt>
<rscale>  0 0.64763491E+03</rscale>
<asrwt>0</asrwt>
<pdfrwt beam="1">0</pdfrwt>
<pdfrwt beam="2">  1        2 0.38130170E+00 0.64763491E+03</pdfrwt>
<totfact> 0.46758758E+00</totfact>
</mgrwt>
</event>
<event>
 5    1  0.2343702E-004  0.6448728E+03  0.7818608E-02  0.9816448E-01
         13   -1    0    0    0    0  0.00000000000E+00  0.00000000000E+00  0.10000000000E+04  0.10000000000E+04  0.00000000000E+00 0. -1.
          2   -1    0    0  501    0 -0.00000000000E+00 -0.00000000000E+00 -0.10396524655E+03  0.10396524655E+03  0.00000000000E+00 0. -1.
    9000006    2    1    2  501    0  0.00000000000E+00  0.00000000000E+00  0.89603475345E+03  0.11039652466E+04  0.64487284499E+03 0.  0.
         13    1    3    3    0    0 -0.18026775539E+03  0.17891612734E+03  0.78807127544E+03  0.82798778942E+03  0.00000000000E+00 0. -1.
          4    1    3    3  501    0  0.18026775539E+03 -0.17891612734E+03  0.10796347801E+03  0.27597745713E+03  0.00000000000E+00 0. -1.
<mgrwt>
<rscale>  0 0.64487284E+03</rscale>
<asrwt>0</asrwt>
<pdfrwt beam="1">0</pdfrwt>
<pdfrwt beam="2">  1        2 0.37805624E+00 0.64487284E+03</pdfrwt>
<totfact> 0.48075898E+00</totfact>
</mgrwt>
</event>
<event>
 5    1  0.2343702E-004  0.6552357E+03  0.7818608E-02  0.9797004E-01
         13   -1    0    0    0    0  0.00000000000E+00  0.00000000000E+00  0.10000000000E+04  0.10000000000E+04  0.00000000000E+00 0. -1.
          2   -1    0    0  501    0 -0.00000000000E+00 -0.00000000000E+00 -0.10733343963E+03  0.10733343963E+03  0.00000000000E+00 0. -1.
    9000006    2    1    2  501    0  0.00000000000E+00  0.00000000000E+00  0.89266656037E+03  0.11073334396E+04  0.65523565114E+03 0.  0.
         13    1    3    3    0    0 -0.17826072490E+03  0.26972365029E+03  0.53584955092E+03  0.62582942947E+03  0.00000000000E+00 0. -1.
          2    1    3    3  501    0  0.17826072490E+03 -0.26972365029E+03  0.35681700945E+03  0.48150401016E+03  0.00000000000E+00 0. -1.
<mgrwt>
<rscale>  0 0.65523565E+03</rscale>
<asrwt>0</asrwt>
<pdfrwt beam="1">0</pdfrwt>
<pdfrwt beam="2">  1        2 0.39030424E+00 0.65523565E+03</pdfrwt>
<totfact> 0.43274801E+00</totfact>
</mgrwt>
</event>
<event>
 5    1  0.2343702E-004  0.6475753E+03  0.7818608E-02  0.9811340E-01
         13   -1    0    0    0    0  0.00000000000E+00  0.00000000000E+00  0.10000000000E+04  0.10000000000E+04  0.00000000000E+00 0. -1.
          2   -1    0    0  501    0 -0.00000000000E+00 -0.00000000000E+00 -0.10483843123E+03  0.10483843123E+03  0.00000000000E+00 0. -1.
    9000006    2    1    2  501    0  0.00000000000E+00  0.00000000000E+00  0.89516156877E+03  0.11048384312E+04  0.64757526584E+03 0.  0.
         13    1    3    3    0    0 -0.31895324622E+03 -0.49615595356E+02  0.40423232338E+03  0.51729745006E+03  0.00000000000E+00 0. -1.
          4    1    3    3  501    0  0.31895324622E+03  0.49615595356E+02  0.49092924539E+03  0.58754098117E+03  0.00000000000E+00 0. -1.
<mgrwt>
<rscale>  0 0.64757527E+03</rscale>
<asrwt>0</asrwt>
<pdfrwt beam="1">0</pdfrwt>
<pdfrwt beam="2">  1        2 0.38123146E+00 0.64757527E+03</pdfrwt>
<totfact> 0.46786910E+00</totfact>
</mgrwt>
</event>
<event>
 5    1  0.2343702E-004  0.6533518E+03  0.7818608E-02  0.9800510E-01
         13   -1    0    0    0    0  0.00000000000E+00  0.00000000000E+00  0.10000000000E+04  0.10000000000E+04  0.00000000000E+00 0. -1.
          2   -1    0    0  501    0 -0.00000000000E+00 -0.00000000000E+00 -0.10671714213E+03  0.10671714213E+03  0.00000000000E+00 0. -1.
    9000006    2    1    2  501    0  0.00000000000E+00  0.00000000000E+00  0.89328285787E+03  0.11067171421E+04  0.65335179539E+03 0.  0.
         13    1    3    3    0    0  0.74176496961E+02  0.25102421609E+03  0.77772043694E+03  0.82058783064E+03  0.00000000000E+00 0. -1.
          2    1    3    3  501    0 -0.74176496961E+02 -0.25102421609E+03  0.11556242092E+03  0.28612931149E+03  0.00000000000E+00 0. -1.
<mgrwt>
<rscale>  0 0.65335180E+03</rscale>
<asrwt>0</asrwt>
<pdfrwt beam="1">0</pdfrwt>
<pdfrwt beam="2">  1        2 0.38806315E+00 0.65335180E+03</pdfrwt>
<totfact> 0.44119374E+00</totfact>
</mgrwt>
</event>
<event>
 5    1  0.2343702E-004  0.6154871E+03  0.7818608E-02  0.9873786E-01
         13   -1    0    0    0    0  0.00000000000E+00  0.00000000000E+00  0.10000000000E+04  0.10000000000E+04  0.00000000000E+00 0. -1.
          2   -1    0    0  501    0 -0.00000000000E+00 -0.00000000000E+00 -0.94706103270E+02  0.94706103270E+02  0.00000000000E+00 0. -1.
    9000006    2    1    2  501    0  0.00000000000E+00  0.00000000000E+00  0.90529389673E+03  0.10947061033E+04  0.61548713478E+03 0.  0.
         13    1    3    3    0    0  0.24577131648E+03 -0.13761485281E+03  0.67311254204E+03  0.72967244841E+03  0.00000000000E+00 0. -1.
          4    1    3    3  501    0 -0.24577131648E+03  0.13761485281E+03  0.23218135469E+03  0.36503365486E+03  0.00000000000E+00 0. -1.
<mgrwt>
<rscale>  0 0.61548713E+03</rscale>
<asrwt>0</asrwt>
<pdfrwt beam="1">0</pdfrwt>
<pdfrwt beam="2">  1        2 0.34438656E+00 0.61548713E+03</pdfrwt>
<totfact> 0.63901797E+00</totfact>
</mgrwt>
</event>
<event>
 5    1  0.2343702E-004  0.6407625E+03  0.7818608E-02  0.9824269E-01
         13   -1    0    0    0    0  0.00000000000E+00  0.00000000000E+00  0.10000000000E+04  0.10000000000E+04  0.00000000000E+00 0. -1.
          2   -1    0    0  501    0 -0.00000000000E+00 -0.00000000000E+00 -0.10264413737E+03  0.10264413737E+03  0.00000000000E+00 0. -1.
    9000006    2    1    2  501    0  0.00000000000E+00  0.00000000000E+00  0.89735586263E+03  0.11026441374E+04  0.64076247510E+03 0.  0.
         13    1    3    3    0    0  0.50610103963E+02  0.17903137716E+03  0.89751653238E+03  0.91659671749E+03  0.00000000000E+00 0. -1.
          4    1    3    3  501    0 -0.50610103963E+02 -0.17903137716E+03 -0.16066974906E+00  0.18604741988E+03  0.00000000000E+00 0. -1.
<mgrwt>
<rscale>  0 0.64076248E+03</rscale>
<asrwt>0</asrwt>
<pdfrwt beam="1">0</pdfrwt>
<pdfrwt beam="2">  1        2 0.37325220E+00 0.64076248E+03</pdfrwt>
<totfact> 0.50087835E+00</totfact>
</mgrwt>
</event>
<event>
 5    1  0.2343702E-004  0.6505961E+03  0.7818608E-02  0.9805661E-01
         13   -1    0    0    0    0  0.00000000000E+00  0.00000000000E+00  0.10000000000E+04  0.10000000000E+04  0.00000000000E+00 0. -1.
          2   -1    0    0  501    0 -0.00000000000E+00 -0.00000000000E+00 -0.10581883729E+03  0.10581883729E+03  0.00000000000E+00 0. -1.
    9000006    2    1    2  501    0  0.00000000000E+00  0.00000000000E+00  0.89418116271E+03  0.11058188373E+04  0.65059614906E+03 0.  0.
         13    1    3    3    0    0  0.27435191348E+03  0.48919289462E+02  0.73230002175E+03  0.78353391195E+03  0.00000000000E+00 0. -1.
          4    1    3    3  501    0 -0.27435191348E+03 -0.48919289462E+02  0.16188114095E+03  0.32228492535E+03  0.00000000000E+00 0. -1.
<mgrwt>
<rscale>  0 0.65059615E+03</rscale>
<asrwt>0</asrwt>
<pdfrwt beam="1">0</pdfrwt>
<pdfrwt beam="2">  1        2 0.38479658E+00 0.65059615E+03</pdfrwt>
<totfact> 0.45377143E+00</totfact>
</mgrwt>
</event>
<event>
 5    1  0.2343702E-004  0.6455550E+03  0.7818608E-02  0.9815156E-01
         13   -1    0    0    0    0  0.00000000000E+00  0.00000000000E+00  0.10000000000E+04  0.10000000000E+04  0.00000000000E+00 0. -1.
          2   -1    0    0  501    0 -0.00000000000E+00 -0.00000000000E+00 -0.10418532157E+03  0.10418532157E+03  0.00000000000E+00 0. -1.
    9000006    2    1    2  501    0  0.00000000000E+00  0.00000000000E+00  0.89581467843E+03  0.11041853216E+04  0.64555502188E+03 0.  0.
         13    1    3    3    0    0 -0.28512312882E+03  0.11160190343E+03  0.62263344867E+03  0.69384623285E+03  0.00000000000E+00 0. -1.
          2    1    3    3  501    0  0.28512312882E+03 -0.11160190343E+03  0.27318122976E+03  0.41033908872E+03  0.00000000000E+00 0. -1.
<mgrwt>
<rscale>  0 0.64555502E+03</rscale>
<asrwt>0</asrwt>
<pdfrwt beam="1">0</pdfrwt>
<pdfrwt beam="2">  1        2 0.37885651E+00 0.64555502E+03</pdfrwt>
<totfact> 0.47748013E+00</totfact>
</mgrwt>
</event>
<event>
 5    1  0.2343702E-004  0.6278327E+03  0.7818608E-02  0.9849287E-01
         13   -1    0    0    0    0  0.00000000000E+00  0.00000000000E+00  0.10000000000E+04  0.10000000000E+04  0.00000000000E+00 0. -1.
          2   -1    0    0  501    0 -0.00000000000E+00 -0.00000000000E+00 -0.98543485203E+02  0.98543485203E+02  0.00000000000E+00 0. -1.
    9000006    2    1    2  501    0  0.00000000000E+00  0.00000000000E+00  0.90145651480E+03  0.10985434852E+04  0.62783273315E+03 0.  0.
         13    1    3    3    0    0  0.30032389734E+03 -0.77817154704E+02  0.53452472870E+03  0.61803449619E+03  0.00000000000E+00 0. -1.
          4    1    3    3  501    0 -0.30032389734E+03  0.77817154704E+02  0.36693178609E+03  0.48050898902E+03  0.00000000000E+00 0. -1.
<mgrwt>
<rscale>  0 0.62783273E+03</rscale>
<asrwt>0</asrwt>
<pdfrwt beam="1">0</pdfrwt>
<pdfrwt beam="2">  1        2 0.35834070E+00 0.62783273E+03</pdfrwt>
<totfact> 0.56835063E+00</totfact>
</mgrwt>
</event>
<event>
 5    1  0.2343702E-004  0.5601095E+03  0.7818608E-02  0.9991807E-01
         13   -1    0    0    0    0  0.00000000000E+00  0.00000000000E+00  0.10000000000E+04  0.10000000000E+04  0.00000000000E+00 0. -1.
          2   -1    0    0  501    0 -0.00000000000E+00 -0.00000000000E+00 -0.78430661121E+02  0.78430661121E+02  0.00000000000E+00 0. -1.
    9000006    2    1    2  501    0  0.00000000000E+00  0.00000000000E+00  0.92156933888E+03  0.10784306611E+04  0.56010949330E+03 0.  0.
         13    1    3    3    0    0 -0.27843251315E+03  0.21109086500E+02  0.50209783416E+03  0.57451935823E+03  0.00000000000E+00 0. -1.
          2    1    3    3  501    0  0.27843251315E+03 -0.21109086500E+02  0.41947150472E+03  0.50391130289E+03  0.00000000000E+00 0. -1.
<mgrwt>
<rscale>  0 0.56010949E+03</rscale>
<asrwt>0</asrwt>
<pdfrwt beam="1">0</pdfrwt>
<pdfrwt beam="2">  1        2 0.28520301E+00 0.56010949E+03</pdfrwt>
<totfact> 0.10428574E+01</totfact>
</mgrwt>
</event>
<event>
 5    1  0.2343702E-004  0.6742687E+03  0.7818608E-02  0.9762277E-01
         13   -1    0    0    0    0  0.00000000000E+00  0.00000000000E+00  0.10000000000E+04  0.10000000000E+04  0.00000000000E+00 0. -1.
          2   -1    0    0  501    0 -0.00000000000E+00 -0.00000000000E+00 -0.11365958306E+03  0.11365958306E+03  0.00000000000E+00 0. -1.
    9000006    2    1    2  501    0  0.00000000000E+00  0.00000000000E+00  0.88634041694E+03  0.11136595831E+04  0.67426873888E+03 0.  0.
         13    1    3    3    0    0 -0.22171264229E+03  0.23219889999E+03  0.61311228847E+03  0.69208345103E+03  0.00000000000E+00 0. -1.
          4    1    3    3  501    0  0.22171264229E+03 -0.23219889999E+03  0.27322812847E+03  0.42157613203E+03  0.00000000000E+00 0. -1.
<mgrwt>
<rscale>  0 0.67426874E+03</rscale>
<asrwt>0</asrwt>
<pdfrwt beam="1">0</pdfrwt>
<pdfrwt beam="2">  1        2 0.41330845E+00 0.67426874E+03</pdfrwt>
<totfact> 0.35409641E+00</totfact>
</mgrwt>
</event>
<event>
 5    1  0.2343702E-004  0.6450331E+03  0.7818608E-02  0.9816144E-01
         13   -1    0    0    0    0  0.00000000000E+00  0.00000000000E+00  0.10000000000E+04  0.10000000000E+04  0.00000000000E+00 0. -1.
          2   -1    0    0  501    0 -0.00000000000E+00 -0.00000000000E+00 -0.10401693840E+03  0.10401693840E+03  0.00000000000E+00 0. -1.
    9000006    2    1    2  501    0  0.00000000000E+00  0.00000000000E+00  0.89598306160E+03  0.11040169384E+04  0.64503314148E+03 0.  0.
         13    1    3    3    0    0 -0.17778298767E+03  0.18519750044E+03  0.78212868426E+03  0.82318295877E+03  0.00000000000E+00 0. -1.
          2    1    3    3  501    0  0.17778298767E+03 -0.18519750044E+03  0.11385437734E+03  0.28083397963E+03  0.00000000000E+00 0. -1.
<mgrwt>
<rscale>  0 0.64503314E+03</rscale>
<asrwt>0</asrwt>
<pdfrwt beam="1">0</pdfrwt>
<pdfrwt beam="2">  1        2 0.37824421E+00 0.64503314E+03</pdfrwt>
<totfact> 0.47998699E+00</totfact>
</mgrwt>
</event>
<event>
 5    1  0.2343702E-004  0.6445130E+03  0.7818608E-02  0.9817130E-01
         13   -1    0    0    0    0  0.00000000000E+00  0.00000000000E+00  0.10000000000E+04  0.10000000000E+04  0.00000000000E+00 0. -1.
          2   -1    0    0  501    0 -0.00000000000E+00 -0.00000000000E+00 -0.10384924237E+03  0.10384924237E+03  0.00000000000E+00 0. -1.
    9000006    2    1    2  501    0  0.00000000000E+00  0.00000000000E+00  0.89615075763E+03  0.11038492424E+04  0.64451297075E+03 0.  0.
         13    1    3    3    0    0 -0.46384827894E+01 -0.20293690381E+03  0.87674136131E+03  0.89993350703E+03  0.00000000000E+00 0. -1.
          4    1    3    3  501    0  0.46384827894E+01  0.20293690381E+03  0.19409396327E+02  0.20391573534E+03  0.00000000000E+00 0. -1.
<mgrwt>
<rscale>  0 0.64451297E+03</rscale>
<asrwt>0</asrwt>
<pdfrwt beam="1">0</pdfrwt>
<pdfrwt beam="2">  1        2 0.37763440E+00 0.64451297E+03</pdfrwt>
<totfact> 0.48249554E+00</totfact>
</mgrwt>
</event>
<event>
 5    1  0.2343702E-004  0.6347885E+03  0.7818608E-02  0.9835749E-01
         13   -1    0    0    0    0  0.00000000000E+00  0.00000000000E+00  0.10000000000E+04  0.10000000000E+04  0.00000000000E+00 0. -1.
          2   -1    0    0  501    0 -0.00000000000E+00 -0.00000000000E+00 -0.10073909741E+03  0.10073909741E+03  0.00000000000E+00 0. -1.
    9000006    2    1    2  501    0  0.00000000000E+00  0.00000000000E+00  0.89926090259E+03  0.11007390974E+04  0.63478846054E+03 0.  0.
         13    1    3    3    0    0 -0.26656488326E+03 -0.12578454485E+03  0.65377836878E+03  0.71715043345E+03  0.00000000000E+00 0. -1.
          2    1    3    3  501    0  0.26656488326E+03  0.12578454485E+03  0.24548253381E+03  0.38358866396E+03  0.00000000000E+00 0. -1.
<mgrwt>
<rscale>  0 0.63478846E+03</rscale>
<asrwt>0</asrwt>
<pdfrwt beam="1">0</pdfrwt>
<pdfrwt beam="2">  1        2 0.36632476E+00 0.63478846E+03</pdfrwt>
<totfact> 0.53125043E+00</totfact>
</mgrwt>
</event>
<event>
 5    1  0.2343702E-004  0.6461260E+03  0.7818608E-02  0.9814076E-01
         13   -1    0    0    0    0  0.00000000000E+00  0.00000000000E+00  0.10000000000E+04  0.10000000000E+04  0.00000000000E+00 0. -1.
          2   -1    0    0  501    0 -0.00000000000E+00 -0.00000000000E+00 -0.10436968636E+03  0.10436968636E+03  0.00000000000E+00 0. -1.
    9000006    2    1    2  501    0  0.00000000000E+00  0.00000000000E+00  0.89563031364E+03  0.11043696864E+04  0.64612595170E+03 0.  0.
         13    1    3    3    0    0 -0.32258737221E+03  0.13265256635E+02  0.42824431039E+03  0.53631312600E+03  0.00000000000E+00 0. -1.
          4    1    3    3  501    0  0.32258737221E+03 -0.13265256635E+02  0.46738600325E+03  0.56805656036E+03  0.00000000000E+00 0. -1.
<mgrwt>
<rscale>  0 0.64612595E+03</rscale>
<asrwt>0</asrwt>
<pdfrwt beam="1">0</pdfrwt>
<pdfrwt beam="2">  1        2 0.37952693E+00 0.64612595E+03</pdfrwt>
<totfact> 0.47474901E+00</totfact>
</mgrwt>
</event>
<event>
 5    1  0.2343702E-004  0.6587391E+03  0.7818608E-02  0.9790518E-01
         13   -1    0    0    0    0  0.00000000000E+00  0.00000000000E+00  0.10000000000E+04  0.10000000000E+04  0.00000000000E+00 0. -1.
          2   -1    0    0  501    0 -0.00000000000E+00 -0.00000000000E+00 -0.10848431500E+03  0.10848431500E+03  0.00000000000E+00 0. -1.
    9000006    2    1    2  501    0  0.00000000000E+00  0.00000000000E+00  0.89151568500E+03  0.11084843150E+04  0.65873914411E+03 0.  0.
         13    1    3    3    0    0 -0.20293123553E+03 -0.70528821713E+02  0.25649930446E+02  0.21636386015E+03  0.00000000000E+00 0. -1.
          4    1    3    3  501    0  0.20293123553E+03  0.70528821713E+02  0.86586575456E+03  0.89212045485E+03  0.00000000000E+00 0. -1.
<mgrwt>
<rscale>  0 0.65873914E+03</rscale>
<asrwt>0</asrwt>
<pdfrwt beam="1">0</pdfrwt>
<pdfrwt beam="2">  1        2 0.39448925E+00 0.65873914E+03</pdfrwt>
<totfact> 0.41736657E+00</totfact>
</mgrwt>
</event>
<event>
 5    1  0.2343702E-004  0.6661056E+03  0.7818608E-02  0.9777019E-01
         13   -1    0    0    0    0  0.00000000000E+00  0.00000000000E+00  0.10000000000E+04  0.10000000000E+04  0.00000000000E+00 0. -1.
          2   -1    0    0  501    0 -0.00000000000E+00 -0.00000000000E+00 -0.11092416617E+03  0.11092416617E+03  0.00000000000E+00 0. -1.
    9000006    2    1    2  501    0  0.00000000000E+00  0.00000000000E+00  0.88907583383E+03  0.11109241662E+04  0.66610559574E+03 0.  0.
         13    1    3    3    0    0 -0.26104522747E+03  0.15406366457E+03  0.67469257265E+03  0.73965552192E+03  0.00000000000E+00 0. -1.
          2    1    3    3  501    0  0.26104522747E+03 -0.15406366457E+03  0.21438326118E+03  0.37126864425E+03  0.00000000000E+00 0. -1.
<mgrwt>
<rscale>  0 0.66610560E+03</rscale>
<asrwt>0</asrwt>
<pdfrwt beam="1">0</pdfrwt>
<pdfrwt beam="2">  1        2 0.40336145E+00 0.66610560E+03</pdfrwt>
<totfact> 0.38637633E+00</totfact>
</mgrwt>
</event>
<event>
 5    1  0.2343702E-004  0.6560695E+03  0.7818608E-02  0.9795456E-01
         13   -1    0    0    0    0  0.00000000000E+00  0.00000000000E+00  0.10000000000E+04  0.10000000000E+04  0.00000000000E+00 0. -1.
          2   -1    0    0  501    0 -0.00000000000E+00 -0.00000000000E+00 -0.10760678334E+03  0.10760678334E+03  0.00000000000E+00 0. -1.
    9000006    2    1    2  501    0  0.00000000000E+00  0.00000000000E+00  0.89239321666E+03  0.11076067833E+04  0.65606945772E+03 0.  0.
         13    1    3    3    0    0 -0.23802919606E+03 -0.22555296895E+03  0.43160100350E+03  0.54204378624E+03  0.00000000000E+00 0. -1.
          4    1    3    3  501    0  0.23802919606E+03  0.22555296895E+03  0.46079221316E+03  0.56556299710E+03  0.00000000000E+00 0. -1.
<mgrwt>
<rscale>  0 0.65606946E+03</rscale>
<asrwt>0</asrwt>
<pdfrwt beam="1">0</pdfrwt>
<pdfrwt beam="2">  1        2 0.39129822E+00 0.65606946E+03</pdfrwt>
<totfact> 0.42904912E+00</totfact>
</mgrwt>
</event>
<event>
 5    1  0.2343702E-004  0.6467544E+03  0.7818608E-02  0.9812888E-01
         13   -1    0    0    0    0  0.00000000000E+00  0.00000000000E+00  0.10000000000E+04  0.10000000000E+04  0.00000000000E+00 0. -1.
          2   -1    0    0  501    0 -0.00000000000E+00 -0.00000000000E+00 -0.10457281460E+03  0.10457281460E+03  0.00000000000E+00 0. -1.
    9000006    2    1    2  501    0  0.00000000000E+00  0.00000000000E+00  0.89542718540E+03  0.11045728146E+04  0.64675440346E+03 0.  0.
         13    1    3    3    0    0  0.22398928148E+03 -0.38906311848E+02  0.84047895458E+03  0.87068350875E+03  0.00000000000E+00 0. -1.
          2    1    3    3  501    0 -0.22398928148E+03  0.38906311848E+02  0.54948230826E+02  0.23388930585E+03  0.00000000000E+00 0. -1.
<mgrwt>
<rscale>  0 0.64675440E+03</rscale>
<asrwt>0</asrwt>
<pdfrwt beam="1">0</pdfrwt>
<pdfrwt beam="2">  1        2 0.38026558E+00 0.64675440E+03</pdfrwt>
<totfact> 0.47175641E+00</totfact>
</mgrwt>
</event>
<event>
 5    1  0.2343702E-004  0.6385876E+03  0.7818608E-02  0.9828433E-01
         13   -1    0    0    0    0  0.00000000000E+00  0.00000000000E+00  0.10000000000E+04  0.10000000000E+04  0.00000000000E+00 0. -1.
          2   -1    0    0  501    0 -0.00000000000E+00 -0.00000000000E+00 -0.10194853322E+03  0.10194853322E+03  0.00000000000E+00 0. -1.
    9000006    2    1    2  501    0  0.00000000000E+00  0.00000000000E+00  0.89805146678E+03  0.11019485332E+04  0.63858760784E+03 0.  0.
         13    1    3    3    0    0  0.22029514206E+03  0.20472683997E+03  0.26393117123E+03  0.40012834411E+03  0.00000000000E+00 0. -1.
          2    1    3    3  501    0 -0.22029514206E+03 -0.20472683997E+03  0.63412029555E+03  0.70182018911E+03  0.00000000000E+00 0. -1.
<mgrwt>
<rscale>  0 0.63858761E+03</rscale>
<asrwt>0</asrwt>
<pdfrwt beam="1">0</pdfrwt>
<pdfrwt beam="2">  1        2 0.37072272E+00 0.63858761E+03</pdfrwt>
<totfact> 0.51177886E+00</totfact>
</mgrwt>
</event>
<event>
 5    1  0.2343702E-004  0.6449076E+03  0.7818608E-02  0.9816382E-01
         13   -1    0    0    0    0  0.00000000000E+00  0.00000000000E+00  0.10000000000E+04  0.10000000000E+04  0.00000000000E+00 0. -1.
          2   -1    0    0  501    0 -0.00000000000E+00 -0.00000000000E+00 -0.10397644690E+03  0.10397644690E+03  0.00000000000E+00 0. -1.
    9000006    2    1    2  501    0  0.00000000000E+00  0.00000000000E+00  0.89602355310E+03  0.11039764469E+04  0.64490758066E+03 0.  0.
         13    1    3    3    0    0  0.14140118916E+02 -0.24986133532E+03  0.99932541994E+02  0.26947568128E+03  0.00000000000E+00 0. -1.
          2    1    3    3  501    0 -0.14140118916E+02  0.24986133532E+03  0.79609101111E+03  0.83450076562E+03  0.00000000000E+00 0. -1.
<mgrwt>
<rscale>  0 0.64490758E+03</rscale>
<asrwt>0</asrwt>
<pdfrwt beam="1">0</pdfrwt>
<pdfrwt beam="2">  1        2 0.37809697E+00 0.64490758E+03</pdfrwt>
<totfact> 0.48059161E+00</totfact>
</mgrwt>
</event>
<event>
 5    1  0.2343702E-004  0.6491362E+03  0.7818608E-02  0.9808401E-01
         13   -1    0    0    0    0  0.00000000000E+00  0.00000000000E+00  0.10000000000E+04  0.10000000000E+04  0.00000000000E+00 0. -1.
          2   -1    0    0  501    0 -0.00000000000E+00 -0.00000000000E+00 -0.10534444493E+03  0.10534444493E+03  0.00000000000E+00 0. -1.
    9000006    2    1    2  501    0  0.00000000000E+00  0.00000000000E+00  0.89465555507E+03  0.11053444449E+04  0.64913617964E+03 0.  0.
         13    1    3    3    0    0  0.24440013180E+03 -0.27880293091E+02  0.86770851618E+02  0.26084078642E+03  0.00000000000E+00 0. -1.
          2    1    3    3  501    0 -0.24440013180E+03  0.27880293091E+02  0.80788470345E+03  0.84450365851E+03  0.00000000000E+00 0. -1.
<mgrwt>
<rscale>  0 0.64913618E+03</rscale>
<asrwt>0</asrwt>
<pdfrwt beam="1">0</pdfrwt>
<pdfrwt beam="2">  1        2 0.38307152E+00 0.64913618E+03</pdfrwt>
<totfact> 0.46054402E+00</totfact>
</mgrwt>
</event>
<event>
 5    1  0.2343702E-004  0.6402605E+03  0.7818608E-02  0.9825228E-01
         13   -1    0    0    0    0  0.00000000000E+00  0.00000000000E+00  0.10000000000E+04  0.10000000000E+04  0.00000000000E+00 0. -1.
          2   -1    0    0  501    0 -0.00000000000E+00 -0.00000000000E+00 -0.10248336398E+03  0.10248336398E+03  0.00000000000E+00 0. -1.
    9000006    2    1    2  501    0  0.00000000000E+00  0.00000000000E+00  0.89751663602E+03  0.11024833640E+04  0.64026045944E+03 0.  0.
         13    1    3    3    0    0  0.22087513014E+02  0.29017342820E+03  0.67845936992E+03  0.73823816841E+03  0.00000000000E+00 0. -1.
          2    1    3    3  501    0 -0.22087513014E+02 -0.29017342820E+03  0.21905726610E+03  0.36424519557E+03  0.00000000000E+00 0. -1.
<mgrwt>
<rscale>  0 0.64026046E+03</rscale>
<asrwt>0</asrwt>
<pdfrwt beam="1">0</pdfrwt>
<pdfrwt beam="2">  1        2 0.37266756E+00 0.64026046E+03</pdfrwt>
<totfact> 0.50337871E+00</totfact>
</mgrwt>
</event>
<event>
 5    1  0.2343702E-004  0.6514602E+03  0.7818608E-02  0.9804043E-01
         13   -1    0    0    0    0  0.00000000000E+00  0.00000000000E+00  0.10000000000E+04  0.10000000000E+04  0.00000000000E+00 0. -1.
          2   -1    0    0  501    0 -0.00000000000E+00 -0.00000000000E+00 -0.10610009620E+03  0.10610009620E+03  0.00000000000E+00 0. -1.
    9000006    2    1    2  501    0  0.00000000000E+00  0.00000000000E+00  0.89389990380E+03  0.11061000962E+04  0.65146019433E+03 0.  0.
         13    1    3    3    0    0 -0.26378437860E+03 -0.28761593278E+02  0.12618723214E+03  0.29382417395E+03  0.00000000000E+00 0. -1.
          2    1    3    3  501    0  0.26378437860E+03  0.28761593278E+02  0.76771267166E+03  0.81227592225E+03  0.00000000000E+00 0. -1.
<mgrwt>
<rscale>  0 0.65146019E+03</rscale>
<asrwt>0</asrwt>
<pdfrwt beam="1">0</pdfrwt>
<pdfrwt beam="2">  1        2 0.38581935E+00 0.65146019E+03</pdfrwt>
<totfact> 0.44979887E+00</totfact>
</mgrwt>
</event>
<event>
 5    1  0.2343702E-004  0.6556302E+03  0.7818608E-02  0.9796271E-01
         13   -1    0    0    0    0  0.00000000000E+00  0.00000000000E+00  0.10000000000E+04  0.10000000000E+04  0.00000000000E+00 0. -1.
          2   -1    0    0  501    0 -0.00000000000E+00 -0.00000000000E+00 -0.10746274669E+03  0.10746274669E+03  0.00000000000E+00 0. -1.
    9000006    2    1    2  501    0  0.00000000000E+00  0.00000000000E+00  0.89253725331E+03  0.11074627467E+04  0.65563022107E+03 0.  0.
         13    1    3    3    0    0 -0.26727717068E+03 -0.67932245432E+02  0.74563991757E+03  0.79500362428E+03  0.00000000000E+00 0. -1.
          2    1    3    3  501    0  0.26727717068E+03  0.67932245432E+02  0.14689733574E+03  0.31245912242E+03  0.00000000000E+00 0. -1.
<mgrwt>
<rscale>  0 0.65563022E+03</rscale>
<asrwt>0</asrwt>
<pdfrwt beam="1">0</pdfrwt>
<pdfrwt beam="2">  1        2 0.39077445E+00 0.65563022E+03</pdfrwt>
<totfact> 0.43099465E+00</totfact>
</mgrwt>
</event>
<event>
 5    1  0.2343702E-004  0.6480971E+03  0.7818608E-02  0.9810356E-01
         13   -1    0    0    0    0  0.00000000000E+00  0.00000000000E+00  0.10000000000E+04  0.10000000000E+04  0.00000000000E+00 0. -1.
          2   -1    0    0  501    0 -0.00000000000E+00 -0.00000000000E+00 -0.10500744660E+03  0.10500744660E+03  0.00000000000E+00 0. -1.
    9000006    2    1    2  501    0  0.00000000000E+00  0.00000000000E+00  0.89499255340E+03  0.11050074466E+04  0.64809705014E+03 0.  0.
         13    1    3    3    0    0  0.17595207941E+03  0.37052341830E+02  0.90713751277E+03  0.92478671993E+03  0.00000000000E+00 0. -1.
          2    1    3    3  501    0 -0.17595207941E+03 -0.37052341830E+02 -0.12144959369E+02  0.18022072667E+03  0.00000000000E+00 0. -1.
<mgrwt>
<rscale>  0 0.64809705E+03</rscale>
<asrwt>0</asrwt>
<pdfrwt beam="1">0</pdfrwt>
<pdfrwt beam="2">  1        2 0.38184607E+00 0.64809705E+03</pdfrwt>
<totfact> 0.46541073E+00</totfact>
</mgrwt>
</event>
<event>
 5    1  0.2343702E-004  0.6556809E+03  0.7818608E-02  0.9796177E-01
         13   -1    0    0    0    0  0.00000000000E+00  0.00000000000E+00  0.10000000000E+04  0.10000000000E+04  0.00000000000E+00 0. -1.
          2   -1    0    0  501    0 -0.00000000000E+00 -0.00000000000E+00 -0.10747934942E+03  0.10747934942E+03  0.00000000000E+00 0. -1.
    9000006    2    1    2  501    0  0.00000000000E+00  0.00000000000E+00  0.89252065058E+03  0.11074793494E+04  0.65568086574E+03 0.  0.
         13    1    3    3    0    0 -0.18847536604E+03  0.85462349548E+02  0.16787160869E+02  0.20762607150E+03  0.00000000000E+00 0. -1.
          2    1    3    3  501    0  0.18847536604E+03 -0.85462349548E+02  0.87573348971E+03  0.89985327792E+03  0.00000000000E+00 0. -1.
<mgrwt>
<rscale>  0 0.65568087E+03</rscale>
<asrwt>0</asrwt>
<pdfrwt beam="1">0</pdfrwt>
<pdfrwt beam="2">  1        2 0.39083482E+00 0.65568087E+03</pdfrwt>
<totfact> 0.43076999E+00</totfact>
</mgrwt>
</event>
<event>
 5    1  0.2343702E-004  0.6561084E+03  0.7818608E-02  0.9795384E-01
         13   -1    0    0    0    0  0.00000000000E+00  0.00000000000E+00  0.10000000000E+04  0.10000000000E+04  0.00000000000E+00 0. -1.
          2   -1    0    0  501    0 -0.00000000000E+00 -0.00000000000E+00 -0.10761957096E+03  0.10761957096E+03  0.00000000000E+00 0. -1.
    9000006    2    1    2  501    0  0.00000000000E+00  0.00000000000E+00  0.89238042904E+03  0.11076195710E+04  0.65610843908E+03 0.  0.
         13    1    3    3    0    0  0.11691423065E+03  0.96515027609E+02 -0.44933873897E+02  0.15812381511E+03  0.00000000000E+00 0. -1.
          4    1    3    3  501    0 -0.11691423065E+03 -0.96515027609E+02  0.93731430294E+03  0.94949575585E+03  0.00000000000E+00 0. -1.
<mgrwt>
<rscale>  0 0.65610844E+03</rscale>
<asrwt>0</asrwt>
<pdfrwt beam="1">0</pdfrwt>
<pdfrwt beam="2">  1        2 0.39134472E+00 0.65610844E+03</pdfrwt>
<totfact> 0.42887677E+00</totfact>
</mgrwt>
</event>
<event>
 5    1  0.2343702E-004  0.6487829E+03  0.7818608E-02  0.9809066E-01
         13   -1    0    0    0    0  0.00000000000E+00  0.00000000000E+00  0.10000000000E+04  0.10000000000E+04  0.00000000000E+00 0. -1.
          2   -1    0    0  501    0 -0.00000000000E+00 -0.00000000000E+00 -0.10522982651E+03  0.10522982651E+03  0.00000000000E+00 0. -1.
    9000006    2    1    2  501    0  0.00000000000E+00  0.00000000000E+00  0.89477017349E+03  0.11052298265E+04  0.64878294217E+03 0.  0.
         13    1    3    3    0    0 -0.25289766580E+03 -0.10102967396E+03  0.74764203178E+03  0.79569644468E+03  0.00000000000E+00 0. -1.
          2    1    3    3  501    0  0.25289766580E+03  0.10102967396E+03  0.14712814171E+03  0.30953338184E+03  0.00000000000E+00 0. -1.
<mgrwt>
<rscale>  0 0.64878294E+03</rscale>
<asrwt>0</asrwt>
<pdfrwt beam="1">0</pdfrwt>
<pdfrwt beam="2">  1        2 0.38265472E+00 0.64878294E+03</pdfrwt>
<totfact> 0.46219405E+00</totfact>
</mgrwt>
</event>
<event>
 5    1  0.2343702E-004  0.6578264E+03  0.7818608E-02  0.9792203E-01
         13   -1    0    0    0    0  0.00000000000E+00  0.00000000000E+00  0.10000000000E+04  0.10000000000E+04  0.00000000000E+00 0. -1.
          2   -1    0    0  501    0 -0.00000000000E+00 -0.00000000000E+00 -0.10818390228E+03  0.10818390228E+03  0.00000000000E+00 0. -1.
    9000006    2    1    2  501    0  0.00000000000E+00  0.00000000000E+00  0.89181609772E+03  0.11081839023E+04  0.65782642781E+03 0.  0.
         13    1    3    3    0    0 -0.30306206619E+03 -0.10395640075E+03  0.32062943227E+03  0.45327340762E+03  0.00000000000E+00 0. -1.
          2    1    3    3  501    0  0.30306206619E+03  0.10395640075E+03  0.57118666545E+03  0.65491049466E+03  0.00000000000E+00 0. -1.
<mgrwt>
<rscale>  0 0.65782643E+03</rscale>
<asrwt>0</asrwt>
<pdfrwt beam="1">0</pdfrwt>
<pdfrwt beam="2">  1        2 0.39339684E+00 0.65782643E+03</pdfrwt>
<totfact> 0.42133312E+00</totfact>
</mgrwt>
</event>
<event>
 5    1  0.2343702E-004  0.6548231E+03  0.7818608E-02  0.9797771E-01
         13   -1    0    0    0    0  0.00000000000E+00  0.00000000000E+00  0.10000000000E+04  0.10000000000E+04  0.00000000000E+00 0. -1.
          2   -1    0    0  501    0 -0.00000000000E+00 -0.00000000000E+00 -0.10719832753E+03  0.10719832753E+03  0.00000000000E+00 0. -1.
    9000006    2    1    2  501    0  0.00000000000E+00  0.00000000000E+00  0.89280167247E+03  0.11071983275E+04  0.65482311363E+03 0.  0.
         13    1    3    3    0    0 -0.20041089864E+03  0.11027084112E+03  0.84248300138E+03  0.87298441814E+03  0.00000000000E+00 0. -1.
          4    1    3    3  501    0  0.20041089864E+03 -0.11027084112E+03  0.50318671087E+02  0.23421390940E+03  0.00000000000E+00 0. -1.
<mgrwt>
<rscale>  0 0.65482311E+03</rscale>
<asrwt>0</asrwt>
<pdfrwt beam="1">0</pdfrwt>
<pdfrwt beam="2">  1        2 0.38981292E+00 0.65482311E+03</pdfrwt>
<totfact> 0.43458697E+00</totfact>
</mgrwt>
</event>
<event>
 5    1  0.2343702E-004  0.6565715E+03  0.7818608E-02  0.9794526E-01
         13   -1    0    0    0    0  0.00000000000E+00  0.00000000000E+00  0.10000000000E+04  0.10000000000E+04  0.00000000000E+00 0. -1.
          2   -1    0    0  501    0 -0.00000000000E+00 -0.00000000000E+00 -0.10777153022E+03  0.10777153022E+03  0.00000000000E+00 0. -1.
    9000006    2    1    2  501    0  0.00000000000E+00  0.00000000000E+00  0.89222846978E+03  0.11077715302E+04  0.65657148953E+03 0.  0.
         13    1    3    3    0    0 -0.16676126893E+03 -0.53067902537E+02  0.91473864392E+03  0.93132825028E+03  0.00000000000E+00 0. -1.
          2    1    3    3  501    0  0.16676126893E+03  0.53067902537E+02 -0.22510174137E+02  0.17644327993E+03  0.00000000000E+00 0. -1.
<mgrwt>
<rscale>  0 0.65657149E+03</rscale>
<asrwt>0</asrwt>
<pdfrwt beam="1">0</pdfrwt>
<pdfrwt beam="2">  1        2 0.39189730E+00 0.65657149E+03</pdfrwt>
<totfact> 0.42683357E+00</totfact>
</mgrwt>
</event>
<event>
 5    1  0.2343702E-004  0.6496283E+03  0.7818608E-02  0.9807477E-01
         13   -1    0    0    0    0  0.00000000000E+00  0.00000000000E+00  0.10000000000E+04  0.10000000000E+04  0.00000000000E+00 0. -1.
          2   -1    0    0  501    0 -0.00000000000E+00 -0.00000000000E+00 -0.10550423152E+03  0.10550423152E+03  0.00000000000E+00 0. -1.
    9000006    2    1    2  501    0  0.00000000000E+00  0.00000000000E+00  0.89449576848E+03  0.11055042315E+04  0.64962829841E+03 0.  0.
         13    1    3    3    0    0  0.10693760998E+03  0.30643027201E+03  0.42512073170E+03  0.53484839025E+03  0.00000000000E+00 0. -1.
          4    1    3    3  501    0 -0.10693760998E+03 -0.30643027201E+03  0.46937503677E+03  0.57065584127E+03  0.00000000000E+00 0. -1.
<mgrwt>
<rscale>  0 0.64962830E+03</rscale>
<asrwt>0</asrwt>
<pdfrwt beam="1">0</pdfrwt>
<pdfrwt beam="2">  1        2 0.38365256E+00 0.64962830E+03</pdfrwt>
<totfact> 0.45825268E+00</totfact>
</mgrwt>
</event>
<event>
 5    1  0.2343702E-004  0.6456401E+03  0.7818608E-02  0.9814995E-01
         13   -1    0    0    0    0  0.00000000000E+00  0.00000000000E+00  0.10000000000E+04  0.10000000000E+04  0.00000000000E+00 0. -1.
          2   -1    0    0  501    0 -0.00000000000E+00 -0.00000000000E+00 -0.10421277387E+03  0.10421277387E+03  0.00000000000E+00 0. -1.
    9000006    2    1    2  501    0  0.00000000000E+00  0.00000000000E+00  0.89578722613E+03  0.11042127739E+04  0.64564006649E+03 0.  0.
         13    1    3    3    0    0 -0.41494346010E+02 -0.15150580053E+03 -0.34439254293E+02  0.16081620124E+03  0.00000000000E+00 0. -1.
          4    1    3    3  501    0  0.41494346010E+02  0.15150580053E+03  0.93022648043E+03  0.94339657262E+03  0.00000000000E+00 0. -1.
<mgrwt>
<rscale>  0 0.64564007E+03</rscale>
<asrwt>0</asrwt>
<pdfrwt beam="1">0</pdfrwt>
<pdfrwt beam="2">  1        2 0.37895634E+00 0.64564007E+03</pdfrwt>
<totfact> 0.47707256E+00</totfact>
</mgrwt>
</event>
<event>
 5    1  0.2343702E-004  0.6544338E+03  0.7818608E-02  0.9798495E-01
         13   -1    0    0    0    0  0.00000000000E+00  0.00000000000E+00  0.10000000000E+04  0.10000000000E+04  0.00000000000E+00 0. -1.
          2   -1    0    0  501    0 -0.00000000000E+00 -0.00000000000E+00 -0.10707090639E+03  0.10707090639E+03  0.00000000000E+00 0. -1.
    9000006    2    1    2  501    0  0.00000000000E+00  0.00000000000E+00  0.89292909361E+03  0.11070709064E+04  0.65443382062E+03 0.  0.
         13    1    3    3    0    0  0.17500792480E+03 -0.18190606657E+03  0.79869010100E+03  0.83762967249E+03  0.00000000000E+00 0. -1.
          4    1    3    3  501    0 -0.17500792480E+03  0.18190606657E+03  0.94238992608E+02  0.26944123390E+03  0.00000000000E+00 0. -1.
<mgrwt>
<rscale>  0 0.65443382E+03</rscale>
<asrwt>0</asrwt>
<pdfrwt beam="1">0</pdfrwt>
<pdfrwt beam="2">  1        2 0.38934957E+00 0.65443382E+03</pdfrwt>
<totfact> 0.43632772E+00</totfact>
</mgrwt>
</event>
<event>
 5    1  0.2343702E-004  0.6698446E+03  0.7818608E-02  0.9770239E-01
         13   -1    0    0    0    0  0.00000000000E+00  0.00000000000E+00  0.10000000000E+04  0.10000000000E+04  0.00000000000E+00 0. -1.
          2   -1    0    0  501    0 -0.00000000000E+00 -0.00000000000E+00 -0.11217295617E+03  0.11217295617E+03  0.00000000000E+00 0. -1.
    9000006    2    1    2  501    0  0.00000000000E+00  0.00000000000E+00  0.88782704383E+03  0.11121729562E+04  0.66984462725E+03 0.  0.
         13    1    3    3    0    0 -0.13622840863E+03  0.83469184510E+02 -0.44825147126E+02  0.16593546305E+03  0.00000000000E+00 0. -1.
          2    1    3    3  501    0  0.13622840863E+03 -0.83469184510E+02  0.93265219096E+03  0.94623749312E+03  0.00000000000E+00 0. -1.
<mgrwt>
<rscale>  0 0.66984463E+03</rscale>
<asrwt>0</asrwt>
<pdfrwt beam="1">0</pdfrwt>
<pdfrwt beam="2">  1        2 0.40790252E+00 0.66984463E+03</pdfrwt>
<totfact> 0.37132719E+00</totfact>
</mgrwt>
</event>
<event>
 5    1  0.2343702E-004  0.6219515E+03  0.7818608E-02  0.9860882E-01
         13   -1    0    0    0    0  0.00000000000E+00  0.00000000000E+00  0.10000000000E+04  0.10000000000E+04  0.00000000000E+00 0. -1.
          2   -1    0    0  501    0 -0.00000000000E+00 -0.00000000000E+00 -0.96705922860E+02  0.96705922860E+02  0.00000000000E+00 0. -1.
    9000006    2    1    2  501    0  0.00000000000E+00  0.00000000000E+00  0.90329407714E+03  0.10967059229E+04  0.62195151856E+03 0.  0.
         13    1    3    3    0    0  0.90225535993E+01  0.27169293672E+03  0.71794764803E+03  0.76768957506E+03  0.00000000000E+00 0. -1.
          4    1    3    3  501    0 -0.90225535993E+01 -0.27169293672E+03  0.18534642911E+03  0.32901634780E+03  0.00000000000E+00 0. -1.
<mgrwt>
<rscale>  0 0.62195152E+03</rscale>
<asrwt>0</asrwt>
<pdfrwt beam="1">0</pdfrwt>
<pdfrwt beam="2">  1        2 0.35165864E+00 0.62195152E+03</pdfrwt>
<totfact> 0.60122969E+00</totfact>
</mgrwt>
</event>
<event>
 5    1  0.2343702E-004  0.6611906E+03  0.7818608E-02  0.9786005E-01
         13   -1    0    0    0    0  0.00000000000E+00  0.00000000000E+00  0.10000000000E+04  0.10000000000E+04  0.00000000000E+00 0. -1.
          2   -1    0    0  501    0 -0.00000000000E+00 -0.00000000000E+00 -0.10929324402E+03  0.10929324402E+03  0.00000000000E+00 0. -1.
    9000006    2    1    2  501    0  0.00000000000E+00  0.00000000000E+00  0.89070675598E+03  0.11092932440E+04  0.66119057472E+03 0.  0.
         13    1    3    3    0    0 -0.68565199620E+02  0.30540064996E+03  0.62387502580E+03  0.69799053820E+03  0.00000000000E+00 0. -1.
          4    1    3    3  501    0  0.68565199620E+02 -0.30540064996E+03  0.26683173017E+03  0.41130270583E+03  0.00000000000E+00 0. -1.
<mgrwt>
<rscale>  0 0.66119057E+03</rscale>
<asrwt>0</asrwt>
<pdfrwt beam="1">0</pdfrwt>
<pdfrwt beam="2">  1        2 0.39743082E+00 0.66119057E+03</pdfrwt>
<totfact> 0.40685285E+00</totfact>
</mgrwt>
</event>
<event>
 5    1  0.2343702E-004  0.6436978E+03  0.7818608E-02  0.9818677E-01
         13   -1    0    0    0    0  0.00000000000E+00  0.00000000000E+00  0.10000000000E+04  0.10000000000E+04  0.00000000000E+00 0. -1.
          2   -1    0    0  501    0 -0.00000000000E+00 -0.00000000000E+00 -0.10358672195E+03  0.10358672195E+03  0.00000000000E+00 0. -1.
    9000006    2    1    2  501    0  0.00000000000E+00  0.00000000000E+00  0.89641327805E+03  0.11035867219E+04  0.64369782335E+03 0.  0.
         13    1    3    3    0    0 -0.12473250390E+03 -0.92034980377E+02 -0.35371423972E+02  0.15899614076E+03  0.00000000000E+00 0. -1.
          4    1    3    3  501    0  0.12473250390E+03  0.92034980377E+02  0.93178470203E+03  0.94459058119E+03  0.00000000000E+00 0. -1.
<mgrwt>
<rscale>  0 0.64369782E+03</rscale>
<asrwt>0</asrwt>
<pdfrwt beam="1">0</pdfrwt>
<pdfrwt beam="2">  1        2 0.37667978E+00 0.64369782E+03</pdfrwt>
<totfact> 0.48644657E+00</totfact>
</mgrwt>
</event>
<event>
 5    1  0.2343702E-004  0.6479132E+03  0.7818608E-02  0.9810703E-01
         13   -1    0    0    0    0  0.00000000000E+00  0.00000000000E+00  0.10000000000E+04  0.10000000000E+04  0.00000000000E+00 0. -1.
          2   -1    0    0  501    0 -0.00000000000E+00 -0.00000000000E+00 -0.10494787747E+03  0.10494787747E+03  0.00000000000E+00 0. -1.
    9000006    2    1    2  501    0  0.00000000000E+00  0.00000000000E+00  0.89505212253E+03  0.11049478775E+04  0.64791319625E+03 0.  0.
         13    1    3    3    0    0  0.11569368739E+03 -0.30044225665E+03  0.50895102925E+03  0.60223062780E+03  0.00000000000E+00 0. -1.
          4    1    3    3  501    0 -0.11569368739E+03  0.30044225665E+03  0.38610109328E+03  0.50271724967E+03  0.00000000000E+00 0. -1.
<mgrwt>
<rscale>  0 0.64791320E+03</rscale>
<asrwt>0</asrwt>
<pdfrwt beam="1">0</pdfrwt>
<pdfrwt beam="2">  1        2 0.38162945E+00 0.64791320E+03</pdfrwt>
<totfact> 0.46627584E+00</totfact>
</mgrwt>
</event>
<event>
 5    1  0.2343702E-004  0.6546168E+03  0.7818608E-02  0.9798154E-01
         13   -1    0    0    0    0  0.00000000000E+00  0.00000000000E+00  0.10000000000E+04  0.10000000000E+04  0.00000000000E+00 0. -1.
          2   -1    0    0  501    0 -0.00000000000E+00 -0.00000000000E+00 -0.10713080236E+03  0.10713080236E+03  0.00000000000E+00 0. -1.
    9000006    2    1    2  501    0  0.00000000000E+00  0.00000000000E+00  0.89286919764E+03  0.11071308024E+04  0.65461684169E+03 0.  0.
         13    1    3    3    0    0  0.78721205409E+02 -0.26769055034E+03  0.15705744415E+03  0.32019103623E+03  0.00000000000E+00 0. -1.
          4    1    3    3  501    0 -0.78721205409E+02  0.26769055034E+03  0.73581175350E+03  0.78693976612E+03  0.00000000000E+00 0. -1.
<mgrwt>
<rscale>  0 0.65461684E+03</rscale>
<asrwt>0</asrwt>
<pdfrwt beam="1">0</pdfrwt>
<pdfrwt beam="2">  1        2 0.38956738E+00 0.65461684E+03</pdfrwt>
<totfact> 0.43550868E+00</totfact>
</mgrwt>
</event>
<event>
 5    1  0.2343702E-004  0.6547195E+03  0.7818608E-02  0.9797964E-01
         13   -1    0    0    0    0  0.00000000000E+00  0.00000000000E+00  0.10000000000E+04  0.10000000000E+04  0.00000000000E+00 0. -1.
          2   -1    0    0  501    0 -0.00000000000E+00 -0.00000000000E+00 -0.10716439610E+03  0.10716439610E+03  0.00000000000E+00 0. -1.
    9000006    2    1    2  501    0  0.00000000000E+00  0.00000000000E+00  0.89283560390E+03  0.11071643961E+04  0.65471947001E+03 0.  0.
         13    1    3    3    0    0 -0.53403858898E+02  0.21047326119E+03  0.86068550928E+03  0.88765450019E+03  0.00000000000E+00 0. -1.
          2    1    3    3  501    0  0.53403858898E+02 -0.21047326119E+03  0.32150094615E+02  0.21950989591E+03  0.00000000000E+00 0. -1.
<mgrwt>
<rscale>  0 0.65471947E+03</rscale>
<asrwt>0</asrwt>
<pdfrwt beam="1">0</pdfrwt>
<pdfrwt beam="2">  1        2 0.38968953E+00 0.65471947E+03</pdfrwt>
<totfact> 0.43504991E+00</totfact>
</mgrwt>
</event>
<event>
 5    1  0.2343702E-004  0.6463941E+03  0.7818608E-02  0.9813569E-01
         13   -1    0    0    0    0  0.00000000000E+00  0.00000000000E+00  0.10000000000E+04  0.10000000000E+04  0.00000000000E+00 0. -1.
          2   -1    0    0  501    0 -0.00000000000E+00 -0.00000000000E+00 -0.10445632161E+03  0.10445632161E+03  0.00000000000E+00 0. -1.
    9000006    2    1    2  501    0  0.00000000000E+00  0.00000000000E+00  0.89554367839E+03  0.11044563216E+04  0.64639406437E+03 0.  0.
         13    1    3    3    0    0  0.91582879767E+02 -0.25725085004E+03  0.15236491818E+03  0.31269872402E+03  0.00000000000E+00 0. -1.
          2    1    3    3  501    0 -0.91582879767E+02  0.25725085004E+03  0.74317876021E+03  0.79175759759E+03  0.00000000000E+00 0. -1.
<mgrwt>
<rscale>  0 0.64639406E+03</rscale>
<asrwt>0</asrwt>
<pdfrwt beam="1">0</pdfrwt>
<pdfrwt beam="2">  1        2 0.37984197E+00 0.64639406E+03</pdfrwt>
<totfact> 0.47347055E+00</totfact>
</mgrwt>
</event>
<event>
 5    1  0.2343702E-004  0.5784514E+03  0.7818608E-02  0.9951149E-01
         13   -1    0    0    0    0  0.00000000000E+00  0.00000000000E+00  0.10000000000E+04  0.10000000000E+04  0.00000000000E+00 0. -1.
          2   -1    0    0  501    0 -0.00000000000E+00 -0.00000000000E+00 -0.83651500922E+02  0.83651500922E+02  0.00000000000E+00 0. -1.
    9000006    2    1    2  501    0  0.00000000000E+00  0.00000000000E+00  0.91634849908E+03  0.10836515009E+04  0.57845138403E+03 0.  0.
         13    1    3    3    0    0 -0.94236123683E+02 -0.25115838072E+03  0.25562076502E+03  0.37054413330E+03  0.00000000000E+00 0. -1.
          4    1    3    3  501    0  0.94236123683E+02  0.25115838072E+03  0.66072773405E+03  0.71310736762E+03  0.00000000000E+00 0. -1.
<mgrwt>
<rscale>  0 0.57845138E+03</rscale>
<asrwt>0</asrwt>
<pdfrwt beam="1">0</pdfrwt>
<pdfrwt beam="2">  1        2 0.30418792E+00 0.57845138E+03</pdfrwt>
<totfact> 0.89195450E+00</totfact>
</mgrwt>
</event>
<event>
 5    1  0.2343702E-004  0.6507301E+03  0.7818608E-02  0.9805410E-01
         13   -1    0    0    0    0  0.00000000000E+00  0.00000000000E+00  0.10000000000E+04  0.10000000000E+04  0.00000000000E+00 0. -1.
          2   -1    0    0  501    0 -0.00000000000E+00 -0.00000000000E+00 -0.10586242034E+03  0.10586242034E+03  0.00000000000E+00 0. -1.
    9000006    2    1    2  501    0  0.00000000000E+00  0.00000000000E+00  0.89413757966E+03  0.11058624203E+04  0.65073011408E+03 0.  0.
         13    1    3    3    0    0  0.23396238990E+03 -0.53381715903E+02  0.82045536142E+03  0.85483039696E+03  0.00000000000E+00 0. -1.
          2    1    3    3  501    0 -0.23396238990E+03  0.53381715903E+02  0.73682218240E+02  0.25103202338E+03  0.00000000000E+00 0. -1.
<mgrwt>
<rscale>  0 0.65073011E+03</rscale>
<asrwt>0</asrwt>
<pdfrwt beam="1">0</pdfrwt>
<pdfrwt beam="2">  1        2 0.38495507E+00 0.65073011E+03</pdfrwt>
<totfact> 0.45315378E+00</totfact>
</mgrwt>
</event>
<event>
 5    1  0.2343702E-004  0.6439950E+03  0.7818608E-02  0.9818113E-01
         13   -1    0    0    0    0  0.00000000000E+00  0.00000000000E+00  0.10000000000E+04  0.10000000000E+04  0.00000000000E+00 0. -1.
          2   -1    0    0  501    0 -0.00000000000E+00 -0.00000000000E+00 -0.10368239850E+03  0.10368239850E+03  0.00000000000E+00 0. -1.
    9000006    2    1    2  501    0  0.00000000000E+00  0.00000000000E+00  0.89631760150E+03  0.11036823985E+04  0.64399502637E+03 0.  0.
         13    1    3    3    0    0 -0.46725214278E+02  0.21789503845E+03  0.84648835588E+03  0.87533081179E+03  0.00000000000E+00 0. -1.
          2    1    3    3  501    0  0.46725214278E+02 -0.21789503845E+03  0.49829245623E+02  0.22835158670E+03  0.00000000000E+00 0. -1.
<mgrwt>
<rscale>  0 0.64399503E+03</rscale>
<asrwt>0</asrwt>
<pdfrwt beam="1">0</pdfrwt>
<pdfrwt beam="2">  1        2 0.37702770E+00 0.64399503E+03</pdfrwt>
<totfact> 0.48500320E+00</totfact>
</mgrwt>
</event>
<event>
 5    1  0.2343702E-004  0.6470832E+03  0.7818608E-02  0.9812268E-01
         13   -1    0    0    0    0  0.00000000000E+00  0.00000000000E+00  0.10000000000E+04  0.10000000000E+04  0.00000000000E+00 0. -1.
          2   -1    0    0  501    0 -0.00000000000E+00 -0.00000000000E+00 -0.10467917442E+03  0.10467917442E+03  0.00000000000E+00 0. -1.
    9000006    2    1    2  501    0  0.00000000000E+00  0.00000000000E+00  0.89532082558E+03  0.11046791744E+04  0.64708322315E+03 0.  0.
         13    1    3    3    0    0  0.11856471028E+03 -0.71403275712E+01 -0.66110659874E+02  0.13593819974E+03  0.00000000000E+00 0. -1.
          4    1    3    3  501    0 -0.11856471028E+03  0.71403275712E+01  0.96143148545E+03  0.96874097468E+03  0.00000000000E+00 0. -1.
<mgrwt>
<rscale>  0 0.64708322E+03</rscale>
<asrwt>0</asrwt>
<pdfrwt beam="1">0</pdfrwt>
<pdfrwt beam="2">  1        2 0.38065235E+00 0.64708322E+03</pdfrwt>
<totfact> 0.47019632E+00</totfact>
</mgrwt>
</event>
<event>
 5    1  0.2343702E-004  0.6406521E+03  0.7818608E-02  0.9824480E-01
         13   -1    0    0    0    0  0.00000000000E+00  0.00000000000E+00  0.10000000000E+04  0.10000000000E+04  0.00000000000E+00 0. -1.
          2   -1    0    0  501    0 -0.00000000000E+00 -0.00000000000E+00 -0.10260877991E+03  0.10260877991E+03  0.00000000000E+00 0. -1.
    9000006    2    1    2  501    0  0.00000000000E+00  0.00000000000E+00  0.89739122009E+03  0.11026087799E+04  0.64065210501E+03 0.  0.
         13    1    3    3    0    0  0.24602754642E+03 -0.15946124738E+03  0.67078291955E+03  0.73205680665E+03  0.00000000000E+00 0. -1.
          2    1    3    3  501    0 -0.24602754642E+03  0.15946124738E+03  0.22660830054E+03  0.37055197326E+03  0.00000000000E+00 0. -1.
<mgrwt>
<rscale>  0 0.64065211E+03</rscale>
<asrwt>0</asrwt>
<pdfrwt beam="1">0</pdfrwt>
<pdfrwt beam="2">  1        2 0.37312362E+00 0.64065211E+03</pdfrwt>
<totfact> 0.50142725E+00</totfact>
</mgrwt>
</event>
<event>
 5    1  0.2343702E-004  0.6492907E+03  0.7818608E-02  0.9808111E-01
         13   -1    0    0    0    0  0.00000000000E+00  0.00000000000E+00  0.10000000000E+04  0.10000000000E+04  0.00000000000E+00 0. -1.
          2   -1    0    0  501    0 -0.00000000000E+00 -0.00000000000E+00 -0.10539460009E+03  0.10539460009E+03  0.00000000000E+00 0. -1.
    9000006    2    1    2  501    0  0.00000000000E+00  0.00000000000E+00  0.89460539991E+03  0.11053946001E+04  0.64929069018E+03 0.  0.
         13    1    3    3    0    0 -0.13784438240E+03  0.21905309707E+03  0.78095657450E+03  0.82272626331E+03  0.00000000000E+00 0. -1.
          2    1    3    3  501    0  0.13784438240E+03 -0.21905309707E+03  0.11364882541E+03  0.28266833677E+03  0.00000000000E+00 0. -1.
<mgrwt>
<rscale>  0 0.64929069E+03</rscale>
<asrwt>0</asrwt>
<pdfrwt beam="1">0</pdfrwt>
<pdfrwt beam="2">  1        2 0.38325390E+00 0.64929069E+03</pdfrwt>
<totfact> 0.45982368E+00</totfact>
</mgrwt>
</event>
<event>
 5    1  0.2343702E-004  0.6460291E+03  0.7818608E-02  0.9814259E-01
         13   -1    0    0    0    0  0.00000000000E+00  0.00000000000E+00  0.10000000000E+04  0.10000000000E+04  0.00000000000E+00 0. -1.
          2   -1    0    0  501    0 -0.00000000000E+00 -0.00000000000E+00 -0.10433840289E+03  0.10433840289E+03  0.00000000000E+00 0. -1.
    9000006    2    1    2  501    0  0.00000000000E+00  0.00000000000E+00  0.89566159711E+03  0.11043384029E+04  0.64602911046E+03 0.  0.
         13    1    3    3    0    0  0.14080362435E+03  0.16325086066E+03  0.36637121997E+02  0.21867506224E+03  0.00000000000E+00 0. -1.
          4    1    3    3  501    0 -0.14080362435E+03 -0.16325086066E+03  0.85902447511E+03  0.88566334065E+03  0.00000000000E+00 0. -1.
<mgrwt>
<rscale>  0 0.64602911E+03</rscale>
<asrwt>0</asrwt>
<pdfrwt beam="1">0</pdfrwt>
<pdfrwt beam="2">  1        2 0.37941317E+00 0.64602911E+03</pdfrwt>
<totfact> 0.47521143E+00</totfact>
</mgrwt>
</event>
<event>
 5    1  0.2343702E-004  0.6306486E+03  0.7818608E-02  0.9843784E-01
         13   -1    0    0    0    0  0.00000000000E+00  0.00000000000E+00  0.10000000000E+04  0.10000000000E+04  0.00000000000E+00 0. -1.
          2   -1    0    0  501    0 -0.00000000000E+00 -0.00000000000E+00 -0.99429415488E+02  0.99429415488E+02  0.00000000000E+00 0. -1.
    9000006    2    1    2  501    0  0.00000000000E+00  0.00000000000E+00  0.90057058451E+03  0.10994294155E+04  0.63064860418E+03 0.  0.
         13    1    3    3    0    0 -0.18028714287E+03 -0.82400274874E+02  0.87779673805E+03  0.89990020142E+03  0.00000000000E+00 0. -1.
          4    1    3    3  501    0  0.18028714287E+03  0.82400274874E+02  0.22773846464E+02  0.19952921407E+03  0.00000000000E+00 0. -1.
<mgrwt>
<rscale>  0 0.63064860E+03</rscale>
<asrwt>0</asrwt>
<pdfrwt beam="1">0</pdfrwt>
<pdfrwt beam="2">  1        2 0.36156227E+00 0.63064860E+03</pdfrwt>
<totfact> 0.55310223E+00</totfact>
</mgrwt>
</event>
<event>
 5    1  0.2343702E-004  0.6489536E+03  0.7818608E-02  0.9808745E-01
         13   -1    0    0    0    0  0.00000000000E+00  0.00000000000E+00  0.10000000000E+04  0.10000000000E+04  0.00000000000E+00 0. -1.
          2   -1    0    0  501    0 -0.00000000000E+00 -0.00000000000E+00 -0.10528518930E+03  0.10528518930E+03  0.00000000000E+00 0. -1.
    9000006    2    1    2  501    0  0.00000000000E+00  0.00000000000E+00  0.89471481070E+03  0.11052851893E+04  0.64895358632E+03 0.  0.
         13    1    3    3    0    0 -0.24289367574E+03 -0.20921626100E+03  0.36191937693E+03  0.48348155806E+03  0.00000000000E+00 0. -1.
          2    1    3    3  501    0  0.24289367574E+03  0.20921626100E+03  0.53279543377E+03  0.62180363124E+03  0.00000000000E+00 0. -1.
<mgrwt>
<rscale>  0 0.64895359E+03</rscale>
<asrwt>0</asrwt>
<pdfrwt beam="1">0</pdfrwt>
<pdfrwt beam="2">  1        2 0.38285604E+00 0.64895359E+03</pdfrwt>
<totfact> 0.46139639E+00</totfact>
</mgrwt>
</event>
<event>
 5    1  0.2343702E-004  0.6528805E+03  0.7818608E-02  0.9801389E-01
         13   -1    0    0    0    0  0.00000000000E+00  0.00000000000E+00  0.10000000000E+04  0.10000000000E+04  0.00000000000E+00 0. -1.
          2   -1    0    0  501    0 -0.00000000000E+00 -0.00000000000E+00 -0.10656322583E+03  0.10656322583E+03  0.00000000000E+00 0. -1.
    9000006    2    1    2  501    0  0.00000000000E+00  0.00000000000E+00  0.89343677417E+03  0.11065632258E+04  0.65288046632E+03 0.  0.
         13    1    3    3    0    0 -0.11134394940E+03 -0.21234941956E+03  0.71256409360E+02  0.25013441773E+03  0.00000000000E+00 0. -1.
          2    1    3    3  501    0  0.11134394940E+03  0.21234941956E+03  0.82218036481E+03  0.85642880810E+03  0.00000000000E+00 0. -1.
<mgrwt>
<rscale>  0 0.65288047E+03</rscale>
<asrwt>0</asrwt>
<pdfrwt beam="1">0</pdfrwt>
<pdfrwt beam="2">  1        2 0.38750346E+00 0.65288047E+03</pdfrwt>
<totfact> 0.44332614E+00</totfact>
</mgrwt>
</event>
<event>
 5    1  0.2343702E-004  0.6905484E+03  0.7818608E-02  0.9733534E-01
         13   -1    0    0    0    0  0.00000000000E+00  0.00000000000E+00  0.10000000000E+04  0.10000000000E+04  0.00000000000E+00 0. -1.
          2   -1    0    0  501    0 -0.00000000000E+00 -0.00000000000E+00 -0.11921425720E+03  0.11921425720E+03  0.00000000000E+00 0. -1.
    9000006    2    1    2  501    0  0.00000000000E+00  0.00000000000E+00  0.88078574280E+03  0.11192142572E+04  0.69054835371E+03 0.  0.
         13    1    3    3    0    0  0.18762145464E+03  0.28070735751E+03  0.32334036870E+03  0.46749056122E+03  0.00000000000E+00 0. -1.
          2    1    3    3  501    0 -0.18762145464E+03 -0.28070735751E+03  0.55744537410E+03  0.65172369598E+03  0.00000000000E+00 0. -1.
<mgrwt>
<rscale>  0 0.69054835E+03</rscale>
<asrwt>0</asrwt>
<pdfrwt beam="1">0</pdfrwt>
<pdfrwt beam="2">  1        2 0.43350730E+00 0.69054835E+03</pdfrwt>
<totfact> 0.29582876E+00</totfact>
</mgrwt>
</event>
<event>
 5    1  0.2343702E-004  0.6318591E+03  0.7818608E-02  0.9841428E-01
         13   -1    0    0    0    0  0.00000000000E+00  0.00000000000E+00  0.10000000000E+04  0.10000000000E+04  0.00000000000E+00 0. -1.
          2   -1    0    0  501    0 -0.00000000000E+00 -0.00000000000E+00 -0.99811491477E+02  0.99811491477E+02  0.00000000000E+00 0. -1.
    9000006    2    1    2  501    0  0.00000000000E+00  0.00000000000E+00  0.90018850852E+03  0.10998114915E+04  0.63185913455E+03 0.  0.
         13    1    3    3    0    0  0.89804711687E+02  0.26503353191E+02 -0.75104966741E+02  0.12003362029E+03  0.00000000000E+00 0. -1.
          2    1    3    3  501    0 -0.89804711687E+02 -0.26503353191E+02  0.97529347526E+03  0.97977787118E+03  0.00000000000E+00 0. -1.
<mgrwt>
<rscale>  0 0.63185913E+03</rscale>
<asrwt>0</asrwt>
<pdfrwt beam="1">0</pdfrwt>
<pdfrwt beam="2">  1        2 0.36295164E+00 0.63185913E+03</pdfrwt>
<totfact> 0.54664335E+00</totfact>
</mgrwt>
</event>
<event>
 5    1  0.2343702E-004  0.6591072E+03  0.7818608E-02  0.9789839E-01
         13   -1    0    0    0    0  0.00000000000E+00  0.00000000000E+00  0.10000000000E+04  0.10000000000E+04  0.00000000000E+00 0. -1.
          2   -1    0    0  501    0 -0.00000000000E+00 -0.00000000000E+00 -0.10860557019E+03  0.10860557019E+03  0.00000000000E+00 0. -1.
    9000006    2    1    2  501    0  0.00000000000E+00  0.00000000000E+00  0.89139442981E+03  0.11086055702E+04  0.65910718457E+03 0.  0.
         13    1    3    3    0    0 -0.11566265333E+02  0.11901228233E+03 -0.70832100760E+02  0.13897801387E+03  0.00000000000E+00 0. -1.
          4    1    3    3  501    0  0.11566265333E+02 -0.11901228233E+03  0.96222653057E+03  0.96962755632E+03  0.00000000000E+00 0. -1.
<mgrwt>
<rscale>  0 0.65910718E+03</rscale>
<asrwt>0</asrwt>
<pdfrwt beam="1">0</pdfrwt>
<pdfrwt beam="2">  1        2 0.39493018E+00 0.65910718E+03</pdfrwt>
<totfact> 0.41577518E+00</totfact>
</mgrwt>
</event>
<event>
 5    1  0.2343702E-004  0.6808472E+03  0.7818608E-02  0.9750558E-01
         13   -1    0    0    0    0  0.00000000000E+00  0.00000000000E+00  0.10000000000E+04  0.10000000000E+04  0.00000000000E+00 0. -1.
          2   -1    0    0  501    0 -0.00000000000E+00 -0.00000000000E+00 -0.11588824150E+03  0.11588824150E+03  0.00000000000E+00 0. -1.
    9000006    2    1    2  501    0  0.00000000000E+00  0.00000000000E+00  0.88411175850E+03  0.11158882415E+04  0.68084724132E+03 0.  0.
         13    1    3    3    0    0 -0.54753371176E+02 -0.11461028585E+03  0.95970788770E+03  0.96807679395E+03  0.00000000000E+00 0. -1.
          2    1    3    3  501    0  0.54753371176E+02  0.11461028585E+03 -0.75596129202E+02  0.14781144755E+03  0.00000000000E+00 0. -1.
<mgrwt>
<rscale>  0 0.68084724E+03</rscale>
<asrwt>0</asrwt>
<pdfrwt beam="1">0</pdfrwt>
<pdfrwt beam="2">  1        2 0.42141268E+00 0.68084724E+03</pdfrwt>
<totfact> 0.32959879E+00</totfact>
</mgrwt>
</event>
<event>
 5    1  0.2343702E-004  0.6453317E+03  0.7818608E-02  0.9815579E-01
         13   -1    0    0    0    0  0.00000000000E+00  0.00000000000E+00  0.10000000000E+04  0.10000000000E+04  0.00000000000E+00 0. -1.
          2   -1    0    0  501    0 -0.00000000000E+00 -0.00000000000E+00 -0.10411324157E+03  0.10411324157E+03  0.00000000000E+00 0. -1.
    9000006    2    1    2  501    0  0.00000000000E+00  0.00000000000E+00  0.89588675843E+03  0.11041132416E+04  0.64533167154E+03 0.  0.
         13    1    3    3    0    0 -0.18956247423E+02 -0.31015192229E+03  0.59670214138E+03  0.67276072994E+03  0.00000000000E+00 0. -1.
          2    1    3    3  501    0  0.18956247423E+02  0.31015192229E+03  0.29918461705E+03  0.43135251164E+03  0.00000000000E+00 0. -1.
<mgrwt>
<rscale>  0 0.64533167E+03</rscale>
<asrwt>0</asrwt>
<pdfrwt beam="1">0</pdfrwt>
<pdfrwt beam="2">  1        2 0.37859440E+00 0.64533167E+03</pdfrwt>
<totfact> 0.47855178E+00</totfact>
</mgrwt>
</event>
<event>
 5    1  0.2343702E-004  0.6647117E+03  0.7818608E-02  0.9779559E-01
         13   -1    0    0    0    0  0.00000000000E+00  0.00000000000E+00  0.10000000000E+04  0.10000000000E+04  0.00000000000E+00 0. -1.
          2   -1    0    0  501    0 -0.00000000000E+00 -0.00000000000E+00 -0.11046041214E+03  0.11046041214E+03  0.00000000000E+00 0. -1.
    9000006    2    1    2  501    0  0.00000000000E+00  0.00000000000E+00  0.88953958786E+03  0.11104604121E+04  0.66471170335E+03 0.  0.
         13    1    3    3    0    0  0.71849437594E+02  0.23487501800E+03  0.70722610566E+02  0.25559793311E+03  0.00000000000E+00 0. -1.
          2    1    3    3  501    0 -0.71849437594E+02 -0.23487501800E+03  0.81881697729E+03  0.85486247904E+03  0.00000000000E+00 0. -1.
<mgrwt>
<rscale>  0 0.66471170E+03</rscale>
<asrwt>0</asrwt>
<pdfrwt beam="1">0</pdfrwt>
<pdfrwt beam="2">  1        2 0.40167507E+00 0.66471170E+03</pdfrwt>
<totfact> 0.39210259E+00</totfact>
</mgrwt>
</event>
<event>
 5    1  0.2343702E-004  0.6142883E+03  0.7818608E-02  0.9876198E-01
         13   -1    0    0    0    0  0.00000000000E+00  0.00000000000E+00  0.10000000000E+04  0.10000000000E+04  0.00000000000E+00 0. -1.
          2   -1    0    0  501    0 -0.00000000000E+00 -0.00000000000E+00 -0.94337539706E+02  0.94337539706E+02  0.00000000000E+00 0. -1.
    9000006    2    1    2  501    0  0.00000000000E+00  0.00000000000E+00  0.90566246029E+03  0.10943375397E+04  0.61428833525E+03 0.  0.
         13    1    3    3    0    0  0.72778091410E+02  0.28541304114E+03  0.60793480149E+03  0.67553088568E+03  0.00000000000E+00 0. -1.
          4    1    3    3  501    0 -0.72778091410E+02 -0.28541304114E+03  0.29772765880E+03  0.41880665403E+03  0.00000000000E+00 0. -1.
<mgrwt>
<rscale>  0 0.61428834E+03</rscale>
<asrwt>0</asrwt>
<pdfrwt beam="1">0</pdfrwt>
<pdfrwt beam="2">  1        2 0.34304632E+00 0.61428834E+03</pdfrwt>
<totfact> 0.64621997E+00</totfact>
</mgrwt>
</event>
<event>
 5    1  0.2343702E-004  0.6427710E+03  0.7818608E-02  0.9820439E-01
         13   -1    0    0    0    0  0.00000000000E+00  0.00000000000E+00  0.10000000000E+04  0.10000000000E+04  0.00000000000E+00 0. -1.
          2   -1    0    0  501    0 -0.00000000000E+00 -0.00000000000E+00 -0.10328864944E+03  0.10328864944E+03  0.00000000000E+00 0. -1.
    9000006    2    1    2  501    0  0.00000000000E+00  0.00000000000E+00  0.89671135056E+03  0.11032886494E+04  0.64277103059E+03 0.  0.
         13    1    3    3    0    0 -0.24484693584E+03 -0.20754485416E+03  0.42047918348E+03  0.52898736490E+03  0.00000000000E+00 0. -1.
          2    1    3    3  501    0  0.24484693584E+03  0.20754485416E+03  0.47623216707E+03  0.57430128455E+03  0.00000000000E+00 0. -1.
<mgrwt>
<rscale>  0 0.64277103E+03</rscale>
<asrwt>0</asrwt>
<pdfrwt beam="1">0</pdfrwt>
<pdfrwt beam="2">  1        2 0.37559588E+00 0.64277103E+03</pdfrwt>
<totfact> 0.49096845E+00</totfact>
</mgrwt>
</event>
<event>
 5    1  0.2343702E-004  0.6511991E+03  0.7818608E-02  0.9804532E-01
         13   -1    0    0    0    0  0.00000000000E+00  0.00000000000E+00  0.10000000000E+04  0.10000000000E+04  0.00000000000E+00 0. -1.
          2   -1    0    0  501    0 -0.00000000000E+00 -0.00000000000E+00 -0.10601508039E+03  0.10601508039E+03  0.00000000000E+00 0. -1.
    9000006    2    1    2  501    0  0.00000000000E+00  0.00000000000E+00  0.89398491961E+03  0.11060150804E+04  0.65119914124E+03 0.  0.
         13    1    3    3    0    0 -0.15437602926E+03  0.59611118505E+02  0.92324835385E+03  0.93796213503E+03  0.00000000000E+00 0. -1.
          4    1    3    3  501    0  0.15437602926E+03 -0.59611118505E+02 -0.29263434240E+02  0.16805294536E+03  0.00000000000E+00 0. -1.
<mgrwt>
<rscale>  0 0.65119914E+03</rscale>
<asrwt>0</asrwt>
<pdfrwt beam="1">0</pdfrwt>
<pdfrwt beam="2">  1        2 0.38551020E+00 0.65119914E+03</pdfrwt>
<totfact> 0.45099631E+00</totfact>
</mgrwt>
</event>
<event>
 5    1  0.2343702E-004  0.6447673E+03  0.7818608E-02  0.9816648E-01
         13   -1    0    0    0    0  0.00000000000E+00  0.00000000000E+00  0.10000000000E+04  0.10000000000E+04  0.00000000000E+00 0. -1.
          2   -1    0    0  501    0 -0.00000000000E+00 -0.00000000000E+00 -0.10393120497E+03  0.10393120497E+03  0.00000000000E+00 0. -1.
    9000006    2    1    2  501    0  0.00000000000E+00  0.00000000000E+00  0.89606879503E+03  0.11039312050E+04  0.64476726025E+03 0.  0.
         13    1    3    3    0    0  0.25736656199E+03  0.17645794269E+03  0.58666747325E+03  0.66449505411E+03  0.00000000000E+00 0. -1.
          4    1    3    3  501    0 -0.25736656199E+03 -0.17645794269E+03  0.30940132178E+03  0.43943615087E+03  0.00000000000E+00 0. -1.
<mgrwt>
<rscale>  0 0.64476726E+03</rscale>
<asrwt>0</asrwt>
<pdfrwt beam="1">0</pdfrwt>
<pdfrwt beam="2">  1        2 0.37793245E+00 0.64476726E+03</pdfrwt>
<totfact> 0.48126798E+00</totfact>
</mgrwt>
</event>
<event>
 5    1  0.2343702E-004  0.6669187E+03  0.7818608E-02  0.9775540E-01
         13   -1    0    0    0    0  0.00000000000E+00  0.00000000000E+00  0.10000000000E+04  0.10000000000E+04  0.00000000000E+00 0. -1.
          2   -1    0    0  501    0 -0.00000000000E+00 -0.00000000000E+00 -0.11119515408E+03  0.11119515408E+03  0.00000000000E+00 0. -1.
    9000006    2    1    2  501    0  0.00000000000E+00  0.00000000000E+00  0.88880484592E+03  0.11111951541E+04  0.66691874791E+03 0.  0.
         13    1    3    3    0    0 -0.28236512077E+03  0.17638314347E+03  0.47575460068E+03  0.58067505095E+03  0.00000000000E+00 0. -1.
          4    1    3    3  501    0  0.28236512077E+03 -0.17638314347E+03  0.41305024525E+03  0.53052010313E+03  0.00000000000E+00 0. -1.
<mgrwt>
<rscale>  0 0.66691875E+03</rscale>
<asrwt>0</asrwt>
<pdfrwt beam="1">0</pdfrwt>
<pdfrwt beam="2">  1        2 0.40434687E+00 0.66691875E+03</pdfrwt>
<totfact> 0.38306507E+00</totfact>
</mgrwt>
</event>
<event>
 5    1  0.2343702E-004  0.6921102E+03  0.7818608E-02  0.9730821E-01
         13   -1    0    0    0    0  0.00000000000E+00  0.00000000000E+00  0.10000000000E+04  0.10000000000E+04  0.00000000000E+00 0. -1.
          2   -1    0    0  501    0 -0.00000000000E+00 -0.00000000000E+00 -0.11975413577E+03  0.11975413577E+03  0.00000000000E+00 0. -1.
    9000006    2    1    2  501    0  0.00000000000E+00  0.00000000000E+00  0.88024586423E+03  0.11197541358E+04  0.69211021022E+03 0.  0.
         13    1    3    3    0    0  0.26412082727E+03 -0.19549356231E+03  0.26455013671E+03  0.42185817420E+03  0.00000000000E+00 0. -1.
          2    1    3    3  501    0 -0.26412082727E+03  0.19549356231E+03  0.61569572751E+03  0.69789596157E+03  0.00000000000E+00 0. -1.
<mgrwt>
<rscale>  0 0.69211021E+03</rscale>
<asrwt>0</asrwt>
<pdfrwt beam="1">0</pdfrwt>
<pdfrwt beam="2">  1        2 0.43547050E+00 0.69211021E+03</pdfrwt>
<totfact> 0.29064579E+00</totfact>
</mgrwt>
</event>
<event>
 5    1  0.2343702E-004  0.6646963E+03  0.7818608E-02  0.9779587E-01
         13   -1    0    0    0    0  0.00000000000E+00  0.00000000000E+00  0.10000000000E+04  0.10000000000E+04  0.00000000000E+00 0. -1.
          2   -1    0    0  501    0 -0.00000000000E+00 -0.00000000000E+00 -0.11045529421E+03  0.11045529421E+03  0.00000000000E+00 0. -1.
    9000006    2    1    2  501    0  0.00000000000E+00  0.00000000000E+00  0.88954470579E+03  0.11104552942E+04  0.66469630422E+03 0.  0.
         13    1    3    3    0    0  0.29586329872E+03  0.14639718020E+03  0.38032734980E+03  0.50360313631E+03  0.00000000000E+00 0. -1.
          2    1    3    3  501    0 -0.29586329872E+03 -0.14639718020E+03  0.50921735599E+03  0.60685215790E+03  0.00000000000E+00 0. -1.
<mgrwt>
<rscale>  0 0.66469630E+03</rscale>
<asrwt>0</asrwt>
<pdfrwt beam="1">0</pdfrwt>
<pdfrwt beam="2">  1        2 0.40165646E+00 0.66469630E+03</pdfrwt>
<totfact> 0.39216620E+00</totfact>
</mgrwt>
</event>
<event>
 5    1  0.2343702E-004  0.6495148E+03  0.7818608E-02  0.9807690E-01
         13   -1    0    0    0    0  0.00000000000E+00  0.00000000000E+00  0.10000000000E+04  0.10000000000E+04  0.00000000000E+00 0. -1.
          2   -1    0    0  501    0 -0.00000000000E+00 -0.00000000000E+00 -0.10546735768E+03  0.10546735768E+03  0.00000000000E+00 0. -1.
    9000006    2    1    2  501    0  0.00000000000E+00  0.00000000000E+00  0.89453264232E+03  0.11054673577E+04  0.64951476558E+03 0.  0.
         13    1    3    3    0    0 -0.25475141625E+02 -0.27530481287E+03  0.15729986660E+03  0.31809585169E+03  0.00000000000E+00 0. -1.
          2    1    3    3  501    0  0.25475141625E+02  0.27530481287E+03  0.73723277573E+03  0.78737150598E+03  0.00000000000E+00 0. -1.
<mgrwt>
<rscale>  0 0.64951477E+03</rscale>
<asrwt>0</asrwt>
<pdfrwt beam="1">0</pdfrwt>
<pdfrwt beam="2">  1        2 0.38351847E+00 0.64951477E+03</pdfrwt>
<totfact> 0.45878053E+00</totfact>
</mgrwt>
</event>
<event>
 5    1  0.2343702E-004  0.6522386E+03  0.7818608E-02  0.9802588E-01
         13   -1    0    0    0    0  0.00000000000E+00  0.00000000000E+00  0.10000000000E+04  0.10000000000E+04  0.00000000000E+00 0. -1.
          2   -1    0    0  501    0 -0.00000000000E+00 -0.00000000000E+00 -0.10635379876E+03  0.10635379876E+03  0.00000000000E+00 0. -1.
    9000006    2    1    2  501    0  0.00000000000E+00  0.00000000000E+00  0.89364620124E+03  0.11063537988E+04  0.65223860285E+03 0.  0.
         13    1    3    3    0    0  0.11930428108E+03  0.23684265031E+03  0.12486850540E+03  0.29312129935E+03  0.00000000000E+00 0. -1.
          4    1    3    3  501    0 -0.11930428108E+03 -0.23684265031E+03  0.76877769584E+03  0.81323249942E+03  0.00000000000E+00 0. -1.
<mgrwt>
<rscale>  0 0.65223860E+03</rscale>
<asrwt>0</asrwt>
<pdfrwt beam="1">0</pdfrwt>
<pdfrwt beam="2">  1        2 0.38674190E+00 0.65223860E+03</pdfrwt>
<totfact> 0.44624258E+00</totfact>
</mgrwt>
</event>
<event>
 5    1  0.2343702E-004  0.6570971E+03  0.7818608E-02  0.9793552E-01
         13   -1    0    0    0    0  0.00000000000E+00  0.00000000000E+00  0.10000000000E+04  0.10000000000E+04  0.00000000000E+00 0. -1.
          2   -1    0    0  501    0 -0.00000000000E+00 -0.00000000000E+00 -0.10794415635E+03  0.10794415635E+03  0.00000000000E+00 0. -1.
    9000006    2    1    2  501    0  0.00000000000E+00  0.00000000000E+00  0.89205584365E+03  0.11079441563E+04  0.65709712022E+03 0.  0.
         13    1    3    3    0    0  0.11942748451E+03 -0.25431627088E+03  0.73318580905E+03  0.78517585310E+03  0.00000000000E+00 0. -1.
          4    1    3    3  501    0 -0.11942748451E+03  0.25431627088E+03  0.15887003460E+03  0.32276830325E+03  0.00000000000E+00 0. -1.
<mgrwt>
<rscale>  0 0.65709712E+03</rscale>
<asrwt>0</asrwt>
<pdfrwt beam="1">0</pdfrwt>
<pdfrwt beam="2">  1        2 0.39252503E+00 0.65709712E+03</pdfrwt>
<totfact> 0.42452315E+00</totfact>
</mgrwt>
</event>
<event>
 5    1  0.2343702E-004  0.6526619E+03  0.7818608E-02  0.9801797E-01
         13   -1    0    0    0    0  0.00000000000E+00  0.00000000000E+00  0.10000000000E+04  0.10000000000E+04  0.00000000000E+00 0. -1.
          2   -1    0    0  501    0 -0.00000000000E+00 -0.00000000000E+00 -0.10649188645E+03  0.10649188645E+03  0.00000000000E+00 0. -1.
    9000006    2    1    2  501    0  0.00000000000E+00  0.00000000000E+00  0.89350811355E+03  0.11064918865E+04  0.65266189241E+03 0.  0.
         13    1    3    3    0    0 -0.28011669826E+02 -0.66668390397E+02  0.98624533248E+03  0.98889290814E+03  0.00000000000E+00 0. -1.
          2    1    3    3  501    0  0.28011669826E+02  0.66668390397E+02 -0.92737218934E+02  0.11759897831E+03  0.00000000000E+00 0. -1.
<mgrwt>
<rscale>  0 0.65266189E+03</rscale>
<asrwt>0</asrwt>
<pdfrwt beam="1">0</pdfrwt>
<pdfrwt beam="2">  1        2 0.38724404E+00 0.65266189E+03</pdfrwt>
<totfact> 0.44431765E+00</totfact>
</mgrwt>
</event>
<event>
 5    1  0.2343702E-004  0.6166332E+03  0.7818608E-02  0.9871486E-01
         13   -1    0    0    0    0  0.00000000000E+00  0.00000000000E+00  0.10000000000E+04  0.10000000000E+04  0.00000000000E+00 0. -1.
          2   -1    0    0  501    0 -0.00000000000E+00 -0.00000000000E+00 -0.95059132312E+02  0.95059132312E+02  0.00000000000E+00 0. -1.
    9000006    2    1    2  501    0  0.00000000000E+00  0.00000000000E+00  0.90494086769E+03  0.10950591323E+04  0.61663322101E+03 0.  0.
         13    1    3    3    0    0  0.11084485197E+03  0.18965726229E+03  0.68280496296E+02  0.23004061494E+03  0.00000000000E+00 0. -1.
          4    1    3    3  501    0 -0.11084485197E+03 -0.18965726229E+03  0.83666037139E+03  0.86501851738E+03  0.00000000000E+00 0. -1.
<mgrwt>
<rscale>  0 0.61663322E+03</rscale>
<asrwt>0</asrwt>
<pdfrwt beam="1">0</pdfrwt>
<pdfrwt beam="2">  1        2 0.34567030E+00 0.61663322E+03</pdfrwt>
<totfact> 0.63219002E+00</totfact>
</mgrwt>
</event>
<event>
 5    1  0.2343702E-004  0.6507031E+03  0.7818608E-02  0.9805461E-01
         13   -1    0    0    0    0  0.00000000000E+00  0.00000000000E+00  0.10000000000E+04  0.10000000000E+04  0.00000000000E+00 0. -1.
          2   -1    0    0  501    0 -0.00000000000E+00 -0.00000000000E+00 -0.10585363804E+03  0.10585363804E+03  0.00000000000E+00 0. -1.
    9000006    2    1    2  501    0  0.00000000000E+00  0.00000000000E+00  0.89414636196E+03  0.11058536380E+04  0.65070312136E+03 0.  0.
         13    1    3    3    0    0 -0.12282661614E+03 -0.29307453461E+03  0.56572741873E+03  0.64886560455E+03  0.00000000000E+00 0. -1.
          4    1    3    3  501    0  0.12282661614E+03  0.29307453461E+03  0.32841894324E+03  0.45698803349E+03  0.00000000000E+00 0. -1.
<mgrwt>
<rscale>  0 0.65070312E+03</rscale>
<asrwt>0</asrwt>
<pdfrwt beam="1">0</pdfrwt>
<pdfrwt beam="2">  1        2 0.38492313E+00 0.65070312E+03</pdfrwt>
<totfact> 0.45327818E+00</totfact>
</mgrwt>
</event>
<event>
 5    1  0.2343702E-004  0.6453257E+03  0.7818608E-02  0.9815590E-01
         13   -1    0    0    0    0  0.00000000000E+00  0.00000000000E+00  0.10000000000E+04  0.10000000000E+04  0.00000000000E+00 0. -1.
          2   -1    0    0  501    0 -0.00000000000E+00 -0.00000000000E+00 -0.10411130247E+03  0.10411130247E+03  0.00000000000E+00 0. -1.
    9000006    2    1    2  501    0  0.00000000000E+00  0.00000000000E+00  0.89588869753E+03  0.11041113025E+04  0.64532566187E+03 0.  0.
         13    1    3    3    0    0 -0.31855388206E+03 -0.13137945811E+02  0.53284062134E+03  0.62094146998E+03  0.00000000000E+00 0. -1.
          2    1    3    3  501    0  0.31855388206E+03  0.13137945811E+02  0.36304807619E+03  0.48316983248E+03  0.00000000000E+00 0. -1.
<mgrwt>
<rscale>  0 0.64532566E+03</rscale>
<asrwt>0</asrwt>
<pdfrwt beam="1">0</pdfrwt>
<pdfrwt beam="2">  1        2 0.37858735E+00 0.64532566E+03</pdfrwt>
<totfact> 0.47858064E+00</totfact>
</mgrwt>
</event>
<event>
 5    1  0.2343702E-004  0.5216838E+03  0.7818608E-02  0.1008269E+00
         13   -1    0    0    0    0  0.00000000000E+00  0.00000000000E+00  0.10000000000E+04  0.10000000000E+04  0.00000000000E+00 0. -1.
          2   -1    0    0  501    0 -0.00000000000E+00 -0.00000000000E+00 -0.68038489609E+02  0.68038489609E+02  0.00000000000E+00 0. -1.
    9000006    2    1    2  501    0  0.00000000000E+00  0.00000000000E+00  0.93196151039E+03  0.10680384896E+04  0.52168377245E+03 0.  0.
         13    1    3    3    0    0 -0.25594325819E+03  0.41771406476E+02  0.52340308157E+03  0.58412548961E+03  0.00000000000E+00 0. -1.
          4    1    3    3  501    0  0.25594325819E+03 -0.41771406476E+02  0.40855842882E+03  0.48391300000E+03  0.00000000000E+00 0. -1.
<mgrwt>
<rscale>  0 0.52168377E+03</rscale>
<asrwt>0</asrwt>
<pdfrwt beam="1">0</pdfrwt>
<pdfrwt beam="2">  1        2 0.24741321E+00 0.52168377E+03</pdfrwt>
<totfact> 0.14241510E+01</totfact>
</mgrwt>
</event>
<event>
 5    1  0.2343702E-004  0.6550804E+03  0.7818608E-02  0.9797293E-01
         13   -1    0    0    0    0  0.00000000000E+00  0.00000000000E+00  0.10000000000E+04  0.10000000000E+04  0.00000000000E+00 0. -1.
          2   -1    0    0  501    0 -0.00000000000E+00 -0.00000000000E+00 -0.10728257719E+03  0.10728257719E+03  0.00000000000E+00 0. -1.
    9000006    2    1    2  501    0  0.00000000000E+00  0.00000000000E+00  0.89271742281E+03  0.11072825772E+04  0.65508038344E+03 0.  0.
         13    1    3    3    0    0 -0.19413335312E+03  0.25857831844E+03  0.53470939477E+03  0.62487170076E+03  0.00000000000E+00 0. -1.
          4    1    3    3  501    0  0.19413335312E+03 -0.25857831844E+03  0.35800802804E+03  0.48241087643E+03  0.00000000000E+00 0. -1.
<mgrwt>
<rscale>  0 0.65508038E+03</rscale>
<asrwt>0</asrwt>
<pdfrwt beam="1">0</pdfrwt>
<pdfrwt beam="2">  1        2 0.39011929E+00 0.65508038E+03</pdfrwt>
<totfact> 0.43343945E+00</totfact>
</mgrwt>
</event>
<event>
 5    1  0.2343702E-004  0.6424712E+03  0.7818608E-02  0.9821010E-01
         13   -1    0    0    0    0  0.00000000000E+00  0.00000000000E+00  0.10000000000E+04  0.10000000000E+04  0.00000000000E+00 0. -1.
          2   -1    0    0  501    0 -0.00000000000E+00 -0.00000000000E+00 -0.10319232435E+03  0.10319232435E+03  0.00000000000E+00 0. -1.
    9000006    2    1    2  501    0  0.00000000000E+00  0.00000000000E+00  0.89680767565E+03  0.11031923244E+04  0.64247124247E+03 0.  0.
         13    1    3    3    0    0  0.15020784157E+03  0.26311901615E+03  0.63172719808E+03  0.70062348313E+03  0.00000000000E+00 0. -1.
          4    1    3    3  501    0 -0.15020784157E+03 -0.26311901615E+03  0.26508047757E+03  0.40256884122E+03  0.00000000000E+00 0. -1.
<mgrwt>
<rscale>  0 0.64247124E+03</rscale>
<asrwt>0</asrwt>
<pdfrwt beam="1">0</pdfrwt>
<pdfrwt beam="2">  1        2 0.37524561E+00 0.64247124E+03</pdfrwt>
<totfact> 0.49243803E+00</totfact>
</mgrwt>
</event>
<event>
 5    1  0.2343702E-004  0.6383552E+03  0.7818608E-02  0.9828879E-01
         13   -1    0    0    0    0  0.00000000000E+00  0.00000000000E+00  0.10000000000E+04  0.10000000000E+04  0.00000000000E+00 0. -1.
          2   -1    0    0  501    0 -0.00000000000E+00 -0.00000000000E+00 -0.10187433913E+03  0.10187433913E+03  0.00000000000E+00 0. -1.
    9000006    2    1    2  501    0  0.00000000000E+00  0.00000000000E+00  0.89812566087E+03  0.11018743391E+04  0.63835519622E+03 0.  0.
         13    1    3    3    0    0 -0.22526147379E+03 -0.13245480965E+03  0.76540523989E+03  0.80878438995E+03  0.00000000000E+00 0. -1.
          4    1    3    3  501    0  0.22526147379E+03  0.13245480965E+03  0.13272042098E+03  0.29308994919E+03  0.00000000000E+00 0. -1.
<mgrwt>
<rscale>  0 0.63835520E+03</rscale>
<asrwt>0</asrwt>
<pdfrwt beam="1">0</pdfrwt>
<pdfrwt beam="2">  1        2 0.37045292E+00 0.63835520E+03</pdfrwt>
<totfact> 0.51295426E+00</totfact>
</mgrwt>
</event>
<event>
 5    1  0.2343702E-004  0.6051679E+03  0.7818608E-02  0.9894742E-01
         13   -1    0    0    0    0  0.00000000000E+00  0.00000000000E+00  0.10000000000E+04  0.10000000000E+04  0.00000000000E+00 0. -1.
          2   -1    0    0  501    0 -0.00000000000E+00 -0.00000000000E+00 -0.91557061894E+02  0.91557061894E+02  0.00000000000E+00 0. -1.
    9000006    2    1    2  501    0  0.00000000000E+00  0.00000000000E+00  0.90844293811E+03  0.10915570619E+04  0.60516794989E+03 0.  0.
         13    1    3    3    0    0  0.30025855569E+03  0.13434231624E+02  0.39118433376E+03  0.49331618849E+03  0.00000000000E+00 0. -1.
          2    1    3    3  501    0 -0.30025855569E+03 -0.13434231624E+02  0.51725860435E+03  0.59824087341E+03  0.00000000000E+00 0. -1.
<mgrwt>
<rscale>  0 0.60516795E+03</rscale>
<asrwt>0</asrwt>
<pdfrwt beam="1">0</pdfrwt>
<pdfrwt beam="2">  1        2 0.33293547E+00 0.60516795E+03</pdfrwt>
<totfact> 0.70306561E+00</totfact>
</mgrwt>
</event>
<event>
 5    1  0.2343702E-004  0.6520982E+03  0.7818608E-02  0.9802850E-01
         13   -1    0    0    0    0  0.00000000000E+00  0.00000000000E+00  0.10000000000E+04  0.10000000000E+04  0.00000000000E+00 0. -1.
          2   -1    0    0  501    0 -0.00000000000E+00 -0.00000000000E+00 -0.10630800936E+03  0.10630800936E+03  0.00000000000E+00 0. -1.
    9000006    2    1    2  501    0  0.00000000000E+00  0.00000000000E+00  0.89369199064E+03  0.11063080094E+04  0.65209818082E+03 0.  0.
         13    1    3    3    0    0  0.83774312260E+02 -0.24033920421E+03  0.79256880810E+03  0.83243401183E+03  0.00000000000E+00 0. -1.
          4    1    3    3  501    0 -0.83774312260E+02  0.24033920421E+03  0.10112318254E+03  0.27387399753E+03  0.00000000000E+00 0. -1.
<mgrwt>
<rscale>  0 0.65209818E+03</rscale>
<asrwt>0</asrwt>
<pdfrwt beam="1">0</pdfrwt>
<pdfrwt beam="2">  1        2 0.38657539E+00 0.65209818E+03</pdfrwt>
<totfact> 0.44688255E+00</totfact>
</mgrwt>
</event>
<event>
 5    1  0.2343702E-004  0.6797175E+03  0.7818608E-02  0.9752561E-01
         13   -1    0    0    0    0  0.00000000000E+00  0.00000000000E+00  0.10000000000E+04  0.10000000000E+04  0.00000000000E+00 0. -1.
          2   -1    0    0  501    0 -0.00000000000E+00 -0.00000000000E+00 -0.11550396947E+03  0.11550396947E+03  0.00000000000E+00 0. -1.
    9000006    2    1    2  501    0  0.00000000000E+00  0.00000000000E+00  0.88449603053E+03  0.11155039695E+04  0.67971749859E+03 0.  0.
         13    1    3    3    0    0  0.19528772378E+03  0.13852667390E+03  0.83808690649E+03  0.87161723094E+03  0.00000000000E+00 0. -1.
          2    1    3    3  501    0 -0.19528772378E+03 -0.13852667390E+03  0.46409124043E+02  0.24388673854E+03  0.00000000000E+00 0. -1.
<mgrwt>
<rscale>  0 0.67971750E+03</rscale>
<asrwt>0</asrwt>
<pdfrwt beam="1">0</pdfrwt>
<pdfrwt beam="2">  1        2 0.42001532E+00 0.67971750E+03</pdfrwt>
<totfact> 0.33371215E+00</totfact>
</mgrwt>
</event>
<event>
 5    1  0.2343702E-004  0.6301860E+03  0.7818608E-02  0.9844686E-01
         13   -1    0    0    0    0  0.00000000000E+00  0.00000000000E+00  0.10000000000E+04  0.10000000000E+04  0.00000000000E+00 0. -1.
          2   -1    0    0  501    0 -0.00000000000E+00 -0.00000000000E+00 -0.99283583135E+02  0.99283583135E+02  0.00000000000E+00 0. -1.
    9000006    2    1    2  501    0  0.00000000000E+00  0.00000000000E+00  0.90071641686E+03  0.10992835831E+04  0.63018595077E+03 0.  0.
         13    1    3    3    0    0 -0.18986588473E+03 -0.54839734792E+02  0.22266202274E+02  0.19887743577E+03  0.00000000000E+00 0. -1.
          2    1    3    3  501    0  0.18986588473E+03  0.54839734792E+02  0.87845021459E+03  0.90040614736E+03  0.00000000000E+00 0. -1.
<mgrwt>
<rscale>  0 0.63018595E+03</rscale>
<asrwt>0</asrwt>
<pdfrwt beam="1">0</pdfrwt>
<pdfrwt beam="2">  1        2 0.36103197E+00 0.63018595E+03</pdfrwt>
<totfact> 0.55558599E+00</totfact>
</mgrwt>
</event>
<event>
 5    1  0.2343702E-004  0.6494811E+03  0.7818608E-02  0.9807753E-01
         13   -1    0    0    0    0  0.00000000000E+00  0.00000000000E+00  0.10000000000E+04  0.10000000000E+04  0.00000000000E+00 0. -1.
          2   -1    0    0  501    0 -0.00000000000E+00 -0.00000000000E+00 -0.10545641369E+03  0.10545641369E+03  0.00000000000E+00 0. -1.
    9000006    2    1    2  501    0  0.00000000000E+00  0.00000000000E+00  0.89454358631E+03  0.11054564137E+04  0.64948106575E+03 0.  0.
         13    1    3    3    0    0  0.14270302521E+03  0.14916317700E+03  0.87395173324E+03  0.89800080112E+03  0.00000000000E+00 0. -1.
          2    1    3    3  501    0 -0.14270302521E+03 -0.14916317700E+03  0.20591853071E+02  0.20745561258E+03  0.00000000000E+00 0. -1.
<mgrwt>
<rscale>  0 0.64948107E+03</rscale>
<asrwt>0</asrwt>
<pdfrwt beam="1">0</pdfrwt>
<pdfrwt beam="2">  1        2 0.38347868E+00 0.64948107E+03</pdfrwt>
<totfact> 0.45893730E+00</totfact>
</mgrwt>
</event>
<event>
 5    1  0.2343702E-004  0.6498263E+03  0.7818608E-02  0.9807105E-01
         13   -1    0    0    0    0  0.00000000000E+00  0.00000000000E+00  0.10000000000E+04  0.10000000000E+04  0.00000000000E+00 0. -1.
          2   -1    0    0  501    0 -0.00000000000E+00 -0.00000000000E+00 -0.10556856788E+03  0.10556856788E+03  0.00000000000E+00 0. -1.
    9000006    2    1    2  501    0  0.00000000000E+00  0.00000000000E+00  0.89443143212E+03  0.11055685679E+04  0.64982633950E+03 0.  0.
         13    1    3    3    0    0  0.19354137860E+03  0.18689994293E+02  0.43437062511E+01  0.19449022829E+03  0.00000000000E+00 0. -1.
          4    1    3    3  501    0 -0.19354137860E+03 -0.18689994293E+02  0.89008772587E+03  0.91107833959E+03  0.00000000000E+00 0. -1.
<mgrwt>
<rscale>  0 0.64982634E+03</rscale>
<asrwt>0</asrwt>
<pdfrwt beam="1">0</pdfrwt>
<pdfrwt beam="2">  1        2 0.38388651E+00 0.64982634E+03</pdfrwt>
<totfact> 0.45733302E+00</totfact>
</mgrwt>
</event>
<event>
 5    1  0.2343702E-004  0.6445353E+03  0.7818608E-02  0.9817088E-01
         13   -1    0    0    0    0  0.00000000000E+00  0.00000000000E+00  0.10000000000E+04  0.10000000000E+04  0.00000000000E+00 0. -1.
          2   -1    0    0  501    0 -0.00000000000E+00 -0.00000000000E+00 -0.10385644790E+03  0.10385644790E+03  0.00000000000E+00 0. -1.
    9000006    2    1    2  501    0  0.00000000000E+00  0.00000000000E+00  0.89614355210E+03  0.11038564479E+04  0.64453532999E+03 0.  0.
         13    1    3    3    0    0 -0.28682357049E+03 -0.13980235306E+00  0.69971126368E+03  0.75621665722E+03  0.00000000000E+00 0. -1.
          2    1    3    3  501    0  0.28682357049E+03  0.13980235306E+00  0.19643228842E+03  0.34763979068E+03  0.00000000000E+00 0. -1.
<mgrwt>
<rscale>  0 0.64453533E+03</rscale>
<asrwt>0</asrwt>
<pdfrwt beam="1">0</pdfrwt>
<pdfrwt beam="2">  1        2 0.37766061E+00 0.64453533E+03</pdfrwt>
<totfact> 0.48238751E+00</totfact>
</mgrwt>
</event>
<event>
 5    1  0.2343702E-004  0.6395450E+03  0.7818608E-02  0.9826597E-01
         13   -1    0    0    0    0  0.00000000000E+00  0.00000000000E+00  0.10000000000E+04  0.10000000000E+04  0.00000000000E+00 0. -1.
          2   -1    0    0  501    0 -0.00000000000E+00 -0.00000000000E+00 -0.10225444337E+03  0.10225444337E+03  0.00000000000E+00 0. -1.
    9000006    2    1    2  501    0  0.00000000000E+00  0.00000000000E+00  0.89774555663E+03  0.11022544434E+04  0.63954497379E+03 0.  0.
         13    1    3    3    0    0  0.17820165292E+03  0.25719237650E+03  0.56255436443E+03  0.64371667725E+03  0.00000000000E+00 0. -1.
          2    1    3    3  501    0 -0.17820165292E+03 -0.25719237650E+03  0.33519119219E+03  0.45853776612E+03  0.00000000000E+00 0. -1.
<mgrwt>
<rscale>  0 0.63954497E+03</rscale>
<asrwt>0</asrwt>
<pdfrwt beam="1">0</pdfrwt>
<pdfrwt beam="2">  1        2 0.37183512E+00 0.63954497E+03</pdfrwt>
<totfact> 0.50695861E+00</totfact>
</mgrwt>
</event>
<event>
 5    1  0.2343702E-004  0.6084192E+03  0.7818608E-02  0.9888091E-01
         13   -1    0    0    0    0  0.00000000000E+00  0.00000000000E+00  0.10000000000E+04  0.10000000000E+04  0.00000000000E+00 0. -1.
          2   -1    0    0  501    0 -0.00000000000E+00 -0.00000000000E+00 -0.92543469468E+02  0.92543469468E+02  0.00000000000E+00 0. -1.
    9000006    2    1    2  501    0  0.00000000000E+00  0.00000000000E+00  0.90745653053E+03  0.10925434695E+04  0.60841916297E+03 0.  0.
         13    1    3    3    0    0  0.59072458552E+02  0.24520977848E+03  0.75913641540E+03  0.79994092783E+03  0.00000000000E+00 0. -1.
          2    1    3    3  501    0 -0.59072458552E+02 -0.24520977848E+03  0.14832011513E+03  0.29260254164E+03  0.00000000000E+00 0. -1.
<mgrwt>
<rscale>  0 0.60841916E+03</rscale>
<asrwt>0</asrwt>
<pdfrwt beam="1">0</pdfrwt>
<pdfrwt beam="2">  1        2 0.33652242E+00 0.60841916E+03</pdfrwt>
<totfact> 0.68237974E+00</totfact>
</mgrwt>
</event>
<event>
 5    1  0.2343702E-004  0.6474827E+03  0.7818608E-02  0.9811514E-01
         13   -1    0    0    0    0  0.00000000000E+00  0.00000000000E+00  0.10000000000E+04  0.10000000000E+04  0.00000000000E+00 0. -1.
          2   -1    0    0  501    0 -0.00000000000E+00 -0.00000000000E+00 -0.10480846653E+03  0.10480846653E+03  0.00000000000E+00 0. -1.
    9000006    2    1    2  501    0  0.00000000000E+00  0.00000000000E+00  0.89519153347E+03  0.11048084665E+04  0.64748271491E+03 0.  0.
         13    1    3    3    0    0 -0.28051815786E+03  0.15328010944E+03  0.36020256782E+03  0.48159227434E+03  0.00000000000E+00 0. -1.
          4    1    3    3  501    0  0.28051815786E+03 -0.15328010944E+03  0.53498896565E+03  0.62321619219E+03  0.00000000000E+00 0. -1.
<mgrwt>
<rscale>  0 0.64748271E+03</rscale>
<asrwt>0</asrwt>
<pdfrwt beam="1">0</pdfrwt>
<pdfrwt beam="2">  1        2 0.38112250E+00 0.64748271E+03</pdfrwt>
<totfact> 0.46830617E+00</totfact>
</mgrwt>
</event>
<event>
 5    1  0.2343702E-004  0.6486766E+03  0.7818608E-02  0.9809266E-01
         13   -1    0    0    0    0  0.00000000000E+00  0.00000000000E+00  0.10000000000E+04  0.10000000000E+04  0.00000000000E+00 0. -1.
          2   -1    0    0  501    0 -0.00000000000E+00 -0.00000000000E+00 -0.10519533367E+03  0.10519533367E+03  0.00000000000E+00 0. -1.
    9000006    2    1    2  501    0  0.00000000000E+00  0.00000000000E+00  0.89480466633E+03  0.11051953337E+04  0.64867660255E+03 0.  0.
         13    1    3    3    0    0  0.79316627387E+02  0.31388080838E+03  0.41405697543E+03  0.52560010289E+03  0.00000000000E+00 0. -1.
          4    1    3    3  501    0 -0.79316627387E+02 -0.31388080838E+03  0.48074769090E+03  0.57959523079E+03  0.00000000000E+00 0. -1.
<mgrwt>
<rscale>  0 0.64867660E+03</rscale>
<asrwt>0</asrwt>
<pdfrwt beam="1">0</pdfrwt>
<pdfrwt beam="2">  1        2 0.38252929E+00 0.64867660E+03</pdfrwt>
<totfact> 0.46269166E+00</totfact>
</mgrwt>
</event>
<event>
 5    1  0.2343702E-004  0.6363876E+03  0.7818608E-02  0.9832663E-01
         13   -1    0    0    0    0  0.00000000000E+00  0.00000000000E+00  0.10000000000E+04  0.10000000000E+04  0.00000000000E+00 0. -1.
          2   -1    0    0  501    0 -0.00000000000E+00 -0.00000000000E+00 -0.10124728820E+03  0.10124728820E+03  0.00000000000E+00 0. -1.
    9000006    2    1    2  501    0  0.00000000000E+00  0.00000000000E+00  0.89875271180E+03  0.11012472882E+04  0.63638758064E+03 0.  0.
         13    1    3    3    0    0  0.31028725815E+03 -0.36386444026E+02  0.34489956963E+03  0.46535778602E+03  0.00000000000E+00 0. -1.
          2    1    3    3  501    0 -0.31028725815E+03  0.36386444026E+02  0.55385314218E+03  0.63588950218E+03  0.00000000000E+00 0. -1.
<mgrwt>
<rscale>  0 0.63638758E+03</rscale>
<asrwt>0</asrwt>
<pdfrwt beam="1">0</pdfrwt>
<pdfrwt beam="2">  1        2 0.36817273E+00 0.63638758E+03</pdfrwt>
<totfact> 0.52298736E+00</totfact>
</mgrwt>
</event>
<event>
 5    1  0.2343702E-004  0.6430325E+03  0.7818608E-02  0.9819942E-01
         13   -1    0    0    0    0  0.00000000000E+00  0.00000000000E+00  0.10000000000E+04  0.10000000000E+04  0.00000000000E+00 0. -1.
          2   -1    0    0  501    0 -0.00000000000E+00 -0.00000000000E+00 -0.10337271349E+03  0.10337271349E+03  0.00000000000E+00 0. -1.
    9000006    2    1    2  501    0  0.00000000000E+00  0.00000000000E+00  0.89662728651E+03  0.11033727135E+04  0.64303254504E+03 0.  0.
         13    1    3    3    0    0  0.19681206425E+02 -0.20549452316E+03  0.25363915816E+02  0.20798720432E+03  0.00000000000E+00 0. -1.
          2    1    3    3  501    0 -0.19681206425E+02  0.20549452316E+03  0.87126337069E+03  0.89538550918E+03  0.00000000000E+00 0. -1.
<mgrwt>
<rscale>  0 0.64303255E+03</rscale>
<asrwt>0</asrwt>
<pdfrwt beam="1">0</pdfrwt>
<pdfrwt beam="2">  1        2 0.37590157E+00 0.64303255E+03</pdfrwt>
<totfact> 0.48968930E+00</totfact>
</mgrwt>
</event>
<event>
 5    1  0.2343702E-004  0.6463192E+03  0.7818608E-02  0.9813711E-01
         13   -1    0    0    0    0  0.00000000000E+00  0.00000000000E+00  0.10000000000E+04  0.10000000000E+04  0.00000000000E+00 0. -1.
          2   -1    0    0  501    0 -0.00000000000E+00 -0.00000000000E+00 -0.10443211372E+03  0.10443211372E+03  0.00000000000E+00 0. -1.
    9000006    2    1    2  501    0  0.00000000000E+00  0.00000000000E+00  0.89556788628E+03  0.11044321137E+04  0.64631915868E+03 0.  0.
         13    1    3    3    0    0 -0.28479081339E+03  0.13224289248E+03  0.57834950544E+03  0.65808976625E+03  0.00000000000E+00 0. -1.
          2    1    3    3  501    0  0.28479081339E+03 -0.13224289248E+03  0.31721838084E+03  0.44634234747E+03  0.00000000000E+00 0. -1.
<mgrwt>
<rscale>  0 0.64631916E+03</rscale>
<asrwt>0</asrwt>
<pdfrwt beam="1">0</pdfrwt>
<pdfrwt beam="2">  1        2 0.37975394E+00 0.64631916E+03</pdfrwt>
<totfact> 0.47382746E+00</totfact>
</mgrwt>
</event>
<event>
 5    1  0.2343702E-004  0.6390141E+03  0.7818608E-02  0.9827615E-01
         13   -1    0    0    0    0  0.00000000000E+00  0.00000000000E+00  0.10000000000E+04  0.10000000000E+04  0.00000000000E+00 0. -1.
          2   -1    0    0  501    0 -0.00000000000E+00 -0.00000000000E+00 -0.10208475512E+03  0.10208475512E+03  0.00000000000E+00 0. -1.
    9000006    2    1    2  501    0  0.00000000000E+00  0.00000000000E+00  0.89791524488E+03  0.11020847551E+04  0.63901410036E+03 0.  0.
         13    1    3    3    0    0 -0.79504770388E+01 -0.28843230253E+03  0.21230533491E+03  0.35823171057E+03  0.00000000000E+00 0. -1.
          2    1    3    3  501    0  0.79504770388E+01  0.28843230253E+03  0.68560990997E+03  0.74385304454E+03  0.00000000000E+00 0. -1.
<mgrwt>
<rscale>  0 0.63901410E+03</rscale>
<asrwt>0</asrwt>
<pdfrwt beam="1">0</pdfrwt>
<pdfrwt beam="2">  1        2 0.37121807E+00 0.63901410E+03</pdfrwt>
<totfact> 0.50962724E+00</totfact>
</mgrwt>
</event>
<event>
 5    1  0.2343702E-004  0.6096978E+03  0.7818608E-02  0.9885488E-01
         13   -1    0    0    0    0  0.00000000000E+00  0.00000000000E+00  0.10000000000E+04  0.10000000000E+04  0.00000000000E+00 0. -1.
          2   -1    0    0  501    0 -0.00000000000E+00 -0.00000000000E+00 -0.92932862162E+02  0.92932862162E+02  0.00000000000E+00 0. -1.
    9000006    2    1    2  501    0  0.00000000000E+00  0.00000000000E+00  0.90706713784E+03  0.10929328622E+04  0.60969783389E+03 0.  0.
         13    1    3    3    0    0  0.15730905723E+03  0.14214997824E+03  0.84618703510E+03  0.87234468771E+03  0.00000000000E+00 0. -1.
          4    1    3    3  501    0 -0.15730905723E+03 -0.14214997824E+03  0.60880102740E+02  0.22058817446E+03  0.00000000000E+00 0. -1.
<mgrwt>
<rscale>  0 0.60969783E+03</rscale>
<asrwt>0</asrwt>
<pdfrwt beam="1">0</pdfrwt>
<pdfrwt beam="2">  1        2 0.33793839E+00 0.60969783E+03</pdfrwt>
<totfact> 0.67437297E+00</totfact>
</mgrwt>
</event>
<event>
 5    1  0.2343702E-004  0.6577416E+03  0.7818608E-02  0.9792360E-01
         13   -1    0    0    0    0  0.00000000000E+00  0.00000000000E+00  0.10000000000E+04  0.10000000000E+04  0.00000000000E+00 0. -1.
          2   -1    0    0  501    0 -0.00000000000E+00 -0.00000000000E+00 -0.10815599722E+03  0.10815599722E+03  0.00000000000E+00 0. -1.
    9000006    2    1    2  501    0  0.00000000000E+00  0.00000000000E+00  0.89184400278E+03  0.11081559972E+04  0.65774158214E+03 0.  0.
         13    1    3    3    0    0 -0.89390326130E+02 -0.99797281420E+02 -0.60092544082E+02  0.14683746674E+03  0.00000000000E+00 0. -1.
          4    1    3    3  501    0  0.89390326130E+02  0.99797281420E+02  0.95193654686E+03  0.96131853048E+03  0.00000000000E+00 0. -1.
<mgrwt>
<rscale>  0 0.65774158E+03</rscale>
<asrwt>0</asrwt>
<pdfrwt beam="1">0</pdfrwt>
<pdfrwt beam="2">  1        2 0.39329536E+00 0.65774158E+03</pdfrwt>
<totfact> 0.42170331E+00</totfact>
</mgrwt>
</event>
<event>
 5    1  0.2343702E-004  0.5661553E+03  0.7818608E-02  0.9978223E-01
         13   -1    0    0    0    0  0.00000000000E+00  0.00000000000E+00  0.10000000000E+04  0.10000000000E+04  0.00000000000E+00 0. -1.
          2   -1    0    0  501    0 -0.00000000000E+00 -0.00000000000E+00 -0.80132967029E+02  0.80132967029E+02  0.00000000000E+00 0. -1.
    9000006    2    1    2  501    0  0.00000000000E+00  0.00000000000E+00  0.91986703297E+03  0.10801329670E+04  0.56615533921E+03 0.  0.
         13    1    3    3    0    0  0.90389156368E+02 -0.89060097385E+02 -0.22832823270E+02  0.12893113803E+03  0.00000000000E+00 0. -1.
          2    1    3    3  501    0 -0.90389156368E+02  0.89060097385E+02  0.94269985624E+03  0.95120182900E+03  0.00000000000E+00 0. -1.
<mgrwt>
<rscale>  0 0.56615534E+03</rscale>
<asrwt>0</asrwt>
<pdfrwt beam="1">0</pdfrwt>
<pdfrwt beam="2">  1        2 0.29139322E+00 0.56615534E+03</pdfrwt>
<totfact> 0.99107585E+00</totfact>
</mgrwt>
</event>
<event>
 5    1  0.2343702E-004  0.6318695E+03  0.7818608E-02  0.9841407E-01
         13   -1    0    0    0    0  0.00000000000E+00  0.00000000000E+00  0.10000000000E+04  0.10000000000E+04  0.00000000000E+00 0. -1.
          2   -1    0    0  501    0 -0.00000000000E+00 -0.00000000000E+00 -0.99814758015E+02  0.99814758015E+02  0.00000000000E+00 0. -1.
    9000006    2    1    2  501    0  0.00000000000E+00  0.00000000000E+00  0.90018524198E+03  0.10998147580E+04  0.63186947391E+03 0.  0.
         13    1    3    3    0    0 -0.13916225340E+03  0.25229488866E+03  0.67566919404E+03  0.73453910950E+03  0.00000000000E+00 0. -1.
          2    1    3    3  501    0  0.13916225340E+03 -0.25229488866E+03  0.22451604794E+03  0.36527564851E+03  0.00000000000E+00 0. -1.
<mgrwt>
<rscale>  0 0.63186947E+03</rscale>
<asrwt>0</asrwt>
<pdfrwt beam="1">0</pdfrwt>
<pdfrwt beam="2">  1        2 0.36296352E+00 0.63186947E+03</pdfrwt>
<totfact> 0.54658843E+00</totfact>
</mgrwt>
</event>
<event>
 5    1  0.2343702E-004  0.6517154E+03  0.7818608E-02  0.9803566E-01
         13   -1    0    0    0    0  0.00000000000E+00  0.00000000000E+00  0.10000000000E+04  0.10000000000E+04  0.00000000000E+00 0. -1.
          2   -1    0    0  501    0 -0.00000000000E+00 -0.00000000000E+00 -0.10618324371E+03  0.10618324371E+03  0.00000000000E+00 0. -1.
    9000006    2    1    2  501    0  0.00000000000E+00  0.00000000000E+00  0.89381675629E+03  0.11061832437E+04  0.65171540940E+03 0.  0.
         13    1    3    3    0    0  0.23023428434E+03  0.35441790643E+02  0.60155557617E+02  0.24058810719E+03  0.00000000000E+00 0. -1.
          4    1    3    3  501    0 -0.23023428434E+03 -0.35441790643E+02  0.83366119867E+03  0.86559513653E+03  0.00000000000E+00 0. -1.
<mgrwt>
<rscale>  0 0.65171541E+03</rscale>
<asrwt>0</asrwt>
<pdfrwt beam="1">0</pdfrwt>
<pdfrwt beam="2">  1        2 0.38612170E+00 0.65171541E+03</pdfrwt>
<totfact> 0.44863053E+00</totfact>
</mgrwt>
</event>
<event>
 5    1  0.2343702E-004  0.6482115E+03  0.7818608E-02  0.9810141E-01
         13   -1    0    0    0    0  0.00000000000E+00  0.00000000000E+00  0.10000000000E+04  0.10000000000E+04  0.00000000000E+00 0. -1.
          2   -1    0    0  501    0 -0.00000000000E+00 -0.00000000000E+00 -0.10504453425E+03  0.10504453425E+03  0.00000000000E+00 0. -1.
    9000006    2    1    2  501    0  0.00000000000E+00  0.00000000000E+00  0.89495546575E+03  0.11050445342E+04  0.64821149095E+03 0.  0.
         13    1    3    3    0    0  0.11176691356E+03  0.27819108117E+03  0.65739454645E+03  0.72253007572E+03  0.00000000000E+00 0. -1.
          4    1    3    3  501    0 -0.11176691356E+03 -0.27819108117E+03  0.23756091930E+03  0.38251445853E+03  0.00000000000E+00 0. -1.
<mgrwt>
<rscale>  0 0.64821149E+03</rscale>
<asrwt>0</asrwt>
<pdfrwt beam="1">0</pdfrwt>
<pdfrwt beam="2">  1        2 0.38198093E+00 0.64821149E+03</pdfrwt>
<totfact> 0.46487286E+00</totfact>
</mgrwt>
</event>
<event>
 5    1  0.2343702E-004  0.6288732E+03  0.7818608E-02  0.9847250E-01
         13   -1    0    0    0    0  0.00000000000E+00  0.00000000000E+00  0.10000000000E+04  0.10000000000E+04  0.00000000000E+00 0. -1.
          2   -1    0    0  501    0 -0.00000000000E+00 -0.00000000000E+00 -0.98870371568E+02  0.98870371568E+02  0.00000000000E+00 0. -1.
    9000006    2    1    2  501    0  0.00000000000E+00  0.00000000000E+00  0.90112962843E+03  0.10988703716E+04  0.62887318775E+03 0.  0.
         13    1    3    3    0    0  0.16923109394E+03 -0.22929681974E+03  0.21839426879E+03  0.35904352290E+03  0.00000000000E+00 0. -1.
          4    1    3    3  501    0 -0.16923109394E+03  0.22929681974E+03  0.68273535964E+03  0.73982684867E+03  0.00000000000E+00 0. -1.
<mgrwt>
<rscale>  0 0.62887319E+03</rscale>
<asrwt>0</asrwt>
<pdfrwt beam="1">0</pdfrwt>
<pdfrwt beam="2">  1        2 0.35952938E+00 0.62887319E+03</pdfrwt>
<totfact> 0.56267969E+00</totfact>
</mgrwt>
</event>
<event>
 5    1  0.2343702E-004  0.6440596E+03  0.7818608E-02  0.9817990E-01
         13   -1    0    0    0    0  0.00000000000E+00  0.00000000000E+00  0.10000000000E+04  0.10000000000E+04  0.00000000000E+00 0. -1.
          2   -1    0    0  501    0 -0.00000000000E+00 -0.00000000000E+00 -0.10370320711E+03  0.10370320711E+03  0.00000000000E+00 0. -1.
    9000006    2    1    2  501    0  0.00000000000E+00  0.00000000000E+00  0.89629679289E+03  0.11037032071E+04  0.64405964666E+03 0.  0.
         13    1    3    3    0    0 -0.27252884826E+03 -0.10348948096E+03  0.21367552188E+03  0.36144055452E+03  0.00000000000E+00 0. -1.
          4    1    3    3  501    0  0.27252884826E+03  0.10348948096E+03  0.68262127101E+03  0.74226265259E+03  0.00000000000E+00 0. -1.
<mgrwt>
<rscale>  0 0.64405965E+03</rscale>
<asrwt>0</asrwt>
<pdfrwt beam="1">0</pdfrwt>
<pdfrwt beam="2">  1        2 0.37710337E+00 0.64405965E+03</pdfrwt>
<totfact> 0.48468980E+00</totfact>
</mgrwt>
</event>
<event>
 5    1  0.2343702E-004  0.6502927E+03  0.7818608E-02  0.9806230E-01
         13   -1    0    0    0    0  0.00000000000E+00  0.00000000000E+00  0.10000000000E+04  0.10000000000E+04  0.00000000000E+00 0. -1.
          2   -1    0    0  501    0 -0.00000000000E+00 -0.00000000000E+00 -0.10572013775E+03  0.10572013775E+03  0.00000000000E+00 0. -1.
    9000006    2    1    2  501    0  0.00000000000E+00  0.00000000000E+00  0.89427986225E+03  0.11057201378E+04  0.65029266566E+03 0.  0.
         13    1    3    3    0    0 -0.10438382777E+03 -0.23319485612E+02 -0.74951986262E+02  0.13060467891E+03  0.00000000000E+00 0. -1.
          2    1    3    3  501    0  0.10438382777E+03  0.23319485612E+02  0.96923184851E+03  0.97511545884E+03  0.00000000000E+00 0. -1.
<mgrwt>
<rscale>  0 0.65029267E+03</rscale>
<asrwt>0</asrwt>
<pdfrwt beam="1">0</pdfrwt>
<pdfrwt beam="2">  1        2 0.38443768E+00 0.65029267E+03</pdfrwt>
<totfact> 0.45517301E+00</totfact>
</mgrwt>
</event>
<event>
 5    1  0.2343702E-004  0.6658809E+03  0.7818608E-02  0.9777428E-01
         13   -1    0    0    0    0  0.00000000000E+00  0.00000000000E+00  0.10000000000E+04  0.10000000000E+04  0.00000000000E+00 0. -1.
          2   -1    0    0  501    0 -0.00000000000E+00 -0.00000000000E+00 -0.11084934872E+03  0.11084934872E+03  0.00000000000E+00 0. -1.
    9000006    2    1    2  501    0  0.00000000000E+00  0.00000000000E+00  0.88915065128E+03  0.11108493487E+04  0.66588091644E+03 0.  0.
         13    1    3    3    0    0 -0.58350249097E+01 -0.22299585909E+03  0.32252786437E+02  0.22539175433E+03  0.00000000000E+00 0. -1.
          2    1    3    3  501    0  0.58350249097E+01  0.22299585909E+03  0.85689786484E+03  0.88545759439E+03  0.00000000000E+00 0. -1.
<mgrwt>
<rscale>  0 0.66588092E+03</rscale>
<asrwt>0</asrwt>
<pdfrwt beam="1">0</pdfrwt>
<pdfrwt beam="2">  1        2 0.40308939E+00 0.66588092E+03</pdfrwt>
<totfact> 0.38729505E+00</totfact>
</mgrwt>
</event>
<event>
 5    1  0.2343702E-004  0.6475290E+03  0.7818608E-02  0.9811427E-01
         13   -1    0    0    0    0  0.00000000000E+00  0.00000000000E+00  0.10000000000E+04  0.10000000000E+04  0.00000000000E+00 0. -1.
          2   -1    0    0  501    0 -0.00000000000E+00 -0.00000000000E+00 -0.10482345975E+03  0.10482345975E+03  0.00000000000E+00 0. -1.
    9000006    2    1    2  501    0  0.00000000000E+00  0.00000000000E+00  0.89517654025E+03  0.11048234597E+04  0.64752902560E+03 0.  0.
         13    1    3    3    0    0 -0.16353214897E+02 -0.63443269137E+02 -0.93394723788E+02  0.11408352409E+03  0.00000000000E+00 0. -1.
          4    1    3    3  501    0  0.16353214897E+02  0.63443269137E+02  0.98857126404E+03  0.99073993566E+03  0.00000000000E+00 0. -1.
<mgrwt>
<rscale>  0 0.64752903E+03</rscale>
<asrwt>0</asrwt>
<pdfrwt beam="1">0</pdfrwt>
<pdfrwt beam="2">  1        2 0.38117702E+00 0.64752903E+03</pdfrwt>
<totfact> 0.46808743E+00</totfact>
</mgrwt>
</event>
<event>
 5    1  0.2343702E-004  0.6492972E+03  0.7818608E-02  0.9808099E-01
         13   -1    0    0    0    0  0.00000000000E+00  0.00000000000E+00  0.10000000000E+04  0.10000000000E+04  0.00000000000E+00 0. -1.
          2   -1    0    0  501    0 -0.00000000000E+00 -0.00000000000E+00 -0.10539670531E+03  0.10539670531E+03  0.00000000000E+00 0. -1.
    9000006    2    1    2  501    0  0.00000000000E+00  0.00000000000E+00  0.89460329469E+03  0.11053967053E+04  0.64929717483E+03 0.  0.
         13    1    3    3    0    0  0.31638112756E+03  0.57529167562E+02  0.52324856853E+03  0.61416259041E+03  0.00000000000E+00 0. -1.
          2    1    3    3  501    0 -0.31638112756E+03 -0.57529167562E+02  0.37135472616E+03  0.49123411490E+03  0.00000000000E+00 0. -1.
<mgrwt>
<rscale>  0 0.64929717E+03</rscale>
<asrwt>0</asrwt>
<pdfrwt beam="1">0</pdfrwt>
<pdfrwt beam="2">  1        2 0.38326155E+00 0.64929717E+03</pdfrwt>
<totfact> 0.45979346E+00</totfact>
</mgrwt>
</event>
<event>
 5    1  0.2343702E-004  0.6522838E+03  0.7818608E-02  0.9802503E-01
         13   -1    0    0    0    0  0.00000000000E+00  0.00000000000E+00  0.10000000000E+04  0.10000000000E+04  0.00000000000E+00 0. -1.
          2   -1    0    0  501    0 -0.00000000000E+00 -0.00000000000E+00 -0.10636854333E+03  0.10636854333E+03  0.00000000000E+00 0. -1.
    9000006    2    1    2  501    0  0.00000000000E+00  0.00000000000E+00  0.89363145667E+03  0.11063685433E+04  0.65228381347E+03 0.  0.
         13    1    3    3    0    0 -0.12370783020E+02  0.12553504329E+01  0.99959781283E+03  0.99967514703E+03  0.00000000000E+00 0. -1.
          4    1    3    3  501    0  0.12370783020E+02 -0.12553504329E+01 -0.10596635616E+03  0.10669339630E+03  0.00000000000E+00 0. -1.
<mgrwt>
<rscale>  0 0.65228381E+03</rscale>
<asrwt>0</asrwt>
<pdfrwt beam="1">0</pdfrwt>
<pdfrwt beam="2">  1        2 0.38679552E+00 0.65228381E+03</pdfrwt>
<totfact> 0.44603668E+00</totfact>
</mgrwt>
</event>
<event>
 5    1  0.2343702E-004  0.6552991E+03  0.7818608E-02  0.9796886E-01
         13   -1    0    0    0    0  0.00000000000E+00  0.00000000000E+00  0.10000000000E+04  0.10000000000E+04  0.00000000000E+00 0. -1.
          2   -1    0    0  501    0 -0.00000000000E+00 -0.00000000000E+00 -0.10735423290E+03  0.10735423290E+03  0.00000000000E+00 0. -1.
    9000006    2    1    2  501    0  0.00000000000E+00  0.00000000000E+00  0.89264576710E+03  0.11073542329E+04  0.65529911614E+03 0.  0.
         13    1    3    3    0    0 -0.21915619474E+03  0.24351058021E+03  0.43747859106E+03  0.54654767221E+03  0.00000000000E+00 0. -1.
          4    1    3    3  501    0  0.21915619474E+03 -0.24351058021E+03  0.45516717604E+03  0.56080656069E+03  0.00000000000E+00 0. -1.
<mgrwt>
<rscale>  0 0.65529912E+03</rscale>
<asrwt>0</asrwt>
<pdfrwt beam="1">0</pdfrwt>
<pdfrwt beam="2">  1        2 0.39037985E+00 0.65529912E+03</pdfrwt>
<totfact> 0.43246563E+00</totfact>
</mgrwt>
</event>
<event>
 5    1  0.2343702E-004  0.6566564E+03  0.7818608E-02  0.9794368E-01
         13   -1    0    0    0    0  0.00000000000E+00  0.00000000000E+00  0.10000000000E+04  0.10000000000E+04  0.00000000000E+00 0. -1.
          2   -1    0    0  501    0 -0.00000000000E+00 -0.00000000000E+00 -0.10779941599E+03  0.10779941599E+03  0.00000000000E+00 0. -1.
    9000006    2    1    2  501    0  0.00000000000E+00  0.00000000000E+00  0.89220058401E+03  0.11077994160E+04  0.65665642763E+03 0.  0.
         13    1    3    3    0    0  0.26904120979E+02 -0.30024190569E+03  0.66561130554E+03  0.73068970413E+03  0.00000000000E+00 0. -1.
          2    1    3    3  501    0 -0.26904120979E+02  0.30024190569E+03  0.22658927847E+03  0.37710971186E+03  0.00000000000E+00 0. -1.
<mgrwt>
<rscale>  0 0.65665643E+03</rscale>
<asrwt>0</asrwt>
<pdfrwt beam="1">0</pdfrwt>
<pdfrwt beam="2">  1        2 0.39199870E+00 0.65665643E+03</pdfrwt>
<totfact> 0.42645958E+00</totfact>
</mgrwt>
</event>
<event>
 5    1  0.2343702E-004  0.6484336E+03  0.7818608E-02  0.9809723E-01
         13   -1    0    0    0    0  0.00000000000E+00  0.00000000000E+00  0.10000000000E+04  0.10000000000E+04  0.00000000000E+00 0. -1.
          2   -1    0    0  501    0 -0.00000000000E+00 -0.00000000000E+00 -0.10511651943E+03  0.10511651943E+03  0.00000000000E+00 0. -1.
    9000006    2    1    2  501    0  0.00000000000E+00  0.00000000000E+00  0.89488348057E+03  0.11051165194E+04  0.64843355691E+03 0.  0.
         13    1    3    3    0    0  0.31942561089E+02  0.21407288445E+03  0.36044529379E+02  0.21942364312E+03  0.00000000000E+00 0. -1.
          2    1    3    3  501    0 -0.31942561089E+02 -0.21407288445E+03  0.85883895119E+03  0.88569287631E+03  0.00000000000E+00 0. -1.
<mgrwt>
<rscale>  0 0.64843356E+03</rscale>
<asrwt>0</asrwt>
<pdfrwt beam="1">0</pdfrwt>
<pdfrwt beam="2">  1        2 0.38224269E+00 0.64843356E+03</pdfrwt>
<totfact> 0.46383048E+00</totfact>
</mgrwt>
</event>
<event>
 5    1  0.2343702E-004  0.6518755E+03  0.7818608E-02  0.9803266E-01
         13   -1    0    0    0    0  0.00000000000E+00  0.00000000000E+00  0.10000000000E+04  0.10000000000E+04  0.00000000000E+00 0. -1.
          2   -1    0    0  501    0 -0.00000000000E+00 -0.00000000000E+00 -0.10623541022E+03  0.10623541022E+03  0.00000000000E+00 0. -1.
    9000006    2    1    2  501    0  0.00000000000E+00  0.00000000000E+00  0.89376458978E+03  0.11062354102E+04  0.65187547957E+03 0.  0.
         13    1    3    3    0    0  0.21555774427E+03  0.22033515932E+03  0.26710645368E+03  0.40787078976E+03  0.00000000000E+00 0. -1.
          4    1    3    3  501    0 -0.21555774427E+03 -0.22033515932E+03  0.62665813611E+03  0.69836462045E+03  0.00000000000E+00 0. -1.
<mgrwt>
<rscale>  0 0.65187548E+03</rscale>
<asrwt>0</asrwt>
<pdfrwt beam="1">0</pdfrwt>
<pdfrwt beam="2">  1        2 0.38631140E+00 0.65187548E+03</pdfrwt>
<totfact> 0.44789892E+00</totfact>
</mgrwt>
</event>
<event>
 5    1  0.2343702E-004  0.6439459E+03  0.7818608E-02  0.9818206E-01
         13   -1    0    0    0    0  0.00000000000E+00  0.00000000000E+00  0.10000000000E+04  0.10000000000E+04  0.00000000000E+00 0. -1.
          2   -1    0    0  501    0 -0.00000000000E+00 -0.00000000000E+00 -0.10366658344E+03  0.10366658344E+03  0.00000000000E+00 0. -1.
    9000006    2    1    2  501    0  0.00000000000E+00  0.00000000000E+00  0.89633341656E+03  0.11036665834E+04  0.64394590903E+03 0.  0.
         13    1    3    3    0    0 -0.19587835659E+03  0.22814790938E+03  0.64542884690E+03  0.71203805765E+03  0.00000000000E+00 0. -1.
          2    1    3    3  501    0  0.19587835659E+03 -0.22814790938E+03  0.25090456966E+03  0.39162852578E+03  0.00000000000E+00 0. -1.
<mgrwt>
<rscale>  0 0.64394591E+03</rscale>
<asrwt>0</asrwt>
<pdfrwt beam="1">0</pdfrwt>
<pdfrwt beam="2">  1        2 0.37697019E+00 0.64394591E+03</pdfrwt>
<totfact> 0.48524152E+00</totfact>
</mgrwt>
</event>
<event>
 5    1  0.2343702E-004  0.6320948E+03  0.7818608E-02  0.9840970E-01
         13   -1    0    0    0    0  0.00000000000E+00  0.00000000000E+00  0.10000000000E+04  0.10000000000E+04  0.00000000000E+00 0. -1.
          2   -1    0    0  501    0 -0.00000000000E+00 -0.00000000000E+00 -0.99885946536E+02  0.99885946536E+02  0.00000000000E+00 0. -1.
    9000006    2    1    2  501    0  0.00000000000E+00  0.00000000000E+00  0.90011405346E+03  0.10998859465E+04  0.63209476042E+03 0.  0.
         13    1    3    3    0    0 -0.22537291049E+03 -0.14693221487E+03  0.73863473250E+03  0.78610641303E+03  0.00000000000E+00 0. -1.
          2    1    3    3  501    0  0.22537291049E+03  0.14693221487E+03  0.16147932096E+03  0.31377953350E+03  0.00000000000E+00 0. -1.
<mgrwt>
<rscale>  0 0.63209476E+03</rscale>
<asrwt>0</asrwt>
<pdfrwt beam="1">0</pdfrwt>
<pdfrwt beam="2">  1        2 0.36322239E+00 0.63209476E+03</pdfrwt>
<totfact> 0.54539283E+00</totfact>
</mgrwt>
</event>
<event>
 5    1  0.2343702E-004  0.6413081E+03  0.7818608E-02  0.9823227E-01
         13   -1    0    0    0    0  0.00000000000E+00  0.00000000000E+00  0.10000000000E+04  0.10000000000E+04  0.00000000000E+00 0. -1.
          2   -1    0    0  501    0 -0.00000000000E+00 -0.00000000000E+00 -0.10281901758E+03  0.10281901758E+03  0.00000000000E+00 0. -1.
    9000006    2    1    2  501    0  0.00000000000E+00  0.00000000000E+00  0.89718098242E+03  0.11028190176E+04  0.64130809312E+03 0.  0.
         13    1    3    3    0    0  0.20557651196E+03  0.23131112970E+03  0.30417680541E+03  0.43392403706E+03  0.00000000000E+00 0. -1.
          2    1    3    3  501    0 -0.20557651196E+03 -0.23131112970E+03  0.59300417702E+03  0.66889498051E+03  0.00000000000E+00 0. -1.
<mgrwt>
<rscale>  0 0.64130809E+03</rscale>
<asrwt>0</asrwt>
<pdfrwt beam="1">0</pdfrwt>
<pdfrwt beam="2">  1        2 0.37388813E+00 0.64130809E+03</pdfrwt>
<totfact> 0.49817150E+00</totfact>
</mgrwt>
</event>
<event>
 5    1  0.2343702E-004  0.6452237E+03  0.7818608E-02  0.9815783E-01
         13   -1    0    0    0    0  0.00000000000E+00  0.00000000000E+00  0.10000000000E+04  0.10000000000E+04  0.00000000000E+00 0. -1.
          2   -1    0    0  501    0 -0.00000000000E+00 -0.00000000000E+00 -0.10407840741E+03  0.10407840741E+03  0.00000000000E+00 0. -1.
    9000006    2    1    2  501    0  0.00000000000E+00  0.00000000000E+00  0.89592159259E+03  0.11040784074E+04  0.64522370511E+03 0.  0.
         13    1    3    3    0    0  0.52039676680E+02  0.29285717638E+03  0.23420355107E+03  0.37858256305E+03  0.00000000000E+00 0. -1.
          2    1    3    3  501    0 -0.52039676680E+02 -0.29285717638E+03  0.66171804152E+03  0.72549584436E+03  0.00000000000E+00 0. -1.
<mgrwt>
<rscale>  0 0.64522371E+03</rscale>
<asrwt>0</asrwt>
<pdfrwt beam="1">0</pdfrwt>
<pdfrwt beam="2">  1        2 0.37846773E+00 0.64522371E+03</pdfrwt>
<totfact> 0.47907047E+00</totfact>
</mgrwt>
</event>
<event>
 5    1  0.2343702E-004  0.6494300E+03  0.7818608E-02  0.9807849E-01
         13   -1    0    0    0    0  0.00000000000E+00  0.00000000000E+00  0.10000000000E+04  0.10000000000E+04  0.00000000000E+00 0. -1.
          2   -1    0    0  501    0 -0.00000000000E+00 -0.00000000000E+00 -0.10543984424E+03  0.10543984424E+03  0.00000000000E+00 0. -1.
    9000006    2    1    2  501    0  0.00000000000E+00  0.00000000000E+00  0.89456015576E+03  0.11054398442E+04  0.64943004007E+03 0.  0.
         13    1    3    3    0    0  0.29027591248E+03 -0.13486740731E+03  0.35419583042E+03  0.47739292957E+03  0.00000000000E+00 0. -1.
          4    1    3    3  501    0 -0.29027591248E+03  0.13486740731E+03  0.54036432535E+03  0.62804691467E+03  0.00000000000E+00 0. -1.
<mgrwt>
<rscale>  0 0.64943004E+03</rscale>
<asrwt>0</asrwt>
<pdfrwt beam="1">0</pdfrwt>
<pdfrwt beam="2">  1        2 0.38341842E+00 0.64943004E+03</pdfrwt>
<totfact> 0.45917474E+00</totfact>
</mgrwt>
</event>
<event>
 5    1  0.2343702E-004  0.6489909E+03  0.7818608E-02  0.9808675E-01
         13   -1    0    0    0    0  0.00000000000E+00  0.00000000000E+00  0.10000000000E+04  0.10000000000E+04  0.00000000000E+00 0. -1.
          2   -1    0    0  501    0 -0.00000000000E+00 -0.00000000000E+00 -0.10529730106E+03  0.10529730106E+03  0.00000000000E+00 0. -1.
    9000006    2    1    2  501    0  0.00000000000E+00  0.00000000000E+00  0.89470269894E+03  0.11052973011E+04  0.64899091228E+03 0.  0.
         13    1    3    3    0    0 -0.26162356930E+03  0.19195561161E+03  0.44418696388E+03  0.55008718193E+03  0.00000000000E+00 0. -1.
          2    1    3    3  501    0  0.26162356930E+03 -0.19195561161E+03  0.45051573506E+03  0.55521011912E+03  0.00000000000E+00 0. -1.
<mgrwt>
<rscale>  0 0.64899091E+03</rscale>
<asrwt>0</asrwt>
<pdfrwt beam="1">0</pdfrwt>
<pdfrwt beam="2">  1        2 0.38290008E+00 0.64899091E+03</pdfrwt>
<totfact> 0.46122205E+00</totfact>
</mgrwt>
</event>
<event>
 5    1  0.2343702E-004  0.6320732E+03  0.7818608E-02  0.9841011E-01
         13   -1    0    0    0    0  0.00000000000E+00  0.00000000000E+00  0.10000000000E+04  0.10000000000E+04  0.00000000000E+00 0. -1.
          2   -1    0    0  501    0 -0.00000000000E+00 -0.00000000000E+00 -0.99879141394E+02  0.99879141394E+02  0.00000000000E+00 0. -1.
    9000006    2    1    2  501    0  0.00000000000E+00  0.00000000000E+00  0.90012085861E+03  0.10998791414E+04  0.63207322802E+03 0.  0.
         13    1    3    3    0    0  0.12954059191E+03  0.24573891022E+03  0.71229711450E+03  0.76454925039E+03  0.00000000000E+00 0. -1.
          2    1    3    3  501    0 -0.12954059191E+03 -0.24573891022E+03  0.18782374410E+03  0.33532989100E+03  0.00000000000E+00 0. -1.
<mgrwt>
<rscale>  0 0.63207323E+03</rscale>
<asrwt>0</asrwt>
<pdfrwt beam="1">0</pdfrwt>
<pdfrwt beam="2">  1        2 0.36319764E+00 0.63207323E+03</pdfrwt>
<totfact> 0.54550702E+00</totfact>
</mgrwt>
</event>
<event>
 5    1  0.2343702E-004  0.6535116E+03  0.7818608E-02  0.9800212E-01
         13   -1    0    0    0    0  0.00000000000E+00  0.00000000000E+00  0.10000000000E+04  0.10000000000E+04  0.00000000000E+00 0. -1.
          2   -1    0    0  501    0 -0.00000000000E+00 -0.00000000000E+00 -0.10676935472E+03  0.10676935472E+03  0.00000000000E+00 0. -1.
    9000006    2    1    2  501    0  0.00000000000E+00  0.00000000000E+00  0.89323064528E+03  0.11067693547E+04  0.65351160577E+03 0.  0.
         13    1    3    3    0    0 -0.27473942193E+03  0.17431159549E+03  0.39572149512E+03  0.51231024193E+03  0.00000000000E+00 0. -1.
          2    1    3    3  501    0  0.27473942193E+03 -0.17431159549E+03  0.49750915016E+03  0.59445911279E+03  0.00000000000E+00 0. -1.
<mgrwt>
<rscale>  0 0.65351161E+03</rscale>
<asrwt>0</asrwt>
<pdfrwt beam="1">0</pdfrwt>
<pdfrwt beam="2">  1        2 0.38825302E+00 0.65351161E+03</pdfrwt>
<totfact> 0.44047248E+00</totfact>
</mgrwt>
</event>
<event>
 5    1  0.2343702E-004  0.6506176E+03  0.7818608E-02  0.9805621E-01
         13   -1    0    0    0    0  0.00000000000E+00  0.00000000000E+00  0.10000000000E+04  0.10000000000E+04  0.00000000000E+00 0. -1.
          2   -1    0    0  501    0 -0.00000000000E+00 -0.00000000000E+00 -0.10582581791E+03  0.10582581791E+03  0.00000000000E+00 0. -1.
    9000006    2    1    2  501    0  0.00000000000E+00  0.00000000000E+00  0.89417418209E+03  0.11058258179E+04  0.65061760784E+03 0.  0.
         13    1    3    3    0    0 -0.10518775907E+03  0.13746984809E+02  0.96977572639E+03  0.97556055873E+03  0.00000000000E+00 0. -1.
          2    1    3    3  501    0  0.10518775907E+03 -0.13746984809E+02 -0.75601544300E+02  0.13026525918E+03  0.00000000000E+00 0. -1.
<mgrwt>
<rscale>  0 0.65061761E+03</rscale>
<asrwt>0</asrwt>
<pdfrwt beam="1">0</pdfrwt>
<pdfrwt beam="2">  1        2 0.38482197E+00 0.65061761E+03</pdfrwt>
<totfact> 0.45367245E+00</totfact>
</mgrwt>
</event>
<event>
 5    1  0.2343702E-004  0.6633077E+03  0.7818608E-02  0.9782124E-01
         13   -1    0    0    0    0  0.00000000000E+00  0.00000000000E+00  0.10000000000E+04  0.10000000000E+04  0.00000000000E+00 0. -1.
          2   -1    0    0  501    0 -0.00000000000E+00 -0.00000000000E+00 -0.10999426980E+03  0.10999426980E+03  0.00000000000E+00 0. -1.
    9000006    2    1    2  501    0  0.00000000000E+00  0.00000000000E+00  0.89000573020E+03  0.11099942698E+04  0.66330768065E+03 0.  0.
         13    1    3    3    0    0  0.31022158531E+03 -0.83497776848E+02  0.58284415445E+03  0.66551981120E+03  0.00000000000E+00 0. -1.
          2    1    3    3  501    0 -0.31022158531E+03  0.83497776848E+02  0.30716157575E+03  0.44447445860E+03  0.00000000000E+00 0. -1.
<mgrwt>
<rscale>  0 0.66330768E+03</rscale>
<asrwt>0</asrwt>
<pdfrwt beam="1">0</pdfrwt>
<pdfrwt beam="2">  1        2 0.39998001E+00 0.66330768E+03</pdfrwt>
<totfact> 0.39793492E+00</totfact>
</mgrwt>
</event>
<event>
 5    1  0.2343702E-004  0.6468448E+03  0.7818608E-02  0.9812718E-01
         13   -1    0    0    0    0  0.00000000000E+00  0.00000000000E+00  0.10000000000E+04  0.10000000000E+04  0.00000000000E+00 0. -1.
          2   -1    0    0  501    0 -0.00000000000E+00 -0.00000000000E+00 -0.10460204074E+03  0.10460204074E+03  0.00000000000E+00 0. -1.
    9000006    2    1    2  501    0  0.00000000000E+00  0.00000000000E+00  0.89539795926E+03  0.11046020407E+04  0.64684477502E+03 0.  0.
         13    1    3    3    0    0 -0.17523724547E+03 -0.19670129390E+03  0.12729874469E+03  0.29258240142E+03  0.00000000000E+00 0. -1.
          2    1    3    3  501    0  0.17523724547E+03  0.19670129390E+03  0.76809921457E+03  0.81201963932E+03  0.00000000000E+00 0. -1.
<mgrwt>
<rscale>  0 0.64684478E+03</rscale>
<asrwt>0</asrwt>
<pdfrwt beam="1">0</pdfrwt>
<pdfrwt beam="2">  1        2 0.38037186E+00 0.64684478E+03</pdfrwt>
<totfact> 0.47132725E+00</totfact>
</mgrwt>
</event>
<event>
 5    1  0.2343702E-004  0.6482172E+03  0.7818608E-02  0.9810130E-01
         13   -1    0    0    0    0  0.00000000000E+00  0.00000000000E+00  0.10000000000E+04  0.10000000000E+04  0.00000000000E+00 0. -1.
          2   -1    0    0  501    0 -0.00000000000E+00 -0.00000000000E+00 -0.10504640070E+03  0.10504640070E+03  0.00000000000E+00 0. -1.
    9000006    2    1    2  501    0  0.00000000000E+00  0.00000000000E+00  0.89495359930E+03  0.11050464007E+04  0.64821724970E+03 0.  0.
         13    1    3    3    0    0  0.14009676891E+03  0.15396779164E+03  0.23981087893E+02  0.20954302207E+03  0.00000000000E+00 0. -1.
          4    1    3    3  501    0 -0.14009676891E+03 -0.15396779164E+03  0.87097251140E+03  0.89550337863E+03  0.00000000000E+00 0. -1.
<mgrwt>
<rscale>  0 0.64821725E+03</rscale>
<asrwt>0</asrwt>
<pdfrwt beam="1">0</pdfrwt>
<pdfrwt beam="2">  1        2 0.38198772E+00 0.64821725E+03</pdfrwt>
<totfact> 0.46484581E+00</totfact>
</mgrwt>
</event>
<event>
 5    1  0.2343702E-004  0.5286104E+03  0.7818608E-02  0.1006570E+00
         13   -1    0    0    0    0  0.00000000000E+00  0.00000000000E+00  0.10000000000E+04  0.10000000000E+04  0.00000000000E+00 0. -1.
          2   -1    0    0  501    0 -0.00000000000E+00 -0.00000000000E+00 -0.69857245334E+02  0.69857245334E+02  0.00000000000E+00 0. -1.
    9000006    2    1    2  501    0  0.00000000000E+00  0.00000000000E+00  0.93014275467E+03  0.10698572453E+04  0.52861042492E+03 0.  0.
         13    1    3    3    0    0 -0.86136245532E+02  0.22866351644E+03  0.66898207195E+03  0.71221027031E+03  0.00000000000E+00 0. -1.
          2    1    3    3  501    0  0.86136245532E+02 -0.22866351644E+03  0.26116068272E+03  0.35764697502E+03  0.00000000000E+00 0. -1.
<mgrwt>
<rscale>  0 0.52861042E+03</rscale>
<asrwt>0</asrwt>
<pdfrwt beam="1">0</pdfrwt>
<pdfrwt beam="2">  1        2 0.25402688E+00 0.52861042E+03</pdfrwt>
<totfact> 0.13482749E+01</totfact>
</mgrwt>
</event>
<event>
 5    1  0.2343702E-004  0.6434166E+03  0.7818608E-02  0.9819211E-01
         13   -1    0    0    0    0  0.00000000000E+00  0.00000000000E+00  0.10000000000E+04  0.10000000000E+04  0.00000000000E+00 0. -1.
          2   -1    0    0  501    0 -0.00000000000E+00 -0.00000000000E+00 -0.10349623387E+03  0.10349623387E+03  0.00000000000E+00 0. -1.
    9000006    2    1    2  501    0  0.00000000000E+00  0.00000000000E+00  0.89650376613E+03  0.11034962339E+04  0.64341661114E+03 0.  0.
         13    1    3    3    0    0  0.13028299455E+03 -0.33629839120E+02  0.94942317421E+03  0.95891031305E+03  0.00000000000E+00 0. -1.
          4    1    3    3  501    0 -0.13028299455E+03  0.33629839120E+02 -0.52919408079E+02  0.14458592082E+03  0.00000000000E+00 0. -1.
<mgrwt>
<rscale>  0 0.64341661E+03</rscale>
<asrwt>0</asrwt>
<pdfrwt beam="1">0</pdfrwt>
<pdfrwt beam="2">  1        2 0.37635073E+00 0.64341661E+03</pdfrwt>
<totfact> 0.48781528E+00</totfact>
</mgrwt>
</event>
<event>
 5    1  0.2343702E-004  0.6540554E+03  0.7818608E-02  0.9799199E-01
         13   -1    0    0    0    0  0.00000000000E+00  0.00000000000E+00  0.10000000000E+04  0.10000000000E+04  0.00000000000E+00 0. -1.
          2   -1    0    0  501    0 -0.00000000000E+00 -0.00000000000E+00 -0.10694710883E+03  0.10694710883E+03  0.00000000000E+00 0. -1.
    9000006    2    1    2  501    0  0.00000000000E+00  0.00000000000E+00  0.89305289117E+03  0.11069471088E+04  0.65405537633E+03 0.  0.
         13    1    3    3    0    0 -0.15158749413E+03 -0.27485189972E+03  0.29118352301E+03  0.42814738027E+03  0.00000000000E+00 0. -1.
          2    1    3    3  501    0  0.15158749413E+03  0.27485189972E+03  0.60186936816E+03  0.67879972856E+03  0.00000000000E+00 0. -1.
<mgrwt>
<rscale>  0 0.65405538E+03</rscale>
<asrwt>0</asrwt>
<pdfrwt beam="1">0</pdfrwt>
<pdfrwt beam="2">  1        2 0.38889940E+00 0.65405538E+03</pdfrwt>
<totfact> 0.43802500E+00</totfact>
</mgrwt>
</event>
<event>
 5    1  0.2343702E-004  0.5996565E+03  0.7818608E-02  0.9906119E-01
         13   -1    0    0    0    0  0.00000000000E+00  0.00000000000E+00  0.10000000000E+04  0.10000000000E+04  0.00000000000E+00 0. -1.
          2   -1    0    0  501    0 -0.00000000000E+00 -0.00000000000E+00 -0.89896968578E+02  0.89896968578E+02  0.00000000000E+00 0. -1.
    9000006    2    1    2  501    0  0.00000000000E+00  0.00000000000E+00  0.91010303142E+03  0.10898969686E+04  0.59965646358E+03 0.  0.
         13    1    3    3    0    0  0.19131875179E+03 -0.23085318832E+03  0.45678460620E+03  0.54639567696E+03  0.00000000000E+00 0. -1.
          2    1    3    3  501    0 -0.19131875179E+03  0.23085318832E+03  0.45331842522E+03  0.54350129162E+03  0.00000000000E+00 0. -1.
<mgrwt>
<rscale>  0 0.59965646E+03</rscale>
<asrwt>0</asrwt>
<pdfrwt beam="1">0</pdfrwt>
<pdfrwt beam="2">  1        2 0.32689876E+00 0.59965646E+03</pdfrwt>
<totfact> 0.73922513E+00</totfact>
</mgrwt>
</event>
<event>
 5    1  0.2343702E-004  0.6552237E+03  0.7818608E-02  0.9797026E-01
         13   -1    0    0    0    0  0.00000000000E+00  0.00000000000E+00  0.10000000000E+04  0.10000000000E+04  0.00000000000E+00 0. -1.
          2   -1    0    0  501    0 -0.00000000000E+00 -0.00000000000E+00 -0.10732951306E+03  0.10732951306E+03  0.00000000000E+00 0. -1.
    9000006    2    1    2  501    0  0.00000000000E+00  0.00000000000E+00  0.89267048694E+03  0.11073295131E+04  0.65522366582E+03 0.  0.
         13    1    3    3    0    0 -0.30472646649E+02 -0.28160634404E+03  0.16813192076E+03  0.32939195189E+03  0.00000000000E+00 0. -1.
          4    1    3    3  501    0  0.30472646649E+02  0.28160634404E+03  0.72453856618E+03  0.77793756117E+03  0.00000000000E+00 0. -1.
<mgrwt>
<rscale>  0 0.65522367E+03</rscale>
<asrwt>0</asrwt>
<pdfrwt beam="1">0</pdfrwt>
<pdfrwt beam="2">  1        2 0.39028996E+00 0.65522367E+03</pdfrwt>
<totfact> 0.43280135E+00</totfact>
</mgrwt>
</event>
<event>
 5    1  0.2343702E-004  0.6504975E+03  0.7818608E-02  0.9805846E-01
         13   -1    0    0    0    0  0.00000000000E+00  0.00000000000E+00  0.10000000000E+04  0.10000000000E+04  0.00000000000E+00 0. -1.
          2   -1    0    0  501    0 -0.00000000000E+00 -0.00000000000E+00 -0.10578676363E+03  0.10578676363E+03  0.00000000000E+00 0. -1.
    9000006    2    1    2  501    0  0.00000000000E+00  0.00000000000E+00  0.89421323637E+03  0.11057867636E+04  0.65049754383E+03 0.  0.
         13    1    3    3    0    0  0.29352491802E+03 -0.11034118171E+03  0.59387790286E+03  0.67158247251E+03  0.00000000000E+00 0. -1.
          4    1    3    3  501    0 -0.29352491802E+03  0.11034118171E+03  0.30033533351E+03  0.43420429113E+03  0.00000000000E+00 0. -1.
<mgrwt>
<rscale>  0 0.65049754E+03</rscale>
<asrwt>0</asrwt>
<pdfrwt beam="1">0</pdfrwt>
<pdfrwt beam="2">  1        2 0.38467995E+00 0.65049754E+03</pdfrwt>
<totfact> 0.45422646E+00</totfact>
</mgrwt>
</event>
<event>
 5    1  0.2343702E-004  0.6644364E+03  0.7818608E-02  0.9780061E-01
         13   -1    0    0    0    0  0.00000000000E+00  0.00000000000E+00  0.10000000000E+04  0.10000000000E+04  0.00000000000E+00 0. -1.
          2   -1    0    0  501    0 -0.00000000000E+00 -0.00000000000E+00 -0.11036893273E+03  0.11036893273E+03  0.00000000000E+00 0. -1.
    9000006    2    1    2  501    0  0.00000000000E+00  0.00000000000E+00  0.88963106727E+03  0.11103689327E+04  0.66443640096E+03 0.  0.
         13    1    3    3    0    0  0.29298143853E+03  0.13167618805E+03  0.30309117890E+03  0.44163446938E+03  0.00000000000E+00 0. -1.
          2    1    3    3  501    0 -0.29298143853E+03 -0.13167618805E+03  0.58653988837E+03  0.66873446335E+03  0.00000000000E+00 0. -1.
<mgrwt>
<rscale>  0 0.66443640E+03</rscale>
<asrwt>0</asrwt>
<pdfrwt beam="1">0</pdfrwt>
<pdfrwt beam="2">  1        2 0.40134242E+00 0.66443640E+03</pdfrwt>
<totfact> 0.39324108E+00</totfact>
</mgrwt>
</event>
<event>
 5    1  0.2343702E-004  0.6437761E+03  0.7818608E-02  0.9818528E-01
         13   -1    0    0    0    0  0.00000000000E+00  0.00000000000E+00  0.10000000000E+04  0.10000000000E+04  0.00000000000E+00 0. -1.
          2   -1    0    0  501    0 -0.00000000000E+00 -0.00000000000E+00 -0.10361192733E+03  0.10361192733E+03  0.00000000000E+00 0. -1.
    9000006    2    1    2  501    0  0.00000000000E+00  0.00000000000E+00  0.89638807267E+03  0.11036119273E+04  0.64377613293E+03 0.  0.
         13    1    3    3    0    0 -0.72989914558E+01  0.21370466230E+03  0.35736329852E+02  0.21679493360E+03  0.00000000000E+00 0. -1.
          4    1    3    3  501    0  0.72989914558E+01 -0.21370466230E+03  0.86065174281E+03  0.88681699373E+03  0.00000000000E+00 0. -1.
<mgrwt>
<rscale>  0 0.64377613E+03</rscale>
<asrwt>0</asrwt>
<pdfrwt beam="1">0</pdfrwt>
<pdfrwt beam="2">  1        2 0.37677144E+00 0.64377613E+03</pdfrwt>
<totfact> 0.48606595E+00</totfact>
</mgrwt>
</event>
<event>
 5    1  0.2343702E-004  0.6702468E+03  0.7818608E-02  0.9769512E-01
         13   -1    0    0    0    0  0.00000000000E+00  0.00000000000E+00  0.10000000000E+04  0.10000000000E+04  0.00000000000E+00 0. -1.
          2   -1    0    0  501    0 -0.00000000000E+00 -0.00000000000E+00 -0.11230768567E+03  0.11230768567E+03  0.00000000000E+00 0. -1.
    9000006    2    1    2  501    0  0.00000000000E+00  0.00000000000E+00  0.88769231433E+03  0.11123076857E+04  0.67024677745E+03 0.  0.
         13    1    3    3    0    0 -0.25087863427E+03  0.20887987119E+03  0.31814915933E+03  0.45583963990E+03  0.00000000000E+00 0. -1.
          2    1    3    3  501    0  0.25087863427E+03 -0.20887987119E+03  0.56954315500E+03  0.65646804578E+03  0.00000000000E+00 0. -1.
<mgrwt>
<rscale>  0 0.67024678E+03</rscale>
<asrwt>0</asrwt>
<pdfrwt beam="1">0</pdfrwt>
<pdfrwt beam="2">  1        2 0.40839245E+00 0.67024678E+03</pdfrwt>
<totfact> 0.36973532E+00</totfact>
</mgrwt>
</event>
<event>
 5    1  0.2343702E-004  0.6625957E+03  0.7818608E-02  0.9783427E-01
         13   -1    0    0    0    0  0.00000000000E+00  0.00000000000E+00  0.10000000000E+04  0.10000000000E+04  0.00000000000E+00 0. -1.
          2   -1    0    0  501    0 -0.00000000000E+00 -0.00000000000E+00 -0.10975827214E+03  0.10975827214E+03  0.00000000000E+00 0. -1.
    9000006    2    1    2  501    0  0.00000000000E+00  0.00000000000E+00  0.89024172786E+03  0.11097582721E+04  0.66259572031E+03 0.  0.
         13    1    3    3    0    0  0.19765433995E+03  0.18604234845E+03  0.12698788853E+03  0.29967468586E+03  0.00000000000E+00 0. -1.
          2    1    3    3  501    0 -0.19765433995E+03 -0.18604234845E+03  0.76325383933E+03  0.81008358628E+03  0.00000000000E+00 0. -1.
<mgrwt>
<rscale>  0 0.66259572E+03</rscale>
<asrwt>0</asrwt>
<pdfrwt beam="1">0</pdfrwt>
<pdfrwt beam="2">  1        2 0.39912183E+00 0.66259572E+03</pdfrwt>
<totfact> 0.40091730E+00</totfact>
</mgrwt>
</event>
<event>
 5    1  0.2343702E-004  0.6498171E+03  0.7818608E-02  0.9807122E-01
         13   -1    0    0    0    0  0.00000000000E+00  0.00000000000E+00  0.10000000000E+04  0.10000000000E+04  0.00000000000E+00 0. -1.
          2   -1    0    0  501    0 -0.00000000000E+00 -0.00000000000E+00 -0.10556557486E+03  0.10556557486E+03  0.00000000000E+00 0. -1.
    9000006    2    1    2  501    0  0.00000000000E+00  0.00000000000E+00  0.89443442514E+03  0.11055655749E+04  0.64981712769E+03 0.  0.
         13    1    3    3    0    0 -0.31740457402E+03  0.49530186740E+01  0.56503335943E+03  0.64809944705E+03  0.00000000000E+00 0. -1.
          2    1    3    3  501    0  0.31740457402E+03 -0.49530186740E+01  0.32940106571E+03  0.45746612781E+03  0.00000000000E+00 0. -1.
<mgrwt>
<rscale>  0 0.64981713E+03</rscale>
<asrwt>0</asrwt>
<pdfrwt beam="1">0</pdfrwt>
<pdfrwt beam="2">  1        2 0.38387563E+00 0.64981713E+03</pdfrwt>
<totfact> 0.45737576E+00</totfact>
</mgrwt>
</event>
<event>
 5    1  0.2343702E-004  0.6452620E+03  0.7818608E-02  0.9815710E-01
         13   -1    0    0    0    0  0.00000000000E+00  0.00000000000E+00  0.10000000000E+04  0.10000000000E+04  0.00000000000E+00 0. -1.
          2   -1    0    0  501    0 -0.00000000000E+00 -0.00000000000E+00 -0.10409077662E+03  0.10409077662E+03  0.00000000000E+00 0. -1.
    9000006    2    1    2  501    0  0.00000000000E+00  0.00000000000E+00  0.89590922338E+03  0.11040907766E+04  0.64526204481E+03 0.  0.
         13    1    3    3    0    0  0.41357337315E+02  0.97391200685E+02  0.96946808827E+03  0.97522502506E+03  0.00000000000E+00 0. -1.
          4    1    3    3  501    0 -0.41357337315E+02 -0.97391200685E+02 -0.73558864890E+02  0.12886575156E+03  0.00000000000E+00 0. -1.
<mgrwt>
<rscale>  0 0.64526204E+03</rscale>
<asrwt>0</asrwt>
<pdfrwt beam="1">0</pdfrwt>
<pdfrwt beam="2">  1        2 0.37851271E+00 0.64526204E+03</pdfrwt>
<totfact> 0.47888623E+00</totfact>
</mgrwt>
</event>
<event>
 5    1  0.2343702E-004  0.6518061E+03  0.7818608E-02  0.9803396E-01
         13   -1    0    0    0    0  0.00000000000E+00  0.00000000000E+00  0.10000000000E+04  0.10000000000E+04  0.00000000000E+00 0. -1.
          2   -1    0    0  501    0 -0.00000000000E+00 -0.00000000000E+00 -0.10621279583E+03  0.10621279583E+03  0.00000000000E+00 0. -1.
    9000006    2    1    2  501    0  0.00000000000E+00  0.00000000000E+00  0.89378720417E+03  0.11062127958E+04  0.65180609336E+03 0.  0.
         13    1    3    3    0    0 -0.16515538594E+03 -0.27684687843E+03  0.52814970898E+03  0.61875892777E+03  0.00000000000E+00 0. -1.
          2    1    3    3  501    0  0.16515538594E+03  0.27684687843E+03  0.36563749518E+03  0.48745386806E+03  0.00000000000E+00 0. -1.
<mgrwt>
<rscale>  0 0.65180609E+03</rscale>
<asrwt>0</asrwt>
<pdfrwt beam="1">0</pdfrwt>
<pdfrwt beam="2">  1        2 0.38622916E+00 0.65180609E+03</pdfrwt>
<totfact> 0.44821594E+00</totfact>
</mgrwt>
</event>
<event>
 5    1  0.2343702E-004  0.7556465E+03  0.7818608E-02  0.9626533E-01
         13   -1    0    0    0    0  0.00000000000E+00  0.00000000000E+00  0.10000000000E+04  0.10000000000E+04  0.00000000000E+00 0. -1.
          2   -1    0    0  501    0 -0.00000000000E+00 -0.00000000000E+00 -0.14275041037E+03  0.14275041037E+03  0.00000000000E+00 0. -1.
    9000006    2    1    2  501    0  0.00000000000E+00  0.00000000000E+00  0.85724958963E+03  0.11427504104E+04  0.75564650564E+03 0.  0.
         13    1    3    3    0    0  0.16356990007E+03  0.33943673347E+03  0.47080639990E+03  0.60301830355E+03  0.00000000000E+00 0. -1.
          2    1    3    3  501    0 -0.16356990007E+03 -0.33943673347E+03  0.38644318973E+03  0.53973210682E+03  0.00000000000E+00 0. -1.
<mgrwt>
<rscale>  0 0.75564651E+03</rscale>
<asrwt>0</asrwt>
<pdfrwt beam="1">0</pdfrwt>
<pdfrwt beam="2">  1        2 0.51909350E+00 0.75564651E+03</pdfrwt>
<totfact> 0.13144413E+00</totfact>
</mgrwt>
</event>
<event>
 5    1  0.2343702E-004  0.6157405E+03  0.7818608E-02  0.9873277E-01
         13   -1    0    0    0    0  0.00000000000E+00  0.00000000000E+00  0.10000000000E+04  0.10000000000E+04  0.00000000000E+00 0. -1.
          2   -1    0    0  501    0 -0.00000000000E+00 -0.00000000000E+00 -0.94784103948E+02  0.94784103948E+02  0.00000000000E+00 0. -1.
    9000006    2    1    2  501    0  0.00000000000E+00  0.00000000000E+00  0.90521589605E+03  0.10947841039E+04  0.61574054259E+03 0.  0.
         13    1    3    3    0    0  0.76594454659E+02  0.60512778826E+00  0.98278777641E+03  0.98576817261E+03  0.00000000000E+00 0. -1.
          2    1    3    3  501    0 -0.76594454659E+02 -0.60512778826E+00 -0.77571880357E+02  0.10901593134E+03  0.00000000000E+00 0. -1.
<mgrwt>
<rscale>  0 0.61574054E+03</rscale>
<asrwt>0</asrwt>
<pdfrwt beam="1">0</pdfrwt>
<pdfrwt beam="2">  1        2 0.34467020E+00 0.61574054E+03</pdfrwt>
<totfact> 0.63750344E+00</totfact>
</mgrwt>
</event>
<event>
 5    1  0.2343702E-004  0.6038783E+03  0.7818608E-02  0.9897392E-01
         13   -1    0    0    0    0  0.00000000000E+00  0.00000000000E+00  0.10000000000E+04  0.10000000000E+04  0.00000000000E+00 0. -1.
          2   -1    0    0  501    0 -0.00000000000E+00 -0.00000000000E+00 -0.91167259697E+02  0.91167259697E+02  0.00000000000E+00 0. -1.
    9000006    2    1    2  501    0  0.00000000000E+00  0.00000000000E+00  0.90883274030E+03  0.10911672597E+04  0.60387833111E+03 0.  0.
         13    1    3    3    0    0  0.88829389285E+02 -0.26183413204E+03  0.23519231266E+03  0.36299200685E+03  0.00000000000E+00 0. -1.
          2    1    3    3  501    0 -0.88829389285E+02  0.26183413204E+03  0.67364042764E+03  0.72817525285E+03  0.00000000000E+00 0. -1.
<mgrwt>
<rscale>  0 0.60387833E+03</rscale>
<asrwt>0</asrwt>
<pdfrwt beam="1">0</pdfrwt>
<pdfrwt beam="2">  1        2 0.33151801E+00 0.60387833E+03</pdfrwt>
<totfact> 0.71140233E+00</totfact>
</mgrwt>
</event>
<event>
 5    1  0.2343702E-004  0.6249328E+03  0.7818608E-02  0.9854987E-01
         13   -1    0    0    0    0  0.00000000000E+00  0.00000000000E+00  0.10000000000E+04  0.10000000000E+04  0.00000000000E+00 0. -1.
          2   -1    0    0  501    0 -0.00000000000E+00 -0.00000000000E+00 -0.97635262017E+02  0.97635262017E+02  0.00000000000E+00 0. -1.
    9000006    2    1    2  501    0  0.00000000000E+00  0.00000000000E+00  0.90236473798E+03  0.10976352620E+04  0.62493283485E+03 0.  0.
         13    1    3    3    0    0 -0.15868318696E+02 -0.23501973119E+03  0.90587706019E+02  0.25237315639E+03  0.00000000000E+00 0. -1.
          4    1    3    3  501    0  0.15868318696E+02  0.23501973119E+03  0.81177703196E+03  0.84526210563E+03  0.00000000000E+00 0. -1.
<mgrwt>
<rscale>  0 0.62493283E+03</rscale>
<asrwt>0</asrwt>
<pdfrwt beam="1">0</pdfrwt>
<pdfrwt beam="2">  1        2 0.35503807E+00 0.62493283E+03</pdfrwt>
<totfact> 0.58438665E+00</totfact>
</mgrwt>
</event>
<event>
 5    1  0.2343702E-004  0.6477898E+03  0.7818608E-02  0.9810935E-01
         13   -1    0    0    0    0  0.00000000000E+00  0.00000000000E+00  0.10000000000E+04  0.10000000000E+04  0.00000000000E+00 0. -1.
          2   -1    0    0  501    0 -0.00000000000E+00 -0.00000000000E+00 -0.10490789236E+03  0.10490789236E+03  0.00000000000E+00 0. -1.
    9000006    2    1    2  501    0  0.00000000000E+00  0.00000000000E+00  0.89509210764E+03  0.11049078924E+04  0.64778975712E+03 0.  0.
         13    1    3    3    0    0 -0.57912948333E+02 -0.17788787717E+03 -0.34381139820E+01  0.18710913141E+03  0.00000000000E+00 0. -1.
          2    1    3    3  501    0  0.57912948333E+02  0.17788787717E+03  0.89853022162E+03  0.91779876095E+03  0.00000000000E+00 0. -1.
<mgrwt>
<rscale>  0 0.64778976E+03</rscale>
<asrwt>0</asrwt>
<pdfrwt beam="1">0</pdfrwt>
<pdfrwt beam="2">  1        2 0.38148405E+00 0.64778976E+03</pdfrwt>
<totfact> 0.46685735E+00</totfact>
</mgrwt>
</event>
<event>
 5    1  0.2343702E-004  0.6431529E+03  0.7818608E-02  0.9819713E-01
         13   -1    0    0    0    0  0.00000000000E+00  0.00000000000E+00  0.10000000000E+04  0.10000000000E+04  0.00000000000E+00 0. -1.
          2   -1    0    0  501    0 -0.00000000000E+00 -0.00000000000E+00 -0.10341142310E+03  0.10341142310E+03  0.00000000000E+00 0. -1.
    9000006    2    1    2  501    0  0.00000000000E+00  0.00000000000E+00  0.89658857690E+03  0.11034114231E+04  0.64315293081E+03 0.  0.
         13    1    3    3    0    0 -0.19398671127E+03  0.63247721838E+02  0.87472477451E+03  0.89820629568E+03  0.00000000000E+00 0. -1.
          4    1    3    3  501    0  0.19398671127E+03 -0.63247721838E+02  0.21863802391E+02  0.20520512742E+03  0.00000000000E+00 0. -1.
<mgrwt>
<rscale>  0 0.64315293E+03</rscale>
<asrwt>0</asrwt>
<pdfrwt beam="1">0</pdfrwt>
<pdfrwt beam="2">  1        2 0.37604233E+00 0.64315293E+03</pdfrwt>
<totfact> 0.48910130E+00</totfact>
</mgrwt>
</event>
<event>
 5    1  0.2343702E-004  0.6953288E+03  0.7818608E-02  0.9725254E-01
         13   -1    0    0    0    0  0.00000000000E+00  0.00000000000E+00  0.10000000000E+04  0.10000000000E+04  0.00000000000E+00 0. -1.
          2   -1    0    0  501    0 -0.00000000000E+00 -0.00000000000E+00 -0.12087054709E+03  0.12087054709E+03  0.00000000000E+00 0. -1.
    9000006    2    1    2  501    0  0.00000000000E+00  0.00000000000E+00  0.87912945291E+03  0.11208705471E+04  0.69532883468E+03 0.  0.
         13    1    3    3    0    0 -0.16690349715E+03 -0.10489760970E+03 -0.22070897416E+02  0.19836181687E+03  0.00000000000E+00 0. -1.
          4    1    3    3  501    0  0.16690349715E+03  0.10489760970E+03  0.90120035033E+03  0.92250873021E+03  0.00000000000E+00 0. -1.
<mgrwt>
<rscale>  0 0.69532883E+03</rscale>
<asrwt>0</asrwt>
<pdfrwt beam="1">0</pdfrwt>
<pdfrwt beam="2">  1        2 0.43953019E+00 0.69532883E+03</pdfrwt>
<totfact> 0.28018058E+00</totfact>
</mgrwt>
</event>
<event>
 5    1  0.2343702E-004  0.6464755E+03  0.7818608E-02  0.9813415E-01
         13   -1    0    0    0    0  0.00000000000E+00  0.00000000000E+00  0.10000000000E+04  0.10000000000E+04  0.00000000000E+00 0. -1.
          2   -1    0    0  501    0 -0.00000000000E+00 -0.00000000000E+00 -0.10448263904E+03  0.10448263904E+03  0.00000000000E+00 0. -1.
    9000006    2    1    2  501    0  0.00000000000E+00  0.00000000000E+00  0.89551736096E+03  0.11044826390E+04  0.64647548768E+03 0.  0.
         13    1    3    3    0    0  0.12166687146E+03 -0.93753842096E+02 -0.38149628572E+02  0.15826561433E+03  0.00000000000E+00 0. -1.
          2    1    3    3  501    0 -0.12166687146E+03  0.93753842096E+02  0.93366698953E+03  0.94621702471E+03  0.00000000000E+00 0. -1.
<mgrwt>
<rscale>  0 0.64647549E+03</rscale>
<asrwt>0</asrwt>
<pdfrwt beam="1">0</pdfrwt>
<pdfrwt beam="2">  1        2 0.37993767E+00 0.64647549E+03</pdfrwt>
<totfact> 0.47308281E+00</totfact>
</mgrwt>
</event>
<event>
 5    1  0.2343702E-004  0.6904288E+03  0.7818608E-02  0.9733742E-01
         13   -1    0    0    0    0  0.00000000000E+00  0.00000000000E+00  0.10000000000E+04  0.10000000000E+04  0.00000000000E+00 0. -1.
          2   -1    0    0  501    0 -0.00000000000E+00 -0.00000000000E+00 -0.11917299275E+03  0.11917299275E+03  0.00000000000E+00 0. -1.
    9000006    2    1    2  501    0  0.00000000000E+00  0.00000000000E+00  0.88082700725E+03  0.11191729927E+04  0.69042883123E+03 0.  0.
         13    1    3    3    0    0 -0.13809940421E+03 -0.27882399446E+03  0.19803067824E+03  0.36882301291E+03  0.00000000000E+00 0. -1.
          2    1    3    3  501    0  0.13809940421E+03  0.27882399446E+03  0.68279632901E+03  0.75034997983E+03  0.00000000000E+00 0. -1.
<mgrwt>
<rscale>  0 0.69042883E+03</rscale>
<asrwt>0</asrwt>
<pdfrwt beam="1">0</pdfrwt>
<pdfrwt beam="2">  1        2 0.43335725E+00 0.69042883E+03</pdfrwt>
<totfact> 0.29622824E+00</totfact>
</mgrwt>
</event>
<event>
 5    1  0.2343702E-004  0.6511406E+03  0.7818608E-02  0.9804641E-01
         13   -1    0    0    0    0  0.00000000000E+00  0.00000000000E+00  0.10000000000E+04  0.10000000000E+04  0.00000000000E+00 0. -1.
          2   -1    0    0  501    0 -0.00000000000E+00 -0.00000000000E+00 -0.10599601188E+03  0.10599601188E+03  0.00000000000E+00 0. -1.
    9000006    2    1    2  501    0  0.00000000000E+00  0.00000000000E+00  0.89400398812E+03  0.11059960119E+04  0.65114057432E+03 0.  0.
         13    1    3    3    0    0 -0.15423912884E+03 -0.29367688217E+02  0.93144327403E+03  0.94458389924E+03  0.00000000000E+00 0. -1.
          2    1    3    3  501    0  0.15423912884E+03  0.29367688217E+02 -0.37439285909E+02  0.16141211264E+03  0.00000000000E+00 0. -1.
<mgrwt>
<rscale>  0 0.65114057E+03</rscale>
<asrwt>0</asrwt>
<pdfrwt beam="1">0</pdfrwt>
<pdfrwt beam="2">  1        2 0.38544086E+00 0.65114057E+03</pdfrwt>
<totfact> 0.45126529E+00</totfact>
</mgrwt>
</event>
<event>
 5    1  0.2343702E-004  0.6504499E+03  0.7818608E-02  0.9805935E-01
         13   -1    0    0    0    0  0.00000000000E+00  0.00000000000E+00  0.10000000000E+04  0.10000000000E+04  0.00000000000E+00 0. -1.
          2   -1    0    0  501    0 -0.00000000000E+00 -0.00000000000E+00 -0.10577125752E+03  0.10577125752E+03  0.00000000000E+00 0. -1.
    9000006    2    1    2  501    0  0.00000000000E+00  0.00000000000E+00  0.89422874248E+03  0.11057712575E+04  0.65044986745E+03 0.  0.
         13    1    3    3    0    0 -0.25787443701E+02 -0.26375038214E+03  0.76761021806E+03  0.81206816414E+03  0.00000000000E+00 0. -1.
          2    1    3    3  501    0  0.25787443701E+02  0.26375038214E+03  0.12661852442E+03  0.29370309338E+03  0.00000000000E+00 0. -1.
<mgrwt>
<rscale>  0 0.65044987E+03</rscale>
<asrwt>0</asrwt>
<pdfrwt beam="1">0</pdfrwt>
<pdfrwt beam="2">  1        2 0.38462357E+00 0.65044987E+03</pdfrwt>
<totfact> 0.45444660E+00</totfact>
</mgrwt>
</event>
<event>
 5    1  0.2343702E-004  0.6493927E+03  0.7818608E-02  0.9807919E-01
         13   -1    0    0    0    0  0.00000000000E+00  0.00000000000E+00  0.10000000000E+04  0.10000000000E+04  0.00000000000E+00 0. -1.
          2   -1    0    0  501    0 -0.00000000000E+00 -0.00000000000E+00 -0.10542772092E+03  0.10542772092E+03  0.00000000000E+00 0. -1.
    9000006    2    1    2  501    0  0.00000000000E+00  0.00000000000E+00  0.89457227908E+03  0.11054277209E+04  0.64939270375E+03 0.  0.
         13    1    3    3    0    0 -0.16957585463E+03  0.17667712902E+03  0.84355982103E+02  0.25901102314E+03  0.00000000000E+00 0. -1.
          2    1    3    3  501    0  0.16957585463E+03 -0.17667712902E+03  0.81021629698E+03  0.84641669778E+03  0.00000000000E+00 0. -1.
<mgrwt>
<rscale>  0 0.64939270E+03</rscale>
<asrwt>0</asrwt>
<pdfrwt beam="1">0</pdfrwt>
<pdfrwt beam="2">  1        2 0.38337434E+00 0.64939270E+03</pdfrwt>
<totfact> 0.45934855E+00</totfact>
</mgrwt>
</event>
<event>
 5    1  0.2343702E-004  0.6412430E+03  0.7818608E-02  0.9823351E-01
         13   -1    0    0    0    0  0.00000000000E+00  0.00000000000E+00  0.10000000000E+04  0.10000000000E+04  0.00000000000E+00 0. -1.
          2   -1    0    0  501    0 -0.00000000000E+00 -0.00000000000E+00 -0.10279814147E+03  0.10279814147E+03  0.00000000000E+00 0. -1.
    9000006    2    1    2  501    0  0.00000000000E+00  0.00000000000E+00  0.89720185853E+03  0.11027981415E+04  0.64124298506E+03 0.  0.
         13    1    3    3    0    0  0.23350487902E+03  0.19692402846E+03  0.61617636671E+03  0.68773317239E+03  0.00000000000E+00 0. -1.
          2    1    3    3  501    0 -0.23350487902E+03 -0.19692402846E+03  0.28102549181E+03  0.41506496908E+03  0.00000000000E+00 0. -1.
<mgrwt>
<rscale>  0 0.64124299E+03</rscale>
<asrwt>0</asrwt>
<pdfrwt beam="1">0</pdfrwt>
<pdfrwt beam="2">  1        2 0.37381221E+00 0.64124299E+03</pdfrwt>
<totfact> 0.49849392E+00</totfact>
</mgrwt>
</event>
<event>
 5    1  0.2343702E-004  0.6395588E+03  0.7818608E-02  0.9826571E-01
         13   -1    0    0    0    0  0.00000000000E+00  0.00000000000E+00  0.10000000000E+04  0.10000000000E+04  0.00000000000E+00 0. -1.
          2   -1    0    0  501    0 -0.00000000000E+00 -0.00000000000E+00 -0.10225886566E+03  0.10225886566E+03  0.00000000000E+00 0. -1.
    9000006    2    1    2  501    0  0.00000000000E+00  0.00000000000E+00  0.89774113434E+03  0.11022588657E+04  0.63955880313E+03 0.  0.
         13    1    3    3    0    0  0.23861443388E+03 -0.18276988217E+03  0.26072672406E+03  0.39789458720E+03  0.00000000000E+00 0. -1.
          4    1    3    3  501    0 -0.23861443388E+03  0.18276988217E+03  0.63701441028E+03  0.70436427847E+03  0.00000000000E+00 0. -1.
<mgrwt>
<rscale>  0 0.63955880E+03</rscale>
<asrwt>0</asrwt>
<pdfrwt beam="1">0</pdfrwt>
<pdfrwt beam="2">  1        2 0.37185120E+00 0.63955880E+03</pdfrwt>
<totfact> 0.50688923E+00</totfact>
</mgrwt>
</event>
<event>
 5    1  0.2343702E-004  0.6492157E+03  0.7818608E-02  0.9808252E-01
         13   -1    0    0    0    0  0.00000000000E+00  0.00000000000E+00  0.10000000000E+04  0.10000000000E+04  0.00000000000E+00 0. -1.
          2   -1    0    0  501    0 -0.00000000000E+00 -0.00000000000E+00 -0.10537025038E+03  0.10537025038E+03  0.00000000000E+00 0. -1.
    9000006    2    1    2  501    0  0.00000000000E+00  0.00000000000E+00  0.89462974962E+03  0.11053702504E+04  0.64921568181E+03 0.  0.
         13    1    3    3    0    0 -0.45692880972E+02  0.30222852927E+03  0.26126607087E+03  0.40210680554E+03  0.00000000000E+00 0. -1.
          4    1    3    3  501    0  0.45692880972E+02 -0.30222852927E+03  0.63336367876E+03  0.70326344484E+03  0.00000000000E+00 0. -1.
<mgrwt>
<rscale>  0 0.64921568E+03</rscale>
<asrwt>0</asrwt>
<pdfrwt beam="1">0</pdfrwt>
<pdfrwt beam="2">  1        2 0.38316535E+00 0.64921568E+03</pdfrwt>
<totfact> 0.46017327E+00</totfact>
</mgrwt>
</event>
<event>
 5    1  0.2343702E-004  0.7201022E+03  0.7818608E-02  0.9683459E-01
         13   -1    0    0    0    0  0.00000000000E+00  0.00000000000E+00  0.10000000000E+04  0.10000000000E+04  0.00000000000E+00 0. -1.
          2   -1    0    0  501    0 -0.00000000000E+00 -0.00000000000E+00 -0.12963679908E+03  0.12963679908E+03  0.00000000000E+00 0. -1.
    9000006    2    1    2  501    0  0.00000000000E+00  0.00000000000E+00  0.87036320092E+03  0.11296367991E+04  0.72010221242E+03 0.  0.
         13    1    3    3    0    0 -0.28146593298E+03 -0.81326139263E+02  0.10687419107E+03  0.31186392076E+03  0.00000000000E+00 0. -1.
          4    1    3    3  501    0  0.28146593298E+03  0.81326139263E+02  0.76348900985E+03  0.81777287832E+03  0.00000000000E+00 0. -1.
<mgrwt>
<rscale>  0 0.72010221E+03</rscale>
<asrwt>0</asrwt>
<pdfrwt beam="1">0</pdfrwt>
<pdfrwt beam="2">  1        2 0.47140754E+00 0.72010221E+03</pdfrwt>
<totfact> 0.20881497E+00</totfact>
</mgrwt>
</event>
<event>
 5    1  0.2343702E-004  0.6893906E+03  0.7818608E-02  0.9735550E-01
         13   -1    0    0    0    0  0.00000000000E+00  0.00000000000E+00  0.10000000000E+04  0.10000000000E+04  0.00000000000E+00 0. -1.
          2   -1    0    0  501    0 -0.00000000000E+00 -0.00000000000E+00 -0.11881485538E+03  0.11881485538E+03  0.00000000000E+00 0. -1.
    9000006    2    1    2  501    0  0.00000000000E+00  0.00000000000E+00  0.88118514462E+03  0.11188148554E+04  0.68939061606E+03 0.  0.
         13    1    3    3    0    0  0.20062011590E+03 -0.65320770596E+02  0.88296307156E+03  0.90782102846E+03  0.00000000000E+00 0. -1.
          4    1    3    3  501    0 -0.20062011590E+03  0.65320770596E+02 -0.17779269376E+01  0.21099382692E+03  0.00000000000E+00 0. -1.
<mgrwt>
<rscale>  0 0.68939062E+03</rscale>
<asrwt>0</asrwt>
<pdfrwt beam="1">0</pdfrwt>
<pdfrwt beam="2">  1        2 0.43205493E+00 0.68939062E+03</pdfrwt>
<totfact> 0.29971533E+00</totfact>
</mgrwt>
</event>
<event>
 5    1  0.2343702E-004  0.6366052E+03  0.7818608E-02  0.9832243E-01
         13   -1    0    0    0    0  0.00000000000E+00  0.00000000000E+00  0.10000000000E+04  0.10000000000E+04  0.00000000000E+00 0. -1.
          2   -1    0    0  501    0 -0.00000000000E+00 -0.00000000000E+00 -0.10131654299E+03  0.10131654299E+03  0.00000000000E+00 0. -1.
    9000006    2    1    2  501    0  0.00000000000E+00  0.00000000000E+00  0.89868345701E+03  0.11013165430E+04  0.63660519315E+03 0.  0.
         13    1    3    3    0    0 -0.29958386137E+03 -0.40213658324E+02  0.27678581829E+03  0.40985121388E+03  0.00000000000E+00 0. -1.
          2    1    3    3  501    0  0.29958386137E+03  0.40213658324E+02  0.62189763872E+03  0.69146532911E+03  0.00000000000E+00 0. -1.
<mgrwt>
<rscale>  0 0.63660519E+03</rscale>
<asrwt>0</asrwt>
<pdfrwt beam="1">0</pdfrwt>
<pdfrwt beam="2">  1        2 0.36842457E+00 0.63660519E+03</pdfrwt>
<totfact> 0.52187048E+00</totfact>
</mgrwt>
</event>
<event>
 5    1  0.2343702E-004  0.6470205E+03  0.7818608E-02  0.9812386E-01
         13   -1    0    0    0    0  0.00000000000E+00  0.00000000000E+00  0.10000000000E+04  0.10000000000E+04  0.00000000000E+00 0. -1.
          2   -1    0    0  501    0 -0.00000000000E+00 -0.00000000000E+00 -0.10465887695E+03  0.10465887695E+03  0.00000000000E+00 0. -1.
    9000006    2    1    2  501    0  0.00000000000E+00  0.00000000000E+00  0.89534112305E+03  0.11046588770E+04  0.64702048485E+03 0.  0.
         13    1    3    3    0    0  0.11260187492E+03  0.23813366549E+03  0.12702478814E+03  0.29244165517E+03  0.00000000000E+00 0. -1.
          4    1    3    3  501    0 -0.11260187492E+03 -0.23813366549E+03  0.76831633490E+03  0.81221722178E+03  0.00000000000E+00 0. -1.
<mgrwt>
<rscale>  0 0.64702048E+03</rscale>
<asrwt>0</asrwt>
<pdfrwt beam="1">0</pdfrwt>
<pdfrwt beam="2">  1        2 0.38057854E+00 0.64702048E+03</pdfrwt>
<totfact> 0.47049368E+00</totfact>
</mgrwt>
</event>
<event>
 5    1  0.2343702E-004  0.6636196E+03  0.7818608E-02  0.9781553E-01
         13   -1    0    0    0    0  0.00000000000E+00  0.00000000000E+00  0.10000000000E+04  0.10000000000E+04  0.00000000000E+00 0. -1.
          2   -1    0    0  501    0 -0.00000000000E+00 -0.00000000000E+00 -0.11009772916E+03  0.11009772916E+03  0.00000000000E+00 0. -1.
    9000006    2    1    2  501    0  0.00000000000E+00  0.00000000000E+00  0.88990227084E+03  0.11100977292E+04  0.66361955714E+03 0.  0.
         13    1    3    3    0    0  0.26514332681E+03  0.15094663945E+03  0.66313262640E+03  0.72995256826E+03  0.00000000000E+00 0. -1.
          2    1    3    3  501    0 -0.26514332681E+03 -0.15094663945E+03  0.22676964444E+03  0.38014516090E+03  0.00000000000E+00 0. -1.
<mgrwt>
<rscale>  0 0.66361956E+03</rscale>
<asrwt>0</asrwt>
<pdfrwt beam="1">0</pdfrwt>
<pdfrwt beam="2">  1        2 0.40035622E+00 0.66361956E+03</pdfrwt>
<totfact> 0.39663376E+00</totfact>
</mgrwt>
</event>
<event>
 5    1  0.2343702E-004  0.6506611E+03  0.7818608E-02  0.9805539E-01
         13   -1    0    0    0    0  0.00000000000E+00  0.00000000000E+00  0.10000000000E+04  0.10000000000E+04  0.00000000000E+00 0. -1.
          2   -1    0    0  501    0 -0.00000000000E+00 -0.00000000000E+00 -0.10583996273E+03  0.10583996273E+03  0.00000000000E+00 0. -1.
    9000006    2    1    2  501    0  0.00000000000E+00  0.00000000000E+00  0.89416003727E+03  0.11058399627E+04  0.65066108762E+03 0.  0.
         13    1    3    3    0    0 -0.85855522963E+02  0.25423265753E+03  0.75970064834E+03  0.80569875888E+03  0.00000000000E+00 0. -1.
          4    1    3    3  501    0  0.85855522963E+02 -0.25423265753E+03  0.13445938893E+03  0.30014120385E+03  0.00000000000E+00 0. -1.
<mgrwt>
<rscale>  0 0.65066109E+03</rscale>
<asrwt>0</asrwt>
<pdfrwt beam="1">0</pdfrwt>
<pdfrwt beam="2">  1        2 0.38487340E+00 0.65066109E+03</pdfrwt>
<totfact> 0.45347195E+00</totfact>
</mgrwt>
</event>
<event>
 5    1  0.2343702E-004  0.6667535E+03  0.7818608E-02  0.9775841E-01
         13   -1    0    0    0    0  0.00000000000E+00  0.00000000000E+00  0.10000000000E+04  0.10000000000E+04  0.00000000000E+00 0. -1.
          2   -1    0    0  501    0 -0.00000000000E+00 -0.00000000000E+00 -0.11114004259E+03  0.11114004259E+03  0.00000000000E+00 0. -1.
    9000006    2    1    2  501    0  0.00000000000E+00  0.00000000000E+00  0.88885995741E+03  0.11111400426E+04  0.66675345545E+03 0.  0.
         13    1    3    3    0    0 -0.10007699780E+03  0.15579470888E+03 -0.17560404460E+02  0.18599936723E+03  0.00000000000E+00 0. -1.
          2    1    3    3  501    0  0.10007699780E+03 -0.15579470888E+03  0.90642036187E+03  0.92514067537E+03  0.00000000000E+00 0. -1.
<mgrwt>
<rscale>  0 0.66675346E+03</rscale>
<asrwt>0</asrwt>
<pdfrwt beam="1">0</pdfrwt>
<pdfrwt beam="2">  1        2 0.40414646E+00 0.66675346E+03</pdfrwt>
<totfact> 0.38373642E+00</totfact>
</mgrwt>
</event>
<event>
 5    1  0.2343702E-004  0.6512004E+03  0.7818608E-02  0.9804529E-01
         13   -1    0    0    0    0  0.00000000000E+00  0.00000000000E+00  0.10000000000E+04  0.10000000000E+04  0.00000000000E+00 0. -1.
          2   -1    0    0  501    0 -0.00000000000E+00 -0.00000000000E+00 -0.10601549323E+03  0.10601549323E+03  0.00000000000E+00 0. -1.
    9000006    2    1    2  501    0  0.00000000000E+00  0.00000000000E+00  0.89398450677E+03  0.11060154932E+04  0.65120040918E+03 0.  0.
         13    1    3    3    0    0  0.24832315782E+02 -0.17727713693E+02  0.99756668245E+03  0.99803316662E+03  0.00000000000E+00 0. -1.
          4    1    3    3  501    0 -0.24832315782E+02  0.17727713693E+02 -0.10358217568E+03  0.10798232661E+03  0.00000000000E+00 0. -1.
<mgrwt>
<rscale>  0 0.65120041E+03</rscale>
<asrwt>0</asrwt>
<pdfrwt beam="1">0</pdfrwt>
<pdfrwt beam="2">  1        2 0.38551170E+00 0.65120041E+03</pdfrwt>
<totfact> 0.45099049E+00</totfact>
</mgrwt>
</event>
<event>
 5    1  0.2343702E-004  0.6477851E+03  0.7818608E-02  0.9810944E-01
         13   -1    0    0    0    0  0.00000000000E+00  0.00000000000E+00  0.10000000000E+04  0.10000000000E+04  0.00000000000E+00 0. -1.
          2   -1    0    0  501    0 -0.00000000000E+00 -0.00000000000E+00 -0.10490639275E+03  0.10490639275E+03  0.00000000000E+00 0. -1.
    9000006    2    1    2  501    0  0.00000000000E+00  0.00000000000E+00  0.89509360725E+03  0.11049063927E+04  0.64778512718E+03 0.  0.
         13    1    3    3    0    0  0.64561457234E+02  0.23294201777E+03  0.79832987915E+02  0.25456525953E+03  0.00000000000E+00 0. -1.
          2    1    3    3  501    0 -0.64561457234E+02 -0.23294201777E+03  0.81526061934E+03  0.85034113322E+03  0.00000000000E+00 0. -1.
<mgrwt>
<rscale>  0 0.64778513E+03</rscale>
<asrwt>0</asrwt>
<pdfrwt beam="1">0</pdfrwt>
<pdfrwt beam="2">  1        2 0.38147860E+00 0.64778513E+03</pdfrwt>
<totfact> 0.46687917E+00</totfact>
</mgrwt>
</event>
<event>
 5    1  0.2343702E-004  0.6664285E+03  0.7818608E-02  0.9776431E-01
         13   -1    0    0    0    0  0.00000000000E+00  0.00000000000E+00  0.10000000000E+04  0.10000000000E+04  0.00000000000E+00 0. -1.
          2   -1    0    0  501    0 -0.00000000000E+00 -0.00000000000E+00 -0.11103175208E+03  0.11103175208E+03  0.00000000000E+00 0. -1.
    9000006    2    1    2  501    0  0.00000000000E+00  0.00000000000E+00  0.88896824792E+03  0.11110317521E+04  0.66642854706E+03 0.  0.
         13    1    3    3    0    0  0.34905947576E+02 -0.29548983388E+03  0.19441774431E+03  0.35543062109E+03  0.00000000000E+00 0. -1.
          2    1    3    3  501    0 -0.34905947576E+02  0.29548983388E+03  0.69455050360E+03  0.75560113099E+03  0.00000000000E+00 0. -1.
<mgrwt>
<rscale>  0 0.66642855E+03</rscale>
<asrwt>0</asrwt>
<pdfrwt beam="1">0</pdfrwt>
<pdfrwt beam="2">  1        2 0.40375268E+00 0.66642855E+03</pdfrwt>
<totfact> 0.38505866E+00</totfact>
</mgrwt>
</event>
<event>
 5    1  0.2343702E-004  0.6541319E+03  0.7818608E-02  0.9799057E-01
         13   -1    0    0    0    0  0.00000000000E+00  0.00000000000E+00  0.10000000000E+04  0.10000000000E+04  0.00000000000E+00 0. -1.
          2   -1    0    0  501    0 -0.00000000000E+00 -0.00000000000E+00 -0.10697213071E+03  0.10697213071E+03  0.00000000000E+00 0. -1.
    9000006    2    1    2  501    0  0.00000000000E+00  0.00000000000E+00  0.89302786929E+03  0.11069721307E+04  0.65413188489E+03 0.  0.
         13    1    3    3    0    0  0.42871436232E+02 -0.63105087995E+02  0.98473219792E+03  0.98768300269E+03  0.00000000000E+00 0. -1.
          4    1    3    3  501    0 -0.42871436232E+02  0.63105087995E+02 -0.91704328627E+02  0.11928912802E+03  0.00000000000E+00 0. -1.
<mgrwt>
<rscale>  0 0.65413188E+03</rscale>
<asrwt>0</asrwt>
<pdfrwt beam="1">0</pdfrwt>
<pdfrwt beam="2">  1        2 0.38899039E+00 0.65413188E+03</pdfrwt>
<totfact> 0.43768147E+00</totfact>
</mgrwt>
</event>
<event>
 5    1  0.2343702E-004  0.6538901E+03  0.7818608E-02  0.9799507E-01
         13   -1    0    0    0    0  0.00000000000E+00  0.00000000000E+00  0.10000000000E+04  0.10000000000E+04  0.00000000000E+00 0. -1.
          2   -1    0    0  501    0 -0.00000000000E+00 -0.00000000000E+00 -0.10689307711E+03  0.10689307711E+03  0.00000000000E+00 0. -1.
    9000006    2    1    2  501    0  0.00000000000E+00  0.00000000000E+00  0.89310692289E+03  0.11068930771E+04  0.65389013485E+03 0.  0.
         13    1    3    3    0    0 -0.97752494967E+02 -0.19836612562E+03  0.38918452634E+02  0.22454245929E+03  0.00000000000E+00 0. -1.
          4    1    3    3  501    0  0.97752494967E+02  0.19836612562E+03  0.85418847025E+03  0.88235061783E+03  0.00000000000E+00 0. -1.
<mgrwt>
<rscale>  0 0.65389013E+03</rscale>
<asrwt>0</asrwt>
<pdfrwt beam="1">0</pdfrwt>
<pdfrwt beam="2">  1        2 0.38870292E+00 0.65389013E+03</pdfrwt>
<totfact> 0.43876766E+00</totfact>
</mgrwt>
</event>
<event>
 5    1  0.2343702E-004  0.6360311E+03  0.7818608E-02  0.9833350E-01
         13   -1    0    0    0    0  0.00000000000E+00  0.00000000000E+00  0.10000000000E+04  0.10000000000E+04  0.00000000000E+00 0. -1.
          2   -1    0    0  501    0 -0.00000000000E+00 -0.00000000000E+00 -0.10113390045E+03  0.10113390045E+03  0.00000000000E+00 0. -1.
    9000006    2    1    2  501    0  0.00000000000E+00  0.00000000000E+00  0.89886609955E+03  0.11011339005E+04  0.63603113274E+03 0.  0.
         13    1    3    3    0    0 -0.23775116686E+03 -0.11578465945E+03  0.14362118026E+03  0.30092980597E+03  0.00000000000E+00 0. -1.
          2    1    3    3  501    0  0.23775116686E+03  0.11578465945E+03  0.75524491929E+03  0.80020409448E+03  0.00000000000E+00 0. -1.
<mgrwt>
<rscale>  0 0.63603113E+03</rscale>
<asrwt>0</asrwt>
<pdfrwt beam="1">0</pdfrwt>
<pdfrwt beam="2">  1        2 0.36776041E+00 0.63603113E+03</pdfrwt>
<totfact> 0.52482073E+00</totfact>
</mgrwt>
</event>
<event>
 5    1  0.2343702E-004  0.6386811E+03  0.7818608E-02  0.9828253E-01
         13   -1    0    0    0    0  0.00000000000E+00  0.00000000000E+00  0.10000000000E+04  0.10000000000E+04  0.00000000000E+00 0. -1.
          2   -1    0    0  501    0 -0.00000000000E+00 -0.00000000000E+00 -0.10197839859E+03  0.10197839859E+03  0.00000000000E+00 0. -1.
    9000006    2    1    2  501    0  0.00000000000E+00  0.00000000000E+00  0.89802160141E+03  0.11019783986E+04  0.63868113670E+03 0.  0.
         13    1    3    3    0    0  0.33928553912E+01  0.19062724412E+03  0.89102278324E+03  0.91119254712E+03  0.00000000000E+00 0. -1.
          2    1    3    3  501    0 -0.33928553912E+01 -0.19062724412E+03  0.69988181658E+01  0.19078585148E+03  0.00000000000E+00 0. -1.
<mgrwt>
<rscale>  0 0.63868114E+03</rscale>
<asrwt>0</asrwt>
<pdfrwt beam="1">0</pdfrwt>
<pdfrwt beam="2">  1        2 0.37083132E+00 0.63868114E+03</pdfrwt>
<totfact> 0.51130643E+00</totfact>
</mgrwt>
</event>
<event>
 5    1  0.2343702E-004  0.6590804E+03  0.7818608E-02  0.9789888E-01
         13   -1    0    0    0    0  0.00000000000E+00  0.00000000000E+00  0.10000000000E+04  0.10000000000E+04  0.00000000000E+00 0. -1.
          2   -1    0    0  501    0 -0.00000000000E+00 -0.00000000000E+00 -0.10859675162E+03  0.10859675162E+03  0.00000000000E+00 0. -1.
    9000006    2    1    2  501    0  0.00000000000E+00  0.00000000000E+00  0.89140324838E+03  0.11085967516E+04  0.65908042488E+03 0.  0.
         13    1    3    3    0    0  0.33771613920E+02 -0.20327199542E+03  0.87827176044E+03  0.90212045272E+03  0.00000000000E+00 0. -1.
          4    1    3    3  501    0 -0.33771613920E+02  0.20327199542E+03  0.13131487945E+02  0.20647629890E+03  0.00000000000E+00 0. -1.
<mgrwt>
<rscale>  0 0.65908042E+03</rscale>
<asrwt>0</asrwt>
<pdfrwt beam="1">0</pdfrwt>
<pdfrwt beam="2">  1        2 0.39489811E+00 0.65908042E+03</pdfrwt>
<totfact> 0.41589073E+00</totfact>
</mgrwt>
</event>
<event>
 5    1  0.2343702E-004  0.6433719E+03  0.7818608E-02  0.9819296E-01
         13   -1    0    0    0    0  0.00000000000E+00  0.00000000000E+00  0.10000000000E+04  0.10000000000E+04  0.00000000000E+00 0. -1.
          2   -1    0    0  501    0 -0.00000000000E+00 -0.00000000000E+00 -0.10348184532E+03  0.10348184532E+03  0.00000000000E+00 0. -1.
    9000006    2    1    2  501    0  0.00000000000E+00  0.00000000000E+00  0.89651815468E+03  0.11034818453E+04  0.64337188412E+03 0.  0.
         13    1    3    3    0    0 -0.16685362856E+03 -0.20254102258E+03  0.76738303456E+03  0.81101154180E+03  0.00000000000E+00 0. -1.
          2    1    3    3  501    0  0.16685362856E+03  0.20254102258E+03  0.12913512012E+03  0.29247030352E+03  0.00000000000E+00 0. -1.
<mgrwt>
<rscale>  0 0.64337188E+03</rscale>
<asrwt>0</asrwt>
<pdfrwt beam="1">0</pdfrwt>
<pdfrwt beam="2">  1        2 0.37629841E+00 0.64337188E+03</pdfrwt>
<totfact> 0.48803324E+00</totfact>
</mgrwt>
</event>
<event>
 5    1  0.2343702E-004  0.6582830E+03  0.7818608E-02  0.9791360E-01
         13   -1    0    0    0    0  0.00000000000E+00  0.00000000000E+00  0.10000000000E+04  0.10000000000E+04  0.00000000000E+00 0. -1.
          2   -1    0    0  501    0 -0.00000000000E+00 -0.00000000000E+00 -0.10833413135E+03  0.10833413135E+03  0.00000000000E+00 0. -1.
    9000006    2    1    2  501    0  0.00000000000E+00  0.00000000000E+00  0.89166586865E+03  0.11083341313E+04  0.65828301313E+03 0.  0.
         13    1    3    3    0    0 -0.49003321590E+01  0.30527403995E+03  0.65284873106E+03  0.72071333994E+03  0.00000000000E+00 0. -1.
          2    1    3    3  501    0  0.49003321590E+01 -0.30527403995E+03  0.23881713760E+03  0.38762079141E+03  0.00000000000E+00 0. -1.
<mgrwt>
<rscale>  0 0.65828301E+03</rscale>
<asrwt>0</asrwt>
<pdfrwt beam="1">0</pdfrwt>
<pdfrwt beam="2">  1        2 0.39394313E+00 0.65828301E+03</pdfrwt>
<totfact> 0.41934524E+00</totfact>
</mgrwt>
</event>
<event>
 5    1  0.2343702E-004  0.6515573E+03  0.7818608E-02  0.9803861E-01
         13   -1    0    0    0    0  0.00000000000E+00  0.00000000000E+00  0.10000000000E+04  0.10000000000E+04  0.00000000000E+00 0. -1.
          2   -1    0    0  501    0 -0.00000000000E+00 -0.00000000000E+00 -0.10613173490E+03  0.10613173490E+03  0.00000000000E+00 0. -1.
    9000006    2    1    2  501    0  0.00000000000E+00  0.00000000000E+00  0.89386826510E+03  0.11061317349E+04  0.65155731873E+03 0.  0.
         13    1    3    3    0    0  0.16927011281E+03 -0.26817768029E+03  0.32034531170E+03  0.45076907394E+03  0.00000000000E+00 0. -1.
          2    1    3    3  501    0 -0.16927011281E+03  0.26817768029E+03  0.57352295341E+03  0.65536266096E+03  0.00000000000E+00 0. -1.
<mgrwt>
<rscale>  0 0.65155732E+03</rscale>
<asrwt>0</asrwt>
<pdfrwt beam="1">0</pdfrwt>
<pdfrwt beam="2">  1        2 0.38593440E+00 0.65155732E+03</pdfrwt>
<totfact> 0.44935397E+00</totfact>
</mgrwt>
</event>
<event>
 5    1  0.2343702E-004  0.6591119E+03  0.7818608E-02  0.9789830E-01
         13   -1    0    0    0    0  0.00000000000E+00  0.00000000000E+00  0.10000000000E+04  0.10000000000E+04  0.00000000000E+00 0. -1.
          2   -1    0    0  501    0 -0.00000000000E+00 -0.00000000000E+00 -0.10860713770E+03  0.10860713770E+03  0.00000000000E+00 0. -1.
    9000006    2    1    2  501    0  0.00000000000E+00  0.00000000000E+00  0.89139286230E+03  0.11086071377E+04  0.65911194102E+03 0.  0.
         13    1    3    3    0    0 -0.11206163127E+03 -0.22214948450E+03  0.82223578900E+02  0.26204755216E+03  0.00000000000E+00 0. -1.
          2    1    3    3  501    0  0.11206163127E+03  0.22214948450E+03  0.80916928340E+03  0.84655958554E+03  0.00000000000E+00 0. -1.
<mgrwt>
<rscale>  0 0.65911194E+03</rscale>
<asrwt>0</asrwt>
<pdfrwt beam="1">0</pdfrwt>
<pdfrwt beam="2">  1        2 0.39493588E+00 0.65911194E+03</pdfrwt>
<totfact> 0.41575464E+00</totfact>
</mgrwt>
</event>
<event>
 5    1  0.2343702E-004  0.6497534E+03  0.7818608E-02  0.9807242E-01
         13   -1    0    0    0    0  0.00000000000E+00  0.00000000000E+00  0.10000000000E+04  0.10000000000E+04  0.00000000000E+00 0. -1.
          2   -1    0    0  501    0 -0.00000000000E+00 -0.00000000000E+00 -0.10554487369E+03  0.10554487369E+03  0.00000000000E+00 0. -1.
    9000006    2    1    2  501    0  0.00000000000E+00  0.00000000000E+00  0.89445512631E+03  0.11055448737E+04  0.64975341075E+03 0.  0.
         13    1    3    3    0    0 -0.17109499620E+03  0.27521702852E+03  0.48628627754E+03  0.58437338597E+03  0.00000000000E+00 0. -1.
          4    1    3    3  501    0  0.17109499620E+03 -0.27521702852E+03  0.40816884877E+03  0.52117148772E+03  0.00000000000E+00 0. -1.
<mgrwt>
<rscale>  0 0.64975341E+03</rscale>
<asrwt>0</asrwt>
<pdfrwt beam="1">0</pdfrwt>
<pdfrwt beam="2">  1        2 0.38380035E+00 0.64975341E+03</pdfrwt>
<totfact> 0.45767152E+00</totfact>
</mgrwt>
</event>
<event>
 5    1  0.2343702E-004  0.6445067E+03  0.7818608E-02  0.9817142E-01
         13   -1    0    0    0    0  0.00000000000E+00  0.00000000000E+00  0.10000000000E+04  0.10000000000E+04  0.00000000000E+00 0. -1.
          2   -1    0    0  501    0 -0.00000000000E+00 -0.00000000000E+00 -0.10384720872E+03  0.10384720872E+03  0.00000000000E+00 0. -1.
    9000006    2    1    2  501    0  0.00000000000E+00  0.00000000000E+00  0.89615279128E+03  0.11038472087E+04  0.64450666008E+03 0.  0.
         13    1    3    3    0    0  0.27039988906E+03 -0.82053571002E+00  0.14783822082E+03  0.30817675580E+03  0.00000000000E+00 0. -1.
          4    1    3    3  501    0 -0.27039988906E+03  0.82053571002E+00  0.74831457046E+03  0.79567045292E+03  0.00000000000E+00 0. -1.
<mgrwt>
<rscale>  0 0.64450666E+03</rscale>
<asrwt>0</asrwt>
<pdfrwt beam="1">0</pdfrwt>
<pdfrwt beam="2">  1        2 0.37762701E+00 0.64450666E+03</pdfrwt>
<totfact> 0.48252604E+00</totfact>
</mgrwt>
</event>
<event>
 5    1  0.2343702E-004  0.6593455E+03  0.7818608E-02  0.9789399E-01
         13   -1    0    0    0    0  0.00000000000E+00  0.00000000000E+00  0.10000000000E+04  0.10000000000E+04  0.00000000000E+00 0. -1.
          2   -1    0    0  501    0 -0.00000000000E+00 -0.00000000000E+00 -0.10868411686E+03  0.10868411686E+03  0.00000000000E+00 0. -1.
    9000006    2    1    2  501    0  0.00000000000E+00  0.00000000000E+00  0.89131588314E+03  0.11086841169E+04  0.65934548414E+03 0.  0.
         13    1    3    3    0    0  0.32685229403E+03  0.42481804761E+02  0.43413131599E+03  0.54507533917E+03  0.00000000000E+00 0. -1.
          4    1    3    3  501    0 -0.32685229403E+03 -0.42481804761E+02  0.45718456715E+03  0.56360877769E+03  0.00000000000E+00 0. -1.
<mgrwt>
<rscale>  0 0.65934548E+03</rscale>
<asrwt>0</asrwt>
<pdfrwt beam="1">0</pdfrwt>
<pdfrwt beam="2">  1        2 0.39521580E+00 0.65934548E+03</pdfrwt>
<totfact> 0.41474723E+00</totfact>
</mgrwt>
</event>
<event>
 5    1  0.2343702E-004  0.6676641E+03  0.7818608E-02  0.9774187E-01
         13   -1    0    0    0    0  0.00000000000E+00  0.00000000000E+00  0.10000000000E+04  0.10000000000E+04  0.00000000000E+00 0. -1.
          2   -1    0    0  501    0 -0.00000000000E+00 -0.00000000000E+00 -0.11144382796E+03  0.11144382796E+03  0.00000000000E+00 0. -1.
    9000006    2    1    2  501    0  0.00000000000E+00  0.00000000000E+00  0.88855617204E+03  0.11114438280E+04  0.66766407111E+03 0.  0.
         13    1    3    3    0    0  0.18219797632E+03  0.15071299699E+03  0.83656726009E+03  0.86934187216E+03  0.00000000000E+00 0. -1.
          2    1    3    3  501    0 -0.18219797632E+03 -0.15071299699E+03  0.51988911943E+02  0.24210195580E+03  0.00000000000E+00 0. -1.
<mgrwt>
<rscale>  0 0.66766407E+03</rscale>
<asrwt>0</asrwt>
<pdfrwt beam="1">0</pdfrwt>
<pdfrwt beam="2">  1        2 0.40525114E+00 0.66766407E+03</pdfrwt>
<totfact> 0.38004885E+00</totfact>
</mgrwt>
</event>
<event>
 5    1  0.2343702E-004  0.6552092E+03  0.7818608E-02  0.9797053E-01
         13   -1    0    0    0    0  0.00000000000E+00  0.00000000000E+00  0.10000000000E+04  0.10000000000E+04  0.00000000000E+00 0. -1.
          2   -1    0    0  501    0 -0.00000000000E+00 -0.00000000000E+00 -0.10732476998E+03  0.10732476998E+03  0.00000000000E+00 0. -1.
    9000006    2    1    2  501    0  0.00000000000E+00  0.00000000000E+00  0.89267523002E+03  0.11073247700E+04  0.65520918791E+03 0.  0.
         13    1    3    3    0    0  0.10290429596E+03  0.22202690505E+03  0.78238120061E+02  0.25691719313E+03  0.00000000000E+00 0. -1.
          4    1    3    3  501    0 -0.10290429596E+03 -0.22202690505E+03  0.81443710996E+03  0.85040757685E+03  0.00000000000E+00 0. -1.
<mgrwt>
<rscale>  0 0.65520919E+03</rscale>
<asrwt>0</asrwt>
<pdfrwt beam="1">0</pdfrwt>
<pdfrwt beam="2">  1        2 0.39027271E+00 0.65520919E+03</pdfrwt>
<totfact> 0.43286580E+00</totfact>
</mgrwt>
</event>
<event>
 5    1  0.2343702E-004  0.6153250E+03  0.7818608E-02  0.9874112E-01
         13   -1    0    0    0    0  0.00000000000E+00  0.00000000000E+00  0.10000000000E+04  0.10000000000E+04  0.00000000000E+00 0. -1.
          2   -1    0    0  501    0 -0.00000000000E+00 -0.00000000000E+00 -0.94656205071E+02  0.94656205071E+02  0.00000000000E+00 0. -1.
    9000006    2    1    2  501    0  0.00000000000E+00  0.00000000000E+00  0.90534379493E+03  0.10946562051E+04  0.61532497128E+03 0.  0.
         13    1    3    3    0    0  0.13544278197E+03  0.26771355505E+03  0.33147966336E+03  0.44709513749E+03  0.00000000000E+00 0. -1.
          4    1    3    3  501    0 -0.13544278197E+03 -0.26771355505E+03  0.57386413157E+03  0.64756106758E+03  0.00000000000E+00 0. -1.
<mgrwt>
<rscale>  0 0.61532497E+03</rscale>
<asrwt>0</asrwt>
<pdfrwt beam="1">0</pdfrwt>
<pdfrwt beam="2">  1        2 0.34420511E+00 0.61532497E+03</pdfrwt>
<totfact> 0.63998860E+00</totfact>
</mgrwt>
</event>
<event>
 5    1  0.2343702E-004  0.6528472E+03  0.7818608E-02  0.9801451E-01
         13   -1    0    0    0    0  0.00000000000E+00  0.00000000000E+00  0.10000000000E+04  0.10000000000E+04  0.00000000000E+00 0. -1.
          2   -1    0    0  501    0 -0.00000000000E+00 -0.00000000000E+00 -0.10655235892E+03  0.10655235892E+03  0.00000000000E+00 0. -1.
    9000006    2    1    2  501    0  0.00000000000E+00  0.00000000000E+00  0.89344764108E+03  0.11065523589E+04  0.65284717637E+03 0.  0.
         13    1    3    3    0    0 -0.22637281324E+03 -0.19626066713E+03  0.66634731022E+03  0.73060361200E+03  0.00000000000E+00 0. -1.
          4    1    3    3  501    0  0.22637281324E+03  0.19626066713E+03  0.22710033086E+03  0.37594874692E+03  0.00000000000E+00 0. -1.
<mgrwt>
<rscale>  0 0.65284718E+03</rscale>
<asrwt>0</asrwt>
<pdfrwt beam="1">0</pdfrwt>
<pdfrwt beam="2">  1        2 0.38746394E+00 0.65284718E+03</pdfrwt>
<totfact> 0.44347704E+00</totfact>
</mgrwt>
</event>
<event>
 5    1  0.2343702E-004  0.6409676E+03  0.7818608E-02  0.9823877E-01
         13   -1    0    0    0    0  0.00000000000E+00  0.00000000000E+00  0.10000000000E+04  0.10000000000E+04  0.00000000000E+00 0. -1.
          2   -1    0    0  501    0 -0.00000000000E+00 -0.00000000000E+00 -0.10270987222E+03  0.10270987222E+03  0.00000000000E+00 0. -1.
    9000006    2    1    2  501    0  0.00000000000E+00  0.00000000000E+00  0.89729012778E+03  0.11027098722E+04  0.64096761920E+03 0.  0.
         13    1    3    3    0    0 -0.10441562679E+03  0.23521936507E+03  0.12006044778E+03  0.28398113307E+03  0.00000000000E+00 0. -1.
          4    1    3    3  501    0  0.10441562679E+03 -0.23521936507E+03  0.77722968000E+03  0.81872873914E+03  0.00000000000E+00 0. -1.
<mgrwt>
<rscale>  0 0.64096762E+03</rscale>
<asrwt>0</asrwt>
<pdfrwt beam="1">0</pdfrwt>
<pdfrwt beam="2">  1        2 0.37349123E+00 0.64096762E+03</pdfrwt>
<totfact> 0.49985931E+00</totfact>
</mgrwt>
</event>
<event>
 5    1  0.2343702E-004  0.6436851E+03  0.7818608E-02  0.9818701E-01
         13   -1    0    0    0    0  0.00000000000E+00  0.00000000000E+00  0.10000000000E+04  0.10000000000E+04  0.00000000000E+00 0. -1.
          2   -1    0    0  501    0 -0.00000000000E+00 -0.00000000000E+00 -0.10358263458E+03  0.10358263458E+03  0.00000000000E+00 0. -1.
    9000006    2    1    2  501    0  0.00000000000E+00  0.00000000000E+00  0.89641736542E+03  0.11035826346E+04  0.64368512359E+03 0.  0.
         13    1    3    3    0    0  0.28607378040E+03  0.10429053550E+03  0.26947581579E+03  0.40661030352E+03  0.00000000000E+00 0. -1.
          2    1    3    3  501    0 -0.28607378040E+03 -0.10429053550E+03  0.62694154962E+03  0.69697233107E+03  0.00000000000E+00 0. -1.
<mgrwt>
<rscale>  0 0.64368512E+03</rscale>
<asrwt>0</asrwt>
<pdfrwt beam="1">0</pdfrwt>
<pdfrwt beam="2">  1        2 0.37666492E+00 0.64368512E+03</pdfrwt>
<totfact> 0.48650832E+00</totfact>
</mgrwt>
</event>
<event>
 5    1  0.2343702E-004  0.6483351E+03  0.7818608E-02  0.9809908E-01
         13   -1    0    0    0    0  0.00000000000E+00  0.00000000000E+00  0.10000000000E+04  0.10000000000E+04  0.00000000000E+00 0. -1.
          2   -1    0    0  501    0 -0.00000000000E+00 -0.00000000000E+00 -0.10508459370E+03  0.10508459370E+03  0.00000000000E+00 0. -1.
    9000006    2    1    2  501    0  0.00000000000E+00  0.00000000000E+00  0.89491540630E+03  0.11050845937E+04  0.64833507910E+03 0.  0.
         13    1    3    3    0    0 -0.65159485836E+02  0.27313945366E+03  0.17138366846E+03  0.32897307117E+03  0.00000000000E+00 0. -1.
          4    1    3    3  501    0  0.65159485836E+02 -0.27313945366E+03  0.72353173784E+03  0.77611152253E+03  0.00000000000E+00 0. -1.
<mgrwt>
<rscale>  0 0.64833508E+03</rscale>
<asrwt>0</asrwt>
<pdfrwt beam="1">0</pdfrwt>
<pdfrwt beam="2">  1        2 0.38212660E+00 0.64833508E+03</pdfrwt>
<totfact> 0.46429252E+00</totfact>
</mgrwt>
</event>
<event>
 5    1  0.2343702E-004  0.6694193E+03  0.7818608E-02  0.9771008E-01
         13   -1    0    0    0    0  0.00000000000E+00  0.00000000000E+00  0.10000000000E+04  0.10000000000E+04  0.00000000000E+00 0. -1.
          2   -1    0    0  501    0 -0.00000000000E+00 -0.00000000000E+00 -0.11203053691E+03  0.11203053691E+03  0.00000000000E+00 0. -1.
    9000006    2    1    2  501    0  0.00000000000E+00  0.00000000000E+00  0.88796946309E+03  0.11120305369E+04  0.66941926149E+03 0.  0.
         13    1    3    3    0    0  0.27137021572E+03 -0.18496668814E+03  0.55133478101E+03  0.64173554557E+03  0.00000000000E+00 0. -1.
          2    1    3    3  501    0 -0.27137021572E+03  0.18496668814E+03  0.33663468208E+03  0.47029499134E+03  0.00000000000E+00 0. -1.
<mgrwt>
<rscale>  0 0.66941926E+03</rscale>
<asrwt>0</asrwt>
<pdfrwt beam="1">0</pdfrwt>
<pdfrwt beam="2">  1        2 0.40738463E+00 0.66941926E+03</pdfrwt>
<totfact> 0.37301658E+00</totfact>
</mgrwt>
</event>
<event>
 5    1  0.2343702E-004  0.6382001E+03  0.7818608E-02  0.9829176E-01
         13   -1    0    0    0    0  0.00000000000E+00  0.00000000000E+00  0.10000000000E+04  0.10000000000E+04  0.00000000000E+00 0. -1.
          2   -1    0    0  501    0 -0.00000000000E+00 -0.00000000000E+00 -0.10182485105E+03  0.10182485105E+03  0.00000000000E+00 0. -1.
    9000006    2    1    2  501    0  0.00000000000E+00  0.00000000000E+00  0.89817514895E+03  0.11018248511E+04  0.63820012865E+03 0.  0.
         13    1    3    3    0    0  0.12731750778E+03 -0.25785506050E+03  0.68785016794E+03  0.74554465563E+03  0.00000000000E+00 0. -1.
          4    1    3    3  501    0 -0.12731750778E+03  0.25785506050E+03  0.21032498101E+03  0.35628019542E+03  0.00000000000E+00 0. -1.
<mgrwt>
<rscale>  0 0.63820013E+03</rscale>
<asrwt>0</asrwt>
<pdfrwt beam="1">0</pdfrwt>
<pdfrwt beam="2">  1        2 0.37027297E+00 0.63820013E+03</pdfrwt>
<totfact> 0.51373963E+00</totfact>
</mgrwt>
</event>
<event>
 5    1  0.2343702E-004  0.6817877E+03  0.7818608E-02  0.9748895E-01
         13   -1    0    0    0    0  0.00000000000E+00  0.00000000000E+00  0.10000000000E+04  0.10000000000E+04  0.00000000000E+00 0. -1.
          2   -1    0    0  501    0 -0.00000000000E+00 -0.00000000000E+00 -0.11620860200E+03  0.11620860200E+03  0.00000000000E+00 0. -1.
    9000006    2    1    2  501    0  0.00000000000E+00  0.00000000000E+00  0.88379139800E+03  0.11162086020E+04  0.68178765608E+03 0.  0.
         13    1    3    3    0    0 -0.59183773173E+02 -0.33397901422E+03  0.38604170148E+03  0.51388023529E+03  0.00000000000E+00 0. -1.
          2    1    3    3  501    0  0.59183773173E+02  0.33397901422E+03  0.49774969653E+03  0.60232836670E+03  0.00000000000E+00 0. -1.
<mgrwt>
<rscale>  0 0.68178766E+03</rscale>
<asrwt>0</asrwt>
<pdfrwt beam="1">0</pdfrwt>
<pdfrwt beam="2">  1        2 0.42257763E+00 0.68178766E+03</pdfrwt>
<totfact> 0.32620398E+00</totfact>
</mgrwt>
</event>
<event>
 5    1  0.2343702E-004  0.6419280E+03  0.7818608E-02  0.9822045E-01
         13   -1    0    0    0    0  0.00000000000E+00  0.00000000000E+00  0.10000000000E+04  0.10000000000E+04  0.00000000000E+00 0. -1.
          2   -1    0    0  501    0 -0.00000000000E+00 -0.00000000000E+00 -0.10301787390E+03  0.10301787390E+03  0.00000000000E+00 0. -1.
    9000006    2    1    2  501    0  0.00000000000E+00  0.00000000000E+00  0.89698212610E+03  0.11030178739E+04  0.64192795202E+03 0.  0.
         13    1    3    3    0    0  0.48317982403E+02 -0.10700813229E+03 -0.64793033303E+02  0.13410259119E+03  0.00000000000E+00 0. -1.
          4    1    3    3  501    0 -0.48317982403E+02  0.10700813229E+03  0.96177515941E+03  0.96891528270E+03  0.00000000000E+00 0. -1.
<mgrwt>
<rscale>  0 0.64192795E+03</rscale>
<asrwt>0</asrwt>
<pdfrwt beam="1">0</pdfrwt>
<pdfrwt beam="2">  1        2 0.37461124E+00 0.64192795E+03</pdfrwt>
<totfact> 0.49510980E+00</totfact>
</mgrwt>
</event>
<event>
 5    1  0.2343702E-004  0.7240525E+03  0.7818608E-02  0.9676961E-01
         13   -1    0    0    0    0  0.00000000000E+00  0.00000000000E+00  0.10000000000E+04  0.10000000000E+04  0.00000000000E+00 0. -1.
          2   -1    0    0  501    0 -0.00000000000E+00 -0.00000000000E+00 -0.13106300973E+03  0.13106300973E+03  0.00000000000E+00 0. -1.
    9000006    2    1    2  501    0  0.00000000000E+00  0.00000000000E+00  0.86893699027E+03  0.11310630097E+04  0.72405251115E+03 0.  0.
         13    1    3    3    0    0 -0.31100574829E+03  0.37050764004E+02  0.15084139632E+03  0.34763552958E+03  0.00000000000E+00 0. -1.
          2    1    3    3  501    0  0.31100574829E+03 -0.37050764004E+02  0.71809559396E+03  0.78342748014E+03  0.00000000000E+00 0. -1.
<mgrwt>
<rscale>  0 0.72405251E+03</rscale>
<asrwt>0</asrwt>
<pdfrwt beam="1">0</pdfrwt>
<pdfrwt beam="2">  1        2 0.47659377E+00 0.72405251E+03</pdfrwt>
<totfact> 0.19885097E+00</totfact>
</mgrwt>
</event>
<event>
 5    1  0.2343702E-004  0.6494113E+03  0.7818608E-02  0.9807884E-01
         13   -1    0    0    0    0  0.00000000000E+00  0.00000000000E+00  0.10000000000E+04  0.10000000000E+04  0.00000000000E+00 0. -1.
          2   -1    0    0  501    0 -0.00000000000E+00 -0.00000000000E+00 -0.10543375622E+03  0.10543375622E+03  0.00000000000E+00 0. -1.
    9000006    2    1    2  501    0  0.00000000000E+00  0.00000000000E+00  0.89456624378E+03  0.11054337562E+04  0.64941129099E+03 0.  0.
         13    1    3    3    0    0  0.13479309525E+03  0.25286373739E+02  0.94827992499E+03  0.95814581112E+03  0.00000000000E+00 0. -1.
          2    1    3    3  501    0 -0.13479309525E+03 -0.25286373739E+02 -0.53713681203E+02  0.14728794510E+03  0.00000000000E+00 0. -1.
<mgrwt>
<rscale>  0 0.64941129E+03</rscale>
<asrwt>0</asrwt>
<pdfrwt beam="1">0</pdfrwt>
<pdfrwt beam="2">  1        2 0.38339629E+00 0.64941129E+03</pdfrwt>
<totfact> 0.45926202E+00</totfact>
</mgrwt>
</event>
<event>
 5    1  0.2343702E-004  0.5464755E+03  0.7818608E-02  0.1002313E+00
         13   -1    0    0    0    0  0.00000000000E+00  0.00000000000E+00  0.10000000000E+04  0.10000000000E+04  0.00000000000E+00 0. -1.
          2   -1    0    0  501    0 -0.00000000000E+00 -0.00000000000E+00 -0.74658860508E+02  0.74658860508E+02  0.00000000000E+00 0. -1.
    9000006    2    1    2  501    0  0.00000000000E+00  0.00000000000E+00  0.92534113949E+03  0.10746588605E+04  0.54647547249E+03 0.  0.
         13    1    3    3    0    0 -0.21079744327E+03 -0.14745121622E+03  0.28156380344E+03  0.38138641646E+03  0.00000000000E+00 0. -1.
          2    1    3    3  501    0  0.21079744327E+03  0.14745121622E+03  0.64377733605E+03  0.69327244405E+03  0.00000000000E+00 0. -1.
<mgrwt>
<rscale>  0 0.54647547E+03</rscale>
<asrwt>0</asrwt>
<pdfrwt beam="1">0</pdfrwt>
<pdfrwt beam="2">  1        2 0.27148734E+00 0.54647547E+03</pdfrwt>
<totfact> 0.11674473E+01</totfact>
</mgrwt>
</event>
<event>
 5    1  0.2343702E-004  0.6540344E+03  0.7818608E-02  0.9799238E-01
         13   -1    0    0    0    0  0.00000000000E+00  0.00000000000E+00  0.10000000000E+04  0.10000000000E+04  0.00000000000E+00 0. -1.
          2   -1    0    0  501    0 -0.00000000000E+00 -0.00000000000E+00 -0.10694026072E+03  0.10694026072E+03  0.00000000000E+00 0. -1.
    9000006    2    1    2  501    0  0.00000000000E+00  0.00000000000E+00  0.89305973928E+03  0.11069402607E+04  0.65403443555E+03 0.  0.
         13    1    3    3    0    0 -0.91243867092E+02 -0.18493066453E+02 -0.84037194076E+02  0.12541804805E+03  0.00000000000E+00 0. -1.
          4    1    3    3  501    0  0.91243867092E+02  0.18493066453E+02  0.97709693336E+03  0.98152221267E+03  0.00000000000E+00 0. -1.
<mgrwt>
<rscale>  0 0.65403444E+03</rscale>
<asrwt>0</asrwt>
<pdfrwt beam="1">0</pdfrwt>
<pdfrwt beam="2">  1        2 0.38887450E+00 0.65403444E+03</pdfrwt>
<totfact> 0.43811907E+00</totfact>
</mgrwt>
</event>
<event>
 5    1  0.2343702E-004  0.6592992E+03  0.7818608E-02  0.9789485E-01
         13   -1    0    0    0    0  0.00000000000E+00  0.00000000000E+00  0.10000000000E+04  0.10000000000E+04  0.00000000000E+00 0. -1.
          2   -1    0    0  501    0 -0.00000000000E+00 -0.00000000000E+00 -0.10866884907E+03  0.10866884907E+03  0.00000000000E+00 0. -1.
    9000006    2    1    2  501    0  0.00000000000E+00  0.00000000000E+00  0.89133115093E+03  0.11086688491E+04  0.65929917054E+03 0.  0.
         13    1    3    3    0    0  0.24467510013E+03  0.15548391441E+03  0.70956060772E+03  0.76649684167E+03  0.00000000000E+00 0. -1.
          2    1    3    3  501    0 -0.24467510013E+03 -0.15548391441E+03  0.18177054321E+03  0.34217200740E+03  0.00000000000E+00 0. -1.
<mgrwt>
<rscale>  0 0.65929917E+03</rscale>
<asrwt>0</asrwt>
<pdfrwt beam="1">0</pdfrwt>
<pdfrwt beam="2">  1        2 0.39516028E+00 0.65929917E+03</pdfrwt>
<totfact> 0.41494686E+00</totfact>
</mgrwt>
</event>
<event>
 5    1  0.2343702E-004  0.6469589E+03  0.7818608E-02  0.9812502E-01
         13   -1    0    0    0    0  0.00000000000E+00  0.00000000000E+00  0.10000000000E+04  0.10000000000E+04  0.00000000000E+00 0. -1.
          2   -1    0    0  501    0 -0.00000000000E+00 -0.00000000000E+00 -0.10463896537E+03  0.10463896537E+03  0.00000000000E+00 0. -1.
    9000006    2    1    2  501    0  0.00000000000E+00  0.00000000000E+00  0.89536103463E+03  0.11046389654E+04  0.64695893339E+03 0.  0.
         13    1    3    3    0    0  0.11530194933E+02  0.84204353275E+02 -0.85234555470E+02  0.12036713817E+03  0.00000000000E+00 0. -1.
          4    1    3    3  501    0 -0.11530194933E+02 -0.84204353275E+02  0.98059559010E+03  0.98427182720E+03  0.00000000000E+00 0. -1.
<mgrwt>
<rscale>  0 0.64695893E+03</rscale>
<asrwt>0</asrwt>
<pdfrwt beam="1">0</pdfrwt>
<pdfrwt beam="2">  1        2 0.38050613E+00 0.64695893E+03</pdfrwt>
<totfact> 0.47078556E+00</totfact>
</mgrwt>
</event>
<event>
 5    1  0.2343702E-004  0.6517084E+03  0.7818608E-02  0.9803579E-01
         13   -1    0    0    0    0  0.00000000000E+00  0.00000000000E+00  0.10000000000E+04  0.10000000000E+04  0.00000000000E+00 0. -1.
          2   -1    0    0  501    0 -0.00000000000E+00 -0.00000000000E+00 -0.10618096852E+03  0.10618096852E+03  0.00000000000E+00 0. -1.
    9000006    2    1    2  501    0  0.00000000000E+00  0.00000000000E+00  0.89381903148E+03  0.11061809685E+04  0.65170842719E+03 0.  0.
         13    1    3    3    0    0 -0.27327050321E+03  0.17746538923E+03  0.45234005186E+03  0.55747847924E+03  0.00000000000E+00 0. -1.
          2    1    3    3  501    0  0.27327050321E+03 -0.17746538923E+03  0.44147897962E+03  0.54870248928E+03  0.00000000000E+00 0. -1.
<mgrwt>
<rscale>  0 0.65170843E+03</rscale>
<asrwt>0</asrwt>
<pdfrwt beam="1">0</pdfrwt>
<pdfrwt beam="2">  1        2 0.38611343E+00 0.65170843E+03</pdfrwt>
<totfact> 0.44866246E+00</totfact>
</mgrwt>
</event>
<event>
 5    1  0.2343702E-004  0.6319343E+03  0.7818608E-02  0.9841281E-01
         13   -1    0    0    0    0  0.00000000000E+00  0.00000000000E+00  0.10000000000E+04  0.10000000000E+04  0.00000000000E+00 0. -1.
          2   -1    0    0  501    0 -0.00000000000E+00 -0.00000000000E+00 -0.99835239088E+02  0.99835239088E+02  0.00000000000E+00 0. -1.
    9000006    2    1    2  501    0  0.00000000000E+00  0.00000000000E+00  0.90016476091E+03  0.10998352391E+04  0.63193429749E+03 0.  0.
         13    1    3    3    0    0  0.76395489899E+02  0.14164721948E+03 -0.23156960033E+02  0.16259289794E+03  0.00000000000E+00 0. -1.
          4    1    3    3  501    0 -0.76395489899E+02 -0.14164721948E+03  0.92332172095E+03  0.93724234114E+03  0.00000000000E+00 0. -1.
<mgrwt>
<rscale>  0 0.63193430E+03</rscale>
<asrwt>0</asrwt>
<pdfrwt beam="1">0</pdfrwt>
<pdfrwt beam="2">  1        2 0.36303800E+00 0.63193430E+03</pdfrwt>
<totfact> 0.54624421E+00</totfact>
</mgrwt>
</event>
<event>
 5    1  0.2343702E-004  0.6549311E+03  0.7818608E-02  0.9797570E-01
         13   -1    0    0    0    0  0.00000000000E+00  0.00000000000E+00  0.10000000000E+04  0.10000000000E+04  0.00000000000E+00 0. -1.
          2   -1    0    0  501    0 -0.00000000000E+00 -0.00000000000E+00 -0.10723369412E+03  0.10723369412E+03  0.00000000000E+00 0. -1.
    9000006    2    1    2  501    0  0.00000000000E+00  0.00000000000E+00  0.89276630588E+03  0.11072336941E+04  0.65493112347E+03 0.  0.
         13    1    3    3    0    0  0.21430778428E+02  0.19535704936E+03  0.88921362450E+03  0.91067256739E+03  0.00000000000E+00 0. -1.
          2    1    3    3  501    0 -0.21430778428E+02 -0.19535704936E+03  0.35526813746E+01  0.19656112673E+03  0.00000000000E+00 0. -1.
<mgrwt>
<rscale>  0 0.65493112E+03</rscale>
<asrwt>0</asrwt>
<pdfrwt beam="1">0</pdfrwt>
<pdfrwt beam="2">  1        2 0.38994153E+00 0.65493112E+03</pdfrwt>
<totfact> 0.43410493E+00</totfact>
</mgrwt>
</event>
<event>
 5    1  0.2343702E-004  0.6424761E+03  0.7818608E-02  0.9821001E-01
         13   -1    0    0    0    0  0.00000000000E+00  0.00000000000E+00  0.10000000000E+04  0.10000000000E+04  0.00000000000E+00 0. -1.
          2   -1    0    0  501    0 -0.00000000000E+00 -0.00000000000E+00 -0.10319388067E+03  0.10319388067E+03  0.00000000000E+00 0. -1.
    9000006    2    1    2  501    0  0.00000000000E+00  0.00000000000E+00  0.89680611933E+03  0.11031938807E+04  0.64247608723E+03 0.  0.
         13    1    3    3    0    0 -0.22297358923E+03  0.12029985127E+03  0.78752260244E+03  0.82727330736E+03  0.00000000000E+00 0. -1.
          2    1    3    3  501    0  0.22297358923E+03 -0.12029985127E+03  0.10928351689E+03  0.27592057331E+03  0.00000000000E+00 0. -1.
<mgrwt>
<rscale>  0 0.64247609E+03</rscale>
<asrwt>0</asrwt>
<pdfrwt beam="1">0</pdfrwt>
<pdfrwt beam="2">  1        2 0.37525127E+00 0.64247609E+03</pdfrwt>
<totfact> 0.49241425E+00</totfact>
</mgrwt>
</event>
<event>
 5    1  0.2343702E-004  0.6477037E+03  0.7818608E-02  0.9811098E-01
         13   -1    0    0    0    0  0.00000000000E+00  0.00000000000E+00  0.10000000000E+04  0.10000000000E+04  0.00000000000E+00 0. -1.
          2   -1    0    0  501    0 -0.00000000000E+00 -0.00000000000E+00 -0.10488001814E+03  0.10488001814E+03  0.00000000000E+00 0. -1.
    9000006    2    1    2  501    0  0.00000000000E+00  0.00000000000E+00  0.89511998186E+03  0.11048800181E+04  0.64770369193E+03 0.  0.
         13    1    3    3    0    0 -0.19616737584E+03 -0.82632428542E+02  0.31214853681E+02  0.21513745532E+03  0.00000000000E+00 0. -1.
          4    1    3    3  501    0  0.19616737584E+03  0.82632428542E+02  0.86390512818E+03  0.88974256282E+03  0.00000000000E+00 0. -1.
<mgrwt>
<rscale>  0 0.64770369E+03</rscale>
<asrwt>0</asrwt>
<pdfrwt beam="1">0</pdfrwt>
<pdfrwt beam="2">  1        2 0.38138269E+00 0.64770369E+03</pdfrwt>
<totfact> 0.46726311E+00</totfact>
</mgrwt>
</event>
<event>
 5    1  0.2343702E-004  0.6422065E+03  0.7818608E-02  0.9821514E-01
         13   -1    0    0    0    0  0.00000000000E+00  0.00000000000E+00  0.10000000000E+04  0.10000000000E+04  0.00000000000E+00 0. -1.
          2   -1    0    0  501    0 -0.00000000000E+00 -0.00000000000E+00 -0.10310729274E+03  0.10310729274E+03  0.00000000000E+00 0. -1.
    9000006    2    1    2  501    0  0.00000000000E+00  0.00000000000E+00  0.89689270726E+03  0.11031072927E+04  0.64220648623E+03 0.  0.
         13    1    3    3    0    0  0.31608623252E+03 -0.13061426688E+02  0.54293743950E+03  0.62838059364E+03  0.00000000000E+00 0. -1.
          2    1    3    3  501    0 -0.31608623252E+03  0.13061426688E+02  0.35395526776E+03  0.47472669910E+03  0.00000000000E+00 0. -1.
<mgrwt>
<rscale>  0 0.64220649E+03</rscale>
<asrwt>0</asrwt>
<pdfrwt beam="1">0</pdfrwt>
<pdfrwt beam="2">  1        2 0.37493640E+00 0.64220649E+03</pdfrwt>
<totfact> 0.49373867E+00</totfact>
</mgrwt>
</event>
<event>
 5    1  0.2343702E-004  0.6475899E+03  0.7818608E-02  0.9811312E-01
         13   -1    0    0    0    0  0.00000000000E+00  0.00000000000E+00  0.10000000000E+04  0.10000000000E+04  0.00000000000E+00 0. -1.
          2   -1    0    0  501    0 -0.00000000000E+00 -0.00000000000E+00 -0.10484315985E+03  0.10484315985E+03  0.00000000000E+00 0. -1.
    9000006    2    1    2  501    0  0.00000000000E+00  0.00000000000E+00  0.89515684015E+03  0.11048431599E+04  0.64758986976E+03 0.  0.
         13    1    3    3    0    0  0.22768384027E+03  0.12391075476E+03  0.11653927872E+03  0.28420979883E+03  0.00000000000E+00 0. -1.
          4    1    3    3  501    0 -0.22768384027E+03 -0.12391075476E+03  0.77861756143E+03  0.82063336102E+03  0.00000000000E+00 0. -1.
<mgrwt>
<rscale>  0 0.64758987E+03</rscale>
<asrwt>0</asrwt>
<pdfrwt beam="1">0</pdfrwt>
<pdfrwt beam="2">  1        2 0.38124866E+00 0.64758987E+03</pdfrwt>
<totfact> 0.46780016E+00</totfact>
</mgrwt>
</event>
<event>
 5    1  0.2343702E-004  0.6470651E+03  0.7818608E-02  0.9812302E-01
         13   -1    0    0    0    0  0.00000000000E+00  0.00000000000E+00  0.10000000000E+04  0.10000000000E+04  0.00000000000E+00 0. -1.
          2   -1    0    0  501    0 -0.00000000000E+00 -0.00000000000E+00 -0.10467329620E+03  0.10467329620E+03  0.00000000000E+00 0. -1.
    9000006    2    1    2  501    0  0.00000000000E+00  0.00000000000E+00  0.89532670380E+03  0.11046732962E+04  0.64706505455E+03 0.  0.
         13    1    3    3    0    0  0.16303175193E+03 -0.81747473062E+02  0.90387814487E+03  0.92209419381E+03  0.00000000000E+00 0. -1.
          2    1    3    3  501    0 -0.16303175193E+03  0.81747473062E+02 -0.85514410705E+01  0.18257910240E+03  0.00000000000E+00 0. -1.
<mgrwt>
<rscale>  0 0.64706505E+03</rscale>
<asrwt>0</asrwt>
<pdfrwt beam="1">0</pdfrwt>
<pdfrwt beam="2">  1        2 0.38063097E+00 0.64706505E+03</pdfrwt>
<totfact> 0.47028242E+00</totfact>
</mgrwt>
</event>
<event>
 5    1  0.2343702E-004  0.6510567E+03  0.7818608E-02  0.9804798E-01
         13   -1    0    0    0    0  0.00000000000E+00  0.00000000000E+00  0.10000000000E+04  0.10000000000E+04  0.00000000000E+00 0. -1.
          2   -1    0    0  501    0 -0.00000000000E+00 -0.00000000000E+00 -0.10596870390E+03  0.10596870390E+03  0.00000000000E+00 0. -1.
    9000006    2    1    2  501    0  0.00000000000E+00  0.00000000000E+00  0.89403129610E+03  0.11059687039E+04  0.65105669155E+03 0.  0.
         13    1    3    3    0    0 -0.16361973769E+03  0.27550227806E+03  0.34949352526E+03  0.47415044867E+03  0.00000000000E+00 0. -1.
          4    1    3    3  501    0  0.16361973769E+03 -0.27550227806E+03  0.54453777084E+03  0.63181825523E+03  0.00000000000E+00 0. -1.
<mgrwt>
<rscale>  0 0.65105669E+03</rscale>
<asrwt>0</asrwt>
<pdfrwt beam="1">0</pdfrwt>
<pdfrwt beam="2">  1        2 0.38534155E+00 0.65105669E+03</pdfrwt>
<totfact> 0.45165074E+00</totfact>
</mgrwt>
</event>
<event>
 5    1  0.2343702E-004  0.6315834E+03  0.7818608E-02  0.9841964E-01
         13   -1    0    0    0    0  0.00000000000E+00  0.00000000000E+00  0.10000000000E+04  0.10000000000E+04  0.00000000000E+00 0. -1.
          2   -1    0    0  501    0 -0.00000000000E+00 -0.00000000000E+00 -0.99724394127E+02  0.99724394127E+02  0.00000000000E+00 0. -1.
    9000006    2    1    2  501    0  0.00000000000E+00  0.00000000000E+00  0.90027560587E+03  0.10997243941E+04  0.63158338840E+03 0.  0.
         13    1    3    3    0    0 -0.11067877601E+03 -0.28289148027E+03  0.60039809114E+03  0.67287090063E+03  0.00000000000E+00 0. -1.
          4    1    3    3  501    0  0.11067877601E+03  0.28289148027E+03  0.29987751473E+03  0.42685349349E+03  0.00000000000E+00 0. -1.
<mgrwt>
<rscale>  0 0.63158339E+03</rscale>
<asrwt>0</asrwt>
<pdfrwt beam="1">0</pdfrwt>
<pdfrwt beam="2">  1        2 0.36263493E+00 0.63158339E+03</pdfrwt>
<totfact> 0.54810956E+00</totfact>
</mgrwt>
</event>
<event>
 5    1  0.2343702E-004  0.6615517E+03  0.7818608E-02  0.9785342E-01
         13   -1    0    0    0    0  0.00000000000E+00  0.00000000000E+00  0.10000000000E+04  0.10000000000E+04  0.00000000000E+00 0. -1.
          2   -1    0    0  501    0 -0.00000000000E+00 -0.00000000000E+00 -0.10941264742E+03  0.10941264742E+03  0.00000000000E+00 0. -1.
    9000006    2    1    2  501    0  0.00000000000E+00  0.00000000000E+00  0.89058735258E+03  0.11094126474E+04  0.66155165308E+03 0.  0.
         13    1    3    3    0    0 -0.25578624575E+03 -0.61642447660E+02  0.10911659041E+03  0.28483824387E+03  0.00000000000E+00 0. -1.
          2    1    3    3  501    0  0.25578624575E+03  0.61642447660E+02  0.78147076217E+03  0.82457440355E+03  0.00000000000E+00 0. -1.
<mgrwt>
<rscale>  0 0.66155165E+03</rscale>
<asrwt>0</asrwt>
<pdfrwt beam="1">0</pdfrwt>
<pdfrwt beam="2">  1        2 0.39786501E+00 0.66155165E+03</pdfrwt>
<totfact> 0.40532131E+00</totfact>
</mgrwt>
</event>
<event>
 5    1  0.2343702E-004  0.6464325E+03  0.7818608E-02  0.9813497E-01
         13   -1    0    0    0    0  0.00000000000E+00  0.00000000000E+00  0.10000000000E+04  0.10000000000E+04  0.00000000000E+00 0. -1.
          2   -1    0    0  501    0 -0.00000000000E+00 -0.00000000000E+00 -0.10446873118E+03  0.10446873118E+03  0.00000000000E+00 0. -1.
    9000006    2    1    2  501    0  0.00000000000E+00  0.00000000000E+00  0.89553126882E+03  0.11044687312E+04  0.64643245951E+03 0.  0.
         13    1    3    3    0    0  0.79900302005E+02  0.36295693169E+02  0.97925499005E+03  0.98317941961E+03  0.00000000000E+00 0. -1.
          2    1    3    3  501    0 -0.79900302005E+02 -0.36295693169E+02 -0.83723721232E+02  0.12128931157E+03  0.00000000000E+00 0. -1.
<mgrwt>
<rscale>  0 0.64643246E+03</rscale>
<asrwt>0</asrwt>
<pdfrwt beam="1">0</pdfrwt>
<pdfrwt beam="2">  1        2 0.37988710E+00 0.64643246E+03</pdfrwt>
<totfact> 0.47328768E+00</totfact>
</mgrwt>
</event>
<event>
 5    1  0.2343702E-004  0.6470785E+03  0.7818608E-02  0.9812277E-01
         13   -1    0    0    0    0  0.00000000000E+00  0.00000000000E+00  0.10000000000E+04  0.10000000000E+04  0.00000000000E+00 0. -1.
          2   -1    0    0  501    0 -0.00000000000E+00 -0.00000000000E+00 -0.10467765242E+03  0.10467765242E+03  0.00000000000E+00 0. -1.
    9000006    2    1    2  501    0  0.00000000000E+00  0.00000000000E+00  0.89532234758E+03  0.11046776524E+04  0.64707851893E+03 0.  0.
         13    1    3    3    0    0  0.81992575657E+02 -0.10263974667E+03 -0.57097590276E+02  0.14324047918E+03  0.00000000000E+00 0. -1.
          4    1    3    3  501    0 -0.81992575657E+02  0.10263974667E+03  0.95241993786E+03  0.96143717324E+03  0.00000000000E+00 0. -1.
<mgrwt>
<rscale>  0 0.64707852E+03</rscale>
<asrwt>0</asrwt>
<pdfrwt beam="1">0</pdfrwt>
<pdfrwt beam="2">  1        2 0.38064681E+00 0.64707852E+03</pdfrwt>
<totfact> 0.47021861E+00</totfact>
</mgrwt>
</event>
<event>
 5    1  0.2343702E-004  0.6881182E+03  0.7818608E-02  0.9737770E-01
         13   -1    0    0    0    0  0.00000000000E+00  0.00000000000E+00  0.10000000000E+04  0.10000000000E+04  0.00000000000E+00 0. -1.
          2   -1    0    0  501    0 -0.00000000000E+00 -0.00000000000E+00 -0.11837667492E+03  0.11837667492E+03  0.00000000000E+00 0. -1.
    9000006    2    1    2  501    0  0.00000000000E+00  0.00000000000E+00  0.88162332508E+03  0.11183766749E+04  0.68811823090E+03 0.  0.
         13    1    3    3    0    0  0.81937044393E+02 -0.26157769550E+03  0.77877407852E+03  0.82560622296E+03  0.00000000000E+00 0. -1.
          4    1    3    3  501    0 -0.81937044393E+02  0.26157769550E+03  0.10284924656E+03  0.29277045196E+03  0.00000000000E+00 0. -1.
<mgrwt>
<rscale>  0 0.68811823E+03</rscale>
<asrwt>0</asrwt>
<pdfrwt beam="1">0</pdfrwt>
<pdfrwt beam="2">  1        2 0.43046154E+00 0.68811823E+03</pdfrwt>
<totfact> 0.30403100E+00</totfact>
</mgrwt>
</event>
<event>
 5    1  0.2343702E-004  0.6448443E+03  0.7818608E-02  0.9816502E-01
         13   -1    0    0    0    0  0.00000000000E+00  0.00000000000E+00  0.10000000000E+04  0.10000000000E+04  0.00000000000E+00 0. -1.
          2   -1    0    0  501    0 -0.00000000000E+00 -0.00000000000E+00 -0.10395603276E+03  0.10395603276E+03  0.00000000000E+00 0. -1.
    9000006    2    1    2  501    0  0.00000000000E+00  0.00000000000E+00  0.89604396724E+03  0.11039560328E+04  0.64484426883E+03 0.  0.
         13    1    3    3    0    0 -0.13329154170E+03 -0.26651466084E+03  0.23723830354E+03  0.38089199545E+03  0.00000000000E+00 0. -1.
          2    1    3    3  501    0  0.13329154170E+03  0.26651466084E+03  0.65880566370E+03  0.72306403731E+03  0.00000000000E+00 0. -1.
<mgrwt>
<rscale>  0 0.64484427E+03</rscale>
<asrwt>0</asrwt>
<pdfrwt beam="1">0</pdfrwt>
<pdfrwt beam="2">  1        2 0.37802273E+00 0.64484427E+03</pdfrwt>
<totfact> 0.48089670E+00</totfact>
</mgrwt>
</event>
<event>
 5    1  0.2343702E-004  0.6560666E+03  0.7818608E-02  0.9795462E-01
         13   -1    0    0    0    0  0.00000000000E+00  0.00000000000E+00  0.10000000000E+04  0.10000000000E+04  0.00000000000E+00 0. -1.
          2   -1    0    0  501    0 -0.00000000000E+00 -0.00000000000E+00 -0.10760585774E+03  0.10760585774E+03  0.00000000000E+00 0. -1.
    9000006    2    1    2  501    0  0.00000000000E+00  0.00000000000E+00  0.89239414226E+03  0.11076058577E+04  0.65606663605E+03 0.  0.
         13    1    3    3    0    0 -0.26374427137E+03 -0.79842384034E+02  0.14575455049E+03  0.31173744715E+03  0.00000000000E+00 0. -1.
          2    1    3    3  501    0  0.26374427137E+03  0.79842384034E+02  0.74663959177E+03  0.79586841059E+03  0.00000000000E+00 0. -1.
<mgrwt>
<rscale>  0 0.65606664E+03</rscale>
<asrwt>0</asrwt>
<pdfrwt beam="1">0</pdfrwt>
<pdfrwt beam="2">  1        2 0.39129485E+00 0.65606664E+03</pdfrwt>
<totfact> 0.42906159E+00</totfact>
</mgrwt>
</event>
<event>
 5    1  0.2343702E-004  0.6602617E+03  0.7818608E-02  0.9787712E-01
         13   -1    0    0    0    0  0.00000000000E+00  0.00000000000E+00  0.10000000000E+04  0.10000000000E+04  0.00000000000E+00 0. -1.
          2   -1    0    0  501    0 -0.00000000000E+00 -0.00000000000E+00 -0.10898636543E+03  0.10898636543E+03  0.00000000000E+00 0. -1.
    9000006    2    1    2  501    0  0.00000000000E+00  0.00000000000E+00  0.89101363457E+03  0.11089863654E+04  0.66026166155E+03 0.  0.
         13    1    3    3    0    0 -0.18238447759E+02  0.25454266969E+03  0.79727221961E+03  0.83711863188E+03  0.00000000000E+00 0. -1.
          4    1    3    3  501    0  0.18238447759E+02 -0.25454266969E+03  0.93741414956E+02  0.27186773355E+03  0.00000000000E+00 0. -1.
<mgrwt>
<rscale>  0 0.66026166E+03</rscale>
<asrwt>0</asrwt>
<pdfrwt beam="1">0</pdfrwt>
<pdfrwt beam="2">  1        2 0.39631489E+00 0.66026166E+03</pdfrwt>
<totfact> 0.41081297E+00</totfact>
</mgrwt>
</event>
<event>
 5    1  0.2343702E-004  0.6364334E+03  0.7818608E-02  0.9832574E-01
         13   -1    0    0    0    0  0.00000000000E+00  0.00000000000E+00  0.10000000000E+04  0.10000000000E+04  0.00000000000E+00 0. -1.
          2   -1    0    0  501    0 -0.00000000000E+00 -0.00000000000E+00 -0.10126187878E+03  0.10126187878E+03  0.00000000000E+00 0. -1.
    9000006    2    1    2  501    0  0.00000000000E+00  0.00000000000E+00  0.89873812122E+03  0.11012618788E+04  0.63643343336E+03 0.  0.
         13    1    3    3    0    0 -0.26642128963E+03  0.12533980591E+03  0.24049242035E+03  0.38016703534E+03  0.00000000000E+00 0. -1.
          2    1    3    3  501    0  0.26642128963E+03 -0.12533980591E+03  0.65824570087E+03  0.72109484344E+03  0.00000000000E+00 0. -1.
<mgrwt>
<rscale>  0 0.63643343E+03</rscale>
<asrwt>0</asrwt>
<pdfrwt beam="1">0</pdfrwt>
<pdfrwt beam="2">  1        2 0.36822579E+00 0.63643343E+03</pdfrwt>
<totfact> 0.52275188E+00</totfact>
</mgrwt>
</event>
<event>
 5    1  0.2343702E-004  0.6573222E+03  0.7818608E-02  0.9793136E-01
         13   -1    0    0    0    0  0.00000000000E+00  0.00000000000E+00  0.10000000000E+04  0.10000000000E+04  0.00000000000E+00 0. -1.
          2   -1    0    0  501    0 -0.00000000000E+00 -0.00000000000E+00 -0.10801811354E+03  0.10801811354E+03  0.00000000000E+00 0. -1.
    9000006    2    1    2  501    0  0.00000000000E+00  0.00000000000E+00  0.89198188646E+03  0.11080181135E+04  0.65732218444E+03 0.  0.
         13    1    3    3    0    0 -0.23499387395E+03  0.16150035052E+03  0.17048243217E+03  0.33221791597E+03  0.00000000000E+00 0. -1.
          4    1    3    3  501    0  0.23499387395E+03 -0.16150035052E+03  0.72149945429E+03  0.77580019757E+03  0.00000000000E+00 0. -1.
<mgrwt>
<rscale>  0 0.65732218E+03</rscale>
<asrwt>0</asrwt>
<pdfrwt beam="1">0</pdfrwt>
<pdfrwt beam="2">  1        2 0.39279397E+00 0.65732218E+03</pdfrwt>
<totfact> 0.42353677E+00</totfact>
</mgrwt>
</event>
<event>
 5    1  0.2343702E-004  0.6494727E+03  0.7818608E-02  0.9807769E-01
         13   -1    0    0    0    0  0.00000000000E+00  0.00000000000E+00  0.10000000000E+04  0.10000000000E+04  0.00000000000E+00 0. -1.
          2   -1    0    0  501    0 -0.00000000000E+00 -0.00000000000E+00 -0.10545369044E+03  0.10545369044E+03  0.00000000000E+00 0. -1.
    9000006    2    1    2  501    0  0.00000000000E+00  0.00000000000E+00  0.89454630956E+03  0.11054536904E+04  0.64947267975E+03 0.  0.
         13    1    3    3    0    0  0.27610443630E+03  0.70983037033E+02  0.18259339071E+03  0.33854482365E+03  0.00000000000E+00 0. -1.
          2    1    3    3  501    0 -0.27610443630E+03 -0.70983037033E+02  0.71195291885E+03  0.76690886678E+03  0.00000000000E+00 0. -1.
<mgrwt>
<rscale>  0 0.64947268E+03</rscale>
<asrwt>0</asrwt>
<pdfrwt beam="1">0</pdfrwt>
<pdfrwt beam="2">  1        2 0.38346877E+00 0.64947268E+03</pdfrwt>
<totfact> 0.45897632E+00</totfact>
</mgrwt>
</event>
<event>
 5    1  0.2343702E-004  0.6460709E+03  0.7818608E-02  0.9814180E-01
         13   -1    0    0    0    0  0.00000000000E+00  0.00000000000E+00  0.10000000000E+04  0.10000000000E+04  0.00000000000E+00 0. -1.
          2   -1    0    0  501    0 -0.00000000000E+00 -0.00000000000E+00 -0.10435190828E+03  0.10435190828E+03  0.00000000000E+00 0. -1.
    9000006    2    1    2  501    0  0.00000000000E+00  0.00000000000E+00  0.89564809172E+03  0.11043519083E+04  0.64607091958E+03 0.  0.
         13    1    3    3    0    0  0.13403078421E+03  0.95299347970E+02 -0.27437883875E+02  0.16673048405E+03  0.00000000000E+00 0. -1.
          2    1    3    3  501    0 -0.13403078421E+03 -0.95299347970E+02  0.92308597559E+03  0.93762142423E+03  0.00000000000E+00 0. -1.
<mgrwt>
<rscale>  0 0.64607092E+03</rscale>
<asrwt>0</asrwt>
<pdfrwt beam="1">0</pdfrwt>
<pdfrwt beam="2">  1        2 0.37946228E+00 0.64607092E+03</pdfrwt>
<totfact> 0.47501175E+00</totfact>
</mgrwt>
</event>
<event>
 5    1  0.2343702E-004  0.6492939E+03  0.7818608E-02  0.9808105E-01
         13   -1    0    0    0    0  0.00000000000E+00  0.00000000000E+00  0.10000000000E+04  0.10000000000E+04  0.00000000000E+00 0. -1.
          2   -1    0    0  501    0 -0.00000000000E+00 -0.00000000000E+00 -0.10539565374E+03  0.10539565374E+03  0.00000000000E+00 0. -1.
    9000006    2    1    2  501    0  0.00000000000E+00  0.00000000000E+00  0.89460434626E+03  0.11053956537E+04  0.64929393570E+03 0.  0.
         13    1    3    3    0    0  0.32014828569E+03 -0.42513316806E+02  0.39100904597E+03  0.50713940979E+03  0.00000000000E+00 0. -1.
          2    1    3    3  501    0 -0.32014828569E+03  0.42513316806E+02  0.50359530030E+03  0.59825624394E+03  0.00000000000E+00 0. -1.
<mgrwt>
<rscale>  0 0.64929394E+03</rscale>
<asrwt>0</asrwt>
<pdfrwt beam="1">0</pdfrwt>
<pdfrwt beam="2">  1        2 0.38325773E+00 0.64929394E+03</pdfrwt>
<totfact> 0.45980856E+00</totfact>
</mgrwt>
</event>
<event>
 5    1  0.2343702E-004  0.6690753E+03  0.7818608E-02  0.9771630E-01
         13   -1    0    0    0    0  0.00000000000E+00  0.00000000000E+00  0.10000000000E+04  0.10000000000E+04  0.00000000000E+00 0. -1.
          2   -1    0    0  501    0 -0.00000000000E+00 -0.00000000000E+00 -0.11191544764E+03  0.11191544764E+03  0.00000000000E+00 0. -1.
    9000006    2    1    2  501    0  0.00000000000E+00  0.00000000000E+00  0.88808455236E+03  0.11119154476E+04  0.66907532503E+03 0.  0.
         13    1    3    3    0    0 -0.14632383090E+03  0.10379230880E+03  0.91330160801E+03  0.93075417487E+03  0.00000000000E+00 0. -1.
          4    1    3    3  501    0  0.14632383090E+03 -0.10379230880E+03 -0.25217055647E+02  0.18116127277E+03  0.00000000000E+00 0. -1.
<mgrwt>
<rscale>  0 0.66907533E+03</rscale>
<asrwt>0</asrwt>
<pdfrwt beam="1">0</pdfrwt>
<pdfrwt beam="2">  1        2 0.40696612E+00 0.66907533E+03</pdfrwt>
<totfact> 0.37438679E+00</totfact>
</mgrwt>
</event>
<event>
 5    1  0.2343702E-004  0.6246325E+03  0.7818608E-02  0.9855579E-01
         13   -1    0    0    0    0  0.00000000000E+00  0.00000000000E+00  0.10000000000E+04  0.10000000000E+04  0.00000000000E+00 0. -1.
          2   -1    0    0  501    0 -0.00000000000E+00 -0.00000000000E+00 -0.97541429039E+02  0.97541429039E+02  0.00000000000E+00 0. -1.
    9000006    2    1    2  501    0  0.00000000000E+00  0.00000000000E+00  0.90245857096E+03  0.10975414290E+04  0.62463246486E+03 0.  0.
         13    1    3    3    0    0 -0.28975829321E+03  0.92634360934E+02  0.57548040048E+03  0.65093677470E+03  0.00000000000E+00 0. -1.
          2    1    3    3  501    0  0.28975829321E+03 -0.92634360934E+02  0.32697817048E+03  0.44660465434E+03  0.00000000000E+00 0. -1.
<mgrwt>
<rscale>  0 0.62463246E+03</rscale>
<asrwt>0</asrwt>
<pdfrwt beam="1">0</pdfrwt>
<pdfrwt beam="2">  1        2 0.35469685E+00 0.62463246E+03</pdfrwt>
<totfact> 0.58606714E+00</totfact>
</mgrwt>
</event>
<event>
 5    1  0.2343702E-004  0.6569765E+03  0.7818608E-02  0.9793776E-01
         13   -1    0    0    0    0  0.00000000000E+00  0.00000000000E+00  0.10000000000E+04  0.10000000000E+04  0.00000000000E+00 0. -1.
          2   -1    0    0  501    0 -0.00000000000E+00 -0.00000000000E+00 -0.10790453749E+03  0.10790453749E+03  0.00000000000E+00 0. -1.
    9000006    2    1    2  501    0  0.00000000000E+00  0.00000000000E+00  0.89209546251E+03  0.11079045375E+04  0.65697652161E+03 0.  0.
         13    1    3    3    0    0 -0.27860728786E+03 -0.26532818076E+02  0.73607628505E+03  0.78748606889E+03  0.00000000000E+00 0. -1.
          4    1    3    3  501    0  0.27860728786E+03  0.26532818076E+02  0.15601917746E+03  0.32041846860E+03  0.00000000000E+00 0. -1.
<mgrwt>
<rscale>  0 0.65697652E+03</rscale>
<asrwt>0</asrwt>
<pdfrwt beam="1">0</pdfrwt>
<pdfrwt beam="2">  1        2 0.39238096E+00 0.65697652E+03</pdfrwt>
<totfact> 0.42505241E+00</totfact>
</mgrwt>
</event>
<event>
 5    1  0.2343702E-004  0.6462151E+03  0.7818608E-02  0.9813907E-01
         13   -1    0    0    0    0  0.00000000000E+00  0.00000000000E+00  0.10000000000E+04  0.10000000000E+04  0.00000000000E+00 0. -1.
          2   -1    0    0  501    0 -0.00000000000E+00 -0.00000000000E+00 -0.10439849705E+03  0.10439849705E+03  0.00000000000E+00 0. -1.
    9000006    2    1    2  501    0  0.00000000000E+00  0.00000000000E+00  0.89560150295E+03  0.11043984971E+04  0.64621512534E+03 0.  0.
         13    1    3    3    0    0 -0.57091265965E+02 -0.28911860240E+03  0.22139821587E+03  0.36860025623E+03  0.00000000000E+00 0. -1.
          2    1    3    3  501    0  0.57091265965E+02  0.28911860240E+03  0.67420328707E+03  0.73579824083E+03  0.00000000000E+00 0. -1.
<mgrwt>
<rscale>  0 0.64621513E+03</rscale>
<asrwt>0</asrwt>
<pdfrwt beam="1">0</pdfrwt>
<pdfrwt beam="2">  1        2 0.37963170E+00 0.64621513E+03</pdfrwt>
<totfact> 0.47432351E+00</totfact>
</mgrwt>
</event>
<event>
 5    1  0.2343702E-004  0.6523641E+03  0.7818608E-02  0.9802353E-01
         13   -1    0    0    0    0  0.00000000000E+00  0.00000000000E+00  0.10000000000E+04  0.10000000000E+04  0.00000000000E+00 0. -1.
          2   -1    0    0  501    0 -0.00000000000E+00 -0.00000000000E+00 -0.10639474193E+03  0.10639474193E+03  0.00000000000E+00 0. -1.
    9000006    2    1    2  501    0  0.00000000000E+00  0.00000000000E+00  0.89360525807E+03  0.11063947419E+04  0.65236413736E+03 0.  0.
         13    1    3    3    0    0  0.21692099270E+03 -0.14132278302E+03  0.11029793534E+03  0.28141158579E+03  0.00000000000E+00 0. -1.
          2    1    3    3  501    0 -0.21692099270E+03  0.14132278302E+03  0.78330732273E+03  0.82498315614E+03  0.00000000000E+00 0. -1.
<mgrwt>
<rscale>  0 0.65236414E+03</rscale>
<asrwt>0</asrwt>
<pdfrwt beam="1">0</pdfrwt>
<pdfrwt beam="2">  1        2 0.38689079E+00 0.65236414E+03</pdfrwt>
<totfact> 0.44567105E+00</totfact>
</mgrwt>
</event>
<event>
 5    1  0.2343702E-004  0.6403609E+03  0.7818608E-02  0.9825036E-01
         13   -1    0    0    0    0  0.00000000000E+00  0.00000000000E+00  0.10000000000E+04  0.10000000000E+04  0.00000000000E+00 0. -1.
          2   -1    0    0  501    0 -0.00000000000E+00 -0.00000000000E+00 -0.10251552706E+03  0.10251552706E+03  0.00000000000E+00 0. -1.
    9000006    2    1    2  501    0  0.00000000000E+00  0.00000000000E+00  0.89748447294E+03  0.11025155271E+04  0.64036092028E+03 0.  0.
         13    1    3    3    0    0  0.28857969440E+03 -0.90293020719E+02  0.26747591789E+03  0.40370092428E+03  0.00000000000E+00 0. -1.
          4    1    3    3  501    0 -0.28857969440E+03  0.90293020719E+02  0.63000855505E+03  0.69881460278E+03  0.00000000000E+00 0. -1.
<mgrwt>
<rscale>  0 0.64036092E+03</rscale>
<asrwt>0</asrwt>
<pdfrwt beam="1">0</pdfrwt>
<pdfrwt beam="2">  1        2 0.37278452E+00 0.64036092E+03</pdfrwt>
<totfact> 0.50287759E+00</totfact>
</mgrwt>
</event>
<event>
 5    1  0.2343702E-004  0.6433995E+03  0.7818608E-02  0.9819244E-01
         13   -1    0    0    0    0  0.00000000000E+00  0.00000000000E+00  0.10000000000E+04  0.10000000000E+04  0.00000000000E+00 0. -1.
          2   -1    0    0  501    0 -0.00000000000E+00 -0.00000000000E+00 -0.10349072533E+03  0.10349072533E+03  0.00000000000E+00 0. -1.
    9000006    2    1    2  501    0  0.00000000000E+00  0.00000000000E+00  0.89650927467E+03  0.11034907253E+04  0.64339948813E+03 0.  0.
         13    1    3    3    0    0  0.21537834371E+03 -0.71944988098E+01  0.85791138743E+03  0.88456290926E+03  0.00000000000E+00 0. -1.
          4    1    3    3  501    0 -0.21537834371E+03  0.71944988098E+01  0.38597887237E+02  0.21892781607E+03  0.00000000000E+00 0. -1.
<mgrwt>
<rscale>  0 0.64339949E+03</rscale>
<asrwt>0</asrwt>
<pdfrwt beam="1">0</pdfrwt>
<pdfrwt beam="2">  1        2 0.37633070E+00 0.64339949E+03</pdfrwt>
<totfact> 0.48789871E+00</totfact>
</mgrwt>
</event>
<event>
 5    1  0.2343702E-004  0.6381611E+03  0.7818608E-02  0.9829251E-01
         13   -1    0    0    0    0  0.00000000000E+00  0.00000000000E+00  0.10000000000E+04  0.10000000000E+04  0.00000000000E+00 0. -1.
          2   -1    0    0  501    0 -0.00000000000E+00 -0.00000000000E+00 -0.10181239967E+03  0.10181239967E+03  0.00000000000E+00 0. -1.
    9000006    2    1    2  501    0  0.00000000000E+00  0.00000000000E+00  0.89818760033E+03  0.11018123997E+04  0.63816110716E+03 0.  0.
         13    1    3    3    0    0 -0.16291727685E+03 -0.20432589860E+03  0.76520338909E+03  0.80859590564E+03  0.00000000000E+00 0. -1.
          4    1    3    3  501    0  0.16291727685E+03  0.20432589860E+03  0.13298421123E+03  0.29321649403E+03  0.00000000000E+00 0. -1.
<mgrwt>
<rscale>  0 0.63816111E+03</rscale>
<asrwt>0</asrwt>
<pdfrwt beam="1">0</pdfrwt>
<pdfrwt beam="2">  1        2 0.37022769E+00 0.63816111E+03</pdfrwt>
<totfact> 0.51393740E+00</totfact>
</mgrwt>
</event>
<event>
 5    1  0.2343702E-004  0.6319728E+03  0.7818608E-02  0.9841206E-01
         13   -1    0    0    0    0  0.00000000000E+00  0.00000000000E+00  0.10000000000E+04  0.10000000000E+04  0.00000000000E+00 0. -1.
          2   -1    0    0  501    0 -0.00000000000E+00 -0.00000000000E+00 -0.99847419388E+02  0.99847419388E+02  0.00000000000E+00 0. -1.
    9000006    2    1    2  501    0  0.00000000000E+00  0.00000000000E+00  0.90015258061E+03  0.10998474194E+04  0.63197284558E+03 0.  0.
         13    1    3    3    0    0  0.27894378195E+03 -0.13578068257E+03  0.34563572152E+03  0.46444599174E+03  0.00000000000E+00 0. -1.
          2    1    3    3  501    0 -0.27894378195E+03  0.13578068257E+03  0.55451685909E+03  0.63540142765E+03  0.00000000000E+00 0. -1.
<mgrwt>
<rscale>  0 0.63197285E+03</rscale>
<asrwt>0</asrwt>
<pdfrwt beam="1">0</pdfrwt>
<pdfrwt beam="2">  1        2 0.36308229E+00 0.63197285E+03</pdfrwt>
<totfact> 0.54603959E+00</totfact>
</mgrwt>
</event>
<event>
 5    1  0.2343702E-004  0.6282595E+03  0.7818608E-02  0.9848451E-01
         13   -1    0    0    0    0  0.00000000000E+00  0.00000000000E+00  0.10000000000E+04  0.10000000000E+04  0.00000000000E+00 0. -1.
          2   -1    0    0  501    0 -0.00000000000E+00 -0.00000000000E+00 -0.98677501326E+02  0.98677501326E+02  0.00000000000E+00 0. -1.
    9000006    2    1    2  501    0  0.00000000000E+00  0.00000000000E+00  0.90132249867E+03  0.10986775013E+04  0.62825950475E+03 0.  0.
         13    1    3    3    0    0 -0.22440034933E+03  0.42929991623E+02  0.82767705108E+03  0.85863135386E+03  0.00000000000E+00 0. -1.
          4    1    3    3  501    0  0.22440034933E+03 -0.42929991623E+02  0.73645447597E+02  0.24004614746E+03  0.00000000000E+00 0. -1.
<mgrwt>
<rscale>  0 0.62825950E+03</rscale>
<asrwt>0</asrwt>
<pdfrwt beam="1">0</pdfrwt>
<pdfrwt beam="2">  1        2 0.35882803E+00 0.62825950E+03</pdfrwt>
<totfact> 0.56601931E+00</totfact>
</mgrwt>
</event>
<event>
 5    1  0.2343702E-004  0.6544257E+03  0.7818608E-02  0.9798510E-01
         13   -1    0    0    0    0  0.00000000000E+00  0.00000000000E+00  0.10000000000E+04  0.10000000000E+04  0.00000000000E+00 0. -1.
          2   -1    0    0  501    0 -0.00000000000E+00 -0.00000000000E+00 -0.10706824748E+03  0.10706824748E+03  0.00000000000E+00 0. -1.
    9000006    2    1    2  501    0  0.00000000000E+00  0.00000000000E+00  0.89293175252E+03  0.11070682475E+04  0.65442569473E+03 0.  0.
         13    1    3    3    0    0  0.20126237059E+02  0.32387942495E+03  0.37538981847E+03  0.49620606923E+03  0.00000000000E+00 0. -1.
          4    1    3    3  501    0 -0.20126237059E+02 -0.32387942495E+03  0.51754193404E+03  0.61086217825E+03  0.00000000000E+00 0. -1.
<mgrwt>
<rscale>  0 0.65442569E+03</rscale>
<asrwt>0</asrwt>
<pdfrwt beam="1">0</pdfrwt>
<pdfrwt beam="2">  1        2 0.38933990E+00 0.65442569E+03</pdfrwt>
<totfact> 0.43636411E+00</totfact>
</mgrwt>
</event>
<event>
 5    1  0.2343702E-004  0.6425895E+03  0.7818608E-02  0.9820785E-01
         13   -1    0    0    0    0  0.00000000000E+00  0.00000000000E+00  0.10000000000E+04  0.10000000000E+04  0.00000000000E+00 0. -1.
          2   -1    0    0  501    0 -0.00000000000E+00 -0.00000000000E+00 -0.10323032688E+03  0.10323032688E+03  0.00000000000E+00 0. -1.
    9000006    2    1    2  501    0  0.00000000000E+00  0.00000000000E+00  0.89676967312E+03  0.11032303269E+04  0.64258953270E+03 0.  0.
         13    1    3    3    0    0  0.25041994958E+03  0.60343993144E+00  0.10279078917E+03  0.27069625344E+03  0.00000000000E+00 0. -1.
          2    1    3    3  501    0 -0.25041994958E+03 -0.60343993144E+00  0.79397888395E+03  0.83253407345E+03  0.00000000000E+00 0. -1.
<mgrwt>
<rscale>  0 0.64258953E+03</rscale>
<asrwt>0</asrwt>
<pdfrwt beam="1">0</pdfrwt>
<pdfrwt beam="2">  1        2 0.37538380E+00 0.64258953E+03</pdfrwt>
<totfact> 0.49185775E+00</totfact>
</mgrwt>
</event>
<event>
 5    1  0.2343702E-004  0.6549571E+03  0.7818608E-02  0.9797522E-01
         13   -1    0    0    0    0  0.00000000000E+00  0.00000000000E+00  0.10000000000E+04  0.10000000000E+04  0.00000000000E+00 0. -1.
          2   -1    0    0  501    0 -0.00000000000E+00 -0.00000000000E+00 -0.10724219948E+03  0.10724219948E+03  0.00000000000E+00 0. -1.
    9000006    2    1    2  501    0  0.00000000000E+00  0.00000000000E+00  0.89275780052E+03  0.11072421995E+04  0.65495709623E+03 0.  0.
         13    1    3    3    0    0  0.16244817492E+03 -0.20798231828E+03  0.77417322992E+03  0.81791823808E+03  0.00000000000E+00 0. -1.
          2    1    3    3  501    0 -0.16244817492E+03  0.20798231828E+03  0.11858457060E+03  0.28932396140E+03  0.00000000000E+00 0. -1.
<mgrwt>
<rscale>  0 0.65495710E+03</rscale>
<asrwt>0</asrwt>
<pdfrwt beam="1">0</pdfrwt>
<pdfrwt beam="2">  1        2 0.38997246E+00 0.65495710E+03</pdfrwt>
<totfact> 0.43398907E+00</totfact>
</mgrwt>
</event>
<event>
 5    1  0.2343702E-004  0.6465182E+03  0.7818608E-02  0.9813335E-01
         13   -1    0    0    0    0  0.00000000000E+00  0.00000000000E+00  0.10000000000E+04  0.10000000000E+04  0.00000000000E+00 0. -1.
          2   -1    0    0  501    0 -0.00000000000E+00 -0.00000000000E+00 -0.10449643230E+03  0.10449643230E+03  0.00000000000E+00 0. -1.
    9000006    2    1    2  501    0  0.00000000000E+00  0.00000000000E+00  0.89550356770E+03  0.11044964323E+04  0.64651815845E+03 0.  0.
         13    1    3    3    0    0  0.10894364827E+03  0.28921655555E+03  0.28584763638E+03  0.42097957875E+03  0.00000000000E+00 0. -1.
          2    1    3    3  501    0 -0.10894364827E+03 -0.28921655555E+03  0.60965593132E+03  0.68351685355E+03  0.00000000000E+00 0. -1.
<mgrwt>
<rscale>  0 0.64651816E+03</rscale>
<asrwt>0</asrwt>
<pdfrwt beam="1">0</pdfrwt>
<pdfrwt beam="2">  1        2 0.37998783E+00 0.64651816E+03</pdfrwt>
<totfact> 0.47287970E+00</totfact>
</mgrwt>
</event>
<event>
 5    1  0.2343702E-004  0.6395248E+03  0.7818608E-02  0.9826636E-01
         13   -1    0    0    0    0  0.00000000000E+00  0.00000000000E+00  0.10000000000E+04  0.10000000000E+04  0.00000000000E+00 0. -1.
          2   -1    0    0  501    0 -0.00000000000E+00 -0.00000000000E+00 -0.10224800783E+03  0.10224800783E+03  0.00000000000E+00 0. -1.
    9000006    2    1    2  501    0  0.00000000000E+00  0.00000000000E+00  0.89775199217E+03  0.11022480078E+04  0.63952484808E+03 0.  0.
         13    1    3    3    0    0 -0.14597801621E+03 -0.25768610424E+03  0.24107443180E+03  0.38187509896E+03  0.00000000000E+00 0. -1.
          2    1    3    3  501    0  0.14597801621E+03  0.25768610424E+03  0.65667756037E+03  0.72037290887E+03  0.00000000000E+00 0. -1.
<mgrwt>
<rscale>  0 0.63952485E+03</rscale>
<asrwt>0</asrwt>
<pdfrwt beam="1">0</pdfrwt>
<pdfrwt beam="2">  1        2 0.37181172E+00 0.63952485E+03</pdfrwt>
<totfact> 0.50705958E+00</totfact>
</mgrwt>
</event>
<event>
 5    1  0.2343702E-004  0.6353359E+03  0.7818608E-02  0.9834691E-01
         13   -1    0    0    0    0  0.00000000000E+00  0.00000000000E+00  0.10000000000E+04  0.10000000000E+04  0.00000000000E+00 0. -1.
          4   -1    0    0  501    0 -0.00000000000E+00 -0.00000000000E+00 -0.10091292138E+03  0.10091292138E+03  0.00000000000E+00 0. -1.
    9000006    2    1    2  501    0  0.00000000000E+00  0.00000000000E+00  0.89908707862E+03  0.11009129214E+04  0.63533588402E+03 0.  0.
         13    1    3    3    0    0 -0.31332588863E+03  0.47703047495E+02  0.41220861090E+03  0.51996599132E+03  0.00000000000E+00 0. -1.
          4    1    3    3  501    0  0.31332588863E+03 -0.47703047495E+02  0.48687846772E+03  0.58094693006E+03  0.00000000000E+00 0. -1.
<mgrwt>
<rscale>  0 0.63533588E+03</rscale>
<asrwt>0</asrwt>
<pdfrwt beam="1">0</pdfrwt>
<pdfrwt beam="2">  1        4 0.36695685E+00 0.63533588E+03</pdfrwt>
<totfact> 0.53589345E-02</totfact>
</mgrwt>
</event>
<event>
 5    1  0.2343702E-004  0.6570558E+03  0.7818608E-02  0.9793629E-01
         13   -1    0    0    0    0  0.00000000000E+00  0.00000000000E+00  0.10000000000E+04  0.10000000000E+04  0.00000000000E+00 0. -1.
          2   -1    0    0  501    0 -0.00000000000E+00 -0.00000000000E+00 -0.10793056513E+03  0.10793056513E+03  0.00000000000E+00 0. -1.
    9000006    2    1    2  501    0  0.00000000000E+00  0.00000000000E+00  0.89206943487E+03  0.11079305651E+04  0.65705575145E+03 0.  0.
         13    1    3    3    0    0 -0.12838231867E+03 -0.16441906512E+03  0.18074355390E+02  0.20938560372E+03  0.00000000000E+00 0. -1.
          2    1    3    3  501    0  0.12838231867E+03  0.16441906512E+03  0.87399507948E+03  0.89854496141E+03  0.00000000000E+00 0. -1.
<mgrwt>
<rscale>  0 0.65705575E+03</rscale>
<asrwt>0</asrwt>
<pdfrwt beam="1">0</pdfrwt>
<pdfrwt beam="2">  1        2 0.39247561E+00 0.65705575E+03</pdfrwt>
<totfact> 0.42470464E+00</totfact>
</mgrwt>
</event>
<event>
 5    1  0.2343702E-004  0.6500917E+03  0.7818608E-02  0.9806607E-01
         13   -1    0    0    0    0  0.00000000000E+00  0.00000000000E+00  0.10000000000E+04  0.10000000000E+04  0.00000000000E+00 0. -1.
          2   -1    0    0  501    0 -0.00000000000E+00 -0.00000000000E+00 -0.10565480489E+03  0.10565480489E+03  0.00000000000E+00 0. -1.
    9000006    2    1    2  501    0  0.00000000000E+00  0.00000000000E+00  0.89434519511E+03  0.11056548049E+04  0.65009170087E+03 0.  0.
         13    1    3    3    0    0  0.98160931215E+02 -0.17777285352E+03  0.15512427386E+02  0.20366489945E+03  0.00000000000E+00 0. -1.
          4    1    3    3  501    0 -0.98160931215E+02  0.17777285352E+03  0.87883276773E+03  0.90198990543E+03  0.00000000000E+00 0. -1.
<mgrwt>
<rscale>  0 0.65009170E+03</rscale>
<asrwt>0</asrwt>
<pdfrwt beam="1">0</pdfrwt>
<pdfrwt beam="2">  1        2 0.38420010E+00 0.65009170E+03</pdfrwt>
<totfact> 0.45610292E+00</totfact>
</mgrwt>
</event>
<event>
 5    1  0.2343702E-004  0.6477437E+03  0.7818608E-02  0.9811022E-01
         13   -1    0    0    0    0  0.00000000000E+00  0.00000000000E+00  0.10000000000E+04  0.10000000000E+04  0.00000000000E+00 0. -1.
          2   -1    0    0  501    0 -0.00000000000E+00 -0.00000000000E+00 -0.10489298406E+03  0.10489298406E+03  0.00000000000E+00 0. -1.
    9000006    2    1    2  501    0  0.00000000000E+00  0.00000000000E+00  0.89510701594E+03  0.11048929841E+04  0.64774372727E+03 0.  0.
         13    1    3    3    0    0 -0.15052845079E+03  0.27541154140E+03  0.58382894936E+03  0.66284732310E+03  0.00000000000E+00 0. -1.
          2    1    3    3  501    0  0.15052845079E+03 -0.27541154140E+03  0.31127806659E+03  0.44204566096E+03  0.00000000000E+00 0. -1.
<mgrwt>
<rscale>  0 0.64774373E+03</rscale>
<asrwt>0</asrwt>
<pdfrwt beam="1">0</pdfrwt>
<pdfrwt beam="2">  1        2 0.38142984E+00 0.64774373E+03</pdfrwt>
<totfact> 0.46707433E+00</totfact>
</mgrwt>
</event>
<event>
 5    1  0.2343702E-004  0.6636068E+03  0.7818608E-02  0.9781577E-01
         13   -1    0    0    0    0  0.00000000000E+00  0.00000000000E+00  0.10000000000E+04  0.10000000000E+04  0.00000000000E+00 0. -1.
          2   -1    0    0  501    0 -0.00000000000E+00 -0.00000000000E+00 -0.11009349590E+03  0.11009349590E+03  0.00000000000E+00 0. -1.
    9000006    2    1    2  501    0  0.00000000000E+00  0.00000000000E+00  0.88990650410E+03  0.11100934959E+04  0.66360679894E+03 0.  0.
         13    1    3    3    0    0 -0.13950150779E+03  0.26003627366E+03  0.19118083081E+03  0.35161007432E+03  0.00000000000E+00 0. -1.
          4    1    3    3  501    0  0.13950150779E+03 -0.26003627366E+03  0.69872567329E+03  0.75848342158E+03  0.00000000000E+00 0. -1.
<mgrwt>
<rscale>  0 0.66360680E+03</rscale>
<asrwt>0</asrwt>
<pdfrwt beam="1">0</pdfrwt>
<pdfrwt beam="2">  1        2 0.40034083E+00 0.66360680E+03</pdfrwt>
<totfact> 0.39668693E+00</totfact>
</mgrwt>
</event>
<event>
 5    1  0.2343702E-004  0.6460178E+03  0.7818608E-02  0.9814280E-01
         13   -1    0    0    0    0  0.00000000000E+00  0.00000000000E+00  0.10000000000E+04  0.10000000000E+04  0.00000000000E+00 0. -1.
          2   -1    0    0  501    0 -0.00000000000E+00 -0.00000000000E+00 -0.10433476121E+03  0.10433476121E+03  0.00000000000E+00 0. -1.
    9000006    2    1    2  501    0  0.00000000000E+00  0.00000000000E+00  0.89566523879E+03  0.11043347612E+04  0.64601783630E+03 0.  0.
         13    1    3    3    0    0  0.21902989537E+03  0.16250436852E+03  0.15197935156E+03  0.31221705295E+03  0.00000000000E+00 0. -1.
          4    1    3    3  501    0 -0.21902989537E+03 -0.16250436852E+03  0.74368588724E+03  0.79211770826E+03  0.00000000000E+00 0. -1.
<mgrwt>
<rscale>  0 0.64601784E+03</rscale>
<asrwt>0</asrwt>
<pdfrwt beam="1">0</pdfrwt>
<pdfrwt beam="2">  1        2 0.37939993E+00 0.64601784E+03</pdfrwt>
<totfact> 0.47526529E+00</totfact>
</mgrwt>
</event>
<event>
 5    1  0.2343702E-004  0.6699319E+03  0.7818608E-02  0.9770081E-01
         13   -1    0    0    0    0  0.00000000000E+00  0.00000000000E+00  0.10000000000E+04  0.10000000000E+04  0.00000000000E+00 0. -1.
          2   -1    0    0  501    0 -0.00000000000E+00 -0.00000000000E+00 -0.11220219622E+03  0.11220219622E+03  0.00000000000E+00 0. -1.
    9000006    2    1    2  501    0  0.00000000000E+00  0.00000000000E+00  0.88779780378E+03  0.11122021962E+04  0.66993192557E+03 0.  0.
         13    1    3    3    0    0  0.21484774059E+03  0.25664863537E+03  0.42199201937E+03  0.53861427579E+03  0.00000000000E+00 0. -1.
          2    1    3    3  501    0 -0.21484774059E+03 -0.25664863537E+03  0.46580578441E+03  0.57358792043E+03  0.00000000000E+00 0. -1.
<mgrwt>
<rscale>  0 0.66993193E+03</rscale>
<asrwt>0</asrwt>
<pdfrwt beam="1">0</pdfrwt>
<pdfrwt beam="2">  1        2 0.40800885E+00 0.66993193E+03</pdfrwt>
<totfact> 0.37098119E+00</totfact>
</mgrwt>
</event>
<event>
 5    1  0.2343702E-004  0.6527977E+03  0.7818608E-02  0.9801544E-01
         13   -1    0    0    0    0  0.00000000000E+00  0.00000000000E+00  0.10000000000E+04  0.10000000000E+04  0.00000000000E+00 0. -1.
          2   -1    0    0  501    0 -0.00000000000E+00 -0.00000000000E+00 -0.10653619730E+03  0.10653619730E+03  0.00000000000E+00 0. -1.
    9000006    2    1    2  501    0  0.00000000000E+00  0.00000000000E+00  0.89346380270E+03  0.11065361973E+04  0.65279766328E+03 0.  0.
         13    1    3    3    0    0  0.16327420308E+03  0.28074636607E+03  0.50189873257E+03  0.59781211530E+03  0.00000000000E+00 0. -1.
          2    1    3    3  501    0 -0.16327420308E+03 -0.28074636607E+03  0.39156507014E+03  0.50872408199E+03  0.00000000000E+00 0. -1.
<mgrwt>
<rscale>  0 0.65279766E+03</rscale>
<asrwt>0</asrwt>
<pdfrwt beam="1">0</pdfrwt>
<pdfrwt beam="2">  1        2 0.38740517E+00 0.65279766E+03</pdfrwt>
<totfact> 0.44370156E+00</totfact>
</mgrwt>
</event>
<event>
 5    1  0.2343702E-004  0.6544224E+03  0.7818608E-02  0.9798516E-01
         13   -1    0    0    0    0  0.00000000000E+00  0.00000000000E+00  0.10000000000E+04  0.10000000000E+04  0.00000000000E+00 0. -1.
          2   -1    0    0  501    0 -0.00000000000E+00 -0.00000000000E+00 -0.10706718141E+03  0.10706718141E+03  0.00000000000E+00 0. -1.
    9000006    2    1    2  501    0  0.00000000000E+00  0.00000000000E+00  0.89293281859E+03  0.11070671814E+04  0.65442243670E+03 0.  0.
         13    1    3    3    0    0 -0.22664755879E+03 -0.74147876098E+02  0.67440989170E+02  0.24782112593E+03  0.00000000000E+00 0. -1.
          2    1    3    3  501    0  0.22664755879E+03  0.74147876098E+02  0.82549182941E+03  0.85924605549E+03  0.00000000000E+00 0. -1.
<mgrwt>
<rscale>  0 0.65442244E+03</rscale>
<asrwt>0</asrwt>
<pdfrwt beam="1">0</pdfrwt>
<pdfrwt beam="2">  1        2 0.38933603E+00 0.65442244E+03</pdfrwt>
<totfact> 0.43637870E+00</totfact>
</mgrwt>
</event>
<event>
 5    1  0.2343702E-004  0.6551790E+03  0.7818608E-02  0.9797109E-01
         13   -1    0    0    0    0  0.00000000000E+00  0.00000000000E+00  0.10000000000E+04  0.10000000000E+04  0.00000000000E+00 0. -1.
          2   -1    0    0  501    0 -0.00000000000E+00 -0.00000000000E+00 -0.10731487873E+03  0.10731487873E+03  0.00000000000E+00 0. -1.
    9000006    2    1    2  501    0  0.00000000000E+00  0.00000000000E+00  0.89268512127E+03  0.11073148787E+04  0.65517899458E+03 0.  0.
         13    1    3    3    0    0 -0.15506925245E+03 -0.14181862443E+03  0.87107758733E+03  0.89606649219E+03  0.00000000000E+00 0. -1.
          4    1    3    3  501    0  0.15506925245E+03  0.14181862443E+03  0.21607533941E+02  0.21124838654E+03  0.00000000000E+00 0. -1.
<mgrwt>
<rscale>  0 0.65517899E+03</rscale>
<asrwt>0</asrwt>
<pdfrwt beam="1">0</pdfrwt>
<pdfrwt beam="2">  1        2 0.39023675E+00 0.65517899E+03</pdfrwt>
<totfact> 0.43300022E+00</totfact>
</mgrwt>
</event>
<event>
 5    1  0.2343702E-004  0.6525026E+03  0.7818608E-02  0.9802095E-01
         13   -1    0    0    0    0  0.00000000000E+00  0.00000000000E+00  0.10000000000E+04  0.10000000000E+04  0.00000000000E+00 0. -1.
          2   -1    0    0  501    0 -0.00000000000E+00 -0.00000000000E+00 -0.10643990941E+03  0.10643990941E+03  0.00000000000E+00 0. -1.
    9000006    2    1    2  501    0  0.00000000000E+00  0.00000000000E+00  0.89356009059E+03  0.11064399094E+04  0.65250259589E+03 0.  0.
         13    1    3    3    0    0  0.26283132973E+03 -0.99554536958E+02  0.16584568314E+03  0.32633756194E+03  0.00000000000E+00 0. -1.
          4    1    3    3  501    0 -0.26283132973E+03  0.99554536958E+02  0.72771440745E+03  0.78010234747E+03  0.00000000000E+00 0. -1.
<mgrwt>
<rscale>  0 0.65250260E+03</rscale>
<asrwt>0</asrwt>
<pdfrwt beam="1">0</pdfrwt>
<pdfrwt beam="2">  1        2 0.38705503E+00 0.65250260E+03</pdfrwt>
<totfact> 0.44504132E+00</totfact>
</mgrwt>
</event>
<event>
 5    1  0.2343702E-004  0.6527964E+03  0.7818608E-02  0.9801546E-01
         13   -1    0    0    0    0  0.00000000000E+00  0.00000000000E+00  0.10000000000E+04  0.10000000000E+04  0.00000000000E+00 0. -1.
          2   -1    0    0  501    0 -0.00000000000E+00 -0.00000000000E+00 -0.10653578507E+03  0.10653578507E+03  0.00000000000E+00 0. -1.
    9000006    2    1    2  501    0  0.00000000000E+00  0.00000000000E+00  0.89346421493E+03  0.11065357851E+04  0.65279640032E+03 0.  0.
         13    1    3    3    0    0  0.24659717543E+03  0.10012141454E+03  0.12645208348E+03  0.29466013303E+03  0.00000000000E+00 0. -1.
          2    1    3    3  501    0 -0.24659717543E+03 -0.10012141454E+03  0.76701213145E+03  0.81187565204E+03  0.00000000000E+00 0. -1.
<mgrwt>
<rscale>  0 0.65279640E+03</rscale>
<asrwt>0</asrwt>
<pdfrwt beam="1">0</pdfrwt>
<pdfrwt beam="2">  1        2 0.38740367E+00 0.65279640E+03</pdfrwt>
<totfact> 0.44370729E+00</totfact>
</mgrwt>
</event>
<event>
 5    1  0.2343702E-004  0.6491212E+03  0.7818608E-02  0.9808430E-01
         13   -1    0    0    0    0  0.00000000000E+00  0.00000000000E+00  0.10000000000E+04  0.10000000000E+04  0.00000000000E+00 0. -1.
          2   -1    0    0  501    0 -0.00000000000E+00 -0.00000000000E+00 -0.10533958550E+03  0.10533958550E+03  0.00000000000E+00 0. -1.
    9000006    2    1    2  501    0  0.00000000000E+00  0.00000000000E+00  0.89466041450E+03  0.11053395855E+04  0.64912120749E+03 0.  0.
         13    1    3    3    0    0  0.95590977633E+02  0.31010732622E+03  0.45746118710E+03  0.56086979459E+03  0.00000000000E+00 0. -1.
          2    1    3    3  501    0 -0.95590977633E+02 -0.31010732622E+03  0.43719922739E+03  0.54446979091E+03  0.00000000000E+00 0. -1.
<mgrwt>
<rscale>  0 0.64912121E+03</rscale>
<asrwt>0</asrwt>
<pdfrwt beam="1">0</pdfrwt>
<pdfrwt beam="2">  1        2 0.38305385E+00 0.64912121E+03</pdfrwt>
<totfact> 0.46061387E+00</totfact>
</mgrwt>
</event>
<event>
 5    1  0.2343702E-004  0.6490570E+03  0.7818608E-02  0.9808550E-01
         13   -1    0    0    0    0  0.00000000000E+00  0.00000000000E+00  0.10000000000E+04  0.10000000000E+04  0.00000000000E+00 0. -1.
          2   -1    0    0  501    0 -0.00000000000E+00 -0.00000000000E+00 -0.10531875065E+03  0.10531875065E+03  0.00000000000E+00 0. -1.
    9000006    2    1    2  501    0  0.00000000000E+00  0.00000000000E+00  0.89468124935E+03  0.11053187507E+04  0.64905701030E+03 0.  0.
         13    1    3    3    0    0  0.23577708786E+03  0.12545782708E+03  0.76129684271E+03  0.80678583544E+03  0.00000000000E+00 0. -1.
          2    1    3    3  501    0 -0.23577708786E+03 -0.12545782708E+03  0.13338440663E+03  0.29853291522E+03  0.00000000000E+00 0. -1.
<mgrwt>
<rscale>  0 0.64905701E+03</rscale>
<asrwt>0</asrwt>
<pdfrwt beam="1">0</pdfrwt>
<pdfrwt beam="2">  1        2 0.38297808E+00 0.64905701E+03</pdfrwt>
<totfact> 0.46091345E+00</totfact>
</mgrwt>
</event>
<event>
 5    1  0.2343702E-004  0.6447569E+03  0.7818608E-02  0.9816667E-01
         13   -1    0    0    0    0  0.00000000000E+00  0.00000000000E+00  0.10000000000E+04  0.10000000000E+04  0.00000000000E+00 0. -1.
          2   -1    0    0  501    0 -0.00000000000E+00 -0.00000000000E+00 -0.10392787292E+03  0.10392787292E+03  0.00000000000E+00 0. -1.
    9000006    2    1    2  501    0  0.00000000000E+00  0.00000000000E+00  0.89607212708E+03  0.11039278729E+04  0.64475692449E+03 0.  0.
         13    1    3    3    0    0  0.30913754898E+03  0.90938386463E+02  0.43160835978E+03  0.53862936288E+03  0.00000000000E+00 0. -1.
          2    1    3    3  501    0 -0.30913754898E+03 -0.90938386463E+02  0.46446376730E+03  0.56529851004E+03  0.00000000000E+00 0. -1.
<mgrwt>
<rscale>  0 0.64475692E+03</rscale>
<asrwt>0</asrwt>
<pdfrwt beam="1">0</pdfrwt>
<pdfrwt beam="2">  1        2 0.37792033E+00 0.64475692E+03</pdfrwt>
<totfact> 0.48131783E+00</totfact>
</mgrwt>
</event>
<event>
 5    1  0.2343702E-004  0.6482285E+03  0.7818608E-02  0.9810109E-01
         13   -1    0    0    0    0  0.00000000000E+00  0.00000000000E+00  0.10000000000E+04  0.10000000000E+04  0.00000000000E+00 0. -1.
          2   -1    0    0  501    0 -0.00000000000E+00 -0.00000000000E+00 -0.10505004808E+03  0.10505004808E+03  0.00000000000E+00 0. -1.
    9000006    2    1    2  501    0  0.00000000000E+00  0.00000000000E+00  0.89494995192E+03  0.11050500481E+04  0.64822850318E+03 0.  0.
         13    1    3    3    0    0 -0.22246080906E+03 -0.15223613936E+03  0.14069400368E+03  0.30407146588E+03  0.00000000000E+00 0. -1.
          4    1    3    3  501    0  0.22246080906E+03  0.15223613936E+03  0.75425594824E+03  0.80097858220E+03  0.00000000000E+00 0. -1.
<mgrwt>
<rscale>  0 0.64822850E+03</rscale>
<asrwt>0</asrwt>
<pdfrwt beam="1">0</pdfrwt>
<pdfrwt beam="2">  1        2 0.38200098E+00 0.64822850E+03</pdfrwt>
<totfact> 0.46479294E+00</totfact>
</mgrwt>
</event>
<event>
 5    1  0.2343702E-004  0.6523365E+03  0.7818608E-02  0.9802405E-01
         13   -1    0    0    0    0  0.00000000000E+00  0.00000000000E+00  0.10000000000E+04  0.10000000000E+04  0.00000000000E+00 0. -1.
          2   -1    0    0  501    0 -0.00000000000E+00 -0.00000000000E+00 -0.10638574290E+03  0.10638574290E+03  0.00000000000E+00 0. -1.
    9000006    2    1    2  501    0  0.00000000000E+00  0.00000000000E+00  0.89361425710E+03  0.11063857429E+04  0.65233654781E+03 0.  0.
         13    1    3    3    0    0  0.15588169755E+03  0.55101814649E+01 -0.39030070684E+02  0.16078809703E+03  0.00000000000E+00 0. -1.
          4    1    3    3  501    0 -0.15588169755E+03 -0.55101814649E+01  0.93264432778E+03  0.94559764587E+03  0.00000000000E+00 0. -1.
<mgrwt>
<rscale>  0 0.65233655E+03</rscale>
<asrwt>0</asrwt>
<pdfrwt beam="1">0</pdfrwt>
<pdfrwt beam="2">  1        2 0.38685806E+00 0.65233655E+03</pdfrwt>
<totfact> 0.44579661E+00</totfact>
</mgrwt>
</event>
<event>
 5    1  0.2343702E-004  0.6363791E+03  0.7818608E-02  0.9832679E-01
         13   -1    0    0    0    0  0.00000000000E+00  0.00000000000E+00  0.10000000000E+04  0.10000000000E+04  0.00000000000E+00 0. -1.
          2   -1    0    0  501    0 -0.00000000000E+00 -0.00000000000E+00 -0.10124460472E+03  0.10124460472E+03  0.00000000000E+00 0. -1.
    9000006    2    1    2  501    0  0.00000000000E+00  0.00000000000E+00  0.89875539528E+03  0.11012446047E+04  0.63637914710E+03 0.  0.
         13    1    3    3    0    0 -0.69449135876E+02 -0.91814078780E+02 -0.63942619500E+02  0.13168775997E+03  0.00000000000E+00 0. -1.
          2    1    3    3  501    0  0.69449135876E+02  0.91814078780E+02  0.96269801478E+03  0.96955684475E+03  0.00000000000E+00 0. -1.
<mgrwt>
<rscale>  0 0.63637915E+03</rscale>
<asrwt>0</asrwt>
<pdfrwt beam="1">0</pdfrwt>
<pdfrwt beam="2">  1        2 0.36816298E+00 0.63637915E+03</pdfrwt>
<totfact> 0.52303069E+00</totfact>
</mgrwt>
</event>
<event>
 5    1  0.2343702E-004  0.6618373E+03  0.7818608E-02  0.9784817E-01
         13   -1    0    0    0    0  0.00000000000E+00  0.00000000000E+00  0.10000000000E+04  0.10000000000E+04  0.00000000000E+00 0. -1.
          2   -1    0    0  501    0 -0.00000000000E+00 -0.00000000000E+00 -0.10950716523E+03  0.10950716523E+03  0.00000000000E+00 0. -1.
    9000006    2    1    2  501    0  0.00000000000E+00  0.00000000000E+00  0.89049283477E+03  0.11095071652E+04  0.66183733719E+03 0.  0.
         13    1    3    3    0    0  0.19183144358E+03 -0.76332916555E+02  0.87878794932E+03  0.90271494768E+03  0.00000000000E+00 0. -1.
          2    1    3    3  501    0 -0.19183144358E+03  0.76332916555E+02  0.11704885453E+02  0.20679221755E+03  0.00000000000E+00 0. -1.
<mgrwt>
<rscale>  0 0.66183734E+03</rscale>
<asrwt>0</asrwt>
<pdfrwt beam="1">0</pdfrwt>
<pdfrwt beam="2">  1        2 0.39820871E+00 0.66183734E+03</pdfrwt>
<totfact> 0.40411265E+00</totfact>
</mgrwt>
</event>
<event>
 5    1  0.2343702E-004  0.6479728E+03  0.7818608E-02  0.9810590E-01
         13   -1    0    0    0    0  0.00000000000E+00  0.00000000000E+00  0.10000000000E+04  0.10000000000E+04  0.00000000000E+00 0. -1.
          2   -1    0    0  501    0 -0.00000000000E+00 -0.00000000000E+00 -0.10496720225E+03  0.10496720225E+03  0.00000000000E+00 0. -1.
    9000006    2    1    2  501    0  0.00000000000E+00  0.00000000000E+00  0.89503279775E+03  0.11049672022E+04  0.64797284588E+03 0.  0.
         13    1    3    3    0    0  0.28595891633E+03  0.11374700899E+03  0.27481799352E+03  0.41259642927E+03  0.00000000000E+00 0. -1.
          4    1    3    3  501    0 -0.28595891633E+03 -0.11374700899E+03  0.62021480423E+03  0.69237077298E+03  0.00000000000E+00 0. -1.
<mgrwt>
<rscale>  0 0.64797285E+03</rscale>
<asrwt>0</asrwt>
<pdfrwt beam="1">0</pdfrwt>
<pdfrwt beam="2">  1        2 0.38169972E+00 0.64797285E+03</pdfrwt>
<totfact> 0.46599503E+00</totfact>
</mgrwt>
</event>
<event>
 5    1  0.2343702E-004  0.6462870E+03  0.7818608E-02  0.9813771E-01
         13   -1    0    0    0    0  0.00000000000E+00  0.00000000000E+00  0.10000000000E+04  0.10000000000E+04  0.00000000000E+00 0. -1.
          2   -1    0    0  501    0 -0.00000000000E+00 -0.00000000000E+00 -0.10442173194E+03  0.10442173194E+03  0.00000000000E+00 0. -1.
    9000006    2    1    2  501    0  0.00000000000E+00  0.00000000000E+00  0.89557826806E+03  0.11044217319E+04  0.64628703201E+03 0.  0.
         13    1    3    3    0    0 -0.30351073716E+03 -0.10604196409E+03  0.39220306972E+03  0.50713599125E+03  0.00000000000E+00 0. -1.
          4    1    3    3  501    0  0.30351073716E+03  0.10604196409E+03  0.50337519835E+03  0.59728574069E+03  0.00000000000E+00 0. -1.
<mgrwt>
<rscale>  0 0.64628703E+03</rscale>
<asrwt>0</asrwt>
<pdfrwt beam="1">0</pdfrwt>
<pdfrwt beam="2">  1        2 0.37971619E+00 0.64628703E+03</pdfrwt>
<totfact> 0.47398061E+00</totfact>
</mgrwt>
</event>
<event>
 5    1  0.2343702E-004  0.6355860E+03  0.7818608E-02  0.9834208E-01
         13   -1    0    0    0    0  0.00000000000E+00  0.00000000000E+00  0.10000000000E+04  0.10000000000E+04  0.00000000000E+00 0. -1.
          2   -1    0    0  501    0 -0.00000000000E+00 -0.00000000000E+00 -0.10099240582E+03  0.10099240582E+03  0.00000000000E+00 0. -1.
    9000006    2    1    2  501    0  0.00000000000E+00  0.00000000000E+00  0.89900759418E+03  0.11009924058E+04  0.63558604711E+03 0.  0.
         13    1    3    3    0    0 -0.21254933418E+03  0.20148292759E+03  0.66320879216E+03  0.72499551141E+03  0.00000000000E+00 0. -1.
          2    1    3    3  501    0  0.21254933418E+03 -0.20148292759E+03  0.23579880202E+03  0.37599689441E+03  0.00000000000E+00 0. -1.
<mgrwt>
<rscale>  0 0.63558605E+03</rscale>
<asrwt>0</asrwt>
<pdfrwt beam="1">0</pdfrwt>
<pdfrwt beam="2">  1        2 0.36724589E+00 0.63558605E+03</pdfrwt>
<totfact> 0.52711682E+00</totfact>
</mgrwt>
</event>
<event>
 5    1  0.2343702E-004  0.6509467E+03  0.7818608E-02  0.9805004E-01
         13   -1    0    0    0    0  0.00000000000E+00  0.00000000000E+00  0.10000000000E+04  0.10000000000E+04  0.00000000000E+00 0. -1.
          2   -1    0    0  501    0 -0.00000000000E+00 -0.00000000000E+00 -0.10593289026E+03  0.10593289026E+03  0.00000000000E+00 0. -1.
    9000006    2    1    2  501    0  0.00000000000E+00  0.00000000000E+00  0.89406710974E+03  0.11059328903E+04  0.65094666527E+03 0.  0.
         13    1    3    3    0    0 -0.75623345983E+02 -0.25082671021E+03  0.11890988679E+03  0.28770208583E+03  0.00000000000E+00 0. -1.
          2    1    3    3  501    0  0.75623345983E+02  0.25082671021E+03  0.77515722296E+03  0.81823080443E+03  0.00000000000E+00 0. -1.
<mgrwt>
<rscale>  0 0.65094667E+03</rscale>
<asrwt>0</asrwt>
<pdfrwt beam="1">0</pdfrwt>
<pdfrwt beam="2">  1        2 0.38521132E+00 0.65094667E+03</pdfrwt>
<totfact> 0.45215670E+00</totfact>
</mgrwt>
</event>
<event>
 5    1  0.2343702E-004  0.6508698E+03  0.7818608E-02  0.9805148E-01
         13   -1    0    0    0    0  0.00000000000E+00  0.00000000000E+00  0.10000000000E+04  0.10000000000E+04  0.00000000000E+00 0. -1.
          2   -1    0    0  501    0 -0.00000000000E+00 -0.00000000000E+00 -0.10590788169E+03  0.10590788169E+03  0.00000000000E+00 0. -1.
    9000006    2    1    2  501    0  0.00000000000E+00  0.00000000000E+00  0.89409211831E+03  0.11059078817E+04  0.65086982320E+03 0.  0.
         13    1    3    3    0    0  0.10530637946E+03 -0.30757027802E+03  0.47218918785E+03  0.57328137821E+03  0.00000000000E+00 0. -1.
          2    1    3    3  501    0 -0.10530637946E+03  0.30757027802E+03  0.42190293046E+03  0.53262650348E+03  0.00000000000E+00 0. -1.
<mgrwt>
<rscale>  0 0.65086982E+03</rscale>
<asrwt>0</asrwt>
<pdfrwt beam="1">0</pdfrwt>
<pdfrwt beam="2">  1        2 0.38512038E+00 0.65086982E+03</pdfrwt>
<totfact> 0.45251032E+00</totfact>
</mgrwt>
</event>
<event>
 5    1  0.2343702E-004  0.6507489E+03  0.7818608E-02  0.9805375E-01
         13   -1    0    0    0    0  0.00000000000E+00  0.00000000000E+00  0.10000000000E+04  0.10000000000E+04  0.00000000000E+00 0. -1.
          2   -1    0    0  501    0 -0.00000000000E+00 -0.00000000000E+00 -0.10586853974E+03  0.10586853974E+03  0.00000000000E+00 0. -1.
    9000006    2    1    2  501    0  0.00000000000E+00  0.00000000000E+00  0.89413146026E+03  0.11058685397E+04  0.65074892161E+03 0.  0.
         13    1    3    3    0    0 -0.31591937498E+03  0.66701148693E+02  0.51534701361E+03  0.60814195642E+03  0.00000000000E+00 0. -1.
          2    1    3    3  501    0  0.31591937498E+03 -0.66701148693E+02  0.37878444665E+03  0.49772658332E+03  0.00000000000E+00 0. -1.
<mgrwt>
<rscale>  0 0.65074892E+03</rscale>
<asrwt>0</asrwt>
<pdfrwt beam="1">0</pdfrwt>
<pdfrwt beam="2">  1        2 0.38497732E+00 0.65074892E+03</pdfrwt>
<totfact> 0.45306712E+00</totfact>
</mgrwt>
</event>
<event>
 5    1  0.2343702E-004  0.6497815E+03  0.7818608E-02  0.9807189E-01
         13   -1    0    0    0    0  0.00000000000E+00  0.00000000000E+00  0.10000000000E+04  0.10000000000E+04  0.00000000000E+00 0. -1.
          2   -1    0    0  501    0 -0.00000000000E+00 -0.00000000000E+00 -0.10555400183E+03  0.10555400183E+03  0.00000000000E+00 0. -1.
    9000006    2    1    2  501    0  0.00000000000E+00  0.00000000000E+00  0.89444599817E+03  0.11055540018E+04  0.64978150738E+03 0.  0.
         13    1    3    3    0    0  0.26953574234E+03 -0.18068542855E+03  0.41993322864E+03  0.53069827304E+03  0.00000000000E+00 0. -1.
          2    1    3    3  501    0 -0.26953574234E+03  0.18068542855E+03  0.47451276952E+03  0.57485572880E+03  0.00000000000E+00 0. -1.
<mgrwt>
<rscale>  0 0.64978151E+03</rscale>
<asrwt>0</asrwt>
<pdfrwt beam="1">0</pdfrwt>
<pdfrwt beam="2">  1        2 0.38383354E+00 0.64978151E+03</pdfrwt>
<totfact> 0.45754109E+00</totfact>
</mgrwt>
</event>
<event>
 5    1  0.2343702E-004  0.6439019E+03  0.7818608E-02  0.9818290E-01
         13   -1    0    0    0    0  0.00000000000E+00  0.00000000000E+00  0.10000000000E+04  0.10000000000E+04  0.00000000000E+00 0. -1.
          2   -1    0    0  501    0 -0.00000000000E+00 -0.00000000000E+00 -0.10365241690E+03  0.10365241690E+03  0.00000000000E+00 0. -1.
    9000006    2    1    2  501    0  0.00000000000E+00  0.00000000000E+00  0.89634758310E+03  0.11036524169E+04  0.64390190836E+03 0.  0.
         13    1    3    3    0    0 -0.78920074596E+01 -0.38247310105E+02 -0.99577589756E+02  0.10696184784E+03  0.00000000000E+00 0. -1.
          2    1    3    3  501    0  0.78920074596E+01  0.38247310105E+02  0.99592517286E+03  0.99669056906E+03  0.00000000000E+00 0. -1.
<mgrwt>
<rscale>  0 0.64390191E+03</rscale>
<asrwt>0</asrwt>
<pdfrwt beam="1">0</pdfrwt>
<pdfrwt beam="2">  1        2 0.37691867E+00 0.64390191E+03</pdfrwt>
<totfact> 0.48545508E+00</totfact>
</mgrwt>
</event>
<event>
 5    1  0.2343702E-004  0.6486586E+03  0.7818608E-02  0.9809299E-01
         13   -1    0    0    0    0  0.00000000000E+00  0.00000000000E+00  0.10000000000E+04  0.10000000000E+04  0.00000000000E+00 0. -1.
          2   -1    0    0  501    0 -0.00000000000E+00 -0.00000000000E+00 -0.10518949283E+03  0.10518949283E+03  0.00000000000E+00 0. -1.
    9000006    2    1    2  501    0  0.00000000000E+00  0.00000000000E+00  0.89481050717E+03  0.11051894928E+04  0.64865859381E+03 0.  0.
         13    1    3    3    0    0 -0.11222570416E+03 -0.13504984906E+03  0.91200590473E+03  0.92875607167E+03  0.00000000000E+00 0. -1.
          2    1    3    3  501    0  0.11222570416E+03  0.13504984906E+03 -0.17195397557E+02  0.17643342116E+03  0.00000000000E+00 0. -1.
<mgrwt>
<rscale>  0 0.64865859E+03</rscale>
<asrwt>0</asrwt>
<pdfrwt beam="1">0</pdfrwt>
<pdfrwt beam="2">  1        2 0.38250805E+00 0.64865859E+03</pdfrwt>
<totfact> 0.46277597E+00</totfact>
</mgrwt>
</event>
<event>
 5    1  0.2343702E-004  0.6643474E+03  0.7818608E-02  0.9780224E-01
         13   -1    0    0    0    0  0.00000000000E+00  0.00000000000E+00  0.10000000000E+04  0.10000000000E+04  0.00000000000E+00 0. -1.
          2   -1    0    0  501    0 -0.00000000000E+00 -0.00000000000E+00 -0.11033936529E+03  0.11033936529E+03  0.00000000000E+00 0. -1.
    9000006    2    1    2  501    0  0.00000000000E+00  0.00000000000E+00  0.88966063471E+03  0.11103393653E+04  0.66434739493E+03 0.  0.
         13    1    3    3    0    0  0.11339777435E+03  0.28821745245E+03  0.24419484757E+03  0.39441029234E+03  0.00000000000E+00 0. -1.
          2    1    3    3  501    0 -0.11339777435E+03 -0.28821745245E+03  0.64546578714E+03  0.71592907295E+03  0.00000000000E+00 0. -1.
<mgrwt>
<rscale>  0 0.66434739E+03</rscale>
<asrwt>0</asrwt>
<pdfrwt beam="1">0</pdfrwt>
<pdfrwt beam="2">  1        2 0.40123490E+00 0.66434739E+03</pdfrwt>
<totfact> 0.39360969E+00</totfact>
</mgrwt>
</event>
<event>
 5    1  0.2343702E-004  0.6717850E+03  0.7818608E-02  0.9766739E-01
         13   -1    0    0    0    0  0.00000000000E+00  0.00000000000E+00  0.10000000000E+04  0.10000000000E+04  0.00000000000E+00 0. -1.
          2   -1    0    0  501    0 -0.00000000000E+00 -0.00000000000E+00 -0.11282377329E+03  0.11282377329E+03  0.00000000000E+00 0. -1.
    9000006    2    1    2  501    0  0.00000000000E+00  0.00000000000E+00  0.88717622671E+03  0.11128237733E+04  0.67178500515E+03 0.  0.
         13    1    3    3    0    0 -0.19682694008E+02 -0.21995775748E+03  0.86283750071E+03  0.89064997397E+03  0.00000000000E+00 0. -1.
          2    1    3    3  501    0  0.19682694008E+02  0.21995775748E+03  0.24338726008E+02  0.22217379931E+03  0.00000000000E+00 0. -1.
<mgrwt>
<rscale>  0 0.67178501E+03</rscale>
<asrwt>0</asrwt>
<pdfrwt beam="1">0</pdfrwt>
<pdfrwt beam="2">  1        2 0.41026913E+00 0.67178501E+03</pdfrwt>
<totfact> 0.36369380E+00</totfact>
</mgrwt>
</event>
<event>
 5    1  0.2343702E-004  0.6478367E+03  0.7818608E-02  0.9810847E-01
         13   -1    0    0    0    0  0.00000000000E+00  0.00000000000E+00  0.10000000000E+04  0.10000000000E+04  0.00000000000E+00 0. -1.
          2   -1    0    0  501    0 -0.00000000000E+00 -0.00000000000E+00 -0.10492308287E+03  0.10492308287E+03  0.00000000000E+00 0. -1.
    9000006    2    1    2  501    0  0.00000000000E+00  0.00000000000E+00  0.89507691713E+03  0.11049230829E+04  0.64783665494E+03 0.  0.
         13    1    3    3    0    0 -0.48716451778E+01  0.32378223110E+03  0.43384963897E+03  0.54137249223E+03  0.00000000000E+00 0. -1.
          4    1    3    3  501    0  0.48716451778E+01 -0.32378223110E+03  0.46122727815E+03  0.56355059065E+03  0.00000000000E+00 0. -1.
<mgrwt>
<rscale>  0 0.64783665E+03</rscale>
<asrwt>0</asrwt>
<pdfrwt beam="1">0</pdfrwt>
<pdfrwt beam="2">  1        2 0.38153929E+00 0.64783665E+03</pdfrwt>
<totfact> 0.46663635E+00</totfact>
</mgrwt>
</event>
<event>
 5    1  0.2343702E-004  0.6470612E+03  0.7818608E-02  0.9812309E-01
         13   -1    0    0    0    0  0.00000000000E+00  0.00000000000E+00  0.10000000000E+04  0.10000000000E+04  0.00000000000E+00 0. -1.
          2   -1    0    0  501    0 -0.00000000000E+00 -0.00000000000E+00 -0.10467203832E+03  0.10467203832E+03  0.00000000000E+00 0. -1.
    9000006    2    1    2  501    0  0.00000000000E+00  0.00000000000E+00  0.89532796168E+03  0.11046720383E+04  0.64706116657E+03 0.  0.
         13    1    3    3    0    0  0.28153472843E+03  0.13081422210E+03  0.29214927947E+03  0.42629258205E+03  0.00000000000E+00 0. -1.
          4    1    3    3  501    0 -0.28153472843E+03 -0.13081422210E+03  0.60317868220E+03  0.67837945627E+03  0.00000000000E+00 0. -1.
<mgrwt>
<rscale>  0 0.64706117E+03</rscale>
<asrwt>0</asrwt>
<pdfrwt beam="1">0</pdfrwt>
<pdfrwt beam="2">  1        2 0.38062640E+00 0.64706117E+03</pdfrwt>
<totfact> 0.47030084E+00</totfact>
</mgrwt>
</event>
<event>
 5    1  0.2343702E-004  0.6521788E+03  0.7818608E-02  0.9802699E-01
         13   -1    0    0    0    0  0.00000000000E+00  0.00000000000E+00  0.10000000000E+04  0.10000000000E+04  0.00000000000E+00 0. -1.
          2   -1    0    0  501    0 -0.00000000000E+00 -0.00000000000E+00 -0.10633428410E+03  0.10633428410E+03  0.00000000000E+00 0. -1.
    9000006    2    1    2  501    0  0.00000000000E+00  0.00000000000E+00  0.89366571590E+03  0.11063342841E+04  0.65217876106E+03 0.  0.
         13    1    3    3    0    0 -0.16121503584E+03 -0.28179256722E+03  0.39490781606E+03  0.51122355375E+03  0.00000000000E+00 0. -1.
          4    1    3    3  501    0  0.16121503584E+03  0.28179256722E+03  0.49875789984E+03  0.59511073035E+03  0.00000000000E+00 0. -1.
<mgrwt>
<rscale>  0 0.65217876E+03</rscale>
<asrwt>0</asrwt>
<pdfrwt beam="1">0</pdfrwt>
<pdfrwt beam="2">  1        2 0.38667094E+00 0.65217876E+03</pdfrwt>
<totfact> 0.44651522E+00</totfact>
</mgrwt>
</event>
<event>
 5    1  0.2343702E-004  0.6483140E+03  0.7818608E-02  0.9809948E-01
         13   -1    0    0    0    0  0.00000000000E+00  0.00000000000E+00  0.10000000000E+04  0.10000000000E+04  0.00000000000E+00 0. -1.
          2   -1    0    0  501    0 -0.00000000000E+00 -0.00000000000E+00 -0.10507775333E+03  0.10507775333E+03  0.00000000000E+00 0. -1.
    9000006    2    1    2  501    0  0.00000000000E+00  0.00000000000E+00  0.89492224667E+03  0.11050777533E+04  0.64831397741E+03 0.  0.
         13    1    3    3    0    0  0.28953831129E+03  0.12903679976E+03  0.56300365738E+03  0.64610838690E+03  0.00000000000E+00 0. -1.
          2    1    3    3  501    0 -0.28953831129E+03 -0.12903679976E+03  0.33191858930E+03  0.45896936643E+03  0.00000000000E+00 0. -1.
<mgrwt>
<rscale>  0 0.64831398E+03</rscale>
<asrwt>0</asrwt>
<pdfrwt beam="1">0</pdfrwt>
<pdfrwt beam="2">  1        2 0.38210173E+00 0.64831398E+03</pdfrwt>
<totfact> 0.46439157E+00</totfact>
</mgrwt>
</event>
<event>
 5    1  0.2343702E-004  0.6509114E+03  0.7818608E-02  0.9805070E-01
         13   -1    0    0    0    0  0.00000000000E+00  0.00000000000E+00  0.10000000000E+04  0.10000000000E+04  0.00000000000E+00 0. -1.
          2   -1    0    0  501    0 -0.00000000000E+00 -0.00000000000E+00 -0.10592142869E+03  0.10592142869E+03  0.00000000000E+00 0. -1.
    9000006    2    1    2  501    0  0.00000000000E+00  0.00000000000E+00  0.89407857131E+03  0.11059214287E+04  0.65091144925E+03 0.  0.
         13    1    3    3    0    0  0.34384900494E+00 -0.96153791636E+02  0.97531562199E+03  0.98004399512E+03  0.00000000000E+00 0. -1.
          2    1    3    3  501    0 -0.34384900494E+00  0.96153791636E+02 -0.81237050683E+02  0.12587743357E+03  0.00000000000E+00 0. -1.
<mgrwt>
<rscale>  0 0.65091145E+03</rscale>
<asrwt>0</asrwt>
<pdfrwt beam="1">0</pdfrwt>
<pdfrwt beam="2">  1        2 0.38516964E+00 0.65091145E+03</pdfrwt>
<totfact> 0.45231874E+00</totfact>
</mgrwt>
</event>
<event>
 5    1  0.2343702E-004  0.5675746E+03  0.7818608E-02  0.9975060E-01
         13   -1    0    0    0    0  0.00000000000E+00  0.00000000000E+00  0.10000000000E+04  0.10000000000E+04  0.00000000000E+00 0. -1.
          2   -1    0    0  501    0 -0.00000000000E+00 -0.00000000000E+00 -0.80535220755E+02  0.80535220755E+02  0.00000000000E+00 0. -1.
    9000006    2    1    2  501    0  0.00000000000E+00  0.00000000000E+00  0.91946477925E+03  0.10805352208E+04  0.56757456164E+03 0.  0.
         13    1    3    3    0    0 -0.19175262755E+03 -0.11412294187E+03  0.12593510151E+03  0.25622795676E+03  0.00000000000E+00 0. -1.
          2    1    3    3  501    0  0.19175262755E+03  0.11412294187E+03  0.79352967773E+03  0.82430726400E+03  0.00000000000E+00 0. -1.
<mgrwt>
<rscale>  0 0.56757456E+03</rscale>
<asrwt>0</asrwt>
<pdfrwt beam="1">0</pdfrwt>
<pdfrwt beam="2">  1        2 0.29285597E+00 0.56757456E+03</pdfrwt>
<totfact> 0.97921697E+00</totfact>
</mgrwt>
</event>
<event>
 5    1  0.2343702E-004  0.6468466E+03  0.7818608E-02  0.9812714E-01
         13   -1    0    0    0    0  0.00000000000E+00  0.00000000000E+00  0.10000000000E+04  0.10000000000E+04  0.00000000000E+00 0. -1.
          2   -1    0    0  501    0 -0.00000000000E+00 -0.00000000000E+00 -0.10460261644E+03  0.10460261644E+03  0.00000000000E+00 0. -1.
    9000006    2    1    2  501    0  0.00000000000E+00  0.00000000000E+00  0.89539738356E+03  0.11046026164E+04  0.64684655503E+03 0.  0.
         13    1    3    3    0    0 -0.32111855359E+03  0.95195485778E+01  0.51147678579E+03  0.60400020668E+03  0.00000000000E+00 0. -1.
          2    1    3    3  501    0  0.32111855359E+03 -0.95195485778E+01  0.38392059777E+03  0.50060240976E+03  0.00000000000E+00 0. -1.
<mgrwt>
<rscale>  0 0.64684656E+03</rscale>
<asrwt>0</asrwt>
<pdfrwt beam="1">0</pdfrwt>
<pdfrwt beam="2">  1        2 0.38037395E+00 0.64684656E+03</pdfrwt>
<totfact> 0.47131880E+00</totfact>
</mgrwt>
</event>
<event>
 5    1  0.2343702E-004  0.5983136E+03  0.7818608E-02  0.9908911E-01
         13   -1    0    0    0    0  0.00000000000E+00  0.00000000000E+00  0.10000000000E+04  0.10000000000E+04  0.00000000000E+00 0. -1.
          2   -1    0    0  501    0 -0.00000000000E+00 -0.00000000000E+00 -0.89494793871E+02  0.89494793871E+02  0.00000000000E+00 0. -1.
    9000006    2    1    2  501    0  0.00000000000E+00  0.00000000000E+00  0.91050520613E+03  0.10894947939E+04  0.59831360964E+03 0.  0.
         13    1    3    3    0    0 -0.16462612659E+03 -0.14075002952E+03  0.79491641217E+02  0.23071899226E+03  0.00000000000E+00 0. -1.
          4    1    3    3  501    0  0.16462612659E+03  0.14075002952E+03  0.83101356491E+03  0.85877580161E+03  0.00000000000E+00 0. -1.
<mgrwt>
<rscale>  0 0.59831361E+03</rscale>
<asrwt>0</asrwt>
<pdfrwt beam="1">0</pdfrwt>
<pdfrwt beam="2">  1        2 0.32543630E+00 0.59831361E+03</pdfrwt>
<totfact> 0.74824723E+00</totfact>
</mgrwt>
</event>
<event>
 5    1  0.2343702E-004  0.6666145E+03  0.7818608E-02  0.9776093E-01
         13   -1    0    0    0    0  0.00000000000E+00  0.00000000000E+00  0.10000000000E+04  0.10000000000E+04  0.00000000000E+00 0. -1.
          2   -1    0    0  501    0 -0.00000000000E+00 -0.00000000000E+00 -0.11109371556E+03  0.11109371556E+03  0.00000000000E+00 0. -1.
    9000006    2    1    2  501    0  0.00000000000E+00  0.00000000000E+00  0.88890628444E+03  0.11110937156E+04  0.66661447798E+03 0.  0.
         13    1    3    3    0    0 -0.22585845655E+03  0.64999633287E+02  0.50528029876E+02  0.24039566661E+03  0.00000000000E+00 0. -1.
          4    1    3    3  501    0  0.22585845655E+03 -0.64999633287E+02  0.83837825456E+03  0.87069804895E+03  0.00000000000E+00 0. -1.
<mgrwt>
<rscale>  0 0.66661448E+03</rscale>
<asrwt>0</asrwt>
<pdfrwt beam="1">0</pdfrwt>
<pdfrwt beam="2">  1        2 0.40397800E+00 0.66661448E+03</pdfrwt>
<totfact> 0.38430158E+00</totfact>
</mgrwt>
</event>
<event>
 5    1  0.2343702E-004  0.6632371E+03  0.7818608E-02  0.9782253E-01
         13   -1    0    0    0    0  0.00000000000E+00  0.00000000000E+00  0.10000000000E+04  0.10000000000E+04  0.00000000000E+00 0. -1.
          2   -1    0    0  501    0 -0.00000000000E+00 -0.00000000000E+00 -0.10997086353E+03  0.10997086353E+03  0.00000000000E+00 0. -1.
    9000006    2    1    2  501    0  0.00000000000E+00  0.00000000000E+00  0.89002913647E+03  0.11099708635E+04  0.66323710250E+03 0.  0.
         13    1    3    3    0    0 -0.10845538724E+03  0.49946347865E+02 -0.72746886213E+02  0.13981887620E+03  0.00000000000E+00 0. -1.
          2    1    3    3  501    0  0.10845538724E+03 -0.49946347865E+02  0.96277602268E+03  0.97015198734E+03  0.00000000000E+00 0. -1.
<mgrwt>
<rscale>  0 0.66323710E+03</rscale>
<asrwt>0</asrwt>
<pdfrwt beam="1">0</pdfrwt>
<pdfrwt beam="2">  1        2 0.39989489E+00 0.66323710E+03</pdfrwt>
<totfact> 0.39822982E+00</totfact>
</mgrwt>
</event>
<event>
 5    1  0.2343702E-004  0.6453880E+03  0.7818608E-02  0.9815472E-01
         13   -1    0    0    0    0  0.00000000000E+00  0.00000000000E+00  0.10000000000E+04  0.10000000000E+04  0.00000000000E+00 0. -1.
          2   -1    0    0  501    0 -0.00000000000E+00 -0.00000000000E+00 -0.10413141580E+03  0.10413141580E+03  0.00000000000E+00 0. -1.
    9000006    2    1    2  501    0  0.00000000000E+00  0.00000000000E+00  0.89586858420E+03  0.11041314158E+04  0.64538799431E+03 0.  0.
         13    1    3    3    0    0 -0.22141670772E+03 -0.86991065291E+02  0.82094657505E+03  0.85471988569E+03  0.00000000000E+00 0. -1.
          2    1    3    3  501    0  0.22141670772E+03  0.86991065291E+02  0.74922009147E+02  0.24941153011E+03  0.00000000000E+00 0. -1.
<mgrwt>
<rscale>  0 0.64538799E+03</rscale>
<asrwt>0</asrwt>
<pdfrwt beam="1">0</pdfrwt>
<pdfrwt beam="2">  1        2 0.37866049E+00 0.64538799E+03</pdfrwt>
<totfact> 0.47828137E+00</totfact>
</mgrwt>
</event>
<event>
 5    1  0.2343702E-004  0.6394155E+03  0.7818608E-02  0.9826846E-01
         13   -1    0    0    0    0  0.00000000000E+00  0.00000000000E+00  0.10000000000E+04  0.10000000000E+04  0.00000000000E+00 0. -1.
          2   -1    0    0  501    0 -0.00000000000E+00 -0.00000000000E+00 -0.10221303531E+03  0.10221303531E+03  0.00000000000E+00 0. -1.
    9000006    2    1    2  501    0  0.00000000000E+00  0.00000000000E+00  0.89778696469E+03  0.11022130353E+04  0.63941546841E+03 0.  0.
         13    1    3    3    0    0  0.24229759570E+03 -0.18331569500E+03  0.62040995832E+03  0.69081204773E+03  0.00000000000E+00 0. -1.
          2    1    3    3  501    0 -0.24229759570E+03  0.18331569500E+03  0.27737700637E+03  0.41140098758E+03  0.00000000000E+00 0. -1.
<mgrwt>
<rscale>  0 0.63941547E+03</rscale>
<asrwt>0</asrwt>
<pdfrwt beam="1">0</pdfrwt>
<pdfrwt beam="2">  1        2 0.37168455E+00 0.63941547E+03</pdfrwt>
<totfact> 0.50760864E+00</totfact>
</mgrwt>
</event>
<event>
 5    1  0.2343702E-004  0.6501370E+03  0.7818608E-02  0.9806522E-01
         13   -1    0    0    0    0  0.00000000000E+00  0.00000000000E+00  0.10000000000E+04  0.10000000000E+04  0.00000000000E+00 0. -1.
          2   -1    0    0  501    0 -0.00000000000E+00 -0.00000000000E+00 -0.10566952188E+03  0.10566952188E+03  0.00000000000E+00 0. -1.
    9000006    2    1    2  501    0  0.00000000000E+00  0.00000000000E+00  0.89433047812E+03  0.11056695219E+04  0.65013697597E+03 0.  0.
         13    1    3    3    0    0  0.26272858952E+03  0.17529063418E+03  0.57797777695E+03  0.65864362809E+03  0.00000000000E+00 0. -1.
          4    1    3    3  501    0 -0.26272858952E+03 -0.17529063418E+03  0.31635270117E+03  0.44702589379E+03  0.00000000000E+00 0. -1.
<mgrwt>
<rscale>  0 0.65013698E+03</rscale>
<asrwt>0</asrwt>
<pdfrwt beam="1">0</pdfrwt>
<pdfrwt beam="2">  1        2 0.38425362E+00 0.65013698E+03</pdfrwt>
<totfact> 0.45589330E+00</totfact>
</mgrwt>
</event>
<event>
 5    1  0.2343702E-004  0.6293961E+03  0.7818608E-02  0.9846228E-01
         13   -1    0    0    0    0  0.00000000000E+00  0.00000000000E+00  0.10000000000E+04  0.10000000000E+04  0.00000000000E+00 0. -1.
          2   -1    0    0  501    0 -0.00000000000E+00 -0.00000000000E+00 -0.99034855500E+02  0.99034855500E+02  0.00000000000E+00 0. -1.
    9000006    2    1    2  501    0  0.00000000000E+00  0.00000000000E+00  0.90096514450E+03  0.10990348555E+04  0.62939607721E+03 0.  0.
         13    1    3    3    0    0 -0.89584644573E+02 -0.30074542075E+03  0.40910014053E+03  0.51559299998E+03  0.00000000000E+00 0. -1.
          4    1    3    3  501    0  0.89584644573E+02  0.30074542075E+03  0.49186500397E+03  0.58344185552E+03  0.00000000000E+00 0. -1.
<mgrwt>
<rscale>  0 0.62939608E+03</rscale>
<asrwt>0</asrwt>
<pdfrwt beam="1">0</pdfrwt>
<pdfrwt beam="2">  1        2 0.36012751E+00 0.62939608E+03</pdfrwt>
<totfact> 0.55984600E+00</totfact>
</mgrwt>
</event>
<event>
 5    1  0.2343702E-004  0.6462837E+03  0.7818608E-02  0.9813778E-01
         13   -1    0    0    0    0  0.00000000000E+00  0.00000000000E+00  0.10000000000E+04  0.10000000000E+04  0.00000000000E+00 0. -1.
          2   -1    0    0  501    0 -0.00000000000E+00 -0.00000000000E+00 -0.10442066842E+03  0.10442066842E+03  0.00000000000E+00 0. -1.
    9000006    2    1    2  501    0  0.00000000000E+00  0.00000000000E+00  0.89557933158E+03  0.11044206684E+04  0.64628374085E+03 0.  0.
         13    1    3    3    0    0  0.40399849126E+02  0.18837750666E+03  0.89111922187E+03  0.91170812237E+03  0.00000000000E+00 0. -1.
          2    1    3    3  501    0 -0.40399849126E+02 -0.18837750666E+03  0.44601097133E+01  0.19271254605E+03  0.00000000000E+00 0. -1.
<mgrwt>
<rscale>  0 0.64628374E+03</rscale>
<asrwt>0</asrwt>
<pdfrwt beam="1">0</pdfrwt>
<pdfrwt beam="2">  1        2 0.37971232E+00 0.64628374E+03</pdfrwt>
<totfact> 0.47399630E+00</totfact>
</mgrwt>
</event>
<event>
 5    1  0.2343702E-004  0.6936220E+03  0.7818608E-02  0.9728202E-01
         13   -1    0    0    0    0  0.00000000000E+00  0.00000000000E+00  0.10000000000E+04  0.10000000000E+04  0.00000000000E+00 0. -1.
          2   -1    0    0  501    0 -0.00000000000E+00 -0.00000000000E+00 -0.12027787798E+03  0.12027787798E+03  0.00000000000E+00 0. -1.
    9000006    2    1    2  501    0  0.00000000000E+00  0.00000000000E+00  0.87972212202E+03  0.11202778780E+04  0.69362202381E+03 0.  0.
         13    1    3    3    0    0  0.31136066421E+03  0.61933601374E+02  0.21434222869E+03  0.38304546100E+03  0.00000000000E+00 0. -1.
          2    1    3    3  501    0 -0.31136066421E+03 -0.61933601374E+02  0.66537989333E+03  0.73723241697E+03  0.00000000000E+00 0. -1.
<mgrwt>
<rscale>  0 0.69362202E+03</rscale>
<asrwt>0</asrwt>
<pdfrwt beam="1">0</pdfrwt>
<pdfrwt beam="2">  1        2 0.43737502E+00 0.69362202E+03</pdfrwt>
<totfact> 0.28569425E+00</totfact>
</mgrwt>
</event>
<event>
 5    1  0.2343702E-004  0.6549900E+03  0.7818608E-02  0.9797461E-01
         13   -1    0    0    0    0  0.00000000000E+00  0.00000000000E+00  0.10000000000E+04  0.10000000000E+04  0.00000000000E+00 0. -1.
          2   -1    0    0  501    0 -0.00000000000E+00 -0.00000000000E+00 -0.10725296872E+03  0.10725296872E+03  0.00000000000E+00 0. -1.
    9000006    2    1    2  501    0  0.00000000000E+00  0.00000000000E+00  0.89274703128E+03  0.11072529687E+04  0.65498998075E+03 0.  0.
         13    1    3    3    0    0  0.18900731108E+03 -0.22434318753E+03  0.20023852391E+03  0.35517473994E+03  0.00000000000E+00 0. -1.
          2    1    3    3  501    0 -0.18900731108E+03  0.22434318753E+03  0.69250850737E+03  0.75207822878E+03  0.00000000000E+00 0. -1.
<mgrwt>
<rscale>  0 0.65498998E+03</rscale>
<asrwt>0</asrwt>
<pdfrwt beam="1">0</pdfrwt>
<pdfrwt beam="2">  1        2 0.39001162E+00 0.65498998E+03</pdfrwt>
<totfact> 0.43384242E+00</totfact>
</mgrwt>
</event>
<event>
 5    1  0.2343702E-004  0.6429163E+03  0.7818608E-02  0.9820163E-01
         13   -1    0    0    0    0  0.00000000000E+00  0.00000000000E+00  0.10000000000E+04  0.10000000000E+04  0.00000000000E+00 0. -1.
          2   -1    0    0  501    0 -0.00000000000E+00 -0.00000000000E+00 -0.10333533371E+03  0.10333533371E+03  0.00000000000E+00 0. -1.
    9000006    2    1    2  501    0  0.00000000000E+00  0.00000000000E+00  0.89666466629E+03  0.11033353337E+04  0.64291627360E+03 0.  0.
         13    1    3    3    0    0  0.22663785559E+03 -0.21626418205E+03  0.57209005452E+03  0.65224377690E+03  0.00000000000E+00 0. -1.
          2    1    3    3  501    0 -0.22663785559E+03  0.21626418205E+03  0.32457461177E+03  0.45109155681E+03  0.00000000000E+00 0. -1.
<mgrwt>
<rscale>  0 0.64291627E+03</rscale>
<asrwt>0</asrwt>
<pdfrwt beam="1">0</pdfrwt>
<pdfrwt beam="2">  1        2 0.37576564E+00 0.64291627E+03</pdfrwt>
<totfact> 0.49025771E+00</totfact>
</mgrwt>
</event>
<event>
 5    1  0.2343702E-004  0.6288318E+03  0.7818608E-02  0.9847331E-01
         13   -1    0    0    0    0  0.00000000000E+00  0.00000000000E+00  0.10000000000E+04  0.10000000000E+04  0.00000000000E+00 0. -1.
          2   -1    0    0  501    0 -0.00000000000E+00 -0.00000000000E+00 -0.98857365288E+02  0.98857365288E+02  0.00000000000E+00 0. -1.
    9000006    2    1    2  501    0  0.00000000000E+00  0.00000000000E+00  0.90114263471E+03  0.10988573653E+04  0.62883182263E+03 0.  0.
         13    1    3    3    0    0 -0.25407682640E+03  0.18326292585E+03  0.49736378557E+03  0.58780189597E+03  0.00000000000E+00 0. -1.
          2    1    3    3  501    0  0.25407682640E+03 -0.18326292585E+03  0.40377884914E+03  0.51105546932E+03  0.00000000000E+00 0. -1.
<mgrwt>
<rscale>  0 0.62883182E+03</rscale>
<asrwt>0</asrwt>
<pdfrwt beam="1">0</pdfrwt>
<pdfrwt beam="2">  1        2 0.35948209E+00 0.62883182E+03</pdfrwt>
<totfact> 0.56290433E+00</totfact>
</mgrwt>
</event>
<event>
 5    1  0.2343702E-004  0.6522758E+03  0.7818608E-02  0.9802518E-01
         13   -1    0    0    0    0  0.00000000000E+00  0.00000000000E+00  0.10000000000E+04  0.10000000000E+04  0.00000000000E+00 0. -1.
          2   -1    0    0  501    0 -0.00000000000E+00 -0.00000000000E+00 -0.10636592909E+03  0.10636592909E+03  0.00000000000E+00 0. -1.
    9000006    2    1    2  501    0  0.00000000000E+00  0.00000000000E+00  0.89363407091E+03  0.11063659291E+04  0.65227579776E+03 0.  0.
         13    1    3    3    0    0  0.30501261342E+03 -0.41754285421E+02  0.26421493502E+03  0.40569156583E+03  0.00000000000E+00 0. -1.
          4    1    3    3  501    0 -0.30501261342E+03  0.41754285421E+02  0.62941913590E+03  0.70067436326E+03  0.00000000000E+00 0. -1.
<mgrwt>
<rscale>  0 0.65227580E+03</rscale>
<asrwt>0</asrwt>
<pdfrwt beam="1">0</pdfrwt>
<pdfrwt beam="2">  1        2 0.38678601E+00 0.65227580E+03</pdfrwt>
<totfact> 0.44607318E+00</totfact>
</mgrwt>
</event>
<event>
 5    1  0.2343702E-004  0.6448713E+03  0.7818608E-02  0.9816451E-01
         13   -1    0    0    0    0  0.00000000000E+00  0.00000000000E+00  0.10000000000E+04  0.10000000000E+04  0.00000000000E+00 0. -1.
          2   -1    0    0  501    0 -0.00000000000E+00 -0.00000000000E+00 -0.10396474136E+03  0.10396474136E+03  0.00000000000E+00 0. -1.
    9000006    2    1    2  501    0  0.00000000000E+00  0.00000000000E+00  0.89603525864E+03  0.11039647414E+04  0.64487127820E+03 0.  0.
         13    1    3    3    0    0 -0.31311674808E+03 -0.53431942622E+02  0.54283470461E+03  0.62894084535E+03  0.00000000000E+00 0. -1.
          2    1    3    3  501    0  0.31311674808E+03  0.53431942622E+02  0.35320055403E+03  0.47502389602E+03  0.00000000000E+00 0. -1.
<mgrwt>
<rscale>  0 0.64487128E+03</rscale>
<asrwt>0</asrwt>
<pdfrwt beam="1">0</pdfrwt>
<pdfrwt beam="2">  1        2 0.37805440E+00 0.64487128E+03</pdfrwt>
<totfact> 0.48076653E+00</totfact>
</mgrwt>
</event>
<event>
 5    1  0.2343702E-004  0.6529336E+03  0.7818608E-02  0.9801290E-01
         13   -1    0    0    0    0  0.00000000000E+00  0.00000000000E+00  0.10000000000E+04  0.10000000000E+04  0.00000000000E+00 0. -1.
          2   -1    0    0  501    0 -0.00000000000E+00 -0.00000000000E+00 -0.10658058371E+03  0.10658058371E+03  0.00000000000E+00 0. -1.
    9000006    2    1    2  501    0  0.00000000000E+00  0.00000000000E+00  0.89341941629E+03  0.11065805837E+04  0.65293363739E+03 0.  0.
         13    1    3    3    0    0 -0.87784577678E+02 -0.23973998237E+03  0.79154359536E+03  0.83169865611E+03  0.00000000000E+00 0. -1.
          2    1    3    3  501    0  0.87784577678E+02  0.23973998237E+03  0.10187582093E+03  0.27488192759E+03  0.00000000000E+00 0. -1.
<mgrwt>
<rscale>  0 0.65293364E+03</rscale>
<asrwt>0</asrwt>
<pdfrwt beam="1">0</pdfrwt>
<pdfrwt beam="2">  1        2 0.38756658E+00 0.65293364E+03</pdfrwt>
<totfact> 0.44308519E+00</totfact>
</mgrwt>
</event>
<event>
 5    1  0.2343702E-004  0.6553105E+03  0.7818608E-02  0.9796865E-01
         13   -1    0    0    0    0  0.00000000000E+00  0.00000000000E+00  0.10000000000E+04  0.10000000000E+04  0.00000000000E+00 0. -1.
          2   -1    0    0  501    0 -0.00000000000E+00 -0.00000000000E+00 -0.10735795051E+03  0.10735795051E+03  0.00000000000E+00 0. -1.
    9000006    2    1    2  501    0  0.00000000000E+00  0.00000000000E+00  0.89264204949E+03  0.11073579505E+04  0.65531046234E+03 0.  0.
         13    1    3    3    0    0 -0.94165334312E+02  0.22869516634E+03  0.80949264573E+03  0.84643188314E+03  0.00000000000E+00 0. -1.
          2    1    3    3  501    0  0.94165334312E+02 -0.22869516634E+03  0.83149403752E+02  0.26092606738E+03  0.00000000000E+00 0. -1.
<mgrwt>
<rscale>  0 0.65531046E+03</rscale>
<asrwt>0</asrwt>
<pdfrwt beam="1">0</pdfrwt>
<pdfrwt beam="2">  1        2 0.39039337E+00 0.65531046E+03</pdfrwt>
<totfact> 0.43241516E+00</totfact>
</mgrwt>
</event>
<event>
 5    1  0.2343702E-004  0.6651976E+03  0.7818608E-02  0.9778673E-01
         13   -1    0    0    0    0  0.00000000000E+00  0.00000000000E+00  0.10000000000E+04  0.10000000000E+04  0.00000000000E+00 0. -1.
          2   -1    0    0  501    0 -0.00000000000E+00 -0.00000000000E+00 -0.11062196702E+03  0.11062196702E+03  0.00000000000E+00 0. -1.
    9000006    2    1    2  501    0  0.00000000000E+00  0.00000000000E+00  0.88937803298E+03  0.11106219670E+04  0.66519761582E+03 0.  0.
         13    1    3    3    0    0  0.15906420149E+03  0.20040276509E+03  0.89884554478E+02  0.27118613826E+03  0.00000000000E+00 0. -1.
          2    1    3    3  501    0 -0.15906420149E+03 -0.20040276509E+03  0.79949347850E+03  0.83943582876E+03  0.00000000000E+00 0. -1.
<mgrwt>
<rscale>  0 0.66519762E+03</rscale>
<asrwt>0</asrwt>
<pdfrwt beam="1">0</pdfrwt>
<pdfrwt beam="2">  1        2 0.40226255E+00 0.66519762E+03</pdfrwt>
<totfact> 0.39009919E+00</totfact>
</mgrwt>
</event>
<event>
 5    1  0.2343702E-004  0.6416341E+03  0.7818608E-02  0.9822605E-01
         13   -1    0    0    0    0  0.00000000000E+00  0.00000000000E+00  0.10000000000E+04  0.10000000000E+04  0.00000000000E+00 0. -1.
          2   -1    0    0  501    0 -0.00000000000E+00 -0.00000000000E+00 -0.10292356366E+03  0.10292356366E+03  0.00000000000E+00 0. -1.
    9000006    2    1    2  501    0  0.00000000000E+00  0.00000000000E+00  0.89707643634E+03  0.11029235637E+04  0.64163405041E+03 0.  0.
         13    1    3    3    0    0  0.13404693317E+02 -0.24031861501E+03  0.83935360181E+02  0.25490756602E+03  0.00000000000E+00 0. -1.
          4    1    3    3  501    0 -0.13404693317E+02  0.24031861501E+03  0.81314107616E+03  0.84801599764E+03  0.00000000000E+00 0. -1.
<mgrwt>
<rscale>  0 0.64163405E+03</rscale>
<asrwt>0</asrwt>
<pdfrwt beam="1">0</pdfrwt>
<pdfrwt beam="2">  1        2 0.37426829E+00 0.64163405E+03</pdfrwt>
<totfact> 0.49655970E+00</totfact>
</mgrwt>
</event>
<event>
 5    1  0.2343702E-004  0.5960032E+03  0.7818608E-02  0.9913733E-01
         13   -1    0    0    0    0  0.00000000000E+00  0.00000000000E+00  0.10000000000E+04  0.10000000000E+04  0.00000000000E+00 0. -1.
          2   -1    0    0  501    0 -0.00000000000E+00 -0.00000000000E+00 -0.88804951256E+02  0.88804951256E+02  0.00000000000E+00 0. -1.
    9000006    2    1    2  501    0  0.00000000000E+00  0.00000000000E+00  0.91119504874E+03  0.10888049513E+04  0.59600319213E+03 0.  0.
         13    1    3    3    0    0 -0.73178636093E+02 -0.21519520397E+03  0.10352876107E+03  0.24976447498E+03  0.00000000000E+00 0. -1.
          4    1    3    3  501    0  0.73178636093E+02  0.21519520397E+03  0.80766628767E+03  0.83904047628E+03  0.00000000000E+00 0. -1.
<mgrwt>
<rscale>  0 0.59600319E+03</rscale>
<asrwt>0</asrwt>
<pdfrwt beam="1">0</pdfrwt>
<pdfrwt beam="2">  1        2 0.32292778E+00 0.59600319E+03</pdfrwt>
<totfact> 0.76396903E+00</totfact>
</mgrwt>
</event>
<event>
 5    1  0.2343702E-004  0.6571491E+03  0.7818608E-02  0.9793456E-01
         13   -1    0    0    0    0  0.00000000000E+00  0.00000000000E+00  0.10000000000E+04  0.10000000000E+04  0.00000000000E+00 0. -1.
          2   -1    0    0  501    0 -0.00000000000E+00 -0.00000000000E+00 -0.10796122512E+03  0.10796122512E+03  0.00000000000E+00 0. -1.
    9000006    2    1    2  501    0  0.00000000000E+00  0.00000000000E+00  0.89203877488E+03  0.11079612251E+04  0.65714907022E+03 0.  0.
         13    1    3    3    0    0  0.44572774958E+02 -0.19420349128E+03  0.55231477877E+01  0.19932945957E+03  0.00000000000E+00 0. -1.
          4    1    3    3  501    0 -0.44572774958E+02  0.19420349128E+03  0.88651562709E+03  0.90863176555E+03  0.00000000000E+00 0. -1.
<mgrwt>
<rscale>  0 0.65714907E+03</rscale>
<asrwt>0</asrwt>
<pdfrwt beam="1">0</pdfrwt>
<pdfrwt beam="2">  1        2 0.39258710E+00 0.65714907E+03</pdfrwt>
<totfact> 0.42429532E+00</totfact>
</mgrwt>
</event>
<event>
 5    1  0.2343702E-004  0.6458254E+03  0.7818608E-02  0.9814644E-01
         13   -1    0    0    0    0  0.00000000000E+00  0.00000000000E+00  0.10000000000E+04  0.10000000000E+04  0.00000000000E+00 0. -1.
          2   -1    0    0  501    0 -0.00000000000E+00 -0.00000000000E+00 -0.10427260332E+03  0.10427260332E+03  0.00000000000E+00 0. -1.
    9000006    2    1    2  501    0  0.00000000000E+00  0.00000000000E+00  0.89572739668E+03  0.11042726033E+04  0.64582537369E+03 0.  0.
         13    1    3    3    0    0  0.39105285393E+02  0.25179036324E+03  0.10870268074E+03  0.27702686362E+03  0.00000000000E+00 0. -1.
          4    1    3    3  501    0 -0.39105285393E+02 -0.25179036324E+03  0.78702471593E+03  0.82724573970E+03  0.00000000000E+00 0. -1.
<mgrwt>
<rscale>  0 0.64582537E+03</rscale>
<asrwt>0</asrwt>
<pdfrwt beam="1">0</pdfrwt>
<pdfrwt beam="2">  1        2 0.37917390E+00 0.64582537E+03</pdfrwt>
<totfact> 0.47618539E+00</totfact>
</mgrwt>
</event>
<event>
 5    1  0.2343702E-004  0.6531265E+03  0.7818608E-02  0.9800930E-01
         13   -1    0    0    0    0  0.00000000000E+00  0.00000000000E+00  0.10000000000E+04  0.10000000000E+04  0.00000000000E+00 0. -1.
          2   -1    0    0  501    0 -0.00000000000E+00 -0.00000000000E+00 -0.10664354664E+03  0.10664354664E+03  0.00000000000E+00 0. -1.
    9000006    2    1    2  501    0  0.00000000000E+00  0.00000000000E+00  0.89335645336E+03  0.11066435466E+04  0.65312647056E+03 0.  0.
         13    1    3    3    0    0  0.25127598473E+03 -0.97940625708E+02  0.75869960740E+03  0.80520623503E+03  0.00000000000E+00 0. -1.
          2    1    3    3  501    0 -0.25127598473E+03  0.97940625708E+02  0.13465684597E+03  0.30143731161E+03  0.00000000000E+00 0. -1.
<mgrwt>
<rscale>  0 0.65312647E+03</rscale>
<asrwt>0</asrwt>
<pdfrwt beam="1">0</pdfrwt>
<pdfrwt beam="2">  1        2 0.38779553E+00 0.65312647E+03</pdfrwt>
<totfact> 0.44221219E+00</totfact>
</mgrwt>
</event>
<event>
 5    1  0.2343702E-004  0.6354215E+03  0.7818608E-02  0.9834526E-01
         13   -1    0    0    0    0  0.00000000000E+00  0.00000000000E+00  0.10000000000E+04  0.10000000000E+04  0.00000000000E+00 0. -1.
          2   -1    0    0  501    0 -0.00000000000E+00 -0.00000000000E+00 -0.10094012025E+03  0.10094012025E+03  0.00000000000E+00 0. -1.
    9000006    2    1    2  501    0  0.00000000000E+00  0.00000000000E+00  0.89905987975E+03  0.11009401203E+04  0.63542149871E+03 0.  0.
         13    1    3    3    0    0 -0.19290055202E+03  0.25210013807E+03  0.42660845535E+03  0.53175170593E+03  0.00000000000E+00 0. -1.
          4    1    3    3  501    0  0.19290055202E+03 -0.25210013807E+03  0.47245142439E+03  0.56918841432E+03  0.00000000000E+00 0. -1.
<mgrwt>
<rscale>  0 0.63542150E+03</rscale>
<asrwt>0</asrwt>
<pdfrwt beam="1">0</pdfrwt>
<pdfrwt beam="2">  1        2 0.36705576E+00 0.63542150E+03</pdfrwt>
<totfact> 0.52796762E+00</totfact>
</mgrwt>
</event>
<event>
 5    1  0.2343702E-004  0.6105951E+03  0.7818608E-02  0.9883665E-01
         13   -1    0    0    0    0  0.00000000000E+00  0.00000000000E+00  0.10000000000E+04  0.10000000000E+04  0.00000000000E+00 0. -1.
          2   -1    0    0  501    0 -0.00000000000E+00 -0.00000000000E+00 -0.93206585620E+02  0.93206585620E+02  0.00000000000E+00 0. -1.
    9000006    2    1    2  501    0  0.00000000000E+00  0.00000000000E+00  0.90679341438E+03  0.10932065856E+04  0.61059507243E+03 0.  0.
         13    1    3    3    0    0  0.12473396826E+03 -0.11976292348E+03  0.90386838117E+03  0.92026070826E+03  0.00000000000E+00 0. -1.
          2    1    3    3  501    0 -0.12473396826E+03  0.11976292348E+03  0.29250332090E+01  0.17294587737E+03  0.00000000000E+00 0. -1.
<mgrwt>
<rscale>  0 0.61059507E+03</rscale>
<asrwt>0</asrwt>
<pdfrwt beam="1">0</pdfrwt>
<pdfrwt beam="2">  1        2 0.33893375E+00 0.61059507E+03</pdfrwt>
<totfact> 0.66879774E+00</totfact>
</mgrwt>
</event>
<event>
 5    1  0.2343702E-004  0.6527810E+03  0.7818608E-02  0.9801575E-01
         13   -1    0    0    0    0  0.00000000000E+00  0.00000000000E+00  0.10000000000E+04  0.10000000000E+04  0.00000000000E+00 0. -1.
          2   -1    0    0  501    0 -0.00000000000E+00 -0.00000000000E+00 -0.10653075933E+03  0.10653075933E+03  0.00000000000E+00 0. -1.
    9000006    2    1    2  501    0  0.00000000000E+00  0.00000000000E+00  0.89346924067E+03  0.11065307593E+04  0.65278100258E+03 0.  0.
         13    1    3    3    0    0  0.18200874073E+02  0.31879419363E+03  0.33214581629E+03  0.46074054845E+03  0.00000000000E+00 0. -1.
          4    1    3    3  501    0 -0.18200874073E+02 -0.31879419363E+03  0.56132342438E+03  0.64579021088E+03  0.00000000000E+00 0. -1.
<mgrwt>
<rscale>  0 0.65278100E+03</rscale>
<asrwt>0</asrwt>
<pdfrwt beam="1">0</pdfrwt>
<pdfrwt beam="2">  1        2 0.38738540E+00 0.65278100E+03</pdfrwt>
<totfact> 0.44377713E+00</totfact>
</mgrwt>
</event>
<event>
 5    1  0.2343702E-004  0.6563840E+03  0.7818608E-02  0.9794873E-01
         13   -1    0    0    0    0  0.00000000000E+00  0.00000000000E+00  0.10000000000E+04  0.10000000000E+04  0.00000000000E+00 0. -1.
          2   -1    0    0  501    0 -0.00000000000E+00 -0.00000000000E+00 -0.10770999896E+03  0.10770999896E+03  0.00000000000E+00 0. -1.
    9000006    2    1    2  501    0  0.00000000000E+00  0.00000000000E+00  0.89229000104E+03  0.11077099990E+04  0.65638403076E+03 0.  0.
         13    1    3    3    0    0  0.94953114105E+02 -0.33998657519E+01  0.97628161734E+03  0.98089420904E+03  0.00000000000E+00 0. -1.
          2    1    3    3  501    0 -0.94953114105E+02  0.33998657519E+01 -0.83991616297E+02  0.12681578992E+03  0.00000000000E+00 0. -1.
<mgrwt>
<rscale>  0 0.65638403E+03</rscale>
<asrwt>0</asrwt>
<pdfrwt beam="1">0</pdfrwt>
<pdfrwt beam="2">  1        2 0.39167355E+00 0.65638403E+03</pdfrwt>
<totfact> 0.42765984E+00</totfact>
</mgrwt>
</event>
<event>
 5    1  0.2343702E-004  0.6637409E+03  0.7818608E-02  0.9781332E-01
         13   -1    0    0    0    0  0.00000000000E+00  0.00000000000E+00  0.10000000000E+04  0.10000000000E+04  0.00000000000E+00 0. -1.
          2   -1    0    0  501    0 -0.00000000000E+00 -0.00000000000E+00 -0.11013798278E+03  0.11013798278E+03  0.00000000000E+00 0. -1.
    9000006    2    1    2  501    0  0.00000000000E+00  0.00000000000E+00  0.88986201722E+03  0.11101379828E+04  0.66374086141E+03 0.  0.
         13    1    3    3    0    0 -0.70458743538E+02  0.54321447380E+02 -0.89820652175E+02  0.12642390495E+03  0.00000000000E+00 0. -1.
          4    1    3    3  501    0  0.70458743538E+02 -0.54321447380E+02  0.97968266940E+03  0.98371407782E+03  0.00000000000E+00 0. -1.
<mgrwt>
<rscale>  0 0.66374086E+03</rscale>
<asrwt>0</asrwt>
<pdfrwt beam="1">0</pdfrwt>
<pdfrwt beam="2">  1        2 0.40050260E+00 0.66374086E+03</pdfrwt>
<totfact> 0.39612855E+00</totfact>
</mgrwt>
</event>
<event>
 5    1  0.2343702E-004  0.6513565E+03  0.7818608E-02  0.9804237E-01
         13   -1    0    0    0    0  0.00000000000E+00  0.00000000000E+00  0.10000000000E+04  0.10000000000E+04  0.00000000000E+00 0. -1.
          2   -1    0    0  501    0 -0.00000000000E+00 -0.00000000000E+00 -0.10606633051E+03  0.10606633051E+03  0.00000000000E+00 0. -1.
    9000006    2    1    2  501    0  0.00000000000E+00  0.00000000000E+00  0.89393366949E+03  0.11060663305E+04  0.65135652454E+03 0.  0.
         13    1    3    3    0    0  0.40633610179E+02 -0.97281210914E+02  0.97022204616E+03  0.97593316530E+03  0.00000000000E+00 0. -1.
          2    1    3    3  501    0 -0.40633610179E+02  0.97281210914E+02 -0.76288376676E+02  0.13013316522E+03  0.00000000000E+00 0. -1.
<mgrwt>
<rscale>  0 0.65135652E+03</rscale>
<asrwt>0</asrwt>
<pdfrwt beam="1">0</pdfrwt>
<pdfrwt beam="2">  1        2 0.38569656E+00 0.65135652E+03</pdfrwt>
<totfact> 0.45027411E+00</totfact>
</mgrwt>
</event>
<event>
 5    1  0.2343702E-004  0.6462609E+03  0.7818608E-02  0.9813821E-01
         13   -1    0    0    0    0  0.00000000000E+00  0.00000000000E+00  0.10000000000E+04  0.10000000000E+04  0.00000000000E+00 0. -1.
          2   -1    0    0  501    0 -0.00000000000E+00 -0.00000000000E+00 -0.10441328421E+03  0.10441328421E+03  0.00000000000E+00 0. -1.
    9000006    2    1    2  501    0  0.00000000000E+00  0.00000000000E+00  0.89558671579E+03  0.11044132842E+04  0.64626088916E+03 0.  0.
         13    1    3    3    0    0  0.28487964231E+03  0.19213525583E+02  0.18925501702E+03  0.34255369161E+03  0.00000000000E+00 0. -1.
          2    1    3    3  501    0 -0.28487964231E+03 -0.19213525583E+02  0.70633169877E+03  0.76185959261E+03  0.00000000000E+00 0. -1.
<mgrwt>
<rscale>  0 0.64626089E+03</rscale>
<asrwt>0</asrwt>
<pdfrwt beam="1">0</pdfrwt>
<pdfrwt beam="2">  1        2 0.37968547E+00 0.64626089E+03</pdfrwt>
<totfact> 0.47410525E+00</totfact>
</mgrwt>
</event>
<event>
 5    1  0.2343702E-004  0.6521151E+03  0.7818608E-02  0.9802818E-01
         13   -1    0    0    0    0  0.00000000000E+00  0.00000000000E+00  0.10000000000E+04  0.10000000000E+04  0.00000000000E+00 0. -1.
          2   -1    0    0  501    0 -0.00000000000E+00 -0.00000000000E+00 -0.10631353105E+03  0.10631353105E+03  0.00000000000E+00 0. -1.
    9000006    2    1    2  501    0  0.00000000000E+00  0.00000000000E+00  0.89368646895E+03  0.11063135311E+04  0.65211511577E+03 0.  0.
         13    1    3    3    0    0 -0.13443261816E+03  0.10923326355E+03  0.91548743900E+03  0.93173026443E+03  0.00000000000E+00 0. -1.
          4    1    3    3  501    0  0.13443261816E+03 -0.10923326355E+03 -0.21800970051E+02  0.17458326663E+03  0.00000000000E+00 0. -1.
<mgrwt>
<rscale>  0 0.65211512E+03</rscale>
<asrwt>0</asrwt>
<pdfrwt beam="1">0</pdfrwt>
<pdfrwt beam="2">  1        2 0.38659547E+00 0.65211512E+03</pdfrwt>
<totfact> 0.44680533E+00</totfact>
</mgrwt>
</event>
<event>
 5    1  0.2343702E-004  0.6497755E+03  0.7818608E-02  0.9807200E-01
         13   -1    0    0    0    0  0.00000000000E+00  0.00000000000E+00  0.10000000000E+04  0.10000000000E+04  0.00000000000E+00 0. -1.
          2   -1    0    0  501    0 -0.00000000000E+00 -0.00000000000E+00 -0.10555206540E+03  0.10555206540E+03  0.00000000000E+00 0. -1.
    9000006    2    1    2  501    0  0.00000000000E+00  0.00000000000E+00  0.89444793460E+03  0.11055520654E+04  0.64977554710E+03 0.  0.
         13    1    3    3    0    0  0.30918609843E+02  0.13033787250E+03 -0.56378763586E+02  0.14533577132E+03  0.00000000000E+00 0. -1.
          2    1    3    3  501    0 -0.30918609843E+02 -0.13033787250E+03  0.95082669818E+03  0.96021629408E+03  0.00000000000E+00 0. -1.
<mgrwt>
<rscale>  0 0.64977555E+03</rscale>
<asrwt>0</asrwt>
<pdfrwt beam="1">0</pdfrwt>
<pdfrwt beam="2">  1        2 0.38382650E+00 0.64977555E+03</pdfrwt>
<totfact> 0.45756875E+00</totfact>
</mgrwt>
</event>
<event>
 5    1  0.2343702E-004  0.6780819E+03  0.7818608E-02  0.9755467E-01
         13   -1    0    0    0    0  0.00000000000E+00  0.00000000000E+00  0.10000000000E+04  0.10000000000E+04  0.00000000000E+00 0. -1.
          2   -1    0    0  501    0 -0.00000000000E+00 -0.00000000000E+00 -0.11494876719E+03  0.11494876719E+03  0.00000000000E+00 0. -1.
    9000006    2    1    2  501    0  0.00000000000E+00  0.00000000000E+00  0.88505123281E+03  0.11149487672E+04  0.67808190418E+03 0.  0.
         13    1    3    3    0    0 -0.53840415864E+02  0.76676989272E+02 -0.93240107621E+02  0.13218119660E+03  0.00000000000E+00 0. -1.
          2    1    3    3  501    0  0.53840415864E+02 -0.76676989272E+02  0.97829134043E+03  0.98276757060E+03  0.00000000000E+00 0. -1.
<mgrwt>
<rscale>  0 0.67808190E+03</rscale>
<asrwt>0</asrwt>
<pdfrwt beam="1">0</pdfrwt>
<pdfrwt beam="2">  1        2 0.41799640E+00 0.67808190E+03</pdfrwt>
<totfact> 0.33973563E+00</totfact>
</mgrwt>
</event>
<event>
 5    1  0.2343702E-004  0.6406175E+03  0.7818608E-02  0.9824546E-01
         13   -1    0    0    0    0  0.00000000000E+00  0.00000000000E+00  0.10000000000E+04  0.10000000000E+04  0.00000000000E+00 0. -1.
          2   -1    0    0  501    0 -0.00000000000E+00 -0.00000000000E+00 -0.10259768705E+03  0.10259768705E+03  0.00000000000E+00 0. -1.
    9000006    2    1    2  501    0  0.00000000000E+00  0.00000000000E+00  0.89740231295E+03  0.11025976871E+04  0.64061747417E+03 0.  0.
         13    1    3    3    0    0 -0.27125766115E+03 -0.12082647346E+03  0.65536751025E+03  0.71950422439E+03  0.00000000000E+00 0. -1.
          4    1    3    3  501    0  0.27125766115E+03  0.12082647346E+03  0.24203480270E+03  0.38309346267E+03  0.00000000000E+00 0. -1.
<mgrwt>
<rscale>  0 0.64061747E+03</rscale>
<asrwt>0</asrwt>
<pdfrwt beam="1">0</pdfrwt>
<pdfrwt beam="2">  1        2 0.37308329E+00 0.64061747E+03</pdfrwt>
<totfact> 0.50159958E+00</totfact>
</mgrwt>
</event>
<event>
 5    1  0.2343702E-004  0.6501266E+03  0.7818608E-02  0.9806542E-01
         13   -1    0    0    0    0  0.00000000000E+00  0.00000000000E+00  0.10000000000E+04  0.10000000000E+04  0.00000000000E+00 0. -1.
          2   -1    0    0  501    0 -0.00000000000E+00 -0.00000000000E+00 -0.10566613827E+03  0.10566613827E+03  0.00000000000E+00 0. -1.
    9000006    2    1    2  501    0  0.00000000000E+00  0.00000000000E+00  0.89433386173E+03  0.11056661383E+04  0.65012656697E+03 0.  0.
         13    1    3    3    0    0 -0.13414657032E+03  0.21859840388E+03  0.78681880684E+03  0.82756534443E+03  0.00000000000E+00 0. -1.
          4    1    3    3  501    0  0.13414657032E+03 -0.21859840388E+03  0.10751505489E+03  0.27810079384E+03  0.00000000000E+00 0. -1.
<mgrwt>
<rscale>  0 0.65012657E+03</rscale>
<asrwt>0</asrwt>
<pdfrwt beam="1">0</pdfrwt>
<pdfrwt beam="2">  1        2 0.38424131E+00 0.65012657E+03</pdfrwt>
<totfact> 0.45594149E+00</totfact>
</mgrwt>
</event>
<event>
 5    1  0.2343702E-004  0.6387499E+03  0.7818608E-02  0.9828121E-01
         13   -1    0    0    0    0  0.00000000000E+00  0.00000000000E+00  0.10000000000E+04  0.10000000000E+04  0.00000000000E+00 0. -1.
          2   -1    0    0  501    0 -0.00000000000E+00 -0.00000000000E+00 -0.10200035029E+03  0.10200035029E+03  0.00000000000E+00 0. -1.
    9000006    2    1    2  501    0  0.00000000000E+00  0.00000000000E+00  0.89799964971E+03  0.11020003503E+04  0.63874987371E+03 0.  0.
         13    1    3    3    0    0  0.16668106131E+03  0.10047344754E+02  0.91868765612E+03  0.93374007885E+03  0.00000000000E+00 0. -1.
          2    1    3    3  501    0 -0.16668106131E+03 -0.10047344754E+02 -0.20688006414E+02  0.16826027144E+03  0.00000000000E+00 0. -1.
<mgrwt>
<rscale>  0 0.63874987E+03</rscale>
<asrwt>0</asrwt>
<pdfrwt beam="1">0</pdfrwt>
<pdfrwt beam="2">  1        2 0.37091115E+00 0.63874987E+03</pdfrwt>
<totfact> 0.51095944E+00</totfact>
</mgrwt>
</event>
<event>
 5    1  0.2343702E-004  0.6456010E+03  0.7818608E-02  0.9815069E-01
         13   -1    0    0    0    0  0.00000000000E+00  0.00000000000E+00  0.10000000000E+04  0.10000000000E+04  0.00000000000E+00 0. -1.
          2   -1    0    0  501    0 -0.00000000000E+00 -0.00000000000E+00 -0.10420015913E+03  0.10420015913E+03  0.00000000000E+00 0. -1.
    9000006    2    1    2  501    0  0.00000000000E+00  0.00000000000E+00  0.89579984087E+03  0.11042001591E+04  0.64560098864E+03 0.  0.
         13    1    3    3    0    0 -0.18836186211E+03  0.26214377445E+03  0.44656458936E+03  0.55101677112E+03  0.00000000000E+00 0. -1.
          2    1    3    3  501    0  0.18836186211E+03 -0.26214377445E+03  0.44923525151E+03  0.55318338802E+03  0.00000000000E+00 0. -1.
<mgrwt>
<rscale>  0 0.64560099E+03</rscale>
<asrwt>0</asrwt>
<pdfrwt beam="1">0</pdfrwt>
<pdfrwt beam="2">  1        2 0.37891047E+00 0.64560099E+03</pdfrwt>
<totfact> 0.47725980E+00</totfact>
</mgrwt>
</event>
<event>
 5    1  0.2343702E-004  0.6242566E+03  0.7818608E-02  0.9856321E-01
         13   -1    0    0    0    0  0.00000000000E+00  0.00000000000E+00  0.10000000000E+04  0.10000000000E+04  0.00000000000E+00 0. -1.
          2   -1    0    0  501    0 -0.00000000000E+00 -0.00000000000E+00 -0.97424073067E+02  0.97424073067E+02  0.00000000000E+00 0. -1.
    9000006    2    1    2  501    0  0.00000000000E+00  0.00000000000E+00  0.90257592693E+03  0.10974240731E+04  0.62425659169E+03 0.  0.
         13    1    3    3    0    0 -0.17791526774E+03 -0.17942184055E+03  0.12915217528E+03  0.28377160488E+03  0.00000000000E+00 0. -1.
          2    1    3    3  501    0  0.17791526774E+03  0.17942184055E+03  0.77342375165E+03  0.81365246818E+03  0.00000000000E+00 0. -1.
<mgrwt>
<rscale>  0 0.62425659E+03</rscale>
<asrwt>0</asrwt>
<pdfrwt beam="1">0</pdfrwt>
<pdfrwt beam="2">  1        2 0.35427010E+00 0.62425659E+03</pdfrwt>
<totfact> 0.58817523E+00</totfact>
</mgrwt>
</event>
<event>
 5    1  0.2343702E-004  0.6520972E+03  0.7818608E-02  0.9802852E-01
         13   -1    0    0    0    0  0.00000000000E+00  0.00000000000E+00  0.10000000000E+04  0.10000000000E+04  0.00000000000E+00 0. -1.
          2   -1    0    0  501    0 -0.00000000000E+00 -0.00000000000E+00 -0.10630767437E+03  0.10630767437E+03  0.00000000000E+00 0. -1.
    9000006    2    1    2  501    0  0.00000000000E+00  0.00000000000E+00  0.89369232563E+03  0.11063076744E+04  0.65209715340E+03 0.  0.
         13    1    3    3    0    0 -0.14992852738E+03 -0.20009629298E+03  0.91825204398E+02  0.26636245597E+03  0.00000000000E+00 0. -1.
          2    1    3    3  501    0  0.14992852738E+03  0.20009629298E+03  0.80186712123E+03  0.83994521840E+03  0.00000000000E+00 0. -1.
<mgrwt>
<rscale>  0 0.65209715E+03</rscale>
<asrwt>0</asrwt>
<pdfrwt beam="1">0</pdfrwt>
<pdfrwt beam="2">  1        2 0.38657418E+00 0.65209715E+03</pdfrwt>
<totfact> 0.44688723E+00</totfact>
</mgrwt>
</event>
<event>
 5    1  0.2343702E-004  0.6517845E+03  0.7818608E-02  0.9803436E-01
         13   -1    0    0    0    0  0.00000000000E+00  0.00000000000E+00  0.10000000000E+04  0.10000000000E+04  0.00000000000E+00 0. -1.
          2   -1    0    0  501    0 -0.00000000000E+00 -0.00000000000E+00 -0.10620576919E+03  0.10620576919E+03  0.00000000000E+00 0. -1.
    9000006    2    1    2  501    0  0.00000000000E+00  0.00000000000E+00  0.89379423081E+03  0.11062057692E+04  0.65178453247E+03 0.  0.
         13    1    3    3    0    0  0.31966947581E+03 -0.55052302268E+02  0.50020200937E+03  0.59617227370E+03  0.00000000000E+00 0. -1.
          2    1    3    3  501    0 -0.31966947581E+03  0.55052302268E+02  0.39359222144E+03  0.51003349549E+03  0.00000000000E+00 0. -1.
<mgrwt>
<rscale>  0 0.65178453E+03</rscale>
<asrwt>0</asrwt>
<pdfrwt beam="1">0</pdfrwt>
<pdfrwt beam="2">  1        2 0.38620361E+00 0.65178453E+03</pdfrwt>
<totfact> 0.44831448E+00</totfact>
</mgrwt>
</event>
<event>
 5    1  0.2343702E-004  0.6449930E+03  0.7818608E-02  0.9816220E-01
         13   -1    0    0    0    0  0.00000000000E+00  0.00000000000E+00  0.10000000000E+04  0.10000000000E+04  0.00000000000E+00 0. -1.
          2   -1    0    0  501    0 -0.00000000000E+00 -0.00000000000E+00 -0.10400400294E+03  0.10400400294E+03  0.00000000000E+00 0. -1.
    9000006    2    1    2  501    0  0.00000000000E+00  0.00000000000E+00  0.89599599706E+03  0.11040040029E+04  0.64499303234E+03 0.  0.
         13    1    3    3    0    0 -0.15989125449E+03 -0.28006889864E+03  0.44876670384E+03  0.55262587319E+03  0.00000000000E+00 0. -1.
          4    1    3    3  501    0  0.15989125449E+03  0.28006889864E+03  0.44722929322E+03  0.55137812975E+03  0.00000000000E+00 0. -1.
<mgrwt>
<rscale>  0 0.64499303E+03</rscale>
<asrwt>0</asrwt>
<pdfrwt beam="1">0</pdfrwt>
<pdfrwt beam="2">  1        2 0.37819717E+00 0.64499303E+03</pdfrwt>
<totfact> 0.48018007E+00</totfact>
</mgrwt>
</event>
<event>
 5    1  0.2343702E-004  0.4757161E+03  0.7818608E-02  0.1020319E+00
         13   -1    0    0    0    0  0.00000000000E+00  0.00000000000E+00  0.10000000000E+04  0.10000000000E+04  0.00000000000E+00 0. -1.
          2   -1    0    0  501    0 -0.00000000000E+00 -0.00000000000E+00 -0.56576452595E+02  0.56576452595E+02  0.00000000000E+00 0. -1.
    9000006    2    1    2  501    0  0.00000000000E+00  0.00000000000E+00  0.94342354741E+03  0.10565764526E+04  0.47571610271E+03 0.  0.
         13    1    3    3    0    0  0.14381314167E+03  0.14414338002E+03  0.19863502936E+03  0.28445633866E+03  0.00000000000E+00 0. -1.
          2    1    3    3  501    0 -0.14381314167E+03 -0.14414338002E+03  0.74478851805E+03  0.77212011393E+03  0.00000000000E+00 0. -1.
<mgrwt>
<rscale>  0 0.47571610E+03</rscale>
<asrwt>0</asrwt>
<pdfrwt beam="1">0</pdfrwt>
<pdfrwt beam="2">  1        2 0.20573299E+00 0.47571610E+03</pdfrwt>
<totfact> 0.20221365E+01</totfact>
</mgrwt>
</event>
<event>
 5    1  0.2343702E-004  0.6462607E+03  0.7818608E-02  0.9813821E-01
         13   -1    0    0    0    0  0.00000000000E+00  0.00000000000E+00  0.10000000000E+04  0.10000000000E+04  0.00000000000E+00 0. -1.
          4   -1    0    0  501    0 -0.00000000000E+00 -0.00000000000E+00 -0.10441321328E+03  0.10441321328E+03  0.00000000000E+00 0. -1.
    9000006    2    1    2  501    0  0.00000000000E+00  0.00000000000E+00  0.89558678672E+03  0.11044132133E+04  0.64626066965E+03 0.  0.
         13    1    3    3    0    0 -0.22655342608E+03  0.19825702176E+02  0.84007975964E+03  0.87031805445E+03  0.00000000000E+00 0. -1.
          4    1    3    3  501    0  0.22655342608E+03 -0.19825702176E+02  0.55507027076E+02  0.23409515884E+03  0.00000000000E+00 0. -1.
<mgrwt>
<rscale>  0 0.64626067E+03</rscale>
<asrwt>0</asrwt>
<pdfrwt beam="1">0</pdfrwt>
<pdfrwt beam="2">  1        4 0.37968521E+00 0.64626067E+03</pdfrwt>
<totfact> 0.44087964E-02</totfact>
</mgrwt>
</event>
<event>
 5    1  0.2343702E-004  0.6514648E+03  0.7818608E-02  0.9804034E-01
         13   -1    0    0    0    0  0.00000000000E+00  0.00000000000E+00  0.10000000000E+04  0.10000000000E+04  0.00000000000E+00 0. -1.
          2   -1    0    0  501    0 -0.00000000000E+00 -0.00000000000E+00 -0.10610159566E+03  0.10610159566E+03  0.00000000000E+00 0. -1.
    9000006    2    1    2  501    0  0.00000000000E+00  0.00000000000E+00  0.89389840434E+03  0.11061015957E+04  0.65146479771E+03 0.  0.
         13    1    3    3    0    0  0.27417341405E+03  0.15757075076E+03  0.31431976549E+03  0.44586603082E+03  0.00000000000E+00 0. -1.
          4    1    3    3  501    0 -0.27417341405E+03 -0.15757075076E+03  0.57957863885E+03  0.66023556484E+03  0.00000000000E+00 0. -1.
<mgrwt>
<rscale>  0 0.65146480E+03</rscale>
<asrwt>0</asrwt>
<pdfrwt beam="1">0</pdfrwt>
<pdfrwt beam="2">  1        2 0.38582480E+00 0.65146480E+03</pdfrwt>
<totfact> 0.44977777E+00</totfact>
</mgrwt>
</event>
<event>
 5    1  0.2343702E-004  0.6483410E+03  0.7818608E-02  0.9809897E-01
         13   -1    0    0    0    0  0.00000000000E+00  0.00000000000E+00  0.10000000000E+04  0.10000000000E+04  0.00000000000E+00 0. -1.
          2   -1    0    0  501    0 -0.00000000000E+00 -0.00000000000E+00 -0.10508649931E+03  0.10508649931E+03  0.00000000000E+00 0. -1.
    9000006    2    1    2  501    0  0.00000000000E+00  0.00000000000E+00  0.89491350069E+03  0.11050864993E+04  0.64834095755E+03 0.  0.
         13    1    3    3    0    0 -0.70715850326E+02  0.26498200875E+02 -0.89884530311E+02  0.11739725263E+03  0.00000000000E+00 0. -1.
          2    1    3    3  501    0  0.70715850326E+02 -0.26498200875E+02  0.98479803100E+03  0.98768924668E+03  0.00000000000E+00 0. -1.
<mgrwt>
<rscale>  0 0.64834096E+03</rscale>
<asrwt>0</asrwt>
<pdfrwt beam="1">0</pdfrwt>
<pdfrwt beam="2">  1        2 0.38213353E+00 0.64834096E+03</pdfrwt>
<totfact> 0.46426493E+00</totfact>
</mgrwt>
</event>
<event>
 5    1  0.2343702E-004  0.6474622E+03  0.7818608E-02  0.9811553E-01
         13   -1    0    0    0    0  0.00000000000E+00  0.00000000000E+00  0.10000000000E+04  0.10000000000E+04  0.00000000000E+00 0. -1.
          2   -1    0    0  501    0 -0.00000000000E+00 -0.00000000000E+00 -0.10480182614E+03  0.10480182614E+03  0.00000000000E+00 0. -1.
    9000006    2    1    2  501    0  0.00000000000E+00  0.00000000000E+00  0.89519817386E+03  0.11048018261E+04  0.64746220320E+03 0.  0.
         13    1    3    3    0    0  0.12784242547E+03 -0.26218004075E+03  0.20798030942E+03  0.35824275097E+03  0.00000000000E+00 0. -1.
          2    1    3    3  501    0 -0.12784242547E+03  0.26218004075E+03  0.68721786444E+03  0.74655907517E+03  0.00000000000E+00 0. -1.
<mgrwt>
<rscale>  0 0.64746220E+03</rscale>
<asrwt>0</asrwt>
<pdfrwt beam="1">0</pdfrwt>
<pdfrwt beam="2">  1        2 0.38109835E+00 0.64746220E+03</pdfrwt>
<totfact> 0.46840308E+00</totfact>
</mgrwt>
</event>
<event>
 5    1  0.2343702E-004  0.6550726E+03  0.7818608E-02  0.9797307E-01
         13   -1    0    0    0    0  0.00000000000E+00  0.00000000000E+00  0.10000000000E+04  0.10000000000E+04  0.00000000000E+00 0. -1.
          2   -1    0    0  501    0 -0.00000000000E+00 -0.00000000000E+00 -0.10728004250E+03  0.10728004250E+03  0.00000000000E+00 0. -1.
    9000006    2    1    2  501    0  0.00000000000E+00  0.00000000000E+00  0.89271995750E+03  0.11072800425E+04  0.65507264483E+03 0.  0.
         13    1    3    3    0    0 -0.26875409325E+03  0.16945681262E+02  0.13119812100E+03  0.29954776865E+03  0.00000000000E+00 0. -1.
          2    1    3    3  501    0  0.26875409325E+03 -0.16945681262E+02  0.76152183650E+03  0.80773227385E+03  0.00000000000E+00 0. -1.
<mgrwt>
<rscale>  0 0.65507264E+03</rscale>
<asrwt>0</asrwt>
<pdfrwt beam="1">0</pdfrwt>
<pdfrwt beam="2">  1        2 0.39011007E+00 0.65507264E+03</pdfrwt>
<totfact> 0.43347394E+00</totfact>
</mgrwt>
</event>
<event>
 5    1  0.2343702E-004  0.6477440E+03  0.7818608E-02  0.9811022E-01
         13   -1    0    0    0    0  0.00000000000E+00  0.00000000000E+00  0.10000000000E+04  0.10000000000E+04  0.00000000000E+00 0. -1.
          2   -1    0    0  501    0 -0.00000000000E+00 -0.00000000000E+00 -0.10489306881E+03  0.10489306881E+03  0.00000000000E+00 0. -1.
    9000006    2    1    2  501    0  0.00000000000E+00  0.00000000000E+00  0.89510693119E+03  0.11048930688E+04  0.64774398895E+03 0.  0.
         13    1    3    3    0    0  0.98753062465E+02 -0.15422215941E+02 -0.77927462303E+02  0.12673871339E+03  0.00000000000E+00 0. -1.
          2    1    3    3  501    0 -0.98753062465E+02  0.15422215941E+02  0.97303439350E+03  0.97815435542E+03  0.00000000000E+00 0. -1.
<mgrwt>
<rscale>  0 0.64774399E+03</rscale>
<asrwt>0</asrwt>
<pdfrwt beam="1">0</pdfrwt>
<pdfrwt beam="2">  1        2 0.38143015E+00 0.64774399E+03</pdfrwt>
<totfact> 0.46707309E+00</totfact>
</mgrwt>
</event>
<event>
 5    1  0.2343702E-004  0.5041256E+03  0.7818608E-02  0.1012708E+00
         13   -1    0    0    0    0  0.00000000000E+00  0.00000000000E+00  0.10000000000E+04  0.10000000000E+04  0.00000000000E+00 0. -1.
          2   -1    0    0  501    0 -0.00000000000E+00 -0.00000000000E+00 -0.63535644897E+02  0.63535644897E+02  0.00000000000E+00 0. -1.
    9000006    2    1    2  501    0  0.00000000000E+00  0.00000000000E+00  0.93646435510E+03  0.10635356449E+04  0.50412555935E+03 0.  0.
         13    1    3    3    0    0  0.66864574843E+02  0.83928153512E+02 -0.12941661954E+02  0.10808465633E+03  0.00000000000E+00 0. -1.
          4    1    3    3  501    0 -0.66864574843E+02 -0.83928153512E+02  0.94940601706E+03  0.95545098856E+03  0.00000000000E+00 0. -1.
<mgrwt>
<rscale>  0 0.50412556E+03</rscale>
<asrwt>0</asrwt>
<pdfrwt beam="1">0</pdfrwt>
<pdfrwt beam="2">  1        2 0.23103920E+00 0.50412556E+03</pdfrwt>
<totfact> 0.16321855E+01</totfact>
</mgrwt>
</event>
<event>
 5    1  0.2343702E-004  0.6418875E+03  0.7818608E-02  0.9822122E-01
         13   -1    0    0    0    0  0.00000000000E+00  0.00000000000E+00  0.10000000000E+04  0.10000000000E+04  0.00000000000E+00 0. -1.
          2   -1    0    0  501    0 -0.00000000000E+00 -0.00000000000E+00 -0.10300488538E+03  0.10300488538E+03  0.00000000000E+00 0. -1.
    9000006    2    1    2  501    0  0.00000000000E+00  0.00000000000E+00  0.89699511462E+03  0.11030048854E+04  0.64188748354E+03 0.  0.
         13    1    3    3    0    0 -0.19636483463E+03 -0.54805150045E+02  0.22554376765E+02  0.20511326789E+03  0.00000000000E+00 0. -1.
          2    1    3    3  501    0  0.19636483463E+03  0.54805150045E+02  0.87444073785E+03  0.89789161750E+03  0.00000000000E+00 0. -1.
<mgrwt>
<rscale>  0 0.64188748E+03</rscale>
<asrwt>0</asrwt>
<pdfrwt beam="1">0</pdfrwt>
<pdfrwt beam="2">  1        2 0.37456401E+00 0.64188748E+03</pdfrwt>
<totfact> 0.49530925E+00</totfact>
</mgrwt>
</event>
<event>
 5    1  0.2343702E-004  0.4923873E+03  0.7818608E-02  0.1015785E+00
         13   -1    0    0    0    0  0.00000000000E+00  0.00000000000E+00  0.10000000000E+04  0.10000000000E+04  0.00000000000E+00 0. -1.
          2   -1    0    0  501    0 -0.00000000000E+00 -0.00000000000E+00 -0.60611318192E+02  0.60611318192E+02  0.00000000000E+00 0. -1.
    9000006    2    1    2  501    0  0.00000000000E+00  0.00000000000E+00  0.93938868181E+03  0.10606113182E+04  0.49238731987E+03 0.  0.
         13    1    3    3    0    0  0.19778289798E+03 -0.23835310267E+02  0.15810442742E+03  0.25432893410E+03  0.00000000000E+00 0. -1.
          2    1    3    3  501    0 -0.19778289798E+03  0.23835310267E+02  0.78128425439E+03  0.80628238409E+03  0.00000000000E+00 0. -1.
<mgrwt>
<rscale>  0 0.49238732E+03</rscale>
<asrwt>0</asrwt>
<pdfrwt beam="1">0</pdfrwt>
<pdfrwt beam="2">  1        2 0.22040526E+00 0.49238732E+03</pdfrwt>
<totfact> 0.17847908E+01</totfact>
</mgrwt>
</event>
<event>
 5    1  0.2343702E-004  0.6442885E+03  0.7818608E-02  0.9817556E-01
         13   -1    0    0    0    0  0.00000000000E+00  0.00000000000E+00  0.10000000000E+04  0.10000000000E+04  0.00000000000E+00 0. -1.
          2   -1    0    0  501    0 -0.00000000000E+00 -0.00000000000E+00 -0.10377691877E+03  0.10377691877E+03  0.00000000000E+00 0. -1.
    9000006    2    1    2  501    0  0.00000000000E+00  0.00000000000E+00  0.89622308123E+03  0.11037769188E+04  0.64428850298E+03 0.  0.
         13    1    3    3    0    0  0.12496477472E+03 -0.28594225209E+03  0.31108186237E+03  0.44062579537E+03  0.00000000000E+00 0. -1.
          4    1    3    3  501    0 -0.12496477472E+03  0.28594225209E+03  0.58514121886E+03  0.66315112340E+03  0.00000000000E+00 0. -1.
<mgrwt>
<rscale>  0 0.64428850E+03</rscale>
<asrwt>0</asrwt>
<pdfrwt beam="1">0</pdfrwt>
<pdfrwt beam="2">  1        2 0.37737141E+00 0.64428850E+03</pdfrwt>
<totfact> 0.48358111E+00</totfact>
</mgrwt>
</event>
<event>
 5    1  0.2343702E-004  0.6401582E+03  0.7818608E-02  0.9825424E-01
         13   -1    0    0    0    0  0.00000000000E+00  0.00000000000E+00  0.10000000000E+04  0.10000000000E+04  0.00000000000E+00 0. -1.
          2   -1    0    0  501    0 -0.00000000000E+00 -0.00000000000E+00 -0.10245063387E+03  0.10245063387E+03  0.00000000000E+00 0. -1.
    9000006    2    1    2  501    0  0.00000000000E+00  0.00000000000E+00  0.89754936613E+03  0.11024506339E+04  0.64015821128E+03 0.  0.
         13    1    3    3    0    0 -0.31524646185E+03 -0.55356475242E+02  0.45297998373E+03  0.55464902120E+03  0.00000000000E+00 0. -1.
          4    1    3    3  501    0  0.31524646185E+03  0.55356475242E+02  0.44456938240E+03  0.54780161266E+03  0.00000000000E+00 0. -1.
<mgrwt>
<rscale>  0 0.64015821E+03</rscale>
<asrwt>0</asrwt>
<pdfrwt beam="1">0</pdfrwt>
<pdfrwt beam="2">  1        2 0.37254855E+00 0.64015821E+03</pdfrwt>
<totfact> 0.50388913E+00</totfact>
</mgrwt>
</event>
<event>
 5    1  0.2343702E-004  0.6497371E+03  0.7818608E-02  0.9807273E-01
         13   -1    0    0    0    0  0.00000000000E+00  0.00000000000E+00  0.10000000000E+04  0.10000000000E+04  0.00000000000E+00 0. -1.
          2   -1    0    0  501    0 -0.00000000000E+00 -0.00000000000E+00 -0.10553958596E+03  0.10553958596E+03  0.00000000000E+00 0. -1.
    9000006    2    1    2  501    0  0.00000000000E+00  0.00000000000E+00  0.89446041404E+03  0.11055395860E+04  0.64973713443E+03 0.  0.
         13    1    3    3    0    0  0.21751531243E+03  0.23981919166E+03  0.40178246267E+03  0.51599932475E+03  0.00000000000E+00 0. -1.
          2    1    3    3  501    0 -0.21751531243E+03 -0.23981919166E+03  0.49267795136E+03  0.58954026121E+03  0.00000000000E+00 0. -1.
<mgrwt>
<rscale>  0 0.64973713E+03</rscale>
<asrwt>0</asrwt>
<pdfrwt beam="1">0</pdfrwt>
<pdfrwt beam="2">  1        2 0.38378112E+00 0.64973713E+03</pdfrwt>
<totfact> 0.45774709E+00</totfact>
</mgrwt>
</event>
<event>
 5    1  0.2343702E-004  0.6468914E+03  0.7818608E-02  0.9812630E-01
         13   -1    0    0    0    0  0.00000000000E+00  0.00000000000E+00  0.10000000000E+04  0.10000000000E+04  0.00000000000E+00 0. -1.
          2   -1    0    0  501    0 -0.00000000000E+00 -0.00000000000E+00 -0.10461710916E+03  0.10461710916E+03  0.00000000000E+00 0. -1.
    9000006    2    1    2  501    0  0.00000000000E+00  0.00000000000E+00  0.89538289084E+03  0.11046171092E+04  0.64689136385E+03 0.  0.
         13    1    3    3    0    0  0.42834326740E+02 -0.31888422648E+03  0.39118173172E+03  0.50650279040E+03  0.00000000000E+00 0. -1.
          2    1    3    3  501    0 -0.42834326740E+02  0.31888422648E+03  0.50420115912E+03  0.59811431876E+03  0.00000000000E+00 0. -1.
<mgrwt>
<rscale>  0 0.64689136E+03</rscale>
<asrwt>0</asrwt>
<pdfrwt beam="1">0</pdfrwt>
<pdfrwt beam="2">  1        2 0.38042665E+00 0.64689136E+03</pdfrwt>
<totfact> 0.47110613E+00</totfact>
</mgrwt>
</event>
<event>
 5    1  0.2343702E-004  0.6993720E+03  0.7818608E-02  0.9718307E-01
         13   -1    0    0    0    0  0.00000000000E+00  0.00000000000E+00  0.10000000000E+04  0.10000000000E+04  0.00000000000E+00 0. -1.
          2   -1    0    0  501    0 -0.00000000000E+00 -0.00000000000E+00 -0.12228031101E+03  0.12228031101E+03  0.00000000000E+00 0. -1.
    9000006    2    1    2  501    0  0.00000000000E+00  0.00000000000E+00  0.87771968899E+03  0.11222803110E+04  0.69937203549E+03 0.  0.
         13    1    3    3    0    0 -0.20770221385E+03 -0.21839032710E+03  0.15429963442E+03  0.33858960673E+03  0.00000000000E+00 0. -1.
          4    1    3    3  501    0  0.20770221385E+03  0.21839032710E+03  0.72342005457E+03  0.78369070427E+03  0.00000000000E+00 0. -1.
<mgrwt>
<rscale>  0 0.69937204E+03</rscale>
<asrwt>0</asrwt>
<pdfrwt beam="1">0</pdfrwt>
<pdfrwt beam="2">  1        2 0.44465661E+00 0.69937204E+03</pdfrwt>
<totfact> 0.26743888E+00</totfact>
</mgrwt>
</event>
<event>
 5    1  0.2343702E-004  0.6043534E+03  0.7818608E-02  0.9896415E-01
         13   -1    0    0    0    0  0.00000000000E+00  0.00000000000E+00  0.10000000000E+04  0.10000000000E+04  0.00000000000E+00 0. -1.
          2   -1    0    0  501    0 -0.00000000000E+00 -0.00000000000E+00 -0.91310762913E+02  0.91310762913E+02  0.00000000000E+00 0. -1.
    9000006    2    1    2  501    0  0.00000000000E+00  0.00000000000E+00  0.90868923709E+03  0.10913107629E+04  0.60435341618E+03 0.  0.
         13    1    3    3    0    0 -0.70146064247E+02 -0.25587587044E+03  0.71551010729E+03  0.76311705854E+03  0.00000000000E+00 0. -1.
          2    1    3    3  501    0  0.70146064247E+02  0.25587587044E+03  0.19317912980E+03  0.32819370437E+03  0.00000000000E+00 0. -1.
<mgrwt>
<rscale>  0 0.60435342E+03</rscale>
<asrwt>0</asrwt>
<pdfrwt beam="1">0</pdfrwt>
<pdfrwt beam="2">  1        2 0.33203984E+00 0.60435342E+03</pdfrwt>
<totfact> 0.70832239E+00</totfact>
</mgrwt>
</event>
<event>
 5    1  0.2343702E-004  0.6352680E+03  0.7818608E-02  0.9834822E-01
         13   -1    0    0    0    0  0.00000000000E+00  0.00000000000E+00  0.10000000000E+04  0.10000000000E+04  0.00000000000E+00 0. -1.
          2   -1    0    0  501    0 -0.00000000000E+00 -0.00000000000E+00 -0.10089136793E+03  0.10089136793E+03  0.00000000000E+00 0. -1.
    9000006    2    1    2  501    0  0.00000000000E+00  0.00000000000E+00  0.89910863207E+03  0.11008913679E+04  0.63526803141E+03 0.  0.
         13    1    3    3    0    0  0.25043227132E+03  0.15603938873E+03  0.24578086870E+03  0.38402193788E+03  0.00000000000E+00 0. -1.
          2    1    3    3  501    0 -0.25043227132E+03 -0.15603938873E+03  0.65332776337E+03  0.71686943005E+03  0.00000000000E+00 0. -1.
<mgrwt>
<rscale>  0 0.63526803E+03</rscale>
<asrwt>0</asrwt>
<pdfrwt beam="1">0</pdfrwt>
<pdfrwt beam="2">  1        2 0.36687848E+00 0.63526803E+03</pdfrwt>
<totfact> 0.52876205E+00</totfact>
</mgrwt>
</event>
<event>
 5    1  0.2343702E-004  0.6309972E+03  0.7818608E-02  0.9843105E-01
         13   -1    0    0    0    0  0.00000000000E+00  0.00000000000E+00  0.10000000000E+04  0.10000000000E+04  0.00000000000E+00 0. -1.
          4   -1    0    0  501    0 -0.00000000000E+00 -0.00000000000E+00 -0.99539355701E+02  0.99539355701E+02  0.00000000000E+00 0. -1.
    9000006    2    1    2  501    0  0.00000000000E+00  0.00000000000E+00  0.90046064430E+03  0.10995393557E+04  0.63099716545E+03 0.  0.
         13    1    3    3    0    0 -0.15806331106E+03  0.17074061774E+03  0.78929780886E+02  0.24569550089E+03  0.00000000000E+00 0. -1.
          2    1    3    3  501    0  0.15806331106E+03 -0.17074061774E+03  0.82153086341E+03  0.85384385481E+03  0.00000000000E+00 0. -1.
<mgrwt>
<rscale>  0 0.63099717E+03</rscale>
<asrwt>0</asrwt>
<pdfrwt beam="1">0</pdfrwt>
<pdfrwt beam="2">  1        4 0.36196206E+00 0.63099717E+03</pdfrwt>
<totfact> 0.57801090E-02</totfact>
</mgrwt>
</event>
<event>
 5    1  0.2343702E-004  0.6514493E+03  0.7818608E-02  0.9804064E-01
         13   -1    0    0    0    0  0.00000000000E+00  0.00000000000E+00  0.10000000000E+04  0.10000000000E+04  0.00000000000E+00 0. -1.
          2   -1    0    0  501    0 -0.00000000000E+00 -0.00000000000E+00 -0.10609653770E+03  0.10609653770E+03  0.00000000000E+00 0. -1.
    9000006    2    1    2  501    0  0.00000000000E+00  0.00000000000E+00  0.89390346230E+03  0.11060965377E+04  0.65144926955E+03 0.  0.
         13    1    3    3    0    0  0.27147216635E+03 -0.16722312023E+03  0.33386808254E+03  0.46165853786E+03  0.00000000000E+00 0. -1.
          2    1    3    3  501    0 -0.27147216635E+03  0.16722312023E+03  0.56003537977E+03  0.64443799984E+03  0.00000000000E+00 0. -1.
<mgrwt>
<rscale>  0 0.65144927E+03</rscale>
<asrwt>0</asrwt>
<pdfrwt beam="1">0</pdfrwt>
<pdfrwt beam="2">  1        2 0.38580641E+00 0.65144927E+03</pdfrwt>
<totfact> 0.44984893E+00</totfact>
</mgrwt>
</event>
<event>
 5    1  0.2343702E-004  0.6548979E+03  0.7818608E-02  0.9797632E-01
         13   -1    0    0    0    0  0.00000000000E+00  0.00000000000E+00  0.10000000000E+04  0.10000000000E+04  0.00000000000E+00 0. -1.
          2   -1    0    0  501    0 -0.00000000000E+00 -0.00000000000E+00 -0.10722281053E+03  0.10722281053E+03  0.00000000000E+00 0. -1.
    9000006    2    1    2  501    0  0.00000000000E+00  0.00000000000E+00  0.89277718947E+03  0.11072228105E+04  0.65489788680E+03 0.  0.
         13    1    3    3    0    0  0.13369028632E+03  0.45155609701E+02  0.94595720527E+03  0.95642415065E+03  0.00000000000E+00 0. -1.
          4    1    3    3  501    0 -0.13369028632E+03 -0.45155609701E+02 -0.53180015805E+02  0.15079865989E+03  0.00000000000E+00 0. -1.
<mgrwt>
<rscale>  0 0.65489789E+03</rscale>
<asrwt>0</asrwt>
<pdfrwt beam="1">0</pdfrwt>
<pdfrwt beam="2">  1        2 0.38990195E+00 0.65489789E+03</pdfrwt>
<totfact> 0.43425322E+00</totfact>
</mgrwt>
</event>
<event>
 5    1  0.2343702E-004  0.6335659E+03  0.7818608E-02  0.9838115E-01
         13   -1    0    0    0    0  0.00000000000E+00  0.00000000000E+00  0.10000000000E+04  0.10000000000E+04  0.00000000000E+00 0. -1.
          2   -1    0    0  501    0 -0.00000000000E+00 -0.00000000000E+00 -0.10035144780E+03  0.10035144780E+03  0.00000000000E+00 0. -1.
    9000006    2    1    2  501    0  0.00000000000E+00  0.00000000000E+00  0.89964855220E+03  0.11003514478E+04  0.63356593281E+03 0.  0.
         13    1    3    3    0    0  0.25307634823E+03 -0.19045625967E+03  0.45937217538E+03  0.55798209684E+03  0.00000000000E+00 0. -1.
          4    1    3    3  501    0 -0.25307634823E+03  0.19045625967E+03  0.44027637682E+03  0.54236935096E+03  0.00000000000E+00 0. -1.
<mgrwt>
<rscale>  0 0.63356593E+03</rscale>
<asrwt>0</asrwt>
<pdfrwt beam="1">0</pdfrwt>
<pdfrwt beam="2">  1        2 0.36491513E+00 0.63356593E+03</pdfrwt>
<totfact> 0.53763400E+00</totfact>
</mgrwt>
</event>
<event>
 5    1  0.2343702E-004  0.6436106E+03  0.7818608E-02  0.9818843E-01
         13   -1    0    0    0    0  0.00000000000E+00  0.00000000000E+00  0.10000000000E+04  0.10000000000E+04  0.00000000000E+00 0. -1.
          2   -1    0    0  501    0 -0.00000000000E+00 -0.00000000000E+00 -0.10355864276E+03  0.10355864276E+03  0.00000000000E+00 0. -1.
    9000006    2    1    2  501    0  0.00000000000E+00  0.00000000000E+00  0.89644135724E+03  0.11035586428E+04  0.64361057405E+03 0.  0.
         13    1    3    3    0    0  0.13572819149E+03  0.28019814721E+03  0.30865406365E+03  0.43840674569E+03  0.00000000000E+00 0. -1.
          2    1    3    3  501    0 -0.13572819149E+03 -0.28019814721E+03  0.58778729359E+03  0.66515189707E+03  0.00000000000E+00 0. -1.
<mgrwt>
<rscale>  0 0.64361057E+03</rscale>
<asrwt>0</asrwt>
<pdfrwt beam="1">0</pdfrwt>
<pdfrwt beam="2">  1        2 0.37657768E+00 0.64361057E+03</pdfrwt>
<totfact> 0.48687092E+00</totfact>
</mgrwt>
</event>
<event>
 5    1  0.2343702E-004  0.6598578E+03  0.7818608E-02  0.9788456E-01
         13   -1    0    0    0    0  0.00000000000E+00  0.00000000000E+00  0.10000000000E+04  0.10000000000E+04  0.00000000000E+00 0. -1.
          2   -1    0    0  501    0 -0.00000000000E+00 -0.00000000000E+00 -0.10885308227E+03  0.10885308227E+03  0.00000000000E+00 0. -1.
    9000006    2    1    2  501    0  0.00000000000E+00  0.00000000000E+00  0.89114691773E+03  0.11088530823E+04  0.65985780975E+03 0.  0.
         13    1    3    3    0    0  0.24810729449E+03 -0.14430921311E+03  0.71897841961E+03  0.77415266352E+03  0.00000000000E+00 0. -1.
          2    1    3    3  501    0 -0.24810729449E+03  0.14430921311E+03  0.17216849811E+03  0.33470041875E+03  0.00000000000E+00 0. -1.
<mgrwt>
<rscale>  0 0.65985781E+03</rscale>
<asrwt>0</asrwt>
<pdfrwt beam="1">0</pdfrwt>
<pdfrwt beam="2">  1        2 0.39583022E+00 0.65985781E+03</pdfrwt>
<totfact> 0.41254371E+00</totfact>
</mgrwt>
</event>
<event>
 5    1  0.2343702E-004  0.6596256E+03  0.7818608E-02  0.9788883E-01
         13   -1    0    0    0    0  0.00000000000E+00  0.00000000000E+00  0.10000000000E+04  0.10000000000E+04  0.00000000000E+00 0. -1.
          2   -1    0    0  501    0 -0.00000000000E+00 -0.00000000000E+00 -0.10877648180E+03  0.10877648180E+03  0.00000000000E+00 0. -1.
    9000006    2    1    2  501    0  0.00000000000E+00  0.00000000000E+00  0.89122351820E+03  0.11087764818E+04  0.65962559624E+03 0.  0.
         13    1    3    3    0    0  0.43278535400E+02 -0.29509020060E+03  0.20893503258E+03  0.36414983998E+03  0.00000000000E+00 0. -1.
          2    1    3    3  501    0 -0.43278535400E+02  0.29509020060E+03  0.68228848561E+03  0.74462664183E+03  0.00000000000E+00 0. -1.
<mgrwt>
<rscale>  0 0.65962560E+03</rscale>
<asrwt>0</asrwt>
<pdfrwt beam="1">0</pdfrwt>
<pdfrwt beam="2">  1        2 0.39555168E+00 0.65962560E+03</pdfrwt>
<totfact> 0.41354136E+00</totfact>
</mgrwt>
</event>
<event>
 5    1  0.2343702E-004  0.6503840E+03  0.7818608E-02  0.9806059E-01
         13   -1    0    0    0    0  0.00000000000E+00  0.00000000000E+00  0.10000000000E+04  0.10000000000E+04  0.00000000000E+00 0. -1.
          2   -1    0    0  501    0 -0.00000000000E+00 -0.00000000000E+00 -0.10574985169E+03  0.10574985169E+03  0.00000000000E+00 0. -1.
    9000006    2    1    2  501    0  0.00000000000E+00  0.00000000000E+00  0.89425014831E+03  0.11057498517E+04  0.65038404560E+03 0.  0.
         13    1    3    3    0    0 -0.46031905568E+02  0.30919166638E+03  0.29476070510E+03  0.42965369329E+03  0.00000000000E+00 0. -1.
          2    1    3    3  501    0  0.46031905568E+02 -0.30919166638E+03  0.59948944321E+03  0.67609615840E+03  0.00000000000E+00 0. -1.
<mgrwt>
<rscale>  0 0.65038405E+03</rscale>
<asrwt>0</asrwt>
<pdfrwt beam="1">0</pdfrwt>
<pdfrwt beam="2">  1        2 0.38454573E+00 0.65038405E+03</pdfrwt>
<totfact> 0.45475065E+00</totfact>
</mgrwt>
</event>
<event>
 5    1  0.2343702E-004  0.6483905E+03  0.7818608E-02  0.9809804E-01
         13   -1    0    0    0    0  0.00000000000E+00  0.00000000000E+00  0.10000000000E+04  0.10000000000E+04  0.00000000000E+00 0. -1.
          2   -1    0    0  501    0 -0.00000000000E+00 -0.00000000000E+00 -0.10510256568E+03  0.10510256568E+03  0.00000000000E+00 0. -1.
    9000006    2    1    2  501    0  0.00000000000E+00  0.00000000000E+00  0.89489743432E+03  0.11051025657E+04  0.64839051714E+03 0.  0.
         13    1    3    3    0    0 -0.28070986944E+03 -0.13282783229E+03  0.28882887271E+03  0.42410303175E+03  0.00000000000E+00 0. -1.
          4    1    3    3  501    0  0.28070986944E+03  0.13282783229E+03  0.60606856162E+03  0.68099953393E+03  0.00000000000E+00 0. -1.
<mgrwt>
<rscale>  0 0.64839052E+03</rscale>
<asrwt>0</asrwt>
<pdfrwt beam="1">0</pdfrwt>
<pdfrwt beam="2">  1        2 0.38219195E+00 0.64839052E+03</pdfrwt>
<totfact> 0.46403237E+00</totfact>
</mgrwt>
</event>
<event>
 5    1  0.2343702E-004  0.6574056E+03  0.7818608E-02  0.9792982E-01
         13   -1    0    0    0    0  0.00000000000E+00  0.00000000000E+00  0.10000000000E+04  0.10000000000E+04  0.00000000000E+00 0. -1.
          2   -1    0    0  501    0 -0.00000000000E+00 -0.00000000000E+00 -0.10804552540E+03  0.10804552540E+03  0.00000000000E+00 0. -1.
    9000006    2    1    2  501    0  0.00000000000E+00  0.00000000000E+00  0.89195447460E+03  0.11080455254E+04  0.65740558381E+03 0.  0.
         13    1    3    3    0    0 -0.30473999234E+03  0.54697966221E+02  0.63204712487E+03  0.70380529871E+03  0.00000000000E+00 0. -1.
          2    1    3    3  501    0  0.30473999234E+03 -0.54697966221E+02  0.25990734973E+03  0.40424022670E+03  0.00000000000E+00 0. -1.
<mgrwt>
<rscale>  0 0.65740558E+03</rscale>
<asrwt>0</asrwt>
<pdfrwt beam="1">0</pdfrwt>
<pdfrwt beam="2">  1        2 0.39289365E+00 0.65740558E+03</pdfrwt>
<totfact> 0.42317170E+00</totfact>
</mgrwt>
</event>
<event>
 5    1  0.2343702E-004  0.6286837E+03  0.7818608E-02  0.9847621E-01
         13   -1    0    0    0    0  0.00000000000E+00  0.00000000000E+00  0.10000000000E+04  0.10000000000E+04  0.00000000000E+00 0. -1.
          2   -1    0    0  501    0 -0.00000000000E+00 -0.00000000000E+00 -0.98810788385E+02  0.98810788385E+02  0.00000000000E+00 0. -1.
    9000006    2    1    2  501    0  0.00000000000E+00  0.00000000000E+00  0.90118921162E+03  0.10988107884E+04  0.62868366731E+03 0.  0.
         13    1    3    3    0    0 -0.11559109736E+03  0.22609180368E+03  0.77444183133E+03  0.81500856167E+03  0.00000000000E+00 0. -1.
          4    1    3    3  501    0  0.11559109736E+03 -0.22609180368E+03  0.12674738029E+03  0.28380222672E+03  0.00000000000E+00 0. -1.
<mgrwt>
<rscale>  0 0.62868367E+03</rscale>
<asrwt>0</asrwt>
<pdfrwt beam="1">0</pdfrwt>
<pdfrwt beam="2">  1        2 0.35931272E+00 0.62868367E+03</pdfrwt>
<totfact> 0.56370945E+00</totfact>
</mgrwt>
</event>
<event>
 5    1  0.2343702E-004  0.6522641E+03  0.7818608E-02  0.9802540E-01
         13   -1    0    0    0    0  0.00000000000E+00  0.00000000000E+00  0.10000000000E+04  0.10000000000E+04  0.00000000000E+00 0. -1.
          2   -1    0    0  501    0 -0.00000000000E+00 -0.00000000000E+00 -0.10636210336E+03  0.10636210336E+03  0.00000000000E+00 0. -1.
    9000006    2    1    2  501    0  0.00000000000E+00  0.00000000000E+00  0.89363789664E+03  0.11063621034E+04  0.65226406725E+03 0.  0.
         13    1    3    3    0    0  0.11077948136E+03  0.29171119432E+03  0.60768503544E+03  0.68311683970E+03  0.00000000000E+00 0. -1.
          4    1    3    3  501    0 -0.11077948136E+03 -0.29171119432E+03  0.28595286120E+03  0.42324526366E+03  0.00000000000E+00 0. -1.
<mgrwt>
<rscale>  0 0.65226407E+03</rscale>
<asrwt>0</asrwt>
<pdfrwt beam="1">0</pdfrwt>
<pdfrwt beam="2">  1        2 0.38677210E+00 0.65226407E+03</pdfrwt>
<totfact> 0.44612660E+00</totfact>
</mgrwt>
</event>
<event>
 5    1  0.2343702E-004  0.6479881E+03  0.7818608E-02  0.9810562E-01
         13   -1    0    0    0    0  0.00000000000E+00  0.00000000000E+00  0.10000000000E+04  0.10000000000E+04  0.00000000000E+00 0. -1.
          2   -1    0    0  501    0 -0.00000000000E+00 -0.00000000000E+00 -0.10497214047E+03  0.10497214047E+03  0.00000000000E+00 0. -1.
    9000006    2    1    2  501    0  0.00000000000E+00  0.00000000000E+00  0.89502785953E+03  0.11049721405E+04  0.64798808776E+03 0.  0.
         13    1    3    3    0    0 -0.24289603728E+03  0.41323958003E+02  0.80628662035E+03  0.84309208785E+03  0.00000000000E+00 0. -1.
          2    1    3    3  501    0  0.24289603728E+03 -0.41323958003E+02  0.88741239175E+02  0.26188005262E+03  0.00000000000E+00 0. -1.
<mgrwt>
<rscale>  0 0.64798809E+03</rscale>
<asrwt>0</asrwt>
<pdfrwt beam="1">0</pdfrwt>
<pdfrwt beam="2">  1        2 0.38171768E+00 0.64798809E+03</pdfrwt>
<totfact> 0.46592330E+00</totfact>
</mgrwt>
</event>
<event>
 5    1  0.2343702E-004  0.6424200E+03  0.7818608E-02  0.9821107E-01
         13   -1    0    0    0    0  0.00000000000E+00  0.00000000000E+00  0.10000000000E+04  0.10000000000E+04  0.00000000000E+00 0. -1.
          2   -1    0    0  501    0 -0.00000000000E+00 -0.00000000000E+00 -0.10317586140E+03  0.10317586140E+03  0.00000000000E+00 0. -1.
    9000006    2    1    2  501    0  0.00000000000E+00  0.00000000000E+00  0.89682413860E+03  0.11031758614E+04  0.64241999160E+03 0.  0.
         13    1    3    3    0    0 -0.31650351666E+03 -0.91570567316E+01  0.54116628131E+03  0.62699224220E+03  0.00000000000E+00 0. -1.
          4    1    3    3  501    0  0.31650351666E+03  0.91570567316E+01  0.35565785729E+03  0.47618361920E+03  0.00000000000E+00 0. -1.
<mgrwt>
<rscale>  0 0.64241999E+03</rscale>
<asrwt>0</asrwt>
<pdfrwt beam="1">0</pdfrwt>
<pdfrwt beam="2">  1        2 0.37518574E+00 0.64241999E+03</pdfrwt>
<totfact> 0.49268960E+00</totfact>
</mgrwt>
</event>
<event>
 5    1  0.2343702E-004  0.6713283E+03  0.7818608E-02  0.9767561E-01
         13   -1    0    0    0    0  0.00000000000E+00  0.00000000000E+00  0.10000000000E+04  0.10000000000E+04  0.00000000000E+00 0. -1.
          2   -1    0    0  501    0 -0.00000000000E+00 -0.00000000000E+00 -0.11267041324E+03  0.11267041324E+03  0.00000000000E+00 0. -1.
    9000006    2    1    2  501    0  0.00000000000E+00  0.00000000000E+00  0.88732958676E+03  0.11126704132E+04  0.67132827512E+03 0.  0.
         13    1    3    3    0    0 -0.16262493909E+03  0.22529945297E+03  0.75578624375E+03  0.80524503138E+03  0.00000000000E+00 0. -1.
          4    1    3    3  501    0  0.16262493909E+03 -0.22529945297E+03  0.13154334301E+03  0.30742538186E+03  0.00000000000E+00 0. -1.
<mgrwt>
<rscale>  0 0.67132828E+03</rscale>
<asrwt>0</asrwt>
<pdfrwt beam="1">0</pdfrwt>
<pdfrwt beam="2">  1        2 0.40971146E+00 0.67132828E+03</pdfrwt>
<totfact> 0.36547982E+00</totfact>
</mgrwt>
</event>
<event>
 5    1  0.2343702E-004  0.6519791E+03  0.7818608E-02  0.9803073E-01
         13   -1    0    0    0    0  0.00000000000E+00  0.00000000000E+00  0.10000000000E+04  0.10000000000E+04  0.00000000000E+00 0. -1.
          2   -1    0    0  501    0 -0.00000000000E+00 -0.00000000000E+00 -0.10626917650E+03  0.10626917650E+03  0.00000000000E+00 0. -1.
    9000006    2    1    2  501    0  0.00000000000E+00  0.00000000000E+00  0.89373082350E+03  0.11062691765E+04  0.65197906869E+03 0.  0.
         13    1    3    3    0    0  0.11753963471E+03  0.29649287396E+03  0.56126438333E+03  0.64555503098E+03  0.00000000000E+00 0. -1.
          2    1    3    3  501    0 -0.11753963471E+03 -0.29649287396E+03  0.33246644017E+03  0.46071414552E+03  0.00000000000E+00 0. -1.
<mgrwt>
<rscale>  0 0.65197907E+03</rscale>
<asrwt>0</asrwt>
<pdfrwt beam="1">0</pdfrwt>
<pdfrwt beam="2">  1        2 0.38643418E+00 0.65197907E+03</pdfrwt>
<totfact> 0.44742594E+00</totfact>
</mgrwt>
</event>
<event>
 5    1  0.2343702E-004  0.6733188E+03  0.7818608E-02  0.9763981E-01
         13   -1    0    0    0    0  0.00000000000E+00  0.00000000000E+00  0.10000000000E+04  0.10000000000E+04  0.00000000000E+00 0. -1.
          2   -1    0    0  501    0 -0.00000000000E+00 -0.00000000000E+00 -0.11333954331E+03  0.11333954331E+03  0.00000000000E+00 0. -1.
    9000006    2    1    2  501    0  0.00000000000E+00  0.00000000000E+00  0.88666045669E+03  0.11133395433E+04  0.67331877535E+03 0.  0.
         13    1    3    3    0    0  0.65453023956E+02 -0.33001873596E+03  0.42355166808E+03  0.54091818232E+03  0.00000000000E+00 0. -1.
          2    1    3    3  501    0 -0.65453023956E+02  0.33001873596E+03  0.46310878861E+03  0.57242136099E+03  0.00000000000E+00 0. -1.
<mgrwt>
<rscale>  0 0.67331878E+03</rscale>
<asrwt>0</asrwt>
<pdfrwt beam="1">0</pdfrwt>
<pdfrwt beam="2">  1        2 0.41214466E+00 0.67331878E+03</pdfrwt>
<totfact> 0.35774416E+00</totfact>
</mgrwt>
</event>
<event>
 5    1  0.2343702E-004  0.6503011E+03  0.7818608E-02  0.9806214E-01
         13   -1    0    0    0    0  0.00000000000E+00  0.00000000000E+00  0.10000000000E+04  0.10000000000E+04  0.00000000000E+00 0. -1.
          2   -1    0    0  501    0 -0.00000000000E+00 -0.00000000000E+00 -0.10572287975E+03  0.10572287975E+03  0.00000000000E+00 0. -1.
    9000006    2    1    2  501    0  0.00000000000E+00  0.00000000000E+00  0.89427712025E+03  0.11057228798E+04  0.65030109873E+03 0.  0.
         13    1    3    3    0    0  0.57031815232E+02  0.25252884532E+02  0.98973270670E+03  0.99169610609E+03  0.00000000000E+00 0. -1.
          4    1    3    3  501    0 -0.57031815232E+02 -0.25252884532E+02 -0.95455586453E+02  0.11402677366E+03  0.00000000000E+00 0. -1.
<mgrwt>
<rscale>  0 0.65030110E+03</rscale>
<asrwt>0</asrwt>
<pdfrwt beam="1">0</pdfrwt>
<pdfrwt beam="2">  1        2 0.38444765E+00 0.65030110E+03</pdfrwt>
<totfact> 0.45513402E+00</totfact>
</mgrwt>
</event>
<event>
 5    1  0.2343702E-004  0.6488670E+03  0.7818608E-02  0.9808908E-01
         13   -1    0    0    0    0  0.00000000000E+00  0.00000000000E+00  0.10000000000E+04  0.10000000000E+04  0.00000000000E+00 0. -1.
          2   -1    0    0  501    0 -0.00000000000E+00 -0.00000000000E+00 -0.10525709133E+03  0.10525709133E+03  0.00000000000E+00 0. -1.
    9000006    2    1    2  501    0  0.00000000000E+00  0.00000000000E+00  0.89474290867E+03  0.11052570913E+04  0.64886698585E+03 0.  0.
         13    1    3    3    0    0 -0.28324500711E+03 -0.51927327193E+02  0.19281724109E+03  0.34655832096E+03  0.00000000000E+00 0. -1.
          2    1    3    3  501    0  0.28324500711E+03  0.51927327193E+02  0.70192566757E+03  0.75869877037E+03  0.00000000000E+00 0. -1.
<mgrwt>
<rscale>  0 0.64886699E+03</rscale>
<asrwt>0</asrwt>
<pdfrwt beam="1">0</pdfrwt>
<pdfrwt beam="2">  1        2 0.38275387E+00 0.64886699E+03</pdfrwt>
<totfact> 0.46180107E+00</totfact>
</mgrwt>
</event>
<event>
 5    1  0.2343702E-004  0.6510349E+03  0.7818608E-02  0.9804839E-01
         13   -1    0    0    0    0  0.00000000000E+00  0.00000000000E+00  0.10000000000E+04  0.10000000000E+04  0.00000000000E+00 0. -1.
          2   -1    0    0  501    0 -0.00000000000E+00 -0.00000000000E+00 -0.10596161927E+03  0.10596161927E+03  0.00000000000E+00 0. -1.
    9000006    2    1    2  501    0  0.00000000000E+00  0.00000000000E+00  0.89403838073E+03  0.11059616193E+04  0.65103492771E+03 0.  0.
         13    1    3    3    0    0 -0.12158737189E+03 -0.23118282244E+03  0.77700428390E+03  0.81973449580E+03  0.00000000000E+00 0. -1.
          2    1    3    3  501    0  0.12158737189E+03  0.23118282244E+03  0.11703409682E+03  0.28622712348E+03  0.00000000000E+00 0. -1.
<mgrwt>
<rscale>  0 0.65103493E+03</rscale>
<asrwt>0</asrwt>
<pdfrwt beam="1">0</pdfrwt>
<pdfrwt beam="2">  1        2 0.38531579E+00 0.65103493E+03</pdfrwt>
<totfact> 0.45175079E+00</totfact>
</mgrwt>
</event>
<event>
 5    1  0.2343702E-004  0.6516018E+03  0.7818608E-02  0.9803778E-01
         13   -1    0    0    0    0  0.00000000000E+00  0.00000000000E+00  0.10000000000E+04  0.10000000000E+04  0.00000000000E+00 0. -1.
          2   -1    0    0  501    0 -0.00000000000E+00 -0.00000000000E+00 -0.10614624189E+03  0.10614624189E+03  0.00000000000E+00 0. -1.
    9000006    2    1    2  501    0  0.00000000000E+00  0.00000000000E+00  0.89385375811E+03  0.11061462419E+04  0.65160184741E+03 0.  0.
         13    1    3    3    0    0 -0.28324172459E+03  0.29443445009E+02  0.71562462204E+03  0.77020217519E+03  0.00000000000E+00 0. -1.
          4    1    3    3  501    0  0.28324172459E+03 -0.29443445009E+02  0.17822913607E+03  0.33594406669E+03  0.00000000000E+00 0. -1.
<mgrwt>
<rscale>  0 0.65160185E+03</rscale>
<asrwt>0</asrwt>
<pdfrwt beam="1">0</pdfrwt>
<pdfrwt beam="2">  1        2 0.38598715E+00 0.65160185E+03</pdfrwt>
<totfact> 0.44915011E+00</totfact>
</mgrwt>
</event>
<event>
 5    1  0.2343702E-004  0.6472290E+03  0.7818608E-02  0.9811993E-01
         13   -1    0    0    0    0  0.00000000000E+00  0.00000000000E+00  0.10000000000E+04  0.10000000000E+04  0.00000000000E+00 0. -1.
          2   -1    0    0  501    0 -0.00000000000E+00 -0.00000000000E+00 -0.10472635661E+03  0.10472635661E+03  0.00000000000E+00 0. -1.
    9000006    2    1    2  501    0  0.00000000000E+00  0.00000000000E+00  0.89527364339E+03  0.11047263566E+04  0.64722903708E+03 0.  0.
         13    1    3    3    0    0 -0.37756813474E+02 -0.27422996211E+03  0.16152230429E+03  0.32049509179E+03  0.00000000000E+00 0. -1.
          2    1    3    3  501    0  0.37756813474E+02  0.27422996211E+03  0.73375133910E+03  0.78423126482E+03  0.00000000000E+00 0. -1.
<mgrwt>
<rscale>  0 0.64722904E+03</rscale>
<asrwt>0</asrwt>
<pdfrwt beam="1">0</pdfrwt>
<pdfrwt beam="2">  1        2 0.38082392E+00 0.64722904E+03</pdfrwt>
<totfact> 0.46950575E+00</totfact>
</mgrwt>
</event>
<event>
 5    1  0.2343702E-004  0.6536761E+03  0.7818608E-02  0.9799906E-01
         13   -1    0    0    0    0  0.00000000000E+00  0.00000000000E+00  0.10000000000E+04  0.10000000000E+04  0.00000000000E+00 0. -1.
          2   -1    0    0  501    0 -0.00000000000E+00 -0.00000000000E+00 -0.10682310130E+03  0.10682310130E+03  0.00000000000E+00 0. -1.
    9000006    2    1    2  501    0  0.00000000000E+00  0.00000000000E+00  0.89317689870E+03  0.11068231013E+04  0.65367607055E+03 0.  0.
         13    1    3    3    0    0 -0.12086847197E+03 -0.24244036227E+03  0.13697017724E+03  0.30355781365E+03  0.00000000000E+00 0. -1.
          2    1    3    3  501    0  0.12086847197E+03  0.24244036227E+03  0.75620672146E+03  0.80326528766E+03  0.00000000000E+00 0. -1.
<mgrwt>
<rscale>  0 0.65367607E+03</rscale>
<asrwt>0</asrwt>
<pdfrwt beam="1">0</pdfrwt>
<pdfrwt beam="2">  1        2 0.38844846E+00 0.65367607E+03</pdfrwt>
<totfact> 0.43973115E+00</totfact>
</mgrwt>
</event>
<event>
 5    1  0.2343702E-004  0.6539922E+03  0.7818608E-02  0.9799317E-01
         13   -1    0    0    0    0  0.00000000000E+00  0.00000000000E+00  0.10000000000E+04  0.10000000000E+04  0.00000000000E+00 0. -1.
          2   -1    0    0  501    0 -0.00000000000E+00 -0.00000000000E+00 -0.10692645722E+03  0.10692645722E+03  0.00000000000E+00 0. -1.
    9000006    2    1    2  501    0  0.00000000000E+00  0.00000000000E+00  0.89307354278E+03  0.11069264572E+04  0.65399222387E+03 0.  0.
         13    1    3    3    0    0  0.66258605795E+02  0.24168474780E+03  0.90997769736E+02  0.26661266710E+03  0.00000000000E+00 0. -1.
          2    1    3    3  501    0 -0.66258605795E+02 -0.24168474780E+03  0.80207577304E+03  0.84031379012E+03  0.00000000000E+00 0. -1.
<mgrwt>
<rscale>  0 0.65399222E+03</rscale>
<asrwt>0</asrwt>
<pdfrwt beam="1">0</pdfrwt>
<pdfrwt beam="2">  1        2 0.38882430E+00 0.65399222E+03</pdfrwt>
<totfact> 0.43830872E+00</totfact>
</mgrwt>
</event>
<event>
 5    1  0.2343702E-004  0.6190821E+03  0.7818608E-02  0.9866589E-01
         13   -1    0    0    0    0  0.00000000000E+00  0.00000000000E+00  0.10000000000E+04  0.10000000000E+04  0.00000000000E+00 0. -1.
          2   -1    0    0  501    0 -0.00000000000E+00 -0.00000000000E+00 -0.95815657914E+02  0.95815657914E+02  0.00000000000E+00 0. -1.
    9000006    2    1    2  501    0  0.00000000000E+00  0.00000000000E+00  0.90418434209E+03  0.10958156579E+04  0.61908208798E+03 0.  0.
         13    1    3    3    0    0  0.34672212586E+02 -0.30755965526E+03  0.46011703915E+03  0.55452934420E+03  0.00000000000E+00 0. -1.
          2    1    3    3  501    0 -0.34672212586E+02  0.30755965526E+03  0.44406730294E+03  0.54128631371E+03  0.00000000000E+00 0. -1.
<mgrwt>
<rscale>  0 0.61908209E+03</rscale>
<asrwt>0</asrwt>
<pdfrwt beam="1">0</pdfrwt>
<pdfrwt beam="2">  1        2 0.34842131E+00 0.61908209E+03</pdfrwt>
<totfact> 0.61778694E+00</totfact>
</mgrwt>
</event>
<event>
 5    1  0.2343702E-004  0.6572629E+03  0.7818608E-02  0.9793246E-01
         13   -1    0    0    0    0  0.00000000000E+00  0.00000000000E+00  0.10000000000E+04  0.10000000000E+04  0.00000000000E+00 0. -1.
          2   -1    0    0  501    0 -0.00000000000E+00 -0.00000000000E+00 -0.10799863002E+03  0.10799863002E+03  0.00000000000E+00 0. -1.
    9000006    2    1    2  501    0  0.00000000000E+00  0.00000000000E+00  0.89200136998E+03  0.11079986300E+04  0.65726290029E+03 0.  0.
         13    1    3    3    0    0 -0.31675764140E+02 -0.32602360404E+03  0.49072576693E+03  0.59000552773E+03  0.00000000000E+00 0. -1.
          4    1    3    3  501    0  0.31675764140E+02  0.32602360404E+03  0.40127560305E+03  0.51799310230E+03  0.00000000000E+00 0. -1.
<mgrwt>
<rscale>  0 0.65726290E+03</rscale>
<asrwt>0</asrwt>
<pdfrwt beam="1">0</pdfrwt>
<pdfrwt beam="2">  1        2 0.39272312E+00 0.65726290E+03</pdfrwt>
<totfact> 0.42379642E+00</totfact>
</mgrwt>
</event>
<event>
 5    1  0.2343702E-004  0.6507812E+03  0.7818608E-02  0.9805314E-01
         13   -1    0    0    0    0  0.00000000000E+00  0.00000000000E+00  0.10000000000E+04  0.10000000000E+04  0.00000000000E+00 0. -1.
          2   -1    0    0  501    0 -0.00000000000E+00 -0.00000000000E+00 -0.10587904206E+03  0.10587904206E+03  0.00000000000E+00 0. -1.
    9000006    2    1    2  501    0  0.00000000000E+00  0.00000000000E+00  0.89412095794E+03  0.11058790421E+04  0.65078119843E+03 0.  0.
         13    1    3    3    0    0 -0.31768959743E+02 -0.26320624174E+03  0.12647020011E+03  0.29373713420E+03  0.00000000000E+00 0. -1.
          4    1    3    3  501    0  0.31768959743E+02  0.26320624174E+03  0.76765075783E+03  0.81214190786E+03  0.00000000000E+00 0. -1.
<mgrwt>
<rscale>  0 0.65078120E+03</rscale>
<asrwt>0</asrwt>
<pdfrwt beam="1">0</pdfrwt>
<pdfrwt beam="2">  1        2 0.38501551E+00 0.65078120E+03</pdfrwt>
<totfact> 0.45291842E+00</totfact>
</mgrwt>
</event>
<event>
 5    1  0.2343702E-004  0.6481224E+03  0.7818608E-02  0.9810309E-01
         13   -1    0    0    0    0  0.00000000000E+00  0.00000000000E+00  0.10000000000E+04  0.10000000000E+04  0.00000000000E+00 0. -1.
          2   -1    0    0  501    0 -0.00000000000E+00 -0.00000000000E+00 -0.10501564607E+03  0.10501564607E+03  0.00000000000E+00 0. -1.
    9000006    2    1    2  501    0  0.00000000000E+00  0.00000000000E+00  0.89498435393E+03  0.11050156461E+04  0.64812235286E+03 0.  0.
         13    1    3    3    0    0  0.18584452997E+03 -0.24779354100E+03  0.28506663990E+03  0.42095465013E+03  0.00000000000E+00 0. -1.
          4    1    3    3  501    0 -0.18584452997E+03  0.24779354100E+03  0.60991771403E+03  0.68406099594E+03  0.00000000000E+00 0. -1.
<mgrwt>
<rscale>  0 0.64812235E+03</rscale>
<asrwt>0</asrwt>
<pdfrwt beam="1">0</pdfrwt>
<pdfrwt beam="2">  1        2 0.38187588E+00 0.64812235E+03</pdfrwt>
<totfact> 0.46529177E+00</totfact>
</mgrwt>
</event>
<event>
 5    1  0.2343702E-004  0.6517950E+03  0.7818608E-02  0.9803417E-01
         13   -1    0    0    0    0  0.00000000000E+00  0.00000000000E+00  0.10000000000E+04  0.10000000000E+04  0.00000000000E+00 0. -1.
          2   -1    0    0  501    0 -0.00000000000E+00 -0.00000000000E+00 -0.10620918778E+03  0.10620918778E+03  0.00000000000E+00 0. -1.
    9000006    2    1    2  501    0  0.00000000000E+00  0.00000000000E+00  0.89379081222E+03  0.11062091878E+04  0.65179502232E+03 0.  0.
         13    1    3    3    0    0  0.20441913494E+03  0.44648221650E+01  0.16194151891E+02  0.20510818590E+03  0.00000000000E+00 0. -1.
          4    1    3    3  501    0 -0.20441913494E+03 -0.44648221650E+01  0.87759666033E+03  0.90110100188E+03  0.00000000000E+00 0. -1.
<mgrwt>
<rscale>  0 0.65179502E+03</rscale>
<asrwt>0</asrwt>
<pdfrwt beam="1">0</pdfrwt>
<pdfrwt beam="2">  1        2 0.38621604E+00 0.65179502E+03</pdfrwt>
<totfact> 0.44826654E+00</totfact>
</mgrwt>
</event>
<event>
 5    1  0.2343702E-004  0.6495358E+03  0.7818608E-02  0.9807651E-01
         13   -1    0    0    0    0  0.00000000000E+00  0.00000000000E+00  0.10000000000E+04  0.10000000000E+04  0.00000000000E+00 0. -1.
          2   -1    0    0  501    0 -0.00000000000E+00 -0.00000000000E+00 -0.10547417376E+03  0.10547417376E+03  0.00000000000E+00 0. -1.
    9000006    2    1    2  501    0  0.00000000000E+00  0.00000000000E+00  0.89452582624E+03  0.11054741738E+04  0.64953575348E+03 0.  0.
         13    1    3    3    0    0 -0.12700249466E+03  0.11882337651E+03  0.91406008011E+03  0.93045927288E+03  0.00000000000E+00 0. -1.
          4    1    3    3  501    0  0.12700249466E+03 -0.11882337651E+03 -0.19534253867E+02  0.17501490088E+03  0.00000000000E+00 0. -1.
<mgrwt>
<rscale>  0 0.64953575E+03</rscale>
<asrwt>0</asrwt>
<pdfrwt beam="1">0</pdfrwt>
<pdfrwt beam="2">  1        2 0.38354326E+00 0.64953575E+03</pdfrwt>
<totfact> 0.45868291E+00</totfact>
</mgrwt>
</event>
<event>
 5    1  0.2343702E-004  0.6630592E+03  0.7818608E-02  0.9782578E-01
         13   -1    0    0    0    0  0.00000000000E+00  0.00000000000E+00  0.10000000000E+04  0.10000000000E+04  0.00000000000E+00 0. -1.
          2   -1    0    0  501    0 -0.00000000000E+00 -0.00000000000E+00 -0.10991188865E+03  0.10991188865E+03  0.00000000000E+00 0. -1.
    9000006    2    1    2  501    0  0.00000000000E+00  0.00000000000E+00  0.89008811135E+03  0.11099118887E+04  0.66305923914E+03 0.  0.
         13    1    3    3    0    0  0.32680315027E+03 -0.37826432618E+02  0.37641819374E+03  0.49992178849E+03  0.00000000000E+00 0. -1.
          2    1    3    3  501    0 -0.32680315027E+03  0.37826432618E+02  0.51366991761E+03  0.60999010016E+03  0.00000000000E+00 0. -1.
<mgrwt>
<rscale>  0 0.66305924E+03</rscale>
<asrwt>0</asrwt>
<pdfrwt beam="1">0</pdfrwt>
<pdfrwt beam="2">  1        2 0.39968044E+00 0.66305924E+03</pdfrwt>
<totfact> 0.39897372E+00</totfact>
</mgrwt>
</event>
<event>
 5    1  0.2343702E-004  0.6389718E+03  0.7818608E-02  0.9827696E-01
         13   -1    0    0    0    0  0.00000000000E+00  0.00000000000E+00  0.10000000000E+04  0.10000000000E+04  0.00000000000E+00 0. -1.
          2   -1    0    0  501    0 -0.00000000000E+00 -0.00000000000E+00 -0.10207124299E+03  0.10207124299E+03  0.00000000000E+00 0. -1.
    9000006    2    1    2  501    0  0.00000000000E+00  0.00000000000E+00  0.89792875701E+03  0.11020712430E+04  0.63897180842E+03 0.  0.
         13    1    3    3    0    0 -0.94215459326E+02 -0.81762821411E+02  0.95625864304E+03  0.96436108597E+03  0.00000000000E+00 0. -1.
          2    1    3    3  501    0  0.94215459326E+02  0.81762821411E+02 -0.58329886034E+02  0.13771015702E+03  0.00000000000E+00 0. -1.
<mgrwt>
<rscale>  0 0.63897181E+03</rscale>
<asrwt>0</asrwt>
<pdfrwt beam="1">0</pdfrwt>
<pdfrwt beam="2">  1        2 0.37116894E+00 0.63897181E+03</pdfrwt>
<totfact> 0.50984030E+00</totfact>
</mgrwt>
</event>
<event>
 5    1  0.2343702E-004  0.5560067E+03  0.7818608E-02  0.1000113E+00
         13   -1    0    0    0    0  0.00000000000E+00  0.00000000000E+00  0.10000000000E+04  0.10000000000E+04  0.00000000000E+00 0. -1.
          2   -1    0    0  501    0 -0.00000000000E+00 -0.00000000000E+00 -0.77285865343E+02  0.77285865343E+02  0.00000000000E+00 0. -1.
    9000006    2    1    2  501    0  0.00000000000E+00  0.00000000000E+00  0.92271413466E+03  0.10772858653E+04  0.55600670983E+03 0.  0.
         13    1    3    3    0    0 -0.58743246586E+02 -0.26199134568E+03  0.32169769581E+03  0.41902224490E+03  0.00000000000E+00 0. -1.
          2    1    3    3  501    0  0.58743246586E+02  0.26199134568E+03  0.60101643884E+03  0.65826362044E+03  0.00000000000E+00 0. -1.
<mgrwt>
<rscale>  0 0.55600671E+03</rscale>
<asrwt>0</asrwt>
<pdfrwt beam="1">0</pdfrwt>
<pdfrwt beam="2">  1        2 0.28104010E+00 0.55600671E+03</pdfrwt>
<totfact> 0.10791895E+01</totfact>
</mgrwt>
</event>
<event>
 5    1  0.2343702E-004  0.6482635E+03  0.7818608E-02  0.9810043E-01
         13   -1    0    0    0    0  0.00000000000E+00  0.00000000000E+00  0.10000000000E+04  0.10000000000E+04  0.00000000000E+00 0. -1.
          2   -1    0    0  501    0 -0.00000000000E+00 -0.00000000000E+00 -0.10506140588E+03  0.10506140588E+03  0.00000000000E+00 0. -1.
    9000006    2    1    2  501    0  0.00000000000E+00  0.00000000000E+00  0.89493859412E+03  0.11050614059E+04  0.64826354481E+03 0.  0.
         13    1    3    3    0    0 -0.11437311069E+03  0.30259541872E+03  0.41269238084E+03  0.52436647212E+03  0.00000000000E+00 0. -1.
          4    1    3    3  501    0  0.11437311069E+03 -0.30259541872E+03  0.48224621328E+03  0.58069493377E+03  0.00000000000E+00 0. -1.
<mgrwt>
<rscale>  0 0.64826354E+03</rscale>
<asrwt>0</asrwt>
<pdfrwt beam="1">0</pdfrwt>
<pdfrwt beam="2">  1        2 0.38204228E+00 0.64826354E+03</pdfrwt>
<totfact> 0.46462836E+00</totfact>
</mgrwt>
</event>
<event>
 5    1  0.2343702E-004  0.6597246E+03  0.7818608E-02  0.9788701E-01
         13   -1    0    0    0    0  0.00000000000E+00  0.00000000000E+00  0.10000000000E+04  0.10000000000E+04  0.00000000000E+00 0. -1.
          2   -1    0    0  501    0 -0.00000000000E+00 -0.00000000000E+00 -0.10880914117E+03  0.10880914117E+03  0.00000000000E+00 0. -1.
    9000006    2    1    2  501    0  0.00000000000E+00  0.00000000000E+00  0.89119085883E+03  0.11088091412E+04  0.65972461276E+03 0.  0.
         13    1    3    3    0    0  0.89435099352E+02  0.17397690178E+03 -0.79992154279E+00  0.19562014013E+03  0.00000000000E+00 0. -1.
          2    1    3    3  501    0 -0.89435099352E+02 -0.17397690178E+03  0.89199078037E+03  0.91318900104E+03  0.00000000000E+00 0. -1.
<mgrwt>
<rscale>  0 0.65972461E+03</rscale>
<asrwt>0</asrwt>
<pdfrwt beam="1">0</pdfrwt>
<pdfrwt beam="2">  1        2 0.39567044E+00 0.65972461E+03</pdfrwt>
<totfact> 0.41311574E+00</totfact>
</mgrwt>
</event>
<event>
 5    1  0.2343702E-004  0.6294795E+03  0.7818608E-02  0.9846065E-01
         13   -1    0    0    0    0  0.00000000000E+00  0.00000000000E+00  0.10000000000E+04  0.10000000000E+04  0.00000000000E+00 0. -1.
          2   -1    0    0  501    0 -0.00000000000E+00 -0.00000000000E+00 -0.99061117810E+02  0.99061117810E+02  0.00000000000E+00 0. -1.
    9000006    2    1    2  501    0  0.00000000000E+00  0.00000000000E+00  0.90093888219E+03  0.10990611178E+04  0.62947952408E+03 0.  0.
         13    1    3    3    0    0 -0.20151483926E+03  0.10542134278E+03  0.70585599666E+02  0.23812647235E+03  0.00000000000E+00 0. -1.
          2    1    3    3  501    0  0.20151483926E+03 -0.10542134278E+03  0.83035328252E+03  0.86093464546E+03  0.00000000000E+00 0. -1.
<mgrwt>
<rscale>  0 0.62947952E+03</rscale>
<asrwt>0</asrwt>
<pdfrwt beam="1">0</pdfrwt>
<pdfrwt beam="2">  1        2 0.36022301E+00 0.62947952E+03</pdfrwt>
<totfact> 0.55939478E+00</totfact>
</mgrwt>
</event>
<event>
 5    1  0.2343702E-004  0.6493837E+03  0.7818608E-02  0.9807936E-01
         13   -1    0    0    0    0  0.00000000000E+00  0.00000000000E+00  0.10000000000E+04  0.10000000000E+04  0.00000000000E+00 0. -1.
          2   -1    0    0  501    0 -0.00000000000E+00 -0.00000000000E+00 -0.10542478578E+03  0.10542478578E+03  0.00000000000E+00 0. -1.
    9000006    2    1    2  501    0  0.00000000000E+00  0.00000000000E+00  0.89457521422E+03  0.11054247858E+04  0.64938366403E+03 0.  0.
         13    1    3    3    0    0 -0.19578180153E+03  0.18937212345E+03  0.14645077256E+03  0.30925740692E+03  0.00000000000E+00 0. -1.
          2    1    3    3  501    0  0.19578180153E+03 -0.18937212345E+03  0.74812444166E+03  0.79616737886E+03  0.00000000000E+00 0. -1.
<mgrwt>
<rscale>  0 0.64938366E+03</rscale>
<asrwt>0</asrwt>
<pdfrwt beam="1">0</pdfrwt>
<pdfrwt beam="2">  1        2 0.38336367E+00 0.64938366E+03</pdfrwt>
<totfact> 0.45939063E+00</totfact>
</mgrwt>
</event>
<event>
 5    1  0.2343702E-004  0.6592215E+03  0.7818608E-02  0.9789628E-01
         13   -1    0    0    0    0  0.00000000000E+00  0.00000000000E+00  0.10000000000E+04  0.10000000000E+04  0.00000000000E+00 0. -1.
          2   -1    0    0  501    0 -0.00000000000E+00 -0.00000000000E+00 -0.10864323713E+03  0.10864323713E+03  0.00000000000E+00 0. -1.
    9000006    2    1    2  501    0  0.00000000000E+00  0.00000000000E+00  0.89135676287E+03  0.11086432371E+04  0.65922147151E+03 0.  0.
         13    1    3    3    0    0 -0.19284274794E+02  0.13142492313E+03 -0.61637436987E+02  0.14643622268E+03  0.00000000000E+00 0. -1.
          4    1    3    3  501    0  0.19284274794E+02 -0.13142492313E+03  0.95299419986E+03  0.96220701444E+03  0.00000000000E+00 0. -1.
<mgrwt>
<rscale>  0 0.65922147E+03</rscale>
<asrwt>0</asrwt>
<pdfrwt beam="1">0</pdfrwt>
<pdfrwt beam="2">  1        2 0.39506715E+00 0.65922147E+03</pdfrwt>
<totfact> 0.41528194E+00</totfact>
</mgrwt>
</event>
<event>
 5    1  0.2343702E-004  0.6500103E+03  0.7818608E-02  0.9806760E-01
         13   -1    0    0    0    0  0.00000000000E+00  0.00000000000E+00  0.10000000000E+04  0.10000000000E+04  0.00000000000E+00 0. -1.
          2   -1    0    0  501    0 -0.00000000000E+00 -0.00000000000E+00 -0.10562835727E+03  0.10562835727E+03  0.00000000000E+00 0. -1.
    9000006    2    1    2  501    0  0.00000000000E+00  0.00000000000E+00  0.89437164273E+03  0.11056283573E+04  0.65001032997E+03 0.  0.
         13    1    3    3    0    0 -0.15355070488E+03  0.13966266099E+02  0.93383141435E+03  0.94647450361E+03  0.00000000000E+00 0. -1.
          4    1    3    3  501    0  0.15355070488E+03 -0.13966266099E+02 -0.39459771615E+02  0.15915385366E+03  0.00000000000E+00 0. -1.
<mgrwt>
<rscale>  0 0.65001033E+03</rscale>
<asrwt>0</asrwt>
<pdfrwt beam="1">0</pdfrwt>
<pdfrwt beam="2">  1        2 0.38410393E+00 0.65001033E+03</pdfrwt>
<totfact> 0.45647986E+00</totfact>
</mgrwt>
</event>
<event>
 5    1  0.2343702E-004  0.6495609E+03  0.7818608E-02  0.9807603E-01
         13   -1    0    0    0    0  0.00000000000E+00  0.00000000000E+00  0.10000000000E+04  0.10000000000E+04  0.00000000000E+00 0. -1.
          2   -1    0    0  501    0 -0.00000000000E+00 -0.00000000000E+00 -0.10548235087E+03  0.10548235087E+03  0.00000000000E+00 0. -1.
    9000006    2    1    2  501    0  0.00000000000E+00  0.00000000000E+00  0.89451764913E+03  0.11054823509E+04  0.64956093132E+03 0.  0.
         13    1    3    3    0    0  0.32556173485E+02 -0.12799229418E+03 -0.57719768696E+02  0.14413016166E+03  0.00000000000E+00 0. -1.
          4    1    3    3  501    0 -0.32556173485E+02  0.12799229418E+03  0.95223741782E+03  0.96135218921E+03  0.00000000000E+00 0. -1.
<mgrwt>
<rscale>  0 0.64956093E+03</rscale>
<asrwt>0</asrwt>
<pdfrwt beam="1">0</pdfrwt>
<pdfrwt beam="2">  1        2 0.38357299E+00 0.64956093E+03</pdfrwt>
<totfact> 0.45856583E+00</totfact>
</mgrwt>
</event>
<event>
 5    1  0.2343702E-004  0.6579377E+03  0.7818608E-02  0.9791998E-01
         13   -1    0    0    0    0  0.00000000000E+00  0.00000000000E+00  0.10000000000E+04  0.10000000000E+04  0.00000000000E+00 0. -1.
          2   -1    0    0  501    0 -0.00000000000E+00 -0.00000000000E+00 -0.10822051306E+03  0.10822051306E+03  0.00000000000E+00 0. -1.
    9000006    2    1    2  501    0  0.00000000000E+00  0.00000000000E+00  0.89177948694E+03  0.11082205131E+04  0.65793772672E+03 0.  0.
         13    1    3    3    0    0 -0.20012121713E+03 -0.13514262227E+03  0.82218485821E+03  0.85691304750E+03  0.00000000000E+00 0. -1.
          2    1    3    3  501    0  0.20012121713E+03  0.13514262227E+03  0.69594628729E+02  0.25130746556E+03  0.00000000000E+00 0. -1.
<mgrwt>
<rscale>  0 0.65793773E+03</rscale>
<asrwt>0</asrwt>
<pdfrwt beam="1">0</pdfrwt>
<pdfrwt beam="2">  1        2 0.39352997E+00 0.65793773E+03</pdfrwt>
<totfact> 0.42084789E+00</totfact>
</mgrwt>
</event>
<event>
 5    1  0.2343702E-004  0.4584807E+03  0.7818608E-02  0.1025223E+00
         13   -1    0    0    0    0  0.00000000000E+00  0.00000000000E+00  0.10000000000E+04  0.10000000000E+04  0.00000000000E+00 0. -1.
          2   -1    0    0  501    0 -0.00000000000E+00 -0.00000000000E+00 -0.52551148725E+02  0.52551148725E+02  0.00000000000E+00 0. -1.
    9000006    2    1    2  501    0  0.00000000000E+00  0.00000000000E+00  0.94744885128E+03  0.10525511487E+04  0.45848074649E+03 0.  0.
         13    1    3    3    0    0 -0.80377119203E+02  0.31858115146E+02  0.96113335527E+03  0.96501437679E+03  0.00000000000E+00 0. -1.
          2    1    3    3  501    0  0.80377119203E+02 -0.31858115146E+02 -0.13684503993E+02  0.87536771940E+02  0.00000000000E+00 0. -1.
<mgrwt>
<rscale>  0 0.45848075E+03</rscale>
<asrwt>0</asrwt>
<pdfrwt beam="1">0</pdfrwt>
<pdfrwt beam="2">  1        2 0.19109549E+00 0.45848075E+03</pdfrwt>
<totfact> 0.22955529E+01</totfact>
</mgrwt>
</event>
<event>
 5    1  0.2343702E-004  0.6663802E+03  0.7818608E-02  0.9776519E-01
         13   -1    0    0    0    0  0.00000000000E+00  0.00000000000E+00  0.10000000000E+04  0.10000000000E+04  0.00000000000E+00 0. -1.
          2   -1    0    0  501    0 -0.00000000000E+00 -0.00000000000E+00 -0.11101564835E+03  0.11101564835E+03  0.00000000000E+00 0. -1.
    9000006    2    1    2  501    0  0.00000000000E+00  0.00000000000E+00  0.88898435165E+03  0.11110156483E+04  0.66638021684E+03 0.  0.
         13    1    3    3    0    0 -0.77238893313E+02 -0.18998691511E+03  0.66876472878E+01  0.20519648920E+03  0.00000000000E+00 0. -1.
          4    1    3    3  501    0  0.77238893313E+02  0.18998691511E+03  0.88229670436E+03  0.90581915915E+03  0.00000000000E+00 0. -1.
<mgrwt>
<rscale>  0 0.66638022E+03</rscale>
<asrwt>0</asrwt>
<pdfrwt beam="1">0</pdfrwt>
<pdfrwt beam="2">  1        2 0.40369412E+00 0.66638022E+03</pdfrwt>
<totfact> 0.38525564E+00</totfact>
</mgrwt>
</event>
<event>
 5    1  0.2343702E-004  0.6463912E+03  0.7818608E-02  0.9813574E-01
         13   -1    0    0    0    0  0.00000000000E+00  0.00000000000E+00  0.10000000000E+04  0.10000000000E+04  0.00000000000E+00 0. -1.
          2   -1    0    0  501    0 -0.00000000000E+00 -0.00000000000E+00 -0.10445539793E+03  0.10445539793E+03  0.00000000000E+00 0. -1.
    9000006    2    1    2  501    0  0.00000000000E+00  0.00000000000E+00  0.89554460207E+03  0.11044553979E+04  0.64639120640E+03 0.  0.
         13    1    3    3    0    0  0.26303440298E+03  0.72242926970E+02  0.15158281696E+03  0.31206327571E+03  0.00000000000E+00 0. -1.
          2    1    3    3  501    0 -0.26303440298E+03 -0.72242926970E+02  0.74396178511E+03  0.79239212222E+03  0.00000000000E+00 0. -1.
<mgrwt>
<rscale>  0 0.64639121E+03</rscale>
<asrwt>0</asrwt>
<pdfrwt beam="1">0</pdfrwt>
<pdfrwt beam="2">  1        2 0.37983861E+00 0.64639121E+03</pdfrwt>
<totfact> 0.47348416E+00</totfact>
</mgrwt>
</event>
<event>
 5    1  0.2343702E-004  0.6509002E+03  0.7818608E-02  0.9805091E-01
         13   -1    0    0    0    0  0.00000000000E+00  0.00000000000E+00  0.10000000000E+04  0.10000000000E+04  0.00000000000E+00 0. -1.
          2   -1    0    0  501    0 -0.00000000000E+00 -0.00000000000E+00 -0.10591778268E+03  0.10591778268E+03  0.00000000000E+00 0. -1.
    9000006    2    1    2  501    0  0.00000000000E+00  0.00000000000E+00  0.89408221732E+03  0.11059177827E+04  0.65090024636E+03 0.  0.
         13    1    3    3    0    0  0.16142808850E+03 -0.23754578395E+03  0.18696434569E+03  0.34269913012E+03  0.00000000000E+00 0. -1.
          2    1    3    3  501    0 -0.16142808850E+03  0.23754578395E+03  0.70711787163E+03  0.76321865255E+03  0.00000000000E+00 0. -1.
<mgrwt>
<rscale>  0 0.65090025E+03</rscale>
<asrwt>0</asrwt>
<pdfrwt beam="1">0</pdfrwt>
<pdfrwt beam="2">  1        2 0.38515639E+00 0.65090025E+03</pdfrwt>
<totfact> 0.45237029E+00</totfact>
</mgrwt>
</event>
<event>
 5    1  0.2343702E-004  0.6215928E+03  0.7818608E-02  0.9861593E-01
         13   -1    0    0    0    0  0.00000000000E+00  0.00000000000E+00  0.10000000000E+04  0.10000000000E+04  0.00000000000E+00 0. -1.
          2   -1    0    0  501    0 -0.00000000000E+00 -0.00000000000E+00 -0.96594413713E+02  0.96594413713E+02  0.00000000000E+00 0. -1.
    9000006    2    1    2  501    0  0.00000000000E+00  0.00000000000E+00  0.90340558629E+03  0.10965944137E+04  0.62159283687E+03 0.  0.
         13    1    3    3    0    0 -0.30041425071E+03  0.67899346523E+02  0.37821146023E+03  0.48775296199E+03  0.00000000000E+00 0. -1.
          2    1    3    3  501    0  0.30041425071E+03 -0.67899346523E+02  0.52519412606E+03  0.60884145172E+03  0.00000000000E+00 0. -1.
<mgrwt>
<rscale>  0 0.62159284E+03</rscale>
<asrwt>0</asrwt>
<pdfrwt beam="1">0</pdfrwt>
<pdfrwt beam="2">  1        2 0.35125315E+00 0.62159284E+03</pdfrwt>
<totfact> 0.60328068E+00</totfact>
</mgrwt>
</event>
<event>
 5    1  0.2343702E-004  0.6518897E+03  0.7818608E-02  0.9803240E-01
         13   -1    0    0    0    0  0.00000000000E+00  0.00000000000E+00  0.10000000000E+04  0.10000000000E+04  0.00000000000E+00 0. -1.
          2   -1    0    0  501    0 -0.00000000000E+00 -0.00000000000E+00 -0.10624004988E+03  0.10624004988E+03  0.00000000000E+00 0. -1.
    9000006    2    1    2  501    0  0.00000000000E+00  0.00000000000E+00  0.89375995012E+03  0.11062400499E+04  0.65188971424E+03 0.  0.
         13    1    3    3    0    0 -0.12432206896E+03 -0.27810494555E+03  0.25013549936E+03  0.39416507406E+03  0.00000000000E+00 0. -1.
          4    1    3    3  501    0  0.12432206896E+03  0.27810494555E+03  0.64362445076E+03  0.71207497582E+03  0.00000000000E+00 0. -1.
<mgrwt>
<rscale>  0 0.65188971E+03</rscale>
<asrwt>0</asrwt>
<pdfrwt beam="1">0</pdfrwt>
<pdfrwt beam="2">  1        2 0.38632827E+00 0.65188971E+03</pdfrwt>
<totfact> 0.44783390E+00</totfact>
</mgrwt>
</event>
<event>
 5    1  0.2343702E-004  0.7427865E+03  0.7818608E-02  0.9646736E-01
         13   -1    0    0    0    0  0.00000000000E+00  0.00000000000E+00  0.10000000000E+04  0.10000000000E+04  0.00000000000E+00 0. -1.
          2   -1    0    0  501    0 -0.00000000000E+00 -0.00000000000E+00 -0.13793294753E+03  0.13793294753E+03  0.00000000000E+00 0. -1.
    9000006    2    1    2  501    0  0.00000000000E+00  0.00000000000E+00  0.86206705247E+03  0.11379329475E+04  0.74278650373E+03 0.  0.
         13    1    3    3    0    0 -0.36400887466E+03  0.68527735911E+02  0.47255088126E+03  0.60041889278E+03  0.00000000000E+00 0. -1.
          4    1    3    3  501    0  0.36400887466E+03 -0.68527735911E+02  0.38951617121E+03  0.53751405475E+03  0.00000000000E+00 0. -1.
<mgrwt>
<rscale>  0 0.74278650E+03</rscale>
<asrwt>0</asrwt>
<pdfrwt beam="1">0</pdfrwt>
<pdfrwt beam="2">  1        2 0.50157541E+00 0.74278650E+03</pdfrwt>
<totfact> 0.15637360E+00</totfact>
</mgrwt>
</event>
<event>
 5    1  0.2343702E-004  0.5917925E+03  0.7818608E-02  0.9922582E-01
         13   -1    0    0    0    0  0.00000000000E+00  0.00000000000E+00  0.10000000000E+04  0.10000000000E+04  0.00000000000E+00 0. -1.
          2   -1    0    0  501    0 -0.00000000000E+00 -0.00000000000E+00 -0.87554591452E+02  0.87554591452E+02  0.00000000000E+00 0. -1.
    9000006    2    1    2  501    0  0.00000000000E+00  0.00000000000E+00  0.91244540855E+03  0.10875545915E+04  0.59179250232E+03 0.  0.
         13    1    3    3    0    0 -0.20180444916E+03 -0.71453814703E+02  0.83160526952E+03  0.85871881756E+03  0.00000000000E+00 0. -1.
          4    1    3    3  501    0  0.20180444916E+03  0.71453814703E+02  0.80840139027E+02  0.22883577389E+03  0.00000000000E+00 0. -1.
<mgrwt>
<rscale>  0 0.59179250E+03</rscale>
<asrwt>0</asrwt>
<pdfrwt beam="1">0</pdfrwt>
<pdfrwt beam="2">  1        2 0.31838100E+00 0.59179250E+03</pdfrwt>
<totfact> 0.79328978E+00</totfact>
</mgrwt>
</event>
<event>
 5    1  0.2343702E-004  0.6574569E+03  0.7818608E-02  0.9792887E-01
         13   -1    0    0    0    0  0.00000000000E+00  0.00000000000E+00  0.10000000000E+04  0.10000000000E+04  0.00000000000E+00 0. -1.
          2   -1    0    0  501    0 -0.00000000000E+00 -0.00000000000E+00 -0.10806240174E+03  0.10806240174E+03  0.00000000000E+00 0. -1.
    9000006    2    1    2  501    0  0.00000000000E+00  0.00000000000E+00  0.89193759826E+03  0.11080624017E+04  0.65745692402E+03 0.  0.
         13    1    3    3    0    0 -0.13604708921E+03 -0.27252874185E+03  0.23762412130E+03  0.38632363200E+03  0.00000000000E+00 0. -1.
          4    1    3    3  501    0  0.13604708921E+03  0.27252874185E+03  0.65431347696E+03  0.72173876974E+03  0.00000000000E+00 0. -1.
<mgrwt>
<rscale>  0 0.65745692E+03</rscale>
<asrwt>0</asrwt>
<pdfrwt beam="1">0</pdfrwt>
<pdfrwt beam="2">  1        2 0.39295502E+00 0.65745692E+03</pdfrwt>
<totfact> 0.42294708E+00</totfact>
</mgrwt>
</event>
<event>
 5    1  0.2343702E-004  0.6465648E+03  0.7818608E-02  0.9813246E-01
         13   -1    0    0    0    0  0.00000000000E+00  0.00000000000E+00  0.10000000000E+04  0.10000000000E+04  0.00000000000E+00 0. -1.
          2   -1    0    0  501    0 -0.00000000000E+00 -0.00000000000E+00 -0.10451152622E+03  0.10451152622E+03  0.00000000000E+00 0. -1.
    9000006    2    1    2  501    0  0.00000000000E+00  0.00000000000E+00  0.89548847378E+03  0.11045115262E+04  0.64656484969E+03 0.  0.
         13    1    3    3    0    0 -0.11368824741E+02 -0.15106125064E+03 -0.40125812422E+02  0.15671257909E+03  0.00000000000E+00 0. -1.
          2    1    3    3  501    0  0.11368824741E+02  0.15106125064E+03  0.93561428621E+03  0.94779894713E+03  0.00000000000E+00 0. -1.
<mgrwt>
<rscale>  0 0.64656485E+03</rscale>
<asrwt>0</asrwt>
<pdfrwt beam="1">0</pdfrwt>
<pdfrwt beam="2">  1        2 0.38004271E+00 0.64656485E+03</pdfrwt>
<totfact> 0.47265754E+00</totfact>
</mgrwt>
</event>
<event>
 5    1  0.2343702E-004  0.6344496E+03  0.7818608E-02  0.9836404E-01
         13   -1    0    0    0    0  0.00000000000E+00  0.00000000000E+00  0.10000000000E+04  0.10000000000E+04  0.00000000000E+00 0. -1.
          2   -1    0    0  501    0 -0.00000000000E+00 -0.00000000000E+00 -0.10063156887E+03  0.10063156887E+03  0.00000000000E+00 0. -1.
    9000006    2    1    2  501    0  0.00000000000E+00  0.00000000000E+00  0.89936843113E+03  0.11006315689E+04  0.63444958465E+03 0.  0.
         13    1    3    3    0    0 -0.14026543554E+03 -0.19390911620E+03  0.88464363100E+02  0.25514913539E+03  0.00000000000E+00 0. -1.
          2    1    3    3  501    0  0.14026543554E+03  0.19390911620E+03  0.81090406804E+03  0.84548243347E+03  0.00000000000E+00 0. -1.
<mgrwt>
<rscale>  0 0.63444958E+03</rscale>
<asrwt>0</asrwt>
<pdfrwt beam="1">0</pdfrwt>
<pdfrwt beam="2">  1        2 0.36593375E+00 0.63444958E+03</pdfrwt>
<totfact> 0.53301412E+00</totfact>
</mgrwt>
</event>
<event>
 5    1  0.2343702E-004  0.6591186E+03  0.7818608E-02  0.9789818E-01
         13   -1    0    0    0    0  0.00000000000E+00  0.00000000000E+00  0.10000000000E+04  0.10000000000E+04  0.00000000000E+00 0. -1.
          2   -1    0    0  501    0 -0.00000000000E+00 -0.00000000000E+00 -0.10860932164E+03  0.10860932164E+03  0.00000000000E+00 0. -1.
    9000006    2    1    2  501    0  0.00000000000E+00  0.00000000000E+00  0.89139067836E+03  0.11086093216E+04  0.65911856792E+03 0.  0.
         13    1    3    3    0    0  0.16977620010E+03  0.15008443712E+03  0.43218635553E+02  0.23068841941E+03  0.00000000000E+00 0. -1.
          2    1    3    3  501    0 -0.16977620010E+03 -0.15008443712E+03  0.84817204280E+03  0.87792090224E+03  0.00000000000E+00 0. -1.
<mgrwt>
<rscale>  0 0.65911857E+03</rscale>
<asrwt>0</asrwt>
<pdfrwt beam="1">0</pdfrwt>
<pdfrwt beam="2">  1        2 0.39494382E+00 0.65911857E+03</pdfrwt>
<totfact> 0.41572603E+00</totfact>
</mgrwt>
</event>
<event>
 5    1  0.2343702E-004  0.6474275E+03  0.7818608E-02  0.9811618E-01
         13   -1    0    0    0    0  0.00000000000E+00  0.00000000000E+00  0.10000000000E+04  0.10000000000E+04  0.00000000000E+00 0. -1.
          2   -1    0    0  501    0 -0.00000000000E+00 -0.00000000000E+00 -0.10479060705E+03  0.10479060705E+03  0.00000000000E+00 0. -1.
    9000006    2    1    2  501    0  0.00000000000E+00  0.00000000000E+00  0.89520939295E+03  0.11047906071E+04  0.64742754668E+03 0.  0.
         13    1    3    3    0    0 -0.25788291152E+03 -0.11033930267E+02  0.78097194558E+03  0.82252205043E+03  0.00000000000E+00 0. -1.
          2    1    3    3  501    0  0.25788291152E+03  0.11033930267E+02  0.11423744737E+03  0.28226855662E+03  0.00000000000E+00 0. -1.
<mgrwt>
<rscale>  0 0.64742755E+03</rscale>
<asrwt>0</asrwt>
<pdfrwt beam="1">0</pdfrwt>
<pdfrwt beam="2">  1        2 0.38105756E+00 0.64742755E+03</pdfrwt>
<totfact> 0.46856685E+00</totfact>
</mgrwt>
</event>
<event>
 5    1  0.2343702E-004  0.6491251E+03  0.7818608E-02  0.9808422E-01
         13   -1    0    0    0    0  0.00000000000E+00  0.00000000000E+00  0.10000000000E+04  0.10000000000E+04  0.00000000000E+00 0. -1.
          2   -1    0    0  501    0 -0.00000000000E+00 -0.00000000000E+00 -0.10534086368E+03  0.10534086368E+03  0.00000000000E+00 0. -1.
    9000006    2    1    2  501    0  0.00000000000E+00  0.00000000000E+00  0.89465913632E+03  0.11053408637E+04  0.64912514564E+03 0.  0.
         13    1    3    3    0    0 -0.77386369002E+02 -0.21791733075E+03  0.59534888899E+02  0.23879073715E+03  0.00000000000E+00 0. -1.
          2    1    3    3  501    0  0.77386369002E+02  0.21791733075E+03  0.83512424743E+03  0.86655012653E+03  0.00000000000E+00 0. -1.
<mgrwt>
<rscale>  0 0.64912515E+03</rscale>
<asrwt>0</asrwt>
<pdfrwt beam="1">0</pdfrwt>
<pdfrwt beam="2">  1        2 0.38305849E+00 0.64912515E+03</pdfrwt>
<totfact> 0.46059550E+00</totfact>
</mgrwt>
</event>
<event>
 5    1  0.2343702E-004  0.6478316E+03  0.7818608E-02  0.9810857E-01
         13   -1    0    0    0    0  0.00000000000E+00  0.00000000000E+00  0.10000000000E+04  0.10000000000E+04  0.00000000000E+00 0. -1.
          2   -1    0    0  501    0 -0.00000000000E+00 -0.00000000000E+00 -0.10492144914E+03  0.10492144914E+03  0.00000000000E+00 0. -1.
    9000006    2    1    2  501    0  0.00000000000E+00  0.00000000000E+00  0.89507855086E+03  0.11049214491E+04  0.64783161128E+03 0.  0.
         13    1    3    3    0    0 -0.93873947198E+02  0.18399282062E+03  0.87309759370E+03  0.89719846418E+03  0.00000000000E+00 0. -1.
          2    1    3    3  501    0  0.93873947198E+02 -0.18399282062E+03  0.21980957155E+02  0.20772298496E+03  0.00000000000E+00 0. -1.
<mgrwt>
<rscale>  0 0.64783161E+03</rscale>
<asrwt>0</asrwt>
<pdfrwt beam="1">0</pdfrwt>
<pdfrwt beam="2">  1        2 0.38153335E+00 0.64783161E+03</pdfrwt>
<totfact> 0.46666011E+00</totfact>
</mgrwt>
</event>
<event>
 5    1  0.2343702E-004  0.6338818E+03  0.7818608E-02  0.9837503E-01
         13   -1    0    0    0    0  0.00000000000E+00  0.00000000000E+00  0.10000000000E+04  0.10000000000E+04  0.00000000000E+00 0. -1.
          2   -1    0    0  501    0 -0.00000000000E+00 -0.00000000000E+00 -0.10045152481E+03  0.10045152481E+03  0.00000000000E+00 0. -1.
    9000006    2    1    2  501    0  0.00000000000E+00  0.00000000000E+00  0.89954847519E+03  0.11004515248E+04  0.63388177070E+03 0.  0.
         13    1    3    3    0    0  0.11143905957E+03 -0.16440520977E+03  0.87856068972E+03  0.90073115996E+03  0.00000000000E+00 0. -1.
          4    1    3    3  501    0 -0.11143905957E+03  0.16440520977E+03  0.20987785475E+02  0.19972036485E+03  0.00000000000E+00 0. -1.
<mgrwt>
<rscale>  0 0.63388177E+03</rscale>
<asrwt>0</asrwt>
<pdfrwt beam="1">0</pdfrwt>
<pdfrwt beam="2">  1        2 0.36527904E+00 0.63388177E+03</pdfrwt>
<totfact> 0.53597928E+00</totfact>
</mgrwt>
</event>
<event>
 5    1  0.2343702E-004  0.6480324E+03  0.7818608E-02  0.9810478E-01
         13   -1    0    0    0    0  0.00000000000E+00  0.00000000000E+00  0.10000000000E+04  0.10000000000E+04  0.00000000000E+00 0. -1.
          2   -1    0    0  501    0 -0.00000000000E+00 -0.00000000000E+00 -0.10498649651E+03  0.10498649651E+03  0.00000000000E+00 0. -1.
    9000006    2    1    2  501    0  0.00000000000E+00  0.00000000000E+00  0.89501350349E+03  0.11049864965E+04  0.64803239582E+03 0.  0.
         13    1    3    3    0    0 -0.24327770504E+03 -0.14496319764E+03  0.71596830687E+03  0.76994089830E+03  0.00000000000E+00 0. -1.
          4    1    3    3  501    0  0.24327770504E+03  0.14496319764E+03  0.17904519662E+03  0.33504559820E+03  0.00000000000E+00 0. -1.
<mgrwt>
<rscale>  0 0.64803240E+03</rscale>
<asrwt>0</asrwt>
<pdfrwt beam="1">0</pdfrwt>
<pdfrwt beam="2">  1        2 0.38176988E+00 0.64803240E+03</pdfrwt>
<totfact> 0.46571482E+00</totfact>
</mgrwt>
</event>
<event>
 5    1  0.2343702E-004  0.6439549E+03  0.7818608E-02  0.9818189E-01
         13   -1    0    0    0    0  0.00000000000E+00  0.00000000000E+00  0.10000000000E+04  0.10000000000E+04  0.00000000000E+00 0. -1.
          2   -1    0    0  501    0 -0.00000000000E+00 -0.00000000000E+00 -0.10366947380E+03  0.10366947380E+03  0.00000000000E+00 0. -1.
    9000006    2    1    2  501    0  0.00000000000E+00  0.00000000000E+00  0.89633052620E+03  0.11036694738E+04  0.64395488600E+03 0.  0.
         13    1    3    3    0    0 -0.20991138968E+03 -0.23779923129E+03  0.54294534711E+03  0.62880912515E+03  0.00000000000E+00 0. -1.
          4    1    3    3  501    0  0.20991138968E+03  0.23779923129E+03  0.35338517909E+03  0.47486034865E+03  0.00000000000E+00 0. -1.
<mgrwt>
<rscale>  0 0.64395489E+03</rscale>
<asrwt>0</asrwt>
<pdfrwt beam="1">0</pdfrwt>
<pdfrwt beam="2">  1        2 0.37698070E+00 0.64395489E+03</pdfrwt>
<totfact> 0.48519795E+00</totfact>
</mgrwt>
</event>
<event>
 5    1  0.2343702E-004  0.6494099E+03  0.7818608E-02  0.9807887E-01
         13   -1    0    0    0    0  0.00000000000E+00  0.00000000000E+00  0.10000000000E+04  0.10000000000E+04  0.00000000000E+00 0. -1.
          2   -1    0    0  501    0 -0.00000000000E+00 -0.00000000000E+00 -0.10543331529E+03  0.10543331529E+03  0.00000000000E+00 0. -1.
    9000006    2    1    2  501    0  0.00000000000E+00  0.00000000000E+00  0.89456668471E+03  0.11054333153E+04  0.64940993306E+03 0.  0.
         13    1    3    3    0    0  0.25051329166E+03  0.98422505442E+02  0.13811078489E+03  0.30252022706E+03  0.00000000000E+00 0. -1.
          4    1    3    3  501    0 -0.25051329166E+03 -0.98422505442E+02  0.75645589982E+03  0.80291308823E+03  0.00000000000E+00 0. -1.
<mgrwt>
<rscale>  0 0.64940993E+03</rscale>
<asrwt>0</asrwt>
<pdfrwt beam="1">0</pdfrwt>
<pdfrwt beam="2">  1        2 0.38339468E+00 0.64940993E+03</pdfrwt>
<totfact> 0.45926834E+00</totfact>
</mgrwt>
</event>
<event>
 5    1  0.2343702E-004  0.6510728E+03  0.7818608E-02  0.9804768E-01
         13   -1    0    0    0    0  0.00000000000E+00  0.00000000000E+00  0.10000000000E+04  0.10000000000E+04  0.00000000000E+00 0. -1.
          2   -1    0    0  501    0 -0.00000000000E+00 -0.00000000000E+00 -0.10597394017E+03  0.10597394017E+03  0.00000000000E+00 0. -1.
    9000006    2    1    2  501    0  0.00000000000E+00  0.00000000000E+00  0.89402605983E+03  0.11059739402E+04  0.65107277681E+03 0.  0.
         13    1    3    3    0    0  0.23901831745E+03  0.21041296667E+03  0.33217111553E+03  0.46015325991E+03  0.00000000000E+00 0. -1.
          2    1    3    3  501    0 -0.23901831745E+03 -0.21041296667E+03  0.56185494430E+03  0.64582068026E+03  0.00000000000E+00 0. -1.
<mgrwt>
<rscale>  0 0.65107278E+03</rscale>
<asrwt>0</asrwt>
<pdfrwt beam="1">0</pdfrwt>
<pdfrwt beam="2">  1        2 0.38536060E+00 0.65107278E+03</pdfrwt>
<totfact> 0.45157681E+00</totfact>
</mgrwt>
</event>
<event>
 5    1  0.2343702E-004  0.6372904E+03  0.7818608E-02  0.9830925E-01
         13   -1    0    0    0    0  0.00000000000E+00  0.00000000000E+00  0.10000000000E+04  0.10000000000E+04  0.00000000000E+00 0. -1.
          2   -1    0    0  501    0 -0.00000000000E+00 -0.00000000000E+00 -0.10153475532E+03  0.10153475532E+03  0.00000000000E+00 0. -1.
    9000006    2    1    2  501    0  0.00000000000E+00  0.00000000000E+00  0.89846524468E+03  0.11015347553E+04  0.63729037439E+03 0.  0.
         13    1    3    3    0    0  0.30594286100E+03 -0.40505444966E+02  0.58634944732E+03  0.66260651947E+03  0.00000000000E+00 0. -1.
          4    1    3    3  501    0 -0.30594286100E+03  0.40505444966E+02  0.31211579736E+03  0.43892823585E+03  0.00000000000E+00 0. -1.
<mgrwt>
<rscale>  0 0.63729037E+03</rscale>
<asrwt>0</asrwt>
<pdfrwt beam="1">0</pdfrwt>
<pdfrwt beam="2">  1        2 0.36921807E+00 0.63729037E+03</pdfrwt>
<totfact> 0.51836563E+00</totfact>
</mgrwt>
</event>
<event>
 5    1  0.2343702E-004  0.6529041E+03  0.7818608E-02  0.9801345E-01
         13   -1    0    0    0    0  0.00000000000E+00  0.00000000000E+00  0.10000000000E+04  0.10000000000E+04  0.00000000000E+00 0. -1.
          2   -1    0    0  501    0 -0.00000000000E+00 -0.00000000000E+00 -0.10657095212E+03  0.10657095212E+03  0.00000000000E+00 0. -1.
    9000006    2    1    2  501    0  0.00000000000E+00  0.00000000000E+00  0.89342904788E+03  0.11065709521E+04  0.65290413423E+03 0.  0.
         13    1    3    3    0    0 -0.68266645144E+02  0.27336173207E+03  0.16727593873E+03  0.32767088836E+03  0.00000000000E+00 0. -1.
          2    1    3    3  501    0  0.68266645144E+02 -0.27336173207E+03  0.72615310915E+03  0.77890006376E+03  0.00000000000E+00 0. -1.
<mgrwt>
<rscale>  0 0.65290413E+03</rscale>
<asrwt>0</asrwt>
<pdfrwt beam="1">0</pdfrwt>
<pdfrwt beam="2">  1        2 0.38753155E+00 0.65290413E+03</pdfrwt>
<totfact> 0.44321887E+00</totfact>
</mgrwt>
</event>
<event>
 5    1  0.2343702E-004  0.6457204E+03  0.7818608E-02  0.9814843E-01
         13   -1    0    0    0    0  0.00000000000E+00  0.00000000000E+00  0.10000000000E+04  0.10000000000E+04  0.00000000000E+00 0. -1.
          2   -1    0    0  501    0 -0.00000000000E+00 -0.00000000000E+00 -0.10423871971E+03  0.10423871971E+03  0.00000000000E+00 0. -1.
    9000006    2    1    2  501    0  0.00000000000E+00  0.00000000000E+00  0.89576128029E+03  0.11042387197E+04  0.64572043396E+03 0.  0.
         13    1    3    3    0    0  0.12806083415E+03 -0.15016274099E+03  0.10919563841E+02  0.19765541455E+03  0.00000000000E+00 0. -1.
          2    1    3    3  501    0 -0.12806083415E+03  0.15016274099E+03  0.88484171645E+03  0.90658330516E+03  0.00000000000E+00 0. -1.
<mgrwt>
<rscale>  0 0.64572043E+03</rscale>
<asrwt>0</asrwt>
<pdfrwt beam="1">0</pdfrwt>
<pdfrwt beam="2">  1        2 0.37905069E+00 0.64572043E+03</pdfrwt>
<totfact> 0.47668764E+00</totfact>
</mgrwt>
</event>
<event>
 5    1  0.2343702E-004  0.6538444E+03  0.7818608E-02  0.9799592E-01
         13   -1    0    0    0    0  0.00000000000E+00  0.00000000000E+00  0.10000000000E+04  0.10000000000E+04  0.00000000000E+00 0. -1.
          2   -1    0    0  501    0 -0.00000000000E+00 -0.00000000000E+00 -0.10687813612E+03  0.10687813612E+03  0.00000000000E+00 0. -1.
    9000006    2    1    2  501    0  0.00000000000E+00  0.00000000000E+00  0.89312186388E+03  0.11068781361E+04  0.65384443446E+03 0.  0.
         13    1    3    3    0    0  0.11747284181E+03 -0.10343145077E+03 -0.39327775104E+02  0.16138341757E+03  0.00000000000E+00 0. -1.
          2    1    3    3  501    0 -0.11747284181E+03  0.10343145077E+03  0.93244963898E+03  0.94549471855E+03  0.00000000000E+00 0. -1.
<mgrwt>
<rscale>  0 0.65384443E+03</rscale>
<asrwt>0</asrwt>
<pdfrwt beam="1">0</pdfrwt>
<pdfrwt beam="2">  1        2 0.38864859E+00 0.65384443E+03</pdfrwt>
<totfact> 0.43897322E+00</totfact>
</mgrwt>
</event>
<event>
 5    1  0.2343702E-004  0.6357313E+03  0.7818608E-02  0.9833928E-01
         13   -1    0    0    0    0  0.00000000000E+00  0.00000000000E+00  0.10000000000E+04  0.10000000000E+04  0.00000000000E+00 0. -1.
          2   -1    0    0  501    0 -0.00000000000E+00 -0.00000000000E+00 -0.10103858388E+03  0.10103858388E+03  0.00000000000E+00 0. -1.
    9000006    2    1    2  501    0  0.00000000000E+00  0.00000000000E+00  0.89896141612E+03  0.11010385839E+04  0.63573133909E+03 0.  0.
         13    1    3    3    0    0 -0.18134894209E+03 -0.19561146660E+03  0.74889481134E+03  0.79498095771E+03  0.00000000000E+00 0. -1.
          4    1    3    3  501    0  0.18134894209E+03  0.19561146660E+03  0.15006660478E+03  0.30605762617E+03  0.00000000000E+00 0. -1.
<mgrwt>
<rscale>  0 0.63573134E+03</rscale>
<asrwt>0</asrwt>
<pdfrwt beam="1">0</pdfrwt>
<pdfrwt beam="2">  1        2 0.36741381E+00 0.63573134E+03</pdfrwt>
<totfact> 0.52636646E+00</totfact>
</mgrwt>
</event>
<event>
 5    1  0.2343702E-004  0.6402686E+03  0.7818608E-02  0.9825213E-01
         13   -1    0    0    0    0  0.00000000000E+00  0.00000000000E+00  0.10000000000E+04  0.10000000000E+04  0.00000000000E+00 0. -1.
          2   -1    0    0  501    0 -0.00000000000E+00 -0.00000000000E+00 -0.10248598312E+03  0.10248598312E+03  0.00000000000E+00 0. -1.
    9000006    2    1    2  501    0  0.00000000000E+00  0.00000000000E+00  0.89751401688E+03  0.11024859831E+04  0.64026864087E+03 0.  0.
         13    1    3    3    0    0 -0.18834856155E+03  0.82308633481E+02  0.87136649020E+03  0.89528177242E+03  0.00000000000E+00 0. -1.
          2    1    3    3  501    0  0.18834856155E+03 -0.82308633481E+02  0.26147526680E+02  0.20720421070E+03  0.00000000000E+00 0. -1.
<mgrwt>
<rscale>  0 0.64026864E+03</rscale>
<asrwt>0</asrwt>
<pdfrwt beam="1">0</pdfrwt>
<pdfrwt beam="2">  1        2 0.37267709E+00 0.64026864E+03</pdfrwt>
<totfact> 0.50333788E+00</totfact>
</mgrwt>
</event>
<event>
 5    1  0.2343702E-004  0.6419736E+03  0.7818608E-02  0.9821958E-01
         13   -1    0    0    0    0  0.00000000000E+00  0.00000000000E+00  0.10000000000E+04  0.10000000000E+04  0.00000000000E+00 0. -1.
          2   -1    0    0  501    0 -0.00000000000E+00 -0.00000000000E+00 -0.10303253570E+03  0.10303253570E+03  0.00000000000E+00 0. -1.
    9000006    2    1    2  501    0  0.00000000000E+00  0.00000000000E+00  0.89696746430E+03  0.11030325357E+04  0.64197363093E+03 0.  0.
         13    1    3    3    0    0  0.27285490873E+03  0.16614887180E+03  0.50219707337E+03  0.59519505149E+03  0.00000000000E+00 0. -1.
          4    1    3    3  501    0 -0.27285490873E+03 -0.16614887180E+03  0.39477039093E+03  0.50783748421E+03  0.00000000000E+00 0. -1.
<mgrwt>
<rscale>  0 0.64197363E+03</rscale>
<asrwt>0</asrwt>
<pdfrwt beam="1">0</pdfrwt>
<pdfrwt beam="2">  1        2 0.37466456E+00 0.64197363E+03</pdfrwt>
<totfact> 0.49488474E+00</totfact>
</mgrwt>
</event>
<event>
 5    1  0.2343702E-004  0.7064945E+03  0.7818608E-02  0.9706190E-01
         13   -1    0    0    0    0  0.00000000000E+00  0.00000000000E+00  0.10000000000E+04  0.10000000000E+04  0.00000000000E+00 0. -1.
          2   -1    0    0  501    0 -0.00000000000E+00 -0.00000000000E+00 -0.12478363434E+03  0.12478363434E+03  0.00000000000E+00 0. -1.
    9000006    2    1    2  501    0  0.00000000000E+00  0.00000000000E+00  0.87521636566E+03  0.11247836343E+04  0.70649454163E+03 0.  0.
         13    1    3    3    0    0  0.22712290905E+03  0.10300686735E+03  0.83590525667E+03  0.87231463857E+03  0.00000000000E+00 0. -1.
          2    1    3    3  501    0 -0.22712290905E+03 -0.10300686735E+03  0.39311108995E+02  0.25246899577E+03  0.00000000000E+00 0. -1.
<mgrwt>
<rscale>  0 0.70649454E+03</rscale>
<asrwt>0</asrwt>
<pdfrwt beam="1">0</pdfrwt>
<pdfrwt beam="2">  1        2 0.45375963E+00 0.70649454E+03</pdfrwt>
<totfact> 0.24605952E+00</totfact>
</mgrwt>
</event>
<event>
 5    1  0.2343702E-004  0.6512802E+03  0.7818608E-02  0.9804380E-01
         13   -1    0    0    0    0  0.00000000000E+00  0.00000000000E+00  0.10000000000E+04  0.10000000000E+04  0.00000000000E+00 0. -1.
          2   -1    0    0  501    0 -0.00000000000E+00 -0.00000000000E+00 -0.10604147866E+03  0.10604147866E+03  0.00000000000E+00 0. -1.
    9000006    2    1    2  501    0  0.00000000000E+00  0.00000000000E+00  0.89395852134E+03  0.11060414787E+04  0.65128021207E+03 0.  0.
         13    1    3    3    0    0 -0.19244089049E+03  0.19264340312E+03  0.14367741235E+03  0.30787688435E+03  0.00000000000E+00 0. -1.
          2    1    3    3  501    0  0.19244089049E+03 -0.19264340312E+03  0.75028110899E+03  0.79816459431E+03  0.00000000000E+00 0. -1.
<mgrwt>
<rscale>  0 0.65128021E+03</rscale>
<asrwt>0</asrwt>
<pdfrwt beam="1">0</pdfrwt>
<pdfrwt beam="2">  1        2 0.38560619E+00 0.65128021E+03</pdfrwt>
<totfact> 0.45062419E+00</totfact>
</mgrwt>
</event>
<event>
 5    1  0.2343702E-004  0.6501437E+03  0.7818608E-02  0.9806510E-01
         13   -1    0    0    0    0  0.00000000000E+00  0.00000000000E+00  0.10000000000E+04  0.10000000000E+04  0.00000000000E+00 0. -1.
          2   -1    0    0  501    0 -0.00000000000E+00 -0.00000000000E+00 -0.10567170060E+03  0.10567170060E+03  0.00000000000E+00 0. -1.
    9000006    2    1    2  501    0  0.00000000000E+00  0.00000000000E+00  0.89432829940E+03  0.11056717006E+04  0.65014367827E+03 0.  0.
         13    1    3    3    0    0  0.23112875369E+03  0.19187224590E+03  0.65845837421E+03  0.72374228155E+03  0.00000000000E+00 0. -1.
          4    1    3    3  501    0 -0.23112875369E+03 -0.19187224590E+03  0.23586992519E+03  0.38192941905E+03  0.00000000000E+00 0. -1.
<mgrwt>
<rscale>  0 0.65014368E+03</rscale>
<asrwt>0</asrwt>
<pdfrwt beam="1">0</pdfrwt>
<pdfrwt beam="2">  1        2 0.38426154E+00 0.65014368E+03</pdfrwt>
<totfact> 0.45586227E+00</totfact>
</mgrwt>
</event>
<event>
 5    1  0.2343702E-004  0.6541403E+03  0.7818608E-02  0.9799041E-01
         13   -1    0    0    0    0  0.00000000000E+00  0.00000000000E+00  0.10000000000E+04  0.10000000000E+04  0.00000000000E+00 0. -1.
          2   -1    0    0  501    0 -0.00000000000E+00 -0.00000000000E+00 -0.10697489330E+03  0.10697489330E+03  0.00000000000E+00 0. -1.
    9000006    2    1    2  501    0  0.00000000000E+00  0.00000000000E+00  0.89302510670E+03  0.11069748933E+04  0.65414033143E+03 0.  0.
         13    1    3    3    0    0  0.32961889726E+02  0.22005861351E+03  0.85217007456E+03  0.88074179845E+03  0.00000000000E+00 0. -1.
          4    1    3    3  501    0 -0.32961889726E+02 -0.22005861351E+03  0.40855032137E+02  0.22623309485E+03  0.00000000000E+00 0. -1.
<mgrwt>
<rscale>  0 0.65414033E+03</rscale>
<asrwt>0</asrwt>
<pdfrwt beam="1">0</pdfrwt>
<pdfrwt beam="2">  1        2 0.38900043E+00 0.65414033E+03</pdfrwt>
<totfact> 0.43764356E+00</totfact>
</mgrwt>
</event>
<event>
 5    1  0.2343702E-004  0.6518155E+03  0.7818608E-02  0.9803379E-01
         13   -1    0    0    0    0  0.00000000000E+00  0.00000000000E+00  0.10000000000E+04  0.10000000000E+04  0.00000000000E+00 0. -1.
          2   -1    0    0  501    0 -0.00000000000E+00 -0.00000000000E+00 -0.10621584902E+03  0.10621584902E+03  0.00000000000E+00 0. -1.
    9000006    2    1    2  501    0  0.00000000000E+00  0.00000000000E+00  0.89378415098E+03  0.11062158490E+04  0.65181546168E+03 0.  0.
         13    1    3    3    0    0  0.55527896216E+02  0.26985803533E+03  0.74235435444E+03  0.79183122826E+03  0.00000000000E+00 0. -1.
          4    1    3    3  501    0 -0.55527896216E+02 -0.26985803533E+03  0.15142979654E+03  0.31438462076E+03  0.00000000000E+00 0. -1.
<mgrwt>
<rscale>  0 0.65181546E+03</rscale>
<asrwt>0</asrwt>
<pdfrwt beam="1">0</pdfrwt>
<pdfrwt beam="2">  1        2 0.38624027E+00 0.65181546E+03</pdfrwt>
<totfact> 0.44817312E+00</totfact>
</mgrwt>
</event>
<event>
 5    1  0.2343702E-004  0.6492646E+03  0.7818608E-02  0.9808160E-01
         13   -1    0    0    0    0  0.00000000000E+00  0.00000000000E+00  0.10000000000E+04  0.10000000000E+04  0.00000000000E+00 0. -1.
          2   -1    0    0  501    0 -0.00000000000E+00 -0.00000000000E+00 -0.10538614591E+03  0.10538614591E+03  0.00000000000E+00 0. -1.
    9000006    2    1    2  501    0  0.00000000000E+00  0.00000000000E+00  0.89461385409E+03  0.11053861459E+04  0.64926464840E+03 0.  0.
         13    1    3    3    0    0  0.19721517766E+01  0.13105549076E+03 -0.58335007546E+02  0.14346568978E+03  0.00000000000E+00 0. -1.
          2    1    3    3  501    0 -0.19721517766E+01 -0.13105549076E+03  0.95294886163E+03  0.96192045613E+03  0.00000000000E+00 0. -1.
<mgrwt>
<rscale>  0 0.64926465E+03</rscale>
<asrwt>0</asrwt>
<pdfrwt beam="1">0</pdfrwt>
<pdfrwt beam="2">  1        2 0.38322316E+00 0.64926465E+03</pdfrwt>
<totfact> 0.45994503E+00</totfact>
</mgrwt>
</event>
<event>
 5    1  0.2343702E-004  0.6457888E+03  0.7818608E-02  0.9814714E-01
         13   -1    0    0    0    0  0.00000000000E+00  0.00000000000E+00  0.10000000000E+04  0.10000000000E+04  0.00000000000E+00 0. -1.
          2   -1    0    0  501    0 -0.00000000000E+00 -0.00000000000E+00 -0.10426077989E+03  0.10426077989E+03  0.00000000000E+00 0. -1.
    9000006    2    1    2  501    0  0.00000000000E+00  0.00000000000E+00  0.89573922011E+03  0.11042607799E+04  0.64578875769E+03 0.  0.
         13    1    3    3    0    0  0.25109280791E+01 -0.32112375411E+03  0.50545198163E+03  0.59883927389E+03  0.00000000000E+00 0. -1.
          4    1    3    3  501    0 -0.25109280791E+01  0.32112375411E+03  0.39028723848E+03  0.50542150600E+03  0.00000000000E+00 0. -1.
<mgrwt>
<rscale>  0 0.64578876E+03</rscale>
<asrwt>0</asrwt>
<pdfrwt beam="1">0</pdfrwt>
<pdfrwt beam="2">  1        2 0.37913091E+00 0.64578876E+03</pdfrwt>
<totfact> 0.47636059E+00</totfact>
</mgrwt>
</event>
<event>
 5    1  0.2343702E-004  0.6370696E+03  0.7818608E-02  0.9831349E-01
         13   -1    0    0    0    0  0.00000000000E+00  0.00000000000E+00  0.10000000000E+04  0.10000000000E+04  0.00000000000E+00 0. -1.
          2   -1    0    0  501    0 -0.00000000000E+00 -0.00000000000E+00 -0.10146442605E+03  0.10146442605E+03  0.00000000000E+00 0. -1.
    9000006    2    1    2  501    0  0.00000000000E+00  0.00000000000E+00  0.89853557395E+03  0.11014644261E+04  0.63706962273E+03 0.  0.
         13    1    3    3    0    0 -0.28530566336E+03  0.13896629054E+03  0.40180886309E+03  0.51201690784E+03  0.00000000000E+00 0. -1.
          2    1    3    3  501    0  0.28530566336E+03 -0.13896629054E+03  0.49672671086E+03  0.58944751822E+03  0.00000000000E+00 0. -1.
<mgrwt>
<rscale>  0 0.63706962E+03</rscale>
<asrwt>0</asrwt>
<pdfrwt beam="1">0</pdfrwt>
<pdfrwt beam="2">  1        2 0.36896233E+00 0.63706962E+03</pdfrwt>
<totfact> 0.51949287E+00</totfact>
</mgrwt>
</event>
<event>
 5    1  0.2343702E-004  0.6497528E+03  0.7818608E-02  0.9807243E-01
         13   -1    0    0    0    0  0.00000000000E+00  0.00000000000E+00  0.10000000000E+04  0.10000000000E+04  0.00000000000E+00 0. -1.
          2   -1    0    0  501    0 -0.00000000000E+00 -0.00000000000E+00 -0.10554468714E+03  0.10554468714E+03  0.00000000000E+00 0. -1.
    9000006    2    1    2  501    0  0.00000000000E+00  0.00000000000E+00  0.89445531286E+03  0.11055446871E+04  0.64975283652E+03 0.  0.
         13    1    3    3    0    0 -0.17374836429E+03 -0.18731434972E+03  0.78866921828E+03  0.82902008152E+03  0.00000000000E+00 0. -1.
          4    1    3    3  501    0  0.17374836429E+03  0.18731434972E+03  0.10578609458E+03  0.27652460562E+03  0.00000000000E+00 0. -1.
<mgrwt>
<rscale>  0 0.64975284E+03</rscale>
<asrwt>0</asrwt>
<pdfrwt beam="1">0</pdfrwt>
<pdfrwt beam="2">  1        2 0.38379967E+00 0.64975284E+03</pdfrwt>
<totfact> 0.45767419E+00</totfact>
</mgrwt>
</event>
<event>
 5    1  0.2343702E-004  0.6362846E+03  0.7818608E-02  0.9832861E-01
         13   -1    0    0    0    0  0.00000000000E+00  0.00000000000E+00  0.10000000000E+04  0.10000000000E+04  0.00000000000E+00 0. -1.
          2   -1    0    0  501    0 -0.00000000000E+00 -0.00000000000E+00 -0.10121453463E+03  0.10121453463E+03  0.00000000000E+00 0. -1.
    9000006    2    1    2  501    0  0.00000000000E+00  0.00000000000E+00  0.89878546537E+03  0.11012145346E+04  0.63628463639E+03 0.  0.
         13    1    3    3    0    0 -0.19637595898E+03  0.12344904894E+03  0.72548687269E+02  0.24303599933E+03  0.00000000000E+00 0. -1.
          4    1    3    3  501    0  0.19637595898E+03 -0.12344904894E+03  0.82623677810E+03  0.85817853529E+03  0.00000000000E+00 0. -1.
<mgrwt>
<rscale>  0 0.63628464E+03</rscale>
<asrwt>0</asrwt>
<pdfrwt beam="1">0</pdfrwt>
<pdfrwt beam="2">  1        2 0.36805363E+00 0.63628464E+03</pdfrwt>
<totfact> 0.52351635E+00</totfact>
</mgrwt>
</event>
<event>
 5    1  0.2343702E-004  0.6666771E+03  0.7818608E-02  0.9775979E-01
         13   -1    0    0    0    0  0.00000000000E+00  0.00000000000E+00  0.10000000000E+04  0.10000000000E+04  0.00000000000E+00 0. -1.
          2   -1    0    0  501    0 -0.00000000000E+00 -0.00000000000E+00 -0.11111457557E+03  0.11111457557E+03  0.00000000000E+00 0. -1.
    9000006    2    1    2  501    0  0.00000000000E+00  0.00000000000E+00  0.88888542443E+03  0.11111145756E+04  0.66667705997E+03 0.  0.
         13    1    3    3    0    0 -0.16610806844E+03 -0.71611073160E+02  0.91108730678E+03  0.92887034444E+03  0.00000000000E+00 0. -1.
          4    1    3    3  501    0  0.16610806844E+03  0.71611073160E+02 -0.22201882354E+02  0.18224423113E+03  0.00000000000E+00 0. -1.
<mgrwt>
<rscale>  0 0.66667706E+03</rscale>
<asrwt>0</asrwt>
<pdfrwt beam="1">0</pdfrwt>
<pdfrwt beam="2">  1        2 0.40405385E+00 0.66667706E+03</pdfrwt>
<totfact> 0.38404701E+00</totfact>
</mgrwt>
</event>
<event>
 5    1  0.2343702E-004  0.6667585E+03  0.7818608E-02  0.9775831E-01
         13   -1    0    0    0    0  0.00000000000E+00  0.00000000000E+00  0.10000000000E+04  0.10000000000E+04  0.00000000000E+00 0. -1.
          2   -1    0    0  501    0 -0.00000000000E+00 -0.00000000000E+00 -0.11114173204E+03  0.11114173204E+03  0.00000000000E+00 0. -1.
    9000006    2    1    2  501    0  0.00000000000E+00  0.00000000000E+00  0.88885826796E+03  0.11111417320E+04  0.66675852314E+03 0.  0.
         13    1    3    3    0    0  0.65269151275E+02  0.16024747025E+03 -0.30452490026E+02  0.17568912311E+03  0.00000000000E+00 0. -1.
          2    1    3    3  501    0 -0.65269151275E+02 -0.16024747025E+03  0.91931075798E+03  0.93545260894E+03  0.00000000000E+00 0. -1.
<mgrwt>
<rscale>  0 0.66675852E+03</rscale>
<asrwt>0</asrwt>
<pdfrwt beam="1">0</pdfrwt>
<pdfrwt beam="2">  1        2 0.40415261E+00 0.66675852E+03</pdfrwt>
<totfact> 0.38371583E+00</totfact>
</mgrwt>
</event>
<event>
 5    1  0.2343702E-004  0.6307263E+03  0.7818608E-02  0.9843632E-01
         13   -1    0    0    0    0  0.00000000000E+00  0.00000000000E+00  0.10000000000E+04  0.10000000000E+04  0.00000000000E+00 0. -1.
          2   -1    0    0  501    0 -0.00000000000E+00 -0.00000000000E+00 -0.99453920985E+02  0.99453920985E+02  0.00000000000E+00 0. -1.
    9000006    2    1    2  501    0  0.00000000000E+00  0.00000000000E+00  0.90054607901E+03  0.10994539210E+04  0.63072631461E+03 0.  0.
         13    1    3    3    0    0 -0.30771613948E+03  0.33631952773E+02  0.55534916663E+03  0.63579322709E+03  0.00000000000E+00 0. -1.
          4    1    3    3  501    0  0.30771613948E+03 -0.33631952773E+02  0.34519691238E+03  0.46366069389E+03  0.00000000000E+00 0. -1.
<mgrwt>
<rscale>  0 0.63072631E+03</rscale>
<asrwt>0</asrwt>
<pdfrwt beam="1">0</pdfrwt>
<pdfrwt beam="2">  1        2 0.36165138E+00 0.63072631E+03</pdfrwt>
<totfact> 0.55268587E+00</totfact>
</mgrwt>
</event>
<event>
 5    1  0.2343702E-004  0.6495780E+03  0.7818608E-02  0.9807571E-01
         13   -1    0    0    0    0  0.00000000000E+00  0.00000000000E+00  0.10000000000E+04  0.10000000000E+04  0.00000000000E+00 0. -1.
          2   -1    0    0  501    0 -0.00000000000E+00 -0.00000000000E+00 -0.10548788309E+03  0.10548788309E+03  0.00000000000E+00 0. -1.
    9000006    2    1    2  501    0  0.00000000000E+00  0.00000000000E+00  0.89451211691E+03  0.11054878831E+04  0.64957796481E+03 0.  0.
         13    1    3    3    0    0  0.27653269590E+03  0.84871496950E+02  0.69861488579E+03  0.75613243651E+03  0.00000000000E+00 0. -1.
          2    1    3    3  501    0 -0.27653269590E+03 -0.84871496950E+02  0.19589723112E+03  0.34935544658E+03  0.00000000000E+00 0. -1.
<mgrwt>
<rscale>  0 0.64957796E+03</rscale>
<asrwt>0</asrwt>
<pdfrwt beam="1">0</pdfrwt>
<pdfrwt beam="2">  1        2 0.38359311E+00 0.64957796E+03</pdfrwt>
<totfact> 0.45848664E+00</totfact>
</mgrwt>
</event>
<event>
 5    1  0.2343702E-004  0.6480418E+03  0.7818608E-02  0.9810461E-01
         13   -1    0    0    0    0  0.00000000000E+00  0.00000000000E+00  0.10000000000E+04  0.10000000000E+04  0.00000000000E+00 0. -1.
          2   -1    0    0  501    0 -0.00000000000E+00 -0.00000000000E+00 -0.10498953732E+03  0.10498953732E+03  0.00000000000E+00 0. -1.
    9000006    2    1    2  501    0  0.00000000000E+00  0.00000000000E+00  0.89501046268E+03  0.11049895373E+04  0.64804178052E+03 0.  0.
         13    1    3    3    0    0 -0.25659320812E+03 -0.15973909500E+03  0.24841541985E+03  0.39123761800E+03  0.00000000000E+00 0. -1.
          2    1    3    3  501    0  0.25659320812E+03  0.15973909500E+03  0.64659504283E+03  0.71375191932E+03  0.00000000000E+00 0. -1.
<mgrwt>
<rscale>  0 0.64804178E+03</rscale>
<asrwt>0</asrwt>
<pdfrwt beam="1">0</pdfrwt>
<pdfrwt beam="2">  1        2 0.38178094E+00 0.64804178E+03</pdfrwt>
<totfact> 0.46567067E+00</totfact>
</mgrwt>
</event>
<event>
 5    1  0.2343702E-004  0.6789533E+03  0.7818608E-02  0.9753918E-01
         13   -1    0    0    0    0  0.00000000000E+00  0.00000000000E+00  0.10000000000E+04  0.10000000000E+04  0.00000000000E+00 0. -1.
          2   -1    0    0  501    0 -0.00000000000E+00 -0.00000000000E+00 -0.11524438601E+03  0.11524438601E+03  0.00000000000E+00 0. -1.
    9000006    2    1    2  501    0  0.00000000000E+00  0.00000000000E+00  0.88475561399E+03  0.11152443860E+04  0.67895327088E+03 0.  0.
         13    1    3    3    0    0 -0.16766033098E+03 -0.29162609257E+03  0.51744670467E+03  0.61717651983E+03  0.00000000000E+00 0. -1.
          4    1    3    3  501    0  0.16766033098E+03  0.29162609257E+03  0.36730890932E+03  0.49806786618E+03  0.00000000000E+00 0. -1.
<mgrwt>
<rscale>  0 0.67895327E+03</rscale>
<asrwt>0</asrwt>
<pdfrwt beam="1">0</pdfrwt>
<pdfrwt beam="2">  1        2 0.41907138E+00 0.67895327E+03</pdfrwt>
<totfact> 0.33651651E+00</totfact>
</mgrwt>
</event>
<event>
 5    1  0.2343702E-004  0.6203415E+03  0.7818608E-02  0.9864080E-01
         13   -1    0    0    0    0  0.00000000000E+00  0.00000000000E+00  0.10000000000E+04  0.10000000000E+04  0.00000000000E+00 0. -1.
          2   -1    0    0  501    0 -0.00000000000E+00 -0.00000000000E+00 -0.96205878958E+02  0.96205878958E+02  0.00000000000E+00 0. -1.
    9000006    2    1    2  501    0  0.00000000000E+00  0.00000000000E+00  0.90379412104E+03  0.10962058790E+04  0.62034145100E+03 0.  0.
         13    1    3    3    0    0 -0.20012398346E+02 -0.15831376648E+03 -0.18105695155E+02  0.16059751225E+03  0.00000000000E+00 0. -1.
          4    1    3    3  501    0  0.20012398346E+02  0.15831376648E+03  0.92189981620E+03  0.93560836671E+03  0.00000000000E+00 0. -1.
<mgrwt>
<rscale>  0 0.62034145E+03</rscale>
<asrwt>0</asrwt>
<pdfrwt beam="1">0</pdfrwt>
<pdfrwt beam="2">  1        2 0.34984030E+00 0.62034145E+03</pdfrwt>
<totfact> 0.61047797E+00</totfact>
</mgrwt>
</event>
<event>
 5    1  0.2343702E-004  0.6552431E+03  0.7818608E-02  0.9796990E-01
         13   -1    0    0    0    0  0.00000000000E+00  0.00000000000E+00  0.10000000000E+04  0.10000000000E+04  0.00000000000E+00 0. -1.
          2   -1    0    0  501    0 -0.00000000000E+00 -0.00000000000E+00 -0.10733589525E+03  0.10733589525E+03  0.00000000000E+00 0. -1.
    9000006    2    1    2  501    0  0.00000000000E+00  0.00000000000E+00  0.89266410475E+03  0.11073358953E+04  0.65524314648E+03 0.  0.
         13    1    3    3    0    0  0.45839682072E+02  0.26151477124E+03  0.77071952107E+03  0.81516859127E+03  0.00000000000E+00 0. -1.
          2    1    3    3  501    0 -0.45839682072E+02 -0.26151477124E+03  0.12194458367E+03  0.29216730398E+03  0.00000000000E+00 0. -1.
<mgrwt>
<rscale>  0 0.65524315E+03</rscale>
<asrwt>0</asrwt>
<pdfrwt beam="1">0</pdfrwt>
<pdfrwt beam="2">  1        2 0.39031317E+00 0.65524315E+03</pdfrwt>
<totfact> 0.43271465E+00</totfact>
</mgrwt>
</event>
<event>
 5    1  0.2343702E-004  0.6485673E+03  0.7818608E-02  0.9809471E-01
         13   -1    0    0    0    0  0.00000000000E+00  0.00000000000E+00  0.10000000000E+04  0.10000000000E+04  0.00000000000E+00 0. -1.
          2   -1    0    0  501    0 -0.00000000000E+00 -0.00000000000E+00 -0.10515988585E+03  0.10515988585E+03  0.00000000000E+00 0. -1.
    9000006    2    1    2  501    0  0.00000000000E+00  0.00000000000E+00  0.89484011415E+03  0.11051598858E+04  0.64856730058E+03 0.  0.
         13    1    3    3    0    0  0.15021536743E+03 -0.18057851704E+02  0.93617206145E+03  0.94831897126E+03  0.00000000000E+00 0. -1.
          2    1    3    3  501    0 -0.15021536743E+03  0.18057851704E+02 -0.41331947296E+02  0.15684091458E+03  0.00000000000E+00 0. -1.
<mgrwt>
<rscale>  0 0.64856730E+03</rscale>
<asrwt>0</asrwt>
<pdfrwt beam="1">0</pdfrwt>
<pdfrwt beam="2">  1        2 0.38240039E+00 0.64856730E+03</pdfrwt>
<totfact> 0.46320355E+00</totfact>
</mgrwt>
</event>
<event>
 5    1  0.2343702E-004  0.6623748E+03  0.7818608E-02  0.9783832E-01
         13   -1    0    0    0    0  0.00000000000E+00  0.00000000000E+00  0.10000000000E+04  0.10000000000E+04  0.00000000000E+00 0. -1.
          2   -1    0    0  501    0 -0.00000000000E+00 -0.00000000000E+00 -0.10968510532E+03  0.10968510532E+03  0.00000000000E+00 0. -1.
    9000006    2    1    2  501    0  0.00000000000E+00  0.00000000000E+00  0.89031489468E+03  0.11096851053E+04  0.66237483442E+03 0.  0.
         13    1    3    3    0    0  0.22364675359E+03 -0.12695072963E+03  0.95539484449E+02  0.27433948172E+03  0.00000000000E+00 0. -1.
          4    1    3    3  501    0 -0.22364675359E+03  0.12695072963E+03  0.79477541023E+03  0.83534562359E+03  0.00000000000E+00 0. -1.
<mgrwt>
<rscale>  0 0.66237483E+03</rscale>
<asrwt>0</asrwt>
<pdfrwt beam="1">0</pdfrwt>
<pdfrwt beam="2">  1        2 0.39885577E+00 0.66237483E+03</pdfrwt>
<totfact> 0.40184600E+00</totfact>
</mgrwt>
</event>
<event>
 5    1  0.2343702E-004  0.6140951E+03  0.7818608E-02  0.9876587E-01
         13   -1    0    0    0    0  0.00000000000E+00  0.00000000000E+00  0.10000000000E+04  0.10000000000E+04  0.00000000000E+00 0. -1.
          2   -1    0    0  501    0 -0.00000000000E+00 -0.00000000000E+00 -0.94278191324E+02  0.94278191324E+02  0.00000000000E+00 0. -1.
    9000006    2    1    2  501    0  0.00000000000E+00  0.00000000000E+00  0.90572180868E+03  0.10942781913E+04  0.61409507838E+03 0.  0.
         13    1    3    3    0    0  0.16852339003E+03  0.24375516148E+03  0.59609886050E+03  0.66569554845E+03  0.00000000000E+00 0. -1.
          4    1    3    3  501    0 -0.16852339003E+03 -0.24375516148E+03  0.30962294818E+03  0.42858264288E+03  0.00000000000E+00 0. -1.
<mgrwt>
<rscale>  0 0.61409508E+03</rscale>
<asrwt>0</asrwt>
<pdfrwt beam="1">0</pdfrwt>
<pdfrwt beam="2">  1        2 0.34283051E+00 0.61409508E+03</pdfrwt>
<totfact> 0.64738676E+00</totfact>
</mgrwt>
</event>
<event>
 5    1  0.2343702E-004  0.6470786E+03  0.7818608E-02  0.9812277E-01
         13   -1    0    0    0    0  0.00000000000E+00  0.00000000000E+00  0.10000000000E+04  0.10000000000E+04  0.00000000000E+00 0. -1.
          2   -1    0    0  501    0 -0.00000000000E+00 -0.00000000000E+00 -0.10467767233E+03  0.10467767233E+03  0.00000000000E+00 0. -1.
    9000006    2    1    2  501    0  0.00000000000E+00  0.00000000000E+00  0.89532232767E+03  0.11046776723E+04  0.64707858049E+03 0.  0.
         13    1    3    3    0    0  0.35452907050E+02 -0.40003547127E+01 -0.10130909849E+03  0.10740784372E+03  0.00000000000E+00 0. -1.
          4    1    3    3  501    0 -0.35452907050E+02  0.40003547127E+01  0.99663142616E+03  0.99726982861E+03  0.00000000000E+00 0. -1.
<mgrwt>
<rscale>  0 0.64707858E+03</rscale>
<asrwt>0</asrwt>
<pdfrwt beam="1">0</pdfrwt>
<pdfrwt beam="2">  1        2 0.38064688E+00 0.64707858E+03</pdfrwt>
<totfact> 0.47021832E+00</totfact>
</mgrwt>
</event>
<event>
 5    1  0.2343702E-004  0.6432221E+03  0.7818608E-02  0.9819581E-01
         13   -1    0    0    0    0  0.00000000000E+00  0.00000000000E+00  0.10000000000E+04  0.10000000000E+04  0.00000000000E+00 0. -1.
          2   -1    0    0  501    0 -0.00000000000E+00 -0.00000000000E+00 -0.10343365681E+03  0.10343365681E+03  0.00000000000E+00 0. -1.
    9000006    2    1    2  501    0  0.00000000000E+00  0.00000000000E+00  0.89656634319E+03  0.11034336568E+04  0.64322206683E+03 0.  0.
         13    1    3    3    0    0  0.50783312451E+02 -0.30961849975E+03  0.56947777431E+03  0.65019035339E+03  0.00000000000E+00 0. -1.
          2    1    3    3  501    0 -0.50783312451E+02  0.30961849975E+03  0.32708856887E+03  0.45324330342E+03  0.00000000000E+00 0. -1.
<mgrwt>
<rscale>  0 0.64322207E+03</rscale>
<asrwt>0</asrwt>
<pdfrwt beam="1">0</pdfrwt>
<pdfrwt beam="2">  1        2 0.37612318E+00 0.64322207E+03</pdfrwt>
<totfact> 0.48876386E+00</totfact>
</mgrwt>
</event>
<event>
 5    1  0.2343702E-004  0.6507180E+03  0.7818608E-02  0.9805433E-01
         13   -1    0    0    0    0  0.00000000000E+00  0.00000000000E+00  0.10000000000E+04  0.10000000000E+04  0.00000000000E+00 0. -1.
          2   -1    0    0  501    0 -0.00000000000E+00 -0.00000000000E+00 -0.10585846446E+03  0.10585846446E+03  0.00000000000E+00 0. -1.
    9000006    2    1    2  501    0  0.00000000000E+00  0.00000000000E+00  0.89414153554E+03  0.11058584645E+04  0.65071795569E+03 0.  0.
         13    1    3    3    0    0 -0.18139922237E+03  0.12895898186E+02  0.90556314701E+03  0.92364311035E+03  0.00000000000E+00 0. -1.
          4    1    3    3  501    0  0.18139922237E+03 -0.12895898186E+02 -0.11421611476E+02  0.18221535411E+03  0.00000000000E+00 0. -1.
<mgrwt>
<rscale>  0 0.65071796E+03</rscale>
<asrwt>0</asrwt>
<pdfrwt beam="1">0</pdfrwt>
<pdfrwt beam="2">  1        2 0.38494068E+00 0.65071796E+03</pdfrwt>
<totfact> 0.45320981E+00</totfact>
</mgrwt>
</event>
<event>
 5    1  0.2343702E-004  0.6503679E+03  0.7818608E-02  0.9806089E-01
         13   -1    0    0    0    0  0.00000000000E+00  0.00000000000E+00  0.10000000000E+04  0.10000000000E+04  0.00000000000E+00 0. -1.
          2   -1    0    0  501    0 -0.00000000000E+00 -0.00000000000E+00 -0.10574459737E+03  0.10574459737E+03  0.00000000000E+00 0. -1.
    9000006    2    1    2  501    0  0.00000000000E+00  0.00000000000E+00  0.89425540263E+03  0.11057445974E+04  0.65036788781E+03 0.  0.
         13    1    3    3    0    0  0.75292372456E+02  0.13342097992E+03 -0.40544900985E+02  0.15847393549E+03  0.00000000000E+00 0. -1.
          4    1    3    3  501    0 -0.75292372456E+02 -0.13342097992E+03  0.93480030361E+03  0.94727066188E+03  0.00000000000E+00 0. -1.
<mgrwt>
<rscale>  0 0.65036789E+03</rscale>
<asrwt>0</asrwt>
<pdfrwt beam="1">0</pdfrwt>
<pdfrwt beam="2">  1        2 0.38452662E+00 0.65036789E+03</pdfrwt>
<totfact> 0.45482531E+00</totfact>
</mgrwt>
</event>
<event>
 5    1  0.2343702E-004  0.4781305E+03  0.7818608E-02  0.1019650E+00
         13   -1    0    0    0    0  0.00000000000E+00  0.00000000000E+00  0.10000000000E+04  0.10000000000E+04  0.00000000000E+00 0. -1.
          2   -1    0    0  501    0 -0.00000000000E+00 -0.00000000000E+00 -0.57152191486E+02  0.57152191486E+02  0.00000000000E+00 0. -1.
    9000006    2    1    2  501    0  0.00000000000E+00  0.00000000000E+00  0.94284780851E+03  0.10571521915E+04  0.47813049050E+03 0.  0.
         13    1    3    3    0    0 -0.23362928391E+03  0.35034096370E+02  0.55242547254E+03  0.60081938461E+03  0.00000000000E+00 0. -1.
          4    1    3    3  501    0  0.23362928391E+03 -0.35034096370E+02  0.39042233597E+03  0.45633280688E+03  0.00000000000E+00 0. -1.
<mgrwt>
<rscale>  0 0.47813049E+03</rscale>
<asrwt>0</asrwt>
<pdfrwt beam="1">0</pdfrwt>
<pdfrwt beam="2">  1        2 0.20782659E+00 0.47813049E+03</pdfrwt>
<totfact> 0.19861837E+01</totfact>
</mgrwt>
</event>
<event>
 5    1  0.2343702E-004  0.6100948E+03  0.7818608E-02  0.9884681E-01
         13   -1    0    0    0    0  0.00000000000E+00  0.00000000000E+00  0.10000000000E+04  0.10000000000E+04  0.00000000000E+00 0. -1.
          2   -1    0    0  501    0 -0.00000000000E+00 -0.00000000000E+00 -0.93053912454E+02  0.93053912454E+02  0.00000000000E+00 0. -1.
    9000006    2    1    2  501    0  0.00000000000E+00  0.00000000000E+00  0.90694608755E+03  0.10930539125E+04  0.61009478757E+03 0.  0.
         13    1    3    3    0    0  0.25525924447E+03 -0.18301990015E+01  0.75269542107E+03  0.79480250906E+03  0.00000000000E+00 0. -1.
          4    1    3    3  501    0 -0.25525924447E+03  0.18301990015E+01  0.15425066648E+03  0.29825140339E+03  0.00000000000E+00 0. -1.
<mgrwt>
<rscale>  0 0.61009479E+03</rscale>
<asrwt>0</asrwt>
<pdfrwt beam="1">0</pdfrwt>
<pdfrwt beam="2">  1        2 0.33837858E+00 0.61009479E+03</pdfrwt>
<totfact> 0.67190200E+00</totfact>
</mgrwt>
</event>
<event>
 5    1  0.2343702E-004  0.6522532E+03  0.7818608E-02  0.9802560E-01
         13   -1    0    0    0    0  0.00000000000E+00  0.00000000000E+00  0.10000000000E+04  0.10000000000E+04  0.00000000000E+00 0. -1.
          2   -1    0    0  501    0 -0.00000000000E+00 -0.00000000000E+00 -0.10635856768E+03  0.10635856768E+03  0.00000000000E+00 0. -1.
    9000006    2    1    2  501    0  0.00000000000E+00  0.00000000000E+00  0.89364143232E+03  0.11063585677E+04  0.65225322593E+03 0.  0.
         13    1    3    3    0    0 -0.18177088156E+03  0.10657728085E+03  0.86903464809E+03  0.89421506907E+03  0.00000000000E+00 0. -1.
          4    1    3    3  501    0  0.18177088156E+03 -0.10657728085E+03  0.24606784230E+02  0.21214349862E+03  0.00000000000E+00 0. -1.
<mgrwt>
<rscale>  0 0.65225323E+03</rscale>
<asrwt>0</asrwt>
<pdfrwt beam="1">0</pdfrwt>
<pdfrwt beam="2">  1        2 0.38675924E+00 0.65225323E+03</pdfrwt>
<totfact> 0.44617598E+00</totfact>
</mgrwt>
</event>
<event>
 5    1  0.2343702E-004  0.5870128E+03  0.7818608E-02  0.9932723E-01
         13   -1    0    0    0    0  0.00000000000E+00  0.00000000000E+00  0.10000000000E+04  0.10000000000E+04  0.00000000000E+00 0. -1.
          4   -1    0    0  501    0 -0.00000000000E+00 -0.00000000000E+00 -0.86146012624E+02  0.86146012624E+02  0.00000000000E+00 0. -1.
    9000006    2    1    2  501    0  0.00000000000E+00  0.00000000000E+00  0.91385398738E+03  0.10861460126E+04  0.58701281970E+03 0.  0.
         13    1    3    3    0    0 -0.74167066716E+02 -0.24474846663E+03  0.19043688833E+03  0.31885541259E+03  0.00000000000E+00 0. -1.
          4    1    3    3  501    0  0.74167066716E+02  0.24474846663E+03  0.72341709905E+03  0.76729060003E+03  0.00000000000E+00 0. -1.
<mgrwt>
<rscale>  0 0.58701282E+03</rscale>
<asrwt>0</asrwt>
<pdfrwt beam="1">0</pdfrwt>
<pdfrwt beam="2">  1        4 0.31325889E+00 0.58701282E+03</pdfrwt>
<totfact> 0.11804940E-01</totfact>
</mgrwt>
</event>
<event>
 5    1  0.2343702E-004  0.6646790E+03  0.7818608E-02  0.9779618E-01
         13   -1    0    0    0    0  0.00000000000E+00  0.00000000000E+00  0.10000000000E+04  0.10000000000E+04  0.00000000000E+00 0. -1.
          2   -1    0    0  501    0 -0.00000000000E+00 -0.00000000000E+00 -0.11044953346E+03  0.11044953346E+03  0.00000000000E+00 0. -1.
    9000006    2    1    2  501    0  0.00000000000E+00  0.00000000000E+00  0.88955046654E+03  0.11104495335E+04  0.66467897052E+03 0.  0.
         13    1    3    3    0    0  0.24635084253E+03  0.40131653716E+02  0.78180565637E+02  0.26155589859E+03  0.00000000000E+00 0. -1.
          2    1    3    3  501    0 -0.24635084253E+03 -0.40131653716E+02  0.81136990090E+03  0.84889363487E+03  0.00000000000E+00 0. -1.
<mgrwt>
<rscale>  0 0.66467897E+03</rscale>
<asrwt>0</asrwt>
<pdfrwt beam="1">0</pdfrwt>
<pdfrwt beam="2">  1        2 0.40163551E+00 0.66467897E+03</pdfrwt>
<totfact> 0.39223782E+00</totfact>
</mgrwt>
</event>
<event>
 5    1  0.2343702E-004  0.6548941E+03  0.7818608E-02  0.9797639E-01
         13   -1    0    0    0    0  0.00000000000E+00  0.00000000000E+00  0.10000000000E+04  0.10000000000E+04  0.00000000000E+00 0. -1.
          2   -1    0    0  501    0 -0.00000000000E+00 -0.00000000000E+00 -0.10722156934E+03  0.10722156934E+03  0.00000000000E+00 0. -1.
    9000006    2    1    2  501    0  0.00000000000E+00  0.00000000000E+00  0.89277843066E+03  0.11072215693E+04  0.65489409629E+03 0.  0.
         13    1    3    3    0    0 -0.77505861496E+02 -0.18563359206E+03  0.88321070633E+03  0.90583008387E+03  0.00000000000E+00 0. -1.
          4    1    3    3  501    0  0.77505861496E+02  0.18563359206E+03  0.95677243288E+01  0.20139148546E+03  0.00000000000E+00 0. -1.
<mgrwt>
<rscale>  0 0.65489410E+03</rscale>
<asrwt>0</asrwt>
<pdfrwt beam="1">0</pdfrwt>
<pdfrwt beam="2">  1        2 0.38989744E+00 0.65489410E+03</pdfrwt>
<totfact> 0.43427013E+00</totfact>
</mgrwt>
</event>
<event>
 5    1  0.2343702E-004  0.6542153E+03  0.7818608E-02  0.9798902E-01
         13   -1    0    0    0    0  0.00000000000E+00  0.00000000000E+00  0.10000000000E+04  0.10000000000E+04  0.00000000000E+00 0. -1.
          2   -1    0    0  501    0 -0.00000000000E+00 -0.00000000000E+00 -0.10699940018E+03  0.10699940018E+03  0.00000000000E+00 0. -1.
    9000006    2    1    2  501    0  0.00000000000E+00  0.00000000000E+00  0.89300059982E+03  0.11069994002E+04  0.65421525566E+03 0.  0.
         13    1    3    3    0    0 -0.28039889153E+03  0.15220781202E+03  0.56862093286E+03  0.65201266989E+03  0.00000000000E+00 0. -1.
          2    1    3    3  501    0  0.28039889153E+03 -0.15220781202E+03  0.32437966696E+03  0.45498673030E+03  0.00000000000E+00 0. -1.
<mgrwt>
<rscale>  0 0.65421526E+03</rscale>
<asrwt>0</asrwt>
<pdfrwt beam="1">0</pdfrwt>
<pdfrwt beam="2">  1        2 0.38908955E+00 0.65421526E+03</pdfrwt>
<totfact> 0.43730735E+00</totfact>
</mgrwt>
</event>
<event>
 5    1  0.2343702E-004  0.5868890E+03  0.7818608E-02  0.9932987E-01
         13   -1    0    0    0    0  0.00000000000E+00  0.00000000000E+00  0.10000000000E+04  0.10000000000E+04  0.00000000000E+00 0. -1.
          2   -1    0    0  501    0 -0.00000000000E+00 -0.00000000000E+00 -0.86109684774E+02  0.86109684774E+02  0.00000000000E+00 0. -1.
    9000006    2    1    2  501    0  0.00000000000E+00  0.00000000000E+00  0.91389031523E+03  0.10861096848E+04  0.58688903474E+03 0.  0.
         13    1    3    3    0    0 -0.68296554844E+02  0.24258956810E+03  0.17876297448E+03  0.30898271634E+03  0.00000000000E+00 0. -1.
          2    1    3    3  501    0  0.68296554844E+02 -0.24258956810E+03  0.73512734074E+03  0.77712696843E+03  0.00000000000E+00 0. -1.
<mgrwt>
<rscale>  0 0.58688903E+03</rscale>
<asrwt>0</asrwt>
<pdfrwt beam="1">0</pdfrwt>
<pdfrwt beam="2">  1        2 0.31312679E+00 0.58688903E+03</pdfrwt>
<totfact> 0.82851949E+00</totfact>
</mgrwt>
</event>
<event>
 5    1  0.2343702E-004  0.6832922E+03  0.7818608E-02  0.9746239E-01
         13   -1    0    0    0    0  0.00000000000E+00  0.00000000000E+00  0.10000000000E+04  0.10000000000E+04  0.00000000000E+00 0. -1.
          2   -1    0    0  501    0 -0.00000000000E+00 -0.00000000000E+00 -0.11672207452E+03  0.11672207452E+03  0.00000000000E+00 0. -1.
    9000006    2    1    2  501    0  0.00000000000E+00  0.00000000000E+00  0.88327792548E+03  0.11167220745E+04  0.68329224941E+03 0.  0.
         13    1    3    3    0    0 -0.12693302868E+02 -0.34044093858E+03  0.48365486422E+03  0.59159376288E+03  0.00000000000E+00 0. -1.
          2    1    3    3  501    0  0.12693302868E+02  0.34044093858E+03  0.39962306125E+03  0.52512831164E+03  0.00000000000E+00 0. -1.
<mgrwt>
<rscale>  0 0.68329225E+03</rscale>
<asrwt>0</asrwt>
<pdfrwt beam="1">0</pdfrwt>
<pdfrwt beam="2">  1        2 0.42444480E+00 0.68329225E+03</pdfrwt>
<totfact> 0.32082736E+00</totfact>
</mgrwt>
</event>
<event>
 5    1  0.2343702E-004  0.6511795E+03  0.7818608E-02  0.9804568E-01
         13   -1    0    0    0    0  0.00000000000E+00  0.00000000000E+00  0.10000000000E+04  0.10000000000E+04  0.00000000000E+00 0. -1.
          2   -1    0    0  501    0 -0.00000000000E+00 -0.00000000000E+00 -0.10600869438E+03  0.10600869438E+03  0.00000000000E+00 0. -1.
    9000006    2    1    2  501    0  0.00000000000E+00  0.00000000000E+00  0.89399130562E+03  0.11060086944E+04  0.65117952787E+03 0.  0.
         13    1    3    3    0    0  0.14025421659E+03  0.29321224826E+03  0.47940157232E+03  0.57919818313E+03  0.00000000000E+00 0. -1.
          2    1    3    3  501    0 -0.14025421659E+03 -0.29321224826E+03  0.41458973330E+03  0.52681051125E+03  0.00000000000E+00 0. -1.
<mgrwt>
<rscale>  0 0.65117953E+03</rscale>
<asrwt>0</asrwt>
<pdfrwt beam="1">0</pdfrwt>
<pdfrwt beam="2">  1        2 0.38548697E+00 0.65117953E+03</pdfrwt>
<totfact> 0.45108638E+00</totfact>
</mgrwt>
</event>
<event>
 5    1  0.2343702E-004  0.6518076E+03  0.7818608E-02  0.9803393E-01
         13   -1    0    0    0    0  0.00000000000E+00  0.00000000000E+00  0.10000000000E+04  0.10000000000E+04  0.00000000000E+00 0. -1.
          2   -1    0    0  501    0 -0.00000000000E+00 -0.00000000000E+00 -0.10621327625E+03  0.10621327625E+03  0.00000000000E+00 0. -1.
    9000006    2    1    2  501    0  0.00000000000E+00  0.00000000000E+00  0.89378672375E+03  0.11062132763E+04  0.65180756747E+03 0.  0.
         13    1    3    3    0    0  0.11460729280E+03 -0.29968436742E+03  0.54390910007E+03  0.63149240754E+03  0.00000000000E+00 0. -1.
          2    1    3    3  501    0 -0.11460729280E+03  0.29968436742E+03  0.34987762367E+03  0.47472086871E+03  0.00000000000E+00 0. -1.
<mgrwt>
<rscale>  0 0.65180757E+03</rscale>
<asrwt>0</asrwt>
<pdfrwt beam="1">0</pdfrwt>
<pdfrwt beam="2">  1        2 0.38623091E+00 0.65180757E+03</pdfrwt>
<totfact> 0.44820920E+00</totfact>
</mgrwt>
</event>
<event>
 5    1  0.2343702E-004  0.6607635E+03  0.7818608E-02  0.9786789E-01
         13   -1    0    0    0    0  0.00000000000E+00  0.00000000000E+00  0.10000000000E+04  0.10000000000E+04  0.00000000000E+00 0. -1.
          2   -1    0    0  501    0 -0.00000000000E+00 -0.00000000000E+00 -0.10915209725E+03  0.10915209725E+03  0.00000000000E+00 0. -1.
    9000006    2    1    2  501    0  0.00000000000E+00  0.00000000000E+00  0.89084790275E+03  0.11091520973E+04  0.66076348946E+03 0.  0.
         13    1    3    3    0    0  0.37161858442E+01 -0.98813814672E+02  0.97457749472E+03  0.97958117235E+03  0.00000000000E+00 0. -1.
          2    1    3    3  501    0 -0.37161858442E+01  0.98813814672E+02 -0.83729591973E+02  0.12957092490E+03  0.00000000000E+00 0. -1.
<mgrwt>
<rscale>  0 0.66076349E+03</rscale>
<asrwt>0</asrwt>
<pdfrwt beam="1">0</pdfrwt>
<pdfrwt beam="2">  1        2 0.39691755E+00 0.66076349E+03</pdfrwt>
<totfact> 0.40867000E+00</totfact>
</mgrwt>
</event>
<event>
 5    1  0.2343702E-004  0.6448367E+03  0.7818608E-02  0.9816516E-01
         13   -1    0    0    0    0  0.00000000000E+00  0.00000000000E+00  0.10000000000E+04  0.10000000000E+04  0.00000000000E+00 0. -1.
          2   -1    0    0  501    0 -0.00000000000E+00 -0.00000000000E+00 -0.10395358151E+03  0.10395358151E+03  0.00000000000E+00 0. -1.
    9000006    2    1    2  501    0  0.00000000000E+00  0.00000000000E+00  0.89604641849E+03  0.11039535815E+04  0.64483666617E+03 0.  0.
         13    1    3    3    0    0 -0.13690987193E+03 -0.26031187194E+03  0.22189151216E+03  0.36843239118E+03  0.00000000000E+00 0. -1.
          2    1    3    3  501    0  0.13690987193E+03  0.26031187194E+03  0.67415490633E+03  0.73552119033E+03  0.00000000000E+00 0. -1.
<mgrwt>
<rscale>  0 0.64483667E+03</rscale>
<asrwt>0</asrwt>
<pdfrwt beam="1">0</pdfrwt>
<pdfrwt beam="2">  1        2 0.37801382E+00 0.64483667E+03</pdfrwt>
<totfact> 0.48093334E+00</totfact>
</mgrwt>
</event>
<event>
 5    1  0.2343702E-004  0.6480046E+03  0.7818608E-02  0.9810531E-01
         13   -1    0    0    0    0  0.00000000000E+00  0.00000000000E+00  0.10000000000E+04  0.10000000000E+04  0.00000000000E+00 0. -1.
          2   -1    0    0  501    0 -0.00000000000E+00 -0.00000000000E+00 -0.10497750547E+03  0.10497750547E+03  0.00000000000E+00 0. -1.
    9000006    2    1    2  501    0  0.00000000000E+00  0.00000000000E+00  0.89502249453E+03  0.11049775055E+04  0.64800464650E+03 0.  0.
         13    1    3    3    0    0 -0.17396703813E+03 -0.38717766638E+01 -0.18535797911E+02  0.17499456224E+03  0.00000000000E+00 0. -1.
          4    1    3    3  501    0  0.17396703813E+03  0.38717766638E+01  0.91355829244E+03  0.92998294323E+03  0.00000000000E+00 0. -1.
<mgrwt>
<rscale>  0 0.64800465E+03</rscale>
<asrwt>0</asrwt>
<pdfrwt beam="1">0</pdfrwt>
<pdfrwt beam="2">  1        2 0.38173719E+00 0.64800465E+03</pdfrwt>
<totfact> 0.46584538E+00</totfact>
</mgrwt>
</event>
<event>
 5    1  0.2343702E-004  0.6468526E+03  0.7818608E-02  0.9812703E-01
         13   -1    0    0    0    0  0.00000000000E+00  0.00000000000E+00  0.10000000000E+04  0.10000000000E+04  0.00000000000E+00 0. -1.
          2   -1    0    0  501    0 -0.00000000000E+00 -0.00000000000E+00 -0.10460458143E+03  0.10460458143E+03  0.00000000000E+00 0. -1.
    9000006    2    1    2  501    0  0.00000000000E+00  0.00000000000E+00  0.89539541857E+03  0.11046045814E+04  0.64685263061E+03 0.  0.
         13    1    3    3    0    0  0.60443136202E+02 -0.22342143953E+03  0.83347049757E+03  0.86501074137E+03  0.00000000000E+00 0. -1.
          2    1    3    3  501    0 -0.60443136202E+02  0.22342143953E+03  0.61924920995E+02  0.23959384007E+03  0.00000000000E+00 0. -1.
<mgrwt>
<rscale>  0 0.64685263E+03</rscale>
<asrwt>0</asrwt>
<pdfrwt beam="1">0</pdfrwt>
<pdfrwt beam="2">  1        2 0.38038110E+00 0.64685263E+03</pdfrwt>
<totfact> 0.47128996E+00</totfact>
</mgrwt>
</event>
<event>
 5    1  0.2343702E-004  0.6468882E+03  0.7818608E-02  0.9812636E-01
         13   -1    0    0    0    0  0.00000000000E+00  0.00000000000E+00  0.10000000000E+04  0.10000000000E+04  0.00000000000E+00 0. -1.
          2   -1    0    0  501    0 -0.00000000000E+00 -0.00000000000E+00 -0.10461609878E+03  0.10461609878E+03  0.00000000000E+00 0. -1.
    9000006    2    1    2  501    0  0.00000000000E+00  0.00000000000E+00  0.89538390122E+03  0.11046160988E+04  0.64688824004E+03 0.  0.
         13    1    3    3    0    0 -0.28426773875E+03 -0.15411248095E+03  0.43476668971E+03  0.54183104245E+03  0.00000000000E+00 0. -1.
          4    1    3    3  501    0  0.28426773875E+03  0.15411248095E+03  0.46061721152E+03  0.56278505633E+03  0.00000000000E+00 0. -1.
<mgrwt>
<rscale>  0 0.64688824E+03</rscale>
<asrwt>0</asrwt>
<pdfrwt beam="1">0</pdfrwt>
<pdfrwt beam="2">  1        2 0.38042298E+00 0.64688824E+03</pdfrwt>
<totfact> 0.47112095E+00</totfact>
</mgrwt>
</event>
<event>
 5    1  0.2343702E-004  0.6511919E+03  0.7818608E-02  0.9804545E-01
         13   -1    0    0    0    0  0.00000000000E+00  0.00000000000E+00  0.10000000000E+04  0.10000000000E+04  0.00000000000E+00 0. -1.
          2   -1    0    0  501    0 -0.00000000000E+00 -0.00000000000E+00 -0.10601273828E+03  0.10601273828E+03  0.00000000000E+00 0. -1.
    9000006    2    1    2  501    0  0.00000000000E+00  0.00000000000E+00  0.89398726172E+03  0.11060127383E+04  0.65119194797E+03 0.  0.
         13    1    3    3    0    0 -0.14028604392E+03  0.16876101560E+03  0.38475476681E+02  0.22280219211E+03  0.00000000000E+00 0. -1.
          2    1    3    3  501    0  0.14028604392E+03 -0.16876101560E+03  0.85551178504E+03  0.88321054616E+03  0.00000000000E+00 0. -1.
<mgrwt>
<rscale>  0 0.65119195E+03</rscale>
<asrwt>0</asrwt>
<pdfrwt beam="1">0</pdfrwt>
<pdfrwt beam="2">  1        2 0.38550168E+00 0.65119195E+03</pdfrwt>
<totfact> 0.45102934E+00</totfact>
</mgrwt>
</event>
<event>
 5    1  0.2343702E-004  0.6519010E+03  0.7818608E-02  0.9803219E-01
         13   -1    0    0    0    0  0.00000000000E+00  0.00000000000E+00  0.10000000000E+04  0.10000000000E+04  0.00000000000E+00 0. -1.
          2   -1    0    0  501    0 -0.00000000000E+00 -0.00000000000E+00 -0.10624373898E+03  0.10624373898E+03  0.00000000000E+00 0. -1.
    9000006    2    1    2  501    0  0.00000000000E+00  0.00000000000E+00  0.89375626102E+03  0.11062437390E+04  0.65190103230E+03 0.  0.
         13    1    3    3    0    0 -0.14507922725E+03  0.20081297650E+03  0.80633495494E+03  0.84353416841E+03  0.00000000000E+00 0. -1.
          4    1    3    3  501    0  0.14507922725E+03 -0.20081297650E+03  0.87421306080E+02  0.26270957057E+03  0.00000000000E+00 0. -1.
<mgrwt>
<rscale>  0 0.65190103E+03</rscale>
<asrwt>0</asrwt>
<pdfrwt beam="1">0</pdfrwt>
<pdfrwt beam="2">  1        2 0.38634168E+00 0.65190103E+03</pdfrwt>
<totfact> 0.44778221E+00</totfact>
</mgrwt>
</event>
<event>
 5    1  0.2343702E-004  0.6769898E+03  0.7818608E-02  0.9757413E-01
         13   -1    0    0    0    0  0.00000000000E+00  0.00000000000E+00  0.10000000000E+04  0.10000000000E+04  0.00000000000E+00 0. -1.
          2   -1    0    0  501    0 -0.00000000000E+00 -0.00000000000E+00 -0.11457878915E+03  0.11457878915E+03  0.00000000000E+00 0. -1.
    9000006    2    1    2  501    0  0.00000000000E+00  0.00000000000E+00  0.88542121085E+03  0.11145787892E+04  0.67698977585E+03 0.  0.
         13    1    3    3    0    0  0.32546648630E+03  0.82281933578E+02  0.37132476500E+03  0.50058049442E+03  0.00000000000E+00 0. -1.
          4    1    3    3  501    0 -0.32546648630E+03 -0.82281933578E+02  0.51409644585E+03  0.61399829473E+03  0.00000000000E+00 0. -1.
<mgrwt>
<rscale>  0 0.67698978E+03</rscale>
<asrwt>0</asrwt>
<pdfrwt beam="1">0</pdfrwt>
<pdfrwt beam="2">  1        2 0.41665102E+00 0.67698978E+03</pdfrwt>
<totfact> 0.34380300E+00</totfact>
</mgrwt>
</event>
<event>
 5    1  0.2343702E-004  0.6480413E+03  0.7818608E-02  0.9810462E-01
         13   -1    0    0    0    0  0.00000000000E+00  0.00000000000E+00  0.10000000000E+04  0.10000000000E+04  0.00000000000E+00 0. -1.
          2   -1    0    0  501    0 -0.00000000000E+00 -0.00000000000E+00 -0.10498937892E+03  0.10498937892E+03  0.00000000000E+00 0. -1.
    9000006    2    1    2  501    0  0.00000000000E+00  0.00000000000E+00  0.89501062108E+03  0.11049893789E+04  0.64804129164E+03 0.  0.
         13    1    3    3    0    0  0.19594076718E+03  0.20729458947E+03  0.18541777400E+03  0.34021108445E+03  0.00000000000E+00 0. -1.
          4    1    3    3  501    0 -0.19594076718E+03 -0.20729458947E+03  0.70959284708E+03  0.76477829447E+03  0.00000000000E+00 0. -1.
<mgrwt>
<rscale>  0 0.64804129E+03</rscale>
<asrwt>0</asrwt>
<pdfrwt beam="1">0</pdfrwt>
<pdfrwt beam="2">  1        2 0.38178036E+00 0.64804129E+03</pdfrwt>
<totfact> 0.46567297E+00</totfact>
</mgrwt>
</event>
<event>
 5    1  0.2343702E-004  0.6474583E+03  0.7818608E-02  0.9811560E-01
         13   -1    0    0    0    0  0.00000000000E+00  0.00000000000E+00  0.10000000000E+04  0.10000000000E+04  0.00000000000E+00 0. -1.
          2   -1    0    0  501    0 -0.00000000000E+00 -0.00000000000E+00 -0.10480057790E+03  0.10480057790E+03  0.00000000000E+00 0. -1.
    9000006    2    1    2  501    0  0.00000000000E+00  0.00000000000E+00  0.89519942210E+03  0.11048005779E+04  0.64745834738E+03 0.  0.
         13    1    3    3    0    0  0.17187454318E+03  0.16779369329E+02  0.91483913788E+03  0.93099573255E+03  0.00000000000E+00 0. -1.
          4    1    3    3  501    0 -0.17187454318E+03 -0.16779369329E+02 -0.19639715782E+02  0.17380484534E+03  0.00000000000E+00 0. -1.
<mgrwt>
<rscale>  0 0.64745835E+03</rscale>
<asrwt>0</asrwt>
<pdfrwt beam="1">0</pdfrwt>
<pdfrwt beam="2">  1        2 0.38109381E+00 0.64745835E+03</pdfrwt>
<totfact> 0.46842130E+00</totfact>
</mgrwt>
</event>
<event>
 5    1  0.2343702E-004  0.6517206E+03  0.7818608E-02  0.9803556E-01
         13   -1    0    0    0    0  0.00000000000E+00  0.00000000000E+00  0.10000000000E+04  0.10000000000E+04  0.00000000000E+00 0. -1.
          2   -1    0    0  501    0 -0.00000000000E+00 -0.00000000000E+00 -0.10618491968E+03  0.10618491968E+03  0.00000000000E+00 0. -1.
    9000006    2    1    2  501    0  0.00000000000E+00  0.00000000000E+00  0.89381508032E+03  0.11061849197E+04  0.65172055262E+03 0.  0.
         13    1    3    3    0    0  0.13627669421E+03 -0.29550320719E+03  0.41793153335E+03  0.52967938360E+03  0.00000000000E+00 0. -1.
          2    1    3    3  501    0 -0.13627669421E+03  0.29550320719E+03  0.47588354697E+03  0.57650553607E+03  0.00000000000E+00 0. -1.
<mgrwt>
<rscale>  0 0.65172055E+03</rscale>
<asrwt>0</asrwt>
<pdfrwt beam="1">0</pdfrwt>
<pdfrwt beam="2">  1        2 0.38612779E+00 0.65172055E+03</pdfrwt>
<totfact> 0.44860700E+00</totfact>
</mgrwt>
</event>
<event>
 5    1  0.2343702E-004  0.5167187E+03  0.7818608E-02  0.1009505E+00
         13   -1    0    0    0    0  0.00000000000E+00  0.00000000000E+00  0.10000000000E+04  0.10000000000E+04  0.00000000000E+00 0. -1.
          2   -1    0    0  501    0 -0.00000000000E+00 -0.00000000000E+00 -0.66749561536E+02  0.66749561536E+02  0.00000000000E+00 0. -1.
    9000006    2    1    2  501    0  0.00000000000E+00  0.00000000000E+00  0.93325043846E+03  0.10667495615E+04  0.51671873020E+03 0.  0.
         13    1    3    3    0    0 -0.22161077671E+03  0.12175079553E+03  0.35709219606E+03  0.43754934471E+03  0.00000000000E+00 0. -1.
          2    1    3    3  501    0  0.22161077671E+03 -0.12175079553E+03  0.57615824240E+03  0.62920021683E+03  0.00000000000E+00 0. -1.
<mgrwt>
<rscale>  0 0.51671873E+03</rscale>
<asrwt>0</asrwt>
<pdfrwt beam="1">0</pdfrwt>
<pdfrwt beam="2">  1        2 0.24272619E+00 0.51671873E+03</pdfrwt>
<totfact> 0.14806431E+01</totfact>
</mgrwt>
</event>
<event>
 5    1  0.2343702E-004  0.6683804E+03  0.7818608E-02  0.9772888E-01
         13   -1    0    0    0    0  0.00000000000E+00  0.00000000000E+00  0.10000000000E+04  0.10000000000E+04  0.00000000000E+00 0. -1.
          2   -1    0    0  501    0 -0.00000000000E+00 -0.00000000000E+00 -0.11168309330E+03  0.11168309330E+03  0.00000000000E+00 0. -1.
    9000006    2    1    2  501    0  0.00000000000E+00  0.00000000000E+00  0.88831690670E+03  0.11116830933E+04  0.66838041056E+03 0.  0.
         13    1    3    3    0    0  0.14930034508E+03  0.71559738671E+02 -0.38675915335E+02  0.17002122122E+03  0.00000000000E+00 0. -1.
          4    1    3    3  501    0 -0.14930034508E+03 -0.71559738671E+02  0.92699282203E+03  0.94166187208E+03  0.00000000000E+00 0. -1.
<mgrwt>
<rscale>  0 0.66838041E+03</rscale>
<asrwt>0</asrwt>
<pdfrwt beam="1">0</pdfrwt>
<pdfrwt beam="2">  1        2 0.40612120E+00 0.66838041E+03</pdfrwt>
<totfact> 0.37716684E+00</totfact>
</mgrwt>
</event>
<event>
 5    1  0.2343702E-004  0.6561283E+03  0.7818608E-02  0.9795347E-01
         13   -1    0    0    0    0  0.00000000000E+00  0.00000000000E+00  0.10000000000E+04  0.10000000000E+04  0.00000000000E+00 0. -1.
          2   -1    0    0  501    0 -0.00000000000E+00 -0.00000000000E+00 -0.10762608380E+03  0.10762608380E+03  0.00000000000E+00 0. -1.
    9000006    2    1    2  501    0  0.00000000000E+00  0.00000000000E+00  0.89237391620E+03  0.11076260838E+04  0.65612829172E+03 0.  0.
         13    1    3    3    0    0 -0.78375865560E+02 -0.31837285045E+03  0.42753829670E+03  0.53878849593E+03  0.00000000000E+00 0. -1.
          2    1    3    3  501    0  0.78375865560E+02  0.31837285045E+03  0.46483561950E+03  0.56883758786E+03  0.00000000000E+00 0. -1.
<mgrwt>
<rscale>  0 0.65612829E+03</rscale>
<asrwt>0</asrwt>
<pdfrwt beam="1">0</pdfrwt>
<pdfrwt beam="2">  1        2 0.39136840E+00 0.65612829E+03</pdfrwt>
<totfact> 0.42878902E+00</totfact>
</mgrwt>
</event>
<event>
 5    1  0.2343702E-004  0.6491269E+03  0.7818608E-02  0.9808419E-01
         13   -1    0    0    0    0  0.00000000000E+00  0.00000000000E+00  0.10000000000E+04  0.10000000000E+04  0.00000000000E+00 0. -1.
          2   -1    0    0  501    0 -0.00000000000E+00 -0.00000000000E+00 -0.10534144251E+03  0.10534144251E+03  0.00000000000E+00 0. -1.
    9000006    2    1    2  501    0  0.00000000000E+00  0.00000000000E+00  0.89465855749E+03  0.11053414425E+04  0.64912692908E+03 0.  0.
         13    1    3    3    0    0  0.27840594947E+03  0.25287837329E+02  0.16653505976E+03  0.32539710132E+03  0.00000000000E+00 0. -1.
          2    1    3    3  501    0 -0.27840594947E+03 -0.25287837329E+02  0.72812349772E+03  0.77994434119E+03  0.00000000000E+00 0. -1.
<mgrwt>
<rscale>  0 0.64912693E+03</rscale>
<asrwt>0</asrwt>
<pdfrwt beam="1">0</pdfrwt>
<pdfrwt beam="2">  1        2 0.38306060E+00 0.64912693E+03</pdfrwt>
<totfact> 0.46058717E+00</totfact>
</mgrwt>
</event>
<event>
 5    1  0.2343702E-004  0.6432245E+03  0.7818608E-02  0.9819577E-01
         13   -1    0    0    0    0  0.00000000000E+00  0.00000000000E+00  0.10000000000E+04  0.10000000000E+04  0.00000000000E+00 0. -1.
          2   -1    0    0  501    0 -0.00000000000E+00 -0.00000000000E+00 -0.10343443974E+03  0.10343443974E+03  0.00000000000E+00 0. -1.
    9000006    2    1    2  501    0  0.00000000000E+00  0.00000000000E+00  0.89656556026E+03  0.11034344397E+04  0.64322450120E+03 0.  0.
         13    1    3    3    0    0 -0.25351058184E+03 -0.18852287930E+03  0.34498409860E+03  0.46778469344E+03  0.00000000000E+00 0. -1.
          2    1    3    3  501    0  0.25351058184E+03  0.18852287930E+03  0.55158146166E+03  0.63564974630E+03  0.00000000000E+00 0. -1.
<mgrwt>
<rscale>  0 0.64322450E+03</rscale>
<asrwt>0</asrwt>
<pdfrwt beam="1">0</pdfrwt>
<pdfrwt beam="2">  1        2 0.37612603E+00 0.64322450E+03</pdfrwt>
<totfact> 0.48875198E+00</totfact>
</mgrwt>
</event>
<event>
 5    1  0.2343702E-004  0.6227417E+03  0.7818608E-02  0.9859316E-01
         13   -1    0    0    0    0  0.00000000000E+00  0.00000000000E+00  0.10000000000E+04  0.10000000000E+04  0.00000000000E+00 0. -1.
          2   -1    0    0  501    0 -0.00000000000E+00 -0.00000000000E+00 -0.96951806162E+02  0.96951806162E+02  0.00000000000E+00 0. -1.
    9000006    2    1    2  501    0  0.00000000000E+00  0.00000000000E+00  0.90304819384E+03  0.10969518062E+04  0.62274169978E+03 0.  0.
         13    1    3    3    0    0 -0.14922555432E+03  0.23673599477E+03  0.69201463684E+03  0.74645592963E+03  0.00000000000E+00 0. -1.
          2    1    3    3  501    0  0.14922555432E+03 -0.23673599477E+03  0.21103355700E+03  0.35049587653E+03  0.00000000000E+00 0. -1.
<mgrwt>
<rscale>  0 0.62274170E+03</rscale>
<asrwt>0</asrwt>
<pdfrwt beam="1">0</pdfrwt>
<pdfrwt beam="2">  1        2 0.35255277E+00 0.62274170E+03</pdfrwt>
<totfact> 0.59673004E+00</totfact>
</mgrwt>
</event>
<event>
 5    1  0.2343702E-004  0.6528790E+03  0.7818608E-02  0.9801392E-01
         13   -1    0    0    0    0  0.00000000000E+00  0.00000000000E+00  0.10000000000E+04  0.10000000000E+04  0.00000000000E+00 0. -1.
          2   -1    0    0  501    0 -0.00000000000E+00 -0.00000000000E+00 -0.10656274258E+03  0.10656274258E+03  0.00000000000E+00 0. -1.
    9000006    2    1    2  501    0  0.00000000000E+00  0.00000000000E+00  0.89343725742E+03  0.11065627426E+04  0.65287898597E+03 0.  0.
         13    1    3    3    0    0  0.23428217681E+02 -0.30231629865E+03  0.24179219635E+03  0.38782404777E+03  0.00000000000E+00 0. -1.
          4    1    3    3  501    0 -0.23428217681E+02  0.30231629865E+03  0.65164506106E+03  0.71873869481E+03  0.00000000000E+00 0. -1.
<mgrwt>
<rscale>  0 0.65287899E+03</rscale>
<asrwt>0</asrwt>
<pdfrwt beam="1">0</pdfrwt>
<pdfrwt beam="2">  1        2 0.38750170E+00 0.65287899E+03</pdfrwt>
<totfact> 0.44333285E+00</totfact>
</mgrwt>
</event>
<event>
 5    1  0.2343702E-004  0.6470917E+03  0.7818608E-02  0.9812252E-01
         13   -1    0    0    0    0  0.00000000000E+00  0.00000000000E+00  0.10000000000E+04  0.10000000000E+04  0.00000000000E+00 0. -1.
          2   -1    0    0  501    0 -0.00000000000E+00 -0.00000000000E+00 -0.10468191629E+03  0.10468191629E+03  0.00000000000E+00 0. -1.
    9000006    2    1    2  501    0  0.00000000000E+00  0.00000000000E+00  0.89531808371E+03  0.11046819163E+04  0.64709169765E+03 0.  0.
         13    1    3    3    0    0 -0.13257416066E+03  0.14593361552E+03  0.97183065902E+01  0.19740054128E+03  0.00000000000E+00 0. -1.
          4    1    3    3  501    0  0.13257416066E+03 -0.14593361552E+03  0.88559977712E+03  0.90728137501E+03  0.00000000000E+00 0. -1.
<mgrwt>
<rscale>  0 0.64709170E+03</rscale>
<asrwt>0</asrwt>
<pdfrwt beam="1">0</pdfrwt>
<pdfrwt beam="2">  1        2 0.38066232E+00 0.64709170E+03</pdfrwt>
<totfact> 0.47015616E+00</totfact>
</mgrwt>
</event>
<event>
 5    1  0.2343702E-004  0.6982417E+03  0.7818608E-02  0.9720244E-01
         13   -1    0    0    0    0  0.00000000000E+00  0.00000000000E+00  0.10000000000E+04  0.10000000000E+04  0.00000000000E+00 0. -1.
          2   -1    0    0  501    0 -0.00000000000E+00 -0.00000000000E+00 -0.12188537255E+03  0.12188537255E+03  0.00000000000E+00 0. -1.
    9000006    2    1    2  501    0  0.00000000000E+00  0.00000000000E+00  0.87811462745E+03  0.11218853725E+04  0.69824171329E+03 0.  0.
         13    1    3    3    0    0 -0.34211448226E+03  0.67982142881E+02  0.41514554282E+03  0.54222662462E+03  0.00000000000E+00 0. -1.
          2    1    3    3  501    0  0.34211448226E+03 -0.67982142881E+02  0.46296908463E+03  0.57965874793E+03  0.00000000000E+00 0. -1.
<mgrwt>
<rscale>  0 0.69824171E+03</rscale>
<asrwt>0</asrwt>
<pdfrwt beam="1">0</pdfrwt>
<pdfrwt beam="2">  1        2 0.44322047E+00 0.69824171E+03</pdfrwt>
<totfact> 0.27095614E+00</totfact>
</mgrwt>
</event>
<event>
 5    1  0.2343702E-004  0.6495169E+03  0.7818608E-02  0.9807686E-01
         13   -1    0    0    0    0  0.00000000000E+00  0.00000000000E+00  0.10000000000E+04  0.10000000000E+04  0.00000000000E+00 0. -1.
          2   -1    0    0  501    0 -0.00000000000E+00 -0.00000000000E+00 -0.10546805393E+03  0.10546805393E+03  0.00000000000E+00 0. -1.
    9000006    2    1    2  501    0  0.00000000000E+00  0.00000000000E+00  0.89453194607E+03  0.11054680539E+04  0.64951690951E+03 0.  0.
         13    1    3    3    0    0  0.50228640467E+02  0.30984207301E+03  0.58908358708E+03  0.66749119777E+03  0.00000000000E+00 0. -1.
          2    1    3    3  501    0 -0.50228640467E+02 -0.30984207301E+03  0.30544835899E+03  0.43797685617E+03  0.00000000000E+00 0. -1.
<mgrwt>
<rscale>  0 0.64951691E+03</rscale>
<asrwt>0</asrwt>
<pdfrwt beam="1">0</pdfrwt>
<pdfrwt beam="2">  1        2 0.38352100E+00 0.64951691E+03</pdfrwt>
<totfact> 0.45877056E+00</totfact>
</mgrwt>
</event>
<event>
 5    1  0.2343702E-004  0.6499539E+03  0.7818608E-02  0.9806866E-01
         13   -1    0    0    0    0  0.00000000000E+00  0.00000000000E+00  0.10000000000E+04  0.10000000000E+04  0.00000000000E+00 0. -1.
          2   -1    0    0  501    0 -0.00000000000E+00 -0.00000000000E+00 -0.10561001038E+03  0.10561001038E+03  0.00000000000E+00 0. -1.
    9000006    2    1    2  501    0  0.00000000000E+00  0.00000000000E+00  0.89438998962E+03  0.11056100104E+04  0.64995387645E+03 0.  0.
         13    1    3    3    0    0 -0.26218033344E+03 -0.72480756981E+02  0.14472187942E+03  0.30811752588E+03  0.00000000000E+00 0. -1.
          4    1    3    3  501    0  0.26218033344E+03  0.72480756981E+02  0.74966811020E+03  0.79749248450E+03  0.00000000000E+00 0. -1.
<mgrwt>
<rscale>  0 0.64995388E+03</rscale>
<asrwt>0</asrwt>
<pdfrwt beam="1">0</pdfrwt>
<pdfrwt beam="2">  1        2 0.38403721E+00 0.64995388E+03</pdfrwt>
<totfact> 0.45674150E+00</totfact>
</mgrwt>
</event>
<event>
 5    1  0.2343702E-004  0.6553268E+03  0.7818608E-02  0.9796835E-01
         13   -1    0    0    0    0  0.00000000000E+00  0.00000000000E+00  0.10000000000E+04  0.10000000000E+04  0.00000000000E+00 0. -1.
          2   -1    0    0  501    0 -0.00000000000E+00 -0.00000000000E+00 -0.10736328799E+03  0.10736328799E+03  0.00000000000E+00 0. -1.
    9000006    2    1    2  501    0  0.00000000000E+00  0.00000000000E+00  0.89263671201E+03  0.11073632880E+04  0.65532675206E+03 0.  0.
         13    1    3    3    0    0 -0.31441741556E+03  0.80995013608E+02  0.37179919221E+03  0.49361234057E+03  0.00000000000E+00 0. -1.
          4    1    3    3  501    0  0.31441741556E+03 -0.80995013608E+02  0.52083751979E+03  0.61375094742E+03  0.00000000000E+00 0. -1.
<mgrwt>
<rscale>  0 0.65532675E+03</rscale>
<asrwt>0</asrwt>
<pdfrwt beam="1">0</pdfrwt>
<pdfrwt beam="2">  1        2 0.39041278E+00 0.65532675E+03</pdfrwt>
<totfact> 0.43234271E+00</totfact>
</mgrwt>
</event>
<event>
 5    1  0.2343702E-004  0.6292287E+03  0.7818608E-02  0.9846555E-01
         13   -1    0    0    0    0  0.00000000000E+00  0.00000000000E+00  0.10000000000E+04  0.10000000000E+04  0.00000000000E+00 0. -1.
          2   -1    0    0  501    0 -0.00000000000E+00 -0.00000000000E+00 -0.98982193953E+02  0.98982193953E+02  0.00000000000E+00 0. -1.
    9000006    2    1    2  501    0  0.00000000000E+00  0.00000000000E+00  0.90101780605E+03  0.10989821940E+04  0.62922871502E+03 0.  0.
         13    1    3    3    0    0  0.13905820609E+02  0.18204893217E+03  0.30124553055E+01  0.18260410849E+03  0.00000000000E+00 0. -1.
          4    1    3    3  501    0 -0.13905820609E+02 -0.18204893217E+03  0.89800535074E+03  0.91637808546E+03  0.00000000000E+00 0. -1.
<mgrwt>
<rscale>  0 0.62922872E+03</rscale>
<asrwt>0</asrwt>
<pdfrwt beam="1">0</pdfrwt>
<pdfrwt beam="2">  1        2 0.35993601E+00 0.62922872E+03</pdfrwt>
<totfact> 0.56075180E+00</totfact>
</mgrwt>
</event>
<event>
 5    1  0.2343702E-004  0.5957816E+03  0.7818608E-02  0.9914197E-01
         13   -1    0    0    0    0  0.00000000000E+00  0.00000000000E+00  0.10000000000E+04  0.10000000000E+04  0.00000000000E+00 0. -1.
          2   -1    0    0  501    0 -0.00000000000E+00 -0.00000000000E+00 -0.88738939345E+02  0.88738939345E+02  0.00000000000E+00 0. -1.
    9000006    2    1    2  501    0  0.00000000000E+00  0.00000000000E+00  0.91126106065E+03  0.10887389393E+04  0.59578163565E+03 0.  0.
         13    1    3    3    0    0  0.26624032739E+03 -0.12175689398E+03  0.55622601019E+03  0.62856664529E+03  0.00000000000E+00 0. -1.
          2    1    3    3  501    0 -0.26624032739E+03  0.12175689398E+03  0.35503505046E+03  0.46017229405E+03  0.00000000000E+00 0. -1.
<mgrwt>
<rscale>  0 0.59578164E+03</rscale>
<asrwt>0</asrwt>
<pdfrwt beam="1">0</pdfrwt>
<pdfrwt beam="2">  1        2 0.32268773E+00 0.59578164E+03</pdfrwt>
<totfact> 0.76549066E+00</totfact>
</mgrwt>
</event>
<event>
 5    1  0.2343702E-004  0.6509575E+03  0.7818608E-02  0.9804984E-01
         13   -1    0    0    0    0  0.00000000000E+00  0.00000000000E+00  0.10000000000E+04  0.10000000000E+04  0.00000000000E+00 0. -1.
          2   -1    0    0  501    0 -0.00000000000E+00 -0.00000000000E+00 -0.10593640633E+03  0.10593640633E+03  0.00000000000E+00 0. -1.
    9000006    2    1    2  501    0  0.00000000000E+00  0.00000000000E+00  0.89406359367E+03  0.11059364063E+04  0.65095746813E+03 0.  0.
         13    1    3    3    0    0  0.76728720738E+02  0.26914085574E+02 -0.88402595082E+02  0.12011112940E+03  0.00000000000E+00 0. -1.
          4    1    3    3  501    0 -0.76728720738E+02 -0.26914085574E+02  0.98246618875E+03  0.98582527693E+03  0.00000000000E+00 0. -1.
<mgrwt>
<rscale>  0 0.65095747E+03</rscale>
<asrwt>0</asrwt>
<pdfrwt beam="1">0</pdfrwt>
<pdfrwt beam="2">  1        2 0.38522411E+00 0.65095747E+03</pdfrwt>
<totfact> 0.45210701E+00</totfact>
</mgrwt>
</event>
<event>
 5    1  0.2343702E-004  0.6485933E+03  0.7818608E-02  0.9809422E-01
         13   -1    0    0    0    0  0.00000000000E+00  0.00000000000E+00  0.10000000000E+04  0.10000000000E+04  0.00000000000E+00 0. -1.
          2   -1    0    0  501    0 -0.00000000000E+00 -0.00000000000E+00 -0.10516832590E+03  0.10516832590E+03  0.00000000000E+00 0. -1.
    9000006    2    1    2  501    0  0.00000000000E+00  0.00000000000E+00  0.89483167410E+03  0.11051683259E+04  0.64859332684E+03 0.  0.
         13    1    3    3    0    0 -0.16290108979E+03 -0.16835736387E+03  0.82952316534E+03  0.86196847324E+03  0.00000000000E+00 0. -1.
          2    1    3    3  501    0  0.16290108979E+03  0.16835736387E+03  0.65308508759E+02  0.24319985267E+03  0.00000000000E+00 0. -1.
<mgrwt>
<rscale>  0 0.64859333E+03</rscale>
<asrwt>0</asrwt>
<pdfrwt beam="1">0</pdfrwt>
<pdfrwt beam="2">  1        2 0.38243108E+00 0.64859333E+03</pdfrwt>
<totfact> 0.46308162E+00</totfact>
</mgrwt>
</event>
<event>
 5    1  0.2343702E-004  0.6533853E+03  0.7818608E-02  0.9800448E-01
         13   -1    0    0    0    0  0.00000000000E+00  0.00000000000E+00  0.10000000000E+04  0.10000000000E+04  0.00000000000E+00 0. -1.
          2   -1    0    0  501    0 -0.00000000000E+00 -0.00000000000E+00 -0.10672809556E+03  0.10672809556E+03  0.00000000000E+00 0. -1.
    9000006    2    1    2  501    0  0.00000000000E+00  0.00000000000E+00  0.89327190444E+03  0.11067280956E+04  0.65338532446E+03 0.  0.
         13    1    3    3    0    0  0.21046341677E+03  0.20197781933E+03  0.69579816985E+03  0.75447000104E+03  0.00000000000E+00 0. -1.
          4    1    3    3  501    0 -0.21046341677E+03 -0.20197781933E+03  0.19747373459E+03  0.35225809452E+03  0.00000000000E+00 0. -1.
<mgrwt>
<rscale>  0 0.65338532E+03</rscale>
<asrwt>0</asrwt>
<pdfrwt beam="1">0</pdfrwt>
<pdfrwt beam="2">  1        2 0.38810298E+00 0.65338532E+03</pdfrwt>
<totfact> 0.44104234E+00</totfact>
</mgrwt>
</event>
<event>
 5    1  0.2343702E-004  0.6516577E+03  0.7818608E-02  0.9803674E-01
         13   -1    0    0    0    0  0.00000000000E+00  0.00000000000E+00  0.10000000000E+04  0.10000000000E+04  0.00000000000E+00 0. -1.
          2   -1    0    0  501    0 -0.00000000000E+00 -0.00000000000E+00 -0.10616444974E+03  0.10616444974E+03  0.00000000000E+00 0. -1.
    9000006    2    1    2  501    0  0.00000000000E+00  0.00000000000E+00  0.89383555026E+03  0.11061644497E+04  0.65165773145E+03 0.  0.
         13    1    3    3    0    0 -0.13171875182E+03  0.95285095497E+02 -0.32402338469E+02  0.16576788152E+03  0.00000000000E+00 0. -1.
          4    1    3    3  501    0  0.13171875182E+03 -0.95285095497E+02  0.92623788873E+03  0.94039656822E+03  0.00000000000E+00 0. -1.
<mgrwt>
<rscale>  0 0.65165773E+03</rscale>
<asrwt>0</asrwt>
<pdfrwt beam="1">0</pdfrwt>
<pdfrwt beam="2">  1        2 0.38605336E+00 0.65165773E+03</pdfrwt>
<totfact> 0.44889437E+00</totfact>
</mgrwt>
</event>
<event>
 5    1  0.2343702E-004  0.6518618E+03  0.7818608E-02  0.9803292E-01
         13   -1    0    0    0    0  0.00000000000E+00  0.00000000000E+00  0.10000000000E+04  0.10000000000E+04  0.00000000000E+00 0. -1.
          2   -1    0    0  501    0 -0.00000000000E+00 -0.00000000000E+00 -0.10623095798E+03  0.10623095798E+03  0.00000000000E+00 0. -1.
    9000006    2    1    2  501    0  0.00000000000E+00  0.00000000000E+00  0.89376904202E+03  0.11062309580E+04  0.65186181964E+03 0.  0.
         13    1    3    3    0    0  0.21741829945E+03 -0.24131912005E+03  0.40118032328E+03  0.51618919635E+03  0.00000000000E+00 0. -1.
          2    1    3    3  501    0 -0.21741829945E+03  0.24131912005E+03  0.49258871874E+03  0.59004176163E+03  0.00000000000E+00 0. -1.
<mgrwt>
<rscale>  0 0.65186182E+03</rscale>
<asrwt>0</asrwt>
<pdfrwt beam="1">0</pdfrwt>
<pdfrwt beam="2">  1        2 0.38629521E+00 0.65186182E+03</pdfrwt>
<totfact> 0.44796131E+00</totfact>
</mgrwt>
</event>
<event>
 5    1  0.2343702E-004  0.6515715E+03  0.7818608E-02  0.9803835E-01
         13   -1    0    0    0    0  0.00000000000E+00  0.00000000000E+00  0.10000000000E+04  0.10000000000E+04  0.00000000000E+00 0. -1.
          2   -1    0    0  501    0 -0.00000000000E+00 -0.00000000000E+00 -0.10613635019E+03  0.10613635019E+03  0.00000000000E+00 0. -1.
    9000006    2    1    2  501    0  0.00000000000E+00  0.00000000000E+00  0.89386364981E+03  0.11061363502E+04  0.65157148555E+03 0.  0.
         13    1    3    3    0    0  0.16183013921E+03 -0.69898930510E+02 -0.18177665736E+02  0.17721535479E+03  0.00000000000E+00 0. -1.
          4    1    3    3  501    0 -0.16183013921E+03  0.69898930510E+02  0.91204131554E+03  0.92892099540E+03  0.00000000000E+00 0. -1.
<mgrwt>
<rscale>  0 0.65157149E+03</rscale>
<asrwt>0</asrwt>
<pdfrwt beam="1">0</pdfrwt>
<pdfrwt beam="2">  1        2 0.38595118E+00 0.65157149E+03</pdfrwt>
<totfact> 0.44928911E+00</totfact>
</mgrwt>
</event>
<event>
 5    1  0.2343702E-004  0.6438795E+03  0.7818608E-02  0.9818332E-01
         13   -1    0    0    0    0  0.00000000000E+00  0.00000000000E+00  0.10000000000E+04  0.10000000000E+04  0.00000000000E+00 0. -1.
          2   -1    0    0  501    0 -0.00000000000E+00 -0.00000000000E+00 -0.10364519918E+03  0.10364519918E+03  0.00000000000E+00 0. -1.
    9000006    2    1    2  501    0  0.00000000000E+00  0.00000000000E+00  0.89635480082E+03  0.11036451992E+04  0.64387948929E+03 0.  0.
         13    1    3    3    0    0  0.19550660473E+03  0.65649356518E+02  0.24446618370E+02  0.20767837551E+03  0.00000000000E+00 0. -1.
          4    1    3    3  501    0 -0.19550660473E+03 -0.65649356518E+02  0.87190818245E+03  0.89596682367E+03  0.00000000000E+00 0. -1.
<mgrwt>
<rscale>  0 0.64387949E+03</rscale>
<asrwt>0</asrwt>
<pdfrwt beam="1">0</pdfrwt>
<pdfrwt beam="2">  1        2 0.37689243E+00 0.64387949E+03</pdfrwt>
<totfact> 0.48556392E+00</totfact>
</mgrwt>
</event>
<event>
 5    1  0.2343702E-004  0.6363677E+03  0.7818608E-02  0.9832701E-01
         13   -1    0    0    0    0  0.00000000000E+00  0.00000000000E+00  0.10000000000E+04  0.10000000000E+04  0.00000000000E+00 0. -1.
          2   -1    0    0  501    0 -0.00000000000E+00 -0.00000000000E+00 -0.10124095191E+03  0.10124095191E+03  0.00000000000E+00 0. -1.
    9000006    2    1    2  501    0  0.00000000000E+00  0.00000000000E+00  0.89875904809E+03  0.11012409519E+04  0.63636766704E+03 0.  0.
         13    1    3    3    0    0 -0.78921237641E+00  0.31162344787E+03  0.33815257257E+03  0.45984449378E+03  0.00000000000E+00 0. -1.
          4    1    3    3  501    0  0.78921237641E+00 -0.31162344787E+03  0.56060647552E+03  0.64139645814E+03  0.00000000000E+00 0. -1.
<mgrwt>
<rscale>  0 0.63636767E+03</rscale>
<asrwt>0</asrwt>
<pdfrwt beam="1">0</pdfrwt>
<pdfrwt beam="2">  1        2 0.36814969E+00 0.63636767E+03</pdfrwt>
<totfact> 0.52308966E+00</totfact>
</mgrwt>
</event>
<event>
 5    1  0.2343702E-004  0.7041649E+03  0.7818608E-02  0.9710136E-01
         13   -1    0    0    0    0  0.00000000000E+00  0.00000000000E+00  0.10000000000E+04  0.10000000000E+04  0.00000000000E+00 0. -1.
          2   -1    0    0  501    0 -0.00000000000E+00 -0.00000000000E+00 -0.12396204024E+03  0.12396204024E+03  0.00000000000E+00 0. -1.
    9000006    2    1    2  501    0  0.00000000000E+00  0.00000000000E+00  0.87603795976E+03  0.11239620402E+04  0.70416486775E+03 0.  0.
         13    1    3    3    0    0  0.23269677168E+03 -0.53824196017E+02  0.85092023100E+03  0.88380431722E+03  0.00000000000E+00 0. -1.
          2    1    3    3  501    0 -0.23269677168E+03  0.53824196017E+02  0.25117728762E+02  0.24015772302E+03  0.00000000000E+00 0. -1.
<mgrwt>
<rscale>  0 0.70416487E+03</rscale>
<asrwt>0</asrwt>
<pdfrwt beam="1">0</pdfrwt>
<pdfrwt beam="2">  1        2 0.45077201E+00 0.70416487E+03</pdfrwt>
<totfact> 0.25290515E+00</totfact>
</mgrwt>
</event>
<event>
 5    1  0.2343702E-004  0.6671525E+03  0.7818608E-02  0.9775116E-01
         13   -1    0    0    0    0  0.00000000000E+00  0.00000000000E+00  0.10000000000E+04  0.10000000000E+04  0.00000000000E+00 0. -1.
          2   -1    0    0  501    0 -0.00000000000E+00 -0.00000000000E+00 -0.11127312466E+03  0.11127312466E+03  0.00000000000E+00 0. -1.
    9000006    2    1    2  501    0  0.00000000000E+00  0.00000000000E+00  0.88872687534E+03  0.11112731247E+04  0.66715253026E+03 0.  0.
         13    1    3    3    0    0  0.21618325551E+03  0.70172365207E+02  0.85105854276E+03  0.88088591997E+03  0.00000000000E+00 0. -1.
          4    1    3    3  501    0 -0.21618325551E+03 -0.70172365207E+02  0.37668332585E+02  0.23038720469E+03  0.00000000000E+00 0. -1.
<mgrwt>
<rscale>  0 0.66715253E+03</rscale>
<asrwt>0</asrwt>
<pdfrwt beam="1">0</pdfrwt>
<pdfrwt beam="2">  1        2 0.40463040E+00 0.66715253E+03</pdfrwt>
<totfact> 0.38211705E+00</totfact>
</mgrwt>
</event>
<event>
 5    1  0.2343702E-004  0.6417898E+03  0.7818608E-02  0.9822308E-01
         13   -1    0    0    0    0  0.00000000000E+00  0.00000000000E+00  0.10000000000E+04  0.10000000000E+04  0.00000000000E+00 0. -1.
          2   -1    0    0  501    0 -0.00000000000E+00 -0.00000000000E+00 -0.10297352752E+03  0.10297352752E+03  0.00000000000E+00 0. -1.
    9000006    2    1    2  501    0  0.00000000000E+00  0.00000000000E+00  0.89702647248E+03  0.11029735275E+04  0.64178977095E+03 0.  0.
         13    1    3    3    0    0  0.18444085830E+03 -0.14260134012E+03  0.69565274956E+02  0.24329591015E+03  0.00000000000E+00 0. -1.
          2    1    3    3  501    0 -0.18444085830E+03  0.14260134012E+03  0.82746119752E+03  0.85967761738E+03  0.00000000000E+00 0. -1.
<mgrwt>
<rscale>  0 0.64178977E+03</rscale>
<asrwt>0</asrwt>
<pdfrwt beam="1">0</pdfrwt>
<pdfrwt beam="2">  1        2 0.37444998E+00 0.64178977E+03</pdfrwt>
<totfact> 0.49579108E+00</totfact>
</mgrwt>
</event>
<event>
 5    1  0.2343702E-004  0.6521969E+03  0.7818608E-02  0.9802665E-01
         13   -1    0    0    0    0  0.00000000000E+00  0.00000000000E+00  0.10000000000E+04  0.10000000000E+04  0.00000000000E+00 0. -1.
          2   -1    0    0  501    0 -0.00000000000E+00 -0.00000000000E+00 -0.10634021439E+03  0.10634021439E+03  0.00000000000E+00 0. -1.
    9000006    2    1    2  501    0  0.00000000000E+00  0.00000000000E+00  0.89365978561E+03  0.11063402144E+04  0.65219694690E+03 0.  0.
         13    1    3    3    0    0 -0.23300930176E+03 -0.83041824993E+02  0.80727846659E+03  0.84432683365E+03  0.00000000000E+00 0. -1.
          4    1    3    3  501    0  0.23300930176E+03  0.83041824993E+02  0.86381319027E+02  0.26201338073E+03  0.00000000000E+00 0. -1.
<mgrwt>
<rscale>  0 0.65219695E+03</rscale>
<asrwt>0</asrwt>
<pdfrwt beam="1">0</pdfrwt>
<pdfrwt beam="2">  1        2 0.38669250E+00 0.65219695E+03</pdfrwt>
<totfact> 0.44643235E+00</totfact>
</mgrwt>
</event>
<event>
 5    1  0.2343702E-004  0.6471339E+03  0.7818608E-02  0.9812172E-01
         13   -1    0    0    0    0  0.00000000000E+00  0.00000000000E+00  0.10000000000E+04  0.10000000000E+04  0.00000000000E+00 0. -1.
          2   -1    0    0  501    0 -0.00000000000E+00 -0.00000000000E+00 -0.10469558195E+03  0.10469558195E+03  0.00000000000E+00 0. -1.
    9000006    2    1    2  501    0  0.00000000000E+00  0.00000000000E+00  0.89530441805E+03  0.11046955819E+04  0.64713393343E+03 0.  0.
         13    1    3    3    0    0  0.83636642659E+01  0.16623741625E+03 -0.26008898419E+02  0.16846748125E+03  0.00000000000E+00 0. -1.
          4    1    3    3  501    0 -0.83636642659E+01 -0.16623741625E+03  0.92131331647E+03  0.93622810070E+03  0.00000000000E+00 0. -1.
<mgrwt>
<rscale>  0 0.64713393E+03</rscale>
<asrwt>0</asrwt>
<pdfrwt beam="1">0</pdfrwt>
<pdfrwt beam="2">  1        2 0.38071201E+00 0.64713393E+03</pdfrwt>
<totfact> 0.46995607E+00</totfact>
</mgrwt>
</event>
<event>
 5    1  0.2343702E-004  0.4644533E+03  0.7818608E-02  0.1023498E+00
         13   -1    0    0    0    0  0.00000000000E+00  0.00000000000E+00  0.10000000000E+04  0.10000000000E+04  0.00000000000E+00 0. -1.
          2   -1    0    0  501    0 -0.00000000000E+00 -0.00000000000E+00 -0.53929213644E+02  0.53929213644E+02  0.00000000000E+00 0. -1.
    9000006    2    1    2  501    0  0.00000000000E+00  0.00000000000E+00  0.94607078636E+03  0.10539292136E+04  0.46445328568E+03 0.  0.
         13    1    3    3    0    0  0.36565311455E+02  0.73566053144E+02 -0.19853938788E+02  0.84517247129E+02  0.00000000000E+00 0. -1.
          2    1    3    3  501    0 -0.36565311455E+02 -0.73566053144E+02  0.96592472514E+03  0.96941196651E+03  0.00000000000E+00 0. -1.
<mgrwt>
<rscale>  0 0.46445329E+03</rscale>
<asrwt>0</asrwt>
<pdfrwt beam="1">0</pdfrwt>
<pdfrwt beam="2">  1        2 0.19610664E+00 0.46445329E+03</pdfrwt>
<totfact> 0.21973688E+01</totfact>
</mgrwt>
</event>
<event>
 5    1  0.2343702E-004  0.6477095E+03  0.7818608E-02  0.9811087E-01
         13   -1    0    0    0    0  0.00000000000E+00  0.00000000000E+00  0.10000000000E+04  0.10000000000E+04  0.00000000000E+00 0. -1.
          2   -1    0    0  501    0 -0.00000000000E+00 -0.00000000000E+00 -0.10488188459E+03  0.10488188459E+03  0.00000000000E+00 0. -1.
    9000006    2    1    2  501    0  0.00000000000E+00  0.00000000000E+00  0.89511811541E+03  0.11048818846E+04  0.64770945520E+03 0.  0.
         13    1    3    3    0    0  0.17934749638E+03  0.14820878486E+03  0.83184619502E+03  0.86377049067E+03  0.00000000000E+00 0. -1.
          4    1    3    3  501    0 -0.17934749638E+03 -0.14820878486E+03  0.63271920386E+02  0.24111139392E+03  0.00000000000E+00 0. -1.
<mgrwt>
<rscale>  0 0.64770946E+03</rscale>
<asrwt>0</asrwt>
<pdfrwt beam="1">0</pdfrwt>
<pdfrwt beam="2">  1        2 0.38138948E+00 0.64770946E+03</pdfrwt>
<totfact> 0.46723593E+00</totfact>
</mgrwt>
</event>
<event>
 5    1  0.2343702E-004  0.6510297E+03  0.7818608E-02  0.9804849E-01
         13   -1    0    0    0    0  0.00000000000E+00  0.00000000000E+00  0.10000000000E+04  0.10000000000E+04  0.00000000000E+00 0. -1.
          2   -1    0    0  501    0 -0.00000000000E+00 -0.00000000000E+00 -0.10595991633E+03  0.10595991633E+03  0.00000000000E+00 0. -1.
    9000006    2    1    2  501    0  0.00000000000E+00  0.00000000000E+00  0.89404008367E+03  0.11059599163E+04  0.65102969620E+03 0.  0.
         13    1    3    3    0    0  0.26931017860E+03 -0.16228151312E+03  0.59012853870E+03  0.66866654917E+03  0.00000000000E+00 0. -1.
          4    1    3    3  501    0 -0.26931017860E+03  0.16228151312E+03  0.30391154497E+03  0.43729336716E+03  0.00000000000E+00 0. -1.
<mgrwt>
<rscale>  0 0.65102970E+03</rscale>
<asrwt>0</asrwt>
<pdfrwt beam="1">0</pdfrwt>
<pdfrwt beam="2">  1        2 0.38530960E+00 0.65102970E+03</pdfrwt>
<totfact> 0.45177484E+00</totfact>
</mgrwt>
</event>
<event>
 5    1  0.2343702E-004  0.6791693E+03  0.7818608E-02  0.9753534E-01
         13   -1    0    0    0    0  0.00000000000E+00  0.00000000000E+00  0.10000000000E+04  0.10000000000E+04  0.00000000000E+00 0. -1.
          2   -1    0    0  501    0 -0.00000000000E+00 -0.00000000000E+00 -0.11531772048E+03  0.11531772048E+03  0.00000000000E+00 0. -1.
    9000006    2    1    2  501    0  0.00000000000E+00  0.00000000000E+00  0.88468227952E+03  0.11153177205E+04  0.67916925866E+03 0.  0.
         13    1    3    3    0    0 -0.14671586010E+03  0.18947033972E+03  0.47216386938E+02  0.24424156164E+03  0.00000000000E+00 0. -1.
          4    1    3    3  501    0  0.14671586010E+03 -0.18947033972E+03  0.83746589259E+03  0.87107615883E+03  0.00000000000E+00 0. -1.
<mgrwt>
<rscale>  0 0.67916926E+03</rscale>
<asrwt>0</asrwt>
<pdfrwt beam="1">0</pdfrwt>
<pdfrwt beam="2">  1        2 0.41933805E+00 0.67916926E+03</pdfrwt>
<totfact> 0.33572214E+00</totfact>
</mgrwt>
</event>
<event>
 5    1  0.2343702E-004  0.6449552E+03  0.7818608E-02  0.9816292E-01
         13   -1    0    0    0    0  0.00000000000E+00  0.00000000000E+00  0.10000000000E+04  0.10000000000E+04  0.00000000000E+00 0. -1.
          2   -1    0    0  501    0 -0.00000000000E+00 -0.00000000000E+00 -0.10399180577E+03  0.10399180577E+03  0.00000000000E+00 0. -1.
    9000006    2    1    2  501    0  0.00000000000E+00  0.00000000000E+00  0.89600819423E+03  0.11039918058E+04  0.64495521012E+03 0.  0.
         13    1    3    3    0    0  0.26504171347E+03 -0.12131641561E+03  0.68411808601E+03  0.74362782236E+03  0.00000000000E+00 0. -1.
          4    1    3    3  501    0 -0.26504171347E+03  0.12131641561E+03  0.21189010822E+03  0.36036398341E+03  0.00000000000E+00 0. -1.
<mgrwt>
<rscale>  0 0.64495521E+03</rscale>
<asrwt>0</asrwt>
<pdfrwt beam="1">0</pdfrwt>
<pdfrwt beam="2">  1        2 0.37815282E+00 0.64495521E+03</pdfrwt>
<totfact> 0.48036219E+00</totfact>
</mgrwt>
</event>
<event>
 5    1  0.2343702E-004  0.6526503E+03  0.7818608E-02  0.9801819E-01
         13   -1    0    0    0    0  0.00000000000E+00  0.00000000000E+00  0.10000000000E+04  0.10000000000E+04  0.00000000000E+00 0. -1.
          2   -1    0    0  501    0 -0.00000000000E+00 -0.00000000000E+00 -0.10648810958E+03  0.10648810958E+03  0.00000000000E+00 0. -1.
    9000006    2    1    2  501    0  0.00000000000E+00  0.00000000000E+00  0.89351189042E+03  0.11064881096E+04  0.65265031857E+03 0.  0.
         13    1    3    3    0    0 -0.17840528779E+03  0.26743027320E+03  0.54176833534E+03  0.62996851264E+03  0.00000000000E+00 0. -1.
          2    1    3    3  501    0  0.17840528779E+03 -0.26743027320E+03  0.35174355507E+03  0.47651959694E+03  0.00000000000E+00 0. -1.
<mgrwt>
<rscale>  0 0.65265032E+03</rscale>
<asrwt>0</asrwt>
<pdfrwt beam="1">0</pdfrwt>
<pdfrwt beam="2">  1        2 0.38723031E+00 0.65265032E+03</pdfrwt>
<totfact> 0.44437020E+00</totfact>
</mgrwt>
</event>
<event>
 5    1  0.2343702E-004  0.6330073E+03  0.7818608E-02  0.9839198E-01
         13   -1    0    0    0    0  0.00000000000E+00  0.00000000000E+00  0.10000000000E+04  0.10000000000E+04  0.00000000000E+00 0. -1.
          2   -1    0    0  501    0 -0.00000000000E+00 -0.00000000000E+00 -0.10017456119E+03  0.10017456119E+03  0.00000000000E+00 0. -1.
    9000006    2    1    2  501    0  0.00000000000E+00  0.00000000000E+00  0.89982543881E+03  0.11001745612E+04  0.63300730229E+03 0.  0.
         13    1    3    3    0    0 -0.24236040604E+03  0.20269251631E+03  0.41731682552E+03  0.52342731630E+03  0.00000000000E+00 0. -1.
          2    1    3    3  501    0  0.24236040604E+03 -0.20269251631E+03  0.48250861329E+03  0.57674724489E+03  0.00000000000E+00 0. -1.
<mgrwt>
<rscale>  0 0.63300730E+03</rscale>
<asrwt>0</asrwt>
<pdfrwt beam="1">0</pdfrwt>
<pdfrwt beam="2">  1        2 0.36427190E+00 0.63300730E+03</pdfrwt>
<totfact> 0.54057024E+00</totfact>
</mgrwt>
</event>
<event>
 5    1  0.2343702E-004  0.6520112E+03  0.7818608E-02  0.9803013E-01
         13   -1    0    0    0    0  0.00000000000E+00  0.00000000000E+00  0.10000000000E+04  0.10000000000E+04  0.00000000000E+00 0. -1.
          2   -1    0    0  501    0 -0.00000000000E+00 -0.00000000000E+00 -0.10627964853E+03  0.10627964853E+03  0.00000000000E+00 0. -1.
    9000006    2    1    2  501    0  0.00000000000E+00  0.00000000000E+00  0.89372035147E+03  0.11062796485E+04  0.65201119172E+03 0.  0.
         13    1    3    3    0    0 -0.76180116337E+02  0.31181763923E+03  0.35019189052E+03  0.47504527200E+03  0.00000000000E+00 0. -1.
          4    1    3    3  501    0  0.76180116337E+02 -0.31181763923E+03  0.54352846094E+03  0.63123437653E+03  0.00000000000E+00 0. -1.
<mgrwt>
<rscale>  0 0.65201119E+03</rscale>
<asrwt>0</asrwt>
<pdfrwt beam="1">0</pdfrwt>
<pdfrwt beam="2">  1        2 0.38647226E+00 0.65201119E+03</pdfrwt>
<totfact> 0.44727934E+00</totfact>
</mgrwt>
</event>
<event>
 5    1  0.2343702E-004  0.6366829E+03  0.7818608E-02  0.9832094E-01
         13   -1    0    0    0    0  0.00000000000E+00  0.00000000000E+00  0.10000000000E+04  0.10000000000E+04  0.00000000000E+00 0. -1.
          2   -1    0    0  501    0 -0.00000000000E+00 -0.00000000000E+00 -0.10134127191E+03  0.10134127191E+03  0.00000000000E+00 0. -1.
    9000006    2    1    2  501    0  0.00000000000E+00  0.00000000000E+00  0.89865872809E+03  0.11013412719E+04  0.63668287839E+03 0.  0.
         13    1    3    3    0    0  0.86041696357E+02  0.11720636799E+03  0.93920743689E+03  0.95039524184E+03  0.00000000000E+00 0. -1.
          2    1    3    3  501    0 -0.86041696357E+02 -0.11720636799E+03 -0.40548708797E+02  0.15094603007E+03  0.00000000000E+00 0. -1.
<mgrwt>
<rscale>  0 0.63668288E+03</rscale>
<asrwt>0</asrwt>
<pdfrwt beam="1">0</pdfrwt>
<pdfrwt beam="2">  1        2 0.36851449E+00 0.63668288E+03</pdfrwt>
<totfact> 0.52147220E+00</totfact>
</mgrwt>
</event>
<event>
 5    1  0.2343702E-004  0.6375935E+03  0.7818608E-02  0.9830342E-01
         13   -1    0    0    0    0  0.00000000000E+00  0.00000000000E+00  0.10000000000E+04  0.10000000000E+04  0.00000000000E+00 0. -1.
          2   -1    0    0  501    0 -0.00000000000E+00 -0.00000000000E+00 -0.10163136026E+03  0.10163136026E+03  0.00000000000E+00 0. -1.
    9000006    2    1    2  501    0  0.00000000000E+00  0.00000000000E+00  0.89836863974E+03  0.11016313603E+04  0.63759347631E+03 0.  0.
         13    1    3    3    0    0  0.22078872954E+03  0.18758498722E+03  0.67902383705E+03  0.73824735814E+03  0.00000000000E+00 0. -1.
          4    1    3    3  501    0 -0.22078872954E+03 -0.18758498722E+03  0.21934480269E+03  0.36338400212E+03  0.00000000000E+00 0. -1.
<mgrwt>
<rscale>  0 0.63759348E+03</rscale>
<asrwt>0</asrwt>
<pdfrwt beam="1">0</pdfrwt>
<pdfrwt beam="2">  1        2 0.36956936E+00 0.63759348E+03</pdfrwt>
<totfact> 0.51682090E+00</totfact>
</mgrwt>
</event>
<event>
 5    1  0.2343702E-004  0.6491962E+03  0.7818608E-02  0.9808289E-01
         13   -1    0    0    0    0  0.00000000000E+00  0.00000000000E+00  0.10000000000E+04  0.10000000000E+04  0.00000000000E+00 0. -1.
          2   -1    0    0  501    0 -0.00000000000E+00 -0.00000000000E+00 -0.10536391297E+03  0.10536391297E+03  0.00000000000E+00 0. -1.
    9000006    2    1    2  501    0  0.00000000000E+00  0.00000000000E+00  0.89463608703E+03  0.11053639130E+04  0.64919615825E+03 0.  0.
         13    1    3    3    0    0 -0.92890748641E+02 -0.18305575550E+03  0.19187167746E+02  0.20617043486E+03  0.00000000000E+00 0. -1.
          4    1    3    3  501    0  0.92890748641E+02  0.18305575550E+03  0.87544891928E+03  0.89919347811E+03  0.00000000000E+00 0. -1.
<mgrwt>
<rscale>  0 0.64919616E+03</rscale>
<asrwt>0</asrwt>
<pdfrwt beam="1">0</pdfrwt>
<pdfrwt beam="2">  1        2 0.38314231E+00 0.64919616E+03</pdfrwt>
<totfact> 0.46026429E+00</totfact>
</mgrwt>
</event>
<event>
 5    1  0.2343702E-004  0.6637849E+03  0.7818608E-02  0.9781251E-01
         13   -1    0    0    0    0  0.00000000000E+00  0.00000000000E+00  0.10000000000E+04  0.10000000000E+04  0.00000000000E+00 0. -1.
          2   -1    0    0  501    0 -0.00000000000E+00 -0.00000000000E+00 -0.11015259522E+03  0.11015259522E+03  0.00000000000E+00 0. -1.
    9000006    2    1    2  501    0  0.00000000000E+00  0.00000000000E+00  0.88984740478E+03  0.11101525952E+04  0.66378489051E+03 0.  0.
         13    1    3    3    0    0 -0.12293873129E+03  0.53015587164E+02 -0.62986267246E+02  0.14795896051E+03  0.00000000000E+00 0. -1.
          4    1    3    3  501    0  0.12293873129E+03 -0.53015587164E+02  0.95283367203E+03  0.96219363471E+03  0.00000000000E+00 0. -1.
<mgrwt>
<rscale>  0 0.66378489E+03</rscale>
<asrwt>0</asrwt>
<pdfrwt beam="1">0</pdfrwt>
<pdfrwt beam="2">  1        2 0.40055574E+00 0.66378489E+03</pdfrwt>
<totfact> 0.39594529E+00</totfact>
</mgrwt>
</event>
<event>
 5    1  0.2343702E-004  0.6541620E+03  0.7818608E-02  0.9799001E-01
         13   -1    0    0    0    0  0.00000000000E+00  0.00000000000E+00  0.10000000000E+04  0.10000000000E+04  0.00000000000E+00 0. -1.
          2   -1    0    0  501    0 -0.00000000000E+00 -0.00000000000E+00 -0.10698199185E+03  0.10698199185E+03  0.00000000000E+00 0. -1.
    9000006    2    1    2  501    0  0.00000000000E+00  0.00000000000E+00  0.89301800815E+03  0.11069819919E+04  0.65416203453E+03 0.  0.
         13    1    3    3    0    0 -0.24599040390E+03 -0.19596367907E+03  0.29450195786E+03  0.43086476476E+03  0.00000000000E+00 0. -1.
          2    1    3    3  501    0  0.24599040390E+03  0.19596367907E+03  0.59851605029E+03  0.67611722710E+03  0.00000000000E+00 0. -1.
<mgrwt>
<rscale>  0 0.65416203E+03</rscale>
<asrwt>0</asrwt>
<pdfrwt beam="1">0</pdfrwt>
<pdfrwt beam="2">  1        2 0.38902625E+00 0.65416203E+03</pdfrwt>
<totfact> 0.43754615E+00</totfact>
</mgrwt>
</event>
<event>
 5    1  0.2343702E-004  0.6587174E+03  0.7818608E-02  0.9790558E-01
         13   -1    0    0    0    0  0.00000000000E+00  0.00000000000E+00  0.10000000000E+04  0.10000000000E+04  0.00000000000E+00 0. -1.
          2   -1    0    0  501    0 -0.00000000000E+00 -0.00000000000E+00 -0.10847715386E+03  0.10847715386E+03  0.00000000000E+00 0. -1.
    9000006    2    1    2  501    0  0.00000000000E+00  0.00000000000E+00  0.89152284614E+03  0.11084771539E+04  0.65871740180E+03 0.  0.
         13    1    3    3    0    0  0.12564688404E+03  0.22935164029E+03  0.78268696479E+03  0.82522009138E+03  0.00000000000E+00 0. -1.
          4    1    3    3  501    0 -0.12564688404E+03 -0.22935164029E+03  0.10883588135E+03  0.28325706248E+03  0.00000000000E+00 0. -1.
<mgrwt>
<rscale>  0 0.65871740E+03</rscale>
<asrwt>0</asrwt>
<pdfrwt beam="1">0</pdfrwt>
<pdfrwt beam="2">  1        2 0.39446321E+00 0.65871740E+03</pdfrwt>
<totfact> 0.41746073E+00</totfact>
</mgrwt>
</event>
<event>
 5    1  0.2343702E-004  0.6709943E+03  0.7818608E-02  0.9768163E-01
         13   -1    0    0    0    0  0.00000000000E+00  0.00000000000E+00  0.10000000000E+04  0.10000000000E+04  0.00000000000E+00 0. -1.
          2   -1    0    0  501    0 -0.00000000000E+00 -0.00000000000E+00 -0.11255832446E+03  0.11255832446E+03  0.00000000000E+00 0. -1.
    9000006    2    1    2  501    0  0.00000000000E+00  0.00000000000E+00  0.88744167554E+03  0.11125583245E+04  0.67099426066E+03 0.  0.
         13    1    3    3    0    0 -0.31631798044E+03  0.92486370545E+02  0.54789661644E+03  0.63937586426E+03  0.00000000000E+00 0. -1.
          4    1    3    3  501    0  0.31631798044E+03 -0.92486370545E+02  0.33954505910E+03  0.47318246020E+03  0.00000000000E+00 0. -1.
<mgrwt>
<rscale>  0 0.67099426E+03</rscale>
<asrwt>0</asrwt>
<pdfrwt beam="1">0</pdfrwt>
<pdfrwt beam="2">  1        2 0.40930386E+00 0.67099426E+03</pdfrwt>
<totfact> 0.36679014E+00</totfact>
</mgrwt>
</event>
<event>
 5    1  0.2343702E-004  0.6391891E+03  0.7818608E-02  0.9827279E-01
         13   -1    0    0    0    0  0.00000000000E+00  0.00000000000E+00  0.10000000000E+04  0.10000000000E+04  0.00000000000E+00 0. -1.
          2   -1    0    0  501    0 -0.00000000000E+00 -0.00000000000E+00 -0.10214067630E+03  0.10214067630E+03  0.00000000000E+00 0. -1.
    9000006    2    1    2  501    0  0.00000000000E+00  0.00000000000E+00  0.89785932370E+03  0.11021406763E+04  0.63918909971E+03 0.  0.
         13    1    3    3    0    0  0.23932218920E+03  0.20117318353E+03  0.33461999101E+03  0.45794792105E+03  0.00000000000E+00 0. -1.
          4    1    3    3  501    0 -0.23932218920E+03 -0.20117318353E+03  0.56323933269E+03  0.64419275524E+03  0.00000000000E+00 0. -1.
<mgrwt>
<rscale>  0 0.63918910E+03</rscale>
<asrwt>0</asrwt>
<pdfrwt beam="1">0</pdfrwt>
<pdfrwt beam="2">  1        2 0.37142142E+00 0.63918910E+03</pdfrwt>
<totfact> 0.50874637E+00</totfact>
</mgrwt>
</event>
<event>
 5    1  0.2343702E-004  0.6974314E+03  0.7818608E-02  0.9721635E-01
         13   -1    0    0    0    0  0.00000000000E+00  0.00000000000E+00  0.10000000000E+04  0.10000000000E+04  0.00000000000E+00 0. -1.
          2   -1    0    0  501    0 -0.00000000000E+00 -0.00000000000E+00 -0.12160262431E+03  0.12160262431E+03  0.00000000000E+00 0. -1.
    9000006    2    1    2  501    0  0.00000000000E+00  0.00000000000E+00  0.87839737569E+03  0.11216026243E+04  0.69743135665E+03 0.  0.
         13    1    3    3    0    0  0.29316773888E+03  0.14016267144E+03  0.64268233202E+03  0.72016211889E+03  0.00000000000E+00 0. -1.
          4    1    3    3  501    0 -0.29316773888E+03 -0.14016267144E+03  0.23571504367E+03  0.40144050542E+03  0.00000000000E+00 0. -1.
<mgrwt>
<rscale>  0 0.69743136E+03</rscale>
<asrwt>0</asrwt>
<pdfrwt beam="1">0</pdfrwt>
<pdfrwt beam="2">  1        2 0.44219229E+00 0.69743136E+03</pdfrwt>
<totfact> 0.27349907E+00</totfact>
</mgrwt>
</event>
<event>
 5    1  0.2343702E-004  0.6367057E+03  0.7818608E-02  0.9832050E-01
         13   -1    0    0    0    0  0.00000000000E+00  0.00000000000E+00  0.10000000000E+04  0.10000000000E+04  0.00000000000E+00 0. -1.
          2   -1    0    0  501    0 -0.00000000000E+00 -0.00000000000E+00 -0.10134853042E+03  0.10134853042E+03  0.00000000000E+00 0. -1.
    9000006    2    1    2  501    0  0.00000000000E+00  0.00000000000E+00  0.89865146958E+03  0.11013485304E+04  0.63670567900E+03 0.  0.
         13    1    3    3    0    0 -0.20888557379E+03  0.18639022074E+03  0.18714264680E+03  0.33674451380E+03  0.00000000000E+00 0. -1.
          4    1    3    3  501    0  0.20888557379E+03 -0.18639022074E+03  0.71150882279E+03  0.76460401662E+03  0.00000000000E+00 0. -1.
<mgrwt>
<rscale>  0 0.63670568E+03</rscale>
<asrwt>0</asrwt>
<pdfrwt beam="1">0</pdfrwt>
<pdfrwt beam="2">  1        2 0.36854089E+00 0.63670568E+03</pdfrwt>
<totfact> 0.52135535E+00</totfact>
</mgrwt>
</event>
<event>
 5    1  0.2343702E-004  0.6536627E+03  0.7818608E-02  0.9799931E-01
         13   -1    0    0    0    0  0.00000000000E+00  0.00000000000E+00  0.10000000000E+04  0.10000000000E+04  0.00000000000E+00 0. -1.
          2   -1    0    0  501    0 -0.00000000000E+00 -0.00000000000E+00 -0.10681871642E+03  0.10681871642E+03  0.00000000000E+00 0. -1.
    9000006    2    1    2  501    0  0.00000000000E+00  0.00000000000E+00  0.89318128358E+03  0.11068187164E+04  0.65366265433E+03 0.  0.
         13    1    3    3    0    0 -0.29420364562E+03  0.14192596440E+03  0.42804565706E+03  0.53844391444E+03  0.00000000000E+00 0. -1.
          2    1    3    3  501    0  0.29420364562E+03 -0.14192596440E+03  0.46513562652E+03  0.56837480198E+03  0.00000000000E+00 0. -1.
<mgrwt>
<rscale>  0 0.65366265E+03</rscale>
<asrwt>0</asrwt>
<pdfrwt beam="1">0</pdfrwt>
<pdfrwt beam="2">  1        2 0.38843252E+00 0.65366265E+03</pdfrwt>
<totfact> 0.43979159E+00</totfact>
</mgrwt>
</event>
<event>
 5    1  0.2343702E-004  0.6399372E+03  0.7818608E-02  0.9825847E-01
         13   -1    0    0    0    0  0.00000000000E+00  0.00000000000E+00  0.10000000000E+04  0.10000000000E+04  0.00000000000E+00 0. -1.
          2   -1    0    0  501    0 -0.00000000000E+00 -0.00000000000E+00 -0.10237990100E+03  0.10237990100E+03  0.00000000000E+00 0. -1.
    9000006    2    1    2  501    0  0.00000000000E+00  0.00000000000E+00  0.89762009900E+03  0.11023799010E+04  0.63993718753E+03 0.  0.
         13    1    3    3    0    0  0.18511045953E+03 -0.13013179388E+03  0.83852130986E+03  0.86851491242E+03  0.00000000000E+00 0. -1.
          4    1    3    3  501    0 -0.18511045953E+03  0.13013179388E+03  0.59098789146E+02  0.23386498858E+03  0.00000000000E+00 0. -1.
<mgrwt>
<rscale>  0 0.63993719E+03</rscale>
<asrwt>0</asrwt>
<pdfrwt beam="1">0</pdfrwt>
<pdfrwt beam="2">  1        2 0.37229133E+00 0.63993719E+03</pdfrwt>
<totfact> 0.50499380E+00</totfact>
</mgrwt>
</event>
<event>
 5    1  0.2343702E-004  0.6478195E+03  0.7818608E-02  0.9810879E-01
         13   -1    0    0    0    0  0.00000000000E+00  0.00000000000E+00  0.10000000000E+04  0.10000000000E+04  0.00000000000E+00 0. -1.
          2   -1    0    0  501    0 -0.00000000000E+00 -0.00000000000E+00 -0.10491751844E+03  0.10491751844E+03  0.00000000000E+00 0. -1.
    9000006    2    1    2  501    0  0.00000000000E+00  0.00000000000E+00  0.89508248156E+03  0.11049175184E+04  0.64781947620E+03 0.  0.
         13    1    3    3    0    0 -0.25404324609E+03 -0.19724261071E+03  0.38203884916E+03  0.49939593574E+03  0.00000000000E+00 0. -1.
          2    1    3    3  501    0  0.25404324609E+03  0.19724261071E+03  0.51304363240E+03  0.60552158269E+03  0.00000000000E+00 0. -1.
<mgrwt>
<rscale>  0 0.64781948E+03</rscale>
<asrwt>0</asrwt>
<pdfrwt beam="1">0</pdfrwt>
<pdfrwt beam="2">  1        2 0.38151905E+00 0.64781948E+03</pdfrwt>
<totfact> 0.46671729E+00</totfact>
</mgrwt>
</event>
<event>
 5    1  0.2343702E-004  0.6537493E+03  0.7818608E-02  0.9799769E-01
         13   -1    0    0    0    0  0.00000000000E+00  0.00000000000E+00  0.10000000000E+04  0.10000000000E+04  0.00000000000E+00 0. -1.
          2   -1    0    0  501    0 -0.00000000000E+00 -0.00000000000E+00 -0.10684703962E+03  0.10684703962E+03  0.00000000000E+00 0. -1.
    9000006    2    1    2  501    0  0.00000000000E+00  0.00000000000E+00  0.89315296038E+03  0.11068470396E+04  0.65374930858E+03 0.  0.
         13    1    3    3    0    0  0.34966425639E+02  0.38414436384E+02  0.99296722359E+03  0.99432501073E+03  0.00000000000E+00 0. -1.
          2    1    3    3  501    0 -0.34966425639E+02 -0.38414436384E+02 -0.99814263208E+02  0.11252202889E+03  0.00000000000E+00 0. -1.
<mgrwt>
<rscale>  0 0.65374931E+03</rscale>
<asrwt>0</asrwt>
<pdfrwt beam="1">0</pdfrwt>
<pdfrwt beam="2">  1        2 0.38853551E+00 0.65374931E+03</pdfrwt>
<totfact> 0.43940133E+00</totfact>
</mgrwt>
</event>
<event>
 5    1  0.2343702E-004  0.6592653E+03  0.7818608E-02  0.9789547E-01
         13   -1    0    0    0    0  0.00000000000E+00  0.00000000000E+00  0.10000000000E+04  0.10000000000E+04  0.00000000000E+00 0. -1.
          2   -1    0    0  501    0 -0.00000000000E+00 -0.00000000000E+00 -0.10865769880E+03  0.10865769880E+03  0.00000000000E+00 0. -1.
    9000006    2    1    2  501    0  0.00000000000E+00  0.00000000000E+00  0.89134230120E+03  0.11086576988E+04  0.65926534507E+03 0.  0.
         13    1    3    3    0    0  0.65186312065E+02 -0.31756555181E+03  0.54601635403E+03  0.63500471955E+03  0.00000000000E+00 0. -1.
          4    1    3    3  501    0 -0.65186312065E+02  0.31756555181E+03  0.34532594716E+03  0.47365297926E+03  0.00000000000E+00 0. -1.
<mgrwt>
<rscale>  0 0.65926535E+03</rscale>
<asrwt>0</asrwt>
<pdfrwt beam="1">0</pdfrwt>
<pdfrwt beam="2">  1        2 0.39511974E+00 0.65926535E+03</pdfrwt>
<totfact> 0.41509271E+00</totfact>
</mgrwt>
</event>
<event>
 5    1  0.2343702E-004  0.6518722E+03  0.7818608E-02  0.9803272E-01
         13   -1    0    0    0    0  0.00000000000E+00  0.00000000000E+00  0.10000000000E+04  0.10000000000E+04  0.00000000000E+00 0. -1.
          2   -1    0    0  501    0 -0.00000000000E+00 -0.00000000000E+00 -0.10623433881E+03  0.10623433881E+03  0.00000000000E+00 0. -1.
    9000006    2    1    2  501    0  0.00000000000E+00  0.00000000000E+00  0.89376566119E+03  0.11062343388E+04  0.65187219240E+03 0.  0.
         13    1    3    3    0    0  0.12261343216E+03 -0.25628413849E+03  0.17579241116E+03  0.33409367730E+03  0.00000000000E+00 0. -1.
          4    1    3    3  501    0 -0.12261343216E+03  0.25628413849E+03  0.71797325003E+03  0.77214066151E+03  0.00000000000E+00 0. -1.
<mgrwt>
<rscale>  0 0.65187219E+03</rscale>
<asrwt>0</asrwt>
<pdfrwt beam="1">0</pdfrwt>
<pdfrwt beam="2">  1        2 0.38630750E+00 0.65187219E+03</pdfrwt>
<totfact> 0.44791393E+00</totfact>
</mgrwt>
</event>
<event>
 5    1  0.2343702E-004  0.6536919E+03  0.7818608E-02  0.9799876E-01
         13   -1    0    0    0    0  0.00000000000E+00  0.00000000000E+00  0.10000000000E+04  0.10000000000E+04  0.00000000000E+00 0. -1.
          2   -1    0    0  501    0 -0.00000000000E+00 -0.00000000000E+00 -0.10682828922E+03  0.10682828922E+03  0.00000000000E+00 0. -1.
    9000006    2    1    2  501    0  0.00000000000E+00  0.00000000000E+00  0.89317171078E+03  0.11068282892E+04  0.65369194341E+03 0.  0.
         13    1    3    3    0    0  0.24202003992E+03 -0.20806990275E+03  0.56585108204E+03  0.64965701043E+03  0.00000000000E+00 0. -1.
          2    1    3    3  501    0 -0.24202003992E+03  0.20806990275E+03  0.32732062874E+03  0.45717127879E+03  0.00000000000E+00 0. -1.
<mgrwt>
<rscale>  0 0.65369194E+03</rscale>
<asrwt>0</asrwt>
<pdfrwt beam="1">0</pdfrwt>
<pdfrwt beam="2">  1        2 0.38846733E+00 0.65369194E+03</pdfrwt>
<totfact> 0.43965965E+00</totfact>
</mgrwt>
</event>
<event>
 5    1  0.2343702E-004  0.6239114E+03  0.7818608E-02  0.9857003E-01
         13   -1    0    0    0    0  0.00000000000E+00  0.00000000000E+00  0.10000000000E+04  0.10000000000E+04  0.00000000000E+00 0. -1.
          2   -1    0    0  501    0 -0.00000000000E+00 -0.00000000000E+00 -0.97316354735E+02  0.97316354735E+02  0.00000000000E+00 0. -1.
    9000006    2    1    2  501    0  0.00000000000E+00  0.00000000000E+00  0.90268364527E+03  0.10973163547E+04  0.62391138709E+03 0.  0.
         13    1    3    3    0    0 -0.76428633396E+01 -0.11257345398E+03 -0.60170410525E+02  0.12787366501E+03  0.00000000000E+00 0. -1.
          4    1    3    3  501    0  0.76428633396E+01  0.11257345398E+03  0.96285405579E+03  0.96944268972E+03  0.00000000000E+00 0. -1.
<mgrwt>
<rscale>  0 0.62391139E+03</rscale>
<asrwt>0</asrwt>
<pdfrwt beam="1">0</pdfrwt>
<pdfrwt beam="2">  1        2 0.35387840E+00 0.62391139E+03</pdfrwt>
<totfact> 0.59011640E+00</totfact>
</mgrwt>
</event>
<event>
 5    1  0.2343702E-004  0.6964488E+03  0.7818608E-02  0.9723325E-01
         13   -1    0    0    0    0  0.00000000000E+00  0.00000000000E+00  0.10000000000E+04  0.10000000000E+04  0.00000000000E+00 0. -1.
          2   -1    0    0  501    0 -0.00000000000E+00 -0.00000000000E+00 -0.12126023378E+03  0.12126023378E+03  0.00000000000E+00 0. -1.
    9000006    2    1    2  501    0  0.00000000000E+00  0.00000000000E+00  0.87873976622E+03  0.11212602338E+04  0.69644880294E+03 0.  0.
         13    1    3    3    0    0  0.30394040069E+03  0.11816821155E+03  0.63600187979E+03  0.71473203685E+03  0.00000000000E+00 0. -1.
          2    1    3    3  501    0 -0.30394040069E+03 -0.11816821155E+03  0.24273788643E+03  0.40652819693E+03  0.00000000000E+00 0. -1.
<mgrwt>
<rscale>  0 0.69644880E+03</rscale>
<asrwt>0</asrwt>
<pdfrwt beam="1">0</pdfrwt>
<pdfrwt beam="2">  1        2 0.44094723E+00 0.69644880E+03</pdfrwt>
<totfact> 0.27660639E+00</totfact>
</mgrwt>
</event>
<event>
 5    1  0.2343702E-004  0.5977854E+03  0.7818608E-02  0.9910011E-01
         13   -1    0    0    0    0  0.00000000000E+00  0.00000000000E+00  0.10000000000E+04  0.10000000000E+04  0.00000000000E+00 0. -1.
          2   -1    0    0  501    0 -0.00000000000E+00 -0.00000000000E+00 -0.89336851272E+02  0.89336851272E+02  0.00000000000E+00 0. -1.
    9000006    2    1    2  501    0  0.00000000000E+00  0.00000000000E+00  0.91066314873E+03  0.10893368513E+04  0.59778541726E+03 0.  0.
         13    1    3    3    0    0  0.19883987756E+03  0.86751257036E+01  0.86168245309E+03  0.88436938249E+03  0.00000000000E+00 0. -1.
          4    1    3    3  501    0 -0.19883987756E+03 -0.86751257036E+01  0.48980695636E+02  0.20496746878E+03  0.00000000000E+00 0. -1.
<mgrwt>
<rscale>  0 0.59778542E+03</rscale>
<asrwt>0</asrwt>
<pdfrwt beam="1">0</pdfrwt>
<pdfrwt beam="2">  1        2 0.32486196E+00 0.59778542E+03</pdfrwt>
<totfact> 0.75181899E+00</totfact>
</mgrwt>
</event>
<event>
 5    1  0.2343702E-004  0.6518482E+03  0.7818608E-02  0.9803317E-01
         13   -1    0    0    0    0  0.00000000000E+00  0.00000000000E+00  0.10000000000E+04  0.10000000000E+04  0.00000000000E+00 0. -1.
          2   -1    0    0  501    0 -0.00000000000E+00 -0.00000000000E+00 -0.10622650570E+03  0.10622650570E+03  0.00000000000E+00 0. -1.
    9000006    2    1    2  501    0  0.00000000000E+00  0.00000000000E+00  0.89377349430E+03  0.11062265057E+04  0.65184815930E+03 0.  0.
         13    1    3    3    0    0 -0.30080619576E+03 -0.11358120408E+03  0.35642447304E+03  0.48002443928E+03  0.00000000000E+00 0. -1.
          2    1    3    3  501    0  0.30080619576E+03  0.11358120408E+03  0.53734902127E+03  0.62620206642E+03  0.00000000000E+00 0. -1.
<mgrwt>
<rscale>  0 0.65184816E+03</rscale>
<asrwt>0</asrwt>
<pdfrwt beam="1">0</pdfrwt>
<pdfrwt beam="2">  1        2 0.38627902E+00 0.65184816E+03</pdfrwt>
<totfact> 0.44802372E+00</totfact>
</mgrwt>
</event>
<event>
 5    1  0.2343702E-004  0.6477034E+03  0.7818608E-02  0.9811098E-01
         13   -1    0    0    0    0  0.00000000000E+00  0.00000000000E+00  0.10000000000E+04  0.10000000000E+04  0.00000000000E+00 0. -1.
          2   -1    0    0  501    0 -0.00000000000E+00 -0.00000000000E+00 -0.10487991309E+03  0.10487991309E+03  0.00000000000E+00 0. -1.
    9000006    2    1    2  501    0  0.00000000000E+00  0.00000000000E+00  0.89512008691E+03  0.11048799131E+04  0.64770336756E+03 0.  0.
         13    1    3    3    0    0  0.17272554348E+03 -0.63696450179E+02 -0.69391452311E+01  0.18422677024E+03  0.00000000000E+00 0. -1.
          4    1    3    3  501    0 -0.17272554348E+03  0.63696450179E+02  0.90205923214E+03  0.92065314285E+03  0.00000000000E+00 0. -1.
<mgrwt>
<rscale>  0 0.64770337E+03</rscale>
<asrwt>0</asrwt>
<pdfrwt beam="1">0</pdfrwt>
<pdfrwt beam="2">  1        2 0.38138231E+00 0.64770337E+03</pdfrwt>
<totfact> 0.46726464E+00</totfact>
</mgrwt>
</event>
<event>
 5    1  0.2343702E-004  0.6657306E+03  0.7818608E-02  0.9777701E-01
         13   -1    0    0    0    0  0.00000000000E+00  0.00000000000E+00  0.10000000000E+04  0.10000000000E+04  0.00000000000E+00 0. -1.
          2   -1    0    0  501    0 -0.00000000000E+00 -0.00000000000E+00 -0.11079931881E+03  0.11079931881E+03  0.00000000000E+00 0. -1.
    9000006    2    1    2  501    0  0.00000000000E+00  0.00000000000E+00  0.88920068119E+03  0.11107993188E+04  0.66573063264E+03 0.  0.
         13    1    3    3    0    0  0.16943063864E+02  0.74082745041E+02  0.98533142721E+03  0.98825773054E+03  0.00000000000E+00 0. -1.
          4    1    3    3  501    0 -0.16943063864E+02 -0.74082745041E+02 -0.96130746017E+02  0.12254158827E+03  0.00000000000E+00 0. -1.
<mgrwt>
<rscale>  0 0.66573063E+03</rscale>
<asrwt>0</asrwt>
<pdfrwt beam="1">0</pdfrwt>
<pdfrwt beam="2">  1        2 0.40290746E+00 0.66573063E+03</pdfrwt>
<totfact> 0.38791048E+00</totfact>
</mgrwt>
</event>
<event>
 5    1  0.2343702E-004  0.6576802E+03  0.7818608E-02  0.9792474E-01
         13   -1    0    0    0    0  0.00000000000E+00  0.00000000000E+00  0.10000000000E+04  0.10000000000E+04  0.00000000000E+00 0. -1.
          2   -1    0    0  501    0 -0.00000000000E+00 -0.00000000000E+00 -0.10813580806E+03  0.10813580806E+03  0.00000000000E+00 0. -1.
    9000006    2    1    2  501    0  0.00000000000E+00  0.00000000000E+00  0.89186419194E+03  0.11081358081E+04  0.65768018994E+03 0.  0.
         13    1    3    3    0    0  0.28359314541E+03 -0.10662800328E+02  0.72583634075E+03  0.77934405816E+03  0.00000000000E+00 0. -1.
          4    1    3    3  501    0 -0.28359314541E+03  0.10662800328E+02  0.16602785119E+03  0.32879174990E+03  0.00000000000E+00 0. -1.
<mgrwt>
<rscale>  0 0.65768019E+03</rscale>
<asrwt>0</asrwt>
<pdfrwt beam="1">0</pdfrwt>
<pdfrwt beam="2">  1        2 0.39322195E+00 0.65768019E+03</pdfrwt>
<totfact> 0.42197132E+00</totfact>
</mgrwt>
</event>
<event>
 5    1  0.2343702E-004  0.6509031E+03  0.7818608E-02  0.9805086E-01
         13   -1    0    0    0    0  0.00000000000E+00  0.00000000000E+00  0.10000000000E+04  0.10000000000E+04  0.00000000000E+00 0. -1.
          2   -1    0    0  501    0 -0.00000000000E+00 -0.00000000000E+00 -0.10591872559E+03  0.10591872559E+03  0.00000000000E+00 0. -1.
    9000006    2    1    2  501    0  0.00000000000E+00  0.00000000000E+00  0.89408127441E+03  0.11059187256E+04  0.65090314361E+03 0.  0.
         13    1    3    3    0    0 -0.28105959828E+03  0.17745185279E+02  0.16988490638E+03  0.32889249125E+03  0.00000000000E+00 0. -1.
          2    1    3    3  501    0  0.28105959828E+03 -0.17745185279E+02  0.72419636803E+03  0.77702623434E+03  0.00000000000E+00 0. -1.
<mgrwt>
<rscale>  0 0.65090314E+03</rscale>
<asrwt>0</asrwt>
<pdfrwt beam="1">0</pdfrwt>
<pdfrwt beam="2">  1        2 0.38515981E+00 0.65090314E+03</pdfrwt>
<totfact> 0.45235696E+00</totfact>
</mgrwt>
</event>
<event>
 5    1  0.2343702E-004  0.6510219E+03  0.7818608E-02  0.9804864E-01
         13   -1    0    0    0    0  0.00000000000E+00  0.00000000000E+00  0.10000000000E+04  0.10000000000E+04  0.00000000000E+00 0. -1.
          2   -1    0    0  501    0 -0.00000000000E+00 -0.00000000000E+00 -0.10595736566E+03  0.10595736566E+03  0.00000000000E+00 0. -1.
    9000006    2    1    2  501    0  0.00000000000E+00  0.00000000000E+00  0.89404263434E+03  0.11059573657E+04  0.65102186034E+03 0.  0.
         13    1    3    3    0    0 -0.18907198523E+03 -0.18869753083E+03  0.76302771400E+03  0.80843445378E+03  0.00000000000E+00 0. -1.
          2    1    3    3  501    0  0.18907198523E+03  0.18869753083E+03  0.13101492034E+03  0.29752291188E+03  0.00000000000E+00 0. -1.
<mgrwt>
<rscale>  0 0.65102186E+03</rscale>
<asrwt>0</asrwt>
<pdfrwt beam="1">0</pdfrwt>
<pdfrwt beam="2">  1        2 0.38530032E+00 0.65102186E+03</pdfrwt>
<totfact> 0.45181087E+00</totfact>
</mgrwt>
</event>
<event>
 5    1  0.2343702E-004  0.6504133E+03  0.7818608E-02  0.9806004E-01
         13   -1    0    0    0    0  0.00000000000E+00  0.00000000000E+00  0.10000000000E+04  0.10000000000E+04  0.00000000000E+00 0. -1.
          2   -1    0    0  501    0 -0.00000000000E+00 -0.00000000000E+00 -0.10575935316E+03  0.10575935316E+03  0.00000000000E+00 0. -1.
    9000006    2    1    2  501    0  0.00000000000E+00  0.00000000000E+00  0.89424064684E+03  0.11057593532E+04  0.65041326296E+03 0.  0.
         13    1    3    3    0    0 -0.29362186679E+03 -0.24995456684E+02  0.68097213946E+03  0.74199840177E+03  0.00000000000E+00 0. -1.
          4    1    3    3  501    0  0.29362186679E+03  0.24995456684E+02  0.21326850738E+03  0.36376095139E+03  0.00000000000E+00 0. -1.
<mgrwt>
<rscale>  0 0.65041326E+03</rscale>
<asrwt>0</asrwt>
<pdfrwt beam="1">0</pdfrwt>
<pdfrwt beam="2">  1        2 0.38458028E+00 0.65041326E+03</pdfrwt>
<totfact> 0.45461566E+00</totfact>
</mgrwt>
</event>
<event>
 5    1  0.2343702E-004  0.6067215E+03  0.7818608E-02  0.9891558E-01
         13   -1    0    0    0    0  0.00000000000E+00  0.00000000000E+00  0.10000000000E+04  0.10000000000E+04  0.00000000000E+00 0. -1.
          2   -1    0    0  501    0 -0.00000000000E+00 -0.00000000000E+00 -0.92027742803E+02  0.92027742803E+02  0.00000000000E+00 0. -1.
    9000006    2    1    2  501    0  0.00000000000E+00  0.00000000000E+00  0.90797225720E+03  0.10920277428E+04  0.60672149394E+03 0.  0.
         13    1    3    3    0    0 -0.20536278127E+03 -0.13235953937E+03  0.13033320352E+03  0.27691093069E+03  0.00000000000E+00 0. -1.
          2    1    3    3  501    0  0.20536278127E+03  0.13235953937E+03  0.77763905368E+03  0.81511681212E+03  0.00000000000E+00 0. -1.
<mgrwt>
<rscale>  0 0.60672149E+03</rscale>
<asrwt>0</asrwt>
<pdfrwt beam="1">0</pdfrwt>
<pdfrwt beam="2">  1        2 0.33464704E+00 0.60672149E+03</pdfrwt>
<totfact> 0.69312223E+00</totfact>
</mgrwt>
</event>
<event>
 5    1  0.2343702E-004  0.6494446E+03  0.7818608E-02  0.9807822E-01
         13   -1    0    0    0    0  0.00000000000E+00  0.00000000000E+00  0.10000000000E+04  0.10000000000E+04  0.00000000000E+00 0. -1.
          2   -1    0    0  501    0 -0.00000000000E+00 -0.00000000000E+00 -0.10544457019E+03  0.10544457019E+03  0.00000000000E+00 0. -1.
    9000006    2    1    2  501    0  0.00000000000E+00  0.00000000000E+00  0.89455542981E+03  0.11054445702E+04  0.64944459406E+03 0.  0.
         13    1    3    3    0    0 -0.24123284328E+03  0.12866129916E+03  0.14905085064E+03  0.31138909848E+03  0.00000000000E+00 0. -1.
          2    1    3    3  501    0  0.24123284328E+03 -0.12866129916E+03  0.74550457917E+03  0.79405547170E+03  0.00000000000E+00 0. -1.
<mgrwt>
<rscale>  0 0.64944459E+03</rscale>
<asrwt>0</asrwt>
<pdfrwt beam="1">0</pdfrwt>
<pdfrwt beam="2">  1        2 0.38343561E+00 0.64944459E+03</pdfrwt>
<totfact> 0.45910701E+00</totfact>
</mgrwt>
</event>
<event>
 5    1  0.2343702E-004  0.6521248E+03  0.7818608E-02  0.9802800E-01
         13   -1    0    0    0    0  0.00000000000E+00  0.00000000000E+00  0.10000000000E+04  0.10000000000E+04  0.00000000000E+00 0. -1.
          2   -1    0    0  501    0 -0.00000000000E+00 -0.00000000000E+00 -0.10631670415E+03  0.10631670415E+03  0.00000000000E+00 0. -1.
    9000006    2    1    2  501    0  0.00000000000E+00  0.00000000000E+00  0.89368329585E+03  0.11063167041E+04  0.65212484739E+03 0.  0.
         13    1    3    3    0    0 -0.26239848426E+03  0.12535884629E+03  0.19665313686E+03  0.35105592307E+03  0.00000000000E+00 0. -1.
          2    1    3    3  501    0  0.26239848426E+03 -0.12535884629E+03  0.69703015899E+03  0.75526078107E+03  0.00000000000E+00 0. -1.
<mgrwt>
<rscale>  0 0.65212485E+03</rscale>
<asrwt>0</asrwt>
<pdfrwt beam="1">0</pdfrwt>
<pdfrwt beam="2">  1        2 0.38660701E+00 0.65212485E+03</pdfrwt>
<totfact> 0.44676096E+00</totfact>
</mgrwt>
</event>
<event>
 5    1  0.2343702E-004  0.6363667E+03  0.7818608E-02  0.9832703E-01
         13   -1    0    0    0    0  0.00000000000E+00  0.00000000000E+00  0.10000000000E+04  0.10000000000E+04  0.00000000000E+00 0. -1.
          2   -1    0    0  501    0 -0.00000000000E+00 -0.00000000000E+00 -0.10124063887E+03  0.10124063887E+03  0.00000000000E+00 0. -1.
    9000006    2    1    2  501    0  0.00000000000E+00  0.00000000000E+00  0.89875936113E+03  0.11012406389E+04  0.63636668319E+03 0.  0.
         13    1    3    3    0    0  0.11628834989E+02 -0.31753191757E+03  0.47827926329E+03  0.57420623662E+03  0.00000000000E+00 0. -1.
          2    1    3    3  501    0 -0.11628834989E+02  0.31753191757E+03  0.42048009784E+03  0.52703440225E+03  0.00000000000E+00 0. -1.
<mgrwt>
<rscale>  0 0.63636668E+03</rscale>
<asrwt>0</asrwt>
<pdfrwt beam="1">0</pdfrwt>
<pdfrwt beam="2">  1        2 0.36814855E+00 0.63636668E+03</pdfrwt>
<totfact> 0.52309471E+00</totfact>
</mgrwt>
</event>
<event>
 5    1  0.2343702E-004  0.6511834E+03  0.7818608E-02  0.9804561E-01
         13   -1    0    0    0    0  0.00000000000E+00  0.00000000000E+00  0.10000000000E+04  0.10000000000E+04  0.00000000000E+00 0. -1.
          2   -1    0    0  501    0 -0.00000000000E+00 -0.00000000000E+00 -0.10600995226E+03  0.10600995226E+03  0.00000000000E+00 0. -1.
    9000006    2    1    2  501    0  0.00000000000E+00  0.00000000000E+00  0.89399004774E+03  0.11060099523E+04  0.65118339126E+03 0.  0.
         13    1    3    3    0    0 -0.29185100457E+03  0.14363093701E+03  0.47120017646E+03  0.57257004919E+03  0.00000000000E+00 0. -1.
          2    1    3    3  501    0  0.29185100457E+03 -0.14363093701E+03  0.42278987128E+03  0.53343990308E+03  0.00000000000E+00 0. -1.
<mgrwt>
<rscale>  0 0.65118339E+03</rscale>
<asrwt>0</asrwt>
<pdfrwt beam="1">0</pdfrwt>
<pdfrwt beam="2">  1        2 0.38549155E+00 0.65118339E+03</pdfrwt>
<totfact> 0.45106863E+00</totfact>
</mgrwt>
</event>
<event>
 5    1  0.2343702E-004  0.6189145E+03  0.7818608E-02  0.9866923E-01
         13   -1    0    0    0    0  0.00000000000E+00  0.00000000000E+00  0.10000000000E+04  0.10000000000E+04  0.00000000000E+00 0. -1.
          2   -1    0    0  501    0 -0.00000000000E+00 -0.00000000000E+00 -0.95763801809E+02  0.95763801809E+02  0.00000000000E+00 0. -1.
    9000006    2    1    2  501    0  0.00000000000E+00  0.00000000000E+00  0.90423619819E+03  0.10957638018E+04  0.61891453952E+03 0.  0.
         13    1    3    3    0    0 -0.30006526979E+03 -0.71726823045E+02  0.49475270655E+03  0.58306444234E+03  0.00000000000E+00 0. -1.
          4    1    3    3  501    0  0.30006526979E+03  0.71726823045E+02  0.40948349164E+03  0.51269935947E+03  0.00000000000E+00 0. -1.
<mgrwt>
<rscale>  0 0.61891454E+03</rscale>
<asrwt>0</asrwt>
<pdfrwt beam="1">0</pdfrwt>
<pdfrwt beam="2">  1        2 0.34823274E+00 0.61891454E+03</pdfrwt>
<totfact> 0.61876434E+00</totfact>
</mgrwt>
</event>
<event>
 5    1  0.2343702E-004  0.6403558E+03  0.7818608E-02  0.9825046E-01
         13   -1    0    0    0    0  0.00000000000E+00  0.00000000000E+00  0.10000000000E+04  0.10000000000E+04  0.00000000000E+00 0. -1.
          2   -1    0    0  501    0 -0.00000000000E+00 -0.00000000000E+00 -0.10251388587E+03  0.10251388587E+03  0.00000000000E+00 0. -1.
    9000006    2    1    2  501    0  0.00000000000E+00  0.00000000000E+00  0.89748611413E+03  0.11025138859E+04  0.64035579446E+03 0.  0.
         13    1    3    3    0    0  0.28557341249E+03  0.13472159687E+03  0.35744633363E+03  0.47693811340E+03  0.00000000000E+00 0. -1.
          4    1    3    3  501    0 -0.28557341249E+03 -0.13472159687E+03  0.54003978050E+03  0.62557577248E+03  0.00000000000E+00 0. -1.
<mgrwt>
<rscale>  0 0.64035579E+03</rscale>
<asrwt>0</asrwt>
<pdfrwt beam="1">0</pdfrwt>
<pdfrwt beam="2">  1        2 0.37277855E+00 0.64035579E+03</pdfrwt>
<totfact> 0.50290315E+00</totfact>
</mgrwt>
</event>
<event>
 5    1  0.2343702E-004  0.6361813E+03  0.7818608E-02  0.9833060E-01
         13   -1    0    0    0    0  0.00000000000E+00  0.00000000000E+00  0.10000000000E+04  0.10000000000E+04  0.00000000000E+00 0. -1.
          2   -1    0    0  501    0 -0.00000000000E+00 -0.00000000000E+00 -0.10118165681E+03  0.10118165681E+03  0.00000000000E+00 0. -1.
    9000006    2    1    2  501    0  0.00000000000E+00  0.00000000000E+00  0.89881834319E+03  0.11011816568E+04  0.63618128488E+03 0.  0.
         13    1    3    3    0    0  0.12949851710E+03  0.12146762293E+03 -0.74283142950E+01  0.17770601904E+03  0.00000000000E+00 0. -1.
          2    1    3    3  501    0 -0.12949851710E+03 -0.12146762293E+03  0.90624665749E+03  0.92347563777E+03  0.00000000000E+00 0. -1.
<mgrwt>
<rscale>  0 0.63618128E+03</rscale>
<asrwt>0</asrwt>
<pdfrwt beam="1">0</pdfrwt>
<pdfrwt beam="2">  1        2 0.36793407E+00 0.63618128E+03</pdfrwt>
<totfact> 0.52404784E+00</totfact>
</mgrwt>
</event>
<event>
 5    1  0.2343702E-004  0.6560835E+03  0.7818608E-02  0.9795431E-01
         13   -1    0    0    0    0  0.00000000000E+00  0.00000000000E+00  0.10000000000E+04  0.10000000000E+04  0.00000000000E+00 0. -1.
          2   -1    0    0  501    0 -0.00000000000E+00 -0.00000000000E+00 -0.10761137503E+03  0.10761137503E+03  0.00000000000E+00 0. -1.
    9000006    2    1    2  501    0  0.00000000000E+00  0.00000000000E+00  0.89238862497E+03  0.11076113750E+04  0.65608345516E+03 0.  0.
         13    1    3    3    0    0 -0.22457566297E+03 -0.14279359124E+03  0.76999391826E+03  0.81468697808E+03  0.00000000000E+00 0. -1.
          4    1    3    3  501    0  0.22457566297E+03  0.14279359124E+03  0.12239470671E+03  0.29292439695E+03  0.00000000000E+00 0. -1.
<mgrwt>
<rscale>  0 0.65608346E+03</rscale>
<asrwt>0</asrwt>
<pdfrwt beam="1">0</pdfrwt>
<pdfrwt beam="2">  1        2 0.39131492E+00 0.65608346E+03</pdfrwt>
<totfact> 0.42898723E+00</totfact>
</mgrwt>
</event>
<event>
 5    1  0.2343702E-004  0.6588200E+03  0.7818608E-02  0.9790368E-01
         13   -1    0    0    0    0  0.00000000000E+00  0.00000000000E+00  0.10000000000E+04  0.10000000000E+04  0.00000000000E+00 0. -1.
          2   -1    0    0  501    0 -0.00000000000E+00 -0.00000000000E+00 -0.10851096380E+03  0.10851096380E+03  0.00000000000E+00 0. -1.
    9000006    2    1    2  501    0  0.00000000000E+00  0.00000000000E+00  0.89148903620E+03  0.11085109638E+04  0.65882004765E+03 0.  0.
         13    1    3    3    0    0  0.16543952705E+03 -0.14874548157E+03  0.36995932233E+02  0.22553082805E+03  0.00000000000E+00 0. -1.
          2    1    3    3  501    0 -0.16543952705E+03  0.14874548157E+03  0.85449310397E+03  0.88298013575E+03  0.00000000000E+00 0. -1.
<mgrwt>
<rscale>  0 0.65882005E+03</rscale>
<asrwt>0</asrwt>
<pdfrwt beam="1">0</pdfrwt>
<pdfrwt beam="2">  1        2 0.39458615E+00 0.65882005E+03</pdfrwt>
<totfact> 0.41701636E+00</totfact>
</mgrwt>
</event>
<event>
 5    1  0.2343702E-004  0.6545113E+03  0.7818608E-02  0.9798351E-01
         13   -1    0    0    0    0  0.00000000000E+00  0.00000000000E+00  0.10000000000E+04  0.10000000000E+04  0.00000000000E+00 0. -1.
          2   -1    0    0  501    0 -0.00000000000E+00 -0.00000000000E+00 -0.10709627667E+03  0.10709627667E+03  0.00000000000E+00 0. -1.
    9000006    2    1    2  501    0  0.00000000000E+00  0.00000000000E+00  0.89290372333E+03  0.11070962767E+04  0.65451134954E+03 0.  0.
         13    1    3    3    0    0  0.32501045486E+03 -0.30369637228E+02  0.40706654305E+03  0.52178279111E+03  0.00000000000E+00 0. -1.
          4    1    3    3  501    0 -0.32501045486E+03  0.30369637228E+02  0.48583718028E+03  0.58531348556E+03  0.00000000000E+00 0. -1.
<mgrwt>
<rscale>  0 0.65451135E+03</rscale>
<asrwt>0</asrwt>
<pdfrwt beam="1">0</pdfrwt>
<pdfrwt beam="2">  1        2 0.38944183E+00 0.65451135E+03</pdfrwt>
<totfact> 0.43598063E+00</totfact>
</mgrwt>
</event>
<event>
 5    1  0.2343702E-004  0.6526600E+03  0.7818608E-02  0.9801801E-01
         13   -1    0    0    0    0  0.00000000000E+00  0.00000000000E+00  0.10000000000E+04  0.10000000000E+04  0.00000000000E+00 0. -1.
          2   -1    0    0  501    0 -0.00000000000E+00 -0.00000000000E+00 -0.10649126939E+03  0.10649126939E+03  0.00000000000E+00 0. -1.
    9000006    2    1    2  501    0  0.00000000000E+00  0.00000000000E+00  0.89350873061E+03  0.11064912694E+04  0.65266000150E+03 0.  0.
         13    1    3    3    0    0  0.13171983353E+03 -0.82656966829E+02 -0.39635599066E+02  0.16047825218E+03  0.00000000000E+00 0. -1.
          4    1    3    3  501    0 -0.13171983353E+03  0.82656966829E+02  0.93314432968E+03  0.94601301720E+03  0.00000000000E+00 0. -1.
<mgrwt>
<rscale>  0 0.65266000E+03</rscale>
<asrwt>0</asrwt>
<pdfrwt beam="1">0</pdfrwt>
<pdfrwt beam="2">  1        2 0.38724180E+00 0.65266000E+03</pdfrwt>
<totfact> 0.44432624E+00</totfact>
</mgrwt>
</event>
<event>
 5    1  0.2343702E-004  0.6756826E+03  0.7818608E-02  0.9759746E-01
         13   -1    0    0    0    0  0.00000000000E+00  0.00000000000E+00  0.10000000000E+04  0.10000000000E+04  0.00000000000E+00 0. -1.
          2   -1    0    0  501    0 -0.00000000000E+00 -0.00000000000E+00 -0.11413673398E+03  0.11413673398E+03  0.00000000000E+00 0. -1.
    9000006    2    1    2  501    0  0.00000000000E+00  0.00000000000E+00  0.88586326602E+03  0.11141367340E+04  0.67568257039E+03 0.  0.
         13    1    3    3    0    0 -0.74062140501E+02  0.10560699617E+03  0.95779877916E+03  0.96644531126E+03  0.00000000000E+00 0. -1.
          2    1    3    3  501    0  0.74062140501E+02 -0.10560699617E+03 -0.71935513141E+02  0.14769142272E+03  0.00000000000E+00 0. -1.
<mgrwt>
<rscale>  0 0.67568257E+03</rscale>
<asrwt>0</asrwt>
<pdfrwt beam="1">0</pdfrwt>
<pdfrwt beam="2">  1        2 0.41504354E+00 0.67568257E+03</pdfrwt>
<totfact> 0.34871948E+00</totfact>
</mgrwt>
</event>
<event>
 5    1  0.2343702E-004  0.6428346E+03  0.7818608E-02  0.9820318E-01
         13   -1    0    0    0    0  0.00000000000E+00  0.00000000000E+00  0.10000000000E+04  0.10000000000E+04  0.00000000000E+00 0. -1.
          2   -1    0    0  501    0 -0.00000000000E+00 -0.00000000000E+00 -0.10330907577E+03  0.10330907577E+03  0.00000000000E+00 0. -1.
    9000006    2    1    2  501    0  0.00000000000E+00  0.00000000000E+00  0.89669092423E+03  0.11033090758E+04  0.64283458454E+03 0.  0.
         13    1    3    3    0    0 -0.21033104467E+02 -0.30508897492E+03  0.27854781701E+03  0.41365512261E+03  0.00000000000E+00 0. -1.
          2    1    3    3  501    0  0.21033104467E+02  0.30508897492E+03  0.61814310722E+03  0.68965395316E+03  0.00000000000E+00 0. -1.
<mgrwt>
<rscale>  0 0.64283458E+03</rscale>
<asrwt>0</asrwt>
<pdfrwt beam="1">0</pdfrwt>
<pdfrwt beam="2">  1        2 0.37567016E+00 0.64283458E+03</pdfrwt>
<totfact> 0.49065736E+00</totfact>
</mgrwt>
</event>
<event>
 5    1  0.2343702E-004  0.6581456E+03  0.7818608E-02  0.9791613E-01
         13   -1    0    0    0    0  0.00000000000E+00  0.00000000000E+00  0.10000000000E+04  0.10000000000E+04  0.00000000000E+00 0. -1.
          2   -1    0    0  501    0 -0.00000000000E+00 -0.00000000000E+00 -0.10828891560E+03  0.10828891560E+03  0.00000000000E+00 0. -1.
    9000006    2    1    2  501    0  0.00000000000E+00  0.00000000000E+00  0.89171108440E+03  0.11082889156E+04  0.65814562401E+03 0.  0.
         13    1    3    3    0    0 -0.94193745075E+02 -0.11571142630E+03  0.93976709886E+03  0.95153759563E+03  0.00000000000E+00 0. -1.
          4    1    3    3  501    0  0.94193745075E+02  0.11571142630E+03 -0.48056014462E+02  0.15675131998E+03  0.00000000000E+00 0. -1.
<mgrwt>
<rscale>  0 0.65814562E+03</rscale>
<asrwt>0</asrwt>
<pdfrwt beam="1">0</pdfrwt>
<pdfrwt beam="2">  1        2 0.39377871E+00 0.65814562E+03</pdfrwt>
<totfact> 0.41994265E+00</totfact>
</mgrwt>
</event>
<event>
 5    1  0.2343702E-004  0.6551802E+03  0.7818608E-02  0.9797107E-01
         13   -1    0    0    0    0  0.00000000000E+00  0.00000000000E+00  0.10000000000E+04  0.10000000000E+04  0.00000000000E+00 0. -1.
          2   -1    0    0  501    0 -0.00000000000E+00 -0.00000000000E+00 -0.10731526342E+03  0.10731526342E+03  0.00000000000E+00 0. -1.
    9000006    2    1    2  501    0  0.00000000000E+00  0.00000000000E+00  0.89268473658E+03  0.11073152634E+04  0.65518016886E+03 0.  0.
         13    1    3    3    0    0 -0.50823823285E+02  0.31456469262E+03  0.31783688354E+03  0.45006031973E+03  0.00000000000E+00 0. -1.
          2    1    3    3  501    0  0.50823823285E+02 -0.31456469262E+03  0.57484785304E+03  0.65725494369E+03  0.00000000000E+00 0. -1.
<mgrwt>
<rscale>  0 0.65518017E+03</rscale>
<asrwt>0</asrwt>
<pdfrwt beam="1">0</pdfrwt>
<pdfrwt beam="2">  1        2 0.39023814E+00 0.65518017E+03</pdfrwt>
<totfact> 0.43299499E+00</totfact>
</mgrwt>
</event>
<event>
 5    1  0.2343702E-004  0.6509350E+03  0.7818608E-02  0.9805026E-01
         13   -1    0    0    0    0  0.00000000000E+00  0.00000000000E+00  0.10000000000E+04  0.10000000000E+04  0.00000000000E+00 0. -1.
          2   -1    0    0  501    0 -0.00000000000E+00 -0.00000000000E+00 -0.10592908026E+03  0.10592908026E+03  0.00000000000E+00 0. -1.
    9000006    2    1    2  501    0  0.00000000000E+00  0.00000000000E+00  0.89407091974E+03  0.11059290803E+04  0.65093495916E+03 0.  0.
         13    1    3    3    0    0  0.59921928353E+02  0.59366381281E+02 -0.87035652056E+02  0.12120317427E+03  0.00000000000E+00 0. -1.
          2    1    3    3  501    0 -0.59921928353E+02 -0.59366381281E+02  0.98110657179E+03  0.98472590600E+03  0.00000000000E+00 0. -1.
<mgrwt>
<rscale>  0 0.65093496E+03</rscale>
<asrwt>0</asrwt>
<pdfrwt beam="1">0</pdfrwt>
<pdfrwt beam="2">  1        2 0.38519747E+00 0.65093496E+03</pdfrwt>
<totfact> 0.45221056E+00</totfact>
</mgrwt>
</event>
<event>
 5    1  0.2343702E-004  0.6410629E+03  0.7818608E-02  0.9823695E-01
         13   -1    0    0    0    0  0.00000000000E+00  0.00000000000E+00  0.10000000000E+04  0.10000000000E+04  0.00000000000E+00 0. -1.
          2   -1    0    0  501    0 -0.00000000000E+00 -0.00000000000E+00 -0.10274039931E+03  0.10274039931E+03  0.00000000000E+00 0. -1.
    9000006    2    1    2  501    0  0.00000000000E+00  0.00000000000E+00  0.89725960069E+03  0.11027403993E+04  0.64106286528E+03 0.  0.
         13    1    3    3    0    0  0.28291646938E+03  0.13508679477E+03  0.33387685996E+03  0.45799992181E+03  0.00000000000E+00 0. -1.
          4    1    3    3  501    0 -0.28291646938E+03 -0.13508679477E+03  0.56338274073E+03  0.64474047750E+03  0.00000000000E+00 0. -1.
<mgrwt>
<rscale>  0 0.64106287E+03</rscale>
<asrwt>0</asrwt>
<pdfrwt beam="1">0</pdfrwt>
<pdfrwt beam="2">  1        2 0.37360224E+00 0.64106287E+03</pdfrwt>
<totfact> 0.49938672E+00</totfact>
</mgrwt>
</event>
<event>
 5    1  0.2343702E-004  0.6565189E+03  0.7818608E-02  0.9794623E-01
         13   -1    0    0    0    0  0.00000000000E+00  0.00000000000E+00  0.10000000000E+04  0.10000000000E+04  0.00000000000E+00 0. -1.
          2   -1    0    0  501    0 -0.00000000000E+00 -0.00000000000E+00 -0.10775427537E+03  0.10775427537E+03  0.00000000000E+00 0. -1.
    9000006    2    1    2  501    0  0.00000000000E+00  0.00000000000E+00  0.89224572463E+03  0.11077542754E+04  0.65651892697E+03 0.  0.
         13    1    3    3    0    0  0.24077235172E+03 -0.15723176787E+03  0.17900899687E+03  0.33872905861E+03  0.00000000000E+00 0. -1.
          2    1    3    3  501    0 -0.24077235172E+03  0.15723176787E+03  0.71323672776E+03  0.76902521676E+03  0.00000000000E+00 0. -1.
<mgrwt>
<rscale>  0 0.65651893E+03</rscale>
<asrwt>0</asrwt>
<pdfrwt beam="1">0</pdfrwt>
<pdfrwt beam="2">  1        2 0.39183455E+00 0.65651893E+03</pdfrwt>
<totfact> 0.42706513E+00</totfact>
</mgrwt>
</event>
<event>
 5    1  0.2343702E-004  0.6766146E+03  0.7818608E-02  0.9758082E-01
         13   -1    0    0    0    0  0.00000000000E+00  0.00000000000E+00  0.10000000000E+04  0.10000000000E+04  0.00000000000E+00 0. -1.
          2   -1    0    0  501    0 -0.00000000000E+00 -0.00000000000E+00 -0.11445182906E+03  0.11445182906E+03  0.00000000000E+00 0. -1.
    9000006    2    1    2  501    0  0.00000000000E+00  0.00000000000E+00  0.88554817094E+03  0.11144518291E+04  0.67661459950E+03 0.  0.
         13    1    3    3    0    0  0.13787221408E+03 -0.30484027910E+03  0.52538375402E+03  0.62286790908E+03  0.00000000000E+00 0. -1.
          4    1    3    3  501    0 -0.13787221408E+03  0.30484027910E+03  0.36016441691E+03  0.49158391998E+03  0.00000000000E+00 0. -1.
<mgrwt>
<rscale>  0 0.67661460E+03</rscale>
<asrwt>0</asrwt>
<pdfrwt beam="1">0</pdfrwt>
<pdfrwt beam="2">  1        2 0.41618935E+00 0.67661460E+03</pdfrwt>
<totfact> 0.34520869E+00</totfact>
</mgrwt>
</event>
<event>
 5    1  0.2343702E-004  0.6466941E+03  0.7818608E-02  0.9813002E-01
         13   -1    0    0    0    0  0.00000000000E+00  0.00000000000E+00  0.10000000000E+04  0.10000000000E+04  0.00000000000E+00 0. -1.
          2   -1    0    0  501    0 -0.00000000000E+00 -0.00000000000E+00 -0.10455330689E+03  0.10455330689E+03  0.00000000000E+00 0. -1.
    9000006    2    1    2  501    0  0.00000000000E+00  0.00000000000E+00  0.89544669311E+03  0.11045533069E+04  0.64669407572E+03 0.  0.
         13    1    3    3    0    0  0.11330451012E+03  0.13117118990E+03 -0.18499619066E+02  0.17431588849E+03  0.00000000000E+00 0. -1.
          2    1    3    3  501    0 -0.11330451012E+03 -0.13117118990E+03  0.91394631217E+03  0.93023741841E+03  0.00000000000E+00 0. -1.
<mgrwt>
<rscale>  0 0.64669408E+03</rscale>
<asrwt>0</asrwt>
<pdfrwt beam="1">0</pdfrwt>
<pdfrwt beam="2">  1        2 0.38019464E+00 0.64669408E+03</pdfrwt>
<totfact> 0.47204307E+00</totfact>
</mgrwt>
</event>
<event>
 5    1  0.2343702E-004  0.6442894E+03  0.7818608E-02  0.9817554E-01
         13   -1    0    0    0    0  0.00000000000E+00  0.00000000000E+00  0.10000000000E+04  0.10000000000E+04  0.00000000000E+00 0. -1.
          2   -1    0    0  501    0 -0.00000000000E+00 -0.00000000000E+00 -0.10377721752E+03  0.10377721752E+03  0.00000000000E+00 0. -1.
    9000006    2    1    2  501    0  0.00000000000E+00  0.00000000000E+00  0.89622278248E+03  0.11037772175E+04  0.64428943035E+03 0.  0.
         13    1    3    3    0    0  0.11868429371E+03  0.29677221179E+03  0.37921064266E+03  0.49594396737E+03  0.00000000000E+00 0. -1.
          2    1    3    3  501    0 -0.11868429371E+03 -0.29677221179E+03  0.51701213982E+03  0.60783325015E+03  0.00000000000E+00 0. -1.
<mgrwt>
<rscale>  0 0.64428943E+03</rscale>
<asrwt>0</asrwt>
<pdfrwt beam="1">0</pdfrwt>
<pdfrwt beam="2">  1        2 0.37737250E+00 0.64428943E+03</pdfrwt>
<totfact> 0.48357662E+00</totfact>
</mgrwt>
</event>
<event>
 5    1  0.2343702E-004  0.6362020E+03  0.7818608E-02  0.9833020E-01
         13   -1    0    0    0    0  0.00000000000E+00  0.00000000000E+00  0.10000000000E+04  0.10000000000E+04  0.00000000000E+00 0. -1.
          2   -1    0    0  501    0 -0.00000000000E+00 -0.00000000000E+00 -0.10118823243E+03  0.10118823243E+03  0.00000000000E+00 0. -1.
    9000006    2    1    2  501    0  0.00000000000E+00  0.00000000000E+00  0.89881176757E+03  0.11011882324E+04  0.63620195671E+03 0.  0.
         13    1    3    3    0    0 -0.17792412160E+03  0.14547791024E+03  0.68740830182E+02  0.23988771779E+03  0.00000000000E+00 0. -1.
          4    1    3    3  501    0  0.17792412160E+03 -0.14547791024E+03  0.83007093739E+03  0.86130051464E+03  0.00000000000E+00 0. -1.
<mgrwt>
<rscale>  0 0.63620196E+03</rscale>
<asrwt>0</asrwt>
<pdfrwt beam="1">0</pdfrwt>
<pdfrwt beam="2">  1        2 0.36795798E+00 0.63620196E+03</pdfrwt>
<totfact> 0.52394150E+00</totfact>
</mgrwt>
</event>
<event>
 5    1  0.2343702E-004  0.6492746E+03  0.7818608E-02  0.9808141E-01
         13   -1    0    0    0    0  0.00000000000E+00  0.00000000000E+00  0.10000000000E+04  0.10000000000E+04  0.00000000000E+00 0. -1.
          2   -1    0    0  501    0 -0.00000000000E+00 -0.00000000000E+00 -0.10538938936E+03  0.10538938936E+03  0.00000000000E+00 0. -1.
    9000006    2    1    2  501    0  0.00000000000E+00  0.00000000000E+00  0.89461061064E+03  0.11053893894E+04  0.64927463945E+03 0.  0.
         13    1    3    3    0    0 -0.17977179823E+03  0.26469829214E+03  0.35395767379E+03  0.47714685385E+03  0.00000000000E+00 0. -1.
          4    1    3    3  501    0  0.17977179823E+03 -0.26469829214E+03  0.54065293685E+03  0.62824253551E+03  0.00000000000E+00 0. -1.
<mgrwt>
<rscale>  0 0.64927464E+03</rscale>
<asrwt>0</asrwt>
<pdfrwt beam="1">0</pdfrwt>
<pdfrwt beam="2">  1        2 0.38323495E+00 0.64927464E+03</pdfrwt>
<totfact> 0.45989847E+00</totfact>
</mgrwt>
</event>
<event>
 5    1  0.2343702E-004  0.6517436E+03  0.7818608E-02  0.9803513E-01
         13   -1    0    0    0    0  0.00000000000E+00  0.00000000000E+00  0.10000000000E+04  0.10000000000E+04  0.00000000000E+00 0. -1.
          2   -1    0    0  501    0 -0.00000000000E+00 -0.00000000000E+00 -0.10619244588E+03  0.10619244588E+03  0.00000000000E+00 0. -1.
    9000006    2    1    2  501    0  0.00000000000E+00  0.00000000000E+00  0.89380755412E+03  0.11061924459E+04  0.65174364863E+03 0.  0.
         13    1    3    3    0    0  0.13691276487E+03 -0.12914433083E+03 -0.46148415859E+01  0.18826752277E+03  0.00000000000E+00 0. -1.
          2    1    3    3  501    0 -0.13691276487E+03  0.12914433083E+03  0.89842239570E+03  0.91792492311E+03  0.00000000000E+00 0. -1.
<mgrwt>
<rscale>  0 0.65174365E+03</rscale>
<asrwt>0</asrwt>
<pdfrwt beam="1">0</pdfrwt>
<pdfrwt beam="2">  1        2 0.38615516E+00 0.65174365E+03</pdfrwt>
<totfact> 0.44850139E+00</totfact>
</mgrwt>
</event>
<event>
 5    1  0.2343702E-004  0.6574331E+03  0.7818608E-02  0.9792931E-01
         13   -1    0    0    0    0  0.00000000000E+00  0.00000000000E+00  0.10000000000E+04  0.10000000000E+04  0.00000000000E+00 0. -1.
          2   -1    0    0  501    0 -0.00000000000E+00 -0.00000000000E+00 -0.10805456507E+03  0.10805456507E+03  0.00000000000E+00 0. -1.
    9000006    2    1    2  501    0  0.00000000000E+00  0.00000000000E+00  0.89194543493E+03  0.11080545651E+04  0.65743308426E+03 0.  0.
         13    1    3    3    0    0  0.12509862602E+03  0.28172626073E+03  0.63840089001E+03  0.70892527715E+03  0.00000000000E+00 0. -1.
          4    1    3    3  501    0 -0.12509862602E+03 -0.28172626073E+03  0.25354454492E+03  0.39912928792E+03  0.00000000000E+00 0. -1.
<mgrwt>
<rscale>  0 0.65743308E+03</rscale>
<asrwt>0</asrwt>
<pdfrwt beam="1">0</pdfrwt>
<pdfrwt beam="2">  1        2 0.39292652E+00 0.65743308E+03</pdfrwt>
<totfact> 0.42305137E+00</totfact>
</mgrwt>
</event>
<event>
 5    1  0.2343702E-004  0.6379147E+03  0.7818608E-02  0.9829724E-01
         13   -1    0    0    0    0  0.00000000000E+00  0.00000000000E+00  0.10000000000E+04  0.10000000000E+04  0.00000000000E+00 0. -1.
          2   -1    0    0  501    0 -0.00000000000E+00 -0.00000000000E+00 -0.10173378629E+03  0.10173378629E+03  0.00000000000E+00 0. -1.
    9000006    2    1    2  501    0  0.00000000000E+00  0.00000000000E+00  0.89826621371E+03  0.11017337863E+04  0.63791468486E+03 0.  0.
         13    1    3    3    0    0 -0.21308539342E+03  0.33216844260E+02  0.85499857119E+03  0.88177735306E+03  0.00000000000E+00 0. -1.
          4    1    3    3  501    0  0.21308539342E+03 -0.33216844260E+02  0.43267642524E+02  0.21995643323E+03  0.00000000000E+00 0. -1.
<mgrwt>
<rscale>  0 0.63791468E+03</rscale>
<asrwt>0</asrwt>
<pdfrwt beam="1">0</pdfrwt>
<pdfrwt beam="2">  1        2 0.36994182E+00 0.63791468E+03</pdfrwt>
<totfact> 0.51518770E+00</totfact>
</mgrwt>
</event>
<event>
 5    1  0.2343702E-004  0.6505320E+03  0.7818608E-02  0.9805781E-01
         13   -1    0    0    0    0  0.00000000000E+00  0.00000000000E+00  0.10000000000E+04  0.10000000000E+04  0.00000000000E+00 0. -1.
          2   -1    0    0  501    0 -0.00000000000E+00 -0.00000000000E+00 -0.10579797479E+03  0.10579797479E+03  0.00000000000E+00 0. -1.
    9000006    2    1    2  501    0  0.00000000000E+00  0.00000000000E+00  0.89420202521E+03  0.11057979748E+04  0.65053201240E+03 0.  0.
         13    1    3    3    0    0 -0.26553790150E+03 -0.18519656067E+03  0.50058056563E+03  0.59614515506E+03  0.00000000000E+00 0. -1.
          4    1    3    3  501    0  0.26553790150E+03  0.18519656067E+03  0.39362145958E+03  0.50965281973E+03  0.00000000000E+00 0. -1.
<mgrwt>
<rscale>  0 0.65053201E+03</rscale>
<asrwt>0</asrwt>
<pdfrwt beam="1">0</pdfrwt>
<pdfrwt beam="2">  1        2 0.38472072E+00 0.65053201E+03</pdfrwt>
<totfact> 0.45406736E+00</totfact>
</mgrwt>
</event>
<event>
 5    1  0.2343702E-004  0.6567782E+03  0.7818608E-02  0.9794143E-01
         13   -1    0    0    0    0  0.00000000000E+00  0.00000000000E+00  0.10000000000E+04  0.10000000000E+04  0.00000000000E+00 0. -1.
          2   -1    0    0  501    0 -0.00000000000E+00 -0.00000000000E+00 -0.10783938778E+03  0.10783938778E+03  0.00000000000E+00 0. -1.
    9000006    2    1    2  501    0  0.00000000000E+00  0.00000000000E+00  0.89216061222E+03  0.11078393878E+04  0.65677815973E+03 0.  0.
         13    1    3    3    0    0 -0.10829075097E+03  0.35794591003E+02  0.96551844406E+03  0.97223145665E+03  0.00000000000E+00 0. -1.
          2    1    3    3  501    0  0.10829075097E+03 -0.35794591003E+02 -0.73357831833E+02  0.13560793112E+03  0.00000000000E+00 0. -1.
<mgrwt>
<rscale>  0 0.65677816E+03</rscale>
<asrwt>0</asrwt>
<pdfrwt beam="1">0</pdfrwt>
<pdfrwt beam="2">  1        2 0.39214406E+00 0.65677816E+03</pdfrwt>
<totfact> 0.42592402E+00</totfact>
</mgrwt>
</event>
<event>
 5    1  0.2343702E-004  0.6500666E+03  0.7818608E-02  0.9806654E-01
         13   -1    0    0    0    0  0.00000000000E+00  0.00000000000E+00  0.10000000000E+04  0.10000000000E+04  0.00000000000E+00 0. -1.
          2   -1    0    0  501    0 -0.00000000000E+00 -0.00000000000E+00 -0.10564663800E+03  0.10564663800E+03  0.00000000000E+00 0. -1.
    9000006    2    1    2  501    0  0.00000000000E+00  0.00000000000E+00  0.89435336200E+03  0.11056466380E+04  0.65006657506E+03 0.  0.
         13    1    3    3    0    0 -0.20414950566E+03 -0.25179973862E+03  0.40669468578E+03  0.52007758697E+03  0.00000000000E+00 0. -1.
          4    1    3    3  501    0  0.20414950566E+03  0.25179973862E+03  0.48765867622E+03  0.58556905103E+03  0.00000000000E+00 0. -1.
<mgrwt>
<rscale>  0 0.65006658E+03</rscale>
<asrwt>0</asrwt>
<pdfrwt beam="1">0</pdfrwt>
<pdfrwt beam="2">  1        2 0.38417040E+00 0.65006658E+03</pdfrwt>
<totfact> 0.45621929E+00</totfact>
</mgrwt>
</event>
<event>
 5    1  0.2343702E-004  0.6468116E+03  0.7818608E-02  0.9812780E-01
         13   -1    0    0    0    0  0.00000000000E+00  0.00000000000E+00  0.10000000000E+04  0.10000000000E+04  0.00000000000E+00 0. -1.
          2   -1    0    0  501    0 -0.00000000000E+00 -0.00000000000E+00 -0.10459132142E+03  0.10459132142E+03  0.00000000000E+00 0. -1.
    9000006    2    1    2  501    0  0.00000000000E+00  0.00000000000E+00  0.89540867858E+03  0.11045913214E+04  0.64681163077E+03 0.  0.
         13    1    3    3    0    0 -0.11220947307E+03  0.28757828594E+03  0.61238549856E+03  0.68579022684E+03  0.00000000000E+00 0. -1.
          2    1    3    3  501    0  0.11220947307E+03 -0.28757828594E+03  0.28302318002E+03  0.41880109458E+03  0.00000000000E+00 0. -1.
<mgrwt>
<rscale>  0 0.64681163E+03</rscale>
<asrwt>0</asrwt>
<pdfrwt beam="1">0</pdfrwt>
<pdfrwt beam="2">  1        2 0.38033288E+00 0.64681163E+03</pdfrwt>
<totfact> 0.47148462E+00</totfact>
</mgrwt>
</event>
<event>
 5    1  0.2343702E-004  0.6536453E+03  0.7818608E-02  0.9799963E-01
         13   -1    0    0    0    0  0.00000000000E+00  0.00000000000E+00  0.10000000000E+04  0.10000000000E+04  0.00000000000E+00 0. -1.
          2   -1    0    0  501    0 -0.00000000000E+00 -0.00000000000E+00 -0.10681304242E+03  0.10681304242E+03  0.00000000000E+00 0. -1.
    9000006    2    1    2  501    0  0.00000000000E+00  0.00000000000E+00  0.89318695758E+03  0.11068130424E+04  0.65364529347E+03 0.  0.
         13    1    3    3    0    0  0.30128543685E+03  0.12664043236E+03  0.44400941371E+03  0.55132120676E+03  0.00000000000E+00 0. -1.
          2    1    3    3  501    0 -0.30128543685E+03 -0.12664043236E+03  0.44917754387E+03  0.55549183566E+03  0.00000000000E+00 0. -1.
<mgrwt>
<rscale>  0 0.65364529E+03</rscale>
<asrwt>0</asrwt>
<pdfrwt beam="1">0</pdfrwt>
<pdfrwt beam="2">  1        2 0.38841188E+00 0.65364529E+03</pdfrwt>
<totfact> 0.43986981E+00</totfact>
</mgrwt>
</event>
<event>
 5    1  0.2343702E-004  0.6587760E+03  0.7818608E-02  0.9790450E-01
         13   -1    0    0    0    0  0.00000000000E+00  0.00000000000E+00  0.10000000000E+04  0.10000000000E+04  0.00000000000E+00 0. -1.
          2   -1    0    0  501    0 -0.00000000000E+00 -0.00000000000E+00 -0.10849644127E+03  0.10849644127E+03  0.00000000000E+00 0. -1.
    9000006    2    1    2  501    0  0.00000000000E+00  0.00000000000E+00  0.89150355873E+03  0.11084964413E+04  0.65877595970E+03 0.  0.
         13    1    3    3    0    0  0.83534204076E+02 -0.23396964532E+03  0.81827297519E+02  0.26156350051E+03  0.00000000000E+00 0. -1.
          4    1    3    3  501    0 -0.83534204076E+02  0.23396964532E+03  0.80967626121E+03  0.84693294076E+03  0.00000000000E+00 0. -1.
<mgrwt>
<rscale>  0 0.65877596E+03</rscale>
<asrwt>0</asrwt>
<pdfrwt beam="1">0</pdfrwt>
<pdfrwt beam="2">  1        2 0.39453335E+00 0.65877596E+03</pdfrwt>
<totfact> 0.41720718E+00</totfact>
</mgrwt>
</event>
<event>
 5    1  0.2343702E-004  0.6460005E+03  0.7818608E-02  0.9814313E-01
         13   -1    0    0    0    0  0.00000000000E+00  0.00000000000E+00  0.10000000000E+04  0.10000000000E+04  0.00000000000E+00 0. -1.
          2   -1    0    0  501    0 -0.00000000000E+00 -0.00000000000E+00 -0.10432916974E+03  0.10432916974E+03  0.00000000000E+00 0. -1.
    9000006    2    1    2  501    0  0.00000000000E+00  0.00000000000E+00  0.89567083026E+03  0.11043291697E+04  0.64600052552E+03 0.  0.
         13    1    3    3    0    0  0.16666181685E+03 -0.11477111890E+03  0.87820724976E+03  0.90121947629E+03  0.00000000000E+00 0. -1.
          4    1    3    3  501    0 -0.16666181685E+03  0.11477111890E+03  0.17463580500E+02  0.20310969345E+03  0.00000000000E+00 0. -1.
<mgrwt>
<rscale>  0 0.64600053E+03</rscale>
<asrwt>0</asrwt>
<pdfrwt beam="1">0</pdfrwt>
<pdfrwt beam="2">  1        2 0.37937960E+00 0.64600053E+03</pdfrwt>
<totfact> 0.47534799E+00</totfact>
</mgrwt>
</event>
<event>
 5    1  0.2343702E-004  0.6418767E+03  0.7818608E-02  0.9822143E-01
         13   -1    0    0    0    0  0.00000000000E+00  0.00000000000E+00  0.10000000000E+04  0.10000000000E+04  0.00000000000E+00 0. -1.
          2   -1    0    0  501    0 -0.00000000000E+00 -0.00000000000E+00 -0.10300141409E+03  0.10300141409E+03  0.00000000000E+00 0. -1.
    9000006    2    1    2  501    0  0.00000000000E+00  0.00000000000E+00  0.89699858591E+03  0.11030014141E+04  0.64187666756E+03 0.  0.
         13    1    3    3    0    0  0.18371424628E+03 -0.24169383112E+03  0.26963215558E+03  0.40603981530E+03  0.00000000000E+00 0. -1.
          2    1    3    3  501    0 -0.18371424628E+03  0.24169383112E+03  0.62736643033E+03  0.69696159879E+03  0.00000000000E+00 0. -1.
<mgrwt>
<rscale>  0 0.64187667E+03</rscale>
<asrwt>0</asrwt>
<pdfrwt beam="1">0</pdfrwt>
<pdfrwt beam="2">  1        2 0.37455139E+00 0.64187667E+03</pdfrwt>
<totfact> 0.49536257E+00</totfact>
</mgrwt>
</event>
<event>
 5    1  0.2343702E-004  0.5123443E+03  0.7818608E-02  0.1010606E+00
         13   -1    0    0    0    0  0.00000000000E+00  0.00000000000E+00  0.10000000000E+04  0.10000000000E+04  0.00000000000E+00 0. -1.
          2   -1    0    0  501    0 -0.00000000000E+00 -0.00000000000E+00 -0.65624166199E+02  0.65624166199E+02  0.00000000000E+00 0. -1.
    9000006    2    1    2  501    0  0.00000000000E+00  0.00000000000E+00  0.93437583380E+03  0.10656241662E+04  0.51234428346E+03 0.  0.
         13    1    3    3    0    0  0.11266753953E+03 -0.34359761256E+02  0.94033444593E+03  0.94768319488E+03  0.00000000000E+00 0. -1.
          2    1    3    3  501    0 -0.11266753953E+03  0.34359761256E+02 -0.59586121316E+01  0.11794097132E+03  0.00000000000E+00 0. -1.
<mgrwt>
<rscale>  0 0.51234428E+03</rscale>
<asrwt>0</asrwt>
<pdfrwt beam="1">0</pdfrwt>
<pdfrwt beam="2">  1        2 0.23863383E+00 0.51234428E+03</pdfrwt>
<totfact> 0.15319161E+01</totfact>
</mgrwt>
</event>
<event>
 5    1  0.2343702E-004  0.5496374E+03  0.7818608E-02  0.1001578E+00
         13   -1    0    0    0    0  0.00000000000E+00  0.00000000000E+00  0.10000000000E+04  0.10000000000E+04  0.00000000000E+00 0. -1.
          2   -1    0    0  501    0 -0.00000000000E+00 -0.00000000000E+00 -0.75525314771E+02  0.75525314771E+02  0.00000000000E+00 0. -1.
    9000006    2    1    2  501    0  0.00000000000E+00  0.00000000000E+00  0.92447468523E+03  0.10755253148E+04  0.54963738872E+03 0.  0.
         13    1    3    3    0    0  0.25543842016E+02  0.34045511886E+02  0.99351134333E+03  0.99442263352E+03  0.00000000000E+00 0. -1.
          2    1    3    3  501    0 -0.25543842016E+02 -0.34045511886E+02 -0.69036658096E+02  0.81102681248E+02  0.00000000000E+00 0. -1.
<mgrwt>
<rscale>  0 0.54963739E+03</rscale>
<asrwt>0</asrwt>
<pdfrwt beam="1">0</pdfrwt>
<pdfrwt beam="2">  1        2 0.27463809E+00 0.54963739E+03</pdfrwt>
<totfact> 0.11375600E+01</totfact>
</mgrwt>
</event>
<event>
 5    1  0.2343702E-004  0.6493855E+03  0.7818608E-02  0.9807933E-01
         13   -1    0    0    0    0  0.00000000000E+00  0.00000000000E+00  0.10000000000E+04  0.10000000000E+04  0.00000000000E+00 0. -1.
          2   -1    0    0  501    0 -0.00000000000E+00 -0.00000000000E+00 -0.10542539446E+03  0.10542539446E+03  0.00000000000E+00 0. -1.
    9000006    2    1    2  501    0  0.00000000000E+00  0.00000000000E+00  0.89457460554E+03  0.11054253945E+04  0.64938553868E+03 0.  0.
         13    1    3    3    0    0 -0.65974147368E+02  0.23346195100E+03  0.79943999379E+02  0.25543710326E+03  0.00000000000E+00 0. -1.
          4    1    3    3  501    0  0.65974147368E+02 -0.23346195100E+03  0.81463060616E+03  0.84998829120E+03  0.00000000000E+00 0. -1.
<mgrwt>
<rscale>  0 0.64938554E+03</rscale>
<asrwt>0</asrwt>
<pdfrwt beam="1">0</pdfrwt>
<pdfrwt beam="2">  1        2 0.38336588E+00 0.64938554E+03</pdfrwt>
<totfact> 0.45938191E+00</totfact>
</mgrwt>
</event>
<event>
 5    1  0.2343702E-004  0.6194338E+03  0.7818608E-02  0.9865888E-01
         13   -1    0    0    0    0  0.00000000000E+00  0.00000000000E+00  0.10000000000E+04  0.10000000000E+04  0.00000000000E+00 0. -1.
          2   -1    0    0  501    0 -0.00000000000E+00 -0.00000000000E+00 -0.95924562430E+02  0.95924562430E+02  0.00000000000E+00 0. -1.
    9000006    2    1    2  501    0  0.00000000000E+00  0.00000000000E+00  0.90407543757E+03  0.10959245624E+04  0.61943381383E+03 0.  0.
         13    1    3    3    0    0  0.25392793038E+03  0.16824079773E+03  0.35289414154E+03  0.46617446839E+03  0.00000000000E+00 0. -1.
          4    1    3    3  501    0 -0.25392793038E+03 -0.16824079773E+03  0.55118129603E+03  0.62975009404E+03  0.00000000000E+00 0. -1.
<mgrwt>
<rscale>  0 0.61943381E+03</rscale>
<asrwt>0</asrwt>
<pdfrwt beam="1">0</pdfrwt>
<pdfrwt beam="2">  1        2 0.34881733E+00 0.61943381E+03</pdfrwt>
<totfact> 0.61573896E+00</totfact>
</mgrwt>
</event>
<event>
 5    1  0.2343702E-004  0.6330912E+03  0.7818608E-02  0.9839035E-01
         13   -1    0    0    0    0  0.00000000000E+00  0.00000000000E+00  0.10000000000E+04  0.10000000000E+04  0.00000000000E+00 0. -1.
          2   -1    0    0  501    0 -0.00000000000E+00 -0.00000000000E+00 -0.10020112301E+03  0.10020112301E+03  0.00000000000E+00 0. -1.
    9000006    2    1    2  501    0  0.00000000000E+00  0.00000000000E+00  0.89979887699E+03  0.11002011230E+04  0.63309121935E+03 0.  0.
         13    1    3    3    0    0 -0.14164177445E+03  0.42648100714E+02 -0.36442558143E+02  0.15234602984E+03  0.00000000000E+00 0. -1.
          2    1    3    3  501    0  0.14164177445E+03 -0.42648100714E+02  0.93624143514E+03  0.94785509316E+03  0.00000000000E+00 0. -1.
<mgrwt>
<rscale>  0 0.63309122E+03</rscale>
<asrwt>0</asrwt>
<pdfrwt beam="1">0</pdfrwt>
<pdfrwt beam="2">  1        2 0.36436849E+00 0.63309122E+03</pdfrwt>
<totfact> 0.54012839E+00</totfact>
</mgrwt>
</event>
<event>
 5    1  0.2343702E-004  0.6472092E+03  0.7818608E-02  0.9812030E-01
         13   -1    0    0    0    0  0.00000000000E+00  0.00000000000E+00  0.10000000000E+04  0.10000000000E+04  0.00000000000E+00 0. -1.
          2   -1    0    0  501    0 -0.00000000000E+00 -0.00000000000E+00 -0.10471993301E+03  0.10471993301E+03  0.00000000000E+00 0. -1.
    9000006    2    1    2  501    0  0.00000000000E+00  0.00000000000E+00  0.89528006699E+03  0.11047199330E+04  0.64720918724E+03 0.  0.
         13    1    3    3    0    0 -0.10066679101E+03  0.23691840034E+03  0.78236526608E+03  0.82362585001E+03  0.00000000000E+00 0. -1.
          2    1    3    3  501    0  0.10066679101E+03 -0.23691840034E+03  0.11291480091E+03  0.28109408300E+03  0.00000000000E+00 0. -1.
<mgrwt>
<rscale>  0 0.64720919E+03</rscale>
<asrwt>0</asrwt>
<pdfrwt beam="1">0</pdfrwt>
<pdfrwt beam="2">  1        2 0.38080056E+00 0.64720919E+03</pdfrwt>
<totfact> 0.46959971E+00</totfact>
</mgrwt>
</event>
<event>
 5    1  0.2343702E-004  0.6448225E+03  0.7818608E-02  0.9816543E-01
         13   -1    0    0    0    0  0.00000000000E+00  0.00000000000E+00  0.10000000000E+04  0.10000000000E+04  0.00000000000E+00 0. -1.
          2   -1    0    0  501    0 -0.00000000000E+00 -0.00000000000E+00 -0.10394901953E+03  0.10394901953E+03  0.00000000000E+00 0. -1.
    9000006    2    1    2  501    0  0.00000000000E+00  0.00000000000E+00  0.89605098047E+03  0.11039490195E+04  0.64482251675E+03 0.  0.
         13    1    3    3    0    0  0.15307406359E+03  0.76497011945E+02 -0.19783949024E+02  0.17226394405E+03  0.00000000000E+00 0. -1.
          2    1    3    3  501    0 -0.15307406359E+03 -0.76497011945E+02  0.91583492950E+03  0.93168507548E+03  0.00000000000E+00 0. -1.
<mgrwt>
<rscale>  0 0.64482252E+03</rscale>
<asrwt>0</asrwt>
<pdfrwt beam="1">0</pdfrwt>
<pdfrwt beam="2">  1        2 0.37799723E+00 0.64482252E+03</pdfrwt>
<totfact> 0.48100155E+00</totfact>
</mgrwt>
</event>
<event>
 5    1  0.2343702E-004  0.6446995E+03  0.7818608E-02  0.9816776E-01
         13   -1    0    0    0    0  0.00000000000E+00  0.00000000000E+00  0.10000000000E+04  0.10000000000E+04  0.00000000000E+00 0. -1.
          2   -1    0    0  501    0 -0.00000000000E+00 -0.00000000000E+00 -0.10390937727E+03  0.10390937727E+03  0.00000000000E+00 0. -1.
    9000006    2    1    2  501    0  0.00000000000E+00  0.00000000000E+00  0.89609062273E+03  0.11039093773E+04  0.64469954947E+03 0.  0.
         13    1    3    3    0    0  0.12060997723E+02  0.26310227316E+03  0.76627753953E+03  0.81027744717E+03  0.00000000000E+00 0. -1.
          2    1    3    3  501    0 -0.12060997723E+02 -0.26310227316E+03  0.12981308320E+03  0.29363193010E+03  0.00000000000E+00 0. -1.
<mgrwt>
<rscale>  0 0.64469955E+03</rscale>
<asrwt>0</asrwt>
<pdfrwt beam="1">0</pdfrwt>
<pdfrwt beam="2">  1        2 0.37785308E+00 0.64469955E+03</pdfrwt>
<totfact> 0.48159462E+00</totfact>
</mgrwt>
</event>
<event>
 5    1  0.2343702E-004  0.6956189E+03  0.7818608E-02  0.9724754E-01
         13   -1    0    0    0    0  0.00000000000E+00  0.00000000000E+00  0.10000000000E+04  0.10000000000E+04  0.00000000000E+00 0. -1.
          2   -1    0    0  501    0 -0.00000000000E+00 -0.00000000000E+00 -0.12097141259E+03  0.12097141259E+03  0.00000000000E+00 0. -1.
    9000006    2    1    2  501    0  0.00000000000E+00  0.00000000000E+00  0.87902858741E+03  0.11209714126E+04  0.69561889735E+03 0.  0.
         13    1    3    3    0    0 -0.19971616878E+03  0.92448324644E+02  0.87353102155E+03  0.90082722340E+03  0.00000000000E+00 0. -1.
          4    1    3    3  501    0  0.19971616878E+03 -0.92448324644E+02  0.54975658613E+01  0.22014418919E+03  0.00000000000E+00 0. -1.
<mgrwt>
<rscale>  0 0.69561890E+03</rscale>
<asrwt>0</asrwt>
<pdfrwt beam="1">0</pdfrwt>
<pdfrwt beam="2">  1        2 0.43989697E+00 0.69561890E+03</pdfrwt>
<totfact> 0.27925158E+00</totfact>
</mgrwt>
</event>
<event>
 5    1  0.2343702E-004  0.6669479E+03  0.7818608E-02  0.9775487E-01
         13   -1    0    0    0    0  0.00000000000E+00  0.00000000000E+00  0.10000000000E+04  0.10000000000E+04  0.00000000000E+00 0. -1.
          2   -1    0    0  501    0 -0.00000000000E+00 -0.00000000000E+00 -0.11120488434E+03  0.11120488434E+03  0.00000000000E+00 0. -1.
    9000006    2    1    2  501    0  0.00000000000E+00  0.00000000000E+00  0.88879511566E+03  0.11112048843E+04  0.66694792703E+03 0.  0.
         13    1    3    3    0    0 -0.17150840433E+03  0.14258223186E+03  0.85744382358E+03  0.88597671312E+03  0.00000000000E+00 0. -1.
          2    1    3    3  501    0  0.17150840433E+03 -0.14258223186E+03  0.31351292081E+02  0.22522817122E+03  0.00000000000E+00 0. -1.
<mgrwt>
<rscale>  0 0.66694793E+03</rscale>
<asrwt>0</asrwt>
<pdfrwt beam="1">0</pdfrwt>
<pdfrwt beam="2">  1        2 0.40438225E+00 0.66694793E+03</pdfrwt>
<totfact> 0.38294665E+00</totfact>
</mgrwt>
</event>
<event>
 5    1  0.2343702E-004  0.6424529E+03  0.7818608E-02  0.9821045E-01
         13   -1    0    0    0    0  0.00000000000E+00  0.00000000000E+00  0.10000000000E+04  0.10000000000E+04  0.00000000000E+00 0. -1.
          2   -1    0    0  501    0 -0.00000000000E+00 -0.00000000000E+00 -0.10318643817E+03  0.10318643817E+03  0.00000000000E+00 0. -1.
    9000006    2    1    2  501    0  0.00000000000E+00  0.00000000000E+00  0.89681356183E+03  0.11031864382E+04  0.64245291864E+03 0.  0.
         13    1    3    3    0    0 -0.28871739141E+03  0.13153892837E+03  0.53471315714E+03  0.62175427798E+03  0.00000000000E+00 0. -1.
          2    1    3    3  501    0  0.28871739141E+03 -0.13153892837E+03  0.36210040470E+03  0.48143216018E+03  0.00000000000E+00 0. -1.
<mgrwt>
<rscale>  0 0.64245292E+03</rscale>
<asrwt>0</asrwt>
<pdfrwt beam="1">0</pdfrwt>
<pdfrwt beam="2">  1        2 0.37522420E+00 0.64245292E+03</pdfrwt>
<totfact> 0.49252796E+00</totfact>
</mgrwt>
</event>
<event>
 5    1  0.2343702E-004  0.6502704E+03  0.7818608E-02  0.9806272E-01
         13   -1    0    0    0    0  0.00000000000E+00  0.00000000000E+00  0.10000000000E+04  0.10000000000E+04  0.00000000000E+00 0. -1.
          2   -1    0    0  501    0 -0.00000000000E+00 -0.00000000000E+00 -0.10571290362E+03  0.10571290362E+03  0.00000000000E+00 0. -1.
    9000006    2    1    2  501    0  0.00000000000E+00  0.00000000000E+00  0.89428709638E+03  0.11057129036E+04  0.65027041642E+03 0.  0.
         13    1    3    3    0    0 -0.27515566655E+03 -0.14125020464E+03  0.61761250106E+03  0.69072965957E+03  0.00000000000E+00 0. -1.
          2    1    3    3  501    0  0.27515566655E+03  0.14125020464E+03  0.27667459533E+03  0.41498324405E+03  0.00000000000E+00 0. -1.
<mgrwt>
<rscale>  0 0.65027042E+03</rscale>
<asrwt>0</asrwt>
<pdfrwt beam="1">0</pdfrwt>
<pdfrwt beam="2">  1        2 0.38441137E+00 0.65027042E+03</pdfrwt>
<totfact> 0.45527589E+00</totfact>
</mgrwt>
</event>
<event>
 5    1  0.2343702E-004  0.6585767E+03  0.7818608E-02  0.9790817E-01
         13   -1    0    0    0    0  0.00000000000E+00  0.00000000000E+00  0.10000000000E+04  0.10000000000E+04  0.00000000000E+00 0. -1.
          2   -1    0    0  501    0 -0.00000000000E+00 -0.00000000000E+00 -0.10843081486E+03  0.10843081486E+03  0.00000000000E+00 0. -1.
    9000006    2    1    2  501    0  0.00000000000E+00  0.00000000000E+00  0.89156918514E+03  0.11084308149E+04  0.65857669216E+03 0.  0.
         13    1    3    3    0    0  0.97016551501E+02 -0.27566755228E+03  0.70117908318E+03  0.75964262474E+03  0.00000000000E+00 0. -1.
          4    1    3    3  501    0 -0.97016551501E+02  0.27566755228E+03  0.19039010196E+03  0.34878819012E+03  0.00000000000E+00 0. -1.
<mgrwt>
<rscale>  0 0.65857669E+03</rscale>
<asrwt>0</asrwt>
<pdfrwt beam="1">0</pdfrwt>
<pdfrwt beam="2">  1        2 0.39429470E+00 0.65857669E+03</pdfrwt>
<totfact> 0.41807047E+00</totfact>
</mgrwt>
</event>
<event>
 5    1  0.2343702E-004  0.6377539E+03  0.7818608E-02  0.9830033E-01
         13   -1    0    0    0    0  0.00000000000E+00  0.00000000000E+00  0.10000000000E+04  0.10000000000E+04  0.00000000000E+00 0. -1.
          2   -1    0    0  501    0 -0.00000000000E+00 -0.00000000000E+00 -0.10168250995E+03  0.10168250995E+03  0.00000000000E+00 0. -1.
    9000006    2    1    2  501    0  0.00000000000E+00  0.00000000000E+00  0.89831749005E+03  0.11016825099E+04  0.63775390222E+03 0.  0.
         13    1    3    3    0    0 -0.11772586562E+03  0.17503467659E+02 -0.61874252456E+02  0.13414236443E+03  0.00000000000E+00 0. -1.
          2    1    3    3  501    0  0.11772586562E+03 -0.17503467659E+02  0.96019174251E+03  0.96754014552E+03  0.00000000000E+00 0. -1.
<mgrwt>
<rscale>  0 0.63775390E+03</rscale>
<asrwt>0</asrwt>
<pdfrwt beam="1">0</pdfrwt>
<pdfrwt beam="2">  1        2 0.36975536E+00 0.63775390E+03</pdfrwt>
<totfact> 0.51600471E+00</totfact>
</mgrwt>
</event>
<event>
 5    1  0.2343702E-004  0.6483781E+03  0.7818608E-02  0.9809827E-01
         13   -1    0    0    0    0  0.00000000000E+00  0.00000000000E+00  0.10000000000E+04  0.10000000000E+04  0.00000000000E+00 0. -1.
          2   -1    0    0  501    0 -0.00000000000E+00 -0.00000000000E+00 -0.10509855169E+03  0.10509855169E+03  0.00000000000E+00 0. -1.
    9000006    2    1    2  501    0  0.00000000000E+00  0.00000000000E+00  0.89490144831E+03  0.11050985517E+04  0.64837813563E+03 0.  0.
         13    1    3    3    0    0 -0.42291171509E+02  0.29133696591E+03  0.67885324071E+03  0.73993749284E+03  0.00000000000E+00 0. -1.
          4    1    3    3  501    0  0.42291171509E+02 -0.29133696591E+03  0.21604820760E+03  0.36516105885E+03  0.00000000000E+00 0. -1.
<mgrwt>
<rscale>  0 0.64837814E+03</rscale>
<asrwt>0</asrwt>
<pdfrwt beam="1">0</pdfrwt>
<pdfrwt beam="2">  1        2 0.38217736E+00 0.64837814E+03</pdfrwt>
<totfact> 0.46409047E+00</totfact>
</mgrwt>
</event>
<event>
 5    1  0.2343702E-004  0.6504056E+03  0.7818608E-02  0.9806018E-01
         13   -1    0    0    0    0  0.00000000000E+00  0.00000000000E+00  0.10000000000E+04  0.10000000000E+04  0.00000000000E+00 0. -1.
          2   -1    0    0  501    0 -0.00000000000E+00 -0.00000000000E+00 -0.10575685830E+03  0.10575685830E+03  0.00000000000E+00 0. -1.
    9000006    2    1    2  501    0  0.00000000000E+00  0.00000000000E+00  0.89424314170E+03  0.11057568583E+04  0.65040559132E+03 0.  0.
         13    1    3    3    0    0 -0.19575406965E+03 -0.77468923268E+02  0.86851331532E+03  0.89366462879E+03  0.00000000000E+00 0. -1.
          4    1    3    3  501    0  0.19575406965E+03  0.77468923268E+02  0.25729826372E+02  0.21209222951E+03  0.00000000000E+00 0. -1.
<mgrwt>
<rscale>  0 0.65040559E+03</rscale>
<asrwt>0</asrwt>
<pdfrwt beam="1">0</pdfrwt>
<pdfrwt beam="2">  1        2 0.38457120E+00 0.65040559E+03</pdfrwt>
<totfact> 0.45465110E+00</totfact>
</mgrwt>
</event>
<event>
 5    1  0.2343702E-004  0.6518519E+03  0.7818608E-02  0.9803310E-01
         13   -1    0    0    0    0  0.00000000000E+00  0.00000000000E+00  0.10000000000E+04  0.10000000000E+04  0.00000000000E+00 0. -1.
          2   -1    0    0  501    0 -0.00000000000E+00 -0.00000000000E+00 -0.10622772623E+03  0.10622772623E+03  0.00000000000E+00 0. -1.
    9000006    2    1    2  501    0  0.00000000000E+00  0.00000000000E+00  0.89377227377E+03  0.11062277262E+04  0.65185190415E+03 0.  0.
         13    1    3    3    0    0  0.16207804111E+03  0.11244876698E+02 -0.32608850937E+02  0.16570780254E+03  0.00000000000E+00 0. -1.
          4    1    3    3  501    0 -0.16207804111E+03 -0.11244876698E+02  0.92638112470E+03  0.94051992370E+03  0.00000000000E+00 0. -1.
<mgrwt>
<rscale>  0 0.65185190E+03</rscale>
<asrwt>0</asrwt>
<pdfrwt beam="1">0</pdfrwt>
<pdfrwt beam="2">  1        2 0.38628346E+00 0.65185190E+03</pdfrwt>
<totfact> 0.44800661E+00</totfact>
</mgrwt>
</event>
<event>
 5    1  0.2343702E-004  0.6451315E+03  0.7818608E-02  0.9815958E-01
         13   -1    0    0    0    0  0.00000000000E+00  0.00000000000E+00  0.10000000000E+04  0.10000000000E+04  0.00000000000E+00 0. -1.
          2   -1    0    0  501    0 -0.00000000000E+00 -0.00000000000E+00 -0.10404864910E+03  0.10404864910E+03  0.00000000000E+00 0. -1.
    9000006    2    1    2  501    0  0.00000000000E+00  0.00000000000E+00  0.89595135090E+03  0.11040486491E+04  0.64513145669E+03 0.  0.
         13    1    3    3    0    0 -0.26660672245E+02 -0.29148809398E+03  0.67994186899E+03  0.74026822543E+03  0.00000000000E+00 0. -1.
          2    1    3    3  501    0  0.26660672245E+02  0.29148809398E+03  0.21600948191E+03  0.36378042368E+03  0.00000000000E+00 0. -1.
<mgrwt>
<rscale>  0 0.64513146E+03</rscale>
<asrwt>0</asrwt>
<pdfrwt beam="1">0</pdfrwt>
<pdfrwt beam="2">  1        2 0.37835952E+00 0.64513146E+03</pdfrwt>
<totfact> 0.47951397E+00</totfact>
</mgrwt>
</event>
<event>
 5    1  0.2343702E-004  0.6455040E+03  0.7818608E-02  0.9815252E-01
         13   -1    0    0    0    0  0.00000000000E+00  0.00000000000E+00  0.10000000000E+04  0.10000000000E+04  0.00000000000E+00 0. -1.
          2   -1    0    0  501    0 -0.00000000000E+00 -0.00000000000E+00 -0.10416884266E+03  0.10416884266E+03  0.00000000000E+00 0. -1.
    9000006    2    1    2  501    0  0.00000000000E+00  0.00000000000E+00  0.89583115734E+03  0.11041688427E+04  0.64550396641E+03 0.  0.
         13    1    3    3    0    0  0.17554660653E+03  0.86506750502E+02  0.89034751488E+01  0.19590635726E+03  0.00000000000E+00 0. -1.
          2    1    3    3  501    0 -0.17554660653E+03 -0.86506750502E+02  0.88692768219E+03  0.90826248540E+03  0.00000000000E+00 0. -1.
<mgrwt>
<rscale>  0 0.64550397E+03</rscale>
<asrwt>0</asrwt>
<pdfrwt beam="1">0</pdfrwt>
<pdfrwt beam="2">  1        2 0.37879659E+00 0.64550397E+03</pdfrwt>
<totfact> 0.47772494E+00</totfact>
</mgrwt>
</event>
<event>
 5    1  0.2343702E-004  0.6470729E+03  0.7818608E-02  0.9812287E-01
         13   -1    0    0    0    0  0.00000000000E+00  0.00000000000E+00  0.10000000000E+04  0.10000000000E+04  0.00000000000E+00 0. -1.
          2   -1    0    0  501    0 -0.00000000000E+00 -0.00000000000E+00 -0.10467584271E+03  0.10467584271E+03  0.00000000000E+00 0. -1.
    9000006    2    1    2  501    0  0.00000000000E+00  0.00000000000E+00  0.89532415729E+03  0.11046758427E+04  0.64707292545E+03 0.  0.
         13    1    3    3    0    0 -0.28727870338E+03 -0.12836075333E+03  0.57621586953E+03  0.65652895192E+03  0.00000000000E+00 0. -1.
          2    1    3    3  501    0  0.28727870338E+03  0.12836075333E+03  0.31910828776E+03  0.44814689079E+03  0.00000000000E+00 0. -1.
<mgrwt>
<rscale>  0 0.64707293E+03</rscale>
<asrwt>0</asrwt>
<pdfrwt beam="1">0</pdfrwt>
<pdfrwt beam="2">  1        2 0.38064023E+00 0.64707293E+03</pdfrwt>
<totfact> 0.47024512E+00</totfact>
</mgrwt>
</event>
<event>
 5    1  0.2343702E-004  0.6186659E+03  0.7818608E-02  0.9867420E-01
         13   -1    0    0    0    0  0.00000000000E+00  0.00000000000E+00  0.10000000000E+04  0.10000000000E+04  0.00000000000E+00 0. -1.
          2   -1    0    0  501    0 -0.00000000000E+00 -0.00000000000E+00 -0.95686867742E+02  0.95686867742E+02  0.00000000000E+00 0. -1.
    9000006    2    1    2  501    0  0.00000000000E+00  0.00000000000E+00  0.90431313226E+03  0.10956868677E+04  0.61866587991E+03 0.  0.
         13    1    3    3    0    0 -0.17779354122E+03  0.22875115980E+03  0.26018583496E+03  0.38940249758E+03  0.00000000000E+00 0. -1.
          2    1    3    3  501    0  0.17779354122E+03 -0.22875115980E+03  0.64412729730E+03  0.70628437016E+03  0.00000000000E+00 0. -1.
<mgrwt>
<rscale>  0 0.61866588E+03</rscale>
<asrwt>0</asrwt>
<pdfrwt beam="1">0</pdfrwt>
<pdfrwt beam="2">  1        2 0.34795298E+00 0.61866588E+03</pdfrwt>
<totfact> 0.62021707E+00</totfact>
</mgrwt>
</event>
<event>
 5    1  0.2343702E-004  0.6257170E+03  0.7818608E-02  0.9853443E-01
         13   -1    0    0    0    0  0.00000000000E+00  0.00000000000E+00  0.10000000000E+04  0.10000000000E+04  0.00000000000E+00 0. -1.
          2   -1    0    0  501    0 -0.00000000000E+00 -0.00000000000E+00 -0.97880437568E+02  0.97880437568E+02  0.00000000000E+00 0. -1.
    9000006    2    1    2  501    0  0.00000000000E+00  0.00000000000E+00  0.90211956243E+03  0.10978804376E+04  0.62571698896E+03 0.  0.
         13    1    3    3    0    0 -0.27934587559E+03  0.14063980282E+03  0.46539658204E+03  0.56072065320E+03  0.00000000000E+00 0. -1.
          2    1    3    3  501    0  0.27934587559E+03 -0.14063980282E+03  0.43672298039E+03  0.53715978437E+03  0.00000000000E+00 0. -1.
<mgrwt>
<rscale>  0 0.62571699E+03</rscale>
<asrwt>0</asrwt>
<pdfrwt beam="1">0</pdfrwt>
<pdfrwt beam="2">  1        2 0.35592961E+00 0.62571699E+03</pdfrwt>
<totfact> 0.58001676E+00</totfact>
</mgrwt>
</event>
<event>
 5    1  0.2343702E-004  0.6501634E+03  0.7818608E-02  0.9806473E-01
         13   -1    0    0    0    0  0.00000000000E+00  0.00000000000E+00  0.10000000000E+04  0.10000000000E+04  0.00000000000E+00 0. -1.
          2   -1    0    0  501    0 -0.00000000000E+00 -0.00000000000E+00 -0.10567810899E+03  0.10567810899E+03  0.00000000000E+00 0. -1.
    9000006    2    1    2  501    0  0.00000000000E+00  0.00000000000E+00  0.89432189101E+03  0.11056781090E+04  0.65016339174E+03 0.  0.
         13    1    3    3    0    0 -0.23007015899E+03 -0.10700359020E+03  0.79275043183E+03  0.83236728284E+03  0.00000000000E+00 0. -1.
          2    1    3    3  501    0  0.23007015899E+03  0.10700359020E+03  0.10157145918E+03  0.27331082615E+03  0.00000000000E+00 0. -1.
<mgrwt>
<rscale>  0 0.65016339E+03</rscale>
<asrwt>0</asrwt>
<pdfrwt beam="1">0</pdfrwt>
<pdfrwt beam="2">  1        2 0.38428484E+00 0.65016339E+03</pdfrwt>
<totfact> 0.45577103E+00</totfact>
</mgrwt>
</event>
<event>
 5    1  0.2343702E-004  0.6609085E+03  0.7818608E-02  0.9786523E-01
         13   -1    0    0    0    0  0.00000000000E+00  0.00000000000E+00  0.10000000000E+04  0.10000000000E+04  0.00000000000E+00 0. -1.
          2   -1    0    0  501    0 -0.00000000000E+00 -0.00000000000E+00 -0.10919999600E+03  0.10919999600E+03  0.00000000000E+00 0. -1.
    9000006    2    1    2  501    0  0.00000000000E+00  0.00000000000E+00  0.89080000400E+03  0.11091999960E+04  0.66090845357E+03 0.  0.
         13    1    3    3    0    0 -0.28763048099E+03  0.74543857684E+02  0.68809759106E+03  0.74951075718E+03  0.00000000000E+00 0. -1.
          4    1    3    3  501    0  0.28763048099E+03 -0.74543857684E+02  0.20270241294E+03  0.35968923882E+03  0.00000000000E+00 0. -1.
<mgrwt>
<rscale>  0 0.66090845E+03</rscale>
<asrwt>0</asrwt>
<pdfrwt beam="1">0</pdfrwt>
<pdfrwt beam="2">  1        2 0.39709173E+00 0.66090845E+03</pdfrwt>
<totfact> 0.40805252E+00</totfact>
</mgrwt>
</event>
<event>
 5    1  0.2343702E-004  0.6519384E+03  0.7818608E-02  0.9803149E-01
         13   -1    0    0    0    0  0.00000000000E+00  0.00000000000E+00  0.10000000000E+04  0.10000000000E+04  0.00000000000E+00 0. -1.
          2   -1    0    0  501    0 -0.00000000000E+00 -0.00000000000E+00 -0.10625591266E+03  0.10625591266E+03  0.00000000000E+00 0. -1.
    9000006    2    1    2  501    0  0.00000000000E+00  0.00000000000E+00  0.89374408734E+03  0.11062559127E+04  0.65193837949E+03 0.  0.
         13    1    3    3    0    0  0.58711423072E+02 -0.31253588379E+03  0.32533285766E+03  0.45493645504E+03  0.00000000000E+00 0. -1.
          4    1    3    3  501    0 -0.58711423072E+02  0.31253588379E+03  0.56841122967E+03  0.65131945762E+03  0.00000000000E+00 0. -1.
<mgrwt>
<rscale>  0 0.65193838E+03</rscale>
<asrwt>0</asrwt>
<pdfrwt beam="1">0</pdfrwt>
<pdfrwt beam="2">  1        2 0.38638595E+00 0.65193838E+03</pdfrwt>
<totfact> 0.44761167E+00</totfact>
</mgrwt>
</event>
<event>
 5    1  0.2343702E-004  0.6472678E+03  0.7818608E-02  0.9811920E-01
         13   -1    0    0    0    0  0.00000000000E+00  0.00000000000E+00  0.10000000000E+04  0.10000000000E+04  0.00000000000E+00 0. -1.
          2   -1    0    0  501    0 -0.00000000000E+00 -0.00000000000E+00 -0.10473888747E+03  0.10473888747E+03  0.00000000000E+00 0. -1.
    9000006    2    1    2  501    0  0.00000000000E+00  0.00000000000E+00  0.89526111253E+03  0.11047388875E+04  0.64726775747E+03 0.  0.
         13    1    3    3    0    0 -0.19815601801E+03 -0.19005962603E+03  0.15522688765E+03  0.31541061424E+03  0.00000000000E+00 0. -1.
          2    1    3    3  501    0  0.19815601801E+03  0.19005962603E+03  0.74003422488E+03  0.78932827323E+03  0.00000000000E+00 0. -1.
<mgrwt>
<rscale>  0 0.64726776E+03</rscale>
<asrwt>0</asrwt>
<pdfrwt beam="1">0</pdfrwt>
<pdfrwt beam="2">  1        2 0.38086948E+00 0.64726776E+03</pdfrwt>
<totfact> 0.46932250E+00</totfact>
</mgrwt>
</event>
<event>
 5    1  0.2343702E-004  0.6277294E+03  0.7818608E-02  0.9849490E-01
         13   -1    0    0    0    0  0.00000000000E+00  0.00000000000E+00  0.10000000000E+04  0.10000000000E+04  0.00000000000E+00 0. -1.
          2   -1    0    0  501    0 -0.00000000000E+00 -0.00000000000E+00 -0.98511034815E+02  0.98511034815E+02  0.00000000000E+00 0. -1.
    9000006    2    1    2  501    0  0.00000000000E+00  0.00000000000E+00  0.90148896518E+03  0.10985110348E+04  0.62772935192E+03 0.  0.
         13    1    3    3    0    0  0.70532099959E+02 -0.24115125903E+03  0.77991822835E+03  0.81939071863E+03  0.00000000000E+00 0. -1.
          2    1    3    3  501    0 -0.70532099959E+02  0.24115125903E+03  0.12157073683E+03  0.27912031619E+03  0.00000000000E+00 0. -1.
<mgrwt>
<rscale>  0 0.62772935E+03</rscale>
<asrwt>0</asrwt>
<pdfrwt beam="1">0</pdfrwt>
<pdfrwt beam="2">  1        2 0.35822270E+00 0.62772935E+03</pdfrwt>
<totfact> 0.56891646E+00</totfact>
</mgrwt>
</event>
<event>
 5    1  0.2343702E-004  0.6372449E+03  0.7818608E-02  0.9831012E-01
         13   -1    0    0    0    0  0.00000000000E+00  0.00000000000E+00  0.10000000000E+04  0.10000000000E+04  0.00000000000E+00 0. -1.
          2   -1    0    0  501    0 -0.00000000000E+00 -0.00000000000E+00 -0.10152026418E+03  0.10152026418E+03  0.00000000000E+00 0. -1.
    9000006    2    1    2  501    0  0.00000000000E+00  0.00000000000E+00  0.89847973582E+03  0.11015202642E+04  0.63724489541E+03 0.  0.
         13    1    3    3    0    0  0.17784434308E+03  0.51188463038E+02  0.90621119363E+00  0.18506671859E+03  0.00000000000E+00 0. -1.
          2    1    3    3  501    0 -0.17784434308E+03 -0.51188463038E+02  0.89757352462E+03  0.91645354559E+03  0.00000000000E+00 0. -1.
<mgrwt>
<rscale>  0 0.63724490E+03</rscale>
<asrwt>0</asrwt>
<pdfrwt beam="1">0</pdfrwt>
<pdfrwt beam="2">  1        2 0.36916538E+00 0.63724490E+03</pdfrwt>
<totfact> 0.51859771E+00</totfact>
</mgrwt>
</event>
<event>
 5    1  0.2343702E-004  0.6298945E+03  0.7818608E-02  0.9845255E-01
         13   -1    0    0    0    0  0.00000000000E+00  0.00000000000E+00  0.10000000000E+04  0.10000000000E+04  0.00000000000E+00 0. -1.
          2   -1    0    0  501    0 -0.00000000000E+00 -0.00000000000E+00 -0.99191773026E+02  0.99191773026E+02  0.00000000000E+00 0. -1.
    9000006    2    1    2  501    0  0.00000000000E+00  0.00000000000E+00  0.90080822697E+03  0.10991917730E+04  0.62989450871E+03 0.  0.
         13    1    3    3    0    0 -0.16957388881E+03  0.12439056329E+03  0.85951653639E+03  0.88487117273E+03  0.00000000000E+00 0. -1.
          4    1    3    3  501    0  0.16957388881E+03 -0.12439056329E+03  0.41291690588E+02  0.21432060030E+03  0.00000000000E+00 0. -1.
<mgrwt>
<rscale>  0 0.62989451E+03</rscale>
<asrwt>0</asrwt>
<pdfrwt beam="1">0</pdfrwt>
<pdfrwt beam="2">  1        2 0.36069812E+00 0.62989451E+03</pdfrwt>
<totfact> 0.55715494E+00</totfact>
</mgrwt>
</event>
<event>
 5    1  0.2343702E-004  0.6329598E+03  0.7818608E-02  0.9839290E-01
         13   -1    0    0    0    0  0.00000000000E+00  0.00000000000E+00  0.10000000000E+04  0.10000000000E+04  0.00000000000E+00 0. -1.
          2   -1    0    0  501    0 -0.00000000000E+00 -0.00000000000E+00 -0.10015951490E+03  0.10015951490E+03  0.00000000000E+00 0. -1.
    9000006    2    1    2  501    0  0.00000000000E+00  0.00000000000E+00  0.89984048510E+03  0.11001595149E+04  0.63295976143E+03 0.  0.
         13    1    3    3    0    0  0.21991743578E+03  0.22509683898E+03  0.39156369806E+03  0.50234887788E+03  0.00000000000E+00 0. -1.
          2    1    3    3  501    0 -0.21991743578E+03 -0.22509683898E+03  0.50827678705E+03  0.59781063701E+03  0.00000000000E+00 0. -1.
<mgrwt>
<rscale>  0 0.63295976E+03</rscale>
<asrwt>0</asrwt>
<pdfrwt beam="1">0</pdfrwt>
<pdfrwt beam="2">  1        2 0.36421719E+00 0.63295976E+03</pdfrwt>
<totfact> 0.54082069E+00</totfact>
</mgrwt>
</event>
<event>
 5    1  0.2343702E-004  0.6310434E+03  0.7818608E-02  0.9843015E-01
         13   -1    0    0    0    0  0.00000000000E+00  0.00000000000E+00  0.10000000000E+04  0.10000000000E+04  0.00000000000E+00 0. -1.
          2   -1    0    0  501    0 -0.00000000000E+00 -0.00000000000E+00 -0.99553934183E+02  0.99553934183E+02  0.00000000000E+00 0. -1.
    9000006    2    1    2  501    0  0.00000000000E+00  0.00000000000E+00  0.90044606582E+03  0.10995539342E+04  0.63104337151E+03 0.  0.
         13    1    3    3    0    0  0.12653585048E+02 -0.31406564501E+03  0.40229516798E+03  0.51052790793E+03  0.00000000000E+00 0. -1.
          2    1    3    3  501    0 -0.12653585048E+02  0.31406564501E+03  0.49815089784E+03  0.58902602626E+03  0.00000000000E+00 0. -1.
<mgrwt>
<rscale>  0 0.63104337E+03</rscale>
<asrwt>0</asrwt>
<pdfrwt beam="1">0</pdfrwt>
<pdfrwt beam="2">  1        2 0.36201507E+00 0.63104337E+03</pdfrwt>
<totfact> 0.55098959E+00</totfact>
</mgrwt>
</event>
<event>
 5    1  0.2343702E-004  0.6431104E+03  0.7818608E-02  0.9819794E-01
         13   -1    0    0    0    0  0.00000000000E+00  0.00000000000E+00  0.10000000000E+04  0.10000000000E+04  0.00000000000E+00 0. -1.
          2   -1    0    0  501    0 -0.00000000000E+00 -0.00000000000E+00 -0.10339775109E+03  0.10339775109E+03  0.00000000000E+00 0. -1.
    9000006    2    1    2  501    0  0.00000000000E+00  0.00000000000E+00  0.89660224891E+03  0.11033977511E+04  0.64311041382E+03 0.  0.
         13    1    3    3    0    0 -0.85138685579E+02 -0.13048269484E+03  0.93091419788E+03  0.94386205202E+03  0.00000000000E+00 0. -1.
          2    1    3    3  501    0  0.85138685579E+02  0.13048269484E+03 -0.34311948973E+02  0.15953569907E+03  0.00000000000E+00 0. -1.
<mgrwt>
<rscale>  0 0.64311041E+03</rscale>
<asrwt>0</asrwt>
<pdfrwt beam="1">0</pdfrwt>
<pdfrwt beam="2">  1        2 0.37599262E+00 0.64311041E+03</pdfrwt>
<totfact> 0.48930891E+00</totfact>
</mgrwt>
</event>
<event>
 5    1  0.2343702E-004  0.6498702E+03  0.7818608E-02  0.9807023E-01
         13   -1    0    0    0    0  0.00000000000E+00  0.00000000000E+00  0.10000000000E+04  0.10000000000E+04  0.00000000000E+00 0. -1.
          2   -1    0    0  501    0 -0.00000000000E+00 -0.00000000000E+00 -0.10558281887E+03  0.10558281887E+03  0.00000000000E+00 0. -1.
    9000006    2    1    2  501    0  0.00000000000E+00  0.00000000000E+00  0.89441718113E+03  0.11055828189E+04  0.64987019895E+03 0.  0.
         13    1    3    3    0    0  0.27616395752E+03 -0.12886335448E+03  0.25540957459E+03  0.39762588743E+03  0.00000000000E+00 0. -1.
          2    1    3    3  501    0 -0.27616395752E+03  0.12886335448E+03  0.63900760654E+03  0.70795693145E+03  0.00000000000E+00 0. -1.
<mgrwt>
<rscale>  0 0.64987020E+03</rscale>
<asrwt>0</asrwt>
<pdfrwt beam="1">0</pdfrwt>
<pdfrwt beam="2">  1        2 0.38393833E+00 0.64987020E+03</pdfrwt>
<totfact> 0.45712953E+00</totfact>
</mgrwt>
</event>
