<event>
 6    1  0.3786369E-003  0.6433043E+03  0.7818608E-02  0.9819425E-01
          1   -1    0    0  502    0  0.00000000000E+00  0.00000000000E+00  0.10366847469E+03  0.10366847469E+03  0.00000000000E+00 0.  1.
         13   -1    0    0    0    0 -0.00000000000E+00 -0.00000000000E+00 -0.10000000000E+04  0.10000000000E+04  0.00000000000E+00 0.  1.
    9000005    2    1    2  501    0 -0.46630662917E-01  0.24078984808E-01 -0.89653625380E+03  0.11034571267E+04  0.64330426186E+03 0.  0.
         13    1    3    3    0    0 -0.17299303976E+02 -0.31963878330E+03 -0.39441954161E+03  0.50797144852E+03  0.00000000000E+00 0.  1.
          3    1    3    3  501    0  0.17252673313E+02  0.31966286228E+03 -0.50211671219E+03  0.59548567818E+03  0.00000000000E+00 0.  1.
         21    1    1    2  502  501  0.46630662917E-01 -0.24078984808E-01  0.20472849593E+00  0.21134799095E+00  0.00000000000E+00 0. -1.
<mgrwt>
<rscale>  1 0.64330426E+03</rscale>
<asrwt>0</asrwt>
<pdfrwt beam="1">  1        1 0.37697707E+00 0.64330426E+03</pdfrwt>
<pdfrwt beam="2">0</pdfrwt>
<totfact> 0.16941955E+00</totfact>
</mgrwt>
</event>
<event>
 6    1  0.3786369E-003  0.6289771E+03  0.7818608E-02  0.9847047E-01
          3   -1    0    0  502    0  0.00000000000E+00  0.00000000000E+00  0.98921753167E+02  0.98921753167E+02  0.00000000000E+00 0.  1.
         13   -1    0    0    0    0 -0.00000000000E+00 -0.00000000000E+00 -0.10000000000E+04  0.10000000000E+04  0.00000000000E+00 0.  1.
    9000005    2    1    2  501    0  0.23097438009E-01 -0.37165065854E-01 -0.90106337008E+03  0.10988755357E+04  0.62897714125E+03 0.  0.
         13    1    3    3    0    0  0.63145670824E+02  0.29589821318E+02  0.85228472292E+02  0.11012186776E+03  0.00000000000E+00 0.  1.
          3    1    3    3  501    0 -0.63122573386E+02 -0.29626986384E+02 -0.98629184237E+03  0.98875366797E+03  0.00000000000E+00 0.  1.
         21    1    1    2  502  501 -0.23097438009E-01  0.37165065854E-01 -0.14876752620E-01  0.46217437521E-01  0.00000000000E+00 0.  1.
<mgrwt>
<rscale>  1 0.62897714E+03</rscale>
<asrwt>0</asrwt>
<pdfrwt beam="1">  1        3 0.35971622E+00 0.62897714E+03</pdfrwt>
<pdfrwt beam="2">0</pdfrwt>
<totfact> 0.97002672E-02</totfact>
</mgrwt>
</event>
<event>
 6    1  0.3786369E-003  0.6541131E+03  0.7818608E-02  0.9799092E-01
          1   -1    0    0  502    0  0.00000000000E+00  0.00000000000E+00  0.10701263602E+03  0.10701263602E+03  0.00000000000E+00 0.  1.
         13   -1    0    0    0    0 -0.00000000000E+00 -0.00000000000E+00 -0.10000000000E+04  0.10000000000E+04  0.00000000000E+00 0.  1.
    9000005    2    1    2  501    0 -0.62998268970E-03  0.10069115207E-01 -0.89303341534E+03  0.11069654925E+04  0.65411307933E+03 0.  0.
         13    1    3    3    0    0  0.29347058716E+03  0.24764419326E+02 -0.68720536866E+03  0.74765599089E+03  0.00000000000E+00 0.  1.
          1    1    3    3  501    0 -0.29347121714E+03 -0.24754350211E+02 -0.20582804668E+03  0.35930950161E+03  0.00000000000E+00 0.  1.
         21    1    1    2  502  501  0.62998268971E-03 -0.10069115207E-01  0.46051366505E-01  0.47143528890E-01  0.00000000000E+00 0. -1.
<mgrwt>
<rscale>  1 0.65411308E+03</rscale>
<asrwt>0</asrwt>
<pdfrwt beam="1">  1        1 0.38913768E+00 0.65411308E+03</pdfrwt>
<pdfrwt beam="2">0</pdfrwt>
<totfact> 0.14940337E+00</totfact>
</mgrwt>
</event>
<event>
 6    1  0.3786369E-003  0.6559031E+03  0.7818608E-02  0.9795765E-01
          1   -1    0    0  502    0  0.00000000000E+00  0.00000000000E+00  0.10767216689E+03  0.10767216689E+03  0.00000000000E+00 0.  1.
         13   -1    0    0    0    0 -0.00000000000E+00 -0.00000000000E+00 -0.10000000000E+04  0.10000000000E+04  0.00000000000E+00 0.  1.
    9000005    2    1    2  501    0  0.12785755119E-02  0.13153021901E-02 -0.89244778130E+03  0.11075522047E+04  0.65590307495E+03 0.  0.
         13    1    3    3    0    0 -0.20169559060E+03  0.24266690389E+03 -0.59710448756E+03  0.67535331981E+03  0.00000000000E+00 0.  1.
          1    1    3    3  501    0  0.20169686917E+03 -0.24266558859E+03 -0.29534329374E+03  0.43219888486E+03  0.00000000000E+00 0.  1.
         21    1    1    2  502  501 -0.12785755119E-02 -0.13153021901E-02  0.11994819141E+00  0.11996221654E+00  0.00000000000E+00 0.  1.
<mgrwt>
<rscale>  1 0.65590307E+03</rscale>
<asrwt>0</asrwt>
<pdfrwt beam="1">  1        1 0.39153598E+00 0.65590307E+03</pdfrwt>
<pdfrwt beam="2">0</pdfrwt>
<totfact> 0.14573987E+00</totfact>
</mgrwt>
</event>
<event>
 6    1  0.3786369E-003  0.6584749E+03  0.7818608E-02  0.9791005E-01
          1   -1    0    0  502    0  0.00000000000E+00  0.00000000000E+00  0.10840061814E+03  0.10840061814E+03  0.00000000000E+00 0.  1.
         13   -1    0    0    0    0 -0.00000000000E+00 -0.00000000000E+00 -0.10000000000E+04  0.10000000000E+04  0.00000000000E+00 0.  1.
    9000005    2    1    2  501    0  0.30749275729E-03  0.53391160627E-03 -0.89160266717E+03  0.11083972756E+04  0.65847490791E+03 0.  0.
         13    1    3    3    0    0  0.17662783756E+03  0.12592729339E+03 -0.28897248029E+02  0.21883813005E+03  0.00000000000E+00 0.  1.
          3    1    3    3  501    0 -0.17662753006E+03 -0.12592675948E+03 -0.86270541914E+03  0.88955914550E+03  0.00000000000E+00 0.  1.
         21    1    1    2  502  501 -0.30749275727E-03 -0.53391160627E-03  0.32853160757E-02  0.33425910782E-02  0.00000000000E+00 0.  1.
<mgrwt>
<rscale>  1 0.65847491E+03</rscale>
<asrwt>0</asrwt>
<pdfrwt beam="1">  1        1 0.39418490E+00 0.65847491E+03</pdfrwt>
<pdfrwt beam="2">0</pdfrwt>
<totfact> 0.14177684E+00</totfact>
</mgrwt>
</event>
<event>
 6    1  0.3786369E-003  0.6549394E+03  0.7818608E-02  0.9797555E-01
          1   -1    0    0  502    0  0.00000000000E+00  0.00000000000E+00  0.10723641233E+03  0.10723641233E+03  0.00000000000E+00 0.  1.
         13   -1    0    0    0    0 -0.00000000000E+00 -0.00000000000E+00 -0.10000000000E+04  0.10000000000E+04  0.00000000000E+00 0.  1.
    9000005    2    1    2  501    0  0.91178223727E-06  0.59758891666E-05 -0.89276359714E+03  0.11072364011E+04  0.65493939227E+03 0.  0.
         13    1    3    3    0    0  0.63658308621E+02 -0.31411896062E+03 -0.55995771551E+03  0.64519434656E+03  0.00000000000E+00 0.  1.
          1    1    3    3  501    0 -0.63658307709E+02  0.31411896659E+03 -0.33280588163E+03  0.46204205454E+03  0.00000000000E+00 0.  1.
         21    1    1    2  502  501 -0.91178223908E-06 -0.59758892093E-05  0.94633236167E-05  0.11229296174E-04  0.00000000000E+00 0.  1.
<mgrwt>
<rscale>  1 0.65493939E+03</rscale>
<asrwt>0</asrwt>
<pdfrwt beam="1">  1        1 0.38995141E+00 0.65493939E+03</pdfrwt>
<pdfrwt beam="2">0</pdfrwt>
<totfact> 0.14814467E+00</totfact>
</mgrwt>
</event>
<event>
 6    1  0.4650412E-003  0.6596703E+03  0.7818608E-02  0.9788801E-01
          1   -1    0    0  502    0  0.00000000000E+00  0.00000000000E+00  0.10879122867E+03  0.10879122867E+03  0.00000000000E+00 0.  1.
         13   -1    0    0    0    0 -0.00000000000E+00 -0.00000000000E+00 -0.10000000000E+04  0.10000000000E+04  0.00000000000E+00 0.  1.
    9000005    2    1    2  501    0  0.14917751400E-04 -0.25299390302E-04 -0.89120872722E+03  0.11087911757E+04  0.65967027809E+03 0.  0.
         13    1    3    3    0    0  0.21136211014E+03  0.25067711421E+03 -0.38551020657E+03  0.50609394045E+03  0.00000000000E+00 0.  1.
          1    1    3    3  501    0 -0.21136209522E+03 -0.25067713951E+03 -0.50569852065E+03  0.60269723523E+03  0.00000000000E+00 0.  1.
         21    1    1    2  502  501 -0.14917751388E-04  0.25299390300E-04 -0.44102112327E-04  0.52986741433E-04  0.00000000000E+00 0. -1.
<mgrwt>
<rscale>  1 0.65967028E+03</rscale>
<asrwt>0</asrwt>
<pdfrwt beam="1">  1        1 0.39560530E+00 0.65967028E+03</pdfrwt>
<pdfrwt beam="2">0</pdfrwt>
<totfact> 0.13969881E+00</totfact>
</mgrwt>
</event>
<event>
 6    1  0.3786369E-003  0.5900192E+03  0.7818608E-02  0.9926332E-01
          1   -1    0    0  502    0  0.00000000000E+00  0.00000000000E+00  0.87037535003E+02  0.87037535003E+02  0.00000000000E+00 0.  1.
         13   -1    0    0    0    0 -0.00000000000E+00 -0.00000000000E+00 -0.10000000000E+04  0.10000000000E+04  0.00000000000E+00 0.  1.
    9000005    2    1    2  501    0 -0.12760827613E-03 -0.49546104769E-03 -0.91296933331E+03  0.10870306477E+04  0.59001917374E+03 0.  0.
         13    1    3    3    0    0  0.20798505686E+03  0.97511109487E+02 -0.11545091724E+03  0.25708970155E+03  0.00000000000E+00 0.  1.
          3    1    3    3  501    0 -0.20798518447E+03 -0.97511604948E+02 -0.79751841607E+03  0.82994094611E+03  0.00000000000E+00 0.  1.
         21    1    1    2  502  501  0.12760827615E-03  0.49546104770E-03  0.68683147528E-02  0.68873444132E-02  0.00000000000E+00 0.  1.
<mgrwt>
<rscale>  1 0.59001917E+03</rscale>
<asrwt>0</asrwt>
<pdfrwt beam="1">  1        1 0.31650079E+00 0.59001917E+03</pdfrwt>
<pdfrwt beam="2">0</pdfrwt>
<totfact> 0.31372164E+00</totfact>
</mgrwt>
</event>
<event>
 6    1  0.3786369E-003  0.6453116E+03  0.7818608E-02  0.9815617E-01
          1   -1    0    0  502    0  0.00000000000E+00  0.00000000000E+00  0.10420389143E+03  0.10420389143E+03  0.00000000000E+00 0.  1.
         13   -1    0    0    0    0 -0.00000000000E+00 -0.00000000000E+00 -0.10000000000E+04  0.10000000000E+04  0.00000000000E+00 0.  1.
    9000005    2    1    2  501    0  0.33196047317E-02 -0.56013262103E-02 -0.89589312860E+03  0.11041066532E+04  0.64531155547E+03 0.  0.
         13    1    3    3    0    0  0.14286955276E+03  0.93965595402E+02  0.20200632950E+02  0.17218974358E+03  0.00000000000E+00 0.  1.
          1    1    3    3  501    0 -0.14286623315E+03 -0.93971196729E+02 -0.91609376155E+03  0.93191690957E+03  0.00000000000E+00 0.  1.
         21    1    1    2  502  501 -0.33196047317E-02  0.56013262103E-02  0.97020032081E-01  0.97238270531E-01  0.00000000000E+00 0.  1.
<mgrwt>
<rscale>  1 0.64531156E+03</rscale>
<asrwt>0</asrwt>
<pdfrwt beam="1">  1        1 0.37892404E+00 0.64531156E+03</pdfrwt>
<pdfrwt beam="2">0</pdfrwt>
<totfact> 0.16604340E+00</totfact>
</mgrwt>
</event>
<event>
 6    1  0.3786369E-003  0.6442504E+03  0.7818608E-02  0.9817628E-01
          1   -1    0    0  502    0  0.00000000000E+00  0.00000000000E+00  0.10383752729E+03  0.10383752729E+03  0.00000000000E+00 0.  1.
         13   -1    0    0    0    0 -0.00000000000E+00 -0.00000000000E+00 -0.10000000000E+04  0.10000000000E+04  0.00000000000E+00 0.  1.
    9000005    2    1    2  501    0  0.48634650813E-01 -0.10069465805E-01 -0.89622589054E+03  0.11037569758E+04  0.64425042667E+03 0.  0.
         13    1    3    3    0    0 -0.56671592728E+02  0.11186606361E+03 -0.95643560787E+03  0.96462156187E+03  0.00000000000E+00 0.  1.
          3    1    3    3  501    0  0.56720227379E+02 -0.11187613307E+03  0.60209717335E+02  0.13913541392E+03  0.00000000000E+00 0.  1.
         21    1    1    2  502  501 -0.48634650813E-01  0.10069465805E-01  0.63417830880E-01  0.80551503244E-01  0.00000000000E+00 0.  1.
<mgrwt>
<rscale>  1 0.64425043E+03</rscale>
<asrwt>0</asrwt>
<pdfrwt beam="1">  1        1 0.37759180E+00 0.64425043E+03</pdfrwt>
<pdfrwt beam="2">0</pdfrwt>
<totfact> 0.16833691E+00</totfact>
</mgrwt>
</event>
<event>
 6    1  0.3786369E-003  0.6573295E+03  0.7818608E-02  0.9793122E-01
          1   -1    0    0  502    0  0.00000000000E+00  0.00000000000E+00  0.11361003810E+03  0.11361003810E+03  0.00000000000E+00 0.  1.
         13   -1    0    0    0    0 -0.00000000000E+00 -0.00000000000E+00 -0.10000000000E+04  0.10000000000E+04  0.00000000000E+00 0.  1.
    9000005    2    1    2  501    0  0.15111801979E+02 -0.41210721019E+01 -0.87421873939E+03  0.10937734948E+04  0.65714283359E+03 0.  0.
         13    1    3    3    0    0  0.14052861933E+03  0.25205164514E+03 -0.70584430397E+03  0.76255787067E+03  0.00000000000E+00 0.  1.
          3    1    3    3  501    0 -0.12541681736E+03 -0.25617271724E+03 -0.16837443542E+03  0.33121562409E+03  0.00000000000E+00 0.  1.
         21    1    1    2  502  501 -0.15111801979E+02  0.41210721019E+01 -0.12171222516E+02  0.19836543344E+02  0.00000000000E+00 0.  1.
<mgrwt>
<rscale>  1 0.65732949E+03</rscale>
<asrwt>0</asrwt>
<pdfrwt beam="1">  1        1 0.41312828E+00 0.65732949E+03</pdfrwt>
<pdfrwt beam="2">0</pdfrwt>
<totfact> 0.11669806E+00</totfact>
</mgrwt>
</event>
<event>
 6    1  0.3786369E-003  0.6405577E+03  0.7818608E-02  0.9824660E-01
          1   -1    0    0  502    0  0.00000000000E+00  0.00000000000E+00  0.10257905470E+03  0.10257905470E+03  0.00000000000E+00 0.  1.
         13   -1    0    0    0    0 -0.00000000000E+00 -0.00000000000E+00 -0.10000000000E+04  0.10000000000E+04  0.00000000000E+00 0.  1.
    9000005    2    1    2  501    0 -0.20015073419E-03  0.65515110386E-04 -0.89742144014E+03  0.11025785169E+04  0.64055768260E+03 0.  0.
         13    1    3    3    0    0 -0.10733262651E+03  0.53318755274E+02 -0.95994913535E+03  0.96740142901E+03  0.00000000000E+00 0.  1.
          1    1    3    3  501    0  0.10733242636E+03 -0.53318689759E+02  0.62527695215E+02  0.13517708791E+03  0.00000000000E+00 0.  1.
         21    1    1    2  502  501  0.20015073419E-03 -0.65515110386E-04  0.49484183903E-03  0.53779270332E-03  0.00000000000E+00 0.  1.
<mgrwt>
<rscale>  1 0.64055768E+03</rscale>
<asrwt>0</asrwt>
<pdfrwt beam="1">  1        1 0.37301553E+00 0.64055768E+03</pdfrwt>
<pdfrwt beam="2">0</pdfrwt>
<totfact> 0.17644916E+00</totfact>
</mgrwt>
</event>
<event>
 6    1  0.3786369E-003  0.6499667E+03  0.7818608E-02  0.9806842E-01
          1   -1    0    0  502    0  0.00000000000E+00  0.00000000000E+00  0.12863731107E+03  0.12863731107E+03  0.00000000000E+00 0.  1.
         13   -1    0    0    0    0 -0.00000000000E+00 -0.00000000000E+00 -0.10000000000E+04  0.10000000000E+04  0.00000000000E+00 0.  1.
    9000005    2    1    2  501    0 -0.34959410666E+02 -0.41929040929E+02 -0.84997338023E+03  0.10700053454E+04  0.64767004508E+03 0.  0.
         13    1    3    3    0    0 -0.18609715386E+02 -0.21612323642E+03 -0.15597303667E+02  0.21748298947E+03  0.00000000000E+00 0.  1.
          3    1    3    3  501    0 -0.16349695280E+02  0.17419419549E+03 -0.83437607656E+03  0.85252235597E+03  0.00000000000E+00 0.  1.
         21    1    1    2  502  501  0.34959410666E+02  0.41929040929E+02 -0.21389308698E+02  0.58631965632E+02  0.00000000000E+00 0.  1.
<mgrwt>
<rscale>  1 0.64996669E+03</rscale>
<asrwt>0</asrwt>
<pdfrwt beam="1">  1        1 0.46777303E+00 0.64996669E+03</pdfrwt>
<pdfrwt beam="2">0</pdfrwt>
<totfact> 0.65715792E-01</totfact>
</mgrwt>
</event>
<event>
 6    1  0.3786369E-003  0.6551097E+03  0.7818608E-02  0.9797238E-01
          1   -1    0    0  502    0  0.00000000000E+00  0.00000000000E+00  0.10729222572E+03  0.10729222572E+03  0.00000000000E+00 0.  1.
         13   -1    0    0    0    0 -0.00000000000E+00 -0.00000000000E+00 -0.10000000000E+04  0.10000000000E+04  0.00000000000E+00 0.  1.
    9000005    2    1    2  501    0 -0.12922763926E-03 -0.26828939438E-04 -0.89270770252E+03  0.11072920755E+04  0.65510968419E+03 0.  0.
         13    1    3    3    0    0 -0.18255239640E+03 -0.92346266161E+01  0.13072713327E+02  0.18325269873E+03  0.00000000000E+00 0.  1.
          1    1    3    3  501    0  0.18255226717E+03  0.92345997872E+01 -0.90578041585E+03  0.92403937677E+03  0.00000000000E+00 0.  1.
         21    1    1    2  502  501  0.12922763924E-03  0.26828939440E-04 -0.71755496014E-04  0.15022791333E-03  0.00000000000E+00 0. -1.
<mgrwt>
<rscale>  1 0.65510968E+03</rscale>
<asrwt>0</asrwt>
<pdfrwt beam="1">  1        1 0.39015437E+00 0.65510968E+03</pdfrwt>
<pdfrwt beam="2">0</pdfrwt>
<totfact> 0.14783328E+00</totfact>
</mgrwt>
</event>
<event>
 6    1  0.3786369E-003  0.6486081E+03  0.7818608E-02  0.9809395E-01
          1   -1    0    0  502    0  0.00000000000E+00  0.00000000000E+00  0.14448732414E+03  0.14448732414E+03  0.00000000000E+00 0.  1.
         13   -1    0    0    0    0 -0.00000000000E+00 -0.00000000000E+00 -0.10000000000E+04  0.10000000000E+04  0.00000000000E+00 0.  1.
    9000005    2    1    2  501    0 -0.48535737521E+00 -0.59819704892E+00 -0.89482272782E+03  0.11051697251E+04  0.64860759600E+03 0.  0.
         13    1    3    3    0    0  0.19094038844E+02 -0.28529022947E+03 -0.18610999214E+03  0.34116275665E+03  0.00000000000E+00 0.  1.
          1    1    3    3  501    0 -0.19579396219E+02  0.28469203243E+03 -0.70871273568E+03  0.76400696842E+03  0.00000000000E+00 0.  1.
         21    1    1    2  502  501  0.48535737521E+00  0.59819704892E+00  0.39310051962E+02  0.39317599071E+02  0.00000000000E+00 0.  1.
<mgrwt>
<rscale>  1 0.64860805E+03</rscale>
<asrwt>0</asrwt>
<pdfrwt beam="1">  1        1 0.52540956E+00 0.64860805E+03</pdfrwt>
<pdfrwt beam="2">0</pdfrwt>
<totfact> 0.34779985E-01</totfact>
</mgrwt>
</event>
<event>
 6    1  0.3786369E-003  0.6392936E+03  0.7818608E-02  0.9827079E-01
          1   -1    0    0  502    0  0.00000000000E+00  0.00000000000E+00  0.10417410786E+03  0.10417410786E+03  0.00000000000E+00 0.  1.
         13   -1    0    0    0    0 -0.00000000000E+00 -0.00000000000E+00 -0.10000000000E+04  0.10000000000E+04  0.00000000000E+00 0.  1.
    9000005    2    1    2  501    0  0.26657141903E-01  0.27376785850E-01 -0.89782571772E+03  0.11021739173E+04  0.63929361252E+03 0.  0.
         13    1    3    3    0    0 -0.22502052564E+03  0.13448103044E+03 -0.13357923615E+03  0.29421556186E+03  0.00000000000E+00 0.  1.
          3    1    3    3  501    0  0.22504718278E+03 -0.13445365366E+03 -0.76424648157E+03  0.80795835540E+03  0.00000000000E+00 0.  1.
         21    1    1    2  502  501 -0.26657141903E-01 -0.27376785850E-01  0.19998255847E+01  0.20001906062E+01  0.00000000000E+00 0. -1.
<mgrwt>
<rscale>  1 0.63929361E+03</rscale>
<asrwt>0</asrwt>
<pdfrwt beam="1">  1        1 0.37881574E+00 0.63929361E+03</pdfrwt>
<pdfrwt beam="2">0</pdfrwt>
<totfact> 0.16641063E+00</totfact>
</mgrwt>
</event>
<event>
 6    1  0.3786369E-003  0.6536039E+03  0.7818608E-02  0.9800040E-01
          1   -1    0    0  502    0  0.00000000000E+00  0.00000000000E+00  0.10680025511E+03  0.10680025511E+03  0.00000000000E+00 0.  1.
         13   -1    0    0    0    0 -0.00000000000E+00 -0.00000000000E+00 -0.10000000000E+04  0.10000000000E+04  0.00000000000E+00 0.  1.
    9000005    2    1    2  501    0  0.22570256806E-03 -0.17408673611E-03 -0.89320046345E+03  0.11067994821E+04  0.65360387517E+03 0.  0.
         13    1    3    3    0    0  0.30052285249E+03  0.21683159019E+02 -0.66090106049E+03  0.72634313930E+03  0.00000000000E+00 0.  1.
          3    1    3    3  501    0 -0.30052262679E+03 -0.21683333106E+02 -0.23229940296E+03  0.38045634278E+03  0.00000000000E+00 0.  1.
         21    1    1    2  502  501 -0.22570256806E-03  0.17408673610E-03  0.71855893780E-03  0.77302961652E-03  0.00000000000E+00 0.  1.
<mgrwt>
<rscale>  1 0.65360388E+03</rscale>
<asrwt>0</asrwt>
<pdfrwt beam="1">  1        1 0.38836538E+00 0.65360388E+03</pdfrwt>
<pdfrwt beam="2">0</pdfrwt>
<totfact> 0.15059969E+00</totfact>
</mgrwt>
</event>
<event>
 6    1  0.3786369E-003  0.6402434E+03  0.7818608E-02  0.9825261E-01
          1   -1    0    0  502    0  0.00000000000E+00  0.00000000000E+00  0.10338239402E+03  0.10338239402E+03  0.00000000000E+00 0.  1.
         13   -1    0    0    0    0 -0.00000000000E+00 -0.00000000000E+00 -0.10000000000E+04  0.10000000000E+04  0.00000000000E+00 0.  1.
    9000005    2    1    2  501    0 -0.97860579201E+00  0.76648384016E+00 -0.89702594182E+03  0.11020739962E+04  0.64024214762E+03 0.  0.
         13    1    3    3    0    0 -0.21928403494E+03  0.23405742168E+03 -0.45241495659E+03  0.55456979504E+03  0.00000000000E+00 0.  1.
          3    1    3    3  501    0  0.21830542915E+03 -0.23329093784E+03 -0.44461098522E+03  0.54750420113E+03  0.00000000000E+00 0.  1.
         21    1    1    2  502  501  0.97860579201E+00 -0.76648384016E+00  0.40833583633E+00  0.13083978480E+01  0.00000000000E+00 0. -1.
<mgrwt>
<rscale>  1 0.64024335E+03</rscale>
<asrwt>0</asrwt>
<pdfrwt beam="1">  1        1 0.37593677E+00 0.64024335E+03</pdfrwt>
<pdfrwt beam="2">0</pdfrwt>
<totfact> 0.17131270E+00</totfact>
</mgrwt>
</event>
<event>
 6    1  0.3786369E-003  0.6590649E+03  0.7818608E-02  0.9789917E-01
          1   -1    0    0  502    0  0.00000000000E+00  0.00000000000E+00  0.10925193884E+03  0.10925193884E+03  0.00000000000E+00 0.  1.
         13   -1    0    0    0    0 -0.00000000000E+00 -0.00000000000E+00 -0.10000000000E+04  0.10000000000E+04  0.00000000000E+00 0.  1.
    9000005    2    1    2  501    0 -0.75934698292E+00 -0.69822952067E+00 -0.89092737474E+03  0.11082049022E+04  0.65906407437E+03 0.  0.
         13    1    3    3    0    0  0.13312075046E+03  0.10582365897E+03  0.28991607496E+02  0.17251172223E+03  0.00000000000E+00 0.  1.
          1    1    3    3  501    0 -0.13388009744E+03 -0.10652188849E+03 -0.91991898224E+03  0.93569318000E+03  0.00000000000E+00 0.  1.
         21    1    1    2  502  501  0.75934698292E+00  0.69822952067E+00  0.17931358454E+00  0.10470366114E+01  0.00000000000E+00 0.  1.
<mgrwt>
<rscale>  1 0.65906488E+03</rscale>
<asrwt>0</asrwt>
<pdfrwt beam="1">  1        1 0.39728062E+00 0.65906488E+03</pdfrwt>
<pdfrwt beam="2">0</pdfrwt>
<totfact> 0.13733657E+00</totfact>
</mgrwt>
</event>
<event>
 6    1  0.3786369E-003  0.6557160E+03  0.7818608E-02  0.9796112E-01
          1   -1    0    0  502    0  0.00000000000E+00  0.00000000000E+00  0.11064740049E+03  0.11064740049E+03  0.00000000000E+00 0.  1.
         13   -1    0    0    0    0 -0.00000000000E+00 -0.00000000000E+00 -0.10000000000E+04  0.10000000000E+04  0.00000000000E+00 0.  1.
    9000005    2    1    2  501    0 -0.24856587295E+00  0.93958296878E-01 -0.89250294856E+03  0.11074858641E+04  0.65571591059E+03 0.  0.
         13    1    3    3    0    0  0.28193137317E+03 -0.15860655280E+03 -0.35727105768E+03  0.48195844886E+03  0.00000000000E+00 0.  1.
          3    1    3    3  501    0 -0.28217993904E+03  0.15870051109E+03 -0.53523189088E+03  0.62552741525E+03  0.00000000000E+00 0.  1.
         21    1    1    2  502  501  0.24856587295E+00 -0.93958296878E-01  0.31503490491E+01  0.31615363806E+01  0.00000000000E+00 0.  1.
<mgrwt>
<rscale>  1 0.65571596E+03</rscale>
<asrwt>0</asrwt>
<pdfrwt beam="1">  1        1 0.40235503E+00 0.65571596E+03</pdfrwt>
<pdfrwt beam="2">0</pdfrwt>
<totfact> 0.13044827E+00</totfact>
</mgrwt>
</event>
<event>
 6    1  0.3786369E-003  0.6532850E+03  0.7818608E-02  0.9800635E-01
          1   -1    0    0  502    0  0.00000000000E+00  0.00000000000E+00  0.10669533785E+03  0.10669533785E+03  0.00000000000E+00 0.  1.
         13   -1    0    0    0    0 -0.00000000000E+00 -0.00000000000E+00 -0.10000000000E+04  0.10000000000E+04  0.00000000000E+00 0.  1.
    9000005    2    1    2  501    0  0.31549625639E-04 -0.15118372460E-04 -0.89330467231E+03  0.11066953014E+04  0.65328497045E+03 0.  0.
         13    1    3    3    0    0  0.63955112989E+02 -0.10032498863E+03  0.68683138411E+02  0.13737806711E+03  0.00000000000E+00 0.  1.
          1    1    3    3  501    0 -0.63955081439E+02  0.10032497351E+03 -0.96198781072E+03  0.96931723431E+03  0.00000000000E+00 0.  1.
         21    1    1    2  502  501 -0.31549625641E-04  0.15118372460E-04  0.10156076687E-04  0.36429245911E-04  0.00000000000E+00 0. -1.
<mgrwt>
<rscale>  1 0.65328497E+03</rscale>
<asrwt>0</asrwt>
<pdfrwt beam="1">  1        1 0.38798386E+00 0.65328497E+03</pdfrwt>
<pdfrwt beam="2">0</pdfrwt>
<totfact> 0.15119591E+00</totfact>
</mgrwt>
</event>
<event>
 6    1  0.3786369E-003  0.6279493E+03  0.7818608E-02  0.9849059E-01
          1   -1    0    0  502    0  0.00000000000E+00  0.00000000000E+00  0.99056575896E+02  0.99056575896E+02  0.00000000000E+00 0.  1.
         13   -1    0    0    0    0 -0.00000000000E+00 -0.00000000000E+00 -0.10000000000E+04  0.10000000000E+04  0.00000000000E+00 0.  1.
    9000005    2    1    2  501    0  0.35340005414E-01 -0.16895573078E-01 -0.90141902917E+03  0.10985793605E+04  0.62794931610E+03 0.  0.
         13    1    3    3    0    0  0.20503250621E+03 -0.20594202218E+03 -0.24269866611E+03  0.37861997786E+03  0.00000000000E+00 0.  1.
          1    1    3    3  501    0 -0.20499716620E+03  0.20592512661E+03 -0.65872036306E+03  0.71995938262E+03  0.00000000000E+00 0.  1.
         21    1    1    2  502  501 -0.35340005414E-01  0.16895573078E-01  0.47560506297E+00  0.47721541498E+00  0.00000000000E+00 0. -1.
<mgrwt>
<rscale>  1 0.62794932E+03</rscale>
<asrwt>0</asrwt>
<pdfrwt beam="1">  1        1 0.36020649E+00 0.62794932E+03</pdfrwt>
<pdfrwt beam="2">0</pdfrwt>
<totfact> 0.20127390E+00</totfact>
</mgrwt>
</event>
<event>
 6    1  0.3786369E-003  0.6301989E+03  0.7818608E-02  0.9844661E-01
          1   -1    0    0  502    0  0.00000000000E+00  0.00000000000E+00  0.99302126443E+02  0.99302126443E+02  0.00000000000E+00 0.  1.
         13   -1    0    0    0    0 -0.00000000000E+00 -0.00000000000E+00 -0.10000000000E+04  0.10000000000E+04  0.00000000000E+00 0.  1.
    9000005    2    1    2  501    0 -0.19724250373E-01 -0.33516576900E-01 -0.90067474125E+03  0.10992568770E+04  0.63019892941E+03 0.  0.
         13    1    3    3    0    0 -0.10505019131E+02 -0.28726322923E+03 -0.22516915032E+03  0.36514608659E+03  0.00000000000E+00 0.  1.
          1    1    3    3  501    0  0.10485294881E+02  0.28722971266E+03 -0.67550559093E+03  0.73411079043E+03  0.00000000000E+00 0.  1.
         21    1    1    2  502  501  0.19724250373E-01  0.33516576900E-01 -0.23132308709E-01  0.45249427467E-01  0.00000000000E+00 0.  1.
<mgrwt>
<rscale>  1 0.63019893E+03</rscale>
<asrwt>0</asrwt>
<pdfrwt beam="1">  1        1 0.36109940E+00 0.63019893E+03</pdfrwt>
<pdfrwt beam="2">0</pdfrwt>
<totfact> 0.19939068E+00</totfact>
</mgrwt>
</event>
<event>
 6    1  0.3786369E-003  0.6738414E+03  0.7818608E-02  0.9763043E-01
          1   -1    0    0  502    0  0.00000000000E+00  0.00000000000E+00  0.11351639937E+03  0.11351639937E+03  0.00000000000E+00 0.  1.
         13   -1    0    0    0    0 -0.00000000000E+00 -0.00000000000E+00 -0.10000000000E+04  0.10000000000E+04  0.00000000000E+00 0.  1.
    9000005    2    1    2  501    0 -0.92139649922E-04 -0.19980934985E-03 -0.88648441563E+03  0.11135155552E+04  0.67384142979E+03 0.  0.
         13    1    3    3    0    0  0.87831461491E+02  0.21698091365E+03 -0.42806021117E+02  0.23796520326E+03  0.00000000000E+00 0.  1.
          3    1    3    3  501    0 -0.87831553631E+02 -0.21698111346E+03 -0.84367839451E+03  0.87555035194E+03  0.00000000000E+00 0.  1.
         21    1    1    2  502  501  0.92139649918E-04  0.19980934987E-03  0.81499664471E-03  0.84417594272E-03  0.00000000000E+00 0. -1.
<mgrwt>
<rscale>  1 0.67384143E+03</rscale>
<asrwt>0</asrwt>
<pdfrwt beam="1">  1        1 0.41278778E+00 0.67384143E+03</pdfrwt>
<pdfrwt beam="2">0</pdfrwt>
<totfact> 0.11674092E+00</totfact>
</mgrwt>
</event>
<event>
 6    1  0.3786369E-003  0.6309944E+03  0.7818608E-02  0.9843110E-01
          1   -1    0    0  502    0  0.00000000000E+00  0.00000000000E+00  0.99538721165E+02  0.99538721165E+02  0.00000000000E+00 0.  1.
         13   -1    0    0    0    0 -0.00000000000E+00 -0.00000000000E+00 -0.10000000000E+04  0.10000000000E+04  0.00000000000E+00 0.  1.
    9000005    2    1    2  501    0 -0.11517382040E-03 -0.13670959333E-05 -0.90046150485E+03  0.10995384675E+04  0.63099438964E+03 0.  0.
         13    1    3    3    0    0 -0.13457964254E+02  0.30415334847E+03 -0.30602913754E+03  0.43167604660E+03  0.00000000000E+00 0.  1.
          3    1    3    3  501    0  0.13457849080E+02 -0.30415334984E+03 -0.59443236732E+03  0.66786242089E+03  0.00000000000E+00 0.  1.
         21    1    1    2  502  501  0.11517382040E-03  0.13670959130E-05  0.22602008099E-03  0.25367687098E-03  0.00000000000E+00 0.  1.
<mgrwt>
<rscale>  1 0.63099439E+03</rscale>
<asrwt>0</asrwt>
<pdfrwt beam="1">  1        1 0.36195975E+00 0.63099439E+03</pdfrwt>
<pdfrwt beam="2">0</pdfrwt>
<totfact> 0.19764118E+00</totfact>
</mgrwt>
</event>
<event>
 6    1  0.3786369E-003  0.6449145E+03  0.7818608E-02  0.9816369E-01
          1   -1    0    0  502    0  0.00000000000E+00  0.00000000000E+00  0.11727037189E+03  0.11727037189E+03  0.00000000000E+00 0.  1.
         13   -1    0    0    0    0 -0.00000000000E+00 -0.00000000000E+00 -0.10000000000E+04  0.10000000000E+04  0.00000000000E+00 0.  1.
    9000005    2    1    2  501    0  0.16315219523E+01 -0.30901721640E+02 -0.87188452830E+03  0.10844802140E+04  0.64417165850E+03 0.  0.
         13    1    3    3    0    0 -0.22824292331E+03  0.20778675042E+02 -0.56932199339E+02  0.23615219816E+03  0.00000000000E+00 0.  1.
          3    1    3    3  501    0  0.22987444526E+03 -0.51680396682E+02 -0.81495232896E+03  0.84832801585E+03  0.00000000000E+00 0.  1.
         21    1    1    2  502  501 -0.16315219523E+01  0.30901721640E+02 -0.10845099805E+02  0.32790157882E+02  0.00000000000E+00 0.  1.
<mgrwt>
<rscale>  1 0.64491449E+03</rscale>
<asrwt>0</asrwt>
<pdfrwt beam="1">  1        1 0.42643862E+00 0.64491449E+03</pdfrwt>
<pdfrwt beam="2">0</pdfrwt>
<totfact> 0.10188302E+00</totfact>
</mgrwt>
</event>
<event>
 6    1  0.3786369E-003  0.6514464E+03  0.7818608E-02  0.9804069E-01
          1   -1    0    0  502    0  0.00000000000E+00  0.00000000000E+00  0.10609640504E+03  0.10609640504E+03  0.00000000000E+00 0.  1.
         13   -1    0    0    0    0 -0.00000000000E+00 -0.00000000000E+00 -0.10000000000E+04  0.10000000000E+04  0.00000000000E+00 0.  1.
    9000005    2    1    2  501    0  0.34889149539E-04  0.46938176808E-04 -0.89390439947E+03  0.11060955984E+04  0.65144638874E+03 0.  0.
         13    1    3    3    0    0 -0.63764420162E+02  0.31798454148E+03 -0.39557707031E+03  0.51152838480E+03  0.00000000000E+00 0.  1.
          1    1    3    3  501    0  0.63764455051E+02 -0.31798449455E+03 -0.49832732917E+03  0.59456721361E+03  0.00000000000E+00 0.  1.
         21    1    1    2  502  501 -0.34889149542E-04 -0.46938176842E-04  0.80451681509E-03  0.80663979010E-03  0.00000000000E+00 0. -1.
<mgrwt>
<rscale>  1 0.65144639E+03</rscale>
<asrwt>0</asrwt>
<pdfrwt beam="1">  1        1 0.38580592E+00 0.65144639E+03</pdfrwt>
<pdfrwt beam="2">0</pdfrwt>
<totfact> 0.15464316E+00</totfact>
</mgrwt>
</event>
<event>
 6    1  0.3786369E-003  0.6325279E+03  0.7818608E-02  0.9840128E-01
          1   -1    0    0  502    0  0.00000000000E+00  0.00000000000E+00  0.10005230673E+03  0.10005230673E+03  0.00000000000E+00 0.  1.
         13   -1    0    0    0    0 -0.00000000000E+00 -0.00000000000E+00 -0.10000000000E+04  0.10000000000E+04  0.00000000000E+00 0.  1.
    9000005    2    1    2  501    0  0.10980553930E-02  0.18732372320E-03 -0.89997710070E+03  0.11000228782E+04  0.63252790516E+03 0.  0.
         13    1    3    3    0    0 -0.84564872607E+02 -0.30474123578E+03 -0.44638225497E+03  0.54706083393E+03  0.00000000000E+00 0.  1.
          3    1    3    3  501    0  0.84565970663E+02  0.30474142311E+03 -0.45359484573E+03  0.55296204429E+03  0.00000000000E+00 0.  1.
         21    1    1    2  502  501 -0.10980553930E-02 -0.18732372319E-03  0.29407431008E-01  0.29428520423E-01  0.00000000000E+00 0.  1.
<mgrwt>
<rscale>  1 0.63252791E+03</rscale>
<asrwt>0</asrwt>
<pdfrwt beam="1">  1        1 0.36382734E+00 0.63252791E+03</pdfrwt>
<pdfrwt beam="2">0</pdfrwt>
<totfact> 0.19390080E+00</totfact>
</mgrwt>
</event>
<event>
 6    1  0.3786369E-003  0.6471140E+03  0.7818608E-02  0.9812210E-01
          1   -1    0    0  502    0  0.00000000000E+00  0.00000000000E+00  0.10510040572E+03  0.10510040572E+03  0.00000000000E+00 0.  1.
         13   -1    0    0    0    0 -0.00000000000E+00 -0.00000000000E+00 -0.10000000000E+04  0.10000000000E+04  0.00000000000E+00 0.  1.
    9000005    2    1    2  501    0 -0.14391567440E-01  0.24278905490E-01 -0.89531033270E+03  0.11046886987E+04  0.64711399963E+03 0.  0.
         13    1    3    3    0    0 -0.24002223002E+03  0.29393512975E+02 -0.81466549707E+03  0.84979675313E+03  0.00000000000E+00 0.  1.
          1    1    3    3  501    0  0.24000783845E+03 -0.29369234069E+02 -0.80644835623E+02  0.25489194562E+03  0.00000000000E+00 0.  1.
         21    1    1    2  502  501  0.14391567440E-01 -0.24278905490E-01  0.41073841424E+00  0.41170696787E+00  0.00000000000E+00 0. -1.
<mgrwt>
<rscale>  1 0.64711400E+03</rscale>
<asrwt>0</asrwt>
<pdfrwt beam="1">  1        1 0.38218410E+00 0.64711400E+03</pdfrwt>
<pdfrwt beam="2">0</pdfrwt>
<totfact> 0.16057939E+00</totfact>
</mgrwt>
</event>
<event>
 6    1  0.3786369E-003  0.6239826E+03  0.7818608E-02  0.9856862E-01
          1   -1    0    0  502    0  0.00000000000E+00  0.00000000000E+00  0.97389316259E+02  0.97389316259E+02  0.00000000000E+00 0.  1.
         13   -1    0    0    0    0 -0.00000000000E+00 -0.00000000000E+00 -0.10000000000E+04  0.10000000000E+04  0.00000000000E+00 0.  1.
    9000005    2    1    2  501    0  0.28377553376E-02 -0.13337912744E-02 -0.90266138372E+03  0.10973385194E+04  0.62398257390E+03 0.  0.
         13    1    3    3    0    0 -0.19326313559E+03  0.95242511977E+02 -0.54507091136E+02  0.22224490692E+03  0.00000000000E+00 0.  1.
          1    1    3    3  501    0  0.19326597335E+03 -0.95243845769E+02 -0.84815429258E+03  0.87509361250E+03  0.00000000000E+00 0.  1.
         21    1    1    2  502  501 -0.28377553376E-02  0.13337912744E-02  0.50699975209E-01  0.50796843806E-01  0.00000000000E+00 0.  1.
<mgrwt>
<rscale>  1 0.62398257E+03</rscale>
<asrwt>0</asrwt>
<pdfrwt beam="1">  1        1 0.35414372E+00 0.62398257E+03</pdfrwt>
<pdfrwt beam="2">0</pdfrwt>
<totfact> 0.21408379E+00</totfact>
</mgrwt>
</event>
<event>
 6    1  0.3786369E-003  0.6616772E+03  0.7818608E-02  0.9785111E-01
          1   -1    0    0  502    0  0.00000000000E+00  0.00000000000E+00  0.10945430717E+03  0.10945430717E+03  0.00000000000E+00 0.  1.
         13   -1    0    0    0    0 -0.00000000000E+00 -0.00000000000E+00 -0.10000000000E+04  0.10000000000E+04  0.00000000000E+00 0.  1.
    9000005    2    1    2  501    0 -0.45665363672E-04 -0.84603670985E-05 -0.89054582267E+03  0.11094541693E+04  0.66167718068E+03 0.  0.
         13    1    3    3    0    0 -0.18862761448E+03 -0.20449850594E+03 -0.74546931801E+03  0.79569122150E+03  0.00000000000E+00 0.  1.
          3    1    3    3  501    0  0.18862756881E+03  0.20449849748E+03 -0.14507650466E+03  0.31376294777E+03  0.00000000000E+00 0.  1.
         21    1    1    2  502  501  0.45665363666E-04  0.84603670999E-05  0.12984477453E-03  0.13790057550E-03  0.00000000000E+00 0.  1.
<mgrwt>
<rscale>  1 0.66167718E+03</rscale>
<asrwt>0</asrwt>
<pdfrwt beam="1">  1        1 0.39801650E+00 0.66167718E+03</pdfrwt>
<pdfrwt beam="2">0</pdfrwt>
<totfact> 0.13623765E+00</totfact>
</mgrwt>
</event>
<event>
 6    1  0.3786369E-003  0.6578863E+03  0.7818608E-02  0.9792093E-01
          1   -1    0    0  502    0  0.00000000000E+00  0.00000000000E+00  0.10820449811E+03  0.10820449811E+03  0.00000000000E+00 0.  1.
         13   -1    0    0    0    0 -0.00000000000E+00 -0.00000000000E+00 -0.10000000000E+04  0.10000000000E+04  0.00000000000E+00 0.  1.
    9000005    2    1    2  501    0 -0.12009767072E-02  0.24053771954E-02 -0.89179225816E+03  0.11082002850E+04  0.65788634279E+03 0.  0.
         13    1    3    3    0    0  0.78533833540E+02  0.71848745888E+02  0.78392703291E+02  0.13219387741E+03  0.00000000000E+00 0.  1.
          1    1    3    3  501    0 -0.78535034517E+02 -0.71846340510E+02 -0.97018496145E+03  0.97600640762E+03  0.00000000000E+00 0.  1.
         21    1    1    2  502  501  0.12009767072E-02 -0.24053771954E-02 -0.32437290065E-02  0.42130704209E-02  0.00000000000E+00 0.  1.
<mgrwt>
<rscale>  1 0.65788634E+03</rscale>
<asrwt>0</asrwt>
<pdfrwt beam="1">  1        1 0.39347173E+00 0.65788634E+03</pdfrwt>
<pdfrwt beam="2">0</pdfrwt>
<totfact> 0.14283089E+00</totfact>
</mgrwt>
</event>
<event>
 6    1  0.3786369E-003  0.6434321E+03  0.7818608E-02  0.9819182E-01
          1   -1    0    0  502    0  0.00000000000E+00  0.00000000000E+00  0.10356303065E+03  0.10356303065E+03  0.00000000000E+00 0.  1.
         13   -1    0    0    0    0 -0.00000000000E+00 -0.00000000000E+00 -0.10000000000E+04  0.10000000000E+04  0.00000000000E+00 0.  1.
    9000005    2    1    2  501    0  0.66367619171E-01 -0.80978833510E-01 -0.89644552832E+03  0.11034579807E+04  0.64343214016E+03 0.  0.
         13    1    3    3    0    0 -0.17576072002E+03  0.19493302170E+03 -0.76708553789E+03  0.81074714683E+03  0.00000000000E+00 0.  1.
          3    1    3    3  501    0  0.17582708764E+03 -0.19501400053E+03 -0.12935999043E+03  0.29271083389E+03  0.00000000000E+00 0.  1.
         21    1    1    2  502  501 -0.66367619171E-01  0.80978833510E-01  0.85589665470E-02  0.10504993222E+00  0.00000000000E+00 0. -1.
<mgrwt>
<rscale>  1 0.64343215E+03</rscale>
<asrwt>0</asrwt>
<pdfrwt beam="1">  1        1 0.37659363E+00 0.64343215E+03</pdfrwt>
<pdfrwt beam="2">0</pdfrwt>
<totfact> 0.17007580E+00</totfact>
</mgrwt>
</event>
<event>
 6    1  0.3786369E-003  0.6502024E+03  0.7818608E-02  0.9806400E-01
          1   -1    0    0  502    0  0.00000000000E+00  0.00000000000E+00  0.10570322722E+03  0.10570322722E+03  0.00000000000E+00 0.  1.
         13   -1    0    0    0    0 -0.00000000000E+00 -0.00000000000E+00 -0.10000000000E+04  0.10000000000E+04  0.00000000000E+00 0.  1.
    9000005    2    1    2  501    0 -0.16371896219E-01  0.12927381787E-01 -0.89429870072E+03  0.11056822779E+04  0.65020237861E+03 0.  0.
         13    1    3    3    0    0 -0.18027621442E+03 -0.16777320062E+03 -0.86239057197E+02  0.26093013494E+03  0.00000000000E+00 0.  1.
          1    1    3    3  501    0  0.18025984253E+03  0.16778612800E+03 -0.80805964353E+03  0.84475214298E+03  0.00000000000E+00 0.  1.
         21    1    1    2  502  501  0.16371896219E-01 -0.12927381787E-01  0.19279392063E-02  0.20949299160E-01  0.00000000000E+00 0. -1.
<mgrwt>
<rscale>  1 0.65020238E+03</rscale>
<asrwt>0</asrwt>
<pdfrwt beam="1">  1        1 0.38437618E+00 0.65020238E+03</pdfrwt>
<pdfrwt beam="2">0</pdfrwt>
<totfact> 0.15694767E+00</totfact>
</mgrwt>
</event>
<event>
 6    1  0.3786369E-003  0.6486368E+03  0.7818608E-02  0.9809340E-01
          1   -1    0    0  502    0  0.00000000000E+00  0.00000000000E+00  0.10518276549E+03  0.10518276549E+03  0.00000000000E+00 0.  1.
         13   -1    0    0    0    0 -0.00000000000E+00 -0.00000000000E+00 -0.10000000000E+04  0.10000000000E+04  0.00000000000E+00 0.  1.
    9000005    2    1    2  501    0 -0.43760352447E-03 -0.13721808727E-04 -0.89481738858E+03  0.11051823014E+04  0.64863684779E+03 0.  0.
         13    1    3    3    0    0  0.48719941564E+02  0.22427338343E+03 -0.83784861659E+03  0.86871312155E+03  0.00000000000E+00 0.  1.
          3    1    3    3  501    0 -0.48720379168E+02 -0.22427339715E+03 -0.56968771992E+02  0.23646917981E+03  0.00000000000E+00 0.  1.
         21    1    1    2  502  501  0.43760352446E-03  0.13721808720E-04  0.15407901832E-03  0.46413950117E-03  0.00000000000E+00 0. -1.
<mgrwt>
<rscale>  1 0.64863685E+03</rscale>
<asrwt>0</asrwt>
<pdfrwt beam="1">  1        1 0.38248359E+00 0.64863685E+03</pdfrwt>
<pdfrwt beam="2">0</pdfrwt>
<totfact> 0.16004606E+00</totfact>
</mgrwt>
</event>
<event>
 6    1  0.3786369E-003  0.6669135E+03  0.7818608E-02  0.9775550E-01
          3   -1    0    0  502    0  0.00000000000E+00  0.00000000000E+00  0.11128285567E+03  0.11128285567E+03  0.00000000000E+00 0.  1.
         13   -1    0    0    0    0 -0.00000000000E+00 -0.00000000000E+00 -0.10000000000E+04  0.10000000000E+04  0.00000000000E+00 0.  1.
    9000005    2    1    2  501    0 -0.15827662103E-02 -0.53949171865E-03 -0.88880658594E+03  0.11111933984E+04  0.66691350377E+03 0.  0.
         13    1    3    3    0    0  0.23038736896E+03 -0.24029628800E+03 -0.41224418896E+03  0.52987349163E+03  0.00000000000E+00 0.  1.
          1    1    3    3  501    0 -0.23038895173E+03  0.24029574851E+03 -0.47656239698E+03  0.58131990680E+03  0.00000000000E+00 0.  1.
         21    1    1    2  502  501  0.15827662103E-02  0.53949171865E-03  0.89441609912E-01  0.89457239974E-01  0.00000000000E+00 0. -1.
<mgrwt>
<rscale>  1 0.66691350E+03</rscale>
<asrwt>0</asrwt>
<pdfrwt beam="1">  1        3 0.40466578E+00 0.66691350E+03</pdfrwt>
<pdfrwt beam="2">0</pdfrwt>
<totfact> 0.55838424E-02</totfact>
</mgrwt>
</event>
<event>
 6    1  0.3786369E-003  0.6507622E+03  0.7818608E-02  0.9805350E-01
          1   -1    0    0  502    0  0.00000000000E+00  0.00000000000E+00  0.10587462407E+03  0.10587462407E+03  0.00000000000E+00 0.  1.
         13   -1    0    0    0    0 -0.00000000000E+00 -0.00000000000E+00 -0.10000000000E+04  0.10000000000E+04  0.00000000000E+00 0.  1.
    9000005    2    1    2  501    0 -0.17518697214E-03  0.42749774764E-04 -0.89412713896E+03  0.11058728518E+04  0.65076218682E+03 0.  0.
         13    1    3    3    0    0 -0.18506777140E+03  0.26051275768E+03 -0.34291799521E+03  0.46873204324E+03  0.00000000000E+00 0.  1.
          3    1    3    3  501    0  0.18506759622E+03 -0.26051271493E+03 -0.55120914376E+03  0.63714080859E+03  0.00000000000E+00 0.  1.
         21    1    1    2  502  501  0.17518697213E-03 -0.42749774758E-04  0.17630300346E-02  0.17722282363E-02  0.00000000000E+00 0. -1.
<mgrwt>
<rscale>  1 0.65076219E+03</rscale>
<asrwt>0</asrwt>
<pdfrwt beam="1">  1        1 0.38499944E+00 0.65076219E+03</pdfrwt>
<pdfrwt beam="2">0</pdfrwt>
<totfact> 0.15593858E+00</totfact>
</mgrwt>
</event>
<event>
 6    1  0.3786369E-003  0.6632741E+03  0.7818608E-02  0.9782185E-01
          1   -1    0    0  502    0  0.00000000000E+00  0.00000000000E+00  0.10999726955E+03  0.10999726955E+03  0.00000000000E+00 0.  1.
         13   -1    0    0    0    0 -0.00000000000E+00 -0.00000000000E+00 -0.10000000000E+04  0.10000000000E+04  0.00000000000E+00 0.  1.
    9000005    2    1    2  501    0  0.57801635897E-02 -0.11187945880E-02 -0.89001617345E+03  0.11099825938E+04  0.66327412855E+03 0.  0.
         13    1    3    3    0    0 -0.24195418627E+02 -0.26116092736E+03 -0.78466026668E+03  0.82733438365E+03  0.00000000000E+00 0.  1.
          3    1    3    3  501    0  0.24201198791E+02  0.26115980857E+03 -0.10535590677E+03  0.28264821020E+03  0.00000000000E+00 0.  1.
         21    1    1    2  502  501 -0.57801635897E-02  0.11187945880E-02  0.13443001495E-01  0.14675703787E-01  0.00000000000E+00 0. -1.
<mgrwt>
<rscale>  1 0.66327413E+03</rscale>
<asrwt>0</asrwt>
<pdfrwt beam="1">  1        1 0.39999091E+00 0.66327413E+03</pdfrwt>
<pdfrwt beam="2">0</pdfrwt>
<totfact> 0.13346517E+00</totfact>
</mgrwt>
</event>
<event>
 6    1  0.3786369E-003  0.6264197E+03  0.7818608E-02  0.9852061E-01
          1   -1    0    0  502    0  0.00000000000E+00  0.00000000000E+00  0.98141727891E+02  0.98141727891E+02  0.00000000000E+00 0.  1.
         13   -1    0    0    0    0 -0.00000000000E+00 -0.00000000000E+00 -0.10000000000E+04  0.10000000000E+04  0.00000000000E+00 0.  1.
    9000005    2    1    2  501    0 -0.16414800732E-02  0.16181752590E-02 -0.90189955714E+03  0.10981003786E+04  0.62641969176E+03 0.  0.
         13    1    3    3    0    0 -0.11039350952E+03 -0.29031667582E+03 -0.38018390805E+03  0.49092800199E+03  0.00000000000E+00 0.  1.
          3    1    3    3  501    0  0.11039186804E+03  0.29031829399E+03 -0.52171564910E+03  0.60717237657E+03  0.00000000000E+00 0.  1.
         21    1    1    2  502  501  0.16414800732E-02 -0.16181752589E-02  0.41285033928E-01  0.41349328585E-01  0.00000000000E+00 0.  1.
<mgrwt>
<rscale>  1 0.62641969E+03</rscale>
<asrwt>0</asrwt>
<pdfrwt beam="1">  1        1 0.35687976E+00 0.62641969E+03</pdfrwt>
<pdfrwt beam="2">0</pdfrwt>
<totfact> 0.20818426E+00</totfact>
</mgrwt>
</event>
<event>
 6    1  0.3786369E-003  0.6638417E+03  0.7818608E-02  0.9781147E-01
          1   -1    0    0  502    0  0.00000000000E+00  0.00000000000E+00  0.11017152611E+03  0.11017152611E+03  0.00000000000E+00 0.  1.
         13   -1    0    0    0    0 -0.00000000000E+00 -0.00000000000E+00 -0.10000000000E+04  0.10000000000E+04  0.00000000000E+00 0.  1.
    9000005    2    1    2  501    0  0.97624644724E-05  0.12670663978E-04 -0.88982855092E+03  0.11101714474E+04  0.66384169246E+03 0.  0.
         13    1    3    3    0    0 -0.28871557410E+02  0.29150844712E+03 -0.70593230763E+03  0.76429782449E+03  0.00000000000E+00 0.  1.
          3    1    3    3  501    0  0.28871567173E+02 -0.29150843445E+03 -0.18389624330E+03  0.34587362294E+03  0.00000000000E+00 0.  1.
         21    1    1    2  502  501 -0.97624644699E-05 -0.12670663953E-04  0.77039401661E-04  0.78682404932E-04  0.00000000000E+00 0.  1.
<mgrwt>
<rscale>  1 0.66384169E+03</rscale>
<asrwt>0</asrwt>
<pdfrwt beam="1">  1        1 0.40062458E+00 0.66384169E+03</pdfrwt>
<pdfrwt beam="2">0</pdfrwt>
<totfact> 0.13258537E+00</totfact>
</mgrwt>
</event>
<event>
 6    1  0.3786369E-003  0.4648839E+03  0.7818608E-02  0.1023374E+00
          1   -1    0    0  502    0  0.00000000000E+00  0.00000000000E+00  0.54584967629E+02  0.54584967629E+02  0.00000000000E+00 0.  1.
         13   -1    0    0    0    0 -0.00000000000E+00 -0.00000000000E+00 -0.10000000000E+04  0.10000000000E+04  0.00000000000E+00 0.  1.
    9000005    2    1    2  501    0 -0.11276682439E+01 -0.48476834531E+00 -0.94520169705E+03  0.10533391153E+04  0.46488228307E+03 0.  0.
         13    1    3    3    0    0 -0.18668852701E+03  0.11063949800E+03 -0.28247330459E+03  0.35620902915E+03  0.00000000000E+00 0.  1.
          1    1    3    3  501    0  0.18556085877E+03 -0.11112426635E+03 -0.66272839246E+03  0.69713008618E+03  0.00000000000E+00 0.  1.
         21    1    1    2  502  501  0.11276682439E+01  0.48476834531E+00 -0.21333531645E+00  0.12458523083E+01  0.00000000000E+00 0.  1.
<mgrwt>
<rscale>  1 0.46488390E+03</rscale>
<asrwt>0</asrwt>
<pdfrwt beam="1">  1        1 0.19849121E+00 0.46488390E+03</pdfrwt>
<pdfrwt beam="2">0</pdfrwt>
<totfact> 0.10501549E+01</totfact>
</mgrwt>
</event>
<event>
 6    1  0.3786369E-003  0.6364969E+03  0.7818608E-02  0.9832452E-01
          1   -1    0    0  502    0  0.00000000000E+00  0.00000000000E+00  0.10128280094E+03  0.10128280094E+03  0.00000000000E+00 0.  1.
         13   -1    0    0    0    0 -0.00000000000E+00 -0.00000000000E+00 -0.10000000000E+04  0.10000000000E+04  0.00000000000E+00 0.  1.
    9000005    2    1    2  501    0 -0.35455965115E-04  0.73262658759E-04 -0.89871792403E+03  0.11012820714E+04  0.63649689226E+03 0.  0.
         13    1    3    3    0    0 -0.90216031717E+01 -0.31523352636E+03 -0.37537317363E+03  0.49026379118E+03  0.00000000000E+00 0.  1.
          3    1    3    3  501    0  0.90215677157E+01  0.31523359962E+03 -0.52334475040E+03  0.61101828024E+03  0.00000000000E+00 0.  1.
         21    1    1    2  502  501  0.35455965115E-04 -0.73262658799E-04  0.72496661322E-03  0.72952116688E-03  0.00000000000E+00 0.  1.
<mgrwt>
<rscale>  1 0.63649689E+03</rscale>
<asrwt>0</asrwt>
<pdfrwt beam="1">  1        1 0.36830187E+00 0.63649689E+03</pdfrwt>
<pdfrwt beam="2">0</pdfrwt>
<totfact> 0.18520334E+00</totfact>
</mgrwt>
</event>
<event>
 6    1  0.3786369E-003  0.6370653E+03  0.7818608E-02  0.9831358E-01
          1   -1    0    0  502    0  0.00000000000E+00  0.00000000000E+00  0.10146306828E+03  0.10146306828E+03  0.00000000000E+00 0.  1.
         13   -1    0    0    0    0 -0.00000000000E+00 -0.00000000000E+00 -0.10000000000E+04  0.10000000000E+04  0.00000000000E+00 0.  1.
    9000005    2    1    2  501    0  0.15640041482E-04  0.26522777148E-05 -0.89853693269E+03  0.11014630524E+04  0.63706533132E+03 0.  0.
         13    1    3    3    0    0 -0.23647432460E+03  0.10917040725E+03 -0.76630960830E+03  0.80936314457E+03  0.00000000000E+00 0.  1.
          1    1    3    3  501    0  0.23647434024E+03 -0.10917040460E+03 -0.13222732439E+03  0.29209990782E+03  0.00000000000E+00 0.  1.
         21    1    1    2  502  501 -0.15640041504E-04 -0.26522777203E-05  0.96659576085E-06  0.15892758813E-04  0.00000000000E+00 0. -1.
<mgrwt>
<rscale>  1 0.63706533E+03</rscale>
<asrwt>0</asrwt>
<pdfrwt beam="1">  1        1 0.36895739E+00 0.63706533E+03</pdfrwt>
<pdfrwt beam="2">0</pdfrwt>
<totfact> 0.18396140E+00</totfact>
</mgrwt>
</event>
<event>
 6    1  0.3786369E-003  0.6591431E+03  0.7818608E-02  0.9789772E-01
          1   -1    0    0  502    0  0.00000000000E+00  0.00000000000E+00  0.10862207863E+03  0.10862207863E+03  0.00000000000E+00 0.  1.
         13   -1    0    0    0    0 -0.00000000000E+00 -0.00000000000E+00 -0.10000000000E+04  0.10000000000E+04  0.00000000000E+00 0.  1.
    9000005    2    1    2  501    0  0.51647142251E-03 -0.11348281220E-02 -0.89138249515E+03  0.11086173380E+04  0.65914311750E+03 0.  0.
         13    1    3    3    0    0  0.20568466385E+03 -0.18146818973E+03 -0.13840036984E+03  0.30723207384E+03  0.00000000000E+00 0.  1.
          1    1    3    3  501    0 -0.20568414737E+03  0.18146705490E+03 -0.75298212531E+03  0.80138526411E+03  0.00000000000E+00 0.  1.
         21    1    1    2  502  501 -0.51647142251E-03  0.11348281221E-02  0.45737768539E-02  0.47406763553E-02  0.00000000000E+00 0.  1.
<mgrwt>
<rscale>  1 0.65914312E+03</rscale>
<asrwt>0</asrwt>
<pdfrwt beam="1">  1        1 0.39499021E+00 0.65914312E+03</pdfrwt>
<pdfrwt beam="2">0</pdfrwt>
<totfact> 0.14059537E+00</totfact>
</mgrwt>
</event>
<event>
 6    1  0.3786369E-003  0.6560567E+03  0.7818608E-02  0.9795480E-01
          1   -1    0    0  502    0  0.00000000000E+00  0.00000000000E+00  0.10760267420E+03  0.10760267420E+03  0.00000000000E+00 0.  1.
         13   -1    0    0    0    0 -0.00000000000E+00 -0.00000000000E+00 -0.10000000000E+04  0.10000000000E+04  0.00000000000E+00 0.  1.
    9000005    2    1    2  501    0  0.79629547884E-04 -0.87296232891E-05 -0.89239737456E+03  0.11076025804E+04  0.65605670642E+03 0.  0.
         13    1    3    3    0    0  0.17525597881E+03  0.25425156993E+03 -0.25938622765E+03  0.40328616889E+03  0.00000000000E+00 0.  1.
          3    1    3    3  501    0 -0.17525589918E+03 -0.25425157866E+03 -0.63301114691E+03  0.70431641154E+03  0.00000000000E+00 0.  1.
         21    1    1    2  502  501 -0.79629547883E-04  0.87296232951E-05  0.48760750882E-04  0.93779966120E-04  0.00000000000E+00 0. -1.
<mgrwt>
<rscale>  1 0.65605671E+03</rscale>
<asrwt>0</asrwt>
<pdfrwt beam="1">  1        1 0.39128328E+00 0.65605671E+03</pdfrwt>
<pdfrwt beam="2">0</pdfrwt>
<totfact> 0.14611255E+00</totfact>
</mgrwt>
</event>
<event>
 6    1  0.3786369E-003  0.6849306E+03  0.7818608E-02  0.9743356E-01
          1   -1    0    0  502    0  0.00000000000E+00  0.00000000000E+00  0.11728274530E+03  0.11728274530E+03  0.00000000000E+00 0.  1.
         13   -1    0    0    0    0 -0.00000000000E+00 -0.00000000000E+00 -0.10000000000E+04  0.10000000000E+04  0.00000000000E+00 0.  1.
    9000005    2    1    2  501    0 -0.52067011097E-04 -0.30048837182E-04 -0.88271750076E+03  0.11172824920E+04  0.68493063940E+03 0.  0.
         13    1    3    3    0    0  0.33807966243E+03 -0.49259231549E+02 -0.47989692548E+03  0.58908860889E+03  0.00000000000E+00 0.  1.
          1    1    3    3  501    0 -0.33807971450E+03  0.49259201500E+02 -0.40282057528E+03  0.52819388311E+03  0.00000000000E+00 0.  1.
         21    1    1    2  502  501  0.52067011132E-04  0.30048837183E-04  0.24606334391E-03  0.25330036613E-03  0.00000000000E+00 0.  1.
<mgrwt>
<rscale>  1 0.68493064E+03</rscale>
<asrwt>0</asrwt>
<pdfrwt beam="1">  1        1 0.42648361E+00 0.68493064E+03</pdfrwt>
<pdfrwt beam="2">0</pdfrwt>
<totfact> 0.10103890E+00</totfact>
</mgrwt>
</event>
<event>
 6    1  0.3786369E-003  0.6572695E+03  0.7818608E-02  0.9793233E-01
          1   -1    0    0  502    0  0.00000000000E+00  0.00000000000E+00  0.10801870273E+03  0.10801870273E+03  0.00000000000E+00 0.  1.
         13   -1    0    0    0    0 -0.00000000000E+00 -0.00000000000E+00 -0.10000000000E+04  0.10000000000E+04  0.00000000000E+00 0.  1.
    9000005    2    1    2  501    0  0.58798956978E-02 -0.99607777890E-02 -0.89199711618E+03  0.11079991061E+04  0.65726947570E+03 0.  0.
         13    1    3    3    0    0  0.64021586318E+02 -0.10462576552E+03 -0.95997028077E+03  0.96777489857E+03  0.00000000000E+00 0.  1.
          3    1    3    3  501    0 -0.64015706423E+02  0.10461580475E+03  0.67973164591E+02  0.14022420752E+03  0.00000000000E+00 0.  1.
         21    1    1    2  502  501 -0.58798956978E-02  0.99607777890E-02  0.15818912275E-01  0.19596638823E-01  0.00000000000E+00 0.  1.
<mgrwt>
<rscale>  1 0.65726948E+03</rscale>
<asrwt>0</asrwt>
<pdfrwt beam="1">  1        1 0.39279611E+00 0.65726948E+03</pdfrwt>
<pdfrwt beam="2">0</pdfrwt>
<totfact> 0.14383787E+00</totfact>
</mgrwt>
</event>
<event>
 6    1  0.3786369E-003  0.6512983E+03  0.7818608E-02  0.9804346E-01
          1   -1    0    0  502    0  0.00000000000E+00  0.00000000000E+00  0.10604761705E+03  0.10604761705E+03  0.00000000000E+00 0.  1.
         13   -1    0    0    0    0 -0.00000000000E+00 -0.00000000000E+00 -0.10000000000E+04  0.10000000000E+04  0.00000000000E+00 0.  1.
    9000005    2    1    2  501    0  0.51790223097E-05 -0.34783418485E-04 -0.89395262519E+03  0.11060473723E+04  0.65129831386E+03 0.  0.
         13    1    3    3    0    0  0.26170582046E+03  0.79193578451E+02 -0.74735387632E+03  0.79580109059E+03  0.00000000000E+00 0.  1.
          3    1    3    3  501    0 -0.26170581528E+03 -0.79193613235E+02 -0.14659874887E+03  0.31024628168E+03  0.00000000000E+00 0.  1.
         21    1    1    2  502  501 -0.51790223439E-05  0.34783418486E-04  0.24223882617E-03  0.24477817995E-03  0.00000000000E+00 0.  1.
<mgrwt>
<rscale>  1 0.65129831E+03</rscale>
<asrwt>0</asrwt>
<pdfrwt beam="1">  1        1 0.38562851E+00 0.65129831E+03</pdfrwt>
<pdfrwt beam="2">0</pdfrwt>
<totfact> 0.15492718E+00</totfact>
</mgrwt>
</event>
<event>
 6    1  0.3786369E-003  0.6481670E+03  0.7818608E-02  0.9810225E-01
          1   -1    0    0  502    0  0.00000000000E+00  0.00000000000E+00  0.10517503323E+03  0.10517503323E+03  0.00000000000E+00 0.  1.
         13   -1    0    0    0    0 -0.00000000000E+00 -0.00000000000E+00 -0.10000000000E+04  0.10000000000E+04  0.00000000000E+00 0.  1.
    9000005    2    1    2  501    0  0.24097002472E-01  0.96791343866E-02 -0.89496859979E+03  0.11050290716E+04  0.64816699532E+03 0.  0.
         13    1    3    3    0    0  0.10945045338E+03  0.30497488409E+03 -0.45913686640E+03  0.56195706577E+03  0.00000000000E+00 0.  1.
          3    1    3    3  501    0 -0.10942635638E+03 -0.30496520496E+03 -0.43583173338E+03  0.54307200584E+03  0.00000000000E+00 0.  1.
         21    1    1    2  502  501 -0.24097002472E-01 -0.96791343866E-02  0.14363301464E+00  0.14596161846E+00  0.00000000000E+00 0. -1.
<mgrwt>
<rscale>  1 0.64816700E+03</rscale>
<asrwt>0</asrwt>
<pdfrwt beam="1">  1        1 0.38245547E+00 0.64816700E+03</pdfrwt>
<pdfrwt beam="2">0</pdfrwt>
<totfact> 0.16010570E+00</totfact>
</mgrwt>
</event>
<event>
 6    1  0.3786369E-003  0.6269072E+03  0.7818608E-02  0.9851103E-01
          1   -1    0    0  502    0  0.00000000000E+00  0.00000000000E+00  0.98298644210E+02  0.98298644210E+02  0.00000000000E+00 0.  1.
         13   -1    0    0    0    0 -0.00000000000E+00 -0.00000000000E+00 -0.10000000000E+04  0.10000000000E+04  0.00000000000E+00 0.  1.
    9000005    2    1    2  501    0  0.16001230136E-01 -0.60277110338E-02 -0.90174507352E+03  0.10982517016E+04  0.62690718776E+03 0.  0.
         13    1    3    3    0    0 -0.11764740550E+03 -0.12358967492E+03 -0.91150070415E+03  0.92733427275E+03  0.00000000000E+00 0.  1.
          1    1    3    3  501    0  0.11766340673E+03  0.12358364721E+03  0.97556306267E+01  0.17091742880E+03  0.00000000000E+00 0.  1.
         21    1    1    2  502  501 -0.16001230136E-01  0.60277110338E-02  0.43717729944E-01  0.46942652009E-01  0.00000000000E+00 0. -1.
<mgrwt>
<rscale>  1 0.62690719E+03</rscale>
<asrwt>0</asrwt>
<pdfrwt beam="1">  1        1 0.35745037E+00 0.62690719E+03</pdfrwt>
<pdfrwt beam="2">0</pdfrwt>
<totfact> 0.20697456E+00</totfact>
</mgrwt>
</event>
<event>
 6    1  0.3786369E-003  0.6504783E+03  0.7818608E-02  0.9805882E-01
          1   -1    0    0  502    0  0.00000000000E+00  0.00000000000E+00  0.10578051164E+03  0.10578051164E+03  0.00000000000E+00 0.  1.
         13   -1    0    0    0    0 -0.00000000000E+00 -0.00000000000E+00 -0.10000000000E+04  0.10000000000E+04  0.00000000000E+00 0.  1.
    9000005    2    1    2  501    0  0.37276434739E-05 -0.56555234096E-05 -0.89421948737E+03  0.11057805048E+04  0.65047831109E+03 0.  0.
         13    1    3    3    0    0 -0.23231180547E+03  0.17876893768E+03 -0.20758325703E+03  0.35919064108E+03  0.00000000000E+00 0.  1.
          1    1    3    3  501    0  0.23231180920E+03 -0.17876894333E+03 -0.68663623034E+03  0.74658986372E+03  0.00000000000E+00 0.  1.
         21    1    1    2  502  501 -0.37276434817E-05  0.56555234121E-05 -0.98651750294E-06  0.68449607578E-05  0.00000000000E+00 0. -1.
<mgrwt>
<rscale>  1 0.65047831E+03</rscale>
<asrwt>0</asrwt>
<pdfrwt beam="1">  1        1 0.38465722E+00 0.65047831E+03</pdfrwt>
<pdfrwt beam="2">0</pdfrwt>
<totfact> 0.15649122E+00</totfact>
</mgrwt>
</event>
<event>
 6    1  0.3786369E-003  0.6572324E+03  0.7818608E-02  0.9793302E-01
          1   -1    0    0  502    0  0.00000000000E+00  0.00000000000E+00  0.10799588322E+03  0.10799588322E+03  0.00000000000E+00 0.  1.
         13   -1    0    0    0    0 -0.00000000000E+00 -0.00000000000E+00 -0.10000000000E+04  0.10000000000E+04  0.00000000000E+00 0.  1.
    9000005    2    1    2  501    0  0.27907792218E-02  0.46761796976E-02 -0.89201025180E+03  0.11079876800E+04  0.65723238629E+03 0.  0.
         13    1    3    3    0    0  0.11449819000E+03 -0.29210822390E+03 -0.28125154502E+03  0.42135434204E+03  0.00000000000E+00 0.  1.
          3    1    3    3  501    0 -0.11449539922E+03  0.29211290008E+03 -0.61075870678E+03  0.68663333792E+03  0.00000000000E+00 0.  1.
         21    1    1    2  502  501 -0.27907792218E-02 -0.46761796976E-02  0.61350223150E-02  0.82032678875E-02  0.00000000000E+00 0. -1.
<mgrwt>
<rscale>  1 0.65723239E+03</rscale>
<asrwt>0</asrwt>
<pdfrwt beam="1">  1        1 0.39271313E+00 0.65723239E+03</pdfrwt>
<pdfrwt beam="2">0</pdfrwt>
<totfact> 0.14396097E+00</totfact>
</mgrwt>
</event>
<event>
 6    1  0.3786369E-003  0.6489533E+03  0.7818608E-02  0.9808745E-01
          1   -1    0    0  502    0  0.00000000000E+00  0.00000000000E+00  0.10528685780E+03  0.10528685780E+03  0.00000000000E+00 0.  1.
         13   -1    0    0    0    0 -0.00000000000E+00 -0.00000000000E+00 -0.10000000000E+04  0.10000000000E+04  0.00000000000E+00 0.  1.
    9000005    2    1    2  501    0 -0.10587581655E-02 -0.14003974493E-02 -0.89471441599E+03  0.11052846888E+04  0.64895327805E+03 0.  0.
         13    1    3    3    0    0  0.11988254260E+03 -0.18751178487E+03 -0.84951279750E+03  0.87818249049E+03  0.00000000000E+00 0.  1.
          3    1    3    3  501    0 -0.11988360136E+03  0.18751038447E+03 -0.45201618491E+02  0.22710219830E+03  0.00000000000E+00 0.  1.
         21    1    1    2  502  501  0.10587581655E-02  0.14003974493E-02  0.12737886896E-02  0.21690134842E-02  0.00000000000E+00 0.  1.
<mgrwt>
<rscale>  1 0.64895328E+03</rscale>
<asrwt>0</asrwt>
<pdfrwt beam="1">  1        1 0.38286211E+00 0.64895328E+03</pdfrwt>
<pdfrwt beam="2">0</pdfrwt>
<totfact> 0.15942167E+00</totfact>
</mgrwt>
</event>
<event>
 6    1  0.3786369E-003  0.6531373E+03  0.7818608E-02  0.9800910E-01
          1   -1    0    0  502    0  0.00000000000E+00  0.00000000000E+00  0.10741077022E+03  0.10741077022E+03  0.00000000000E+00 0.  1.
         13   -1    0    0    0    0 -0.00000000000E+00 -0.00000000000E+00 -0.10000000000E+04  0.10000000000E+04  0.00000000000E+00 0.  1.
    9000005    2    1    2  501    0  0.57639128137E-01 -0.18349236934E-01 -0.89335157837E+03  0.11066460256E+04  0.65313733604E+03 0.  0.
         13    1    3    3    0    0  0.75669914588E+02  0.37123860385E+02 -0.98126946325E+03  0.98488267143E+03  0.00000000000E+00 0.  1.
          3    1    3    3  501    0 -0.75612275460E+02 -0.37142209621E+02  0.87917884876E+02  0.12176335416E+03  0.00000000000E+00 0.  1.
         21    1    1    2  502  501 -0.57639128137E-01  0.18349236934E-01  0.76234859361E+00  0.76474462520E+00  0.00000000000E+00 0. -1.
<mgrwt>
<rscale>  1 0.65313734E+03</rscale>
<asrwt>0</asrwt>
<pdfrwt beam="1">  1        1 0.39058544E+00 0.65313734E+03</pdfrwt>
<pdfrwt beam="2">0</pdfrwt>
<totfact> 0.14723778E+00</totfact>
</mgrwt>
</event>
<event>
 6    1  0.3786369E-003  0.6542405E+03  0.7818608E-02  0.9798855E-01
          1   -1    0    0  502    0  0.00000000000E+00  0.00000000000E+00  0.10953863099E+03  0.10953863099E+03  0.00000000000E+00 0.  1.
         13   -1    0    0    0    0 -0.00000000000E+00 -0.00000000000E+00 -0.10000000000E+04  0.10000000000E+04  0.00000000000E+00 0.  1.
    9000005    2    1    2  501    0 -0.40839868185E-01  0.84554442944E-02 -0.89299215294E+03  0.11070075034E+04  0.65424049532E+03 0.  0.
         13    1    3    3    0    0 -0.13524037847E+02 -0.30469250289E+03 -0.24639159120E+03  0.39208320179E+03  0.00000000000E+00 0.  1.
          1    1    3    3  501    0  0.13483197979E+02  0.30470095833E+03 -0.64660056174E+03  0.71492430164E+03  0.00000000000E+00 0.  1.
         21    1    1    2  502  501  0.40839868185E-01 -0.84554442945E-02  0.25307839288E+01  0.25311275518E+01  0.00000000000E+00 0. -1.
<mgrwt>
<rscale>  1 0.65424050E+03</rscale>
<asrwt>0</asrwt>
<pdfrwt beam="1">  1        1 0.39832313E+00 0.65424050E+03</pdfrwt>
<pdfrwt beam="2">0</pdfrwt>
<totfact> 0.13599951E+00</totfact>
</mgrwt>
</event>
<event>
 6    1  0.3786369E-003  0.6421405E+03  0.7818608E-02  0.9821640E-01
          1   -1    0    0  502    0  0.00000000000E+00  0.00000000000E+00  0.10990291136E+03  0.10990291136E+03  0.00000000000E+00 0.  1.
         13   -1    0    0    0    0 -0.00000000000E+00 -0.00000000000E+00 -0.10000000000E+04  0.10000000000E+04  0.00000000000E+00 0.  1.
    9000005    2    1    2  501    0  0.97575444773E+00  0.17364076702E+00 -0.89687413680E+03  0.11030537779E+04  0.64213973352E+03 0.  0.
         13    1    3    3    0    0 -0.12739279147E+03 -0.27479628641E+03 -0.62962474490E+03  0.69869109178E+03  0.00000000000E+00 0.  1.
          1    1    3    3  501    0  0.12836854592E+03  0.27496992718E+03 -0.26724939189E+03  0.40436268609E+03  0.00000000000E+00 0.  1.
         21    1    1    2  502  501 -0.97575444773E+00 -0.17364076702E+00  0.67770481516E+01  0.68491334858E+01  0.00000000000E+00 0. -1.
<mgrwt>
<rscale>  1 0.64214050E+03</rscale>
<asrwt>0</asrwt>
<pdfrwt beam="1">  1        1 0.39964779E+00 0.64214050E+03</pdfrwt>
<pdfrwt beam="2">0</pdfrwt>
<totfact> 0.13447366E+00</totfact>
</mgrwt>
</event>
<event>
 6    1  0.3786369E-003  0.6411183E+03  0.7818608E-02  0.9823589E-01
          1   -1    0    0  502    0  0.00000000000E+00  0.00000000000E+00  0.10345349636E+03  0.10345349636E+03  0.00000000000E+00 0.  1.
         13   -1    0    0    0    0 -0.00000000000E+00 -0.00000000000E+00 -0.10000000000E+04  0.10000000000E+04  0.00000000000E+00 0.  1.
    9000005    2    1    2  501    0 -0.97868912721E-01  0.23668583508E+00 -0.89721573915E+03  0.11027369249E+04  0.64111822415E+03 0.  0.
         13    1    3    3    0    0  0.65232046492E+02 -0.30825660880E+03 -0.34811973232E+03  0.46953669163E+03  0.00000000000E+00 0.  1.
          1    1    3    3  501    0 -0.65329915405E+02  0.30849329464E+03 -0.54909600683E+03  0.63320023326E+03  0.00000000000E+00 0.  1.
         21    1    1    2  502  501  0.97868912721E-01 -0.23668583508E+00  0.66923550374E+00  0.71657146753E+00  0.00000000000E+00 0. -1.
<mgrwt>
<rscale>  1 0.64111828E+03</rscale>
<asrwt>0</asrwt>
<pdfrwt beam="1">  1        1 0.37619533E+00 0.64111828E+03</pdfrwt>
<pdfrwt beam="2">0</pdfrwt>
<totfact> 0.17083671E+00</totfact>
</mgrwt>
</event>
<event>
 6    1  0.3786369E-003  0.6588992E+03  0.7818608E-02  0.9790222E-01
          1   -1    0    0  502    0  0.00000000000E+00  0.00000000000E+00  0.10853989380E+03  0.10853989380E+03  0.00000000000E+00 0.  1.
         13   -1    0    0    0    0 -0.00000000000E+00 -0.00000000000E+00 -0.10000000000E+04  0.10000000000E+04  0.00000000000E+00 0.  1.
    9000005    2    1    2  501    0 -0.30255498364E-02  0.13371391513E-02 -0.89146184287E+03  0.11085361578E+04  0.65889923037E+03 0.  0.
         13    1    3    3    0    0 -0.26834819267E+03 -0.13787420249E+03 -0.22305871992E+03  0.37520026753E+03  0.00000000000E+00 0.  1.
          3    1    3    3  501    0  0.26834516712E+03  0.13787553963E+03 -0.66840312295E+03  0.73333589024E+03  0.00000000000E+00 0.  1.
         21    1    1    2  502  501  0.30255498364E-02 -0.13371391513E-02  0.17366685078E-02  0.37360286975E-02  0.00000000000E+00 0.  1.
<mgrwt>
<rscale>  1 0.65889923E+03</rscale>
<asrwt>0</asrwt>
<pdfrwt beam="1">  1        1 0.39469136E+00 0.65889923E+03</pdfrwt>
<pdfrwt beam="2">0</pdfrwt>
<totfact> 0.14103262E+00</totfact>
</mgrwt>
</event>
<event>
 6    1  0.3786369E-003  0.6299028E+03  0.7818608E-02  0.9845239E-01
          3   -1    0    0  502    0  0.00000000000E+00  0.00000000000E+00  0.99217418673E+02  0.99217418673E+02  0.00000000000E+00 0.  1.
         13   -1    0    0    0    0 -0.00000000000E+00 -0.00000000000E+00 -0.10000000000E+04  0.10000000000E+04  0.00000000000E+00 0.  1.
    9000005    2    1    2  501    0  0.19743814304E-02  0.80605651338E-02 -0.90080479996E+03  0.10991937008E+04  0.62990277354E+03 0.  0.
         13    1    3    3    0    0  0.74696271131E+02  0.19059442360E+03 -0.86808386640E+03  0.89189425737E+03  0.00000000000E+00 0.  1.
          1    1    3    3  501    0 -0.74694296750E+02 -0.19058636304E+03 -0.32720933565E+02  0.20729944340E+03  0.00000000000E+00 0.  1.
         21    1    1    2  502  501 -0.19743814304E-02 -0.80605651338E-02  0.22218636113E-01  0.23717897947E-01  0.00000000000E+00 0.  1.
<mgrwt>
<rscale>  1 0.62990277E+03</rscale>
<asrwt>0</asrwt>
<pdfrwt beam="1">  1        3 0.36079137E+00 0.62990277E+03</pdfrwt>
<pdfrwt beam="2">0</pdfrwt>
<totfact> 0.95720875E-02</totfact>
</mgrwt>
</event>
<event>
 6    1  0.3786369E-003  0.6438240E+03  0.7818608E-02  0.9818438E-01
          1   -1    0    0  502    0  0.00000000000E+00  0.00000000000E+00  0.11756954218E+03  0.11756954218E+03  0.00000000000E+00 0.  1.
         13   -1    0    0    0    0 -0.00000000000E+00 -0.00000000000E+00 -0.10000000000E+04  0.10000000000E+04  0.00000000000E+00 0.  1.
    9000005    2    1    2  501    0  0.33890068460E-01  0.40615707314E+00 -0.89636937805E+03  0.11036246647E+04  0.64382386755E+03 0.  0.
         13    1    3    3    0    0  0.22948981138E+03 -0.12398428730E+03 -0.77128079168E+03  0.81419391833E+03  0.00000000000E+00 0.  1.
          1    1    3    3  501    0 -0.22945592131E+03  0.12439044438E+03 -0.12508858636E+03  0.28943074632E+03  0.00000000000E+00 0.  1.
         21    1    1    2  502  501 -0.33890068460E-01 -0.40615707314E+00  0.13938920226E+02  0.13944877525E+02  0.00000000000E+00 0.  1.
<mgrwt>
<rscale>  1 0.64382400E+03</rscale>
<asrwt>0</asrwt>
<pdfrwt beam="1">  1        1 0.42752651E+00 0.64382400E+03</pdfrwt>
<pdfrwt beam="2">0</pdfrwt>
<totfact> 0.10075575E+00</totfact>
</mgrwt>
</event>
<event>
 6    1  0.3786369E-003  0.6338272E+03  0.7818608E-02  0.9837609E-01
          1   -1    0    0  502    0  0.00000000000E+00  0.00000000000E+00  0.10043523559E+03  0.10043523559E+03  0.00000000000E+00 0.  1.
         13   -1    0    0    0    0 -0.00000000000E+00 -0.00000000000E+00 -0.10000000000E+04  0.10000000000E+04  0.00000000000E+00 0.  1.
    9000005    2    1    2  501    0  0.92185269865E-03  0.79345107989E-03 -0.89956537142E+03  0.11004338762E+04  0.63382715193E+03 0.  0.
         13    1    3    3    0    0  0.18356208686E+02  0.14780934123E+03  0.35879682364E+02  0.15320542862E+03  0.00000000000E+00 0.  1.
          3    1    3    3  501    0 -0.18355286833E+02 -0.14780854777E+03 -0.93544505378E+03  0.94722844763E+03  0.00000000000E+00 0.  1.
         21    1    1    2  502  501 -0.92185269865E-03 -0.79345107991E-03  0.60700943623E-03  0.13593518565E-02  0.00000000000E+00 0.  1.
<mgrwt>
<rscale>  1 0.63382715E+03</rscale>
<asrwt>0</asrwt>
<pdfrwt beam="1">  1        1 0.36521981E+00 0.63382715E+03</pdfrwt>
<pdfrwt beam="2">0</pdfrwt>
<totfact> 0.19115085E+00</totfact>
</mgrwt>
</event>
<event>
 6    1  0.3786369E-003  0.6534019E+03  0.7818608E-02  0.9800417E-01
          1   -1    0    0  502    0  0.00000000000E+00  0.00000000000E+00  0.10833977246E+03  0.10833977246E+03  0.00000000000E+00 0.  1.
         13   -1    0    0    0    0 -0.00000000000E+00 -0.00000000000E+00 -0.10000000000E+04  0.10000000000E+04  0.00000000000E+00 0.  1.
    9000005    2    1    2  501    0 -0.79205014120E+00  0.27080474772E+00 -0.89314491229E+03  0.11066353760E+04  0.65340134701E+03 0.  0.
         13    1    3    3    0    0 -0.24214052081E+03  0.21898061207E+03 -0.48096369954E+03  0.58130080041E+03  0.00000000000E+00 0.  1.
          1    1    3    3  501    0  0.24134847067E+03 -0.21870980733E+03 -0.41218121275E+03  0.52533457554E+03  0.00000000000E+00 0.  1.
         21    1    1    2  502  501  0.79205014120E+00 -0.27080474772E+00  0.14846847487E+01  0.17043965033E+01  0.00000000000E+00 0.  1.
<mgrwt>
<rscale>  1 0.65340188E+03</rscale>
<asrwt>0</asrwt>
<pdfrwt beam="1">  1        1 0.39396364E+00 0.65340188E+03</pdfrwt>
<pdfrwt beam="2">0</pdfrwt>
<totfact> 0.14223281E+00</totfact>
</mgrwt>
</event>
<event>
 6    1  0.3786369E-003  0.6500859E+03  0.7818608E-02  0.9806618E-01
          1   -1    0    0  502    0  0.00000000000E+00  0.00000000000E+00  0.10568085467E+03  0.10568085467E+03  0.00000000000E+00 0.  1.
         13   -1    0    0    0    0 -0.00000000000E+00 -0.00000000000E+00 -0.10000000000E+04  0.10000000000E+04  0.00000000000E+00 0.  1.
    9000005    2    1    2  501    0 -0.16939780128E-02 -0.20727362891E-02 -0.89434701069E+03  0.11056528610E+04  0.65008589707E+03 0.  0.
         13    1    3    3    0    0 -0.18802511135E+03 -0.46408923719E+02 -0.89115965126E+03  0.91196093926E+03  0.00000000000E+00 0.  1.
          3    1    3    3  501    0  0.18802341737E+03  0.46406850982E+02 -0.31873594306E+01  0.19369192177E+03  0.00000000000E+00 0.  1.
         21    1    1    2  502  501  0.16939780127E-02  0.20727362891E-02  0.27865355254E-01  0.27993638932E-01  0.00000000000E+00 0.  1.
<mgrwt>
<rscale>  1 0.65008590E+03</rscale>
<asrwt>0</asrwt>
<pdfrwt beam="1">  1        1 0.38429483E+00 0.65008590E+03</pdfrwt>
<pdfrwt beam="2">0</pdfrwt>
<totfact> 0.15708110E+00</totfact>
</mgrwt>
</event>
<event>
 6    1  0.3786369E-003  0.6284827E+03  0.7818608E-02  0.9848014E-01
          1   -1    0    0  502    0  0.00000000000E+00  0.00000000000E+00  0.98866357941E+02  0.98866357941E+02  0.00000000000E+00 0.  1.
         13   -1    0    0    0    0 -0.00000000000E+00 -0.00000000000E+00 -0.10000000000E+04  0.10000000000E+04  0.00000000000E+00 0.  1.
    9000005    2    1    2  501    0  0.96454235688E-03 -0.22874543276E-02 -0.90125236738E+03  0.10987476067E+04  0.62848267553E+03 0.  0.
         13    1    3    3    0    0  0.15734319520E+03 -0.10163604783E+03 -0.89173224496E+03  0.91119326380E+03  0.00000000000E+00 0.  1.
          3    1    3    3  501    0 -0.15734223066E+03  0.10163376038E+03 -0.95201224198E+01  0.18755434287E+03  0.00000000000E+00 0.  1.
         21    1    1    2  502  501 -0.96454235691E-03  0.22874543276E-02  0.11872532220E+00  0.11875127334E+00  0.00000000000E+00 0.  1.
<mgrwt>
<rscale>  1 0.62848268E+03</rscale>
<asrwt>0</asrwt>
<pdfrwt beam="1">  1        1 0.35951479E+00 0.62848268E+03</pdfrwt>
<pdfrwt beam="2">0</pdfrwt>
<totfact> 0.20266113E+00</totfact>
</mgrwt>
</event>
<event>
 6    1  0.3786369E-003  0.6298890E+03  0.7818608E-02  0.9845266E-01
          1   -1    0    0  502    0  0.00000000000E+00  0.00000000000E+00  0.99191340060E+02  0.99191340060E+02  0.00000000000E+00 0.  1.
         13   -1    0    0    0    0 -0.00000000000E+00 -0.00000000000E+00 -0.10000000000E+04  0.10000000000E+04  0.00000000000E+00 0.  1.
    9000005    2    1    2  501    0 -0.47078284726E-03  0.14064004603E-02 -0.90080950314E+03  0.10991896340E+04  0.62988895099E+03 0.  0.
         13    1    3    3    0    0 -0.16874496894E+03  0.99227809612E+02 -0.88093929236E+03  0.90242731540E+03  0.00000000000E+00 0.  1.
          1    1    3    3  501    0  0.16874449816E+03 -0.99226403212E+02 -0.19870210779E+02  0.19676231862E+03  0.00000000000E+00 0.  1.
         21    1    1    2  502  501  0.47078284726E-03 -0.14064004603E-02  0.84320148028E-03  0.17060443958E-02  0.00000000000E+00 0. -1.
<mgrwt>
<rscale>  1 0.62988895E+03</rscale>
<asrwt>0</asrwt>
<pdfrwt beam="1">  1        1 0.36069654E+00 0.62988895E+03</pdfrwt>
<pdfrwt beam="2">0</pdfrwt>
<totfact> 0.20021273E+00</totfact>
</mgrwt>
</event>
<event>
 6    1  0.3786369E-003  0.6484225E+03  0.7818608E-02  0.9809744E-01
          1   -1    0    0  502    0  0.00000000000E+00  0.00000000000E+00  0.10576454347E+03  0.10576454347E+03  0.00000000000E+00 0.  1.
         13   -1    0    0    0    0 -0.00000000000E+00 -0.00000000000E+00 -0.10000000000E+04  0.10000000000E+04  0.00000000000E+00 0.  1.
    9000005    2    1    2  501    0  0.10165248305E+00  0.46815269708E+00 -0.89478833685E+03  0.11050329857E+04  0.64842231774E+03 0.  0.
         13    1    3    3    0    0 -0.22839107016E+03 -0.23486747004E+02 -0.57347115592E+02  0.23664910708E+03  0.00000000000E+00 0.  1.
          3    1    3    3  501    0  0.22849272265E+03  0.23954899701E+02 -0.83744122126E+03  0.86838387858E+03  0.00000000000E+00 0.  1.
         21    1    1    2  502  501 -0.10165248305E+00 -0.46815269708E+00  0.55288032040E+00  0.73155780618E+00  0.00000000000E+00 0. -1.
<mgrwt>
<rscale>  1 0.64842249E+03</rscale>
<asrwt>0</asrwt>
<pdfrwt beam="1">  1        1 0.38459915E+00 0.64842249E+03</pdfrwt>
<pdfrwt beam="2">0</pdfrwt>
<totfact> 0.15664325E+00</totfact>
</mgrwt>
</event>
<event>
 6    1  0.3786369E-003  0.6473341E+03  0.7818608E-02  0.9811794E-01
          1   -1    0    0  502    0  0.00000000000E+00  0.00000000000E+00  0.10477983236E+03  0.10477983236E+03  0.00000000000E+00 0.  1.
         13   -1    0    0    0    0 -0.00000000000E+00 -0.00000000000E+00 -0.10000000000E+04  0.10000000000E+04  0.00000000000E+00 0.  1.
    9000005    2    1    2  501    0  0.21060440062E-04 -0.41141808508E-03 -0.89523962690E+03  0.11047603687E+04  0.64733413534E+03 0.  0.
         13    1    3    3    0    0  0.10990569627E+03 -0.29872811231E+02 -0.96467191054E+03  0.97137198946E+03  0.00000000000E+00 0.  1.
          3    1    3    3  501    0 -0.10990567521E+03  0.29872399813E+02  0.69432283644E+02  0.13338837928E+03  0.00000000000E+00 0.  1.
         21    1    1    2  502  501 -0.21060440062E-04  0.41141808508E-03  0.19459263580E-01  0.19463623698E-01  0.00000000000E+00 0.  1.
<mgrwt>
<rscale>  1 0.64733414E+03</rscale>
<asrwt>0</asrwt>
<pdfrwt beam="1">  1        1 0.38101838E+00 0.64733414E+03</pdfrwt>
<pdfrwt beam="2">0</pdfrwt>
<totfact> 0.16248737E+00</totfact>
</mgrwt>
</event>
<event>
 6    1  0.3786369E-003  0.6591984E+03  0.7818608E-02  0.9789670E-01
          1   -1    0    0  502    0  0.00000000000E+00  0.00000000000E+00  0.10865416150E+03  0.10865416150E+03  0.00000000000E+00 0.  1.
         13   -1    0    0    0    0 -0.00000000000E+00 -0.00000000000E+00 -0.10000000000E+04  0.10000000000E+04  0.00000000000E+00 0.  1.
    9000005    2    1    2  501    0  0.16644303132E-02 -0.15015646338E-02 -0.89136429146E+03  0.11086355729E+04  0.65919840213E+03 0.  0.
         13    1    3    3    0    0  0.10862751217E+02 -0.28974959006E+03 -0.70926503691E+03  0.76624390169E+03  0.00000000000E+00 0.  1.
          1    1    3    3  501    0 -0.10861086787E+02  0.28974808849E+03 -0.18209925455E+03  0.34239167119E+03  0.00000000000E+00 0.  1.
         21    1    1    2  502  501 -0.16644303132E-02  0.15015646337E-02  0.18452953483E-01  0.18588612559E-01  0.00000000000E+00 0.  1.
<mgrwt>
<rscale>  1 0.65919840E+03</rscale>
<asrwt>0</asrwt>
<pdfrwt beam="1">  1        1 0.39510687E+00 0.65919840E+03</pdfrwt>
<pdfrwt beam="2">0</pdfrwt>
<totfact> 0.14042607E+00</totfact>
</mgrwt>
</event>
<event>
 6    1  0.3786369E-003  0.6462448E+03  0.7818608E-02  0.9813851E-01
          1   -1    0    0  502    0  0.00000000000E+00  0.00000000000E+00  0.10454988320E+03  0.10454988320E+03  0.00000000000E+00 0.  1.
         13   -1    0    0    0    0 -0.00000000000E+00 -0.00000000000E+00 -0.10000000000E+04  0.10000000000E+04  0.00000000000E+00 0.  1.
    9000005    2    1    2  501    0 -0.13088552408E-02 -0.28828236395E-02 -0.89559189399E+03  0.11044080707E+04  0.64624480342E+03 0.  0.
         13    1    3    3    0    0 -0.11548987567E+03 -0.30134650712E+03 -0.47543251779E+03  0.57461613945E+03  0.00000000000E+00 0.  1.
          3    1    3    3  501    0  0.11548856682E+03  0.30134362430E+03 -0.42015937620E+03  0.52979193121E+03  0.00000000000E+00 0.  1.
         21    1    1    2  502  501  0.13088552408E-02  0.28828236395E-02  0.14177719265E+00  0.14181253870E+00  0.00000000000E+00 0.  1.
<mgrwt>
<rscale>  1 0.64624480E+03</rscale>
<asrwt>0</asrwt>
<pdfrwt beam="1">  1        1 0.38018220E+00 0.64624480E+03</pdfrwt>
<pdfrwt beam="2">0</pdfrwt>
<totfact> 0.16390685E+00</totfact>
</mgrwt>
</event>
<event>
 6    1  0.3786369E-003  0.6351694E+03  0.7818608E-02  0.9835013E-01
          1   -1    0    0  502    0  0.00000000000E+00  0.00000000000E+00  0.10086832963E+03  0.10086832963E+03  0.00000000000E+00 0.  1.
         13   -1    0    0    0    0 -0.00000000000E+00 -0.00000000000E+00 -0.10000000000E+04  0.10000000000E+04  0.00000000000E+00 0.  1.
    9000005    2    1    2  501    0  0.12201944162E-01  0.10165815737E-02 -0.89913466560E+03  0.11008557244E+04  0.63516940959E+03 0.  0.
         13    1    3    3    0    0 -0.24199051141E+03  0.99241764160E+02 -0.76176646702E+03  0.80541696384E+03  0.00000000000E+00 0.  1.
          3    1    3    3  501    0  0.24200271335E+03 -0.99240747578E+02 -0.13736819858E+03  0.29543876054E+03  0.00000000000E+00 0.  1.
         21    1    1    2  502  501 -0.12201944162E-01 -0.10165815737E-02  0.29952287198E-02  0.12605247896E-01  0.00000000000E+00 0. -1.
<mgrwt>
<rscale>  1 0.63516941E+03</rscale>
<asrwt>0</asrwt>
<pdfrwt beam="1">  1        1 0.36679470E+00 0.63516941E+03</pdfrwt>
<pdfrwt beam="2">0</pdfrwt>
<totfact> 0.18809002E+00</totfact>
</mgrwt>
</event>
<event>
 6    1  0.3786369E-003  0.6569370E+03  0.7818608E-02  0.9793849E-01
          1   -1    0    0  502    0  0.00000000000E+00  0.00000000000E+00  0.13477378393E+03  0.13477378393E+03  0.00000000000E+00 0.  1.
         13   -1    0    0    0    0 -0.00000000000E+00 -0.00000000000E+00 -0.10000000000E+04  0.10000000000E+04  0.00000000000E+00 0.  1.
    9000005    2    1    2  501    0 -0.60381782890E+00 -0.53309267307E+02 -0.85853846428E+03  0.10810432656E+04  0.65477019239E+03 0.  0.
         13    1    3    3    0    0  0.10583860464E+03  0.10159468641E+03 -0.87975120349E+03  0.89189992184E+03  0.00000000000E+00 0.  1.
          1    1    3    3  501    0 -0.10644242247E+03 -0.15490395372E+03  0.21212739205E+02  0.18914334375E+03  0.00000000000E+00 0.  1.
         21    1    1    2  502  501  0.60381782890E+00  0.53309267307E+02 -0.66877517897E+01  0.53730518337E+02  0.00000000000E+00 0.  1.
<mgrwt>
<rscale>  1 0.65693702E+03</rscale>
<asrwt>0</asrwt>
<pdfrwt beam="1">  1        1 0.49008752E+00 0.65693702E+03</pdfrwt>
<pdfrwt beam="2">0</pdfrwt>
<totfact> 0.51494436E-01</totfact>
</mgrwt>
</event>
<event>
 6    1  0.3786369E-003  0.6428078E+03  0.7818608E-02  0.9820369E-01
          1   -1    0    0  502    0  0.00000000000E+00  0.00000000000E+00  0.10905718280E+03  0.10905718280E+03  0.00000000000E+00 0.  1.
         13   -1    0    0    0    0 -0.00000000000E+00 -0.00000000000E+00 -0.10000000000E+04  0.10000000000E+04  0.00000000000E+00 0.  1.
    9000005    2    1    2  501    0 -0.16723816991E+00  0.21707689500E-01 -0.89669817655E+03  0.11032993533E+04  0.64280775869E+03 0.  0.
         13    1    3    3    0    0 -0.44600544715E+02  0.27457250299E+03 -0.72478706500E+03  0.77633469430E+03  0.00000000000E+00 0.  1.
          1    1    3    3  501    0  0.44433306545E+02 -0.27455079530E+03 -0.17191111155E+03  0.32696465895E+03  0.00000000000E+00 0.  1.
         21    1    1    2  502  501  0.16723816991E+00 -0.21707689500E-01  0.57553593501E+01  0.57578295458E+01  0.00000000000E+00 0.  1.
<mgrwt>
<rscale>  1 0.64280778E+03</rscale>
<asrwt>0</asrwt>
<pdfrwt beam="1">  1        1 0.39657241E+00 0.64280778E+03</pdfrwt>
<pdfrwt beam="2">0</pdfrwt>
<totfact> 0.13876239E+00</totfact>
</mgrwt>
</event>
<event>
 6    1  0.3786369E-003  0.6602172E+03  0.7818608E-02  0.9787794E-01
          1   -1    0    0  502    0  0.00000000000E+00  0.00000000000E+00  0.10898893412E+03  0.10898893412E+03  0.00000000000E+00 0.  1.
         13   -1    0    0    0    0 -0.00000000000E+00 -0.00000000000E+00 -0.10000000000E+04  0.10000000000E+04  0.00000000000E+00 0.  1.
    9000005    2    1    2  501    0  0.34459575697E-02 -0.54882357381E-02 -0.89102763797E+03  0.11089711400E+04  0.66021718984E+03 0.  0.
         13    1    3    3    0    0 -0.15658346593E+03 -0.21281939557E+03 -0.77791810621E+03  0.82156378748E+03  0.00000000000E+00 0.  1.
          1    1    3    3  501    0  0.15658691188E+03  0.21281390733E+03 -0.11310953176E+03  0.28740735256E+03  0.00000000000E+00 0.  1.
         21    1    1    2  502  501 -0.34459575697E-02  0.54882357381E-02  0.16572084670E-01  0.17794081752E-01  0.00000000000E+00 0.  1.
<mgrwt>
<rscale>  1 0.66021719E+03</rscale>
<asrwt>0</asrwt>
<pdfrwt beam="1">  1        1 0.39632423E+00 0.66021719E+03</pdfrwt>
<pdfrwt beam="2">0</pdfrwt>
<totfact> 0.13865955E+00</totfact>
</mgrwt>
</event>
<event>
 6    1  0.3786369E-003  0.6493834E+03  0.7818608E-02  0.9807937E-01
          1   -1    0    0  502    0  0.00000000000E+00  0.00000000000E+00  0.10558853876E+03  0.10558853876E+03  0.00000000000E+00 0.  1.
         13   -1    0    0    0    0 -0.00000000000E+00 -0.00000000000E+00 -0.10000000000E+04  0.10000000000E+04  0.00000000000E+00 0.  1.
    9000005    2    1    2  501    0  0.39401095894E-02 -0.69537969716E-02 -0.89457520284E+03  0.11054246022E+04  0.64938336720E+03 0.  0.
         13    1    3    3    0    0 -0.16307695197E+03 -0.21755280643E+03 -0.14515606740E+03  0.30821031740E+03  0.00000000000E+00 0.  1.
          3    1    3    3  501    0  0.16308089208E+03  0.21754585263E+03 -0.74941913544E+03  0.79721428482E+03  0.00000000000E+00 0.  1.
         21    1    1    2  502  501 -0.39401095894E-02  0.69537969716E-02  0.16374160039E+00  0.16393654704E+00  0.00000000000E+00 0.  1.
<mgrwt>
<rscale>  1 0.64938337E+03</rscale>
<asrwt>0</asrwt>
<pdfrwt beam="1">  1        1 0.38395913E+00 0.64938337E+03</pdfrwt>
<pdfrwt beam="2">0</pdfrwt>
<totfact> 0.15763927E+00</totfact>
</mgrwt>
</event>
<event>
 6    1  0.3786369E-003  0.6491393E+03  0.7818608E-02  0.9808396E-01
          1   -1    0    0  502    0  0.00000000000E+00  0.00000000000E+00  0.10729998740E+03  0.10729998740E+03  0.00000000000E+00 0.  1.
         13   -1    0    0    0    0 -0.00000000000E+00 -0.00000000000E+00 -0.10000000000E+04  0.10000000000E+04  0.00000000000E+00 0.  1.
    9000005    2    1    2  501    0  0.40282210728E+00 -0.17101239063E+00 -0.89462742380E+03  0.11053235196E+04  0.64913917161E+03 0.  0.
         13    1    3    3    0    0  0.53185359892E+02 -0.16110911859E+03  0.23877545729E+02  0.17133291508E+03  0.00000000000E+00 0.  1.
          1    1    3    3  501    0 -0.52782537785E+02  0.16093810620E+03 -0.91850496953E+03  0.93399060455E+03  0.00000000000E+00 0.  1.
         21    1    1    2  502  501 -0.40282210728E+00  0.17101239063E+00  0.19274112082E+01  0.19764677719E+01  0.00000000000E+00 0. -1.
<mgrwt>
<rscale>  1 0.64913932E+03</rscale>
<asrwt>0</asrwt>
<pdfrwt beam="1">  1        1 0.39018260E+00 0.64913932E+03</pdfrwt>
<pdfrwt beam="2">0</pdfrwt>
<totfact> 0.14795501E+00</totfact>
</mgrwt>
</event>
<event>
 6    1  0.3786369E-003  0.4756196E+03  0.7818608E-02  0.1020346E+00
          1   -1    0    0  502    0  0.00000000000E+00  0.00000000000E+00  0.56554590673E+02  0.56554590673E+02  0.00000000000E+00 0.  1.
         13   -1    0    0    0    0 -0.00000000000E+00 -0.00000000000E+00 -0.10000000000E+04  0.10000000000E+04  0.00000000000E+00 0.  1.
    9000005    2    1    2  501    0  0.35727772703E-03 -0.13633242429E-03 -0.94344646795E+03  0.10565534651E+04  0.47561958192E+03 0.  0.
         13    1    3    3    0    0  0.13626216290E+03 -0.19247669894E+03 -0.40365525131E+03  0.46749568831E+03  0.00000000000E+00 0.  1.
          3    1    3    3  501    0 -0.13626180563E+03  0.19247656261E+03 -0.53979121664E+03  0.58905777679E+03  0.00000000000E+00 0.  1.
         21    1    1    2  502  501 -0.35727772704E-03  0.13633242430E-03  0.10586279550E-02  0.11255785406E-02  0.00000000000E+00 0. -1.
<mgrwt>
<rscale>  1 0.47561958E+03</rscale>
<asrwt>0</asrwt>
<pdfrwt beam="1">  1        1 0.20565349E+00 0.47561958E+03</pdfrwt>
<pdfrwt beam="2">0</pdfrwt>
<totfact> 0.97306780E+00</totfact>
</mgrwt>
</event>
<event>
 6    1  0.3786369E-003  0.6366415E+03  0.7818608E-02  0.9832173E-01
          1   -1    0    0  502    0  0.00000000000E+00  0.00000000000E+00  0.10132984102E+03  0.10132984102E+03  0.00000000000E+00 0.  1.
         13   -1    0    0    0    0 -0.00000000000E+00 -0.00000000000E+00 -0.10000000000E+04  0.10000000000E+04  0.00000000000E+00 0.  1.
    9000005    2    1    2  501    0  0.41823127777E-03  0.38913952835E-04 -0.89867186982E+03  0.11013280794E+04  0.63664150729E+03 0.  0.
         13    1    3    3    0    0 -0.15052983846E+01 -0.25546498226E+03 -0.12082068075E+03  0.28259911532E+03  0.00000000000E+00 0.  1.
          3    1    3    3  501    0  0.15057166159E+01  0.25546502117E+03 -0.77785118908E+03  0.81872896405E+03  0.00000000000E+00 0.  1.
         21    1    1    2  502  501 -0.41823127777E-03 -0.38913952826E-04  0.17108372583E-02  0.17616457708E-02  0.00000000000E+00 0.  1.
<mgrwt>
<rscale>  1 0.63664151E+03</rscale>
<asrwt>0</asrwt>
<pdfrwt beam="1">  1        1 0.36847293E+00 0.63664151E+03</pdfrwt>
<pdfrwt beam="2">0</pdfrwt>
<totfact> 0.18487861E+00</totfact>
</mgrwt>
</event>
<event>
 6    1  0.3786369E-003  0.6454959E+03  0.7818608E-02  0.9815268E-01
          1   -1    0    0  502    0  0.00000000000E+00  0.00000000000E+00  0.10416862414E+03  0.10416862414E+03  0.00000000000E+00 0.  1.
         13   -1    0    0    0    0 -0.00000000000E+00 -0.00000000000E+00 -0.10000000000E+04  0.10000000000E+04  0.00000000000E+00 0.  1.
    9000005    2    1    2  501    0  0.50153542553E-04 -0.19649286077E-03 -0.89583375222E+03  0.11041662391E+04  0.64549591171E+03 0.  0.
         13    1    3    3    0    0 -0.30164866185E+02 -0.11396223657E+03  0.66020418062E+02  0.13511478867E+03  0.00000000000E+00 0.  1.
          1    1    3    3  501    0  0.30164916338E+02  0.11396204008E+03 -0.96185417029E+03  0.96905145047E+03  0.00000000000E+00 0.  1.
         21    1    1    2  502  501 -0.50153542552E-04  0.19649286077E-03  0.23763582030E-02  0.23849954153E-02  0.00000000000E+00 0. -1.
<mgrwt>
<rscale>  1 0.64549591E+03</rscale>
<asrwt>0</asrwt>
<pdfrwt beam="1">  1        1 0.37879580E+00 0.64549591E+03</pdfrwt>
<pdfrwt beam="2">0</pdfrwt>
<totfact> 0.16625413E+00</totfact>
</mgrwt>
</event>
<event>
 6    1  0.3786369E-003  0.6448414E+03  0.7818608E-02  0.9816507E-01
          3   -1    0    0  502    0  0.00000000000E+00  0.00000000000E+00  0.10430692429E+03  0.10430692429E+03  0.00000000000E+00 0.  1.
         13   -1    0    0    0    0 -0.00000000000E+00 -0.00000000000E+00 -0.10000000000E+04  0.10000000000E+04  0.00000000000E+00 0.  1.
    9000005    2    1    2  501    0  0.72892115315E-01 -0.18039305603E+00 -0.89601496674E+03  0.11039308010E+04  0.64484134085E+03 0.  0.
         13    1    3    3    0    0  0.21254747789E+03 -0.10510287178E+03 -0.82223588471E+03  0.85574230590E+03  0.00000000000E+00 0.  1.
          3    1    3    3  501    0 -0.21247458577E+03  0.10492247872E+03 -0.73779082030E+02  0.24818849507E+03  0.00000000000E+00 0.  1.
         21    1    1    2  502  501 -0.72892115315E-01  0.18039305603E+00  0.32189102199E+00  0.37612331113E+00  0.00000000000E+00 0. -1.
<mgrwt>
<rscale>  1 0.64484137E+03</rscale>
<asrwt>0</asrwt>
<pdfrwt beam="1">  1        3 0.37929871E+00 0.64484137E+03</pdfrwt>
<pdfrwt beam="2">0</pdfrwt>
<totfact> 0.76190751E-02</totfact>
</mgrwt>
</event>
<event>
 6    1  0.3786369E-003  0.6479372E+03  0.7818608E-02  0.9810658E-01
          1   -1    0    0  502    0  0.00000000000E+00  0.00000000000E+00  0.10497514063E+03  0.10497514063E+03  0.00000000000E+00 0.  1.
         13   -1    0    0    0    0 -0.00000000000E+00 -0.00000000000E+00 -0.10000000000E+04  0.10000000000E+04  0.00000000000E+00 0.  1.
    9000005    2    1    2  501    0  0.82923576122E-02  0.12134928058E-01 -0.89504123673E+03  0.11049531352E+04  0.64793720018E+03 0.  0.
         13    1    3    3    0    0  0.12056848655E+02 -0.20920117249E+03 -0.86885074317E+03  0.89376289478E+03  0.00000000000E+00 0.  1.
          1    1    3    3  501    0 -0.12048556297E+02  0.20921330741E+03 -0.26190493562E+02  0.21119024045E+03  0.00000000000E+00 0.  1.
         21    1    1    2  502  501 -0.82923576122E-02 -0.12134928058E-01  0.16377360017E-01  0.22005399221E-01  0.00000000000E+00 0.  1.
<mgrwt>
<rscale>  1 0.64793720E+03</rscale>
<asrwt>0</asrwt>
<pdfrwt beam="1">  1        1 0.38172859E+00 0.64793720E+03</pdfrwt>
<pdfrwt beam="2">0</pdfrwt>
<totfact> 0.16130048E+00</totfact>
</mgrwt>
</event>
<event>
 6    1  0.3786369E-003  0.6447033E+03  0.7818608E-02  0.9816769E-01
          1   -1    0    0  502    0  0.00000000000E+00  0.00000000000E+00  0.10392915836E+03  0.10392915836E+03  0.00000000000E+00 0.  1.
         13   -1    0    0    0    0 -0.00000000000E+00 -0.00000000000E+00 -0.10000000000E+04  0.10000000000E+04  0.00000000000E+00 0.  1.
    9000005    2    1    2  501    0  0.94227117835E-03 -0.19503165815E-01 -0.89608358837E+03  0.11039058401E+04  0.64470326981E+03 0.  0.
         13    1    3    3    0    0  0.46954447192E+01  0.27701524548E+03 -0.16591750660E+03  0.32293670034E+03  0.00000000000E+00 0.  1.
          3    1    3    3  501    0 -0.46945024480E+01 -0.27703474864E+03 -0.73016608177E+03  0.78096913977E+03  0.00000000000E+00 0.  1.
         21    1    1    2  502  501 -0.94227117835E-03  0.19503165815E-01  0.12746728867E-01  0.23318242828E-01  0.00000000000E+00 0. -1.
<mgrwt>
<rscale>  1 0.64470327E+03</rscale>
<asrwt>0</asrwt>
<pdfrwt beam="1">  1        1 0.37792501E+00 0.64470327E+03</pdfrwt>
<pdfrwt beam="2">0</pdfrwt>
<totfact> 0.16775470E+00</totfact>
</mgrwt>
</event>
<event>
 6    1  0.3786369E-003  0.6580938E+03  0.7818608E-02  0.9791709E-01
          1   -1    0    0  502    0  0.00000000000E+00  0.00000000000E+00  0.10828892789E+03  0.10828892789E+03  0.00000000000E+00 0.  1.
         13   -1    0    0    0    0 -0.00000000000E+00 -0.00000000000E+00 -0.10000000000E+04  0.10000000000E+04  0.00000000000E+00 0.  1.
    9000005    2    1    2  501    0  0.15150342688E-03 -0.40072850931E-03 -0.89172812787E+03  0.11082718668E+04  0.65809382052E+03 0.  0.
         13    1    3    3    0    0  0.30002660272E+03 -0.10517670940E+03 -0.30302770732E+03  0.43920825805E+03  0.00000000000E+00 0.  1.
          3    1    3    3  501    0 -0.30002645121E+03  0.10517630867E+03 -0.58870042055E+03  0.66906360870E+03  0.00000000000E+00 0.  1.
         21    1    1    2  502  501 -0.15150342684E-03  0.40072850931E-03  0.17055760380E-01  0.17061140019E-01  0.00000000000E+00 0.  1.
<mgrwt>
<rscale>  1 0.65809382E+03</rscale>
<asrwt>0</asrwt>
<pdfrwt beam="1">  1        1 0.39377875E+00 0.65809382E+03</pdfrwt>
<pdfrwt beam="2">0</pdfrwt>
<totfact> 0.14237743E+00</totfact>
</mgrwt>
</event>
<event>
 6    1  0.3786369E-003  0.6531423E+03  0.7818608E-02  0.9800901E-01
          3   -1    0    0  502    0  0.00000000000E+00  0.00000000000E+00  0.10701984343E+03  0.10701984343E+03  0.00000000000E+00 0.  1.
         13   -1    0    0    0    0 -0.00000000000E+00 -0.00000000000E+00 -0.10000000000E+04  0.10000000000E+04  0.00000000000E+00 0.  1.
    9000005    2    1    2  501    0  0.13260164262E+00 -0.64071843665E-01 -0.89333504414E+03  0.11066356123E+04  0.65314229350E+03 0.  0.
         13    1    3    3    0    0 -0.40137667308E+02 -0.26645680004E+03 -0.75934082815E+03  0.80573491417E+03  0.00000000000E+00 0.  1.
          1    1    3    3  501    0  0.40270268950E+02  0.26639272819E+03 -0.13399421600E+03  0.30090069810E+03  0.00000000000E+00 0.  1.
         21    1    1    2  502  501 -0.13260164262E+00  0.64071843665E-01  0.35488757125E+00  0.38423116090E+00  0.00000000000E+00 0. -1.
<mgrwt>
<rscale>  1 0.65314231E+03</rscale>
<asrwt>0</asrwt>
<pdfrwt beam="1">  1        3 0.38916389E+00 0.65314231E+03</pdfrwt>
<pdfrwt beam="2">0</pdfrwt>
<totfact> 0.67496081E-02</totfact>
</mgrwt>
</event>
<event>
 6    1  0.3786369E-003  0.6574688E+03  0.7818608E-02  0.9792865E-01
          1   -1    0    0  502    0  0.00000000000E+00  0.00000000000E+00  0.10903497807E+03  0.10903497807E+03  0.00000000000E+00 0.  1.
         13   -1    0    0    0    0 -0.00000000000E+00 -0.00000000000E+00 -0.10000000000E+04  0.10000000000E+04  0.00000000000E+00 0.  1.
    9000005    2    1    2  501    0  0.26234755524E+00  0.22885746794E+00 -0.89189891766E+03  0.11080383020E+04  0.65746868986E+03 0.  0.
         13    1    3    3    0    0 -0.29227264931E+03  0.13857856764E+03 -0.34767429862E+03  0.47487339246E+03  0.00000000000E+00 0.  1.
          1    1    3    3  501    0  0.29253499686E+03 -0.13834971017E+03 -0.54422461904E+03  0.63316490953E+03  0.00000000000E+00 0.  1.
         21    1    1    2  502  501 -0.26234755524E+00 -0.22885746794E+00  0.93389572811E+00  0.99667608146E+00  0.00000000000E+00 0. -1.
<mgrwt>
<rscale>  1 0.65746878E+03</rscale>
<asrwt>0</asrwt>
<pdfrwt beam="1">  1        1 0.39649167E+00 0.65746878E+03</pdfrwt>
<pdfrwt beam="2">0</pdfrwt>
<totfact> 0.13849293E+00</totfact>
</mgrwt>
</event>
<event>
 6    1  0.3786369E-003  0.6427674E+03  0.7818608E-02  0.9820446E-01
          1   -1    0    0  502    0  0.00000000000E+00  0.00000000000E+00  0.10331063420E+03  0.10331063420E+03  0.00000000000E+00 0.  1.
         13   -1    0    0    0    0 -0.00000000000E+00 -0.00000000000E+00 -0.10000000000E+04  0.10000000000E+04  0.00000000000E+00 0.  1.
    9000005    2    1    2  501    0  0.31812041777E-03  0.38563388637E-03 -0.89671250087E+03  0.11032874937E+04  0.64276744208E+03 0.  0.
         13    1    3    3    0    0  0.46895945431E+02 -0.30780899982E+03 -0.58504720424E+03  0.66274115706E+03  0.00000000000E+00 0.  1.
          1    1    3    3  501    0 -0.46895627311E+02  0.30780938545E+03 -0.31166529663E+03  0.44054633667E+03  0.00000000000E+00 0.  1.
         21    1    1    2  502  501 -0.31812041777E-03 -0.38563388634E-03  0.23135070684E-01  0.23140471250E-01  0.00000000000E+00 0. -1.
<mgrwt>
<rscale>  1 0.64276744E+03</rscale>
<asrwt>0</asrwt>
<pdfrwt beam="1">  1        1 0.37567583E+00 0.64276744E+03</pdfrwt>
<pdfrwt beam="2">0</pdfrwt>
<totfact> 0.17168703E+00</totfact>
</mgrwt>
</event>
<event>
 6    1  0.3786369E-003  0.6439687E+03  0.7818608E-02  0.9818163E-01
          1   -1    0    0  502    0  0.00000000000E+00  0.00000000000E+00  0.10614309848E+03  0.10614309848E+03  0.00000000000E+00 0.  1.
         13   -1    0    0    0    0 -0.00000000000E+00 -0.00000000000E+00 -0.10000000000E+04  0.10000000000E+04  0.00000000000E+00 0.  1.
    9000005    2    1    2  501    0  0.60778183765E-01 -0.70855879889E-01 -0.89632509839E+03  0.11036731369E+04  0.64396871223E+03 0.  0.
         13    1    3    3    0    0  0.23097449454E+03  0.22416290390E+03 -0.46288716926E+03  0.56379318555E+03  0.00000000000E+00 0.  1.
          1    1    3    3  501    0 -0.23091371635E+03 -0.22423375978E+03 -0.43343792913E+03  0.53987995132E+03  0.00000000000E+00 0.  1.
         21    1    1    2  502  501 -0.60778183765E-01  0.70855879889E-01  0.24681968764E+01  0.24699616118E+01  0.00000000000E+00 0.  1.
<mgrwt>
<rscale>  1 0.64396872E+03</rscale>
<asrwt>0</asrwt>
<pdfrwt beam="1">  1        1 0.38597572E+00 0.64396872E+03</pdfrwt>
<pdfrwt beam="2">0</pdfrwt>
<totfact> 0.15459033E+00</totfact>
</mgrwt>
</event>
<event>
 6    1  0.3786369E-003  0.6256116E+03  0.7818608E-02  0.9853650E-01
          1   -1    0    0  502    0  0.00000000000E+00  0.00000000000E+00  0.97908741101E+02  0.97908741101E+02  0.00000000000E+00 0.  1.
         13   -1    0    0    0    0 -0.00000000000E+00 -0.00000000000E+00 -0.10000000000E+04  0.10000000000E+04  0.00000000000E+00 0.  1.
    9000005    2    1    2  501    0 -0.17810727874E-01 -0.31226943154E-01 -0.90214670339E+03  0.10978426621E+04  0.62561156877E+03 0.  0.
         13    1    3    3    0    0 -0.27413275269E+03 -0.69297585671E+02 -0.68589349699E+03  0.74189002601E+03  0.00000000000E+00 0.  1.
          1    1    3    3  501    0  0.27411494196E+03  0.69266358728E+02 -0.21625320640E+03  0.35595263608E+03  0.00000000000E+00 0.  1.
         21    1    1    2  502  501  0.17810727874E-01  0.31226943154E-01  0.55444490256E-01  0.66079009571E-01  0.00000000000E+00 0. -1.
<mgrwt>
<rscale>  1 0.62561157E+03</rscale>
<asrwt>0</asrwt>
<pdfrwt beam="1">  1        1 0.35603254E+00 0.62561157E+03</pdfrwt>
<pdfrwt beam="2">0</pdfrwt>
<totfact> 0.20999615E+00</totfact>
</mgrwt>
</event>
<event>
 6    1  0.3786369E-003  0.6272865E+03  0.7818608E-02  0.9850358E-01
          1   -1    0    0  502    0  0.00000000000E+00  0.00000000000E+00  0.98490210095E+02  0.98490210095E+02  0.00000000000E+00 0.  1.
         13   -1    0    0    0    0 -0.00000000000E+00 -0.00000000000E+00 -0.10000000000E+04  0.10000000000E+04  0.00000000000E+00 0.  1.
    9000005    2    1    2  501    0  0.18374083122E+00 -0.33896229621E-03 -0.90154411623E+03  0.10983032900E+04  0.62728644944E+03 0.  0.
         13    1    3    3    0    0 -0.14408737868E+03 -0.24418793598E+03 -0.68533437885E+03  0.74166847823E+03  0.00000000000E+00 0.  1.
          1    1    3    3  501    0  0.14427111951E+03  0.24418759702E+03 -0.21620973738E+03  0.35663481182E+03  0.00000000000E+00 0.  1.
         21    1    1    2  502  501 -0.18374083122E+00  0.33896229621E-03  0.34326325044E-01  0.18692004854E+00  0.00000000000E+00 0. -1.
<mgrwt>
<rscale>  1 0.62728648E+03</rscale>
<asrwt>0</asrwt>
<pdfrwt beam="1">  1        1 0.35814697E+00 0.62728648E+03</pdfrwt>
<pdfrwt beam="2">0</pdfrwt>
<totfact> 0.20551493E+00</totfact>
</mgrwt>
</event>
<event>
 6    1  0.3786369E-003  0.6496357E+03  0.7818608E-02  0.9807463E-01
          1   -1    0    0  502    0  0.00000000000E+00  0.00000000000E+00  0.10550824269E+03  0.10550824269E+03  0.00000000000E+00 0.  1.
         13   -1    0    0    0    0 -0.00000000000E+00 -0.00000000000E+00 -0.10000000000E+04  0.10000000000E+04  0.00000000000E+00 0.  1.
    9000005    2    1    2  501    0 -0.25569898294E-02  0.24137245915E-02 -0.89449084018E+03  0.11055046088E+04  0.64963572626E+03 0.  0.
         13    1    3    3    0    0  0.25644398746E+03 -0.14059222616E+03 -0.20672704808E+03  0.35814210192E+03  0.00000000000E+00 0.  1.
          3    1    3    3  501    0 -0.25644654445E+03  0.14059463988E+03 -0.68776379210E+03  0.74736250685E+03  0.00000000000E+00 0.  1.
         21    1    1    2  502  501  0.25569898294E-02 -0.24137245915E-02 -0.91712619777E-03  0.36339212778E-02  0.00000000000E+00 0.  1.
<mgrwt>
<rscale>  1 0.64963573E+03</rscale>
<asrwt>0</asrwt>
<pdfrwt beam="1">  1        1 0.38366715E+00 0.64963573E+03</pdfrwt>
<pdfrwt beam="2">0</pdfrwt>
<totfact> 0.15810112E+00</totfact>
</mgrwt>
</event>
<event>
 6    1  0.3786369E-003  0.6509421E+03  0.7818608E-02  0.9805013E-01
          1   -1    0    0  502    0  0.00000000000E+00  0.00000000000E+00  0.10639009401E+03  0.10639009401E+03  0.00000000000E+00 0.  1.
         13   -1    0    0    0    0 -0.00000000000E+00 -0.00000000000E+00 -0.10000000000E+04  0.10000000000E+04  0.00000000000E+00 0.  1.
    9000005    2    1    2  501    0  0.41669981717E-01 -0.44270352990E+00 -0.89394628792E+03  0.11058325318E+04  0.65094195210E+03 0.  0.
         13    1    3    3    0    0 -0.31430239526E+02  0.29615609772E+03 -0.22452709794E+03  0.37297280314E+03  0.00000000000E+00 0.  1.
          3    1    3    3  501    0  0.31471909508E+02 -0.29659880125E+03 -0.66941918998E+03  0.73285972867E+03  0.00000000000E+00 0.  1.
         21    1    1    2  502  501 -0.41669981717E-01  0.44270352990E+00  0.33638193428E+00  0.55756220144E+00  0.00000000000E+00 0. -1.
<mgrwt>
<rscale>  1 0.65094210E+03</rscale>
<asrwt>0</asrwt>
<pdfrwt beam="1">  1        1 0.38687388E+00 0.65094210E+03</pdfrwt>
<pdfrwt beam="2">0</pdfrwt>
<totfact> 0.15298335E+00</totfact>
</mgrwt>
</event>
<event>
 6    1  0.5358780E-003  0.6555252E+03  0.7818608E-02  0.9796466E-01
          1   -1    0    0  502    0  0.00000000000E+00  0.00000000000E+00  0.10742832897E+03  0.10742832897E+03  0.00000000000E+00 0.  1.
         13   -1    0    0    0    0 -0.00000000000E+00 -0.00000000000E+00 -0.10000000000E+04  0.10000000000E+04  0.00000000000E+00 0.  1.
    9000005    2    1    2  501    0  0.42660378199E-05 -0.36880010157E-08 -0.89257166696E+03  0.11074283231E+04  0.65552521698E+03 0.  0.
         13    1    3    3    0    0 -0.18129333926E+03 -0.26706856221E+03 -0.54237901093E+03  0.63116391158E+03  0.00000000000E+00 0.  1.
          3    1    3    3  501    0  0.18129334352E+03  0.26706856221E+03 -0.35019265603E+03  0.47626441150E+03  0.00000000000E+00 0.  1.
         21    1    1    2  502  501 -0.42660378001E-05  0.36880247685E-08 -0.40641899512E-05  0.58920906369E-05  0.00000000000E+00 0.  1.
<mgrwt>
<rscale>  1 0.65552522E+03</rscale>
<asrwt>0</asrwt>
<pdfrwt beam="1">  1        1 0.39064929E+00 0.65552522E+03</pdfrwt>
<pdfrwt beam="2">0</pdfrwt>
<totfact> 0.14707653E+00</totfact>
</mgrwt>
</event>
<event>
 6    1  0.3786369E-003  0.6360396E+03  0.7818608E-02  0.9833333E-01
          1   -1    0    0  502    0  0.00000000000E+00  0.00000000000E+00  0.10122142300E+03  0.10122142300E+03  0.00000000000E+00 0.  1.
         13   -1    0    0    0    0 -0.00000000000E+00 -0.00000000000E+00 -0.10000000000E+04  0.10000000000E+04  0.00000000000E+00 0.  1.
    9000005    2    1    2  501    0 -0.16870687554E-01  0.12727947571E-01 -0.89886194815E+03  0.11011354150E+04  0.63603962138E+03 0.  0.
         13    1    3    3    0    0 -0.64044710559E+02 -0.11312940578E+03  0.53035131341E+02  0.14040196779E+03  0.00000000000E+00 0.  1.
          1    1    3    3  501    0  0.64027839871E+02  0.11314213373E+03 -0.95189707949E+03  0.96073344724E+03  0.00000000000E+00 0.  1.
         21    1    1    2  502  501  0.16870687554E-01 -0.12727947571E-01  0.83371149449E-01  0.86007960727E-01  0.00000000000E+00 0.  1.
<mgrwt>
<rscale>  1 0.63603962E+03</rscale>
<asrwt>0</asrwt>
<pdfrwt beam="1">  1        1 0.36807868E+00 0.63603962E+03</pdfrwt>
<pdfrwt beam="2">0</pdfrwt>
<totfact> 0.18563693E+00</totfact>
</mgrwt>
</event>
<event>
 6    1  0.3786369E-003  0.6439297E+03  0.7818608E-02  0.9818237E-01
          1   -1    0    0  502    0  0.00000000000E+00  0.00000000000E+00  0.13444439012E+03  0.13444439012E+03  0.00000000000E+00 0.  1.
         13   -1    0    0    0    0 -0.00000000000E+00 -0.00000000000E+00 -0.10000000000E+04  0.10000000000E+04  0.00000000000E+00 0.  1.
    9000005    2    1    2  501    0  0.29886171305E+01 -0.66408837582E+01 -0.89586256191E+03  0.11032747814E+04  0.64388856192E+03 0.  0.
         13    1    3    3    0    0 -0.12499425760E+03 -0.21099993988E+03 -0.88580611565E+02  0.26075096128E+03  0.00000000000E+00 0.  1.
          3    1    3    3  501    0  0.12798287473E+03  0.20435905612E+03 -0.80728195034E+03  0.84252382008E+03  0.00000000000E+00 0.  1.
         21    1    1    2  502  501 -0.29886171305E+01  0.66408837582E+01  0.30306952025E+02  0.31169608764E+02  0.00000000000E+00 0. -1.
<mgrwt>
<rscale>  1 0.64392974E+03</rscale>
<asrwt>0</asrwt>
<pdfrwt beam="1">  1        1 0.48888972E+00 0.64392974E+03</pdfrwt>
<pdfrwt beam="2">0</pdfrwt>
<totfact> 0.52326619E-01</totfact>
</mgrwt>
</event>
<event>
 6    1  0.3786369E-003  0.6485432E+03  0.7818608E-02  0.9809517E-01
          1   -1    0    0  502    0  0.00000000000E+00  0.00000000000E+00  0.10536026121E+03  0.10536026121E+03  0.00000000000E+00 0.  1.
         13   -1    0    0    0    0 -0.00000000000E+00 -0.00000000000E+00 -0.10000000000E+04  0.10000000000E+04  0.00000000000E+00 0.  1.
    9000005    2    1    2  501    0 -0.25109767341E+00  0.51775628031E+00 -0.89423873676E+03  0.11046588881E+04  0.64854298981E+03 0.  0.
         13    1    3    3    0    0 -0.19433464460E+03 -0.53640848225E+02 -0.14481637719E+02  0.20212128172E+03  0.00000000000E+00 0.  1.
          1    1    3    3  501    0  0.19408354693E+03  0.54158604505E+02 -0.87975709904E+03  0.90253760639E+03  0.00000000000E+00 0.  1.
         21    1    1    2  502  501  0.25109767341E+00 -0.51775628031E+00 -0.40100202646E+00  0.70137310514E+00  0.00000000000E+00 0.  1.
<mgrwt>
<rscale>  1 0.64854325E+03</rscale>
<asrwt>0</asrwt>
<pdfrwt beam="1">  1        1 0.38312903E+00 0.64854325E+03</pdfrwt>
<pdfrwt beam="2">0</pdfrwt>
<totfact> 0.15900131E+00</totfact>
</mgrwt>
</event>
<event>
 6    1  0.3786369E-003  0.6515485E+03  0.7818608E-02  0.9803878E-01
          3   -1    0    0  502    0  0.00000000000E+00  0.00000000000E+00  0.10612887177E+03  0.10612887177E+03  0.00000000000E+00 0.  1.
         13   -1    0    0    0    0 -0.00000000000E+00 -0.00000000000E+00 -0.10000000000E+04  0.10000000000E+04  0.00000000000E+00 0.  1.
    9000005    2    1    2  501    0  0.71666527504E-05 -0.32548173294E-05 -0.89387112839E+03  0.11061288639E+04  0.65154851651E+03 0.  0.
         13    1    3    3    0    0  0.18625667621E+03 -0.69618731342E+02 -0.88502751589E+03  0.90708986383E+03  0.00000000000E+00 0.  1.
          3    1    3    3  501    0 -0.18625666905E+03  0.69618728088E+02 -0.88436125031E+01  0.19903900006E+03  0.00000000000E+00 0.  1.
         21    1    1    2  502  501 -0.71666527505E-05  0.32548173300E-05  0.15582020120E-06  0.78726760020E-05  0.00000000000E+00 0.  1.
<mgrwt>
<rscale>  1 0.65154852E+03</rscale>
<asrwt>0</asrwt>
<pdfrwt beam="1">  1        3 0.38592398E+00 0.65154852E+03</pdfrwt>
<pdfrwt beam="2">0</pdfrwt>
<totfact> 0.70219560E-02</totfact>
</mgrwt>
</event>
<event>
 6    1  0.3786369E-003  0.6518293E+03  0.7818608E-02  0.9803353E-01
          1   -1    0    0  502    0  0.00000000000E+00  0.00000000000E+00  0.10957145218E+03  0.10957145218E+03  0.00000000000E+00 0.  1.
         13   -1    0    0    0    0 -0.00000000000E+00 -0.00000000000E+00 -0.10000000000E+04  0.10000000000E+04  0.00000000000E+00 0.  1.
    9000005    2    1    2  501    0 -0.49131008217E+01  0.67245446861E+00 -0.89161543487E+03  0.11044724861E+04  0.65181040034E+03 0.  0.
         13    1    3    3    0    0 -0.10283012755E+03 -0.24142502465E+03 -0.77545941994E+03  0.81865584322E+03  0.00000000000E+00 0.  1.
          1    1    3    3  501    0  0.97917026725E+02  0.24209747911E+03 -0.11615601493E+03  0.28581664283E+03  0.00000000000E+00 0.  1.
         21    1    1    2  502  501  0.49131008217E+01 -0.67245446861E+00  0.11868870508E+01  0.50989661274E+01  0.00000000000E+00 0. -1.
<mgrwt>
<rscale>  1 0.65182926E+03</rscale>
<asrwt>0</asrwt>
<pdfrwt beam="1">  1        1 0.39844248E+00 0.65182926E+03</pdfrwt>
<pdfrwt beam="2">0</pdfrwt>
<totfact> 0.13589505E+00</totfact>
</mgrwt>
</event>
<event>
 6    1  0.3786369E-003  0.6166228E+03  0.7818608E-02  0.9871507E-01
          1   -1    0    0  502    0  0.00000000000E+00  0.00000000000E+00  0.95449849401E+02  0.95449849401E+02  0.00000000000E+00 0.  1.
         13   -1    0    0    0    0 -0.00000000000E+00 -0.00000000000E+00 -0.10000000000E+04  0.10000000000E+04  0.00000000000E+00 0.  1.
    9000005    2    1    2  501    0  0.27094981761E+00 -0.26243045264E+00 -0.90484293461E+03  0.10949723496E+04  0.61662271112E+03 0.  0.
         13    1    3    3    0    0  0.54418926792E+02 -0.12253717721E+03  0.40622626182E+02  0.14009631383E+03  0.00000000000E+00 0.  1.
          1    1    3    3  501    0 -0.54147976974E+02  0.12227474676E+03 -0.94546556079E+03  0.95487603580E+03  0.00000000000E+00 0.  1.
         21    1    1    2  502  501 -0.27094981761E+00  0.26243045264E+00  0.29278401362E+00  0.47749976415E+00  0.00000000000E+00 0.  1.
<mgrwt>
<rscale>  1 0.61662283E+03</rscale>
<asrwt>0</asrwt>
<pdfrwt beam="1">  1        1 0.34709109E+00 0.61662283E+03</pdfrwt>
<pdfrwt beam="2">0</pdfrwt>
<totfact> 0.23008751E+00</totfact>
</mgrwt>
</event>
<event>
 6    1  0.3786369E-003  0.6496682E+03  0.7818608E-02  0.9807402E-01
          1   -1    0    0  502    0  0.00000000000E+00  0.00000000000E+00  0.10733611494E+03  0.10733611494E+03  0.00000000000E+00 0.  1.
         13   -1    0    0    0    0 -0.00000000000E+00 -0.00000000000E+00 -0.10000000000E+04  0.10000000000E+04  0.00000000000E+00 0.  1.
    9000005    2    1    2  501    0 -0.89797110890E+00 -0.33397054209E+00 -0.89434228418E+03  0.11054035229E+04  0.64966753747E+03 0.  0.
         13    1    3    3    0    0 -0.13494721661E+03 -0.22702393798E+03 -0.12491768201E+03  0.29215586074E+03  0.00000000000E+00 0.  1.
          1    1    3    3  501    0  0.13404924550E+03  0.22668996744E+03 -0.76942460217E+03  0.81324766215E+03  0.00000000000E+00 0.  1.
         21    1    1    2  502  501  0.89797110890E+00  0.33397054209E+00  0.16783991242E+01  0.19325920562E+01  0.00000000000E+00 0. -1.
<mgrwt>
<rscale>  1 0.64966824E+03</rscale>
<asrwt>0</asrwt>
<pdfrwt beam="1">  1        1 0.39031397E+00 0.64966824E+03</pdfrwt>
<pdfrwt beam="2">0</pdfrwt>
<totfact> 0.14774207E+00</totfact>
</mgrwt>
</event>
<event>
 6    1  0.3786369E-003  0.4671635E+03  0.7818608E-02  0.1022724E+00
          1   -1    0    0  502    0  0.00000000000E+00  0.00000000000E+00  0.54560871990E+02  0.54560871990E+02  0.00000000000E+00 0.  1.
         13   -1    0    0    0    0 -0.00000000000E+00 -0.00000000000E+00 -0.10000000000E+04  0.10000000000E+04  0.00000000000E+00 0.  1.
    9000005    2    1    2  501    0  0.98219271905E-04 -0.88372843550E-04 -0.94543954358E+03  0.10545604359E+04  0.46716354999E+03 0.  0.
         13    1    3    3    0    0 -0.17334422837E+03 -0.10011574508E+03 -0.74444031576E+03  0.77088440615E+03  0.00000000000E+00 0.  1.
          1    1    3    3  501    0  0.17334432659E+03  0.10011565671E+03 -0.20099922782E+03  0.28367602977E+03  0.00000000000E+00 0.  1.
         21    1    1    2  502  501 -0.98219271913E-04  0.88372843553E-04  0.41557272816E-03  0.43607049573E-03  0.00000000000E+00 0.  1.
<mgrwt>
<rscale>  1 0.46716355E+03</rscale>
<asrwt>0</asrwt>
<pdfrwt beam="1">  1        1 0.19840359E+00 0.46716355E+03</pdfrwt>
<pdfrwt beam="2">0</pdfrwt>
<totfact> 0.10507455E+01</totfact>
</mgrwt>
</event>
<event>
 6    1  0.3786369E-003  0.6761918E+03  0.7818608E-02  0.9758836E-01
          1   -1    0    0  502    0  0.00000000000E+00  0.00000000000E+00  0.11431476248E+03  0.11431476248E+03  0.00000000000E+00 0.  1.
         13   -1    0    0    0    0 -0.00000000000E+00 -0.00000000000E+00 -0.10000000000E+04  0.10000000000E+04  0.00000000000E+00 0.  1.
    9000005    2    1    2  501    0  0.33341930336E-02 -0.56260977212E-02 -0.88568906540E+03  0.11143071847E+04  0.67619182286E+03 0.  0.
         13    1    3    3    0    0  0.85832846920E+02  0.22947337711E+03 -0.82678409289E+03  0.86232084787E+03  0.00000000000E+00 0.  1.
          3    1    3    3  501    0 -0.85829512727E+02 -0.22947900321E+03 -0.58904972507E+02  0.25198633684E+03  0.00000000000E+00 0.  1.
         21    1    1    2  502  501 -0.33341930336E-02  0.56260977212E-02  0.38278810798E-02  0.75777630153E-02  0.00000000000E+00 0.  1.
<mgrwt>
<rscale>  1 0.67619182E+03</rscale>
<asrwt>0</asrwt>
<pdfrwt beam="1">  1        1 0.41569092E+00 0.67619182E+03</pdfrwt>
<pdfrwt beam="2">0</pdfrwt>
<totfact> 0.11323269E+00</totfact>
</mgrwt>
</event>
<event>
 6    1  0.3786369E-003  0.6532309E+03  0.7818608E-02  0.9800736E-01
          1   -1    0    0  502    0  0.00000000000E+00  0.00000000000E+00  0.10669608538E+03  0.10669608538E+03  0.00000000000E+00 0.  1.
         13   -1    0    0    0    0 -0.00000000000E+00 -0.00000000000E+00 -0.10000000000E+04  0.10000000000E+04  0.00000000000E+00 0.  1.
    9000005    2    1    2  501    0  0.15156351373E-01  0.19266294564E-01 -0.89331287992E+03  0.11066699840E+04  0.65323085618E+03 0.  0.
         13    1    3    3    0    0  0.21962569659E+03  0.19712185695E+03 -0.20953723480E+03  0.36193690867E+03  0.00000000000E+00 0.  1.
          3    1    3    3  501    0 -0.21961054024E+03 -0.19710259066E+03 -0.68377564513E+03  0.74473307534E+03  0.00000000000E+00 0.  1.
         21    1    1    2  502  501 -0.15156351373E-01 -0.19266294564E-01  0.89653065398E-02  0.26101375721E-01  0.00000000000E+00 0.  1.
<mgrwt>
<rscale>  1 0.65323086E+03</rscale>
<asrwt>0</asrwt>
<pdfrwt beam="1">  1        1 0.38798658E+00 0.65323086E+03</pdfrwt>
<pdfrwt beam="2">0</pdfrwt>
<totfact> 0.15119323E+00</totfact>
</mgrwt>
</event>
<event>
 6    1  0.3786369E-003  0.6565806E+03  0.7818608E-02  0.9794509E-01
          1   -1    0    0  502    0  0.00000000000E+00  0.00000000000E+00  0.13296719946E+03  0.13296719946E+03  0.00000000000E+00 0.  1.
         13   -1    0    0    0    0 -0.00000000000E+00 -0.00000000000E+00 -0.10000000000E+04  0.10000000000E+04  0.00000000000E+00 0.  1.
    9000005    2    1    2  501    0 -0.15878901493E+02  0.50154407661E+02 -0.85667849860E+03  0.10793498917E+04  0.65446965910E+03 0.  0.
         13    1    3    3    0    0  0.30595541493E+03  0.11749815999E+03 -0.42212060241E+03  0.53441588347E+03  0.00000000000E+00 0.  1.
          3    1    3    3  501    0 -0.32183431643E+03 -0.67343752332E+02 -0.43455789619E+03  0.54493400825E+03  0.00000000000E+00 0.  1.
         21    1    1    2  502  501  0.15878901493E+02 -0.50154407661E+02 -0.10354301940E+02  0.53617307739E+02  0.00000000000E+00 0.  1.
<mgrwt>
<rscale>  1 0.65658064E+03</rscale>
<asrwt>0</asrwt>
<pdfrwt beam="1">  1        1 0.48351811E+00 0.65658064E+03</pdfrwt>
<pdfrwt beam="2">0</pdfrwt>
<totfact> 0.55335153E-01</totfact>
</mgrwt>
</event>
<event>
 6    1  0.3786369E-003  0.6447511E+03  0.7818608E-02  0.9816679E-01
          1   -1    0    0  502    0  0.00000000000E+00  0.00000000000E+00  0.10392696079E+03  0.10392696079E+03  0.00000000000E+00 0.  1.
         13   -1    0    0    0    0 -0.00000000000E+00 -0.00000000000E+00 -0.10000000000E+04  0.10000000000E+04  0.00000000000E+00 0.  1.
    9000005    2    1    2  501    0 -0.19304408985E-02 -0.12262513319E-02 -0.89607223036E+03  0.11039245350E+04  0.64475106585E+03 0.  0.
         13    1    3    3    0    0 -0.24258183318E+03  0.89080790029E+01 -0.81124817746E+03  0.84678740253E+03  0.00000000000E+00 0.  1.
          1    1    3    3  501    0  0.24257990274E+03 -0.89093052542E+01 -0.84824052900E+02  0.25713713245E+03  0.00000000000E+00 0.  1.
         21    1    1    2  502  501  0.19304408986E-02  0.12262513319E-02 -0.80885353532E-03  0.24258067593E-02  0.00000000000E+00 0.  1.
<mgrwt>
<rscale>  1 0.64475107E+03</rscale>
<asrwt>0</asrwt>
<pdfrwt beam="1">  1        1 0.37791702E+00 0.64475107E+03</pdfrwt>
<pdfrwt beam="2">0</pdfrwt>
<totfact> 0.16776684E+00</totfact>
</mgrwt>
</event>
<event>
 6    1  0.3786369E-003  0.6484347E+03  0.7818608E-02  0.9809721E-01
          1   -1    0    0  502    0  0.00000000000E+00  0.00000000000E+00  0.10527185028E+03  0.10527185028E+03  0.00000000000E+00 0.  1.
         13   -1    0    0    0    0 -0.00000000000E+00 -0.00000000000E+00 -0.10000000000E+04  0.10000000000E+04  0.00000000000E+00 0.  1.
    9000005    2    1    2  501    0 -0.30070231949E+00 -0.20256018419E+00 -0.89459924576E+03  0.11048870533E+04  0.64843462162E+03 0.  0.
         13    1    3    3    0    0  0.72076370761E+01  0.31175995032E+03 -0.59769868361E+03  0.67415868535E+03  0.00000000000E+00 0.  1.
          1    1    3    3  501    0 -0.75083393956E+01 -0.31196251050E+03 -0.29690056215E+03  0.43072836791E+03  0.00000000000E+00 0.  1.
         21    1    1    2  502  501  0.30070231949E+00  0.20256018419E+00 -0.12890395783E+00  0.38479701599E+00  0.00000000000E+00 0.  1.
<mgrwt>
<rscale>  1 0.64843472E+03</rscale>
<asrwt>0</asrwt>
<pdfrwt beam="1">  1        1 0.38280754E+00 0.64843472E+03</pdfrwt>
<pdfrwt beam="2">0</pdfrwt>
<totfact> 0.15952545E+00</totfact>
</mgrwt>
</event>
<event>
 6    1  0.3786369E-003  0.6448837E+03  0.7818608E-02  0.9816427E-01
          1   -1    0    0  502    0  0.00000000000E+00  0.00000000000E+00  0.10397003949E+03  0.10397003949E+03  0.00000000000E+00 0.  1.
         13   -1    0    0    0    0 -0.00000000000E+00 -0.00000000000E+00 -0.10000000000E+04  0.10000000000E+04  0.00000000000E+00 0.  1.
    9000005    2    1    2  501    0 -0.23832538197E-04 -0.15018454421E-03 -0.89603124857E+03  0.11039687425E+04  0.64488369957E+03 0.  0.
         13    1    3    3    0    0 -0.39556131029E+02  0.26590096820E+01  0.99780518736E+02  0.10736810399E+03  0.00000000000E+00 0.  1.
          3    1    3    3  501    0  0.39556107196E+02 -0.26591598665E+01 -0.99581176731E+03  0.99660063850E+03  0.00000000000E+00 0.  1.
         21    1    1    2  502  501  0.23832538198E-04  0.15018454421E-03  0.12880637403E-02  0.12970087071E-02  0.00000000000E+00 0. -1.
<mgrwt>
<rscale>  1 0.64488370E+03</rscale>
<asrwt>0</asrwt>
<pdfrwt beam="1">  1        1 0.37807367E+00 0.64488370E+03</pdfrwt>
<pdfrwt beam="2">0</pdfrwt>
<totfact> 0.16749623E+00</totfact>
</mgrwt>
</event>
<event>
 6    1  0.3786369E-003  0.6505985E+03  0.7818608E-02  0.9805657E-01
          1   -1    0    0  502    0  0.00000000000E+00  0.00000000000E+00  0.10582511050E+03  0.10582511050E+03  0.00000000000E+00 0.  1.
         13   -1    0    0    0    0 -0.00000000000E+00 -0.00000000000E+00 -0.10000000000E+04  0.10000000000E+04  0.00000000000E+00 0.  1.
    9000005    2    1    2  501    0  0.92735612651E-03 -0.57498933705E-03 -0.89418032926E+03  0.11058195624E+04  0.65059852699E+03 0.  0.
         13    1    3    3    0    0  0.21402721264E+03  0.55431485346E+02 -0.85267183404E+03  0.88086863600E+03  0.00000000000E+00 0.  1.
          3    1    3    3  501    0 -0.21402628528E+03 -0.55432060335E+02 -0.41508495214E+02  0.22495092638E+03  0.00000000000E+00 0.  1.
         21    1    1    2  502  501 -0.92735612650E-03  0.57498933705E-03  0.54397620764E-02  0.55481180207E-02  0.00000000000E+00 0.  1.
<mgrwt>
<rscale>  1 0.65059853E+03</rscale>
<asrwt>0</asrwt>
<pdfrwt beam="1">  1        1 0.38481940E+00 0.65059853E+03</pdfrwt>
<pdfrwt beam="2">0</pdfrwt>
<totfact> 0.15622951E+00</totfact>
</mgrwt>
</event>
<event>
 6    1  0.3786369E-003  0.6378756E+03  0.7818608E-02  0.9829799E-01
          1   -1    0    0  502    0  0.00000000000E+00  0.00000000000E+00  0.10172142569E+03  0.10172142569E+03  0.00000000000E+00 0.  1.
         13   -1    0    0    0    0 -0.00000000000E+00 -0.00000000000E+00 -0.10000000000E+04  0.10000000000E+04  0.00000000000E+00 0.  1.
    9000005    2    1    2  501    0  0.69964841657E-04  0.43050545457E-04 -0.89827864606E+03  0.11017213166E+04  0.63787564112E+03 0.  0.
         13    1    3    3    0    0  0.90116536773E+02  0.71806238577E+02  0.64514396128E+02  0.13205768969E+03  0.00000000000E+00 0.  1.
          3    1    3    3  501    0 -0.90116466809E+02 -0.71806195527E+02 -0.96279304219E+03  0.96966362693E+03  0.00000000000E+00 0.  1.
         21    1    1    2  502  501 -0.69964841652E-04 -0.43050545450E-04  0.71748630444E-04  0.10907013570E-03  0.00000000000E+00 0. -1.
<mgrwt>
<rscale>  1 0.63787564E+03</rscale>
<asrwt>0</asrwt>
<pdfrwt beam="1">  1        1 0.36989687E+00 0.63787564E+03</pdfrwt>
<pdfrwt beam="2">0</pdfrwt>
<totfact> 0.18219549E+00</totfact>
</mgrwt>
</event>
<event>
 6    1  0.3786369E-003  0.6480242E+03  0.7818608E-02  0.9810494E-01
          1   -1    0    0  502    0  0.00000000000E+00  0.00000000000E+00  0.10498557355E+03  0.10498557355E+03  0.00000000000E+00 0.  1.
         13   -1    0    0    0    0 -0.00000000000E+00 -0.00000000000E+00 -0.10000000000E+04  0.10000000000E+04  0.00000000000E+00 0.  1.
    9000005    2    1    2  501    0 -0.54158534979E-03 -0.69223165414E-03 -0.89501602012E+03  0.11049837536E+04  0.64802424292E+03 0.  0.
         13    1    3    3    0    0 -0.21018970826E+03  0.23594652890E+03 -0.56967777732E+03  0.65144704154E+03  0.00000000000E+00 0.  1.
          3    1    3    3  501    0  0.21018916668E+03 -0.23594722113E+03 -0.32533824280E+03  0.45353671205E+03  0.00000000000E+00 0.  1.
         21    1    1    2  502  501  0.54158534977E-03  0.69223165414E-03  0.15936643658E-02  0.18199630395E-02  0.00000000000E+00 0.  1.
<mgrwt>
<rscale>  1 0.64802424E+03</rscale>
<asrwt>0</asrwt>
<pdfrwt beam="1">  1        1 0.38176653E+00 0.64802424E+03</pdfrwt>
<pdfrwt beam="2">0</pdfrwt>
<totfact> 0.16123568E+00</totfact>
</mgrwt>
</event>
<event>
 6    1  0.3786369E-003  0.6585498E+03  0.7818608E-02  0.9790867E-01
          1   -1    0    0  502    0  0.00000000000E+00  0.00000000000E+00  0.10842659289E+03  0.10842659289E+03  0.00000000000E+00 0.  1.
         13   -1    0    0    0    0 -0.00000000000E+00 -0.00000000000E+00 -0.10000000000E+04  0.10000000000E+04  0.00000000000E+00 0.  1.
    9000005    2    1    2  501    0 -0.10815866219E-02  0.69572669321E-03 -0.89157795639E+03  0.11084218653E+04  0.65854975456E+03 0.  0.
         13    1    3    3    0    0  0.18622766458E+03 -0.13414188322E+03 -0.48389431011E+02  0.23455559026E+03  0.00000000000E+00 0.  1.
          3    1    3    3  501    0 -0.18622874616E+03  0.13414257895E+03 -0.84318852538E+03  0.87386627507E+03  0.00000000000E+00 0.  1.
         21    1    1    2  502  501  0.10815866218E-02 -0.69572669321E-03  0.45492791532E-02  0.47275581504E-02  0.00000000000E+00 0. -1.
<mgrwt>
<rscale>  1 0.65854975E+03</rscale>
<asrwt>0</asrwt>
<pdfrwt beam="1">  1        1 0.39427935E+00 0.65854975E+03</pdfrwt>
<pdfrwt beam="2">0</pdfrwt>
<totfact> 0.14163788E+00</totfact>
</mgrwt>
</event>
<event>
 6    1  0.3786369E-003  0.6486143E+03  0.7818608E-02  0.9809383E-01
          1   -1    0    0  502    0  0.00000000000E+00  0.00000000000E+00  0.11318736973E+03  0.11318736973E+03  0.00000000000E+00 0.  1.
         13   -1    0    0    0    0 -0.00000000000E+00 -0.00000000000E+00 -0.10000000000E+04  0.10000000000E+04  0.00000000000E+00 0.  1.
    9000005    2    1    2  501    0  0.26910474862E+01 -0.16084654580E+01 -0.89448455320E+03  0.11048995896E+04  0.64860670542E+03 0.  0.
         13    1    3    3    0    0  0.28126603770E+03  0.88860311521E+02 -0.68197155286E+03  0.74302889435E+03  0.00000000000E+00 0.  1.
          3    1    3    3  501    0 -0.27857499021E+03 -0.90468776979E+02 -0.21251300034E+03  0.36187069527E+03  0.00000000000E+00 0.  1.
         21    1    1    2  502  501 -0.26910474862E+01  0.16084654580E+01  0.76719229362E+01  0.82877801154E+01  0.00000000000E+00 0.  1.
<mgrwt>
<rscale>  1 0.64861428E+03</rscale>
<asrwt>0</asrwt>
<pdfrwt beam="1">  1        1 0.41159130E+00 0.64861428E+03</pdfrwt>
<pdfrwt beam="2">0</pdfrwt>
<totfact> 0.11876769E+00</totfact>
</mgrwt>
</event>
<event>
 6    1  0.3786369E-003  0.6481447E+03  0.7818608E-02  0.9810267E-01
          3   -1    0    0  502    0  0.00000000000E+00  0.00000000000E+00  0.10502962811E+03  0.10502962811E+03  0.00000000000E+00 0.  1.
         13   -1    0    0    0    0 -0.00000000000E+00 -0.00000000000E+00 -0.10000000000E+04  0.10000000000E+04  0.00000000000E+00 0.  1.
    9000005    2    1    2  501    0 -0.17255212562E-03  0.16676383041E-03 -0.89497712125E+03  0.11050228745E+04  0.64814466408E+03 0.  0.
         13    1    3    3    0    0 -0.57236408479E+02 -0.19087617677E+03 -0.11776457667E+02  0.19962065592E+03  0.00000000000E+00 0.  1.
          1    1    3    3  501    0  0.57236235927E+02  0.19087634354E+03 -0.88320066358E+03  0.90540221856E+03  0.00000000000E+00 0.  1.
         21    1    1    2  502  501  0.17255212563E-03 -0.16676383042E-03  0.67493615172E-02  0.67536260854E-02  0.00000000000E+00 0.  1.
<mgrwt>
<rscale>  1 0.64814466E+03</rscale>
<asrwt>0</asrwt>
<pdfrwt beam="1">  1        3 0.38192673E+00 0.64814466E+03</pdfrwt>
<pdfrwt beam="2">0</pdfrwt>
<totfact> 0.73754196E-02</totfact>
</mgrwt>
</event>
<event>
 6    1  0.3786369E-003  0.6515224E+03  0.7818608E-02  0.9803927E-01
          1   -1    0    0  502    0  0.00000000000E+00  0.00000000000E+00  0.10612443884E+03  0.10612443884E+03  0.00000000000E+00 0.  1.
         13   -1    0    0    0    0 -0.00000000000E+00 -0.00000000000E+00 -0.10000000000E+04  0.10000000000E+04  0.00000000000E+00 0.  1.
    9000005    2    1    2  501    0  0.59362242655E-03 -0.30627198161E-03 -0.89387960491E+03  0.11061203403E+04  0.65152241645E+03 0.  0.
         13    1    3    3    0    0  0.15210611829E+03 -0.10124404212E+03  0.10929036718E+02  0.18304663649E+03  0.00000000000E+00 0.  1.
          1    1    3    3  501    0 -0.15210552467E+03  0.10124373585E+03 -0.90480864163E+03  0.92307370380E+03  0.00000000000E+00 0.  1.
         21    1    1    2  502  501 -0.59362242656E-03  0.30627198160E-03  0.40437540182E-02  0.40985529973E-02  0.00000000000E+00 0. -1.
<mgrwt>
<rscale>  1 0.65152242E+03</rscale>
<asrwt>0</asrwt>
<pdfrwt beam="1">  1        1 0.38590786E+00 0.65152242E+03</pdfrwt>
<pdfrwt beam="2">0</pdfrwt>
<totfact> 0.15448044E+00</totfact>
</mgrwt>
</event>
<event>
 6    1  0.3786369E-003  0.6487243E+03  0.7818608E-02  0.9809176E-01
          1   -1    0    0  502    0  0.00000000000E+00  0.00000000000E+00  0.10521098625E+03  0.10521098625E+03  0.00000000000E+00 0.  1.
         13   -1    0    0    0    0 -0.00000000000E+00 -0.00000000000E+00 -0.10000000000E+04  0.10000000000E+04  0.00000000000E+00 0.  1.
    9000005    2    1    2  501    0  0.30356444967E-04 -0.26090653250E-04 -0.89478920329E+03  0.11052107925E+04  0.64872426931E+03 0.  0.
         13    1    3    3    0    0  0.13008906486E+03  0.28488756969E+03 -0.30357131970E+03  0.43616469172E+03  0.00000000000E+00 0.  1.
          1    1    3    3  501    0 -0.13008903451E+03 -0.28488759578E+03 -0.59121788359E+03  0.66904610081E+03  0.00000000000E+00 0.  1.
         21    1    1    2  502  501 -0.30356444977E-04  0.26090653214E-04  0.18954233199E-03  0.19372282145E-03  0.00000000000E+00 0.  1.
<mgrwt>
<rscale>  1 0.64872427E+03</rscale>
<asrwt>0</asrwt>
<pdfrwt beam="1">  1        1 0.38258621E+00 0.64872427E+03</pdfrwt>
<pdfrwt beam="2">0</pdfrwt>
<totfact> 0.15987650E+00</totfact>
</mgrwt>
</event>
<event>
 6    1  0.3786369E-003  0.6661544E+03  0.7818608E-02  0.9776930E-01
          1   -1    0    0  502    0  0.00000000000E+00  0.00000000000E+00  0.11111150530E+03  0.11111150530E+03  0.00000000000E+00 0.  1.
         13   -1    0    0    0    0 -0.00000000000E+00 -0.00000000000E+00 -0.10000000000E+04  0.10000000000E+04  0.00000000000E+00 0.  1.
    9000005    2    1    2  501    0  0.16165351224E-02 -0.90868017605E-02 -0.88905945471E+03  0.11109402963E+04  0.66615435745E+03 0.  0.
         13    1    3    3    0    0  0.19790013040E+03 -0.92690348573E+02 -0.86373558185E+03  0.89095180435E+03  0.00000000000E+00 0.  1.
          3    1    3    3  501    0 -0.19789851386E+03  0.92681261771E+02 -0.25323872857E+02  0.21998849199E+03  0.00000000000E+00 0.  1.
         21    1    1    2  502  501 -0.16165351224E-02  0.90868017605E-02  0.17096000604E+00  0.17120895659E+00  0.00000000000E+00 0.  1.
<mgrwt>
<rscale>  1 0.66615436E+03</rscale>
<asrwt>0</asrwt>
<pdfrwt beam="1">  1        1 0.40404269E+00 0.66615436E+03</pdfrwt>
<pdfrwt beam="2">0</pdfrwt>
<totfact> 0.12795117E+00</totfact>
</mgrwt>
</event>
<event>
 6    1  0.3786369E-003  0.5431977E+03  0.7818608E-02  0.1003081E+00
          1   -1    0    0  502    0  0.00000000000E+00  0.00000000000E+00  0.73766279192E+02  0.73766279192E+02  0.00000000000E+00 0.  1.
         13   -1    0    0    0    0 -0.00000000000E+00 -0.00000000000E+00 -0.10000000000E+04  0.10000000000E+04  0.00000000000E+00 0.  1.
    9000005    2    1    2  501    0 -0.17662478583E-03 -0.70118746674E-04 -0.92623403101E+03  0.10737659154E+04  0.54319771806E+03 0.  0.
         13    1    3    3    0    0  0.54067192201E+02 -0.17566163998E+02  0.61873267291E+02  0.84024595181E+02  0.00000000000E+00 0.  1.
          3    1    3    3  501    0 -0.54067368826E+02  0.17566093879E+02 -0.98810729830E+03  0.98974132023E+03  0.00000000000E+00 0.  1.
         21    1    1    2  502  501  0.17662478583E-03  0.70118746674E-04  0.31019714826E-03  0.36377908735E-03  0.00000000000E+00 0.  1.
<mgrwt>
<rscale>  1 0.54319772E+03</rscale>
<asrwt>0</asrwt>
<pdfrwt beam="1">  1        1 0.26824158E+00 0.54319772E+03</pdfrwt>
<pdfrwt beam="2">0</pdfrwt>
<totfact> 0.51099546E+00</totfact>
</mgrwt>
</event>
<event>
 6    1  0.3786369E-003  0.6395692E+03  0.7818608E-02  0.9826551E-01
          1   -1    0    0  502    0  0.00000000000E+00  0.00000000000E+00  0.10226219509E+03  0.10226219509E+03  0.00000000000E+00 0.  1.
         13   -1    0    0    0    0 -0.00000000000E+00 -0.00000000000E+00 -0.10000000000E+04  0.10000000000E+04  0.00000000000E+00 0.  1.
    9000005    2    1    2  501    0 -0.20435131773E-05  0.22808111027E-05 -0.89773780679E+03  0.11022621915E+04  0.63956920585E+03 0.  0.
         13    1    3    3    0    0 -0.10394086865E+03 -0.83548874157E+01 -0.96987592751E+03  0.97546543920E+03  0.00000000000E+00 0.  1.
          3    1    3    3  501    0  0.10394086661E+03  0.83548896965E+01  0.72138120717E+02  0.12679675230E+03  0.00000000000E+00 0.  1.
         21    1    1    2  502  501  0.20435131899E-05 -0.22808111019E-05  0.18811306735E-05  0.35939808084E-05  0.00000000000E+00 0.  1.
<mgrwt>
<rscale>  1 0.63956921E+03</rscale>
<asrwt>0</asrwt>
<pdfrwt beam="1">  1        1 0.37186331E+00 0.63956921E+03</pdfrwt>
<pdfrwt beam="2">0</pdfrwt>
<totfact> 0.17855165E+00</totfact>
</mgrwt>
</event>
<event>
 6    1  0.3786369E-003  0.6464463E+03  0.7818608E-02  0.9813470E-01
          1   -1    0    0  502    0  0.00000000000E+00  0.00000000000E+00  0.10447522276E+03  0.10447522276E+03  0.00000000000E+00 0.  1.
         13   -1    0    0    0    0 -0.00000000000E+00 -0.00000000000E+00 -0.10000000000E+04  0.10000000000E+04  0.00000000000E+00 0.  1.
    9000005    2    1    2  501    0  0.20600898741E-02  0.22414535929E-02 -0.89552543666E+03  0.11044721078E+04  0.64644630807E+03 0.  0.
         13    1    3    3    0    0  0.29934266709E+02  0.17212854469E+03 -0.91237468910E+03  0.92895202757E+03  0.00000000000E+00 0.  1.
          3    1    3    3  501    0 -0.29932206619E+02 -0.17212630324E+03  0.16849252434E+02  0.17552008024E+03  0.00000000000E+00 0.  1.
         21    1    1    2  502  501 -0.20600898741E-02 -0.22414535929E-02  0.65942844918E-03  0.31149527088E-02  0.00000000000E+00 0. -1.
<mgrwt>
<rscale>  1 0.64644631E+03</rscale>
<asrwt>0</asrwt>
<pdfrwt beam="1">  1        1 0.37991070E+00 0.64644631E+03</pdfrwt>
<pdfrwt beam="2">0</pdfrwt>
<totfact> 0.16435349E+00</totfact>
</mgrwt>
</event>
<event>
 6    1  0.3786369E-003  0.6462169E+03  0.7818608E-02  0.9813904E-01
          1   -1    0    0  502    0  0.00000000000E+00  0.00000000000E+00  0.10440009695E+03  0.10440009695E+03  0.00000000000E+00 0.  1.
         13   -1    0    0    0    0 -0.00000000000E+00 -0.00000000000E+00 -0.10000000000E+04  0.10000000000E+04  0.00000000000E+00 0.  1.
    9000005    2    1    2  501    0  0.26605654299E-02 -0.17039451861E-02 -0.89559648270E+03  0.11043954407E+04  0.64621685955E+03 0.  0.
         13    1    3    3    0    0  0.32308505137E+03 -0.11885490440E+01 -0.45432037222E+03  0.55748754576E+03  0.00000000000E+00 0.  1.
          3    1    3    3  501    0 -0.32308239080E+03  0.11868450988E+01 -0.44127611048E+03  0.54690789492E+03  0.00000000000E+00 0.  1.
         21    1    1    2  502  501 -0.26605654299E-02  0.17039451861E-02 -0.34203447387E-02  0.46562641394E-02  0.00000000000E+00 0. -1.
<mgrwt>
<rscale>  1 0.64621686E+03</rscale>
<asrwt>0</asrwt>
<pdfrwt beam="1">  1        1 0.37963752E+00 0.64621686E+03</pdfrwt>
<pdfrwt beam="2">0</pdfrwt>
<totfact> 0.16481718E+00</totfact>
</mgrwt>
</event>
<event>
 6    1  0.3786369E-003  0.6448273E+03  0.7818608E-02  0.9816534E-01
          1   -1    0    0  502    0  0.00000000000E+00  0.00000000000E+00  0.10423423383E+03  0.10423423383E+03  0.00000000000E+00 0.  1.
         13   -1    0    0    0    0 -0.00000000000E+00 -0.00000000000E+00 -0.10000000000E+04  0.10000000000E+04  0.00000000000E+00 0.  1.
    9000005    2    1    2  501    0 -0.32424609671E-01 -0.12933830345E-01 -0.89604825302E+03  0.11039495982E+04  0.64482729651E+03 0.  0.
         13    1    3    3    0    0  0.25683009053E+03 -0.18850886465E+03 -0.36331661541E+03  0.48321449739E+03  0.00000000000E+00 0.  1.
          3    1    3    3  501    0 -0.25686251514E+03  0.18849593082E+03 -0.53273163761E+03  0.62073510077E+03  0.00000000000E+00 0.  1.
         21    1    1    2  502  501  0.32424609671E-01  0.12933830345E-01  0.28248685299E+00  0.28463566430E+00  0.00000000000E+00 0.  1.
<mgrwt>
<rscale>  1 0.64482730E+03</rscale>
<asrwt>0</asrwt>
<pdfrwt beam="1">  1        1 0.37903438E+00 0.64482730E+03</pdfrwt>
<pdfrwt beam="2">0</pdfrwt>
<totfact> 0.16587223E+00</totfact>
</mgrwt>
</event>
<event>
 6    1  0.3786369E-003  0.6440535E+03  0.7818608E-02  0.9818002E-01
          1   -1    0    0  502    0  0.00000000000E+00  0.00000000000E+00  0.10370291931E+03  0.10370291931E+03  0.00000000000E+00 0.  1.
         13   -1    0    0    0    0 -0.00000000000E+00 -0.00000000000E+00 -0.10000000000E+04  0.10000000000E+04  0.00000000000E+00 0.  1.
    9000005    2    1    2  501    0  0.22772671389E-03  0.30357537838E-04 -0.89629877037E+03  0.11037012141E+04  0.64405347930E+03 0.  0.
         13    1    3    3    0    0  0.28698663833E+03  0.12272034609E+03 -0.58394904823E+03  0.66213148608E+03  0.00000000000E+00 0.  1.
          1    1    3    3  501    0 -0.28698641061E+03 -0.12272031573E+03 -0.31234972214E+03  0.44156972800E+03  0.00000000000E+00 0.  1.
         21    1    1    2  502  501 -0.22772671390E-03 -0.30357537837E-04  0.16896795403E-02  0.17052266669E-02  0.00000000000E+00 0. -1.
<mgrwt>
<rscale>  1 0.64405348E+03</rscale>
<asrwt>0</asrwt>
<pdfrwt beam="1">  1        1 0.37710232E+00 0.64405348E+03</pdfrwt>
<pdfrwt beam="2">0</pdfrwt>
<totfact> 0.16918117E+00</totfact>
</mgrwt>
</event>
<event>
 6    1  0.3786369E-003  0.6486666E+03  0.7818608E-02  0.9809284E-01
          1   -1    0    0  502    0  0.00000000000E+00  0.00000000000E+00  0.10526952774E+03  0.10526952774E+03  0.00000000000E+00 0.  1.
         13   -1    0    0    0    0 -0.00000000000E+00 -0.00000000000E+00 -0.10000000000E+04  0.10000000000E+04  0.00000000000E+00 0.  1.
    9000005    2    1    2  501    0  0.10333478321E-01 -0.56522530605E-02 -0.89480740960E+03  0.11051916941E+04  0.64866661715E+03 0.  0.
         13    1    3    3    0    0 -0.30438004788E+03 -0.11198163521E+03 -0.44471387612E+03  0.55041578083E+03  0.00000000000E+00 0.  1.
          1    1    3    3  501    0  0.30439038136E+03  0.11197598295E+03 -0.45009353347E+03  0.55477591322E+03  0.00000000000E+00 0.  1.
         21    1    1    2  502  501 -0.10333478321E-01  0.56522530605E-02  0.76937339334E-01  0.77833687582E-01  0.00000000000E+00 0.  1.
<mgrwt>
<rscale>  1 0.64866662E+03</rscale>
<asrwt>0</asrwt>
<pdfrwt beam="1">  1        1 0.38279909E+00 0.64866662E+03</pdfrwt>
<pdfrwt beam="2">0</pdfrwt>
<totfact> 0.15953234E+00</totfact>
</mgrwt>
</event>
<event>
 6    1  0.3786369E-003  0.6416991E+03  0.7818608E-02  0.9822481E-01
          1   -1    0    0  502    0  0.00000000000E+00  0.00000000000E+00  0.10294443582E+03  0.10294443582E+03  0.00000000000E+00 0.  1.
         13   -1    0    0    0    0 -0.00000000000E+00 -0.00000000000E+00 -0.10000000000E+04  0.10000000000E+04  0.00000000000E+00 0.  1.
    9000005    2    1    2  501    0 -0.21775802566E-05 -0.37009684775E-05 -0.89705556359E+03  0.11029444315E+04  0.64169909988E+03 0.  0.
         13    1    3    3    0    0  0.15063008032E+03  0.27989397211E+03 -0.52373088494E+03  0.61263700228E+03  0.00000000000E+00 0.  1.
          3    1    3    3  501    0 -0.15063008250E+03 -0.27989397581E+03 -0.37332467865E+03  0.49030742921E+03  0.00000000000E+00 0.  1.
         21    1    1    2  502  501  0.21775802533E-05  0.37009684923E-05 -0.58380837098E-06  0.43335730933E-05  0.00000000000E+00 0. -1.
<mgrwt>
<rscale>  1 0.64169910E+03</rscale>
<asrwt>0</asrwt>
<pdfrwt beam="1">  1        1 0.37434419E+00 0.64169910E+03</pdfrwt>
<pdfrwt beam="2">0</pdfrwt>
<totfact> 0.17405400E+00</totfact>
</mgrwt>
</event>
<event>
 6    1  0.3786369E-003  0.5922315E+03  0.7818608E-02  0.9921656E-01
          1   -1    0    0  502    0  0.00000000000E+00  0.00000000000E+00  0.87770726499E+02  0.87770726499E+02  0.00000000000E+00 0.  1.
         13   -1    0    0    0    0 -0.00000000000E+00 -0.00000000000E+00 -0.10000000000E+04  0.10000000000E+04  0.00000000000E+00 0.  1.
    9000005    2    1    2  501    0  0.30243070857E-02 -0.41268287658E-02 -0.91231539349E+03  0.10876844547E+04  0.59223145451E+03 0.  0.
         13    1    3    3    0    0  0.10827640248E+03  0.27558046920E+03 -0.46334877037E+03  0.54987312840E+03  0.00000000000E+00 0.  1.
          1    1    3    3  501    0 -0.10827337817E+03 -0.27558459602E+03 -0.44896662312E+03  0.53781132627E+03  0.00000000000E+00 0.  1.
         21    1    1    2  502  501 -0.30243070857E-02  0.41268287658E-02  0.86119984782E-01  0.86271831602E-01  0.00000000000E+00 0. -1.
<mgrwt>
<rscale>  1 0.59223145E+03</rscale>
<asrwt>0</asrwt>
<pdfrwt beam="1">  1        1 0.31916695E+00 0.59223145E+03</pdfrwt>
<pdfrwt beam="2">0</pdfrwt>
<totfact> 0.30538629E+00</totfact>
</mgrwt>
</event>
<event>
 6    1  0.3786369E-003  0.6460668E+03  0.7818608E-02  0.9814188E-01
          1   -1    0    0  502    0  0.00000000000E+00  0.00000000000E+00  0.10496767808E+03  0.10496767808E+03  0.00000000000E+00 0.  1.
         13   -1    0    0    0    0 -0.00000000000E+00 -0.00000000000E+00 -0.10000000000E+04  0.10000000000E+04  0.00000000000E+00 0.  1.
    9000005    2    1    2  501    0 -0.40821827597E-01 -0.10180921928E+00 -0.89564403826E+03  0.11043462053E+04  0.64606678126E+03 0.  0.
         13    1    3    3    0    0 -0.21016008711E+03 -0.24247697391E+03 -0.51233997886E+03  0.60452841044E+03  0.00000000000E+00 0.  1.
          3    1    3    3  501    0  0.21011926529E+03  0.24237516469E+03 -0.38330405940E+03  0.49981779486E+03  0.00000000000E+00 0.  1.
         21    1    1    2  502  501  0.40821827597E-01  0.10180921928E+00  0.61171633868E+00  0.62147278118E+00  0.00000000000E+00 0. -1.
<mgrwt>
<rscale>  1 0.64606679E+03</rscale>
<asrwt>0</asrwt>
<pdfrwt beam="1">  1        1 0.38170145E+00 0.64606679E+03</pdfrwt>
<pdfrwt beam="2">0</pdfrwt>
<totfact> 0.16140061E+00</totfact>
</mgrwt>
</event>
<event>
 6    1  0.3786369E-003  0.6764966E+03  0.7818608E-02  0.9758292E-01
          1   -1    0    0  502    0  0.00000000000E+00  0.00000000000E+00  0.11441228133E+03  0.11441228133E+03  0.00000000000E+00 0.  1.
         13   -1    0    0    0    0 -0.00000000000E+00 -0.00000000000E+00 -0.10000000000E+04  0.10000000000E+04  0.00000000000E+00 0.  1.
    9000005    2    1    2  501    0  0.95919684497E-05 -0.40695756155E-04 -0.88558808120E+03  0.11144119164E+04  0.67649661480E+03 0.  0.
         13    1    3    3    0    0  0.20123159597E+03  0.25025260887E+03 -0.26774739963E+03  0.41810189365E+03  0.00000000000E+00 0.  1.
          3    1    3    3  501    0 -0.20123158638E+03 -0.25025264957E+03 -0.61784068157E+03  0.69631002275E+03  0.00000000000E+00 0.  1.
         21    1    1    2  502  501 -0.95919684501E-05  0.40695756143E-04  0.36253819068E-03  0.36494121462E-03  0.00000000000E+00 0. -1.
<mgrwt>
<rscale>  1 0.67649661E+03</rscale>
<asrwt>0</asrwt>
<pdfrwt beam="1">  1        1 0.41604554E+00 0.67649661E+03</pdfrwt>
<pdfrwt beam="2">0</pdfrwt>
<totfact> 0.11281064E+00</totfact>
</mgrwt>
</event>
<event>
 6    1  0.3786369E-003  0.6620535E+03  0.7818608E-02  0.9784421E-01
          1   -1    0    0  502    0  0.00000000000E+00  0.00000000000E+00  0.11168730130E+03  0.11168730130E+03  0.00000000000E+00 0.  1.
         13   -1    0    0    0    0 -0.00000000000E+00 -0.00000000000E+00 -0.10000000000E+04  0.10000000000E+04  0.00000000000E+00 0.  1.
    9000005    2    1    2  501    0 -0.23937308843E+00 -0.33111181914E+00 -0.89039929264E+03  0.11095610819E+04  0.66205341725E+03 0.  0.
         13    1    3    3    0    0  0.32637702922E+03 -0.83092253031E+01 -0.53548914398E+03  0.62716794541E+03  0.00000000000E+00 0.  1.
          1    1    3    3  501    0 -0.32661640231E+03  0.79781134840E+01 -0.35491014866E+03  0.48239313653E+03  0.00000000000E+00 0.  1.
         21    1    1    2  502  501  0.23937308843E+00  0.33111181914E+00  0.20865939345E+01  0.21262193583E+01  0.00000000000E+00 0. -1.
<mgrwt>
<rscale>  1 0.66205354E+03</rscale>
<asrwt>0</asrwt>
<pdfrwt beam="1">  1        1 0.40613650E+00 0.66205354E+03</pdfrwt>
<pdfrwt beam="2">0</pdfrwt>
<totfact> 0.12531885E+00</totfact>
</mgrwt>
</event>
<event>
 6    1  0.3786369E-003  0.6011215E+03  0.7818608E-02  0.9903082E-01
          1   -1    0    0  502    0  0.00000000000E+00  0.00000000000E+00  0.90341903237E+02  0.90341903237E+02  0.00000000000E+00 0.  1.
         13   -1    0    0    0    0 -0.00000000000E+00 -0.00000000000E+00 -0.10000000000E+04  0.10000000000E+04  0.00000000000E+00 0.  1.
    9000005    2    1    2  501    0  0.49229929175E-03  0.29579879497E-03 -0.90966322887E+03  0.10903367391E+04  0.60112146413E+03 0.  0.
         13    1    3    3    0    0  0.26307158706E+03 -0.84045276488E+02 -0.23970591689E+03  0.36569002586E+03  0.00000000000E+00 0.  1.
          3    1    3    3  501    0 -0.26307109476E+03  0.84045572287E+02 -0.66995731198E+03  0.72464671323E+03  0.00000000000E+00 0.  1.
         21    1    1    2  502  501 -0.49229929178E-03 -0.29579879496E-03  0.51321123608E-02  0.51641487976E-02  0.00000000000E+00 0. -1.
<mgrwt>
<rscale>  1 0.60112146E+03</rscale>
<asrwt>0</asrwt>
<pdfrwt beam="1">  1        1 0.32851670E+00 0.60112146E+03</pdfrwt>
<pdfrwt beam="2">0</pdfrwt>
<totfact> 0.27778899E+00</totfact>
</mgrwt>
</event>
<event>
 6    1  0.3786369E-003  0.6483833E+03  0.7818608E-02  0.9809817E-01
          1   -1    0    0  502    0  0.00000000000E+00  0.00000000000E+00  0.10510128668E+03  0.10510128668E+03  0.00000000000E+00 0.  1.
         13   -1    0    0    0    0 -0.00000000000E+00 -0.00000000000E+00 -0.10000000000E+04  0.10000000000E+04  0.00000000000E+00 0.  1.
    9000005    2    1    2  501    0  0.68679911035E-04  0.36726748311E-03 -0.89489972974E+03  0.11051002038E+04  0.64838332340E+03 0.  0.
         13    1    3    3    0    0 -0.18275466198E+02 -0.25866811853E+03 -0.77907112084E+03  0.82109378243E+03  0.00000000000E+00 0.  1.
          3    1    3    3  501    0  0.18275534878E+02  0.25866848580E+03 -0.11582860890E+03  0.28400642134E+03  0.00000000000E+00 0.  1.
         21    1    1    2  502  501 -0.68679911035E-04 -0.36726748312E-03  0.10164217801E-02  0.10829199276E-02  0.00000000000E+00 0.  1.
<mgrwt>
<rscale>  1 0.64838332E+03</rscale>
<asrwt>0</asrwt>
<pdfrwt beam="1">  1        1 0.38218730E+00 0.64838332E+03</pdfrwt>
<pdfrwt beam="2">0</pdfrwt>
<totfact> 0.16053660E+00</totfact>
</mgrwt>
</event>
<event>
 6    1  0.3786369E-003  0.6543562E+03  0.7818608E-02  0.9798639E-01
          1   -1    0    0  502    0  0.00000000000E+00  0.00000000000E+00  0.10705597030E+03  0.10705597030E+03  0.00000000000E+00 0.  1.
         13   -1    0    0    0    0 -0.00000000000E+00 -0.00000000000E+00 -0.10000000000E+04  0.10000000000E+04  0.00000000000E+00 0.  1.
    9000005    2    1    2  501    0 -0.10683824647E-01 -0.21516983780E-01 -0.89293606414E+03  0.11070306607E+04  0.65435622451E+03 0.  0.
         13    1    3    3    0    0 -0.76315592404E+02 -0.24349246028E+03 -0.10001989910E+03  0.27407412879E+03  0.00000000000E+00 0.  1.
          1    1    3    3  501    0  0.76304908579E+02  0.24347094329E+03 -0.79291616504E+03  0.83295653193E+03  0.00000000000E+00 0.  1.
         21    1    1    2  502  501  0.10683824647E-01  0.21516983780E-01 -0.79655619277E-02  0.25309580733E-01  0.00000000000E+00 0.  1.
<mgrwt>
<rscale>  1 0.65435622E+03</rscale>
<asrwt>0</asrwt>
<pdfrwt beam="1">  1        1 0.38929526E+00 0.65435622E+03</pdfrwt>
<pdfrwt beam="2">0</pdfrwt>
<totfact> 0.14915654E+00</totfact>
</mgrwt>
</event>
<event>
 6    1  0.3786369E-003  0.6530134E+03  0.7818608E-02  0.9801141E-01
          1   -1    0    0  502    0  0.00000000000E+00  0.00000000000E+00  0.10674707996E+03  0.10674707996E+03  0.00000000000E+00 0.  1.
         13   -1    0    0    0    0 -0.00000000000E+00 -0.00000000000E+00 -0.10000000000E+04  0.10000000000E+04  0.00000000000E+00 0.  1.
    9000005    2    1    2  501    0  0.20117411648E-02  0.33494828103E-02 -0.89339334392E+03  0.11066066017E+04  0.65301340262E+03 0.  0.
         13    1    3    3    0    0 -0.20364926482E+03 -0.25351262653E+03 -0.39689158703E+03  0.51309317548E+03  0.00000000000E+00 0.  1.
          3    1    3    3  501    0  0.20365127656E+03  0.25351597601E+03 -0.49650175690E+03  0.59351342625E+03  0.00000000000E+00 0.  1.
         21    1    1    2  502  501 -0.20117411647E-02 -0.33494828103E-02  0.14042387992E+00  0.14047822674E+00  0.00000000000E+00 0.  1.
<mgrwt>
<rscale>  1 0.65301340E+03</rscale>
<asrwt>0</asrwt>
<pdfrwt beam="1">  1        1 0.38817202E+00 0.65301340E+03</pdfrwt>
<pdfrwt beam="2">0</pdfrwt>
<totfact> 0.15091357E+00</totfact>
</mgrwt>
</event>
<event>
 6    1  0.3786369E-003  0.6433602E+03  0.7818608E-02  0.9819319E-01
          1   -1    0    0  502    0  0.00000000000E+00  0.00000000000E+00  0.10349315534E+03  0.10349315534E+03  0.00000000000E+00 0.  1.
         13   -1    0    0    0    0 -0.00000000000E+00 -0.00000000000E+00 -0.10000000000E+04  0.10000000000E+04  0.00000000000E+00 0.  1.
    9000005    2    1    2  501    0 -0.11016635810E-02  0.90710201030E-03 -0.89652186095E+03  0.11034780714E+04  0.64336024660E+03 0.  0.
         13    1    3    3    0    0 -0.16779598515E+03  0.15412556207E+03 -0.58767733916E+02  0.23529519346E+03  0.00000000000E+00 0.  1.
          1    1    3    3  501    0  0.16779488348E+03 -0.15412465497E+03 -0.83775412703E+03  0.86818287794E+03  0.00000000000E+00 0.  1.
         21    1    1    2  502  501  0.11016635810E-02 -0.90710201031E-03  0.15016286407E-01  0.15083943588E-01  0.00000000000E+00 0. -1.
<mgrwt>
<rscale>  1 0.64336025E+03</rscale>
<asrwt>0</asrwt>
<pdfrwt beam="1">  1        1 0.37633954E+00 0.64336025E+03</pdfrwt>
<pdfrwt beam="2">0</pdfrwt>
<totfact> 0.17051691E+00</totfact>
</mgrwt>
</event>
<event>
 6    1  0.5063004E-003  0.6611803E+03  0.7818608E-02  0.9786023E-01
          1   -1    0    0  502    0  0.00000000000E+00  0.00000000000E+00  0.10928985268E+03  0.10928985268E+03  0.00000000000E+00 0.  1.
         13   -1    0    0    0    0 -0.00000000000E+00 -0.00000000000E+00 -0.10000000000E+04  0.10000000000E+04  0.00000000000E+00 0.  1.
    9000005    2    1    2  501    0 -0.20488746948E-05 -0.38561592213E-05 -0.89071014697E+03  0.11092898483E+04  0.66118030947E+03 0.  0.
         13    1    3    3    0    0  0.26809864429E+02  0.17350777261E+02 -0.99740614792E+03  0.99791725219E+03  0.00000000000E+00 0.  1.
          1    1    3    3  501    0 -0.26809866478E+02 -0.17350781117E+02  0.10669600095E+03  0.11137259611E+03  0.00000000000E+00 0.  1.
         21    1    1    2  502  501  0.20488746919E-05  0.38561592210E-05 -0.35297285485E-06  0.43809178579E-05  0.00000000000E+00 0.  1.
<mgrwt>
<rscale>  1 0.66118031E+03</rscale>
<asrwt>0</asrwt>
<pdfrwt beam="1">  1        1 0.39741848E+00 0.66118031E+03</pdfrwt>
<pdfrwt beam="2">0</pdfrwt>
<totfact> 0.13708841E+00</totfact>
</mgrwt>
</event>
<event>
 6    1  0.3786369E-003  0.6498078E+03  0.7818608E-02  0.9807140E-01
          3   -1    0    0  502    0  0.00000000000E+00  0.00000000000E+00  0.10556684840E+03  0.10556684840E+03  0.00000000000E+00 0.  1.
         13   -1    0    0    0    0 -0.00000000000E+00 -0.00000000000E+00 -0.10000000000E+04  0.10000000000E+04  0.00000000000E+00 0.  1.
    9000005    2    1    2  501    0  0.89823764763E-04  0.51566443346E-04 -0.89443745295E+03  0.11055625458E+04  0.64980780655E+03 0.  0.
         13    1    3    3    0    0 -0.67544342205E+01  0.20460534935E+03 -0.87646827600E+03  0.90005867042E+03  0.00000000000E+00 0.  1.
          3    1    3    3  501    0  0.67545240443E+01 -0.20460529779E+03 -0.17969176949E+02  0.20550387538E+03  0.00000000000E+00 0.  1.
         21    1    1    2  502  501 -0.89823764763E-04 -0.51566443351E-04  0.43013513181E-02  0.43025981184E-02  0.00000000000E+00 0.  1.
<mgrwt>
<rscale>  1 0.64980781E+03</rscale>
<asrwt>0</asrwt>
<pdfrwt beam="1">  1        3 0.38388026E+00 0.64980781E+03</pdfrwt>
<pdfrwt beam="2">0</pdfrwt>
<totfact> 0.72004427E-02</totfact>
</mgrwt>
</event>
<event>
 6    1  0.3786369E-003  0.6506749E+03  0.7818608E-02  0.9805514E-01
          1   -1    0    0  502    0  0.00000000000E+00  0.00000000000E+00  0.10584444505E+03  0.10584444505E+03  0.00000000000E+00 0.  1.
         13   -1    0    0    0    0 -0.00000000000E+00 -0.00000000000E+00 -0.10000000000E+04  0.10000000000E+04  0.00000000000E+00 0.  1.
    9000005    2    1    2  501    0  0.34213514368E-05 -0.88726613967E-06 -0.89415555891E+03  0.11058444397E+04  0.65067485074E+03 0.  0.
         13    1    3    3    0    0 -0.22148533506E+03  0.23063194697E+03 -0.54901572797E+03  0.63534645523E+03  0.00000000000E+00 0.  1.
          1    1    3    3  501    0  0.22148533848E+03 -0.23063194785E+03 -0.34513983094E+03  0.47049798452E+03  0.00000000000E+00 0.  1.
         21    1    1    2  502  501 -0.34213514239E-05  0.88726616756E-06  0.39622249283E-05  0.53096245819E-05  0.00000000000E+00 0.  1.
<mgrwt>
<rscale>  1 0.65067485E+03</rscale>
<asrwt>0</asrwt>
<pdfrwt beam="1">  1        1 0.38488970E+00 0.65067485E+03</pdfrwt>
<pdfrwt beam="2">0</pdfrwt>
<totfact> 0.15611549E+00</totfact>
</mgrwt>
</event>
<event>
 6    1  0.3786369E-003  0.6412377E+03  0.7818608E-02  0.9823361E-01
          1   -1    0    0  502    0  0.00000000000E+00  0.00000000000E+00  0.10285256882E+03  0.10285256882E+03  0.00000000000E+00 0.  1.
         13   -1    0    0    0    0 -0.00000000000E+00 -0.00000000000E+00 -0.10000000000E+04  0.10000000000E+04  0.00000000000E+00 0.  1.
    9000005    2    1    2  501    0 -0.31878281278E-01  0.18782814556E-03 -0.89719851190E+03  0.11027923567E+04  0.64123771819E+03 0.  0.
         13    1    3    3    0    0  0.30397603762E+03 -0.10327811891E+02 -0.62293657800E+03  0.69322296222E+03  0.00000000000E+00 0.  1.
          3    1    3    3  501    0 -0.30400791590E+03  0.10327999720E+02 -0.27426193390E+03  0.40956939447E+03  0.00000000000E+00 0.  1.
         21    1    1    2  502  501  0.31878281278E-01 -0.18782814556E-03  0.51080710670E-01  0.60212117544E-01  0.00000000000E+00 0.  1.
<mgrwt>
<rscale>  1 0.64123772E+03</rscale>
<asrwt>0</asrwt>
<pdfrwt beam="1">  1        1 0.37401013E+00 0.64123772E+03</pdfrwt>
<pdfrwt beam="2">0</pdfrwt>
<totfact> 0.17465884E+00</totfact>
</mgrwt>
</event>
<event>
 6    1  0.3786369E-003  0.6522640E+03  0.7818608E-02  0.9802540E-01
          1   -1    0    0  502    0  0.00000000000E+00  0.00000000000E+00  0.11198681144E+03  0.11198681144E+03  0.00000000000E+00 0.  1.
         13   -1    0    0    0    0 -0.00000000000E+00 -0.00000000000E+00 -0.10000000000E+04  0.10000000000E+04  0.00000000000E+00 0.  1.
    9000005    2    1    2  501    0 -0.61026832990E+00  0.17987376589E+01 -0.89345995228E+03  0.11062183524E+04  0.65226125823E+03 0.  0.
         13    1    3    3    0    0  0.87464662355E+02  0.20651126074E+03 -0.85009847529E+03  0.87918393164E+03  0.00000000000E+00 0.  1.
          1    1    3    3  501    0 -0.88074930685E+02 -0.20471252309E+03 -0.43361476994E+02  0.22703442076E+03  0.00000000000E+00 0.  1.
         21    1    1    2  502  501  0.61026832990E+00 -0.17987376589E+01  0.54467637188E+01  0.57684590324E+01  0.00000000000E+00 0.  1.
<mgrwt>
<rscale>  1 0.65226402E+03</rscale>
<asrwt>0</asrwt>
<pdfrwt beam="1">  1        1 0.40722563E+00 0.65226402E+03</pdfrwt>
<pdfrwt beam="2">0</pdfrwt>
<totfact> 0.12415216E+00</totfact>
</mgrwt>
</event>
<event>
 6    1  0.3786369E-003  0.6217301E+03  0.7818608E-02  0.9861321E-01
          1   -1    0    0  502    0  0.00000000000E+00  0.00000000000E+00  0.96866223116E+02  0.96866223116E+02  0.00000000000E+00 0.  1.
         13   -1    0    0    0    0 -0.00000000000E+00 -0.00000000000E+00 -0.10000000000E+04  0.10000000000E+04  0.00000000000E+00 0.  1.
    9000005    2    1    2  501    0  0.17522789754E+00 -0.20063397377E+00 -0.90327505402E+03  0.10965646969E+04  0.62173003820E+03 0.  0.
         13    1    3    3    0    0  0.11859758184E+03 -0.21729762021E+03 -0.78371527805E+03  0.82188398160E+03  0.00000000000E+00 0.  1.
          1    1    3    3  501    0 -0.11842235394E+03  0.21709698624E+03 -0.11955977597E+03  0.27468071534E+03  0.00000000000E+00 0.  1.
         21    1    1    2  502  501 -0.17522789754E+00  0.20063397377E+00  0.14127713569E+00  0.30152617893E+00  0.00000000000E+00 0. -1.
<mgrwt>
<rscale>  1 0.62173010E+03</rscale>
<asrwt>0</asrwt>
<pdfrwt beam="1">  1        1 0.35224155E+00 0.62173010E+03</pdfrwt>
<pdfrwt beam="2">0</pdfrwt>
<totfact> 0.21830163E+00</totfact>
</mgrwt>
</event>
<event>
 6    1  0.3786369E-003  0.6484533E+03  0.7818608E-02  0.9809686E-01
          1   -1    0    0  502    0  0.00000000000E+00  0.00000000000E+00  0.10512626594E+03  0.10512626594E+03  0.00000000000E+00 0.  1.
         13   -1    0    0    0    0 -0.00000000000E+00 -0.00000000000E+00 -0.10000000000E+04  0.10000000000E+04  0.00000000000E+00 0.  1.
    9000005    2    1    2  501    0  0.30027270724E-03  0.16976467089E-02 -0.89487682895E+03  0.11051227233E+04  0.64845330942E+03 0.  0.
         13    1    3    3    0    0  0.11760361268E+03 -0.11236033038E+02 -0.96201316440E+03  0.96924000466E+03  0.00000000000E+00 0.  1.
          3    1    3    3  501    0 -0.11760331241E+03  0.11237730685E+02  0.67136335447E+02  0.13588271861E+03  0.00000000000E+00 0.  1.
         21    1    1    2  502  501 -0.30027270723E-03 -0.16976467089E-02  0.30948846177E-02  0.35426654998E-02  0.00000000000E+00 0. -1.
<mgrwt>
<rscale>  1 0.64845331E+03</rscale>
<asrwt>0</asrwt>
<pdfrwt beam="1">  1        1 0.38227814E+00 0.64845331E+03</pdfrwt>
<pdfrwt beam="2">0</pdfrwt>
<totfact> 0.16038629E+00</totfact>
</mgrwt>
</event>
