<event>
 6    1  0.1529677E-003  0.6505028E+03  0.7818608E-02  0.9805836E-01
          1   -1    0    0  502    0  0.00000000000E+00  0.00000000000E+00  0.10578850649E+03  0.10578850649E+03  0.00000000000E+00 0.  1.
         13   -1    0    0    0    0 -0.00000000000E+00 -0.00000000000E+00 -0.10000000000E+04  0.10000000000E+04  0.00000000000E+00 0.  1.
    9000005    2    1    2  501    0  0.94879877182E-05  0.13916656201E-04 -0.89421153201E+03  0.11057884645E+04  0.65050277797E+03 0.  0.
         13    1    3    3    0    0  0.56213547195E+02  0.32034750680E+03 -0.44294778633E+03  0.54953182748E+03  0.00000000000E+00 0.  1.
          1    1    3    3  501    0 -0.56213537707E+02 -0.32034749288E+03 -0.45126374569E+03  0.55625663698E+03  0.00000000000E+00 0.  1.
         21    1    1    2  502  501 -0.94879877186E-05 -0.13916656185E-04  0.38505190843E-04  0.42027906826E-04  0.00000000000E+00 0. -1.
<mgrwt>
<rscale>  1 0.65050278E+03</rscale>
<asrwt>0</asrwt>
<pdfrwt beam="1">  1        1 0.38468629E+00 0.65050278E+03</pdfrwt>
<pdfrwt beam="2">0</pdfrwt>
<totfact> 0.15644419E+00</totfact>
</mgrwt>
</event>
<event>
 6    1  0.1529677E-003  0.6015555E+03  0.7818608E-02  0.9902184E-01
          3   -1    0    0  502    0  0.00000000000E+00  0.00000000000E+00  0.90467405525E+02  0.90467405525E+02  0.00000000000E+00 0.  1.
         13   -1    0    0    0    0 -0.00000000000E+00 -0.00000000000E+00 -0.10000000000E+04  0.10000000000E+04  0.00000000000E+00 0.  1.
    9000005    2    1    2  501    0 -0.81545581544E-04  0.25666613794E-04 -0.90953272973E+03  0.10904672455E+04  0.60155550626E+03 0.  0.
         13    1    3    3    0    0 -0.30010666384E+02 -0.26254583912E+03 -0.19435927875E+03  0.32803427713E+03  0.00000000000E+00 0.  1.
          3    1    3    3  501    0  0.30010584838E+02  0.26254586478E+03 -0.71517345097E+03  0.76243296839E+03  0.00000000000E+00 0.  1.
         21    1    1    2  502  501  0.81545581544E-04 -0.25666613761E-04  0.13525049825E-03  0.16000360686E-03  0.00000000000E+00 0.  1.
<mgrwt>
<rscale>  1 0.60155551E+03</rscale>
<asrwt>0</asrwt>
<pdfrwt beam="1">  1        3 0.32897308E+00 0.60155551E+03</pdfrwt>
<pdfrwt beam="2">0</pdfrwt>
<totfact> 0.14210347E-01</totfact>
</mgrwt>
</event>
<event>
 6    1  0.1529677E-003  0.6458556E+03  0.7818608E-02  0.9814587E-01
          1   -1    0    0  502    0  0.00000000000E+00  0.00000000000E+00  0.10927432523E+03  0.10927432523E+03  0.00000000000E+00 0.  1.
         13   -1    0    0    0    0 -0.00000000000E+00 -0.00000000000E+00 -0.10000000000E+04  0.10000000000E+04  0.00000000000E+00 0.  1.
    9000005    2    1    2  501    0  0.40660503658E-01 -0.23684924637E+00 -0.89571445077E+03  0.11042797645E+04  0.64585552815E+03 0.  0.
         13    1    3    3    0    0 -0.10651383987E+03 -0.30493806437E+03 -0.45521853994E+03  0.55817232132E+03  0.00000000000E+00 0.  1.
          1    1    3    3  501    0  0.10655450037E+03  0.30470121513E+03 -0.44049591083E+03  0.54610744319E+03  0.00000000000E+00 0.  1.
         21    1    1    2  502  501 -0.40660503658E-01  0.23684924637E+00  0.49887759984E+01  0.49945607219E+01  0.00000000000E+00 0. -1.
<mgrwt>
<rscale>  1 0.64585557E+03</rscale>
<asrwt>0</asrwt>
<pdfrwt beam="1">  1        1 0.39736202E+00 0.64585557E+03</pdfrwt>
<pdfrwt beam="2">0</pdfrwt>
<totfact> 0.13756450E+00</totfact>
</mgrwt>
</event>
<event>
 6    1  0.1529677E-003  0.6138398E+03  0.7818608E-02  0.9877102E-01
          1   -1    0    0  502    0  0.00000000000E+00  0.00000000000E+00  0.94225463930E+02  0.94225463930E+02  0.00000000000E+00 0.  1.
         13   -1    0    0    0    0 -0.00000000000E+00 -0.00000000000E+00 -0.10000000000E+04  0.10000000000E+04  0.00000000000E+00 0.  1.
    9000005    2    1    2  501    0 -0.73169672635E-03  0.22489455472E-03 -0.90580017190E+03  0.10941998167E+04  0.61383978967E+03 0.  0.
         13    1    3    3    0    0  0.25829376078E+03 -0.16468644828E+03 -0.48682903740E+03  0.57518675642E+03  0.00000000000E+00 0.  1.
          3    1    3    3  501    0 -0.25829449248E+03  0.16468667317E+03 -0.41897113450E+03  0.51901306025E+03  0.00000000000E+00 0.  1.
         21    1    1    2  502  501  0.73169672631E-03 -0.22489455473E-03  0.25635831984E-01  0.25647257927E-01  0.00000000000E+00 0. -1.
<mgrwt>
<rscale>  1 0.61383979E+03</rscale>
<asrwt>0</asrwt>
<pdfrwt beam="1">  1        1 0.34263877E+00 0.61383979E+03</pdfrwt>
<pdfrwt beam="2">0</pdfrwt>
<totfact> 0.24069939E+00</totfact>
</mgrwt>
</event>
<event>
 6    1  0.1529677E-003  0.5114079E+03  0.7818608E-02  0.1010843E+00
          1   -1    0    0  502    0  0.00000000000E+00  0.00000000000E+00  0.65530948809E+02  0.65530948809E+02  0.00000000000E+00 0.  1.
         13   -1    0    0    0    0 -0.00000000000E+00 -0.00000000000E+00 -0.10000000000E+04  0.10000000000E+04  0.00000000000E+00 0.  1.
    9000005    2    1    2  501    0  0.17801149605E+00 -0.46321968167E-01 -0.93455226530E+03  0.10653290617E+04  0.51140789913E+03 0.  0.
         13    1    3    3    0    0  0.13024441273E+03 -0.10150207967E+03 -0.87423240259E+03  0.88969015559E+03  0.00000000000E+00 0.  1.
          1    1    3    3  501    0 -0.13006640123E+03  0.10145575771E+03 -0.60319862710E+02  0.17563890611E+03  0.00000000000E+00 0.  1.
         21    1    1    2  502  501 -0.17801149605E+00  0.46321968167E-01  0.83214106522E-01  0.20188710951E+00  0.00000000000E+00 0.  1.
<mgrwt>
<rscale>  1 0.51140793E+03</rscale>
<asrwt>0</asrwt>
<pdfrwt beam="1">  1        1 0.23829486E+00 0.51140793E+03</pdfrwt>
<pdfrwt beam="2">0</pdfrwt>
<totfact> 0.69332846E+00</totfact>
</mgrwt>
</event>
<event>
 6    1  0.1529677E-003  0.6649251E+03  0.7818608E-02  0.9779169E-01
          1   -1    0    0  502    0  0.00000000000E+00  0.00000000000E+00  0.11053403720E+03  0.11053403720E+03  0.00000000000E+00 0.  1.
         13   -1    0    0    0    0 -0.00000000000E+00 -0.00000000000E+00 -0.10000000000E+04  0.10000000000E+04  0.00000000000E+00 0.  1.
    9000005    2    1    2  501    0 -0.61496902106E-04 -0.15100366532E-03 -0.88946864400E+03  0.11105313510E+04  0.66492511833E+03 0.  0.
         13    1    3    3    0    0  0.29913939748E+03 -0.35249975507E+02 -0.67977275518E+03  0.74351727524E+03  0.00000000000E+00 0.  1.
          1    1    3    3  501    0 -0.29913945898E+03  0.35249824503E+02 -0.20969588883E+03  0.36701407580E+03  0.00000000000E+00 0.  1.
         21    1    1    2  502  501  0.61496902128E-04  0.15100366531E-03  0.26812072942E-02  0.26861601833E-02  0.00000000000E+00 0.  1.
<mgrwt>
<rscale>  1 0.66492512E+03</rscale>
<asrwt>0</asrwt>
<pdfrwt beam="1">  1        1 0.40194280E+00 0.66492512E+03</pdfrwt>
<pdfrwt beam="2">0</pdfrwt>
<totfact> 0.13077500E+00</totfact>
</mgrwt>
</event>
<event>
 6    1  0.1529678E-003  0.6485649E+03  0.7818608E-02  0.9809476E-01
          3   -1    0    0  502    0  0.00000000000E+00  0.00000000000E+00  0.10515912714E+03  0.10515912714E+03  0.00000000000E+00 0.  1.
         13   -1    0    0    0    0 -0.00000000000E+00 -0.00000000000E+00 -0.10000000000E+04  0.10000000000E+04  0.00000000000E+00 0.  1.
    9000005    2    1    2  501    0  0.23163788228E-04  0.19053150133E-04 -0.89484084719E+03  0.11051590877E+04  0.64856492910E+03 0.  0.
         13    1    3    3    0    0  0.20195355973E+03 -0.52662859326E+02 -0.87034553987E+03  0.89501953934E+03  0.00000000000E+00 0.  1.
          1    1    3    3  501    0 -0.20195353657E+03  0.52662878379E+02 -0.24495307327E+02  0.21013954833E+03  0.00000000000E+00 0.  1.
         21    1    1    2  502  501 -0.23163788214E-04 -0.19053150135E-04 -0.25660465741E-04  0.39472054881E-04  0.00000000000E+00 0. -1.
<mgrwt>
<rscale>  1 0.64856493E+03</rscale>
<asrwt>0</asrwt>
<pdfrwt beam="1">  1        3 0.38239763E+00 0.64856493E+03</pdfrwt>
<pdfrwt beam="2">0</pdfrwt>
<totfact> 0.73328209E-02</totfact>
</mgrwt>
</event>
<event>
 6    1  0.1529677E-003  0.6479538E+03  0.7818608E-02  0.9810626E-01
          1   -1    0    0  502    0  0.00000000000E+00  0.00000000000E+00  0.10497029508E+03  0.10497029508E+03  0.00000000000E+00 0.  1.
         13   -1    0    0    0    0 -0.00000000000E+00 -0.00000000000E+00 -0.10000000000E+04  0.10000000000E+04  0.00000000000E+00 0.  1.
    9000005    2    1    2  501    0  0.96701018771E-03  0.28290165808E-03 -0.89503894170E+03  0.11049610035E+04  0.64795378857E+03 0.  0.
         13    1    3    3    0    0 -0.28060729997E+03 -0.86029121964E+02 -0.68145871616E+03  0.74197536917E+03  0.00000000000E+00 0.  1.
          1    1    3    3  501    0  0.28060826698E+03  0.86029404865E+02 -0.21358022554E+03  0.36298563435E+03  0.00000000000E+00 0.  1.
         21    1    1    2  502  501 -0.96701018769E-03 -0.28290165808E-03  0.92367766047E-02  0.92915652124E-02  0.00000000000E+00 0. -1.
<mgrwt>
<rscale>  1 0.64795379E+03</rscale>
<asrwt>0</asrwt>
<pdfrwt beam="1">  1        1 0.38171097E+00 0.64795379E+03</pdfrwt>
<pdfrwt beam="2">0</pdfrwt>
<totfact> 0.16132889E+00</totfact>
</mgrwt>
</event>
<event>
 6    1  0.1529677E-003  0.6503181E+03  0.7818608E-02  0.9806183E-01
          1   -1    0    0  502    0  0.00000000000E+00  0.00000000000E+00  0.10629994164E+03  0.10629994164E+03  0.00000000000E+00 0.  1.
         13   -1    0    0    0    0 -0.00000000000E+00 -0.00000000000E+00 -0.10000000000E+04  0.10000000000E+04  0.00000000000E+00 0.  1.
    9000005    2    1    2  501    0 -0.16452402220E+00 -0.39730125852E+00 -0.89418078218E+03  0.11056549518E+04  0.65031793486E+03 0.  0.
         13    1    3    3    0    0  0.97186474729E+02  0.77149962803E+02 -0.95784936138E+03  0.96585336709E+03  0.00000000000E+00 0.  1.
          3    1    3    3  501    0 -0.97350998751E+02 -0.77547264062E+02  0.63668579198E+02  0.13980158475E+03  0.00000000000E+00 0.  1.
         21    1    1    2  502  501  0.16452402220E+00  0.39730125852E+00  0.48072382653E+00  0.64498979937E+00  0.00000000000E+00 0.  1.
<mgrwt>
<rscale>  1 0.65031808E+03</rscale>
<asrwt>0</asrwt>
<pdfrwt beam="1">  1        1 0.38654606E+00 0.65031808E+03</pdfrwt>
<pdfrwt beam="2">0</pdfrwt>
<totfact> 0.15351317E+00</totfact>
</mgrwt>
</event>
<event>
 6    1  0.1529677E-003  0.6457410E+03  0.7818608E-02  0.9814804E-01
          1   -1    0    0  502    0  0.00000000000E+00  0.00000000000E+00  0.10450266074E+03  0.10450266074E+03  0.00000000000E+00 0.  1.
         13   -1    0    0    0    0 -0.00000000000E+00 -0.00000000000E+00 -0.10000000000E+04  0.10000000000E+04  0.00000000000E+00 0.  1.
    9000005    2    1    2  501    0 -0.50981562090E-01  0.24088312655E-01 -0.89575121876E+03  0.11042425950E+04  0.64574101589E+03 0.  0.
         13    1    3    3    0    0 -0.11881749059E+03  0.29902212143E+03 -0.49400542850E+03  0.58955338059E+03  0.00000000000E+00 0.  1.
          1    1    3    3  501    0  0.11876650903E+03 -0.29899803312E+03 -0.40174579026E+03  0.51468921445E+03  0.00000000000E+00 0.  1.
         21    1    1    2  502  501  0.50981562090E-01 -0.24088312655E-01  0.25387949886E+00  0.26006569636E+00  0.00000000000E+00 0.  1.
<mgrwt>
<rscale>  1 0.64574102E+03</rscale>
<asrwt>0</asrwt>
<pdfrwt beam="1">  1        1 0.38001048E+00 0.64574102E+03</pdfrwt>
<pdfrwt beam="2">0</pdfrwt>
<totfact> 0.16420827E+00</totfact>
</mgrwt>
</event>
<event>
 6    1  0.1529677E-003  0.6435869E+03  0.7818608E-02  0.9818888E-01
          1   -1    0    0  502    0  0.00000000000E+00  0.00000000000E+00  0.10355711785E+03  0.10355711785E+03  0.00000000000E+00 0.  1.
         13   -1    0    0    0    0 -0.00000000000E+00 -0.00000000000E+00 -0.10000000000E+04  0.10000000000E+04  0.00000000000E+00 0.  1.
    9000005    2    1    2  501    0 -0.18171019079E-01  0.19233626832E-02 -0.89642488292E+03  0.11035314691E+04  0.64358692674E+03 0.  0.
         13    1    3    3    0    0  0.26018467719E+01 -0.30019588306E+03 -0.64689009145E+03  0.71315575314E+03  0.00000000000E+00 0.  1.
          1    1    3    3  501    0 -0.26200177910E+01  0.30019780642E+03 -0.24953479147E+03  0.39037571598E+03  0.00000000000E+00 0.  1.
         21    1    1    2  502  501  0.18171019079E-01 -0.19233626832E-02 -0.17999230780E-01  0.25648734219E-01  0.00000000000E+00 0.  1.
<mgrwt>
<rscale>  1 0.64358693E+03</rscale>
<asrwt>0</asrwt>
<pdfrwt beam="1">  1        1 0.37657213E+00 0.64358693E+03</pdfrwt>
<pdfrwt beam="2">0</pdfrwt>
<totfact> 0.17010807E+00</totfact>
</mgrwt>
</event>
<event>
 6    1  0.1529677E-003  0.5708475E+03  0.7818608E-02  0.9967805E-01
          1   -1    0    0  502    0  0.00000000000E+00  0.00000000000E+00  0.81469893404E+02  0.81469893404E+02  0.00000000000E+00 0.  1.
         13   -1    0    0    0    0 -0.00000000000E+00 -0.00000000000E+00 -0.10000000000E+04  0.10000000000E+04  0.00000000000E+00 0.  1.
    9000005    2    1    2  501    0  0.24996177564E-03 -0.18251038378E-03 -0.91853328084E+03  0.10814667041E+04  0.57084747881E+03 0.  0.
         13    1    3    3    0    0  0.26652707668E+03  0.83794608292E+02 -0.56987247715E+03  0.63467539671E+03  0.00000000000E+00 0.  1.
          1    1    3    3  501    0 -0.26652682672E+03 -0.83794790803E+02 -0.34866080370E+03  0.44679130739E+03  0.00000000000E+00 0.  1.
         21    1    1    2  502  501 -0.24996177563E-03  0.18251038379E-03  0.31742482569E-02  0.31893013225E-02  0.00000000000E+00 0.  1.
<mgrwt>
<rscale>  1 0.57084748E+03</rscale>
<asrwt>0</asrwt>
<pdfrwt beam="1">  1        1 0.29625478E+00 0.57084748E+03</pdfrwt>
<pdfrwt beam="2">0</pdfrwt>
<totfact> 0.38494877E+00</totfact>
</mgrwt>
</event>
<event>
 6    1  0.1529677E-003  0.6478434E+03  0.7818608E-02  0.9810834E-01
          1   -1    0    0  502    0  0.00000000000E+00  0.00000000000E+00  0.10492855971E+03  0.10492855971E+03  0.00000000000E+00 0.  1.
         13   -1    0    0    0    0 -0.00000000000E+00 -0.00000000000E+00 -0.10000000000E+04  0.10000000000E+04  0.00000000000E+00 0.  1.
    9000005    2    1    2  501    0  0.62759949236E-02 -0.21933558559E-02 -0.89507049601E+03  0.11049218448E+04  0.64784341484E+03 0.  0.
         13    1    3    3    0    0  0.28889487130E+03 -0.11757315628E+03 -0.59665142629E+03  0.67325821067E+03  0.00000000000E+00 0.  1.
          3    1    3    3  501    0 -0.28888859531E+03  0.11757096293E+03 -0.29841906972E+03  0.43166363409E+03  0.00000000000E+00 0.  1.
         21    1    1    2  502  501 -0.62759949236E-02  0.21933558559E-02 -0.94428522234E-03  0.67149532219E-02  0.00000000000E+00 0. -1.
<mgrwt>
<rscale>  1 0.64784341E+03</rscale>
<asrwt>0</asrwt>
<pdfrwt beam="1">  1        1 0.38155920E+00 0.64784341E+03</pdfrwt>
<pdfrwt beam="2">0</pdfrwt>
<totfact> 0.16158131E+00</totfact>
</mgrwt>
</event>
<event>
 6    1  0.1529677E-003  0.6566883E+03  0.7818608E-02  0.9794309E-01
          1   -1    0    0  502    0  0.00000000000E+00  0.00000000000E+00  0.10913962042E+03  0.10913962042E+03  0.00000000000E+00 0.  1.
         13   -1    0    0    0    0 -0.00000000000E+00 -0.00000000000E+00 -0.10000000000E+04  0.10000000000E+04  0.00000000000E+00 0.  1.
    9000005    2    1    2  501    0  0.25302182088E+00 -0.57424770682E-01 -0.89217609188E+03  0.11077985699E+04  0.65668822529E+03 0.  0.
         13    1    3    3    0    0  0.28618306224E+03 -0.13919637139E+03 -0.58344664242E+03  0.66459488372E+03  0.00000000000E+00 0.  1.
          1    1    3    3  501    0 -0.28593004041E+03  0.13913894662E+03 -0.30872944946E+03  0.44320368618E+03  0.00000000000E+00 0.  1.
         21    1    1    2  502  501 -0.25302182088E+00  0.57424770682E-01  0.13157123046E+01  0.13410505265E+01  0.00000000000E+00 0.  1.
<mgrwt>
<rscale>  1 0.65668828E+03</rscale>
<asrwt>0</asrwt>
<pdfrwt beam="1">  1        1 0.39687218E+00 0.65668828E+03</pdfrwt>
<pdfrwt beam="2">0</pdfrwt>
<totfact> 0.13797411E+00</totfact>
</mgrwt>
</event>
<event>
 6    1  0.1529677E-003  0.6654464E+03  0.7818608E-02  0.9778219E-01
          1   -1    0    0  502    0  0.00000000000E+00  0.00000000000E+00  0.11071014252E+03  0.11071014252E+03  0.00000000000E+00 0.  1.
         13   -1    0    0    0    0 -0.00000000000E+00 -0.00000000000E+00 -0.10000000000E+04  0.10000000000E+04  0.00000000000E+00 0.  1.
    9000005    2    1    2  501    0 -0.24135759924E-02  0.14021824108E-01 -0.88928120452E+03  0.11106934899E+04  0.66544644227E+03 0.  0.
         13    1    3    3    0    0 -0.16293860808E+03 -0.47023248878E+02  0.33153713772E+02  0.17279856676E+03  0.00000000000E+00 0.  1.
          3    1    3    3  501    0  0.16293619450E+03  0.47037270702E+02 -0.92243491830E+03  0.93789492312E+03  0.00000000000E+00 0.  1.
         21    1    1    2  502  501  0.24135759925E-02 -0.14021824108E-01 -0.86529558409E-02  0.16652643789E-01  0.00000000000E+00 0.  1.
<mgrwt>
<rscale>  1 0.66544644E+03</rscale>
<asrwt>0</asrwt>
<pdfrwt beam="1">  1        1 0.40258319E+00 0.66544644E+03</pdfrwt>
<pdfrwt beam="2">0</pdfrwt>
<totfact> 0.12990410E+00</totfact>
</mgrwt>
</event>
<event>
 6    1  0.1529677E-003  0.6596416E+03  0.7818608E-02  0.9788854E-01
          1   -1    0    0  502    0  0.00000000000E+00  0.00000000000E+00  0.11346989110E+03  0.11346989110E+03  0.00000000000E+00 0.  1.
         13   -1    0    0    0    0 -0.00000000000E+00 -0.00000000000E+00 -0.10000000000E+04  0.10000000000E+04  0.00000000000E+00 0.  1.
    9000005    2    1    2  501    0  0.42470232103E+00  0.11398418696E+00 -0.89120680767E+03  0.11087725646E+04  0.65964144252E+03 0.  0.
         13    1    3    3    0    0  0.14090224866E+03  0.23368853216E+03 -0.13400530381E+03  0.30400854460E+03  0.00000000000E+00 0.  1.
          3    1    3    3  501    0 -0.14047754634E+03 -0.23357454797E+03 -0.75720150387E+03  0.80476402004E+03  0.00000000000E+00 0.  1.
         21    1    1    2  502  501 -0.42470232103E+00 -0.11398418696E+00  0.46766987728E+01  0.46973264596E+01  0.00000000000E+00 0. -1.
<mgrwt>
<rscale>  1 0.65964159E+03</rscale>
<asrwt>0</asrwt>
<pdfrwt beam="1">  1        1 0.41261866E+00 0.65964159E+03</pdfrwt>
<pdfrwt beam="2">0</pdfrwt>
<totfact> 0.11726247E+00</totfact>
</mgrwt>
</event>
<event>
 6    1  0.1529677E-003  0.6884190E+03  0.7818608E-02  0.9737245E-01
          1   -1    0    0  502    0  0.00000000000E+00  0.00000000000E+00  0.11855467692E+03  0.11855467692E+03  0.00000000000E+00 0.  1.
         13   -1    0    0    0    0 -0.00000000000E+00 -0.00000000000E+00 -0.10000000000E+04  0.10000000000E+04  0.00000000000E+00 0.  1.
    9000005    2    1    2  501    0  0.10640912922E-02  0.11202885431E-02 -0.88151979979E+03  0.11184801842E+04  0.68841903300E+03 0.  0.
         13    1    3    3    0    0  0.33238699351E+03  0.83745771241E+02 -0.49178203721E+03  0.59945311725E+03  0.00000000000E+00 0.  1.
          3    1    3    3  501    0 -0.33238592942E+03 -0.83744650953E+02 -0.38973776258E+03  0.51902706694E+03  0.00000000000E+00 0.  1.
         21    1    1    2  502  501 -0.10640912922E-02 -0.11202885431E-02  0.74476708170E-01  0.74492733850E-01  0.00000000000E+00 0.  1.
<mgrwt>
<rscale>  1 0.68841903E+03</rscale>
<asrwt>0</asrwt>
<pdfrwt beam="1">  1        1 0.43110883E+00 0.68841903E+03</pdfrwt>
<pdfrwt beam="2">0</pdfrwt>
<totfact> 0.96203984E-01</totfact>
</mgrwt>
</event>
<event>
 6    1  0.1529677E-003  0.5954824E+03  0.7818608E-02  0.9914823E-01
          1   -1    0    0  502    0  0.00000000000E+00  0.00000000000E+00  0.88653375637E+02  0.88653375637E+02  0.00000000000E+00 0.  1.
         13   -1    0    0    0    0 -0.00000000000E+00 -0.00000000000E+00 -0.10000000000E+04  0.10000000000E+04  0.00000000000E+00 0.  1.
    9000005    2    1    2  501    0 -0.48068392975E-02 -0.91686608968E-02 -0.91133913415E+03  0.10886405978E+04  0.59548243771E+03 0.  0.
         13    1    3    3    0    0 -0.70037853347E+02 -0.28928700491E+03 -0.46990295446E+03  0.55623831109E+03  0.00000000000E+00 0.  1.
          1    1    3    3  501    0  0.70033046507E+02  0.28927783625E+03 -0.44143617969E+03  0.53240228670E+03  0.00000000000E+00 0.  1.
         21    1    1    2  502  501  0.48068392975E-02  0.91686608968E-02 -0.74902106219E-02  0.12777844178E-01  0.00000000000E+00 0. -1.
<mgrwt>
<rscale>  1 0.59548244E+03</rscale>
<asrwt>0</asrwt>
<pdfrwt beam="1">  1        1 0.32237659E+00 0.59548244E+03</pdfrwt>
<pdfrwt beam="2">0</pdfrwt>
<totfact> 0.29560878E+00</totfact>
</mgrwt>
</event>
<event>
 6    1  0.1529677E-003  0.6119765E+03  0.7818608E-02  0.9880866E-01
          1   -1    0    0  502    0  0.00000000000E+00  0.00000000000E+00  0.94451077835E+02  0.94451077835E+02  0.00000000000E+00 0.  1.
         13   -1    0    0    0    0 -0.00000000000E+00 -0.00000000000E+00 -0.10000000000E+04  0.10000000000E+04  0.00000000000E+00 0.  1.
    9000005    2    1    2  501    0  0.12512020447E+01 -0.15115796333E+01 -0.90484937434E+03  0.10923678720E+04  0.61197330585E+03 0.  0.
         13    1    3    3    0    0  0.15966321527E+03  0.18521010932E+03 -0.78015633794E+03  0.81758121219E+03  0.00000000000E+00 0.  1.
          1    1    3    3  501    0 -0.15841201323E+03 -0.18672168895E+03 -0.12469303640E+03  0.27478665977E+03  0.00000000000E+00 0.  1.
         21    1    1    2  502  501 -0.12512020447E+01  0.15115796333E+01 -0.69954783009E+00  0.20832058734E+01  0.00000000000E+00 0.  1.
<mgrwt>
<rscale>  1 0.61197645E+03</rscale>
<asrwt>0</asrwt>
<pdfrwt beam="1">  1        1 0.34345919E+00 0.61197645E+03</pdfrwt>
<pdfrwt beam="2">0</pdfrwt>
<totfact> 0.23881000E+00</totfact>
</mgrwt>
</event>
<event>
 6    1  0.1529677E-003  0.6323084E+03  0.7818608E-02  0.9840555E-01
          3   -1    0    0  502    0  0.00000000000E+00  0.00000000000E+00  0.10177715209E+03  0.10177715209E+03  0.00000000000E+00 0.  1.
         13   -1    0    0    0    0 -0.00000000000E+00 -0.00000000000E+00 -0.10000000000E+04  0.10000000000E+04  0.00000000000E+00 0.  1.
    9000005    2    1    2  501    0  0.53831614060E-01  0.65051334181E-01 -0.90004546190E+03  0.10999525833E+04  0.63230834636E+03 0.  0.
         13    1    3    3    0    0 -0.71463200336E+02 -0.13818582574E+03  0.28749636661E+02  0.15820509804E+03  0.00000000000E+00 0.  1.
          3    1    3    3  501    0  0.71517031951E+02  0.13825087708E+03 -0.92879509856E+03  0.94174748526E+03  0.00000000000E+00 0.  1.
         21    1    1    2  502  501 -0.53831614060E-01 -0.65051334181E-01  0.18226139968E+01  0.18245687984E+01  0.00000000000E+00 0.  1.
<mgrwt>
<rscale>  1 0.63230835E+03</rscale>
<asrwt>0</asrwt>
<pdfrwt beam="1">  1        3 0.37009952E+00 0.63230835E+03</pdfrwt>
<pdfrwt beam="2">0</pdfrwt>
<totfact> 0.85400697E-02</totfact>
</mgrwt>
</event>
<event>
 6    1  0.1529677E-003  0.6483598E+03  0.7818608E-02  0.9809862E-01
          1   -1    0    0  502    0  0.00000000000E+00  0.00000000000E+00  0.10808041011E+03  0.10808041011E+03  0.00000000000E+00 0.  1.
         13   -1    0    0    0    0 -0.00000000000E+00 -0.00000000000E+00 -0.10000000000E+04  0.10000000000E+04  0.00000000000E+00 0.  1.
    9000005    2    1    2  501    0 -0.14445150299E+01  0.26889657741E+01 -0.89402075587E+03  0.11043747308E+04  0.64835261775E+03 0.  0.
         13    1    3    3    0    0 -0.24293653895E+03  0.45207049741E+02 -0.88689724441E+02  0.26254086639E+03  0.00000000000E+00 0.  1.
          1    1    3    3  501    0  0.24149202392E+03 -0.42518083967E+02 -0.80533103143E+03  0.84183386441E+03  0.00000000000E+00 0.  1.
         21    1    1    2  502  501  0.14445150299E+01 -0.26889657741E+01  0.21011659790E+01  0.37056793004E+01  0.00000000000E+00 0. -1.
<mgrwt>
<rscale>  1 0.64835980E+03</rscale>
<asrwt>0</asrwt>
<pdfrwt beam="1">  1        1 0.39302050E+00 0.64835980E+03</pdfrwt>
<pdfrwt beam="2">0</pdfrwt>
<totfact> 0.14374747E+00</totfact>
</mgrwt>
</event>
<event>
 6    1  0.1529677E-003  0.6459118E+03  0.7818608E-02  0.9814481E-01
          1   -1    0    0  502    0  0.00000000000E+00  0.00000000000E+00  0.10617391765E+03  0.10617391765E+03  0.00000000000E+00 0.  1.
         13   -1    0    0    0    0 -0.00000000000E+00 -0.00000000000E+00 -0.10000000000E+04  0.10000000000E+04  0.00000000000E+00 0.  1.
    9000005    2    1    2  501    0 -0.23169599235E-01 -0.33492407265E-01 -0.89569923657E+03  0.11043003208E+04  0.64591181624E+03 0.  0.
         13    1    3    3    0    0 -0.13248590045E+03 -0.14786009730E+03 -0.88339304528E+03  0.90542718903E+03  0.00000000000E+00 0.  1.
          1    1    3    3  501    0  0.13246273085E+03  0.14782660490E+03 -0.12306191299E+02  0.19887313173E+03  0.00000000000E+00 0.  1.
         21    1    1    2  502  501  0.23169599235E-01  0.33492407265E-01  0.18731542276E+01  0.18735968969E+01  0.00000000000E+00 0.  1.
<mgrwt>
<rscale>  1 0.64591182E+03</rscale>
<asrwt>0</asrwt>
<pdfrwt beam="1">  1        1 0.38608779E+00 0.64591182E+03</pdfrwt>
<pdfrwt beam="2">0</pdfrwt>
<totfact> 0.15435801E+00</totfact>
</mgrwt>
</event>
<event>
 6    1  0.1529677E-003  0.6611607E+03  0.7818608E-02  0.9786059E-01
          1   -1    0    0  502    0  0.00000000000E+00  0.00000000000E+00  0.10928353308E+03  0.10928353308E+03  0.00000000000E+00 0.  1.
         13   -1    0    0    0    0 -0.00000000000E+00 -0.00000000000E+00 -0.10000000000E+04  0.10000000000E+04  0.00000000000E+00 0.  1.
    9000005    2    1    2  501    0 -0.20695682226E-03 -0.46326068258E-04 -0.89071655637E+03  0.11092833029E+04  0.66116069327E+03 0.  0.
         13    1    3    3    0    0  0.40972853645E+02  0.23857442402E+03 -0.82308952071E+03  0.85794690374E+03  0.00000000000E+00 0.  1.
          3    1    3    3  501    0 -0.40973060602E+02 -0.23857447034E+03 -0.67627035658E+02  0.25133639917E+03  0.00000000000E+00 0.  1.
         21    1    1    2  502  501  0.20695682226E-03  0.46326068256E-04  0.89457371208E-04  0.23017352616E-03  0.00000000000E+00 0.  1.
<mgrwt>
<rscale>  1 0.66116069E+03</rscale>
<asrwt>0</asrwt>
<pdfrwt beam="1">  1        1 0.39739550E+00 0.66116069E+03</pdfrwt>
<pdfrwt beam="2">0</pdfrwt>
<totfact> 0.13712122E+00</totfact>
</mgrwt>
</event>
<event>
 6    1  0.1529677E-003  0.5665756E+03  0.7818608E-02  0.9977285E-01
          1   -1    0    0  502    0  0.00000000000E+00  0.00000000000E+00  0.80252155213E+02  0.80252155213E+02  0.00000000000E+00 0.  1.
         13   -1    0    0    0    0 -0.00000000000E+00 -0.00000000000E+00 -0.10000000000E+04  0.10000000000E+04  0.00000000000E+00 0.  1.
    9000005    2    1    2  501    0  0.85697083136E-05 -0.81839462155E-04 -0.91974800229E+03  0.10802519775E+04  0.56657563237E+03 0.  0.
         13    1    3    3    0    0 -0.16076870380E+03  0.22017028088E+03 -0.60670252207E+03  0.66513869155E+03  0.00000000000E+00 0.  1.
          1    1    3    3  501    0  0.16076871237E+03 -0.22017036272E+03 -0.31304548022E+03  0.41511328596E+03  0.00000000000E+00 0.  1.
         21    1    1    2  502  501 -0.85697083314E-05  0.81839462151E-04  0.15750356315E-03  0.17770343236E-03  0.00000000000E+00 0.  1.
<mgrwt>
<rscale>  1 0.56657563E+03</rscale>
<asrwt>0</asrwt>
<pdfrwt beam="1">  1        1 0.29182663E+00 0.56657563E+03</pdfrwt>
<pdfrwt beam="2">0</pdfrwt>
<totfact> 0.40255739E+00</totfact>
</mgrwt>
</event>
<event>
 6    1  0.2066690E-003  0.6598305E+03  0.7818608E-02  0.9788506E-01
          1   -1    0    0  502    0  0.00000000000E+00  0.00000000000E+00  0.10884413054E+03  0.10884413054E+03  0.00000000000E+00 0.  1.
         13   -1    0    0    0    0 -0.00000000000E+00 -0.00000000000E+00 -0.10000000000E+04  0.10000000000E+04  0.00000000000E+00 0.  1.
    9000005    2    1    2  501    0  0.53073738659E-04 -0.56906762524E-04 -0.89115588467E+03  0.11088440512E+04  0.65983052309E+03 0.  0.
         13    1    3    3    0    0 -0.63035039085E+01  0.96094716962E+02 -0.97585474587E+03  0.98059492851E+03  0.00000000000E+00 0.  1.
          3    1    3    3  501    0  0.63035569823E+01 -0.96094773869E+02  0.84698861195E+02  0.12824912274E+03  0.00000000000E+00 0.  1.
         21    1    1    2  502  501 -0.53073738659E-04  0.56906762514E-04  0.15206801014E-04  0.79287124756E-04  0.00000000000E+00 0.  1.
<mgrwt>
<rscale>  1 0.65983052E+03</rscale>
<asrwt>0</asrwt>
<pdfrwt beam="1">  1        1 0.39579767E+00 0.65983052E+03</pdfrwt>
<pdfrwt beam="2">0</pdfrwt>
<totfact> 0.13941964E+00</totfact>
</mgrwt>
</event>
<event>
 6    1  0.1529677E-003  0.6482184E+03  0.7818608E-02  0.9810128E-01
          1   -1    0    0  502    0  0.00000000000E+00  0.00000000000E+00  0.10504960299E+03  0.10504960299E+03  0.00000000000E+00 0.  1.
         13   -1    0    0    0    0 -0.00000000000E+00 -0.00000000000E+00 -0.10000000000E+04  0.10000000000E+04  0.00000000000E+00 0.  1.
    9000005    2    1    2  501    0 -0.12305282835E-02  0.95716350559E-03 -0.89495298237E+03  0.11050465840E+04  0.64821841389E+03 0.  0.
         13    1    3    3    0    0  0.19652842411E+03  0.48562246840E+02 -0.87896454491E+03  0.90197582257E+03  0.00000000000E+00 0.  1.
          1    1    3    3  501    0 -0.19652965463E+03 -0.48561289676E+02 -0.15988437460E+02  0.20307076141E+03  0.00000000000E+00 0.  1.
         21    1    1    2  502  501  0.12305282835E-02 -0.95716350559E-03  0.25853527018E-02  0.30190081858E-02  0.00000000000E+00 0.  1.
<mgrwt>
<rscale>  1 0.64821841E+03</rscale>
<asrwt>0</asrwt>
<pdfrwt beam="1">  1        1 0.38199936E+00 0.64821841E+03</pdfrwt>
<pdfrwt beam="2">0</pdfrwt>
<totfact> 0.16084863E+00</totfact>
</mgrwt>
</event>
<event>
 6    1  0.1529677E-003  0.6556462E+03  0.7818608E-02  0.9796242E-01
          1   -1    0    0  502    0  0.00000000000E+00  0.00000000000E+00  0.10803681854E+03  0.10803681854E+03  0.00000000000E+00 0.  1.
         13   -1    0    0    0    0 -0.00000000000E+00 -0.00000000000E+00 -0.10000000000E+04  0.10000000000E+04  0.00000000000E+00 0.  1.
    9000005    2    1    2  501    0 -0.22204007075E+00  0.76167717132E-01 -0.89250507458E+03  0.11074462667E+04  0.65564614723E+03 0.  0.
         13    1    3    3    0    0  0.42298554721E+02  0.29017712960E+03 -0.19867438958E+03  0.35420819775E+03  0.00000000000E+00 0.  1.
          3    1    3    3  501    0 -0.42520594791E+02 -0.29010096189E+03 -0.69383068501E+03  0.75323806896E+03  0.00000000000E+00 0.  1.
         21    1    1    2  502  501  0.22204007075E+00 -0.76167717132E-01  0.54189312166E+00  0.59055183469E+00  0.00000000000E+00 0. -1.
<mgrwt>
<rscale>  1 0.65564619E+03</rscale>
<asrwt>0</asrwt>
<pdfrwt beam="1">  1        1 0.39286199E+00 0.65564619E+03</pdfrwt>
<pdfrwt beam="2">0</pdfrwt>
<totfact> 0.14378441E+00</totfact>
</mgrwt>
</event>
<event>
 6    1  0.1529677E-003  0.6509238E+03  0.7818608E-02  0.9805047E-01
          1   -1    0    0  502    0  0.00000000000E+00  0.00000000000E+00  0.10592694740E+03  0.10592694740E+03  0.00000000000E+00 0.  1.
         13   -1    0    0    0    0 -0.00000000000E+00 -0.00000000000E+00 -0.10000000000E+04  0.10000000000E+04  0.00000000000E+00 0.  1.
    9000005    2    1    2  501    0 -0.18744028023E-03 -0.64780694903E-04 -0.89407455462E+03  0.11059254323E+04  0.65092376872E+03 0.  0.
         13    1    3    3    0    0 -0.29616544173E+03  0.25134510895E+02 -0.67230690779E+03  0.73507978531E+03  0.00000000000E+00 0.  1.
          3    1    3    3  501    0  0.29616525429E+03 -0.25134575676E+02 -0.22176764683E+03  0.37084564703E+03  0.00000000000E+00 0.  1.
         21    1    1    2  502  501  0.18744028025E-03  0.64780694903E-04  0.15020227433E-02  0.15150586518E-02  0.00000000000E+00 0.  1.
<mgrwt>
<rscale>  1 0.65092377E+03</rscale>
<asrwt>0</asrwt>
<pdfrwt beam="1">  1        1 0.38518971E+00 0.65092377E+03</pdfrwt>
<pdfrwt beam="2">0</pdfrwt>
<totfact> 0.15563203E+00</totfact>
</mgrwt>
</event>
<event>
 6    1  0.1529677E-003  0.6374988E+03  0.7818608E-02  0.9830524E-01
          1   -1    0    0  502    0  0.00000000000E+00  0.00000000000E+00  0.10160132279E+03  0.10160132279E+03  0.00000000000E+00 0.  1.
         13   -1    0    0    0    0 -0.00000000000E+00 -0.00000000000E+00 -0.10000000000E+04  0.10000000000E+04  0.00000000000E+00 0.  1.
    9000005    2    1    2  501    0  0.32848298758E-04  0.31212090363E-04 -0.89839881875E+03  0.11016011742E+04  0.63749879169E+03 0.  0.
         13    1    3    3    0    0 -0.13289329023E+03  0.11738589281E+03 -0.90691238498E+03  0.92408340990E+03  0.00000000000E+00 0.  1.
          3    1    3    3  501    0  0.13289332307E+03 -0.11738586160E+03  0.85135662313E+01  0.17751776427E+03  0.00000000000E+00 0.  1.
         21    1    1    2  502  501 -0.32848298746E-04 -0.31212090364E-04  0.14154626010E-03  0.14862216881E-03  0.00000000000E+00 0. -1.
<mgrwt>
<rscale>  1 0.63749879E+03</rscale>
<asrwt>0</asrwt>
<pdfrwt beam="1">  1        1 0.36946013E+00 0.63749879E+03</pdfrwt>
<pdfrwt beam="2">0</pdfrwt>
<totfact> 0.18301439E+00</totfact>
</mgrwt>
</event>
<event>
 6    1  0.1529677E-003  0.6508054E+03  0.7818608E-02  0.9805269E-01
          1   -1    0    0  502    0  0.00000000000E+00  0.00000000000E+00  0.13124620499E+03  0.13124620499E+03  0.00000000000E+00 0.  1.
         13   -1    0    0    0    0 -0.00000000000E+00 -0.00000000000E+00 -0.10000000000E+04  0.10000000000E+04  0.00000000000E+00 0.  1.
    9000005    2    1    2  501    0  0.38893832086E+00  0.13909790658E-02 -0.89411144952E+03  0.11058855678E+04  0.65080523485E+03 0.  0.
         13    1    3    3    0    0 -0.21394866821E+03 -0.16658132255E+03 -0.14157996043E+03  0.30588928528E+03  0.00000000000E+00 0.  1.
          3    1    3    3  501    0  0.21433760654E+03  0.16658271353E+03 -0.75253148909E+03  0.79999628255E+03  0.00000000000E+00 0.  1.
         21    1    1    2  502  501 -0.38893832086E+00 -0.13909790658E-02  0.25357654513E+02  0.25360637164E+02  0.00000000000E+00 0. -1.
<mgrwt>
<rscale>  1 0.65080535E+03</rscale>
<asrwt>0</asrwt>
<pdfrwt beam="1">  1        1 0.47725993E+00 0.65080535E+03</pdfrwt>
<pdfrwt beam="2">0</pdfrwt>
<totfact> 0.59306397E-01</totfact>
</mgrwt>
</event>
<event>
 6    1  0.1529677E-003  0.6442621E+03  0.7818608E-02  0.9817606E-01
          1   -1    0    0  502    0  0.00000000000E+00  0.00000000000E+00  0.10376848079E+03  0.10376848079E+03  0.00000000000E+00 0.  1.
         13   -1    0    0    0    0 -0.00000000000E+00 -0.00000000000E+00 -0.10000000000E+04  0.10000000000E+04  0.00000000000E+00 0.  1.
    9000005    2    1    2  501    0  0.88422200520E-04  0.15077504463E-03 -0.89623113616E+03  0.11037680598E+04  0.64426212081E+03 0.  0.
         13    1    3    3    0    0  0.30075160281E+03  0.10040628728E+03 -0.54556676560E+03  0.63101192131E+03  0.00000000000E+00 0.  1.
          3    1    3    3  501    0 -0.30075151438E+03 -0.10040613650E+03 -0.35066437056E+03  0.47275613844E+03  0.00000000000E+00 0.  1.
         21    1    1    2  502  501 -0.88422200498E-04 -0.15077504463E-03 -0.38304890220E-03  0.42104401325E-03  0.00000000000E+00 0. -1.
<mgrwt>
<rscale>  1 0.64426212E+03</rscale>
<asrwt>0</asrwt>
<pdfrwt beam="1">  1        1 0.37734073E+00 0.64426212E+03</pdfrwt>
<pdfrwt beam="2">0</pdfrwt>
<totfact> 0.16876598E+00</totfact>
</mgrwt>
</event>
<event>
 6    1  0.1529677E-003  0.6483844E+03  0.7818608E-02  0.9809815E-01
          1   -1    0    0  502    0  0.00000000000E+00  0.00000000000E+00  0.10514077688E+03  0.10514077688E+03  0.00000000000E+00 0.  1.
         13   -1    0    0    0    0 -0.00000000000E+00 -0.00000000000E+00 -0.10000000000E+04  0.10000000000E+04  0.00000000000E+00 0.  1.
    9000005    2    1    2  501    0  0.39041448273E-02 -0.34297567186E-02 -0.89489922562E+03  0.11051004382E+04  0.64838441880E+03 0.  0.
         13    1    3    3    0    0  0.14357342971E+03 -0.14734497294E+03 -0.87449543601E+03  0.89836859828E+03  0.00000000000E+00 0.  1.
          3    1    3    3  501    0 -0.14356952557E+03  0.14734154319E+03 -0.20403789610E+02  0.20673183996E+03  0.00000000000E+00 0.  1.
         21    1    1    2  502  501 -0.39041448273E-02  0.34297567186E-02  0.40002503024E-01  0.40338639369E-01  0.00000000000E+00 0.  1.
<mgrwt>
<rscale>  1 0.64838442E+03</rscale>
<asrwt>0</asrwt>
<pdfrwt beam="1">  1        1 0.38233090E+00 0.64838442E+03</pdfrwt>
<pdfrwt beam="2">0</pdfrwt>
<totfact> 0.16030227E+00</totfact>
</mgrwt>
</event>
<event>
 6    1  0.1529677E-003  0.6479808E+03  0.7818608E-02  0.9810576E-01
          1   -1    0    0  502    0  0.00000000000E+00  0.00000000000E+00  0.10497737369E+03  0.10497737369E+03  0.00000000000E+00 0.  1.
         13   -1    0    0    0    0 -0.00000000000E+00 -0.00000000000E+00 -0.10000000000E+04  0.10000000000E+04  0.00000000000E+00 0.  1.
    9000005    2    1    2  501    0  0.33380795315E-03 -0.49848804653E-03 -0.89503021471E+03  0.11049697616E+04  0.64798077815E+03 0.  0.
         13    1    3    3    0    0 -0.16412280179E+03  0.24867844681E+03 -0.23052311914E+03  0.37672028408E+03  0.00000000000E+00 0.  1.
          3    1    3    3  501    0  0.16412313560E+03 -0.24867894530E+03 -0.66450709557E+03  0.72824947754E+03  0.00000000000E+00 0.  1.
         21    1    1    2  502  501 -0.33380795316E-03  0.49848804655E-03  0.75883922424E-02  0.76120703430E-02  0.00000000000E+00 0.  1.
<mgrwt>
<rscale>  1 0.64798078E+03</rscale>
<asrwt>0</asrwt>
<pdfrwt beam="1">  1        1 0.38173671E+00 0.64798078E+03</pdfrwt>
<pdfrwt beam="2">0</pdfrwt>
<totfact> 0.16128587E+00</totfact>
</mgrwt>
</event>
<event>
 6    1  0.1529677E-003  0.6133277E+03  0.7818608E-02  0.9878135E-01
          3   -1    0    0  502    0  0.00000000000E+00  0.00000000000E+00  0.94091966923E+02  0.94091966923E+02  0.00000000000E+00 0.  1.
         13   -1    0    0    0    0 -0.00000000000E+00 -0.00000000000E+00 -0.10000000000E+04  0.10000000000E+04  0.00000000000E+00 0.  1.
    9000005    2    1    2  501    0  0.16554407118E-01  0.13120474134E-01 -0.90595480805E+03  0.10940406435E+04  0.61332765710E+03 0.  0.
         13    1    3    3    0    0  0.11585593475E+03  0.22098648315E+03 -0.77103173520E+03  0.81039962983E+03  0.00000000000E+00 0.  1.
          3    1    3    3  501    0 -0.11583938034E+03 -0.22097336267E+03 -0.13492307286E+03  0.28364101367E+03  0.00000000000E+00 0.  1.
         21    1    1    2  502  501 -0.16554407118E-01 -0.13120474134E-01  0.46774973749E-01  0.51323419661E-01  0.00000000000E+00 0.  1.
<mgrwt>
<rscale>  1 0.61332766E+03</rscale>
<asrwt>0</asrwt>
<pdfrwt beam="1">  1        3 0.34215333E+00 0.61332766E+03</pdfrwt>
<pdfrwt beam="2">0</pdfrwt>
<totfact> 0.12060783E-01</totfact>
</mgrwt>
</event>
<event>
 6    1  0.1529677E-003  0.6511575E+03  0.7818608E-02  0.9804610E-01
          1   -1    0    0  502    0  0.00000000000E+00  0.00000000000E+00  0.10601320217E+03  0.10601320217E+03  0.00000000000E+00 0.  1.
         13   -1    0    0    0    0 -0.00000000000E+00 -0.00000000000E+00 -0.10000000000E+04  0.10000000000E+04  0.00000000000E+00 0.  1.
    9000005    2    1    2  501    0  0.29786690390E-02  0.46353320130E-02 -0.89399776743E+03  0.11060009265E+04  0.65115746278E+03 0.  0.
         13    1    3    3    0    0  0.30281698382E+03 -0.11850278960E+03 -0.41956841120E+03  0.53082830418E+03  0.00000000000E+00 0.  1.
          1    1    3    3  501    0 -0.30281400515E+03  0.11850742493E+03 -0.47442935623E+03  0.57517262237E+03  0.00000000000E+00 0.  1.
         21    1    1    2  502  501 -0.29786690390E-02 -0.46353320130E-02  0.10969596061E-01  0.12275618512E-01  0.00000000000E+00 0. -1.
<mgrwt>
<rscale>  1 0.65115746E+03</rscale>
<asrwt>0</asrwt>
<pdfrwt beam="1">  1        1 0.38550337E+00 0.65115746E+03</pdfrwt>
<pdfrwt beam="2">0</pdfrwt>
<totfact> 0.15512887E+00</totfact>
</mgrwt>
</event>
<event>
 6    1  0.1529677E-003  0.6323514E+03  0.7818608E-02  0.9840471E-01
          1   -1    0    0  502    0  0.00000000000E+00  0.00000000000E+00  0.10006927769E+03  0.10006927769E+03  0.00000000000E+00 0.  1.
         13   -1    0    0    0    0 -0.00000000000E+00 -0.00000000000E+00 -0.10000000000E+04  0.10000000000E+04  0.00000000000E+00 0.  1.
    9000005    2    1    2  501    0 -0.32656060083E-02 -0.22767525766E-02 -0.90003289619E+03  0.10999670263E+04  0.63235136174E+03 0.  0.
         13    1    3    3    0    0  0.10832478016E+03  0.16753431831E+03 -0.87668342520E+03  0.89909723269E+03  0.00000000000E+00 0.  1.
          3    1    3    3  501    0 -0.10832804576E+03 -0.16753659506E+03 -0.23349470985E+02  0.20086979360E+03  0.00000000000E+00 0.  1.
         21    1    1    2  502  501  0.32656060083E-02  0.22767525765E-02  0.10217388000E+00  0.10225140360E+00  0.00000000000E+00 0.  1.
<mgrwt>
<rscale>  1 0.63235136E+03</rscale>
<asrwt>0</asrwt>
<pdfrwt beam="1">  1        1 0.36388905E+00 0.63235136E+03</pdfrwt>
<pdfrwt beam="2">0</pdfrwt>
<totfact> 0.19378635E+00</totfact>
</mgrwt>
</event>
<event>
 6    1  0.1529677E-003  0.6515666E+03  0.7818608E-02  0.9803844E-01
          1   -1    0    0  502    0  0.00000000000E+00  0.00000000000E+00  0.10637260044E+03  0.10637260044E+03  0.00000000000E+00 0.  1.
         13   -1    0    0    0    0 -0.00000000000E+00 -0.00000000000E+00 -0.10000000000E+04  0.10000000000E+04  0.00000000000E+00 0.  1.
    9000005    2    1    2  501    0  0.72636908549E-02  0.68053800166E-01 -0.89385978181E+03  0.11061303494E+04  0.65156660101E+03 0.  0.
         13    1    3    3    0    0  0.13213409416E+03  0.13534297135E+03  0.33823986104E+01  0.18917869688E+03  0.00000000000E+00 0.  1.
          1    1    3    3  501    0 -0.13212683047E+03 -0.13527491755E+03 -0.89724218042E+03  0.91695165247E+03  0.00000000000E+00 0.  1.
         21    1    1    2  502  501 -0.72636908549E-02 -0.68053800166E-01  0.23238224656E+00  0.24225108759E+00  0.00000000000E+00 0.  1.
<mgrwt>
<rscale>  1 0.65156660E+03</rscale>
<asrwt>0</asrwt>
<pdfrwt beam="1">  1        1 0.38681027E+00 0.65156660E+03</pdfrwt>
<pdfrwt beam="2">0</pdfrwt>
<totfact> 0.15306490E+00</totfact>
</mgrwt>
</event>
<event>
 6    1  0.1529677E-003  0.6080982E+03  0.7818608E-02  0.9888746E-01
          1   -1    0    0  502    0  0.00000000000E+00  0.00000000000E+00  0.10965136232E+03  0.10965136232E+03  0.00000000000E+00 0.  1.
         13   -1    0    0    0    0 -0.00000000000E+00 -0.00000000000E+00 -0.10000000000E+04  0.10000000000E+04  0.00000000000E+00 0.  1.
    9000005    2    1    2  501    0  0.29794789492E+00 -0.33699614280E+00 -0.90755092913E+03  0.10924431907E+04  0.60809804606E+03 0.  0.
         13    1    3    3    0    0 -0.95989265263E+02 -0.27323555010E+03 -0.28696704030E+03  0.40770293978E+03  0.00000000000E+00 0.  1.
          1    1    3    3  501    0  0.96287213158E+02  0.27289855396E+03 -0.62058388883E+03  0.68474025093E+03  0.00000000000E+00 0.  1.
         21    1    1    2  502  501 -0.29794789492E+00  0.33699614280E+00  0.17202291446E+02  0.17208171615E+02  0.00000000000E+00 0. -1.
<mgrwt>
<rscale>  1 0.60809821E+03</rscale>
<asrwt>0</asrwt>
<pdfrwt beam="1">  1        1 0.39873307E+00 0.60809821E+03</pdfrwt>
<pdfrwt beam="2">0</pdfrwt>
<totfact> 0.13665215E+00</totfact>
</mgrwt>
</event>
<event>
 6    1  0.1529677E-003  0.6553609E+03  0.7818608E-02  0.9796772E-01
          1   -1    0    0  502    0  0.00000000000E+00  0.00000000000E+00  0.11118612581E+03  0.11118612581E+03  0.00000000000E+00 0.  1.
         13   -1    0    0    0    0 -0.00000000000E+00 -0.00000000000E+00 -0.10000000000E+04  0.10000000000E+04  0.00000000000E+00 0.  1.
    9000005    2    1    2  501    0  0.55051096772E-01 -0.84451917127E-01 -0.89262478516E+03  0.11073738817E+04  0.65536089036E+03 0.  0.
         13    1    3    3    0    0  0.22430173801E+03  0.20692674364E+03 -0.64793377179E+03  0.71620396503E+03  0.00000000000E+00 0.  1.
          3    1    3    3  501    0 -0.22424668691E+03 -0.20701119556E+03 -0.24469101337E+03  0.39116991666E+03  0.00000000000E+00 0.  1.
         21    1    1    2  502  501 -0.55051096772E-01  0.84451917127E-01  0.38109109743E+01  0.38122441165E+01  0.00000000000E+00 0.  1.
<mgrwt>
<rscale>  1 0.65536090E+03</rscale>
<asrwt>0</asrwt>
<pdfrwt beam="1">  1        1 0.40431404E+00 0.65536090E+03</pdfrwt>
<pdfrwt beam="2">0</pdfrwt>
<totfact> 0.12785509E+00</totfact>
</mgrwt>
</event>
<event>
 6    1  0.1529677E-003  0.6457198E+03  0.7818608E-02  0.9814844E-01
          1   -1    0    0  502    0  0.00000000000E+00  0.00000000000E+00  0.10424155322E+03  0.10424155322E+03  0.00000000000E+00 0.  1.
         13   -1    0    0    0    0 -0.00000000000E+00 -0.00000000000E+00 -0.10000000000E+04  0.10000000000E+04  0.00000000000E+00 0.  1.
    9000005    2    1    2  501    0  0.23884858854E-03  0.31767576650E-03 -0.89576146646E+03  0.11042385075E+04  0.64571981279E+03 0.  0.
         13    1    3    3    0    0 -0.10119258575E+03 -0.28342896443E+03 -0.24796463570E+03  0.38994663461E+03  0.00000000000E+00 0.  1.
          1    1    3    3  501    0  0.10119282460E+03  0.28342928211E+03 -0.64779683077E+03  0.71429187288E+03  0.00000000000E+00 0.  1.
         21    1    1    2  502  501 -0.23884858853E-03 -0.31767576646E-03  0.30196800494E-02  0.30457239109E-02  0.00000000000E+00 0. -1.
<mgrwt>
<rscale>  1 0.64571981E+03</rscale>
<asrwt>0</asrwt>
<pdfrwt beam="1">  1        1 0.37906099E+00 0.64571981E+03</pdfrwt>
<pdfrwt beam="2">0</pdfrwt>
<totfact> 0.16580021E+00</totfact>
</mgrwt>
</event>
<event>
 6    1  0.1529677E-003  0.5752941E+03  0.7818608E-02  0.9958032E-01
          1   -1    0    0  502    0  0.00000000000E+00  0.00000000000E+00  0.82766345258E+02  0.82766345258E+02  0.00000000000E+00 0.  1.
         13   -1    0    0    0    0 -0.00000000000E+00 -0.00000000000E+00 -0.10000000000E+04  0.10000000000E+04  0.00000000000E+00 0.  1.
    9000005    2    1    2  501    0 -0.15236259225E-03  0.12725587354E-02 -0.91725917004E+03  0.10827407978E+04  0.57529405540E+03 0.  0.
         13    1    3    3    0    0 -0.15950482023E+03 -0.41599389143E+02 -0.90228810237E+03  0.91722195598E+03  0.00000000000E+00 0.  1.
          3    1    3    3  501    0  0.15950466787E+03  0.41600661702E+02 -0.14971067667E+02  0.16551884181E+03  0.00000000000E+00 0.  1.
         21    1    1    2  502  501  0.15236259225E-03 -0.12725587354E-02  0.25515298605E-01  0.25547467252E-01  0.00000000000E+00 0. -1.
<mgrwt>
<rscale>  1 0.57529406E+03</rscale>
<asrwt>0</asrwt>
<pdfrwt beam="1">  1        1 0.30096916E+00 0.57529406E+03</pdfrwt>
<pdfrwt beam="2">0</pdfrwt>
<totfact> 0.36705148E+00</totfact>
</mgrwt>
</event>
<event>
 6    1  0.1529677E-003  0.6504279E+03  0.7818608E-02  0.9805977E-01
          3   -1    0    0  502    0  0.00000000000E+00  0.00000000000E+00  0.10788346576E+03  0.10788346576E+03  0.00000000000E+00 0.  1.
         13   -1    0    0    0    0 -0.00000000000E+00 -0.00000000000E+00 -0.10000000000E+04  0.10000000000E+04  0.00000000000E+00 0.  1.
    9000005    2    1    2  501    0 -0.16598210112E+01  0.54656003759E+00 -0.89383010640E+03  0.11054360052E+04  0.65042559047E+03 0.  0.
         13    1    3    3    0    0 -0.12823319512E+03  0.13958529838E+01  0.61171098678E+02  0.14208308854E+03  0.00000000000E+00 0.  1.
          1    1    3    3  501    0  0.12657337411E+03 -0.84929294617E+00 -0.95500120508E+03  0.96335291666E+03  0.00000000000E+00 0.  1.
         21    1    1    2  502  501  0.16598210112E+01 -0.54656003759E+00  0.17135721636E+01  0.24474605663E+01  0.00000000000E+00 0.  1.
<mgrwt>
<rscale>  1 0.65042794E+03</rscale>
<asrwt>0</asrwt>
<pdfrwt beam="1">  1        3 0.39230434E+00 0.65042794E+03</pdfrwt>
<pdfrwt beam="2">0</pdfrwt>
<totfact> 0.65006962E-02</totfact>
</mgrwt>
</event>
<event>
 6    1  0.1529677E-003  0.6462002E+03  0.7818608E-02  0.9813935E-01
          1   -1    0    0  502    0  0.00000000000E+00  0.00000000000E+00  0.10439394967E+03  0.10439394967E+03  0.00000000000E+00 0.  1.
         13   -1    0    0    0    0 -0.00000000000E+00 -0.00000000000E+00 -0.10000000000E+04  0.10000000000E+04  0.00000000000E+00 0.  1.
    9000005    2    1    2  501    0  0.24744769959E-04 -0.16305459178E-03 -0.89560628632E+03  0.11043936618E+04  0.64620023216E+03 0.  0.
         13    1    3    3    0    0 -0.29377760268E+02  0.26104922586E+03 -0.76928721634E+03  0.81290379033E+03  0.00000000000E+00 0.  1.
          1    1    3    3  501    0  0.29377785013E+02 -0.26104938891E+03 -0.12631906999E+03  0.29148987143E+03  0.00000000000E+00 0.  1.
         21    1    1    2  502  501 -0.24744769960E-04  0.16305459177E-03  0.23599362340E-03  0.28790987100E-03  0.00000000000E+00 0.  1.
<mgrwt>
<rscale>  1 0.64620023E+03</rscale>
<asrwt>0</asrwt>
<pdfrwt beam="1">  1        1 0.37961516E+00 0.64620023E+03</pdfrwt>
<pdfrwt beam="2">0</pdfrwt>
<totfact> 0.16485511E+00</totfact>
</mgrwt>
</event>
<event>
 6    1  0.1529677E-003  0.6517228E+03  0.7818608E-02  0.9803552E-01
          1   -1    0    0  502    0  0.00000000000E+00  0.00000000000E+00  0.10618581429E+03  0.10618581429E+03  0.00000000000E+00 0.  1.
         13   -1    0    0    0    0 -0.00000000000E+00 -0.00000000000E+00 -0.10000000000E+04  0.10000000000E+04  0.00000000000E+00 0.  1.
    9000005    2    1    2  501    0 -0.82206097090E-04  0.12570842108E-03 -0.89381432705E+03  0.11061856080E+04  0.65172275409E+03 0.  0.
         13    1    3    3    0    0 -0.10646585002E+03 -0.28140123386E+03 -0.23447695402E+03  0.38144602974E+03  0.00000000000E+00 0.  1.
          3    1    3    3  501    0  0.10646576782E+03  0.28140135957E+03 -0.65933737303E+03  0.72473957830E+03  0.00000000000E+00 0.  1.
         21    1    1    2  502  501  0.82206097083E-04 -0.12570842105E-03  0.14134368230E-03  0.20624860254E-03  0.00000000000E+00 0.  1.
<mgrwt>
<rscale>  1 0.65172275E+03</rscale>
<asrwt>0</asrwt>
<pdfrwt beam="1">  1        1 0.38613105E+00 0.65172275E+03</pdfrwt>
<pdfrwt beam="2">0</pdfrwt>
<totfact> 0.15412380E+00</totfact>
</mgrwt>
</event>
<event>
 6    1  0.1529677E-003  0.6277112E+03  0.7818608E-02  0.9849525E-01
          1   -1    0    0  502    0  0.00000000000E+00  0.00000000000E+00  0.98506065245E+02  0.98506065245E+02  0.00000000000E+00 0.  1.
         13   -1    0    0    0    0 -0.00000000000E+00 -0.00000000000E+00 -0.10000000000E+04  0.10000000000E+04  0.00000000000E+00 0.  1.
    9000005    2    1    2  501    0  0.94375640145E-04  0.69978361296E-04 -0.90149466651E+03  0.10985053241E+04  0.62771117034E+03 0.  0.
         13    1    3    3    0    0  0.22471850647E+03 -0.20780288664E+03 -0.32918867991E+03  0.44949486518E+03  0.00000000000E+00 0.  1.
          1    1    3    3  501    0 -0.22471841209E+03  0.20780295662E+03 -0.57230598660E+03  0.64901045894E+03  0.00000000000E+00 0.  1.
         21    1    1    2  502  501 -0.94375640142E-04 -0.69978361294E-04  0.73175433926E-03  0.74112626828E-03  0.00000000000E+00 0. -1.
<mgrwt>
<rscale>  1 0.62771117E+03</rscale>
<asrwt>0</asrwt>
<pdfrwt beam="1">  1        1 0.35820463E+00 0.62771117E+03</pdfrwt>
<pdfrwt beam="2">0</pdfrwt>
<totfact> 0.20538001E+00</totfact>
</mgrwt>
</event>
<event>
 6    1  0.1529677E-003  0.6524723E+03  0.7818608E-02  0.9802151E-01
          1   -1    0    0  502    0  0.00000000000E+00  0.00000000000E+00  0.10662082500E+03  0.10662082500E+03  0.00000000000E+00 0.  1.
         13   -1    0    0    0    0 -0.00000000000E+00 -0.00000000000E+00 -0.10000000000E+04  0.10000000000E+04  0.00000000000E+00 0.  1.
    9000005    2    1    2  501    0 -0.10530380206E+00  0.41487346870E+00 -0.89325403204E+03  0.11061748770E+04  0.65247215226E+03 0.  0.
         13    1    3    3    0    0 -0.25967297555E+02 -0.11831471788E+03  0.66889770840E+02  0.13837237605E+03  0.00000000000E+00 0.  1.
          1    1    3    3  501    0  0.25861993753E+02  0.11872959135E+03 -0.96014380288E+03  0.96780250092E+03  0.00000000000E+00 0.  1.
         21    1    1    2  502  501  0.10530380206E+00 -0.41487346870E+00 -0.12514295983E+00  0.44594803078E+00  0.00000000000E+00 0. -1.
<mgrwt>
<rscale>  1 0.65247229E+03</rscale>
<asrwt>0</asrwt>
<pdfrwt beam="1">  1        1 0.38771291E+00 0.65247229E+03</pdfrwt>
<pdfrwt beam="2">0</pdfrwt>
<totfact> 0.15163716E+00</totfact>
</mgrwt>
</event>
<event>
 6    1  0.1529677E-003  0.6468260E+03  0.7818608E-02  0.9812753E-01
          1   -1    0    0  502    0  0.00000000000E+00  0.00000000000E+00  0.10459602989E+03  0.10459602989E+03  0.00000000000E+00 0.  1.
         13   -1    0    0    0    0 -0.00000000000E+00 -0.00000000000E+00 -0.10000000000E+04  0.10000000000E+04  0.00000000000E+00 0.  1.
    9000005    2    1    2  501    0 -0.14498619751E-03  0.33783235750E-04 -0.89540381788E+03  0.11045958170E+04  0.64682603673E+03 0.  0.
         13    1    3    3    0    0  0.78802704458E+02 -0.15718710009E+03  0.15836548658E+02  0.17654587772E+03  0.00000000000E+00 0.  1.
          3    1    3    3  501    0 -0.78802849444E+02  0.15718713388E+03 -0.91124036653E+03  0.92804993925E+03  0.00000000000E+00 0.  1.
         21    1    1    2  502  501  0.14498619751E-03 -0.33783235757E-04 -0.15223335261E-03  0.21292556947E-03  0.00000000000E+00 0.  1.
<mgrwt>
<rscale>  1 0.64682604E+03</rscale>
<asrwt>0</asrwt>
<pdfrwt beam="1">  1        1 0.38035000E+00 0.64682604E+03</pdfrwt>
<pdfrwt beam="2">0</pdfrwt>
<totfact> 0.16361013E+00</totfact>
</mgrwt>
</event>
<event>
 6    1  0.1529677E-003  0.6599235E+03  0.7818608E-02  0.9788335E-01
          1   -1    0    0  502    0  0.00000000000E+00  0.00000000000E+00  0.10889240570E+03  0.10889240570E+03  0.00000000000E+00 0.  1.
         13   -1    0    0    0    0 -0.00000000000E+00 -0.00000000000E+00 -0.10000000000E+04  0.10000000000E+04  0.00000000000E+00 0.  1.
    9000005    2    1    2  501    0  0.55776674502E-02  0.97652541629E-03 -0.89112474143E+03  0.11088743478E+04  0.65992349130E+03 0.  0.
         13    1    3    3    0    0  0.25462534680E+03 -0.14870720718E+03 -0.69438740915E+03  0.75440160040E+03  0.00000000000E+00 0.  1.
          3    1    3    3  501    0 -0.25461976913E+03  0.14870818371E+03 -0.19673733228E+03  0.35447274740E+03  0.00000000000E+00 0.  1.
         21    1    1    2  502  501 -0.55776674502E-02 -0.97652541629E-03  0.17147126630E-01  0.18057904855E-01  0.00000000000E+00 0.  1.
<mgrwt>
<rscale>  1 0.65992349E+03</rscale>
<asrwt>0</asrwt>
<pdfrwt beam="1">  1        1 0.39597322E+00 0.65992349E+03</pdfrwt>
<pdfrwt beam="2">0</pdfrwt>
<totfact> 0.13916673E+00</totfact>
</mgrwt>
</event>
<event>
 6    1  0.1529677E-003  0.6506049E+03  0.7818608E-02  0.9805645E-01
          3   -1    0    0  502    0  0.00000000000E+00  0.00000000000E+00  0.10582235783E+03  0.10582235783E+03  0.00000000000E+00 0.  1.
         13   -1    0    0    0    0 -0.00000000000E+00 -0.00000000000E+00 -0.10000000000E+04  0.10000000000E+04  0.00000000000E+00 0.  1.
    9000005    2    1    2  501    0 -0.19901021119E-04 -0.50128084865E-04 -0.89417832264E+03  0.11058216752E+04  0.65060487603E+03 0.  0.
         13    1    3    3    0    0  0.28560161694E+03  0.13432497745E+03 -0.58103209732E+03  0.66121840665E+03  0.00000000000E+00 0.  1.
          3    1    3    3  501    0 -0.28560163684E+03 -0.13432502758E+03 -0.31314622532E+03  0.44460326858E+03  0.00000000000E+00 0.  1.
         21    1    1    2  502  501  0.19901021087E-04  0.50128084855E-04  0.68046515614E-03  0.68259922667E-03  0.00000000000E+00 0. -1.
<mgrwt>
<rscale>  1 0.65060488E+03</rscale>
<asrwt>0</asrwt>
<pdfrwt beam="1">  1        3 0.38480939E+00 0.65060488E+03</pdfrwt>
<pdfrwt beam="2">0</pdfrwt>
<totfact> 0.71187192E-02</totfact>
</mgrwt>
</event>
<event>
 6    1  0.1529677E-003  0.4886328E+03  0.7818608E-02  0.1016789E+00
          1   -1    0    0  502    0  0.00000000000E+00  0.00000000000E+00  0.62269983292E+02  0.62269983292E+02  0.00000000000E+00 0.  1.
         13   -1    0    0    0    0 -0.00000000000E+00 -0.00000000000E+00 -0.10000000000E+04  0.10000000000E+04  0.00000000000E+00 0.  1.
    9000005    2    1    2  501    0 -0.23714290231E+00  0.22289102324E+01 -0.93978751951E+03  0.10592273536E+04  0.48862765019E+03 0.  0.
         13    1    3    3    0    0  0.19582623000E+03 -0.93439905206E+01 -0.78513857239E+03  0.80924520411E+03  0.00000000000E+00 0.  1.
          3    1    3    3  501    0 -0.19606337290E+03  0.11572900753E+02 -0.15464894712E+03  0.24998214950E+03  0.00000000000E+00 0.  1.
         21    1    1    2  502  501  0.23714290231E+00 -0.22289102324E+01  0.20575028033E+01  0.30426296794E+01  0.00000000000E+00 0.  1.
<mgrwt>
<rscale>  1 0.48863279E+03</rscale>
<asrwt>0</asrwt>
<pdfrwt beam="1">  1        1 0.22643678E+00 0.48863279E+03</pdfrwt>
<pdfrwt beam="2">0</pdfrwt>
<totfact> 0.78462770E+00</totfact>
</mgrwt>
</event>
<event>
 6    1  0.1529677E-003  0.6476950E+03  0.7818608E-02  0.9811114E-01
          1   -1    0    0  502    0  0.00000000000E+00  0.00000000000E+00  0.10991234187E+03  0.10991234187E+03  0.00000000000E+00 0.  1.
         13   -1    0    0    0    0 -0.00000000000E+00 -0.00000000000E+00 -0.10000000000E+04  0.10000000000E+04  0.00000000000E+00 0.  1.
    9000005    2    1    2  501    0 -0.16133005359E+00  0.14163774985E+00 -0.89512025283E+03  0.11048751702E+04  0.64769501210E+03 0.  0.
         13    1    3    3    0    0  0.12733772913E+03 -0.17910091558E+03 -0.41843688513E+02  0.22370277041E+03  0.00000000000E+00 0.  1.
          3    1    3    3  501    0 -0.12749905918E+03  0.17924255333E+03 -0.85327656432E+03  0.88117239983E+03  0.00000000000E+00 0.  1.
         21    1    1    2  502  501  0.16133005359E+00 -0.14163774985E+00  0.50325946997E+01  0.50371716319E+01  0.00000000000E+00 0. -1.
<mgrwt>
<rscale>  1 0.64769505E+03</rscale>
<asrwt>0</asrwt>
<pdfrwt beam="1">  1        1 0.39968209E+00 0.64769505E+03</pdfrwt>
<pdfrwt beam="2">0</pdfrwt>
<totfact> 0.13428344E+00</totfact>
</mgrwt>
</event>
<event>
 6    1  0.1529677E-003  0.6390530E+03  0.7818608E-02  0.9827540E-01
          1   -1    0    0  502    0  0.00000000000E+00  0.00000000000E+00  0.10209830736E+03  0.10209830736E+03  0.00000000000E+00 0.  1.
         13   -1    0    0    0    0 -0.00000000000E+00 -0.00000000000E+00 -0.10000000000E+04  0.10000000000E+04  0.00000000000E+00 0.  1.
    9000005    2    1    2  501    0  0.38801903600E-04 -0.14681515382E-02 -0.89790225850E+03  0.11020967335E+04  0.63905300568E+03 0.  0.
         13    1    3    3    0    0 -0.26962197594E+03 -0.26492707382E+02 -0.15679251049E+03  0.31302039039E+03  0.00000000000E+00 0.  1.
          3    1    3    3  501    0  0.26962201474E+03  0.26491239230E+02 -0.74110974801E+03  0.78907634307E+03  0.00000000000E+00 0.  1.
         21    1    1    2  502  501 -0.38801903577E-04  0.14681515382E-02  0.56586848893E-03  0.15739065009E-02  0.00000000000E+00 0.  1.
<mgrwt>
<rscale>  1 0.63905301E+03</rscale>
<asrwt>0</asrwt>
<pdfrwt beam="1">  1        1 0.37126736E+00 0.63905301E+03</pdfrwt>
<pdfrwt beam="2">0</pdfrwt>
<totfact> 0.17964864E+00</totfact>
</mgrwt>
</event>
<event>
 6    1  0.1529677E-003  0.6496186E+03  0.7818608E-02  0.9807495E-01
          1   -1    0    0  502    0  0.00000000000E+00  0.00000000000E+00  0.10557143348E+03  0.10557143348E+03  0.00000000000E+00 0.  1.
         13   -1    0    0    0    0 -0.00000000000E+00 -0.00000000000E+00 -0.10000000000E+04  0.10000000000E+04  0.00000000000E+00 0.  1.
    9000005    2    1    2  501    0 -0.11777857770E-01  0.88060934264E-02 -0.89449805700E+03  0.11055004040E+04  0.64961863350E+03 0.  0.
         13    1    3    3    0    0 -0.21872165160E+03 -0.23847398432E+03 -0.39934091715E+03  0.51398654670E+03  0.00000000000E+00 0.  1.
          1    1    3    3  501    0  0.21870987375E+03  0.23848279042E+03 -0.49515713985E+03  0.59151385727E+03  0.00000000000E+00 0.  1.
         21    1    1    2  502  501  0.11777857770E-01 -0.88060934264E-02  0.69490476097E-01  0.71029511355E-01  0.00000000000E+00 0.  1.
<mgrwt>
<rscale>  1 0.64961863E+03</rscale>
<asrwt>0</asrwt>
<pdfrwt beam="1">  1        1 0.38389693E+00 0.64961863E+03</pdfrwt>
<pdfrwt beam="2">0</pdfrwt>
<totfact> 0.15773227E+00</totfact>
</mgrwt>
</event>
<event>
 6    1  0.1529677E-003  0.6556111E+03  0.7818608E-02  0.9796307E-01
          1   -1    0    0  502    0  0.00000000000E+00  0.00000000000E+00  0.10745657702E+03  0.10745657702E+03  0.00000000000E+00 0.  1.
         13   -1    0    0    0    0 -0.00000000000E+00 -0.00000000000E+00 -0.10000000000E+04  0.10000000000E+04  0.00000000000E+00 0.  1.
    9000005    2    1    2  501    0  0.24038484753E-04  0.25209425587E-04 -0.89254351782E+03  0.11074564760E+04  0.65561110044E+03 0.  0.
         13    1    3    3    0    0  0.22438580843E+02  0.19693196200E+03 -0.88731336895E+03  0.90918133631E+03  0.00000000000E+00 0.  1.
          3    1    3    3  501    0 -0.22438556804E+02 -0.19693193679E+03 -0.52301488641E+01  0.19827513968E+03  0.00000000000E+00 0.  1.
         21    1    1    2  502  501 -0.24038484753E-04 -0.25209425589E-04  0.94839428622E-04  0.10103405915E-03  0.00000000000E+00 0. -1.
<mgrwt>
<rscale>  1 0.65561110E+03</rscale>
<asrwt>0</asrwt>
<pdfrwt beam="1">  1        1 0.39075201E+00 0.65561110E+03</pdfrwt>
<pdfrwt beam="2">0</pdfrwt>
<totfact> 0.14691994E+00</totfact>
</mgrwt>
</event>
<event>
 6    1  0.1529677E-003  0.6520393E+03  0.7818608E-02  0.9802960E-01
          1   -1    0    0  502    0  0.00000000000E+00  0.00000000000E+00  0.10667318905E+03  0.10667318905E+03  0.00000000000E+00 0.  1.
         13   -1    0    0    0    0 -0.00000000000E+00 -0.00000000000E+00 -0.10000000000E+04  0.10000000000E+04  0.00000000000E+00 0.  1.
    9000005    2    1    2  501    0 -0.84892603339E-01 -0.13043226210E-01 -0.89370587768E+03  0.11062845138E+04  0.65203927969E+03 0.  0.
         13    1    3    3    0    0 -0.69124115597E+01 -0.30029717026E+03 -0.66192371395E+03  0.72689007077E+03  0.00000000000E+00 0.  1.
          3    1    3    3  501    0  0.68275189563E+01  0.30028412704E+03 -0.23178216373E+03  0.37939444301E+03  0.00000000000E+00 0.  1.
         21    1    1    2  502  501  0.84892603339E-01  0.13043226210E-01  0.37906672962E+00  0.38867526980E+00  0.00000000000E+00 0. -1.
<mgrwt>
<rscale>  1 0.65203929E+03</rscale>
<asrwt>0</asrwt>
<pdfrwt beam="1">  1        1 0.38790332E+00 0.65203929E+03</pdfrwt>
<pdfrwt beam="2">0</pdfrwt>
<totfact> 0.15135508E+00</totfact>
</mgrwt>
</event>
<event>
 6    1  0.1529677E-003  0.6515696E+03  0.7818608E-02  0.9803838E-01
          1   -1    0    0  502    0  0.00000000000E+00  0.00000000000E+00  0.10615819654E+03  0.10615819654E+03  0.00000000000E+00 0.  1.
         13   -1    0    0    0    0 -0.00000000000E+00 -0.00000000000E+00 -0.10000000000E+04  0.10000000000E+04  0.00000000000E+00 0.  1.
    9000005    2    1    2  501    0  0.34498314059E-03 -0.19140084734E-03 -0.89386425084E+03  0.11061357457E+04  0.65156963478E+03 0.  0.
         13    1    3    3    0    0  0.23270987287E+03  0.18756100628E+03 -0.66699069664E+03  0.73089643959E+03  0.00000000000E+00 0.  1.
          1    1    3    3  501    0 -0.23270952789E+03 -0.18756119768E+03 -0.22687355420E+03  0.37523930610E+03  0.00000000000E+00 0.  1.
         21    1    1    2  502  501 -0.34498314060E-03  0.19140084736E-03  0.22447380343E-01  0.22450847020E-01  0.00000000000E+00 0. -1.
<mgrwt>
<rscale>  1 0.65156963E+03</rscale>
<asrwt>0</asrwt>
<pdfrwt beam="1">  1        1 0.38603062E+00 0.65156963E+03</pdfrwt>
<pdfrwt beam="2">0</pdfrwt>
<totfact> 0.15428598E+00</totfact>
</mgrwt>
</event>
<event>
 6    1  0.1529677E-003  0.6370204E+03  0.7818608E-02  0.9831444E-01
          1   -1    0    0  502    0  0.00000000000E+00  0.00000000000E+00  0.10144878363E+03  0.10144878363E+03  0.00000000000E+00 0.  1.
         13   -1    0    0    0    0 -0.00000000000E+00 -0.00000000000E+00 -0.10000000000E+04  0.10000000000E+04  0.00000000000E+00 0.  1.
    9000005    2    1    2  501    0 -0.29658960415E-04 -0.36181681821E-04 -0.89855124087E+03  0.11014487308E+04  0.63702038755E+03 0.  0.
         13    1    3    3    0    0  0.11219962729E+03 -0.26673930480E+03 -0.21917282962E+03  0.36300873589E+03  0.00000000000E+00 0.  1.
          3    1    3    3  501    0 -0.11219965695E+03  0.26673926862E+03 -0.67937841125E+03  0.73843999493E+03  0.00000000000E+00 0.  1.
         21    1    1    2  502  501  0.29658960416E-04  0.36181681840E-04  0.24501794195E-04  0.52811986826E-04  0.00000000000E+00 0. -1.
<mgrwt>
<rscale>  1 0.63702039E+03</rscale>
<asrwt>0</asrwt>
<pdfrwt beam="1">  1        1 0.36890545E+00 0.63702039E+03</pdfrwt>
<pdfrwt beam="2">0</pdfrwt>
<totfact> 0.18405952E+00</totfact>
</mgrwt>
</event>
<event>
 6    1  0.1529677E-003  0.6422896E+03  0.7818608E-02  0.9821356E-01
          1   -1    0    0  502    0  0.00000000000E+00  0.00000000000E+00  0.10314436112E+03  0.10314436112E+03  0.00000000000E+00 0.  1.
         13   -1    0    0    0    0 -0.00000000000E+00 -0.00000000000E+00 -0.10000000000E+04  0.10000000000E+04  0.00000000000E+00 0.  1.
    9000005    2    1    2  501    0  0.17792297741E-02  0.25856900881E-03 -0.89686593127E+03  0.11031339129E+04  0.64228960063E+03 0.  0.
         13    1    3    3    0    0 -0.30497515098E+03 -0.94849458074E+02 -0.50609361582E+03  0.59844549492E+03  0.00000000000E+00 0.  1.
          3    1    3    3  501    0  0.30497693021E+03  0.94849716643E+02 -0.39077231544E+03  0.50468841796E+03  0.00000000000E+00 0.  1.
         21    1    1    2  502  501 -0.17792297741E-02 -0.25856900880E-03  0.10292391417E-01  0.10448245671E-01  0.00000000000E+00 0. -1.
<mgrwt>
<rscale>  1 0.64228960E+03</rscale>
<asrwt>0</asrwt>
<pdfrwt beam="1">  1        1 0.37507120E+00 0.64228960E+03</pdfrwt>
<pdfrwt beam="2">0</pdfrwt>
<totfact> 0.17275770E+00</totfact>
</mgrwt>
</event>
<event>
 6    1  0.1529677E-003  0.6492265E+03  0.7818608E-02  0.9808232E-01
          1   -1    0    0  502    0  0.00000000000E+00  0.00000000000E+00  0.11219419035E+03  0.11219419035E+03  0.00000000000E+00 0.  1.
         13   -1    0    0    0    0 -0.00000000000E+00 -0.00000000000E+00 -0.10000000000E+04  0.10000000000E+04  0.00000000000E+00 0.  1.
    9000005    2    1    2  501    0  0.25013721512E+00 -0.83902100800E-01 -0.89462340447E+03  0.11053714924E+04  0.64922648649E+03 0.  0.
         13    1    3    3    0    0 -0.31948784337E+03 -0.52134177456E+02 -0.48551673689E+03  0.58353830750E+03  0.00000000000E+00 0.  1.
          1    1    3    3  501    0  0.31973798059E+03  0.52050275355E+02 -0.40910666759E+03  0.52183318490E+03  0.00000000000E+00 0.  1.
         21    1    1    2  502  501 -0.25013721512E+00  0.83902100800E-01  0.68175948260E+01  0.68226979561E+01  0.00000000000E+00 0. -1.
<mgrwt>
<rscale>  1 0.64922654E+03</rscale>
<asrwt>0</asrwt>
<pdfrwt beam="1">  1        1 0.40797973E+00 0.64922654E+03</pdfrwt>
<pdfrwt beam="2">0</pdfrwt>
<totfact> 0.12326310E+00</totfact>
</mgrwt>
</event>
<event>
 6    1  0.1529677E-003  0.6515704E+03  0.7818608E-02  0.9803837E-01
          1   -1    0    0  502    0  0.00000000000E+00  0.00000000000E+00  0.10625717195E+03  0.10625717195E+03  0.00000000000E+00 0.  1.
         13   -1    0    0    0    0 -0.00000000000E+00 -0.00000000000E+00 -0.10000000000E+04  0.10000000000E+04  0.00000000000E+00 0.  1.
    9000005    2    1    2  501    0 -0.14397087580E-02  0.22212709525E-02 -0.89386397892E+03  0.11061359922E+04  0.65157042624E+03 0.  0.
         13    1    3    3    0    0 -0.20906406534E+02 -0.12416137451E+03  0.63161419936E+02  0.14086337254E+03  0.00000000000E+00 0.  1.
          1    1    3    3  501    0  0.20904966825E+02  0.12416359578E+03 -0.95702539885E+03  0.96527261963E+03  0.00000000000E+00 0.  1.
         21    1    1    2  502  501  0.14397087580E-02 -0.22212709525E-02  0.12115086629E+00  0.12117978053E+00  0.00000000000E+00 0.  1.
<mgrwt>
<rscale>  1 0.65157043E+03</rscale>
<asrwt>0</asrwt>
<pdfrwt beam="1">  1        1 0.38639053E+00 0.65157043E+03</pdfrwt>
<pdfrwt beam="2">0</pdfrwt>
<totfact> 0.15372108E+00</totfact>
</mgrwt>
</event>
<event>
 6    1  0.1529677E-003  0.6344173E+03  0.7818608E-02  0.9836466E-01
          1   -1    0    0  502    0  0.00000000000E+00  0.00000000000E+00  0.10286058383E+03  0.10286058383E+03  0.00000000000E+00 0.  1.
         13   -1    0    0    0    0 -0.00000000000E+00 -0.00000000000E+00 -0.10000000000E+04  0.10000000000E+04  0.00000000000E+00 0.  1.
    9000005    2    1    2  501    0  0.21083749731E+00  0.66182053940E+01 -0.89131491649E+03  0.10940418599E+04  0.63438274391E+03 0.  0.
         13    1    3    3    0    0 -0.64575030011E+02 -0.27053015722E+03 -0.18906594440E+03  0.33630704988E+03  0.00000000000E+00 0.  1.
          1    1    3    3  501    0  0.64785867509E+02  0.27714836261E+03 -0.70224897209E+03  0.75773481003E+03  0.00000000000E+00 0.  1.
         21    1    1    2  502  501 -0.21083749731E+00 -0.66182053940E+01 -0.58244996813E+01  0.88187239227E+01  0.00000000000E+00 0. -1.
<mgrwt>
<rscale>  1 0.63441730E+03</rscale>
<asrwt>0</asrwt>
<pdfrwt beam="1">  1        1 0.37403928E+00 0.63441730E+03</pdfrwt>
<pdfrwt beam="2">0</pdfrwt>
<totfact> 0.17482617E+00</totfact>
</mgrwt>
</event>
<event>
 6    1  0.1529677E-003  0.6507157E+03  0.7818608E-02  0.9805437E-01
          1   -1    0    0  502    0  0.00000000000E+00  0.00000000000E+00  0.10589615204E+03  0.10589615204E+03  0.00000000000E+00 0.  1.
         13   -1    0    0    0    0 -0.00000000000E+00 -0.00000000000E+00 -0.10000000000E+04  0.10000000000E+04  0.00000000000E+00 0.  1.
    9000005    2    1    2  501    0 -0.45599612617E-01  0.16079633185E-01 -0.89412465931E+03  0.11058435118E+04  0.65071573206E+03 0.  0.
         13    1    3    3    0    0  0.10676634682E+03 -0.11444000758E+03 -0.93177350648E+03  0.94482666956E+03  0.00000000000E+00 0.  1.
          1    1    3    3  501    0 -0.10681194643E+03  0.11445608721E+03  0.37648847171E+02  0.16101684227E+03  0.00000000000E+00 0.  1.
         21    1    1    2  502  501  0.45599612617E-01 -0.16079633185E-01  0.20811347879E-01  0.52640207776E-01  0.00000000000E+00 0.  1.
<mgrwt>
<rscale>  1 0.65071573E+03</rscale>
<asrwt>0</asrwt>
<pdfrwt beam="1">  1        1 0.38507773E+00 0.65071573E+03</pdfrwt>
<pdfrwt beam="2">0</pdfrwt>
<totfact> 0.15581563E+00</totfact>
</mgrwt>
</event>
<event>
 6    1  0.1529677E-003  0.6580934E+03  0.7818608E-02  0.9791710E-01
          1   -1    0    0  502    0  0.00000000000E+00  0.00000000000E+00  0.11553665949E+03  0.11553665949E+03  0.00000000000E+00 0.  1.
         13   -1    0    0    0    0 -0.00000000000E+00 -0.00000000000E+00 -0.10000000000E+04  0.10000000000E+04  0.00000000000E+00 0.  1.
    9000005    2    1    2  501    0 -0.21424466218E+00  0.84603621194E+00 -0.89169919990E+03  0.11082483580E+04  0.65809284918E+03 0.  0.
         13    1    3    3    0    0 -0.13093135335E+02 -0.28995528999E+03 -0.18564032192E+03  0.34454002599E+03  0.00000000000E+00 0.  1.
          3    1    3    3  501    0  0.12878890673E+02  0.29080132620E+03 -0.70605887798E+03  0.76370833197E+03  0.00000000000E+00 0.  1.
         21    1    1    2  502  501  0.21424466218E+00 -0.84603621194E+00  0.72358593965E+01  0.72883015342E+01  0.00000000000E+00 0.  1.
<mgrwt>
<rscale>  1 0.65809343E+03</rscale>
<asrwt>0</asrwt>
<pdfrwt beam="1">  1        1 0.42013419E+00 0.65809343E+03</pdfrwt>
<pdfrwt beam="2">0</pdfrwt>
<totfact> 0.10850751E+00</totfact>
</mgrwt>
</event>
<event>
 6    1  0.1529677E-003  0.6455230E+03  0.7818608E-02  0.9815216E-01
          1   -1    0    0  502    0  0.00000000000E+00  0.00000000000E+00  0.10437804983E+03  0.10437804983E+03  0.00000000000E+00 0.  1.
         13   -1    0    0    0    0 -0.00000000000E+00 -0.00000000000E+00 -0.10000000000E+04  0.10000000000E+04  0.00000000000E+00 0.  1.
    9000005    2    1    2  501    0  0.90101080067E-01 -0.96087311823E-01 -0.89580115315E+03  0.11041556433E+04  0.64552301369E+03 0.  0.
         13    1    3    3    0    0 -0.90170640923E+01 -0.18500355669E+02  0.10305422414E+03  0.10508921789E+03  0.00000000000E+00 0.  1.
          1    1    3    3  501    0  0.91071651724E+01  0.18404268357E+02 -0.99885537729E+03  0.99906642536E+03  0.00000000000E+00 0.  1.
         21    1    1    2  502  501 -0.90101080067E-01  0.96087311823E-01  0.17920298484E+00  0.22240657791E+00  0.00000000000E+00 0. -1.
<mgrwt>
<rscale>  1 0.64552303E+03</rscale>
<asrwt>0</asrwt>
<pdfrwt beam="1">  1        1 0.37955735E+00 0.64552303E+03</pdfrwt>
<pdfrwt beam="2">0</pdfrwt>
<totfact> 0.16497248E+00</totfact>
</mgrwt>
</event>
<event>
 6    1  0.1529677E-003  0.6572970E+03  0.7818608E-02  0.9793182E-01
          1   -1    0    0  502    0  0.00000000000E+00  0.00000000000E+00  0.10800986648E+03  0.10800986648E+03  0.00000000000E+00 0.  1.
         13   -1    0    0    0    0 -0.00000000000E+00 -0.00000000000E+00 -0.10000000000E+04  0.10000000000E+04  0.00000000000E+00 0.  1.
    9000005    2    1    2  501    0 -0.17782479517E-04 -0.49805752269E-05 -0.89199015318E+03  0.11080098395E+04  0.65729701891E+03 0.  0.
         13    1    3    3    0    0 -0.28964006537E+03 -0.85542425089E+02 -0.66449395510E+03  0.72990485019E+03  0.00000000000E+00 0.  1.
          3    1    3    3  501    0  0.28964004759E+03  0.85542420109E+02 -0.22749619808E+03  0.37810498932E+03  0.00000000000E+00 0.  1.
         21    1    1    2  502  501  0.17782479523E-04  0.49805752310E-05  0.19657806556E-04  0.26971319326E-04  0.00000000000E+00 0. -1.
<mgrwt>
<rscale>  1 0.65729702E+03</rscale>
<asrwt>0</asrwt>
<pdfrwt beam="1">  1        1 0.39276398E+00 0.65729702E+03</pdfrwt>
<pdfrwt beam="2">0</pdfrwt>
<totfact> 0.14388441E+00</totfact>
</mgrwt>
</event>
<event>
 6    1  0.1529677E-003  0.6243367E+03  0.7818608E-02  0.9856163E-01
          1   -1    0    0  502    0  0.00000000000E+00  0.00000000000E+00  0.97451190226E+02  0.97451190226E+02  0.00000000000E+00 0.  1.
         13   -1    0    0    0    0 -0.00000000000E+00 -0.00000000000E+00 -0.10000000000E+04  0.10000000000E+04  0.00000000000E+00 0.  1.
    9000005    2    1    2  501    0 -0.39608719377E-02 -0.28207047908E-02 -0.90254733708E+03  0.10974461095E+04  0.62433666205E+03 0.  0.
         13    1    3    3    0    0  0.94821459940E+02 -0.17779024183E+03 -0.87038073889E+03  0.89339974815E+03  0.00000000000E+00 0.  1.
          3    1    3    3  501    0 -0.94825420811E+02  0.17778742113E+03 -0.32166598187E+02  0.20404636136E+03  0.00000000000E+00 0.  1.
         21    1    1    2  502  501  0.39608719377E-02  0.28207047908E-02 -0.14726931564E-02  0.50807191574E-02  0.00000000000E+00 0. -1.
<mgrwt>
<rscale>  1 0.62433666E+03</rscale>
<asrwt>0</asrwt>
<pdfrwt beam="1">  1        1 0.35436871E+00 0.62433666E+03</pdfrwt>
<pdfrwt beam="2">0</pdfrwt>
<totfact> 0.21358674E+00</totfact>
</mgrwt>
</event>
<event>
 6    1  0.1529677E-003  0.6724792E+03  0.7818608E-02  0.9765489E-01
          1   -1    0    0  502    0  0.00000000000E+00  0.00000000000E+00  0.11400176761E+03  0.11400176761E+03  0.00000000000E+00 0.  1.
         13   -1    0    0    0    0 -0.00000000000E+00 -0.00000000000E+00 -0.10000000000E+04  0.10000000000E+04  0.00000000000E+00 0.  1.
    9000005    2    1    2  501    0 -0.14651952079E-02  0.13394611321E+00 -0.88693764551E+03  0.11130528521E+04  0.67247917923E+03 0.  0.
         13    1    3    3    0    0  0.12193363136E+03  0.17338340185E+02 -0.96132757966E+03  0.96918478316E+03  0.00000000000E+00 0.  1.
          3    1    3    3  501    0 -0.12193509656E+03 -0.17204394071E+02  0.74389934142E+02  0.14386806890E+03  0.00000000000E+00 0.  1.
         21    1    1    2  502  501  0.14651952080E-02 -0.13394611321E+00  0.93941312270E+00  0.94891555111E+00  0.00000000000E+00 0. -1.
<mgrwt>
<rscale>  1 0.67247919E+03</rscale>
<asrwt>0</asrwt>
<pdfrwt beam="1">  1        1 0.41455276E+00 0.67247919E+03</pdfrwt>
<pdfrwt beam="2">0</pdfrwt>
<totfact> 0.11465677E+00</totfact>
</mgrwt>
</event>
<event>
 6    1  0.1529677E-003  0.6489022E+03  0.7818608E-02  0.9808841E-01
          1   -1    0    0  502    0  0.00000000000E+00  0.00000000000E+00  0.10530100237E+03  0.10530100237E+03  0.00000000000E+00 0.  1.
         13   -1    0    0    0    0 -0.00000000000E+00 -0.00000000000E+00 -0.10000000000E+04  0.10000000000E+04  0.00000000000E+00 0.  1.
    9000005    2    1    2  501    0  0.44949686262E-02 -0.67957478461E-03 -0.89473130790E+03  0.11052683739E+04  0.64890219979E+03 0.  0.
         13    1    3    3    0    0  0.20322837628E+01 -0.32444505223E+03 -0.44762860834E+03  0.55284726019E+03  0.00000000000E+00 0.  1.
          1    1    3    3  501    0 -0.20277887941E+01  0.32444437266E+03 -0.44710269955E+03  0.55242111366E+03  0.00000000000E+00 0.  1.
         21    1    1    2  502  501 -0.44949686262E-02  0.67957478461E-03  0.32310268891E-01  0.32628515760E-01  0.00000000000E+00 0. -1.
<mgrwt>
<rscale>  1 0.64890220E+03</rscale>
<asrwt>0</asrwt>
<pdfrwt beam="1">  1        1 0.38291354E+00 0.64890220E+03</pdfrwt>
<pdfrwt beam="2">0</pdfrwt>
<totfact> 0.15933977E+00</totfact>
</mgrwt>
</event>
<event>
 6    1  0.1529677E-003  0.6369602E+03  0.7818608E-02  0.9831560E-01
          1   -1    0    0  502    0  0.00000000000E+00  0.00000000000E+00  0.10182017179E+03  0.10182017179E+03  0.00000000000E+00 0.  1.
         13   -1    0    0    0    0 -0.00000000000E+00 -0.00000000000E+00 -0.10000000000E+04  0.10000000000E+04  0.00000000000E+00 0.  1.
    9000005    2    1    2  501    0 -0.46962094086E-01  0.63463958105E-01 -0.89856603939E+03  0.11014259736E+04  0.63696015732E+03 0.  0.
         13    1    3    3    0    0 -0.96393462882E+02 -0.29479302910E+03 -0.32430933048E+03  0.44874399330E+03  0.00000000000E+00 0.  1.
          3    1    3    3  501    0  0.96346500788E+02  0.29485649306E+03 -0.57425670892E+03  0.65268198033E+03  0.00000000000E+00 0.  1.
         21    1    1    2  502  501  0.46962094086E-01 -0.63463958105E-01  0.38621118451E+00  0.39419816248E+00  0.00000000000E+00 0. -1.
<mgrwt>
<rscale>  1 0.63696016E+03</rscale>
<asrwt>0</asrwt>
<pdfrwt beam="1">  1        1 0.37025595E+00 0.63696016E+03</pdfrwt>
<pdfrwt beam="2">0</pdfrwt>
<totfact> 0.18156539E+00</totfact>
</mgrwt>
</event>
<event>
 6    1  0.1529677E-003  0.6080762E+03  0.7818608E-02  0.9888791E-01
          1   -1    0    0  502    0  0.00000000000E+00  0.00000000000E+00  0.93349747349E+02  0.93349747349E+02  0.00000000000E+00 0.  1.
         13   -1    0    0    0    0 -0.00000000000E+00 -0.00000000000E+00 -0.10000000000E+04  0.10000000000E+04  0.00000000000E+00 0.  1.
    9000005    2    1    2  501    0  0.11263811366E+00 -0.35035888085E-01 -0.90755665618E+03  0.10924357002E+04  0.60807619666E+03 0.  0.
         13    1    3    3    0    0  0.66596453195E+02 -0.18470112466E+03 -0.36706523018E+02  0.19974223855E+03  0.00000000000E+00 0.  1.
          3    1    3    3  501    0 -0.66483815081E+02  0.18466608878E+03 -0.87085013316E+03  0.89269346163E+03  0.00000000000E+00 0.  1.
         21    1    1    2  502  501 -0.11263811366E+00  0.35035888085E-01  0.90640353023E+00  0.91404716383E+00  0.00000000000E+00 0.  1.
<mgrwt>
<rscale>  1 0.60807621E+03</rscale>
<asrwt>0</asrwt>
<pdfrwt beam="1">  1        1 0.33945434E+00 0.60807621E+03</pdfrwt>
<pdfrwt beam="2">0</pdfrwt>
<totfact> 0.24874502E+00</totfact>
</mgrwt>
</event>
<event>
 6    1  0.1529677E-003  0.4729487E+03  0.7818608E-02  0.1021091E+00
          1   -1    0    0  502    0  0.00000000000E+00  0.00000000000E+00  0.55926584702E+02  0.55926584702E+02  0.00000000000E+00 0.  1.
         13   -1    0    0    0    0 -0.00000000000E+00 -0.00000000000E+00 -0.10000000000E+04  0.10000000000E+04  0.00000000000E+00 0.  1.
    9000005    2    1    2  501    0  0.34458391099E-02  0.30207464436E-02 -0.94407902010E+03  0.10559193451E+04  0.47294869389E+03 0.  0.
         13    1    3    3    0    0  0.11147567015E+03  0.11571207228E+03 -0.84665305695E+02  0.18161586576E+03  0.00000000000E+00 0.  1.
          1    1    3    3  501    0 -0.11147222431E+03 -0.11570905154E+03 -0.85941371440E+03  0.87430347929E+03  0.00000000000E+00 0.  1.
         21    1    1    2  502  501 -0.34458391099E-02 -0.30207464436E-02  0.56048006426E-02  0.72396482298E-02  0.00000000000E+00 0. -1.
<mgrwt>
<rscale>  1 0.47294869E+03</rscale>
<asrwt>0</asrwt>
<pdfrwt beam="1">  1        1 0.20336983E+00 0.47294869E+03</pdfrwt>
<pdfrwt beam="2">0</pdfrwt>
<totfact> 0.99682748E+00</totfact>
</mgrwt>
</event>
<event>
 6    1  0.1529677E-003  0.6408208E+03  0.7818608E-02  0.9824157E-01
          1   -1    0    0  502    0  0.00000000000E+00  0.00000000000E+00  0.10271220161E+03  0.10271220161E+03  0.00000000000E+00 0.  1.
         13   -1    0    0    0    0 -0.00000000000E+00 -0.00000000000E+00 -0.10000000000E+04  0.10000000000E+04  0.00000000000E+00 0.  1.
    9000005    2    1    2  501    0 -0.13084171819E-04  0.10915569284E-02 -0.89733715780E+03  0.11026628301E+04  0.64082083470E+03 0.  0.
         13    1    3    3    0    0  0.23210992106E+02  0.57668109601E+01 -0.99846195185E+03  0.99874835446E+03  0.00000000000E+00 0.  1.
          1    1    3    3  501    0 -0.23211005190E+02 -0.57657194031E+01  0.10112479405E+03  0.10391447567E+03  0.00000000000E+00 0.  1.
         21    1    1    2  502  501  0.13084171818E-04 -0.10915569284E-02  0.49359408287E-01  0.49371478145E-01  0.00000000000E+00 0. -1.
<mgrwt>
<rscale>  1 0.64082083E+03</rscale>
<asrwt>0</asrwt>
<pdfrwt beam="1">  1        1 0.37349970E+00 0.64082083E+03</pdfrwt>
<pdfrwt beam="2">0</pdfrwt>
<totfact> 0.17557763E+00</totfact>
</mgrwt>
</event>
<event>
 6    1  0.1529677E-003  0.6623488E+03  0.7818608E-02  0.9783879E-01
          1   -1    0    0  502    0  0.00000000000E+00  0.00000000000E+00  0.10988475462E+03  0.10988475462E+03  0.00000000000E+00 0.  1.
         13   -1    0    0    0    0 -0.00000000000E+00 -0.00000000000E+00 -0.10000000000E+04  0.10000000000E+04  0.00000000000E+00 0.  1.
    9000005    2    1    2  501    0 -0.11320530929E-01 -0.78997846495E-03 -0.89032333213E+03  0.11096763587E+04  0.66234883946E+03 0.  0.
         13    1    3    3    0    0  0.28658726804E+03  0.16492214210E+03 -0.41419242703E+03  0.52998768076E+03  0.00000000000E+00 0.  1.
          1    1    3    3  501    0 -0.28659858857E+03 -0.16492293208E+03 -0.47613090510E+03  0.57968867790E+03  0.00000000000E+00 0.  1.
         21    1    1    2  502  501  0.11320530929E-01  0.78997846494E-03  0.20808674835E+00  0.20839595323E+00  0.00000000000E+00 0. -1.
<mgrwt>
<rscale>  1 0.66234884E+03</rscale>
<asrwt>0</asrwt>
<pdfrwt beam="1">  1        1 0.39958177E+00 0.66234884E+03</pdfrwt>
<pdfrwt beam="2">0</pdfrwt>
<totfact> 0.13405017E+00</totfact>
</mgrwt>
</event>
<event>
 6    1  0.1529677E-003  0.6447944E+03  0.7818608E-02  0.9816597E-01
          1   -1    0    0  502    0  0.00000000000E+00  0.00000000000E+00  0.10393996100E+03  0.10393996100E+03  0.00000000000E+00 0.  1.
         13   -1    0    0    0    0 -0.00000000000E+00 -0.00000000000E+00 -0.10000000000E+04  0.10000000000E+04  0.00000000000E+00 0.  1.
    9000005    2    1    2  501    0  0.81856336465E-05 -0.34090132601E-05 -0.89606005583E+03  0.11039399420E+04  0.64479436400E+03 0.  0.
         13    1    3    3    0    0  0.13777478848E+03 -0.22439261588E+03 -0.12953698446E+03  0.29345147596E+03  0.00000000000E+00 0.  1.
          3    1    3    3  501    0 -0.13777478029E+03  0.22439261247E+03 -0.76652307136E+03  0.81048846602E+03  0.00000000000E+00 0.  1.
         21    1    1    2  502  501 -0.81856336292E-05  0.34090132514E-05  0.16821819889E-04  0.19015772234E-04  0.00000000000E+00 0.  1.
<mgrwt>
<rscale>  1 0.64479436E+03</rscale>
<asrwt>0</asrwt>
<pdfrwt beam="1">  1        1 0.37796429E+00 0.64479436E+03</pdfrwt>
<pdfrwt beam="2">0</pdfrwt>
<totfact> 0.16768503E+00</totfact>
</mgrwt>
</event>
<event>
 6    1  0.1529677E-003  0.6553580E+03  0.7818608E-02  0.9796777E-01
          1   -1    0    0  502    0  0.00000000000E+00  0.00000000000E+00  0.10737813308E+03  0.10737813308E+03  0.00000000000E+00 0.  1.
         13   -1    0    0    0    0 -0.00000000000E+00 -0.00000000000E+00 -0.10000000000E+04  0.10000000000E+04  0.00000000000E+00 0.  1.
    9000005    2    1    2  501    0  0.63242160107E-02 -0.89029791717E-02 -0.89261768234E+03  0.11073664382E+04  0.65535799497E+03 0.  0.
         13    1    3    3    0    0  0.25450430962E+03  0.12330989011E+03 -0.72598798476E+03  0.77912536003E+03  0.00000000000E+00 0.  1.
          1    1    3    3  501    0 -0.25449798541E+03 -0.12331879309E+03 -0.16662969758E+03  0.32824107820E+03  0.00000000000E+00 0.  1.
         21    1    1    2  502  501 -0.63242160107E-02  0.89029791717E-02 -0.41845809028E-02  0.11694847738E-01  0.00000000000E+00 0.  1.
<mgrwt>
<rscale>  1 0.65535800E+03</rscale>
<asrwt>0</asrwt>
<pdfrwt beam="1">  1        1 0.39046676E+00 0.65535800E+03</pdfrwt>
<pdfrwt beam="2">0</pdfrwt>
<totfact> 0.14735558E+00</totfact>
</mgrwt>
</event>
<event>
 6    1  0.1529677E-003  0.6249657E+03  0.7818608E-02  0.9854922E-01
          1   -1    0    0  502    0  0.00000000000E+00  0.00000000000E+00  0.97738490493E+02  0.97738490493E+02  0.00000000000E+00 0.  1.
         13   -1    0    0    0    0 -0.00000000000E+00 -0.00000000000E+00 -0.10000000000E+04  0.10000000000E+04  0.00000000000E+00 0.  1.
    9000005    2    1    2  501    0 -0.16706951393E-01 -0.50789624226E-01 -0.90234594869E+03  0.10976385471E+04  0.62496573194E+03 0.  0.
         13    1    3    3    0    0  0.10736817408E+03 -0.20783770942E+03 -0.81509392574E+03  0.84799914271E+03  0.00000000000E+00 0.  1.
          3    1    3    3  501    0 -0.10738488104E+03  0.20778691979E+03 -0.87252022948E+02  0.24963940438E+03  0.00000000000E+00 0.  1.
         21    1    1    2  502  501  0.16706951393E-01  0.50789624226E-01  0.84439178262E-01  0.99943398879E-01  0.00000000000E+00 0.  1.
<mgrwt>
<rscale>  1 0.62496573E+03</rscale>
<asrwt>0</asrwt>
<pdfrwt beam="1">  1        1 0.35541344E+00 0.62496573E+03</pdfrwt>
<pdfrwt beam="2">0</pdfrwt>
<totfact> 0.21133185E+00</totfact>
</mgrwt>
</event>
<event>
 6    1  0.1529677E-003  0.6809849E+03  0.7818608E-02  0.9750315E-01
          3   -1    0    0  502    0  0.00000000000E+00  0.00000000000E+00  0.14883649974E+03  0.14883649974E+03  0.00000000000E+00 0.  1.
         13   -1    0    0    0    0 -0.00000000000E+00 -0.00000000000E+00 -0.10000000000E+04  0.10000000000E+04  0.00000000000E+00 0.  1.
    9000005    2    1    2  501    0  0.76814460969E+01 -0.54993942256E+01 -0.88330625468E+03  0.11153341922E+04  0.68091935845E+03 0.  0.
         13    1    3    3    0    0  0.23667598301E+03  0.18462554917E+03 -0.71017953050E+03  0.77101042786E+03  0.00000000000E+00 0.  1.
          1    1    3    3  501    0 -0.22899453691E+03 -0.19012494340E+03 -0.17312672418E+03  0.34432376430E+03  0.00000000000E+00 0.  1.
         21    1    1    2  502  501 -0.76814460969E+01  0.54993942256E+01  0.32142754418E+02  0.33502307571E+02  0.00000000000E+00 0. -1.
<mgrwt>
<rscale>  1 0.68098489E+03</rscale>
<asrwt>0</asrwt>
<pdfrwt beam="1">  1        3 0.54122478E+00 0.68098489E+03</pdfrwt>
<pdfrwt beam="2">0</pdfrwt>
<totfact> 0.11656755E-02</totfact>
</mgrwt>
</event>
<event>
 6    1  0.1529677E-003  0.6117918E+03  0.7818608E-02  0.9881239E-01
          1   -1    0    0  502    0  0.00000000000E+00  0.00000000000E+00  0.94067904373E+02  0.94067904373E+02  0.00000000000E+00 0.  1.
         13   -1    0    0    0    0 -0.00000000000E+00 -0.00000000000E+00 -0.10000000000E+04  0.10000000000E+04  0.00000000000E+00 0.  1.
    9000005    2    1    2  501    0  0.31477228074E-01  0.45063656291E-01 -0.90642604415E+03  0.10935709067E+04  0.61179175495E+03 0.  0.
         13    1    3    3    0    0  0.13476617018E+03 -0.23987170230E+03 -0.21427888849E+03  0.34873456416E+03  0.00000000000E+00 0.  1.
          3    1    3    3  501    0 -0.13473469295E+03  0.23991676595E+03 -0.69214715566E+03  0.74483634253E+03  0.00000000000E+00 0.  1.
         21    1    1    2  502  501 -0.31477228074E-01 -0.45063656291E-01  0.49394852464E+00  0.49699768008E+00  0.00000000000E+00 0.  1.
<mgrwt>
<rscale>  1 0.61179176E+03</rscale>
<asrwt>0</asrwt>
<pdfrwt beam="1">  1        1 0.34206583E+00 0.61179176E+03</pdfrwt>
<pdfrwt beam="2">0</pdfrwt>
<totfact> 0.24217162E+00</totfact>
</mgrwt>
</event>
<event>
 6    1  0.1529677E-003  0.5951183E+03  0.7818608E-02  0.9915586E-01
          1   -1    0    0  502    0  0.00000000000E+00  0.00000000000E+00  0.88590562807E+02  0.88590562807E+02  0.00000000000E+00 0.  1.
         13   -1    0    0    0    0 -0.00000000000E+00 -0.00000000000E+00 -0.10000000000E+04  0.10000000000E+04  0.00000000000E+00 0.  1.
    9000005    2    1    2  501    0  0.54674470888E-02  0.54820527745E-03 -0.91145837232E+03  0.10885413201E+04  0.59511834212E+03 0.  0.
         13    1    3    3    0    0  0.35859071996E+02 -0.24370733367E+03 -0.15041252758E+03  0.28862270525E+03  0.00000000000E+00 0.  1.
          3    1    3    3  501    0 -0.35853604549E+02  0.24370788188E+03 -0.76104584474E+03  0.79991861489E+03  0.00000000000E+00 0.  1.
         21    1    1    2  502  501 -0.54674470888E-02 -0.54820527746E-03  0.48935132164E-01  0.49242671197E-01  0.00000000000E+00 0.  1.
<mgrwt>
<rscale>  1 0.59511834E+03</rscale>
<asrwt>0</asrwt>
<pdfrwt beam="1">  1        1 0.32214818E+00 0.59511834E+03</pdfrwt>
<pdfrwt beam="2">0</pdfrwt>
<totfact> 0.29630141E+00</totfact>
</mgrwt>
</event>
<event>
 6    1  0.1529677E-003  0.6118712E+03  0.7818608E-02  0.9881079E-01
          1   -1    0    0  502    0  0.00000000000E+00  0.00000000000E+00  0.94272917446E+02  0.94272917446E+02  0.00000000000E+00 0.  1.
         13   -1    0    0    0    0 -0.00000000000E+00 -0.00000000000E+00 -0.10000000000E+04  0.10000000000E+04  0.00000000000E+00 0.  1.
    9000005    2    1    2  501    0  0.21407038778E-02 -0.38057303766E-01 -0.90640281938E+03  0.10935961064E+04  0.61187120499E+03 0.  0.
         13    1    3    3    0    0 -0.70144225119E+02 -0.16086951616E+03 -0.53083527348E+01  0.17557731105E+03  0.00000000000E+00 0.  1.
          3    1    3    3  501    0  0.70146365823E+02  0.16083145886E+03 -0.90109446664E+03  0.91801879535E+03  0.00000000000E+00 0.  1.
         21    1    1    2  502  501 -0.21407038778E-02  0.38057303766E-01  0.67573682314E+00  0.67681104833E+00  0.00000000000E+00 0.  1.
<mgrwt>
<rscale>  1 0.61187121E+03</rscale>
<asrwt>0</asrwt>
<pdfrwt beam="1">  1        1 0.34281133E+00 0.61187121E+03</pdfrwt>
<pdfrwt beam="2">0</pdfrwt>
<totfact> 0.24036817E+00</totfact>
</mgrwt>
</event>
<event>
 6    1  0.1529677E-003  0.6015680E+03  0.7818608E-02  0.9902158E-01
          1   -1    0    0  502    0  0.00000000000E+00  0.00000000000E+00  0.90576088966E+02  0.90576088966E+02  0.00000000000E+00 0.  1.
         13   -1    0    0    0    0 -0.00000000000E+00 -0.00000000000E+00 -0.10000000000E+04  0.10000000000E+04  0.00000000000E+00 0.  1.
    9000005    2    1    2  501    0 -0.13083367744E+00 -0.89864916075E-02 -0.90948266750E+03  0.10904323860E+04  0.60156799188E+03 0.  0.
         13    1    3    3    0    0  0.22477854814E+03  0.17029711962E+02 -0.93835589259E+02  0.24417314473E+03  0.00000000000E+00 0.  1.
          3    1    3    3  501    0 -0.22490938182E+03 -0.17038698454E+02 -0.81564707824E+03  0.84625924132E+03  0.00000000000E+00 0.  1.
         21    1    1    2  502  501  0.13083367744E+00  0.89864916075E-02  0.58756462419E-01  0.14370292294E+00  0.00000000000E+00 0.  1.
<mgrwt>
<rscale>  1 0.60156801E+03</rscale>
<asrwt>0</asrwt>
<pdfrwt beam="1">  1        1 0.32936829E+00 0.60156801E+03</pdfrwt>
<pdfrwt beam="2">0</pdfrwt>
<totfact> 0.27541836E+00</totfact>
</mgrwt>
</event>
<event>
 6    1  0.1529677E-003  0.6470629E+03  0.7818608E-02  0.9812306E-01
          1   -1    0    0  502    0  0.00000000000E+00  0.00000000000E+00  0.10490449488E+03  0.10490449488E+03  0.00000000000E+00 0.  1.
         13   -1    0    0    0    0 -0.00000000000E+00 -0.00000000000E+00 -0.10000000000E+04  0.10000000000E+04  0.00000000000E+00 0.  1.
    9000005    2    1    2  501    0  0.15327874319E+00  0.71749740482E-01 -0.89529280281E+03  0.11046445549E+04  0.64706287278E+03 0.  0.
         13    1    3    3    0    0 -0.20618697636E+03 -0.75170223438E+02 -0.41878961378E+02  0.22342219925E+03  0.00000000000E+00 0.  1.
          3    1    3    3  501    0  0.20634025510E+03  0.75241973178E+02 -0.85341384143E+03  0.88122235568E+03  0.00000000000E+00 0.  1.
         21    1    1    2  502  501 -0.15327874319E+00 -0.71749740482E-01  0.19729768915E+00  0.25993994791E+00  0.00000000000E+00 0. -1.
<mgrwt>
<rscale>  1 0.64706289E+03</rscale>
<asrwt>0</asrwt>
<pdfrwt beam="1">  1        1 0.38147169E+00 0.64706289E+03</pdfrwt>
<pdfrwt beam="2">0</pdfrwt>
<totfact> 0.16174837E+00</totfact>
</mgrwt>
</event>
<event>
 6    1  0.1529677E-003  0.6504510E+03  0.7818608E-02  0.9805933E-01
          1   -1    0    0  502    0  0.00000000000E+00  0.00000000000E+00  0.10942962419E+03  0.10942962419E+03  0.00000000000E+00 0.  1.
         13   -1    0    0    0    0 -0.00000000000E+00 -0.00000000000E+00 -0.10000000000E+04  0.10000000000E+04  0.00000000000E+00 0.  1.
    9000005    2    1    2  501    0 -0.40223766756E+00  0.46217704351E+00 -0.89419998825E+03  0.11057486611E+04  0.65045069539E+03 0.  0.
         13    1    3    3    0    0 -0.26066434990E+03 -0.49426299624E+02 -0.76741246621E+03  0.81197952911E+03  0.00000000000E+00 0.  1.
          1    1    3    3  501    0  0.26026211223E+03  0.49888476668E+02 -0.12678752204E+03  0.29376913199E+03  0.00000000000E+00 0.  1.
         21    1    1    2  502  501  0.40223766756E+00 -0.46217704351E+00  0.36296124464E+01  0.36809630903E+01  0.00000000000E+00 0. -1.
<mgrwt>
<rscale>  1 0.65045098E+03</rscale>
<asrwt>0</asrwt>
<pdfrwt beam="1">  1        1 0.39792675E+00 0.65045098E+03</pdfrwt>
<pdfrwt beam="2">0</pdfrwt>
<totfact> 0.13665125E+00</totfact>
</mgrwt>
</event>
<event>
 6    1  0.1529677E-003  0.6569664E+03  0.7818608E-02  0.9793794E-01
          1   -1    0    0  502    0  0.00000000000E+00  0.00000000000E+00  0.11709133542E+03  0.11709133542E+03  0.00000000000E+00 0.  1.
         13   -1    0    0    0    0 -0.00000000000E+00 -0.00000000000E+00 -0.10000000000E+04  0.10000000000E+04  0.00000000000E+00 0.  1.
    9000005    2    1    2  501    0 -0.36501882294E+00  0.40459280998E+00 -0.89208983062E+03  0.11078940128E+04  0.65696619448E+03 0.  0.
         13    1    3    3    0    0  0.12650044704E+03 -0.21026273708E+03 -0.78014893898E+02  0.25748612657E+03  0.00000000000E+00 0.  1.
          1    1    3    3  501    0 -0.12686546586E+03  0.21066732989E+03 -0.81407493672E+03  0.85040788620E+03  0.00000000000E+00 0.  1.
         21    1    1    2  502  501  0.36501882294E+00 -0.40459280998E+00  0.91811660394E+01  0.91973226499E+01  0.00000000000E+00 0. -1.
<mgrwt>
<rscale>  1 0.65696642E+03</rscale>
<asrwt>0</asrwt>
<pdfrwt beam="1">  1        1 0.42578757E+00 0.65696642E+03</pdfrwt>
<pdfrwt beam="2">0</pdfrwt>
<totfact> 0.10233038E+00</totfact>
</mgrwt>
</event>
<event>
 6    1  0.1529677E-003  0.6533640E+03  0.7818608E-02  0.9800487E-01
          1   -1    0    0  502    0  0.00000000000E+00  0.00000000000E+00  0.10675975925E+03  0.10675975925E+03  0.00000000000E+00 0.  1.
         13   -1    0    0    0    0 -0.00000000000E+00 -0.00000000000E+00 -0.10000000000E+04  0.10000000000E+04  0.00000000000E+00 0.  1.
    9000005    2    1    2  501    0 -0.13780740716E-02 -0.77020878845E-03 -0.89327885749E+03  0.11067211102E+04  0.65336398632E+03 0.  0.
         13    1    3    3    0    0 -0.26233583539E+03  0.14362963189E+03 -0.22402620854E+03  0.37368075117E+03  0.00000000000E+00 0.  1.
          1    1    3    3  501    0  0.26233445731E+03 -0.14363040210E+03 -0.66925264895E+03  0.73304035907E+03  0.00000000000E+00 0.  1.
         21    1    1    2  502  501  0.13780740716E-02  0.77020878846E-03  0.38616748227E-01  0.38649004559E-01  0.00000000000E+00 0. -1.
<mgrwt>
<rscale>  1 0.65336399E+03</rscale>
<asrwt>0</asrwt>
<pdfrwt beam="1">  1        1 0.38821813E+00 0.65336399E+03</pdfrwt>
<pdfrwt beam="2">0</pdfrwt>
<totfact> 0.15083281E+00</totfact>
</mgrwt>
</event>
<event>
 6    1  0.1529677E-003  0.6501772E+03  0.7818608E-02  0.9806447E-01
          1   -1    0    0  502    0  0.00000000000E+00  0.00000000000E+00  0.10578067034E+03  0.10578067034E+03  0.00000000000E+00 0.  1.
         13   -1    0    0    0    0 -0.00000000000E+00 -0.00000000000E+00 -0.10000000000E+04  0.10000000000E+04  0.00000000000E+00 0.  1.
    9000005    2    1    2  501    0 -0.50843092748E-01  0.51206165460E-01 -0.89430249398E+03  0.11056705640E+04  0.65017723757E+03 0.  0.
         13    1    3    3    0    0  0.42623010436E+02  0.31062151036E+03 -0.59340842461E+03  0.67114529136E+03  0.00000000000E+00 0.  1.
          3    1    3    3  501    0 -0.42673853528E+02 -0.31057030420E+03 -0.30089406937E+03  0.43452527269E+03  0.00000000000E+00 0.  1.
         21    1    1    2  502  501  0.50843092748E-01 -0.51206165460E-01  0.83164321559E-01  0.11010629338E+00  0.00000000000E+00 0.  1.
<mgrwt>
<rscale>  1 0.65017724E+03</rscale>
<asrwt>0</asrwt>
<pdfrwt beam="1">  1        1 0.38465779E+00 0.65017724E+03</pdfrwt>
<pdfrwt beam="2">0</pdfrwt>
<totfact> 0.15649899E+00</totfact>
</mgrwt>
</event>
<event>
 6    1  0.1529677E-003  0.6416915E+03  0.7818608E-02  0.9822496E-01
          1   -1    0    0  502    0  0.00000000000E+00  0.00000000000E+00  0.10294222394E+03  0.10294222394E+03  0.00000000000E+00 0.  1.
         13   -1    0    0    0    0 -0.00000000000E+00 -0.00000000000E+00 -0.10000000000E+04  0.10000000000E+04  0.00000000000E+00 0.  1.
    9000005    2    1    2  501    0  0.50322637435E-06  0.65798946451E-04 -0.89705801135E+03  0.11029419796E+04  0.64169146378E+03 0.  0.
         13    1    3    3    0    0 -0.13108963704E+03  0.24413651863E+03 -0.72650207169E+03  0.77755539535E+03  0.00000000000E+00 0.  1.
          3    1    3    3  501    0  0.13108963755E+03 -0.24413645283E+03 -0.17055593966E+03  0.32538658427E+03  0.00000000000E+00 0.  1.
         21    1    1    2  502  501 -0.50322637349E-06 -0.65798946445E-04  0.23529218966E-03  0.24431980907E-03  0.00000000000E+00 0. -1.
<mgrwt>
<rscale>  1 0.64169146E+03</rscale>
<asrwt>0</asrwt>
<pdfrwt beam="1">  1        1 0.37433615E+00 0.64169146E+03</pdfrwt>
<pdfrwt beam="2">0</pdfrwt>
<totfact> 0.17406843E+00</totfact>
</mgrwt>
</event>
<event>
 6    1  0.1529677E-003  0.6536329E+03  0.7818608E-02  0.9799986E-01
          1   -1    0    0  502    0  0.00000000000E+00  0.00000000000E+00  0.10681336070E+03  0.10681336070E+03  0.00000000000E+00 0.  1.
         13   -1    0    0    0    0 -0.00000000000E+00 -0.00000000000E+00 -0.10000000000E+04  0.10000000000E+04  0.00000000000E+00 0.  1.
    9000005    2    1    2  501    0 -0.72278981648E-03  0.14797946907E-02 -0.89319083389E+03  0.11068088544E+04  0.65363290494E+03 0.  0.
         13    1    3    3    0    0  0.23102670404E+03 -0.17326022345E+03 -0.70571173783E+03  0.76250999988E+03  0.00000000000E+00 0.  1.
          3    1    3    3  501    0 -0.23102742683E+03  0.17326170324E+03 -0.18747909606E+03  0.34429885451E+03  0.00000000000E+00 0.  1.
         21    1    1    2  502  501  0.72278981647E-03 -0.14797946907E-02  0.41945917986E-02  0.45063086670E-02  0.00000000000E+00 0.  1.
<mgrwt>
<rscale>  1 0.65363290E+03</rscale>
<asrwt>0</asrwt>
<pdfrwt beam="1">  1        1 0.38841304E+00 0.65363290E+03</pdfrwt>
<pdfrwt beam="2">0</pdfrwt>
<totfact> 0.15052567E+00</totfact>
</mgrwt>
</event>
<event>
 6    1  0.1529677E-003  0.6513244E+03  0.7818608E-02  0.9804297E-01
          1   -1    0    0  502    0  0.00000000000E+00  0.00000000000E+00  0.12279901237E+03  0.12279901237E+03  0.00000000000E+00 0.  1.
         13   -1    0    0    0    0 -0.00000000000E+00 -0.00000000000E+00 -0.10000000000E+04  0.10000000000E+04  0.00000000000E+00 0.  1.
    9000005    2    1    2  501    0  0.24843909360E+02  0.18192581557E+02 -0.87649100566E+03  0.10919981369E+04  0.65059607907E+03 0.  0.
         13    1    3    3    0    0  0.26685516514E+03 -0.17026248533E+03 -0.60304321264E+03  0.68107423192E+03  0.00000000000E+00 0.  1.
          1    1    3    3  501    0 -0.24201125578E+03  0.18845506689E+03 -0.27344779302E+03  0.41092390497E+03  0.00000000000E+00 0.  1.
         21    1    1    2  502  501 -0.24843909360E+02 -0.18192581557E+02 -0.70998197436E+00  0.30800875481E+02  0.00000000000E+00 0. -1.
<mgrwt>
<rscale>  1 0.65132438E+03</rscale>
<asrwt>0</asrwt>
<pdfrwt beam="1">  1        1 0.44654280E+00 0.65132438E+03</pdfrwt>
<pdfrwt beam="2">0</pdfrwt>
<totfact> 0.82387612E-01</totfact>
</mgrwt>
</event>
<event>
 6    1  0.1529677E-003  0.6535702E+03  0.7818608E-02  0.9800103E-01
          1   -1    0    0  502    0  0.00000000000E+00  0.00000000000E+00  0.11546690101E+03  0.11546690101E+03  0.00000000000E+00 0.  1.
         13   -1    0    0    0    0 -0.00000000000E+00 -0.00000000000E+00 -0.10000000000E+04  0.10000000000E+04  0.00000000000E+00 0.  1.
    9000005    2    1    2  501    0  0.21028350291E+01  0.51869799127E+01 -0.89220125386E+03  0.11059733624E+04  0.65354622966E+03 0.  0.
         13    1    3    3    0    0  0.24401316188E+03  0.15708389840E+03 -0.71037861283E+03  0.76736923829E+03  0.00000000000E+00 0.  1.
          1    1    3    3  501    0 -0.24191032685E+03 -0.15189691849E+03 -0.18182264103E+03  0.33860412413E+03  0.00000000000E+00 0.  1.
         21    1    1    2  502  501 -0.21028350291E+01 -0.51869799127E+01  0.76681548697E+01  0.94935385858E+01  0.00000000000E+00 0.  1.
<mgrwt>
<rscale>  1 0.65357020E+03</rscale>
<asrwt>0</asrwt>
<pdfrwt beam="1">  1        1 0.41988053E+00 0.65357020E+03</pdfrwt>
<pdfrwt beam="2">0</pdfrwt>
<totfact> 0.10889035E+00</totfact>
</mgrwt>
</event>
<event>
 6    1  0.1529677E-003  0.6201753E+03  0.7818608E-02  0.9864411E-01
          1   -1    0    0  502    0  0.00000000000E+00  0.00000000000E+00  0.97646407157E+02  0.97646407157E+02  0.00000000000E+00 0.  1.
         13   -1    0    0    0    0 -0.00000000000E+00 -0.00000000000E+00 -0.10000000000E+04  0.10000000000E+04  0.00000000000E+00 0.  1.
    9000005    2    1    2  501    0 -0.88513606339E+00 -0.13282921121E+01 -0.90336403396E+03  0.10957572759E+04  0.62017326766E+03 0.  0.
         13    1    3    3    0    0  0.79593506174E+02 -0.25591809526E+03 -0.72939539171E+03  0.77707582330E+03  0.00000000000E+00 0.  1.
          3    1    3    3  501    0 -0.80478642238E+02  0.25458980314E+03 -0.17396864225E+03  0.31868145256E+03  0.00000000000E+00 0.  1.
         21    1    1    2  502  501  0.88513606339E+00  0.13282921121E+01  0.10104411213E+01  0.18891312939E+01  0.00000000000E+00 0.  1.
<mgrwt>
<rscale>  1 0.62017532E+03</rscale>
<asrwt>0</asrwt>
<pdfrwt beam="1">  1        1 0.35507859E+00 0.62017532E+03</pdfrwt>
<pdfrwt beam="2">0</pdfrwt>
<totfact> 0.21222755E+00</totfact>
</mgrwt>
</event>
<event>
 6    1  0.1529677E-003  0.6543874E+03  0.7818608E-02  0.9798581E-01
          1   -1    0    0  502    0  0.00000000000E+00  0.00000000000E+00  0.10706332281E+03  0.10706332281E+03  0.00000000000E+00 0.  1.
         13   -1    0    0    0    0 -0.00000000000E+00 -0.00000000000E+00 -0.10000000000E+04  0.10000000000E+04  0.00000000000E+00 0.  1.
    9000005    2    1    2  501    0 -0.98819804850E-02 -0.82394193061E-02 -0.89293770754E+03  0.11070504153E+04  0.65438740234E+03 0.  0.
         13    1    3    3    0    0  0.23551058183E+03 -0.22632215293E+03 -0.41400135365E+03  0.52733677274E+03  0.00000000000E+00 0.  1.
          3    1    3    3  501    0 -0.23552046381E+03  0.22631391351E+03 -0.47893635389E+03  0.57971364258E+03  0.00000000000E+00 0.  1.
         21    1    1    2  502  501  0.98819804850E-02  0.82394193061E-02  0.10303473048E-02  0.12907485595E-01  0.00000000000E+00 0. -1.
<mgrwt>
<rscale>  1 0.65438740E+03</rscale>
<asrwt>0</asrwt>
<pdfrwt beam="1">  1        1 0.38932199E+00 0.65438740E+03</pdfrwt>
<pdfrwt beam="2">0</pdfrwt>
<totfact> 0.14911497E+00</totfact>
</mgrwt>
</event>
<event>
 6    1  0.1529677E-003  0.6547978E+03  0.7818608E-02  0.9797818E-01
          1   -1    0    0  502    0  0.00000000000E+00  0.00000000000E+00  0.10722538241E+03  0.10722538241E+03  0.00000000000E+00 0.  1.
         13   -1    0    0    0    0 -0.00000000000E+00 -0.00000000000E+00 -0.10000000000E+04  0.10000000000E+04  0.00000000000E+00 0.  1.
    9000005    2    1    2  501    0  0.33572356838E-01  0.79025253547E-02 -0.89280037393E+03  0.11071823366E+04  0.65479784482E+03 0.  0.
         13    1    3    3    0    0 -0.77906084752E+02  0.31231452899E+03 -0.54757286230E+03  0.63517380503E+03  0.00000000000E+00 0.  1.
          3    1    3    3  501    0  0.77939657109E+02 -0.31230662647E+03 -0.34522751163E+03  0.47200853157E+03  0.00000000000E+00 0.  1.
         21    1    1    2  502  501 -0.33572356838E-01 -0.79025253547E-02  0.25756346200E-01  0.43045817685E-01  0.00000000000E+00 0.  1.
<mgrwt>
<rscale>  1 0.65479785E+03</rscale>
<asrwt>0</asrwt>
<pdfrwt beam="1">  1        1 0.38991130E+00 0.65479785E+03</pdfrwt>
<pdfrwt beam="2">0</pdfrwt>
<totfact> 0.14820924E+00</totfact>
</mgrwt>
</event>
<event>
 6    1  0.1529677E-003  0.6448838E+03  0.7818608E-02  0.9816427E-01
          1   -1    0    0  502    0  0.00000000000E+00  0.00000000000E+00  0.10396892509E+03  0.10396892509E+03  0.00000000000E+00 0.  1.
         13   -1    0    0    0    0 -0.00000000000E+00 -0.00000000000E+00 -0.10000000000E+04  0.10000000000E+04  0.00000000000E+00 0.  1.
    9000005    2    1    2  501    0 -0.15963302478E-03  0.24831762005E-04 -0.89603116587E+03  0.11039687397E+04  0.64488380969E+03 0.  0.
         13    1    3    3    0    0 -0.12538690801E+03 -0.25579747328E+03 -0.70658759268E+03  0.76185316838E+03  0.00000000000E+00 0.  1.
          1    1    3    3  501    0  0.12538674837E+03  0.25579749812E+03 -0.18944357319E+03  0.34211557131E+03  0.00000000000E+00 0.  1.
         21    1    1    2  502  501  0.15963302479E-03 -0.24831762024E-04  0.90959733613E-04  0.18539954732E-03  0.00000000000E+00 0. -1.
<mgrwt>
<rscale>  1 0.64488381E+03</rscale>
<asrwt>0</asrwt>
<pdfrwt beam="1">  1        1 0.37806962E+00 0.64488381E+03</pdfrwt>
<pdfrwt beam="2">0</pdfrwt>
<totfact> 0.16750312E+00</totfact>
</mgrwt>
</event>
<event>
 6    1  0.1529677E-003  0.6501402E+03  0.7818608E-02  0.9806516E-01
          1   -1    0    0  502    0  0.00000000000E+00  0.00000000000E+00  0.10630546294E+03  0.10630546294E+03  0.00000000000E+00 0.  1.
         13   -1    0    0    0    0 -0.00000000000E+00 -0.00000000000E+00 -0.10000000000E+04  0.10000000000E+04  0.00000000000E+00 0.  1.
    9000005    2    1    2  501    0 -0.90864375581E-02  0.29607575806E-01 -0.89432901492E+03  0.11056702297E+04  0.65014019169E+03 0.  0.
         13    1    3    3    0    0  0.17671665591E+03 -0.57899910762E+00  0.16842467546E+02  0.17751839462E+03  0.00000000000E+00 0.  1.
          1    1    3    3  501    0 -0.17672574235E+03  0.60860668342E+00 -0.91117148247E+03  0.92815183503E+03  0.00000000000E+00 0.  1.
         21    1    1    2  502  501  0.90864375581E-02 -0.29607575806E-01  0.63447786449E+00  0.63523328976E+00  0.00000000000E+00 0. -1.
<mgrwt>
<rscale>  1 0.65014019E+03</rscale>
<asrwt>0</asrwt>
<pdfrwt beam="1">  1        1 0.38656613E+00 0.65014019E+03</pdfrwt>
<pdfrwt beam="2">0</pdfrwt>
<totfact> 0.15348682E+00</totfact>
</mgrwt>
</event>
<event>
 6    1  0.1529677E-003  0.6632266E+03  0.7818608E-02  0.9782272E-01
          1   -1    0    0  502    0  0.00000000000E+00  0.00000000000E+00  0.10997071275E+03  0.10997071275E+03  0.00000000000E+00 0.  1.
         13   -1    0    0    0    0 -0.00000000000E+00 -0.00000000000E+00 -0.10000000000E+04  0.10000000000E+04  0.00000000000E+00 0.  1.
    9000005    2    1    2  501    0 -0.13230043244E-03 -0.18111276955E-03 -0.89003262382E+03  0.11099673686E+04  0.66322657365E+03 0.  0.
         13    1    3    3    0    0  0.53176147331E+02  0.19044294363E+03  0.51989297797E+00  0.19772831793E+03  0.00000000000E+00 0.  1.
          1    1    3    3  501    0 -0.53176279632E+02 -0.19044312474E+03 -0.89055251680E+03  0.91223905072E+03  0.00000000000E+00 0.  1.
         21    1    1    2  502  501  0.13230043244E-03  0.18111276955E-03  0.33365726487E-02  0.33441026120E-02  0.00000000000E+00 0.  1.
<mgrwt>
<rscale>  1 0.66322657E+03</rscale>
<asrwt>0</asrwt>
<pdfrwt beam="1">  1        1 0.39989434E+00 0.66322657E+03</pdfrwt>
<pdfrwt beam="2">0</pdfrwt>
<totfact> 0.13359876E+00</totfact>
</mgrwt>
</event>
<event>
 6    1  0.1529677E-003  0.5857071E+03  0.7818608E-02  0.9935511E-01
          1   -1    0    0  502    0  0.00000000000E+00  0.00000000000E+00  0.85787195380E+02  0.85787195380E+02  0.00000000000E+00 0.  1.
         13   -1    0    0    0    0 -0.00000000000E+00 -0.00000000000E+00 -0.10000000000E+04  0.10000000000E+04  0.00000000000E+00 0.  1.
    9000005    2    1    2  501    0  0.11965527075E-02  0.20430882496E-02 -0.91423674534E+03  0.10857631379E+04  0.58570706415E+03 0.  0.
         13    1    3    3    0    0  0.21927875710E+03  0.14311898022E+03 -0.21401833265E+03  0.33818643161E+03  0.00000000000E+00 0.  1.
          3    1    3    3  501    0 -0.21927756055E+03 -0.14311693713E+03 -0.70021841269E+03  0.74757670625E+03  0.00000000000E+00 0.  1.
         21    1    1    2  502  501 -0.11965527075E-02 -0.20430882496E-02  0.23940724568E-01  0.24057519424E-01  0.00000000000E+00 0.  1.
<mgrwt>
<rscale>  1 0.58570706E+03</rscale>
<asrwt>0</asrwt>
<pdfrwt beam="1">  1        1 0.31195410E+00 0.58570706E+03</pdfrwt>
<pdfrwt beam="2">0</pdfrwt>
<totfact> 0.32848705E+00</totfact>
</mgrwt>
</event>
<event>
 6    1  0.1529677E-003  0.6620127E+03  0.7818608E-02  0.9784496E-01
          1   -1    0    0  502    0  0.00000000000E+00  0.00000000000E+00  0.10956914209E+03  0.10956914209E+03  0.00000000000E+00 0.  1.
         13   -1    0    0    0    0 -0.00000000000E+00 -0.00000000000E+00 -0.10000000000E+04  0.10000000000E+04  0.00000000000E+00 0.  1.
    9000005    2    1    2  501    0  0.16529732306E-04  0.17904959535E-03 -0.89043478645E+03  0.11095652094E+04  0.66201272275E+03 0.  0.
         13    1    3    3    0    0 -0.23379721447E+03  0.22995911308E+03 -0.52060084279E+03  0.61527844809E+03  0.00000000000E+00 0.  1.
          1    1    3    3  501    0  0.23379723099E+03 -0.22995893403E+03 -0.36983394366E+03  0.49428676135E+03  0.00000000000E+00 0.  1.
         21    1    1    2  502  501 -0.16529732291E-04 -0.17904959537E-03  0.39285364823E-02  0.39326493465E-02  0.00000000000E+00 0.  1.
<mgrwt>
<rscale>  1 0.66201272E+03</rscale>
<asrwt>0</asrwt>
<pdfrwt beam="1">  1        1 0.39843408E+00 0.66201272E+03</pdfrwt>
<pdfrwt beam="2">0</pdfrwt>
<totfact> 0.13564684E+00</totfact>
</mgrwt>
</event>
<event>
 6    1  0.1529677E-003  0.6321862E+03  0.7818608E-02  0.9840792E-01
          1   -1    0    0  502    0  0.00000000000E+00  0.00000000000E+00  0.99914930510E+02  0.99914930510E+02  0.00000000000E+00 0.  1.
         13   -1    0    0    0    0 -0.00000000000E+00 -0.00000000000E+00 -0.10000000000E+04  0.10000000000E+04  0.00000000000E+00 0.  1.
    9000005    2    1    2  501    0 -0.44839624707E-04  0.18642387559E-04 -0.90008515349E+03  0.10999148335E+04  0.63218617304E+03 0.  0.
         13    1    3    3    0    0 -0.30369464941E+03  0.79003365177E+02 -0.38395355127E+03  0.49587528807E+03  0.00000000000E+00 0.  1.
          1    1    3    3  501    0  0.30369460457E+03 -0.79003346535E+02 -0.51613160222E+03  0.60403954541E+03  0.00000000000E+00 0.  1.
         21    1    1    2  502  501  0.44839624685E-04 -0.18642387560E-04  0.84001408546E-04  0.97027662002E-04  0.00000000000E+00 0. -1.
<mgrwt>
<rscale>  1 0.63218617E+03</rscale>
<asrwt>0</asrwt>
<pdfrwt beam="1">  1        1 0.36332779E+00 0.63218617E+03</pdfrwt>
<pdfrwt beam="2">0</pdfrwt>
<totfact> 0.19489217E+00</totfact>
</mgrwt>
</event>
<event>
 6    1  0.1529677E-003  0.6486410E+03  0.7818608E-02  0.9809333E-01
          1   -1    0    0  502    0  0.00000000000E+00  0.00000000000E+00  0.10518575259E+03  0.10518575259E+03  0.00000000000E+00 0.  1.
         13   -1    0    0    0    0 -0.00000000000E+00 -0.00000000000E+00 -0.10000000000E+04  0.10000000000E+04  0.00000000000E+00 0.  1.
    9000005    2    1    2  501    0 -0.25265274534E-02  0.54951858314E-02 -0.89480714353E+03  0.11051764228E+04  0.64864096487E+03 0.  0.
         13    1    3    3    0    0  0.84489038724E+02  0.13256376142E+03  0.35934108567E+02  0.16125386403E+03  0.00000000000E+00 0.  1.
          3    1    3    3  501    0 -0.84491565252E+02 -0.13255826623E+03 -0.93074125209E+03  0.94392255874E+03  0.00000000000E+00 0.  1.
         21    1    1    2  502  501  0.25265274534E-02 -0.54951858314E-02 -0.71038819593E-02  0.93298203191E-02  0.00000000000E+00 0.  1.
<mgrwt>
<rscale>  1 0.64864096E+03</rscale>
<asrwt>0</asrwt>
<pdfrwt beam="1">  1        1 0.38249445E+00 0.64864096E+03</pdfrwt>
<pdfrwt beam="2">0</pdfrwt>
<totfact> 0.16002826E+00</totfact>
</mgrwt>
</event>
<event>
 6    1  0.1529677E-003  0.6371336E+03  0.7818608E-02  0.9831226E-01
          1   -1    0    0  502    0  0.00000000000E+00  0.00000000000E+00  0.10148583276E+03  0.10148583276E+03  0.00000000000E+00 0.  1.
         13   -1    0    0    0    0 -0.00000000000E+00 -0.00000000000E+00 -0.10000000000E+04  0.10000000000E+04  0.00000000000E+00 0.  1.
    9000005    2    1    2  501    0  0.34722184296E-04 -0.58415828479E-03 -0.89851509041E+03  0.11014847397E+04  0.63713363135E+03 0.  0.
         13    1    3    3    0    0 -0.20499212683E+03  0.24363005334E+03 -0.46716454858E+03  0.56534952941E+03  0.00000000000E+00 0.  1.
          1    1    3    3  501    0  0.20499216155E+03 -0.24363063749E+03 -0.43135054183E+03  0.53613521033E+03  0.00000000000E+00 0.  1.
         21    1    1    2  502  501 -0.34722184304E-04  0.58415828481E-03  0.92316955584E-03  0.10930180971E-02  0.00000000000E+00 0. -1.
<mgrwt>
<rscale>  1 0.63713363E+03</rscale>
<asrwt>0</asrwt>
<pdfrwt beam="1">  1        1 0.36904017E+00 0.63713363E+03</pdfrwt>
<pdfrwt beam="2">0</pdfrwt>
<totfact> 0.18380525E+00</totfact>
</mgrwt>
</event>
<event>
 6    1  0.1529677E-003  0.6471254E+03  0.7818608E-02  0.9812188E-01
          1   -1    0    0  502    0  0.00000000000E+00  0.00000000000E+00  0.10476375556E+03  0.10476375556E+03  0.00000000000E+00 0.  1.
         13   -1    0    0    0    0 -0.00000000000E+00 -0.00000000000E+00 -0.10000000000E+04  0.10000000000E+04  0.00000000000E+00 0.  1.
    9000005    2    1    2  501    0  0.82526740468E-03  0.17496505464E-02 -0.89530717374E+03  0.11046927999E+04  0.64712537175E+03 0.  0.
         13    1    3    3    0    0 -0.98466715128E+02  0.17686957288E+03 -0.16758299639E+02  0.20312405176E+03  0.00000000000E+00 0.  1.
          3    1    3    3  501    0  0.98467540395E+02 -0.17686782323E+03 -0.87854887410E+03  0.90156874812E+03  0.00000000000E+00 0.  1.
         21    1    1    2  502  501 -0.82526740468E-03 -0.17496505464E-02  0.70929305187E-01  0.70955681080E-01  0.00000000000E+00 0. -1.
<mgrwt>
<rscale>  1 0.64712537E+03</rscale>
<asrwt>0</asrwt>
<pdfrwt beam="1">  1        1 0.38095991E+00 0.64712537E+03</pdfrwt>
<pdfrwt beam="2">0</pdfrwt>
<totfact> 0.16259019E+00</totfact>
</mgrwt>
</event>
<event>
 6    1  0.1529677E-003  0.6704492E+03  0.7818608E-02  0.9769147E-01
          1   -1    0    0  502    0  0.00000000000E+00  0.00000000000E+00  0.11237741205E+03  0.11237741205E+03  0.00000000000E+00 0.  1.
         13   -1    0    0    0    0 -0.00000000000E+00 -0.00000000000E+00 -0.10000000000E+04  0.10000000000E+04  0.00000000000E+00 0.  1.
    9000005    2    1    2  501    0  0.13010180421E-02  0.28079108050E-02 -0.88762293411E+03  0.11123742981E+04  0.67044918215E+03 0.  0.
         13    1    3    3    0    0 -0.68889318531E+02 -0.21946371852E+03 -0.84839985545E+03  0.87902922402E+03  0.00000000000E+00 0.  1.
          3    1    3    3  501    0  0.68890619549E+02  0.21946652643E+03 -0.39223078659E+02  0.23334507405E+03  0.00000000000E+00 0.  1.
         21    1    1    2  502  501 -0.13010180421E-02 -0.28079108051E-02  0.34615430691E-03  0.31139739625E-02  0.00000000000E+00 0.  1.
<mgrwt>
<rscale>  1 0.67044918E+03</rscale>
<asrwt>0</asrwt>
<pdfrwt beam="1">  1        1 0.40864600E+00 0.67044918E+03</pdfrwt>
<pdfrwt beam="2">0</pdfrwt>
<totfact> 0.12192400E+00</totfact>
</mgrwt>
</event>
<event>
 6    1  0.1529677E-003  0.6114078E+03  0.7818608E-02  0.9882017E-01
          1   -1    0    0  502    0  0.00000000000E+00  0.00000000000E+00  0.93499244308E+02  0.93499244308E+02  0.00000000000E+00 0.  1.
         13   -1    0    0    0    0 -0.00000000000E+00 -0.00000000000E+00 -0.10000000000E+04  0.10000000000E+04  0.00000000000E+00 0.  1.
    9000005    2    1    2  501    0 -0.31066764507E-04  0.35172738129E-02 -0.90654503618E+03  0.10934548243E+04  0.61140784280E+03 0.  0.
         13    1    3    3    0    0 -0.12479206405E+03  0.24776713933E+03 -0.68296077991E+03  0.73715469304E+03  0.00000000000E+00 0.  1.
          1    1    3    3  501    0  0.12479203298E+03 -0.24776362206E+03 -0.22358425627E+03  0.35630013130E+03  0.00000000000E+00 0.  1.
         21    1    1    2  502  501  0.31066764507E-04 -0.35172738129E-02  0.44280485444E-01  0.44419968161E-01  0.00000000000E+00 0.  1.
<mgrwt>
<rscale>  1 0.61140784E+03</rscale>
<asrwt>0</asrwt>
<pdfrwt beam="1">  1        1 0.33999797E+00 0.61140784E+03</pdfrwt>
<pdfrwt beam="2">0</pdfrwt>
<totfact> 0.24725030E+00</totfact>
</mgrwt>
</event>
<event>
 6    1  0.1529677E-003  0.6521724E+03  0.7818608E-02  0.9802711E-01
          1   -1    0    0  502    0  0.00000000000E+00  0.00000000000E+00  0.10681790202E+03  0.10681790202E+03  0.00000000000E+00 0.  1.
         13   -1    0    0    0    0 -0.00000000000E+00 -0.00000000000E+00 -0.10000000000E+04  0.10000000000E+04  0.00000000000E+00 0.  1.
    9000005    2    1    2  501    0 -0.58639641827E+00  0.15645355497E+00 -0.89344850423E+03  0.11061550968E+04  0.65217213995E+03 0.  0.
         13    1    3    3    0    0  0.61216287249E+02  0.18425487854E+03 -0.89103654144E+03  0.91194485156E+03  0.00000000000E+00 0.  1.
          3    1    3    3  501    0 -0.61802683668E+02 -0.18409842499E+03 -0.24119627845E+01  0.19421024524E+03  0.00000000000E+00 0.  1.
         21    1    1    2  502  501  0.58639641827E+00 -0.15645355497E+00  0.26640625263E+00  0.66280522453E+00  0.00000000000E+00 0.  1.
<mgrwt>
<rscale>  1 0.65217242E+03</rscale>
<asrwt>0</asrwt>
<pdfrwt beam="1">  1        1 0.38842955E+00 0.65217242E+03</pdfrwt>
<pdfrwt beam="2">0</pdfrwt>
<totfact> 0.15054104E+00</totfact>
</mgrwt>
</event>
<event>
 6    1  0.1529677E-003  0.6475139E+03  0.7818608E-02  0.9811455E-01
          1   -1    0    0  502    0  0.00000000000E+00  0.00000000000E+00  0.10488024485E+03  0.10488024485E+03  0.00000000000E+00 0.  1.
         13   -1    0    0    0    0 -0.00000000000E+00 -0.00000000000E+00 -0.10000000000E+04  0.10000000000E+04  0.00000000000E+00 0.  1.
    9000005    2    1    2  501    0  0.40309691287E-02  0.29247925809E-02 -0.89518133102E+03  0.11048184679E+04  0.64751388524E+03 0.  0.
         13    1    3    3    0    0  0.24056131239E+03  0.13296259660E+03 -0.15567514285E+03  0.31588533872E+03  0.00000000000E+00 0.  1.
          3    1    3    3  501    0 -0.24055728142E+03 -0.13295967181E+03 -0.73950618818E+03  0.78893312919E+03  0.00000000000E+00 0.  1.
         21    1    1    2  502  501 -0.40309691288E-02 -0.29247925809E-02  0.61575870663E-01  0.61776945309E-01  0.00000000000E+00 0. -1.
<mgrwt>
<rscale>  1 0.64751389E+03</rscale>
<asrwt>0</asrwt>
<pdfrwt beam="1">  1        1 0.38138351E+00 0.64751389E+03</pdfrwt>
<pdfrwt beam="2">0</pdfrwt>
<totfact> 0.16188001E+00</totfact>
</mgrwt>
</event>
<event>
 6    1  0.1529677E-003  0.6401751E+03  0.7818608E-02  0.9825391E-01
          1   -1    0    0  502    0  0.00000000000E+00  0.00000000000E+00  0.10369194127E+03  0.10369194127E+03  0.00000000000E+00 0.  1.
         13   -1    0    0    0    0 -0.00000000000E+00 -0.00000000000E+00 -0.10000000000E+04  0.10000000000E+04  0.00000000000E+00 0.  1.
    9000005    2    1    2  501    0  0.23560651711E-01 -0.30242408711E-01 -0.89754361992E+03  0.11024557855E+04  0.64017513836E+03 0.  0.
         13    1    3    3    0    0  0.28671896731E+03 -0.12190665885E+03 -0.32227488549E+03  0.44825227440E+03  0.00000000000E+00 0.  1.
          1    1    3    3  501    0 -0.28669540666E+03  0.12187641644E+03 -0.57526873443E+03  0.65420351107E+03  0.00000000000E+00 0.  1.
         21    1    1    2  502  501 -0.23560651711E-01  0.30242408711E-01  0.12355611917E+01  0.12361558017E+01  0.00000000000E+00 0.  1.
<mgrwt>
<rscale>  1 0.64017514E+03</rscale>
<asrwt>0</asrwt>
<pdfrwt beam="1">  1        1 0.37706240E+00 0.64017514E+03</pdfrwt>
<pdfrwt beam="2">0</pdfrwt>
<totfact> 0.16937035E+00</totfact>
</mgrwt>
</event>
<event>
 6    1  0.1529677E-003  0.6444515E+03  0.7818608E-02  0.9817247E-01
          1   -1    0    0  502    0  0.00000000000E+00  0.00000000000E+00  0.10382963632E+03  0.10382963632E+03  0.00000000000E+00 0.  1.
         13   -1    0    0    0    0 -0.00000000000E+00 -0.00000000000E+00 -0.10000000000E+04  0.10000000000E+04  0.00000000000E+00 0.  1.
    9000005    2    1    2  501    0  0.21466112378E-03 -0.29248076294E-03 -0.89617033154E+03  0.11038292721E+04  0.64445154885E+03 0.  0.
         13    1    3    3    0    0 -0.19752925069E+03  0.22921608415E+03 -0.25834407482E+03  0.39786867068E+03  0.00000000000E+00 0.  1.
          3    1    3    3  501    0  0.19752946535E+03 -0.22921637663E+03 -0.63782625672E+03  0.70596060142E+03  0.00000000000E+00 0.  1.
         21    1    1    2  502  501 -0.21466112378E-03  0.29248076293E-03 -0.32144202792E-04  0.36422197150E-03  0.00000000000E+00 0. -1.
<mgrwt>
<rscale>  1 0.64445155E+03</rscale>
<asrwt>0</asrwt>
<pdfrwt beam="1">  1        1 0.37756311E+00 0.64445155E+03</pdfrwt>
<pdfrwt beam="2">0</pdfrwt>
<totfact> 0.16837973E+00</totfact>
</mgrwt>
</event>
<event>
 6    1  0.1529677E-003  0.6057238E+03  0.7818608E-02  0.9893602E-01
          1   -1    0    0  502    0  0.00000000000E+00  0.00000000000E+00  0.91732756492E+02  0.91732756492E+02  0.00000000000E+00 0.  1.
         13   -1    0    0    0    0 -0.00000000000E+00 -0.00000000000E+00 -0.10000000000E+04  0.10000000000E+04  0.00000000000E+00 0.  1.
    9000005    2    1    2  501    0 -0.42646619333E-02 -0.16434412320E-02 -0.90827388449E+03  0.10917246948E+04  0.60572383144E+03 0.  0.
         13    1    3    3    0    0 -0.22586288325E+02 -0.43948351547E+02  0.84411456164E+02  0.97810490009E+02  0.00000000000E+00 0.  1.
          1    1    3    3  501    0  0.22582023663E+02  0.43946708106E+02 -0.99268534065E+03  0.99391420479E+03  0.00000000000E+00 0.  1.
         21    1    1    2  502  501  0.42646619333E-02  0.16434412321E-02  0.66409789731E-02  0.80616897863E-02  0.00000000000E+00 0. -1.
<mgrwt>
<rscale>  1 0.60572383E+03</rscale>
<asrwt>0</asrwt>
<pdfrwt beam="1">  1        1 0.33357436E+00 0.60572383E+03</pdfrwt>
<pdfrwt beam="2">0</pdfrwt>
<totfact> 0.26390557E+00</totfact>
</mgrwt>
</event>
<event>
 6    1  0.1529677E-003  0.5809381E+03  0.7818608E-02  0.9945762E-01
          1   -1    0    0  502    0  0.00000000000E+00  0.00000000000E+00  0.84372409199E+02  0.84372409199E+02  0.00000000000E+00 0.  1.
         13   -1    0    0    0    0 -0.00000000000E+00 -0.00000000000E+00 -0.10000000000E+04  0.10000000000E+04  0.00000000000E+00 0.  1.
    9000005    2    1    2  501    0 -0.10452094526E-03 -0.34512389107E-05 -0.91562769315E+03  0.10843722629E+04  0.58093814820E+03 0.  0.
         13    1    3    3    0    0 -0.10086836555E+03  0.13802069783E+03 -0.19470960646E+02  0.17205597492E+03  0.00000000000E+00 0.  1.
          1    1    3    3  501    0  0.10086826102E+03 -0.13802070128E+03 -0.89615673250E+03  0.91231628796E+03  0.00000000000E+00 0.  1.
         21    1    1    2  502  501  0.10452094526E-03  0.34512389053E-05  0.10234438243E-03  0.14632467893E-03  0.00000000000E+00 0. -1.
<mgrwt>
<rscale>  1 0.58093815E+03</rscale>
<asrwt>0</asrwt>
<pdfrwt beam="1">  1        1 0.30680941E+00 0.58093815E+03</pdfrwt>
<pdfrwt beam="2">0</pdfrwt>
<totfact> 0.34601499E+00</totfact>
</mgrwt>
</event>
<event>
 6    1  0.1529677E-003  0.6428263E+03  0.7818608E-02  0.9820334E-01
          1   -1    0    0  502    0  0.00000000000E+00  0.00000000000E+00  0.10345872137E+03  0.10345872137E+03  0.00000000000E+00 0.  1.
         13   -1    0    0    0    0 -0.00000000000E+00 -0.00000000000E+00 -0.10000000000E+04  0.10000000000E+04  0.00000000000E+00 0.  1.
    9000005    2    1    2  501    0 -0.50653518210E-01  0.27346550766E+00 -0.89653879433E+03  0.11031805931E+04  0.64282620817E+03 0.  0.
         13    1    3    3    0    0 -0.17336513344E+03  0.16212152981E+03 -0.76252392043E+02  0.24930561007E+03  0.00000000000E+00 0.  1.
          3    1    3    3  501    0  0.17331447992E+03 -0.16184806430E+03 -0.82028640229E+03  0.85387498303E+03  0.00000000000E+00 0.  1.
         21    1    1    2  502  501  0.50653518210E-01 -0.27346550766E+00 -0.24842944490E-02  0.27812826988E+00  0.00000000000E+00 0.  1.
<mgrwt>
<rscale>  1 0.64282627E+03</rscale>
<asrwt>0</asrwt>
<pdfrwt beam="1">  1        1 0.37621433E+00 0.64282627E+03</pdfrwt>
<pdfrwt beam="2">0</pdfrwt>
<totfact> 0.17075028E+00</totfact>
</mgrwt>
</event>
<event>
 6    1  0.1529677E-003  0.6443700E+03  0.7818608E-02  0.9817401E-01
          1   -1    0    0  502    0  0.00000000000E+00  0.00000000000E+00  0.10416622893E+03  0.10416622893E+03  0.00000000000E+00 0.  1.
         13   -1    0    0    0    0 -0.00000000000E+00 -0.00000000000E+00 -0.10000000000E+04  0.10000000000E+04  0.00000000000E+00 0.  1.
    9000005    2    1    2  501    0 -0.65214538205E-02  0.28292814420E-03 -0.89619679533E+03  0.11038031460E+04  0.64436999395E+03 0.  0.
         13    1    3    3    0    0  0.80307069068E+02 -0.24313183299E+03 -0.11311874311E+03  0.27992528217E+03  0.00000000000E+00 0.  1.
          1    1    3    3  501    0 -0.80313590522E+02  0.24313211592E+03 -0.78307805222E+03  0.82387786382E+03  0.00000000000E+00 0.  1.
         21    1    1    2  502  501  0.65214538205E-02 -0.28292814418E-03  0.36302425738E+00  0.36308293936E+00  0.00000000000E+00 0. -1.
<mgrwt>
<rscale>  1 0.64436999E+03</rscale>
<asrwt>0</asrwt>
<pdfrwt beam="1">  1        1 0.37878709E+00 0.64436999E+03</pdfrwt>
<pdfrwt beam="2">0</pdfrwt>
<totfact> 0.16630323E+00</totfact>
</mgrwt>
</event>
<event>
 6    1  0.1529677E-003  0.6508969E+03  0.7818608E-02  0.9805098E-01
          1   -1    0    0  502    0  0.00000000000E+00  0.00000000000E+00  0.10614697070E+03  0.10614697070E+03  0.00000000000E+00 0.  1.
         13   -1    0    0    0    0 -0.00000000000E+00 -0.00000000000E+00 -0.10000000000E+04  0.10000000000E+04  0.00000000000E+00 0.  1.
    9000005    2    1    2  501    0  0.36486722925E+00  0.44184889708E+00 -0.89358618331E+03  0.11055148589E+04  0.65089669526E+03 0.  0.
         13    1    3    3    0    0  0.12233400863E+03  0.16346339261E+03 -0.16196910715E+02  0.20481267126E+03  0.00000000000E+00 0.  1.
          3    1    3    3  501    0 -0.12196914140E+03 -0.16302154371E+03 -0.87738927260E+03  0.90070218765E+03  0.00000000000E+00 0.  1.
         21    1    1    2  502  501 -0.36486722925E+00 -0.44184889708E+00 -0.26684598388E+00  0.63211179545E+00  0.00000000000E+00 0.  1.
<mgrwt>
<rscale>  1 0.65089695E+03</rscale>
<asrwt>0</asrwt>
<pdfrwt beam="1">  1        1 0.38598980E+00 0.65089695E+03</pdfrwt>
<pdfrwt beam="2">0</pdfrwt>
<totfact> 0.15436936E+00</totfact>
</mgrwt>
</event>
<event>
 6    1  0.1529677E-003  0.6482915E+03  0.7818608E-02  0.9809990E-01
          1   -1    0    0  502    0  0.00000000000E+00  0.00000000000E+00  0.10507577369E+03  0.10507577369E+03  0.00000000000E+00 0.  1.
         13   -1    0    0    0    0 -0.00000000000E+00 -0.00000000000E+00 -0.10000000000E+04  0.10000000000E+04  0.00000000000E+00 0.  1.
    9000005    2    1    2  501    0  0.14390009304E-01  0.59958546063E-03 -0.89491490008E+03  0.11050586153E+04  0.64829149666E+03 0.  0.
         13    1    3    3    0    0 -0.30402429889E+03 -0.78332469960E+02 -0.58486744582E+03  0.66380469970E+03  0.00000000000E+00 0.  1.
          3    1    3    3  501    0  0.30403868890E+03  0.78333069545E+02 -0.31004745425E+03  0.44125391559E+03  0.00000000000E+00 0.  1.
         21    1    1    2  502  501 -0.14390009304E-01 -0.59958546063E-03 -0.93262365652E-02  0.17158396165E-01  0.00000000000E+00 0.  1.
<mgrwt>
<rscale>  1 0.64829150E+03</rscale>
<asrwt>0</asrwt>
<pdfrwt beam="1">  1        1 0.38209453E+00 0.64829150E+03</pdfrwt>
<pdfrwt beam="2">0</pdfrwt>
<totfact> 0.16069087E+00</totfact>
</mgrwt>
</event>
<event>
 6    1  0.1529677E-003  0.6544453E+03  0.7818608E-02  0.9798473E-01
          1   -1    0    0  502    0  0.00000000000E+00  0.00000000000E+00  0.10710537661E+03  0.10710537661E+03  0.00000000000E+00 0.  1.
         13   -1    0    0    0    0 -0.00000000000E+00 -0.00000000000E+00 -0.10000000000E+04  0.10000000000E+04  0.00000000000E+00 0.  1.
    9000005    2    1    2  501    0  0.57113023330E-02  0.45546652285E-02 -0.89292485128E+03  0.11070742785E+04  0.65444531333E+03 0.  0.
         13    1    3    3    0    0  0.99326086986E+02  0.26148988277E+03 -0.73371229754E+03  0.78522376805E+03  0.00000000000E+00 0.  1.
          3    1    3    3  501    0 -0.99320375684E+02 -0.26148532810E+03 -0.15921255374E+03  0.32185051050E+03  0.00000000000E+00 0.  1.
         21    1    1    2  502  501 -0.57113023330E-02 -0.45546652285E-02  0.30227894473E-01  0.31098063508E-01  0.00000000000E+00 0. -1.
<mgrwt>
<rscale>  1 0.65444531E+03</rscale>
<asrwt>0</asrwt>
<pdfrwt beam="1">  1        1 0.38947492E+00 0.65444531E+03</pdfrwt>
<pdfrwt beam="2">0</pdfrwt>
<totfact> 0.14888078E+00</totfact>
</mgrwt>
</event>
<event>
 6    1  0.1529677E-003  0.6509950E+03  0.7818608E-02  0.9804914E-01
          1   -1    0    0  502    0  0.00000000000E+00  0.00000000000E+00  0.10594890784E+03  0.10594890784E+03  0.00000000000E+00 0.  1.
         13   -1    0    0    0    0 -0.00000000000E+00 -0.00000000000E+00 -0.10000000000E+04  0.10000000000E+04  0.00000000000E+00 0.  1.
    9000005    2    1    2  501    0 -0.27265200103E-04 -0.29208736521E-04 -0.89405136336E+03  0.11059486337E+04  0.65099503843E+03 0.  0.
         13    1    3    3    0    0  0.10827104158E+03  0.30453811701E+03 -0.51243811780E+03  0.60585386665E+03  0.00000000000E+00 0.  1.
          3    1    3    3  501    0 -0.10827106885E+03 -0.30453814622E+03 -0.38161324556E+03  0.50009476706E+03  0.00000000000E+00 0.  1.
         21    1    1    2  502  501  0.27265200106E-04  0.29208736536E-04  0.27120543209E-03  0.27413304766E-03  0.00000000000E+00 0. -1.
<mgrwt>
<rscale>  1 0.65099504E+03</rscale>
<asrwt>0</asrwt>
<pdfrwt beam="1">  1        1 0.38526957E+00 0.65099504E+03</pdfrwt>
<pdfrwt beam="2">0</pdfrwt>
<totfact> 0.15550344E+00</totfact>
</mgrwt>
</event>
<event>
 6    1  0.1529677E-003  0.6551355E+03  0.7818608E-02  0.9797190E-01
          1   -1    0    0  502    0  0.00000000000E+00  0.00000000000E+00  0.10732706395E+03  0.10732706395E+03  0.00000000000E+00 0.  1.
         13   -1    0    0    0    0 -0.00000000000E+00 -0.00000000000E+00 -0.10000000000E+04  0.10000000000E+04  0.00000000000E+00 0.  1.
    9000005    2    1    2  501    0  0.54678354061E-01  0.39314711004E-02 -0.89266301853E+03  0.11072713546E+04  0.65513554703E+03 0.  0.
         13    1    3    3    0    0  0.12008405180E+03 -0.30290685975E+03 -0.38944551752E+03  0.50778002747E+03  0.00000000000E+00 0.  1.
          3    1    3    3  501    0 -0.12002937345E+03  0.30291079123E+03 -0.50321750101E+03  0.59949132709E+03  0.00000000000E+00 0.  1.
         21    1    1    2  502  501 -0.54678354061E-01 -0.39314711003E-02 -0.99175146135E-02  0.55709388472E-01  0.00000000000E+00 0.  1.
<mgrwt>
<rscale>  1 0.65513555E+03</rscale>
<asrwt>0</asrwt>
<pdfrwt beam="1">  1        1 0.39028106E+00 0.65513555E+03</pdfrwt>
<pdfrwt beam="2">0</pdfrwt>
<totfact> 0.14764143E+00</totfact>
</mgrwt>
</event>
<event>
 6    1  0.1529677E-003  0.6513690E+03  0.7818608E-02  0.9804214E-01
          1   -1    0    0  502    0  0.00000000000E+00  0.00000000000E+00  0.11207220700E+03  0.11207220700E+03  0.00000000000E+00 0.  1.
         13   -1    0    0    0    0 -0.00000000000E+00 -0.00000000000E+00 -0.10000000000E+04  0.10000000000E+04  0.00000000000E+00 0.  1.
    9000005    2    1    2  501    0  0.21998177668E+01  0.38921302411E+01 -0.89299468271E+03  0.11053148963E+04  0.65135361276E+03 0.  0.
         13    1    3    3    0    0  0.22318097832E+03 -0.13281563741E+03 -0.11309781229E+03  0.28326817289E+03  0.00000000000E+00 0.  1.
          1    1    3    3  501    0 -0.22098116056E+03  0.13670776765E+03 -0.77989687041E+03  0.82204672345E+03  0.00000000000E+00 0.  1.
         21    1    1    2  502  501 -0.21998177668E+01 -0.38921302411E+01  0.50668897099E+01  0.67573106598E+01  0.00000000000E+00 0. -1.
<mgrwt>
<rscale>  1 0.65136896E+03</rscale>
<asrwt>0</asrwt>
<pdfrwt beam="1">  1        1 0.40753616E+00 0.65136896E+03</pdfrwt>
<pdfrwt beam="2">0</pdfrwt>
<totfact> 0.12377679E+00</totfact>
</mgrwt>
</event>
<event>
 6    1  0.1529677E-003  0.6505600E+03  0.7818608E-02  0.9805729E-01
          1   -1    0    0  502    0  0.00000000000E+00  0.00000000000E+00  0.10580707360E+03  0.10580707360E+03  0.00000000000E+00 0.  1.
         13   -1    0    0    0    0 -0.00000000000E+00 -0.00000000000E+00 -0.10000000000E+04  0.10000000000E+04  0.00000000000E+00 0.  1.
    9000005    2    1    2  501    0 -0.92339752555E-06 -0.11108086539E-04 -0.89419292651E+03  0.11058070625E+04  0.65055996615E+03 0.  0.
         13    1    3    3    0    0  0.20520644771E+02  0.29844643254E+03 -0.66421394239E+03  0.72847205246E+03  0.00000000000E+00 0.  1.
          1    1    3    3  501    0 -0.20520645695E+02 -0.29844644365E+03 -0.22997898412E+03  0.37733500999E+03  0.00000000000E+00 0.  1.
         21    1    1    2  502  501  0.92339752500E-06  0.11108086525E-04  0.10569701418E-06  0.11146901861E-04  0.00000000000E+00 0. -1.
<mgrwt>
<rscale>  1 0.65055997E+03</rscale>
<asrwt>0</asrwt>
<pdfrwt beam="1">  1        1 0.38475381E+00 0.65055997E+03</pdfrwt>
<pdfrwt beam="2">0</pdfrwt>
<totfact> 0.15633501E+00</totfact>
</mgrwt>
</event>
<event>
 6    1  0.1529677E-003  0.5370906E+03  0.7818608E-02  0.1004527E+00
          1   -1    0    0  502    0  0.00000000000E+00  0.00000000000E+00  0.72117078683E+02  0.72117078683E+02  0.00000000000E+00 0.  1.
         13   -1    0    0    0    0 -0.00000000000E+00 -0.00000000000E+00 -0.10000000000E+04  0.10000000000E+04  0.00000000000E+00 0.  1.
    9000005    2    1    2  501    0  0.74024467750E-03  0.15726716170E-02 -0.92787840639E+03  0.10721122407E+04  0.53709060657E+03 0.  0.
         13    1    3    3    0    0  0.26304042634E+03 -0.25734583437E+02 -0.55892360890E+03  0.61826218974E+03  0.00000000000E+00 0.  1.
          1    1    3    3  501    0 -0.26303968609E+03  0.25736156109E+02 -0.36895479749E+03  0.45385005099E+03  0.00000000000E+00 0.  1.
         21    1    1    2  502  501 -0.74024467747E-03 -0.15726716170E-02 -0.45149257798E-02  0.48379554560E-02  0.00000000000E+00 0. -1.
<mgrwt>
<rscale>  1 0.53709061E+03</rscale>
<asrwt>0</asrwt>
<pdfrwt beam="1">  1        1 0.26224448E+00 0.53709061E+03</pdfrwt>
<pdfrwt beam="2">0</pdfrwt>
<totfact> 0.54303825E+00</totfact>
</mgrwt>
</event>
<event>
 6    1  0.1529677E-003  0.6414158E+03  0.7818608E-02  0.9823021E-01
          1   -1    0    0  502    0  0.00000000000E+00  0.00000000000E+00  0.10286369803E+03  0.10286369803E+03  0.00000000000E+00 0.  1.
         13   -1    0    0    0    0 -0.00000000000E+00 -0.00000000000E+00 -0.10000000000E+04  0.10000000000E+04  0.00000000000E+00 0.  1.
    9000005    2    1    2  501    0  0.28714782965E-02 -0.32780293606E-02 -0.89714591073E+03  0.11028531472E+04  0.64141583953E+03 0.  0.
         13    1    3    3    0    0  0.22789260501E+03  0.22373861646E+03 -0.39816511408E+03  0.51042087143E+03  0.00000000000E+00 0.  1.
          1    1    3    3  501    0 -0.22788973353E+03 -0.22374189449E+03 -0.49898079665E+03  0.59243227581E+03  0.00000000000E+00 0.  1.
         21    1    1    2  502  501 -0.28714782965E-02  0.32780293606E-02  0.96087652573E-02  0.10550793044E-01  0.00000000000E+00 0. -1.
<mgrwt>
<rscale>  1 0.64141584E+03</rscale>
<asrwt>0</asrwt>
<pdfrwt beam="1">  1        1 0.37405060E+00 0.64141584E+03</pdfrwt>
<pdfrwt beam="2">0</pdfrwt>
<totfact> 0.17458156E+00</totfact>
</mgrwt>
</event>
<event>
 6    1  0.1529677E-003  0.6482152E+03  0.7818608E-02  0.9810134E-01
          1   -1    0    0  502    0  0.00000000000E+00  0.00000000000E+00  0.10504608835E+03  0.10504608835E+03  0.00000000000E+00 0.  1.
         13   -1    0    0    0    0 -0.00000000000E+00 -0.00000000000E+00 -0.10000000000E+04  0.10000000000E+04  0.00000000000E+00 0.  1.
    9000005    2    1    2  501    0  0.79815292622E-04  0.74632379682E-04 -0.89495426968E+03  0.11050457140E+04  0.64821515353E+03 0.  0.
         13    1    3    3    0    0 -0.13378570996E+03 -0.13768825476E+01  0.55771744769E+02  0.14495171441E+03  0.00000000000E+00 0.  1.
          1    1    3    3  501    0  0.13378578977E+03  0.13769571800E+01 -0.95072601444E+03  0.96009399962E+03  0.00000000000E+00 0.  1.
         21    1    1    2  502  501 -0.79815292611E-04 -0.74632379682E-04  0.35802770446E-03  0.37433181831E-03  0.00000000000E+00 0.  1.
<mgrwt>
<rscale>  1 0.64821515E+03</rscale>
<asrwt>0</asrwt>
<pdfrwt beam="1">  1        1 0.38198658E+00 0.64821515E+03</pdfrwt>
<pdfrwt beam="2">0</pdfrwt>
<totfact> 0.16086963E+00</totfact>
</mgrwt>
</event>
<event>
 6    1  0.1529677E-003  0.6481694E+03  0.7818608E-02  0.9810220E-01
          1   -1    0    0  502    0  0.00000000000E+00  0.00000000000E+00  0.10503204947E+03  0.10503204947E+03  0.00000000000E+00 0.  1.
         13   -1    0    0    0    0 -0.00000000000E+00 -0.00000000000E+00 -0.10000000000E+04  0.10000000000E+04  0.00000000000E+00 0.  1.
    9000005    2    1    2  501    0 -0.29561162854E-03 -0.22366869996E-03 -0.89496906834E+03  0.11050308718E+04  0.64816941793E+03 0.  0.
         13    1    3    3    0    0  0.10258544425E+03  0.44688480267E+02  0.71053175727E+02  0.13254956591E+03  0.00000000000E+00 0.  1.
          3    1    3    3  501    0 -0.10258573986E+03 -0.44688703935E+02 -0.96602224407E+03  0.97248130589E+03  0.00000000000E+00 0.  1.
         21    1    1    2  502  501  0.29561162854E-03  0.22366869996E-03  0.11178111483E-02  0.11776738451E-02  0.00000000000E+00 0. -1.
<mgrwt>
<rscale>  1 0.64816942E+03</rscale>
<asrwt>0</asrwt>
<pdfrwt beam="1">  1        1 0.38193553E+00 0.64816942E+03</pdfrwt>
<pdfrwt beam="2">0</pdfrwt>
<totfact> 0.16095452E+00</totfact>
</mgrwt>
</event>
<event>
 6    1  0.1529677E-003  0.6592055E+03  0.7818608E-02  0.9789657E-01
          1   -1    0    0  502    0  0.00000000000E+00  0.00000000000E+00  0.10863940959E+03  0.10863940959E+03  0.00000000000E+00 0.  1.
         13   -1    0    0    0    0 -0.00000000000E+00 -0.00000000000E+00 -0.10000000000E+04  0.10000000000E+04  0.00000000000E+00 0.  1.
    9000005    2    1    2  501    0  0.45576493844E-03 -0.71143080447E-03 -0.89136187294E+03  0.11086378738E+04  0.65920554202E+03 0.  0.
         13    1    3    3    0    0 -0.14703765363E+03 -0.29254274058E+03 -0.50942931776E+03  0.60557374154E+03  0.00000000000E+00 0.  1.
          3    1    3    3  501    0  0.14703810939E+03  0.29254202915E+03 -0.38193255518E+03  0.50306413223E+03  0.00000000000E+00 0.  1.
         21    1    1    2  502  501 -0.45576493845E-03  0.71143080450E-03  0.12825259411E-02  0.15358151771E-02  0.00000000000E+00 0.  1.
<mgrwt>
<rscale>  1 0.65920554E+03</rscale>
<asrwt>0</asrwt>
<pdfrwt beam="1">  1        1 0.39505323E+00 0.65920554E+03</pdfrwt>
<pdfrwt beam="2">0</pdfrwt>
<totfact> 0.14050304E+00</totfact>
</mgrwt>
</event>
<event>
 6    1  0.1529677E-003  0.6646406E+03  0.7818608E-02  0.9779689E-01
          1   -1    0    0  502    0  0.00000000000E+00  0.00000000000E+00  0.13457766057E+03  0.13457766057E+03  0.00000000000E+00 0.  1.
         13   -1    0    0    0    0 -0.00000000000E+00 -0.00000000000E+00 -0.10000000000E+04  0.10000000000E+04  0.00000000000E+00 0.  1.
    9000005    2    1    2  501    0  0.43403867852E+00  0.45123620354E+00 -0.88955872274E+03  0.11104331580E+04  0.66464026753E+03 0.  0.
         13    1    3    3    0    0  0.16241227127E+03 -0.23249434464E+03 -0.15547209517E+03  0.32342377545E+03  0.00000000000E+00 0.  1.
          3    1    3    3  501    0 -0.16197823260E+03  0.23294558085E+03 -0.73408662757E+03  0.78700938257E+03  0.00000000000E+00 0.  1.
         21    1    1    2  502  501 -0.43403867852E+00 -0.45123620354E+00  0.24136383311E+02  0.24144502542E+02  0.00000000000E+00 0.  1.
<mgrwt>
<rscale>  1 0.66464056E+03</rscale>
<asrwt>0</asrwt>
<pdfrwt beam="1">  1        1 0.48937434E+00 0.66464056E+03</pdfrwt>
<pdfrwt beam="2">0</pdfrwt>
<totfact> 0.51810962E-01</totfact>
</mgrwt>
</event>
<event>
 6    1  0.1529677E-003  0.5911841E+03  0.7818608E-02  0.9923867E-01
          1   -1    0    0  502    0  0.00000000000E+00  0.00000000000E+00  0.87502744265E+02  0.87502744265E+02  0.00000000000E+00 0.  1.
         13   -1    0    0    0    0 -0.00000000000E+00 -0.00000000000E+00 -0.10000000000E+04  0.10000000000E+04  0.00000000000E+00 0.  1.
    9000005    2    1    2  501    0  0.81212514679E-01  0.96106900227E-01 -0.91259097980E+03  0.10873458487E+04  0.59118413588E+03 0.  0.
         13    1    3    3    0    0  0.27515870938E+03  0.87472829056E+02 -0.57330475756E+03  0.64190509907E+03  0.00000000000E+00 0.  1.
          1    1    3    3  501    0 -0.27507749687E+03 -0.87376722156E+02 -0.33928622223E+03  0.44544074966E+03  0.00000000000E+00 0.  1.
         21    1    1    2  502  501 -0.81212514679E-01 -0.96106900227E-01  0.93724062872E-01  0.15689553459E+00  0.00000000000E+00 0.  1.
<mgrwt>
<rscale>  1 0.59118415E+03</rscale>
<asrwt>0</asrwt>
<pdfrwt beam="1">  1        1 0.31819247E+00 0.59118415E+03</pdfrwt>
<pdfrwt beam="2">0</pdfrwt>
<totfact> 0.30842057E+00</totfact>
</mgrwt>
</event>
<event>
 6    1  0.1529677E-003  0.6152229E+03  0.7818608E-02  0.9874317E-01
          1   -1    0    0  502    0  0.00000000000E+00  0.00000000000E+00  0.94714216297E+02  0.94714216297E+02  0.00000000000E+00 0.  1.
         13   -1    0    0    0    0 -0.00000000000E+00 -0.00000000000E+00 -0.10000000000E+04  0.10000000000E+04  0.00000000000E+00 0.  1.
    9000005    2    1    2  501    0  0.91164740715E-01  0.81401184454E-01 -0.90532726513E+03  0.10945851509E+04  0.61522287074E+03 0.  0.
         13    1    3    3    0    0 -0.29969128522E+03  0.66843035517E+02 -0.48444073246E+03  0.57355529908E+03  0.00000000000E+00 0.  1.
          1    1    3    3  501    0  0.29978244996E+03 -0.66761634333E+02 -0.42088653267E+03  0.52102985184E+03  0.00000000000E+00 0.  1.
         21    1    1    2  502  501 -0.91164740715E-01 -0.81401184454E-01  0.41481428526E-01  0.12906537759E+00  0.00000000000E+00 0. -1.
<mgrwt>
<rscale>  1 0.61522288E+03</rscale>
<asrwt>0</asrwt>
<pdfrwt beam="1">  1        1 0.34441606E+00 0.61522288E+03</pdfrwt>
<pdfrwt beam="2">0</pdfrwt>
<totfact> 0.23639623E+00</totfact>
</mgrwt>
</event>
<event>
 6    1  0.1529677E-003  0.6568213E+03  0.7818608E-02  0.9794063E-01
          1   -1    0    0  502    0  0.00000000000E+00  0.00000000000E+00  0.10807931268E+03  0.10807931268E+03  0.00000000000E+00 0.  1.
         13   -1    0    0    0    0 -0.00000000000E+00 -0.00000000000E+00 -0.10000000000E+04  0.10000000000E+04  0.00000000000E+00 0.  1.
    9000005    2    1    2  501    0  0.13002518629E-01 -0.64003781672E-01 -0.89214119818E+03  0.11078493331E+04  0.65682130232E+03 0.  0.
         13    1    3    3    0    0 -0.14177207706E+03  0.29402705631E+03 -0.50641163152E+03  0.60249810972E+03  0.00000000000E+00 0.  1.
          3    1    3    3  501    0  0.14178507958E+03 -0.29409106009E+03 -0.38572956666E+03  0.50535122342E+03  0.00000000000E+00 0.  1.
         21    1    1    2  502  501 -0.13002518629E-01  0.64003781672E-01  0.22051085931E+00  0.22997953959E+00  0.00000000000E+00 0. -1.
<mgrwt>
<rscale>  1 0.65682131E+03</rscale>
<asrwt>0</asrwt>
<pdfrwt beam="1">  1        1 0.39301651E+00 0.65682131E+03</pdfrwt>
<pdfrwt beam="2">0</pdfrwt>
<totfact> 0.14352597E+00</totfact>
</mgrwt>
</event>
<event>
 6    1  0.1529677E-003  0.6454419E+03  0.7818608E-02  0.9815370E-01
          1   -1    0    0  502    0  0.00000000000E+00  0.00000000000E+00  0.10416554763E+03  0.10416554763E+03  0.00000000000E+00 0.  1.
         13   -1    0    0    0    0 -0.00000000000E+00 -0.00000000000E+00 -0.10000000000E+04  0.10000000000E+04  0.00000000000E+00 0.  1.
    9000005    2    1    2  501    0 -0.10469435603E-01 -0.69383539185E-02 -0.89584853832E+03  0.11041466753E+04  0.64544192370E+03 0.  0.
         13    1    3    3    0    0  0.80893689199E+02  0.23231530495E+03 -0.80525188414E+03  0.84198859065E+03  0.00000000000E+00 0.  1.
          3    1    3    3  501    0 -0.80904158635E+02 -0.23232224330E+03 -0.90596654177E+02  0.26215808468E+03  0.00000000000E+00 0.  1.
         21    1    1    2  502  501  0.10469435603E-01  0.69383539185E-02  0.14085953256E-01  0.18872305532E-01  0.00000000000E+00 0.  1.
<mgrwt>
<rscale>  1 0.64544192E+03</rscale>
<asrwt>0</asrwt>
<pdfrwt beam="1">  1        1 0.37878461E+00 0.64544192E+03</pdfrwt>
<pdfrwt beam="2">0</pdfrwt>
<totfact> 0.16627467E+00</totfact>
</mgrwt>
</event>
<event>
 6    1  0.1529677E-003  0.6579848E+03  0.7818608E-02  0.9791911E-01
          1   -1    0    0  502    0  0.00000000000E+00  0.00000000000E+00  0.10823842104E+03  0.10823842104E+03  0.00000000000E+00 0.  1.
         13   -1    0    0    0    0 -0.00000000000E+00 -0.00000000000E+00 -0.10000000000E+04  0.10000000000E+04  0.00000000000E+00 0.  1.
    9000005    2    1    2  501    0 -0.88004401013E-03  0.71591361615E-03 -0.89176386544E+03  0.11082358686E+04  0.65798476330E+03 0.  0.
         13    1    3    3    0    0 -0.49026071965E+02 -0.17640756822E+03 -0.90625877761E+03  0.92456917419E+03  0.00000000000E+00 0.  1.
          3    1    3    3  501    0  0.49025191921E+02  0.17640828414E+03  0.14494912176E+02  0.18366669440E+03  0.00000000000E+00 0.  1.
         21    1    1    2  502  501  0.88004401013E-03 -0.71591361616E-03  0.22864716564E-02  0.25524424384E-02  0.00000000000E+00 0. -1.
<mgrwt>
<rscale>  1 0.65798476E+03</rscale>
<asrwt>0</asrwt>
<pdfrwt beam="1">  1        1 0.39359509E+00 0.65798476E+03</pdfrwt>
<pdfrwt beam="2">0</pdfrwt>
<totfact> 0.14264813E+00</totfact>
</mgrwt>
</event>
<event>
 6    1  0.1529677E-003  0.6598303E+03  0.7818608E-02  0.9788506E-01
          1   -1    0    0  502    0  0.00000000000E+00  0.00000000000E+00  0.10985625722E+03  0.10985625722E+03  0.00000000000E+00 0.  1.
         13   -1    0    0    0    0 -0.00000000000E+00 -0.00000000000E+00 -0.10000000000E+04  0.10000000000E+04  0.00000000000E+00 0.  1.
    9000005    2    1    2  501    0 -0.72298522100E+00  0.70836448381E+00 -0.89086732783E+03  0.11086120453E+04  0.65982955890E+03 0.  0.
         13    1    3    3    0    0 -0.13133363043E+02 -0.14911027288E+03 -0.93892775774E+03  0.95078477741E+03  0.00000000000E+00 0.  1.
          1    1    3    3  501    0  0.12410377822E+02  0.14981863737E+03  0.48060429912E+02  0.15782726793E+03  0.00000000000E+00 0.  1.
         21    1    1    2  502  501  0.72298522100E+00 -0.70836448381E+00  0.72358504390E+00  0.12442118740E+01  0.00000000000E+00 0. -1.
<mgrwt>
<rscale>  1 0.65983034E+03</rscale>
<asrwt>0</asrwt>
<pdfrwt beam="1">  1        1 0.39947814E+00 0.65983034E+03</pdfrwt>
<pdfrwt beam="2">0</pdfrwt>
<totfact> 0.13425617E+00</totfact>
</mgrwt>
</event>
<event>
 6    1  0.1529677E-003  0.6503830E+03  0.7818608E-02  0.9806061E-01
          3   -1    0    0  502    0  0.00000000000E+00  0.00000000000E+00  0.10589458023E+03  0.10589458023E+03  0.00000000000E+00 0.  1.
         13   -1    0    0    0    0 -0.00000000000E+00 -0.00000000000E+00 -0.10000000000E+04  0.10000000000E+04  0.00000000000E+00 0.  1.
    9000005    2    1    2  501    0  0.95034920255E-03 -0.10783212900E-01 -0.89425026409E+03  0.11057493320E+04  0.65038300272E+03 0.  0.
         13    1    3    3    0    0  0.95391592118E+02 -0.15888920527E+03 -0.90144156289E+03  0.92029464125E+03  0.00000000000E+00 0.  1.
          1    1    3    3  501    0 -0.95390641768E+02  0.15887842206E+03  0.71912988050E+01  0.18545469073E+03  0.00000000000E+00 0.  1.
         21    1    1    2  502  501 -0.95034920255E-03  0.10783212900E-01  0.14484431573E+00  0.14524825866E+00  0.00000000000E+00 0.  1.
<mgrwt>
<rscale>  1 0.65038300E+03</rscale>
<asrwt>0</asrwt>
<pdfrwt beam="1">  1        3 0.38507201E+00 0.65038300E+03</pdfrwt>
<pdfrwt beam="2">0</pdfrwt>
<totfact> 0.70963205E-02</totfact>
</mgrwt>
</event>
<event>
 6    1  0.1529677E-003  0.6446516E+03  0.7818608E-02  0.9816867E-01
          1   -1    0    0  502    0  0.00000000000E+00  0.00000000000E+00  0.10390516001E+03  0.10390516001E+03  0.00000000000E+00 0.  1.
         13   -1    0    0    0    0 -0.00000000000E+00 -0.00000000000E+00 -0.10000000000E+04  0.10000000000E+04  0.00000000000E+00 0.  1.
    9000005    2    1    2  501    0 -0.10586008253E-03 -0.18205277183E-03 -0.89610608411E+03  0.11038939139E+04  0.64465157969E+03 0.  0.
         13    1    3    3    0    0  0.22789441760E+03 -0.20320544495E+03 -0.27120711841E+03  0.40838905410E+03  0.00000000000E+00 0.  1.
          1    1    3    3  501    0 -0.22789452346E+03  0.20320526289E+03 -0.62489896570E+03  0.69550485981E+03  0.00000000000E+00 0.  1.
         21    1    1    2  502  501  0.10586008251E-03  0.18205277182E-03  0.11244122593E-01  0.11246094542E-01  0.00000000000E+00 0. -1.
<mgrwt>
<rscale>  1 0.64465158E+03</rscale>
<asrwt>0</asrwt>
<pdfrwt beam="1">  1        1 0.37783774E+00 0.64465158E+03</pdfrwt>
<pdfrwt beam="2">0</pdfrwt>
<totfact> 0.16790494E+00</totfact>
</mgrwt>
</event>
<event>
 6    1  0.1529677E-003  0.6405434E+03  0.7818608E-02  0.9824687E-01
          1   -1    0    0  502    0  0.00000000000E+00  0.00000000000E+00  0.10257401376E+03  0.10257401376E+03  0.00000000000E+00 0.  1.
         13   -1    0    0    0    0 -0.00000000000E+00 -0.00000000000E+00 -0.10000000000E+04  0.10000000000E+04  0.00000000000E+00 0.  1.
    9000005    2    1    2  501    0  0.25020037754E-04 -0.26768582075E-04 -0.89742602281E+03  0.11025739620E+04  0.64054342182E+03 0.  0.
         13    1    3    3    0    0  0.46692596699E+02  0.21189977246E+03 -0.43227498283E+02  0.22124721187E+03  0.00000000000E+00 0.  1.
          1    1    3    3  501    0 -0.46692571679E+02 -0.21189979922E+03 -0.85419852453E+03  0.88132675012E+03  0.00000000000E+00 0.  1.
         21    1    1    2  502  501 -0.25020037749E-04  0.26768582067E-04  0.36574818684E-04  0.51771388204E-04  0.00000000000E+00 0. -1.
<mgrwt>
<rscale>  1 0.64054342E+03</rscale>
<asrwt>0</asrwt>
<pdfrwt beam="1">  1        1 0.37299720E+00 0.64054342E+03</pdfrwt>
<pdfrwt beam="2">0</pdfrwt>
<totfact> 0.17648237E+00</totfact>
</mgrwt>
</event>
<event>
 6    1  0.1529677E-003  0.6866559E+03  0.7818608E-02  0.9740329E-01
          3   -1    0    0  502    0  0.00000000000E+00  0.00000000000E+00  0.11790963423E+03  0.11790963423E+03  0.00000000000E+00 0.  1.
         13   -1    0    0    0    0 -0.00000000000E+00 -0.00000000000E+00 -0.10000000000E+04  0.10000000000E+04  0.00000000000E+00 0.  1.
    9000005    2    1    2  501    0 -0.44865897515E-03 -0.11149137087E-02 -0.88212591817E+03  0.11178740615E+04  0.68665586862E+03 0.  0.
         13    1    3    3    0    0  0.20679473772E+02  0.19760036679E+03  0.14777638730E+02  0.19922832178E+03  0.00000000000E+00 0.  1.
          1    1    3    3  501    0 -0.20679922431E+02 -0.19760148171E+03 -0.89690355690E+03  0.91864573974E+03  0.00000000000E+00 0.  1.
         21    1    1    2  502  501  0.44865897515E-03  0.11149137087E-02  0.35552406432E-01  0.35572713287E-01  0.00000000000E+00 0. -1.
<mgrwt>
<rscale>  1 0.68665587E+03</rscale>
<asrwt>0</asrwt>
<pdfrwt beam="1">  1        3 0.42876321E+00 0.68665587E+03</pdfrwt>
<pdfrwt beam="2">0</pdfrwt>
<totfact> 0.41714276E-02</totfact>
</mgrwt>
</event>
<event>
 6    1  0.1529677E-003  0.6489068E+03  0.7818608E-02  0.9808833E-01
          1   -1    0    0  502    0  0.00000000000E+00  0.00000000000E+00  0.10527085704E+03  0.10527085704E+03  0.00000000000E+00 0.  1.
         13   -1    0    0    0    0 -0.00000000000E+00 -0.00000000000E+00 -0.10000000000E+04  0.10000000000E+04  0.00000000000E+00 0.  1.
    9000005    2    1    2  501    0  0.72862164893E-03 -0.38931637220E-03 -0.89472978211E+03  0.11052698125E+04  0.64890675411E+03 0.  0.
         13    1    3    3    0    0  0.32188939399E+03  0.43632207581E+01 -0.51630945613E+03  0.60844660747E+03  0.00000000000E+00 0.  1.
          1    1    3    3  501    0 -0.32188866537E+03 -0.43636100744E+01 -0.37842032598E+03  0.49682320507E+03  0.00000000000E+00 0.  1.
         21    1    1    2  502  501 -0.72862164895E-03  0.38931637220E-03  0.63915078321E-03  0.10444953177E-02  0.00000000000E+00 0. -1.
<mgrwt>
<rscale>  1 0.64890675E+03</rscale>
<asrwt>0</asrwt>
<pdfrwt beam="1">  1        1 0.38280392E+00 0.64890675E+03</pdfrwt>
<pdfrwt beam="2">0</pdfrwt>
<totfact> 0.15951744E+00</totfact>
</mgrwt>
</event>
<event>
 6    1  0.3286206E-003  0.6471586E+03  0.7818608E-02  0.9812126E-01
          1   -1    0    0  502    0  0.00000000000E+00  0.00000000000E+00  0.10470356092E+03  0.10470356092E+03  0.00000000000E+00 0.  1.
         13   -1    0    0    0    0 -0.00000000000E+00 -0.00000000000E+00 -0.10000000000E+04  0.10000000000E+04  0.00000000000E+00 0.  1.
    9000005    2    1    2  501    0  0.27808599725E-05 -0.67235203005E-05 -0.89529643574E+03  0.11047035529E+04  0.64715858334E+03 0.  0.
         13    1    3    3    0    0  0.15631518187E+03  0.27653445925E+03 -0.34245158110E+03  0.46709616637E+03  0.00000000000E+00 0.  1.
          3    1    3    3  501    0 -0.15631517909E+03 -0.27653446597E+03 -0.55284485463E+03  0.63760738655E+03  0.00000000000E+00 0.  1.
         21    1    1    2  502  501 -0.27808599798E-05  0.67235202695E-05 -0.33406642420E-05  0.80061816504E-05  0.00000000000E+00 0.  1.
<mgrwt>
<rscale>  1 0.64715858E+03</rscale>
<asrwt>0</asrwt>
<pdfrwt beam="1">  1        1 0.38074102E+00 0.64715858E+03</pdfrwt>
<pdfrwt beam="2">0</pdfrwt>
<totfact> 0.16295132E+00</totfact>
</mgrwt>
</event>
<event>
 6    1  0.1529677E-003  0.6655055E+03  0.7818608E-02  0.9778112E-01
          1   -1    0    0  502    0  0.00000000000E+00  0.00000000000E+00  0.11319365630E+03  0.11319365630E+03  0.00000000000E+00 0.  1.
         13   -1    0    0    0    0 -0.00000000000E+00 -0.00000000000E+00 -0.10000000000E+04  0.10000000000E+04  0.00000000000E+00 0.  1.
    9000005    2    1    2  501    0  0.51958328526E+01  0.39219854860E+01 -0.88281127864E+03  0.11055556465E+04  0.66547363219E+03 0.  0.
         13    1    3    3    0    0  0.30682973743E+03  0.12226925051E+02 -0.66786836483E+03  0.73507968154E+03  0.00000000000E+00 0.  1.
          3    1    3    3  501    0 -0.30163390457E+03 -0.83049395655E+01 -0.21494291380E+03  0.37047596495E+03  0.00000000000E+00 0.  1.
         21    1    1    2  502  501 -0.51958328526E+01 -0.39219854860E+01 -0.39950650593E+01  0.76380098201E+01  0.00000000000E+00 0. -1.
<mgrwt>
<rscale>  1 0.66550547E+03</rscale>
<asrwt>0</asrwt>
<pdfrwt beam="1">  1        1 0.41161416E+00 0.66550547E+03</pdfrwt>
<pdfrwt beam="2">0</pdfrwt>
<totfact> 0.11835363E+00</totfact>
</mgrwt>
</event>
<event>
 6    1  0.1529677E-003  0.6563379E+03  0.7818608E-02  0.9794959E-01
          1   -1    0    0  502    0  0.00000000000E+00  0.00000000000E+00  0.11562369899E+03  0.11562369899E+03  0.00000000000E+00 0.  1.
         13   -1    0    0    0    0 -0.00000000000E+00 -0.00000000000E+00 -0.10000000000E+04  0.10000000000E+04  0.00000000000E+00 0.  1.
    9000005    2    1    2  501    0 -0.12184408598E+01  0.62921796593E+00 -0.89223941331E+03  0.11076419042E+04  0.65633645086E+03 0.  0.
         13    1    3    3    0    0 -0.94931230213E+02 -0.24300083461E+03 -0.11023039206E+03  0.28321737840E+03  0.00000000000E+00 0.  1.
          3    1    3    3  501    0  0.93712789353E+02  0.24363005258E+03 -0.78200902124E+03  0.82442452578E+03  0.00000000000E+00 0.  1.
         21    1    1    2  502  501  0.12184408598E+01 -0.62921796593E+00  0.78631122923E+01  0.79817948044E+01  0.00000000000E+00 0.  1.
<mgrwt>
<rscale>  1 0.65633788E+03</rscale>
<asrwt>0</asrwt>
<pdfrwt beam="1">  1        1 0.42045070E+00 0.65633788E+03</pdfrwt>
<pdfrwt beam="2">0</pdfrwt>
<totfact> 0.10818850E+00</totfact>
</mgrwt>
</event>
<event>
 6    1  0.1529677E-003  0.6330823E+03  0.7818608E-02  0.9839052E-01
          1   -1    0    0  502    0  0.00000000000E+00  0.00000000000E+00  0.10069769117E+03  0.10069769117E+03  0.00000000000E+00 0.  1.
         13   -1    0    0    0    0 -0.00000000000E+00 -0.00000000000E+00 -0.10000000000E+04  0.10000000000E+04  0.00000000000E+00 0.  1.
    9000005    2    1    2  501    0  0.61576223974E-01  0.35788564320E-01 -0.89979891124E+03  0.11001960076E+04  0.63308227697E+03 0.  0.
         13    1    3    3    0    0  0.31170827563E+03  0.29032811561E+02 -0.53170785236E+03  0.61702365717E+03  0.00000000000E+00 0.  1.
          3    1    3    3  501    0 -0.31164669941E+03 -0.28997022997E+02 -0.36809105888E+03  0.48317235043E+03  0.00000000000E+00 0.  1.
         21    1    1    2  502  501 -0.61576223974E-01 -0.35788564320E-01  0.49660240755E+00  0.50168356948E+00  0.00000000000E+00 0.  1.
<mgrwt>
<rscale>  1 0.63308228E+03</rscale>
<asrwt>0</asrwt>
<pdfrwt beam="1">  1        1 0.36617419E+00 0.63308228E+03</pdfrwt>
<pdfrwt beam="2">0</pdfrwt>
<totfact> 0.18934393E+00</totfact>
</mgrwt>
</event>
<event>
 6    1  0.1529677E-003  0.6617068E+03  0.7818608E-02  0.9785057E-01
          1   -1    0    0  502    0  0.00000000000E+00  0.00000000000E+00  0.11016794108E+03  0.11016794108E+03  0.00000000000E+00 0.  1.
         13   -1    0    0    0    0 -0.00000000000E+00 -0.00000000000E+00 -0.10000000000E+04  0.10000000000E+04  0.00000000000E+00 0.  1.
    9000005    2    1    2  501    0 -0.15742043395E+00 -0.13728891076E+01 -0.88968104626E+03  0.11087778294E+04  0.66170537345E+03 0.  0.
         13    1    3    3    0    0 -0.93693417878E+02  0.25025942021E+03 -0.11870827312E+03  0.29240363894E+03  0.00000000000E+00 0.  1.
          1    1    3    3  501    0  0.93535997444E+02 -0.25163230932E+03 -0.77097277313E+03  0.81637419044E+03  0.00000000000E+00 0.  1.
         21    1    1    2  502  501  0.15742043395E+00  0.13728891076E+01 -0.15101266797E+00  0.13901116936E+01  0.00000000000E+00 0. -1.
<mgrwt>
<rscale>  1 0.66170682E+03</rscale>
<asrwt>0</asrwt>
<pdfrwt beam="1">  1        1 0.40061154E+00 0.66170682E+03</pdfrwt>
<pdfrwt beam="2">0</pdfrwt>
<totfact> 0.13265616E+00</totfact>
</mgrwt>
</event>
<event>
 6    1  0.1529677E-003  0.6613497E+03  0.7818608E-02  0.9785712E-01
          1   -1    0    0  502    0  0.00000000000E+00  0.00000000000E+00  0.11034165345E+03  0.11034165345E+03  0.00000000000E+00 0.  1.
         13   -1    0    0    0    0 -0.00000000000E+00 -0.00000000000E+00 -0.10000000000E+04  0.10000000000E+04  0.00000000000E+00 0.  1.
    9000005    2    1    2  501    0 -0.14243243902E+00 -0.14917253020E+00 -0.89064228882E+03  0.11093363267E+04  0.66134964779E+03 0.  0.
         13    1    3    3    0    0 -0.20027416485E+02 -0.28743989767E+03 -0.17303307933E+03  0.33610004273E+03  0.00000000000E+00 0.  1.
          1    1    3    3  501    0  0.19884984046E+02  0.28729072514E+03 -0.71760920949E+03  0.77323628399E+03  0.00000000000E+00 0.  1.
         21    1    1    2  502  501  0.14243243902E+00  0.14917253020E+00  0.98394226824E+00  0.10053267283E+01  0.00000000000E+00 0. -1.
<mgrwt>
<rscale>  1 0.66134968E+03</rscale>
<asrwt>0</asrwt>
<pdfrwt beam="1">  1        1 0.40124322E+00 0.66134968E+03</pdfrwt>
<pdfrwt beam="2">0</pdfrwt>
<totfact> 0.13180698E+00</totfact>
</mgrwt>
</event>
<event>
 6    1  0.1529677E-003  0.6406570E+03  0.7818608E-02  0.9824470E-01
          3   -1    0    0  502    0  0.00000000000E+00  0.00000000000E+00  0.10261885197E+03  0.10261885197E+03  0.00000000000E+00 0.  1.
         13   -1    0    0    0    0 -0.00000000000E+00 -0.00000000000E+00 -0.10000000000E+04  0.10000000000E+04  0.00000000000E+00 0.  1.
    9000005    2    1    2  501    0 -0.11010193724E-02  0.24182657244E-03 -0.89738960636E+03  0.11026103189E+04  0.64065701405E+03 0.  0.
         13    1    3    3    0    0  0.27094356978E+03 -0.96847576103E+01 -0.74231475157E+03  0.79027552343E+03  0.00000000000E+00 0.  1.
          1    1    3    3  501    0 -0.27094467080E+03  0.96849994369E+01 -0.15507485479E+03  0.31233479543E+03  0.00000000000E+00 0.  1.
         21    1    1    2  502  501  0.11010193724E-02 -0.24182657244E-03  0.84583288345E-02  0.85331149308E-02  0.00000000000E+00 0.  1.
<mgrwt>
<rscale>  1 0.64065701E+03</rscale>
<asrwt>0</asrwt>
<pdfrwt beam="1">  1        3 0.37316025E+00 0.64065701E+03</pdfrwt>
<pdfrwt beam="2">0</pdfrwt>
<totfact> 0.82160239E-02</totfact>
</mgrwt>
</event>
<event>
 6    1  0.1529677E-003  0.6389618E+03  0.7818608E-02  0.9827715E-01
          1   -1    0    0  502    0  0.00000000000E+00  0.00000000000E+00  0.10207401354E+03  0.10207401354E+03  0.00000000000E+00 0.  1.
         13   -1    0    0    0    0 -0.00000000000E+00 -0.00000000000E+00 -0.10000000000E+04  0.10000000000E+04  0.00000000000E+00 0.  1.
    9000005    2    1    2  501    0  0.30490215585E-03  0.24533371722E-02 -0.89793165792E+03  0.11020678267E+04  0.63896183947E+03 0.  0.
         13    1    3    3    0    0 -0.28721435743E+03  0.94905560980E+02 -0.62628356419E+03  0.69550719291E+03  0.00000000000E+00 0.  1.
          3    1    3    3  501    0  0.28721466233E+03 -0.94903107643E+02 -0.27164809373E+03  0.40656063376E+03  0.00000000000E+00 0.  1.
         21    1    1    2  502  501 -0.30490215588E-03 -0.24533371722E-02  0.56714584976E-02  0.61868627021E-02  0.00000000000E+00 0. -1.
<mgrwt>
<rscale>  1 0.63896184E+03</rscale>
<asrwt>0</asrwt>
<pdfrwt beam="1">  1        1 0.37117901E+00 0.63896184E+03</pdfrwt>
<pdfrwt beam="2">0</pdfrwt>
<totfact> 0.17981228E+00</totfact>
</mgrwt>
</event>
<event>
 6    1  0.1529677E-003  0.6212213E+03  0.7818608E-02  0.9862331E-01
          1   -1    0    0  502    0  0.00000000000E+00  0.00000000000E+00  0.97424090253E+02  0.97424090253E+02  0.00000000000E+00 0.  1.
         13   -1    0    0    0    0 -0.00000000000E+00 -0.00000000000E+00 -0.10000000000E+04  0.10000000000E+04  0.00000000000E+00 0.  1.
    9000005    2    1    2  501    0 -0.57520334569E+00  0.29595110757E+01 -0.89880438732E+03  0.10925956385E+04  0.62121398333E+03 0.  0.
         13    1    3    3    0    0  0.14104901300E+03 -0.26191528865E+03 -0.29893204703E+03  0.42172836191E+03  0.00000000000E+00 0.  1.
          3    1    3    3  501    0 -0.14162421635E+03  0.26487479972E+03 -0.59987234029E+03  0.67086727661E+03  0.00000000000E+00 0.  1.
         21    1    1    2  502  501  0.57520334569E+00 -0.29595110757E+01 -0.37715224291E+01  0.48284517321E+01  0.00000000000E+00 0. -1.
<mgrwt>
<rscale>  1 0.62122130E+03</rscale>
<asrwt>0</asrwt>
<pdfrwt beam="1">  1        1 0.35427017E+00 0.62122130E+03</pdfrwt>
<pdfrwt beam="2">0</pdfrwt>
<totfact> 0.21391819E+00</totfact>
</mgrwt>
</event>
<event>
 6    1  0.1529677E-003  0.6562685E+03  0.7818608E-02  0.9795087E-01
          1   -1    0    0  502    0  0.00000000000E+00  0.00000000000E+00  0.10767309570E+03  0.10767309570E+03  0.00000000000E+00 0.  1.
         13   -1    0    0    0    0 -0.00000000000E+00 -0.00000000000E+00 -0.10000000000E+04  0.10000000000E+04  0.00000000000E+00 0.  1.
    9000005    2    1    2  501    0  0.54784397832E-04  0.68866242654E-03 -0.89232778445E+03  0.11076719768E+04  0.65626849177E+03 0.  0.
         13    1    3    3    0    0  0.41926903404E+02 -0.10265696869E+03  0.75089139631E+02  0.13392048887E+03  0.00000000000E+00 0.  1.
          1    1    3    3  501    0 -0.41926848619E+02  0.10265765735E+03 -0.96741692408E+03  0.97375148793E+03  0.00000000000E+00 0.  1.
         21    1    1    2  502  501 -0.54784397832E-04 -0.68866242653E-03  0.88015192607E-03  0.11188944012E-02  0.00000000000E+00 0. -1.
<mgrwt>
<rscale>  1 0.65626849E+03</rscale>
<asrwt>0</asrwt>
<pdfrwt beam="1">  1        1 0.39153936E+00 0.65626849E+03</pdfrwt>
<pdfrwt beam="2">0</pdfrwt>
<totfact> 0.14572495E+00</totfact>
</mgrwt>
</event>
<event>
 6    1  0.1529677E-003  0.6423525E+03  0.7818608E-02  0.9821236E-01
          1   -1    0    0  502    0  0.00000000000E+00  0.00000000000E+00  0.10339682848E+03  0.10339682848E+03  0.00000000000E+00 0.  1.
         13   -1    0    0    0    0 -0.00000000000E+00 -0.00000000000E+00 -0.10000000000E+04  0.10000000000E+04  0.00000000000E+00 0.  1.
    9000005    2    1    2  501    0 -0.99984896287E-02  0.57941746206E-02 -0.89684566653E+03  0.11031540583E+04  0.64235249403E+03 0.  0.
         13    1    3    3    0    0 -0.26630161187E+03  0.86113255819E+02 -0.17784077731E+03  0.33160124153E+03  0.00000000000E+00 0.  1.
          1    1    3    3  501    0  0.26629161338E+03 -0.86107461645E+02 -0.71900488922E+03  0.77155281675E+03  0.00000000000E+00 0.  1.
         21    1    1    2  502  501  0.99984896287E-02 -0.57941746206E-02  0.24249500493E+00  0.24277019930E+00  0.00000000000E+00 0.  1.
<mgrwt>
<rscale>  1 0.64235249E+03</rscale>
<asrwt>0</asrwt>
<pdfrwt beam="1">  1        1 0.37598926E+00 0.64235249E+03</pdfrwt>
<pdfrwt beam="2">0</pdfrwt>
<totfact> 0.17115529E+00</totfact>
</mgrwt>
</event>
<event>
 6    1  0.1529677E-003  0.4709885E+03  0.7818608E-02  0.1021642E+00
          3   -1    0    0  502    0  0.00000000000E+00  0.00000000000E+00  0.55457609690E+02  0.55457609690E+02  0.00000000000E+00 0.  1.
         13   -1    0    0    0    0 -0.00000000000E+00 -0.00000000000E+00 -0.10000000000E+04  0.10000000000E+04  0.00000000000E+00 0.  1.
    9000005    2    1    2  501    0  0.42021335219E-04 -0.12857525959E-04 -0.94454244142E+03  0.10554575423E+04  0.47098853483E+03 0.  0.
         13    1    3    3    0    0  0.18531546271E+03 -0.10128933698E+03 -0.23878059465E+03  0.31877503492E+03  0.00000000000E+00 0.  1.
          1    1    3    3  501    0 -0.18531542068E+03  0.10128932412E+03 -0.70576184676E+03  0.73668250737E+03  0.00000000000E+00 0.  1.
         21    1    1    2  502  501 -0.42021335220E-04  0.12857525951E-04  0.51105303010E-04  0.67400746161E-04  0.00000000000E+00 0. -1.
<mgrwt>
<rscale>  1 0.47098853E+03</rscale>
<asrwt>0</asrwt>
<pdfrwt beam="1">  1        3 0.20166446E+00 0.47098853E+03</pdfrwt>
<pdfrwt beam="2">0</pdfrwt>
<totfact> 0.74925513E-01</totfact>
</mgrwt>
</event>
<event>
 6    1  0.1529677E-003  0.6452726E+03  0.7818608E-02  0.9815691E-01
          1   -1    0    0  502    0  0.00000000000E+00  0.00000000000E+00  0.10418067341E+03  0.10418067341E+03  0.00000000000E+00 0.  1.
         13   -1    0    0    0    0 -0.00000000000E+00 -0.00000000000E+00 -0.10000000000E+04  0.10000000000E+04  0.00000000000E+00 0.  1.
    9000005    2    1    2  501    0 -0.31821933581E-01 -0.34156002672E-01 -0.89589882233E+03  0.11040884842E+04  0.64527256180E+03 0.  0.
         13    1    3    3    0    0 -0.16288710349E+03 -0.13064144804E+03 -0.27094099569E+02  0.21055518674E+03  0.00000000000E+00 0.  1.
          3    1    3    3  501    0  0.16285528156E+03  0.13060729204E+03 -0.86880472277E+03  0.89353329751E+03  0.00000000000E+00 0.  1.
         21    1    1    2  502  501  0.31821933581E-01  0.34156002672E-01  0.79495748306E-01  0.92189164081E-01  0.00000000000E+00 0.  1.
<mgrwt>
<rscale>  1 0.64527256E+03</rscale>
<asrwt>0</asrwt>
<pdfrwt beam="1">  1        1 0.37883961E+00 0.64527256E+03</pdfrwt>
<pdfrwt beam="2">0</pdfrwt>
<totfact> 0.16618700E+00</totfact>
</mgrwt>
</event>
<event>
 6    1  0.1529677E-003  0.6361651E+03  0.7818608E-02  0.9833091E-01
          1   -1    0    0  502    0  0.00000000000E+00  0.00000000000E+00  0.10117705074E+03  0.10117705074E+03  0.00000000000E+00 0.  1.
         13   -1    0    0    0    0 -0.00000000000E+00 -0.00000000000E+00 -0.10000000000E+04  0.10000000000E+04  0.00000000000E+00 0.  1.
    9000005    2    1    2  501    0 -0.31449570972E-03  0.14132142667E-04 -0.89882343808E+03  0.11011764693E+04  0.63616510729E+03 0.  0.
         13    1    3    3    0    0  0.23279900648E+03 -0.14926338358E+03 -0.17736154227E+03  0.32853013830E+03  0.00000000000E+00 0.  1.
          3    1    3    3  501    0 -0.23279932097E+03  0.14926339771E+03 -0.72146189580E+03  0.77264633102E+03  0.00000000000E+00 0.  1.
         21    1    1    2  502  501  0.31449570971E-03 -0.14132142660E-04  0.48881401122E-03  0.58141758354E-03  0.00000000000E+00 0. -1.
<mgrwt>
<rscale>  1 0.63616511E+03</rscale>
<asrwt>0</asrwt>
<pdfrwt beam="1">  1        1 0.36791732E+00 0.63616511E+03</pdfrwt>
<pdfrwt beam="2">0</pdfrwt>
<totfact> 0.18593557E+00</totfact>
</mgrwt>
</event>
<event>
 6    1  0.1529677E-003  0.6395544E+03  0.7818608E-02  0.9826579E-01
          1   -1    0    0  502    0  0.00000000000E+00  0.00000000000E+00  0.10352544603E+03  0.10352544603E+03  0.00000000000E+00 0.  1.
         13   -1    0    0    0    0 -0.00000000000E+00 -0.00000000000E+00 -0.10000000000E+04  0.10000000000E+04  0.00000000000E+00 0.  1.
    9000005    2    1    2  501    0 -0.56538847348E-01  0.92528702914E-01 -0.89773998934E+03  0.11022553732E+04  0.63955438207E+03 0.  0.
         13    1    3    3    0    0  0.69271062687E+02  0.44538706003E+02  0.83667636775E+02  0.11739867930E+03  0.00000000000E+00 0.  1.
          1    1    3    3  501    0 -0.69327601535E+02 -0.44446177300E+02 -0.98140762611E+03  0.98485669394E+03  0.00000000000E+00 0.  1.
         21    1    1    2  502  501  0.56538847348E-01 -0.92528702914E-01  0.12654353724E+01  0.12700727868E+01  0.00000000000E+00 0. -1.
<mgrwt>
<rscale>  1 0.63955439E+03</rscale>
<asrwt>0</asrwt>
<pdfrwt beam="1">  1        1 0.37645696E+00 0.63955439E+03</pdfrwt>
<pdfrwt beam="2">0</pdfrwt>
<totfact> 0.17043307E+00</totfact>
</mgrwt>
</event>
<event>
 6    1  0.1529677E-003  0.6527642E+03  0.7818608E-02  0.9801606E-01
          1   -1    0    0  502    0  0.00000000000E+00  0.00000000000E+00  0.10653913102E+03  0.10653913102E+03  0.00000000000E+00 0.  1.
         13   -1    0    0    0    0 -0.00000000000E+00 -0.00000000000E+00 -0.10000000000E+04  0.10000000000E+04  0.00000000000E+00 0.  1.
    9000005    2    1    2  501    0 -0.36044611312E-03  0.11705441773E-03 -0.89347473464E+03  0.11065252602E+04  0.65276416106E+03 0.  0.
         13    1    3    3    0    0  0.27772333957E+03 -0.17038321166E+03 -0.41437594836E+03  0.52713197469E+03  0.00000000000E+00 0.  1.
          3    1    3    3  501    0 -0.27772370002E+03  0.17038332871E+03 -0.47909878628E+03  0.57939328549E+03  0.00000000000E+00 0.  1.
         21    1    1    2  502  501  0.36044611309E-03 -0.11705441774E-03  0.13865662539E-01  0.13870840666E-01  0.00000000000E+00 0. -1.
<mgrwt>
<rscale>  1 0.65276416E+03</rscale>
<asrwt>0</asrwt>
<pdfrwt beam="1">  1        1 0.38741584E+00 0.65276416E+03</pdfrwt>
<pdfrwt beam="2">0</pdfrwt>
<totfact> 0.15208904E+00</totfact>
</mgrwt>
</event>
<event>
 6    1  0.1529677E-003  0.6795260E+03  0.7818608E-02  0.9752901E-01
          1   -1    0    0  502    0  0.00000000000E+00  0.00000000000E+00  0.11544525422E+03  0.11544525422E+03  0.00000000000E+00 0.  1.
         13   -1    0    0    0    0 -0.00000000000E+00 -0.00000000000E+00 -0.10000000000E+04  0.10000000000E+04  0.00000000000E+00 0.  1.
    9000005    2    1    2  501    0 -0.40892929661E-04  0.23168003872E-03 -0.88456110055E+03  0.11154388951E+04  0.67952600251E+03 0.  0.
         13    1    3    3    0    0  0.16203681469E+03  0.20381320377E+03 -0.80057509656E+03  0.84185285922E+03  0.00000000000E+00 0.  1.
          1    1    3    3  501    0 -0.16203685559E+03 -0.20381297209E+03 -0.83986003990E+02  0.27358603588E+03  0.00000000000E+00 0.  1.
         21    1    1    2  502  501  0.40892929659E-04 -0.23168003872E-03  0.63547736335E-02  0.63591269688E-02  0.00000000000E+00 0.  1.
<mgrwt>
<rscale>  1 0.67952600E+03</rscale>
<asrwt>0</asrwt>
<pdfrwt beam="1">  1        1 0.41980181E+00 0.67952600E+03</pdfrwt>
<pdfrwt beam="2">0</pdfrwt>
<totfact> 0.10843388E+00</totfact>
</mgrwt>
</event>
<event>
 6    1  0.1529677E-003  0.6187778E+03  0.7818608E-02  0.9867196E-01
          1   -1    0    0  502    0  0.00000000000E+00  0.00000000000E+00  0.95722122576E+02  0.95722122576E+02  0.00000000000E+00 0.  1.
         13   -1    0    0    0    0 -0.00000000000E+00 -0.00000000000E+00 -0.10000000000E+04  0.10000000000E+04  0.00000000000E+00 0.  1.
    9000005    2    1    2  501    0  0.16989504350E-02 -0.80456704897E-03 -0.90427643774E+03  0.10957197548E+04  0.61877775102E+03 0.  0.
         13    1    3    3    0    0  0.72911943482E+02 -0.12626613464E+03 -0.93534590618E+03  0.94664209312E+03  0.00000000000E+00 0.  1.
          3    1    3    3  501    0 -0.72910244531E+02  0.12626533007E+03  0.31069468446E+02  0.14907766166E+03  0.00000000000E+00 0.  1.
         21    1    1    2  502  501 -0.16989504350E-02  0.80456704898E-03 -0.14396856941E-02  0.23677955179E-02  0.00000000000E+00 0. -1.
<mgrwt>
<rscale>  1 0.61877775E+03</rscale>
<asrwt>0</asrwt>
<pdfrwt beam="1">  1        1 0.34808118E+00 0.61877775E+03</pdfrwt>
<pdfrwt beam="2">0</pdfrwt>
<totfact> 0.22772749E+00</totfact>
</mgrwt>
</event>
<event>
 6    1  0.1529677E-003  0.6512017E+03  0.7818608E-02  0.9804527E-01
          1   -1    0    0  502    0  0.00000000000E+00  0.00000000000E+00  0.10613903028E+03  0.10613903028E+03  0.00000000000E+00 0.  1.
         13   -1    0    0    0    0 -0.00000000000E+00 -0.00000000000E+00 -0.10000000000E+04  0.10000000000E+04  0.00000000000E+00 0.  1.
    9000005    2    1    2  501    0  0.14599491502E-02 -0.32823380870E-01 -0.89398166221E+03  0.11060139456E+04  0.65120168486E+03 0.  0.
         13    1    3    3    0    0 -0.36124255217E+02 -0.11275525288E+03 -0.96215717699E+03  0.96941484520E+03  0.00000000000E+00 0.  1.
          3    1    3    3  501    0  0.36125715167E+02  0.11272242950E+03  0.68175514776E+02  0.13659910038E+03  0.00000000000E+00 0.  1.
         21    1    1    2  502  501 -0.14599491502E-02  0.32823380870E-01  0.12069248886E+00  0.12508470191E+00  0.00000000000E+00 0. -1.
<mgrwt>
<rscale>  1 0.65120169E+03</rscale>
<asrwt>0</asrwt>
<pdfrwt beam="1">  1        1 0.38596092E+00 0.65120169E+03</pdfrwt>
<pdfrwt beam="2">0</pdfrwt>
<totfact> 0.15440609E+00</totfact>
</mgrwt>
</event>
<event>
 6    1  0.1529677E-003  0.6544486E+03  0.7818608E-02  0.9798467E-01
          1   -1    0    0  502    0  0.00000000000E+00  0.00000000000E+00  0.10796920843E+03  0.10796920843E+03  0.00000000000E+00 0.  1.
         13   -1    0    0    0    0 -0.00000000000E+00 -0.00000000000E+00 -0.10000000000E+04  0.10000000000E+04  0.00000000000E+00 0.  1.
    9000005    2    1    2  501    0 -0.33102510826E-01  0.11662633703E-01 -0.89292386865E+03  0.11070754420E+04  0.65444862121E+03 0.  0.
         13    1    3    3    0    0  0.16108355694E+02  0.30012102670E+03 -0.22755838864E+03  0.37698133911E+03  0.00000000000E+00 0.  1.
          1    1    3    3  501    0 -0.16141458205E+02 -0.30010936407E+03 -0.66536548000E+03  0.73009410288E+03  0.00000000000E+00 0.  1.
         21    1    1    2  502  501  0.33102510826E-01 -0.11662633703E-01  0.89307707838E+00  0.89376644666E+00  0.00000000000E+00 0.  1.
<mgrwt>
<rscale>  1 0.65444862E+03</rscale>
<asrwt>0</asrwt>
<pdfrwt beam="1">  1        1 0.39261613E+00 0.65444862E+03</pdfrwt>
<pdfrwt beam="2">0</pdfrwt>
<totfact> 0.14417852E+00</totfact>
</mgrwt>
</event>
<event>
 6    1  0.1529677E-003  0.6407945E+03  0.7818608E-02  0.9824208E-01
          1   -1    0    0  502    0  0.00000000000E+00  0.00000000000E+00  0.10265458701E+03  0.10265458701E+03  0.00000000000E+00 0.  1.
         13   -1    0    0    0    0 -0.00000000000E+00 -0.00000000000E+00 -0.10000000000E+04  0.10000000000E+04  0.00000000000E+00 0.  1.
    9000005    2    1    2  501    0 -0.24868146484E-03 -0.11437556725E-03 -0.89734549890E+03  0.11026543001E+04  0.64079447656E+03 0.  0.
         13    1    3    3    0    0 -0.72092284048E+02 -0.27883539876E+03 -0.20710370006E+03  0.35473711336E+03  0.00000000000E+00 0.  1.
          3    1    3    3  501    0  0.72092035366E+02  0.27883528438E+03 -0.69024179884E+03  0.74791718676E+03  0.00000000000E+00 0.  1.
         21    1    1    2  502  501  0.24868146485E-03  0.11437556721E-03  0.85907191134E-04  0.28688723712E-03  0.00000000000E+00 0. -1.
<mgrwt>
<rscale>  1 0.64079448E+03</rscale>
<asrwt>0</asrwt>
<pdfrwt beam="1">  1        1 0.37329019E+00 0.64079448E+03</pdfrwt>
<pdfrwt beam="2">0</pdfrwt>
<totfact> 0.17595143E+00</totfact>
</mgrwt>
</event>
<event>
 6    1  0.1529677E-003  0.6458491E+03  0.7818608E-02  0.9814599E-01
          1   -1    0    0  502    0  0.00000000000E+00  0.00000000000E+00  0.10502182219E+03  0.10502182219E+03  0.00000000000E+00 0.  1.
         13   -1    0    0    0    0 -0.00000000000E+00 -0.00000000000E+00 -0.10000000000E+04  0.10000000000E+04  0.00000000000E+00 0.  1.
    9000005    2    1    2  501    0  0.37214965134E-01 -0.19580223596E-02 -0.89571921219E+03  0.11042798513E+04  0.64584911675E+03 0.  0.
         13    1    3    3    0    0  0.38110770502E+02 -0.15538632423E+03  0.31752065753E+02  0.16311202980E+03  0.00000000000E+00 0.  1.
          3    1    3    3  501    0 -0.38073555537E+02  0.15538436621E+03 -0.92747127794E+03  0.94116782154E+03  0.00000000000E+00 0.  1.
         21    1    1    2  502  501 -0.37214965134E-01  0.19580223596E-02  0.74103437873E+00  0.74197084710E+00  0.00000000000E+00 0.  1.
<mgrwt>
<rscale>  1 0.64584912E+03</rscale>
<asrwt>0</asrwt>
<pdfrwt beam="1">  1        1 0.38189834E+00 0.64584912E+03</pdfrwt>
<pdfrwt beam="2">0</pdfrwt>
<totfact> 0.16108429E+00</totfact>
</mgrwt>
</event>
<event>
 6    1  0.1529677E-003  0.6490268E+03  0.7818608E-02  0.9808607E-01
          1   -1    0    0  502    0  0.00000000000E+00  0.00000000000E+00  0.10543775854E+03  0.10543775854E+03  0.00000000000E+00 0.  1.
         13   -1    0    0    0    0 -0.00000000000E+00 -0.00000000000E+00 -0.10000000000E+04  0.10000000000E+04  0.00000000000E+00 0.  1.
    9000005    2    1    2  501    0  0.13621590772E-02 -0.10770342953E-02 -0.89469105380E+03  0.11053089345E+04  0.64902677827E+03 0.  0.
         13    1    3    3    0    0 -0.28025606934E+03 -0.11652916503E+03 -0.25178479480E+03  0.39435782431E+03  0.00000000000E+00 0.  1.
          3    1    3    3  501    0  0.28025743150E+03  0.11652808799E+03 -0.64290625901E+03  0.71095111018E+03  0.00000000000E+00 0.  1.
         21    1    1    2  502  501 -0.13621590772E-02  0.10770342953E-02  0.12881234610E+00  0.12882405050E+00  0.00000000000E+00 0.  1.
<mgrwt>
<rscale>  1 0.64902678E+03</rscale>
<asrwt>0</asrwt>
<pdfrwt beam="1">  1        1 0.38341084E+00 0.64902678E+03</pdfrwt>
<pdfrwt beam="2">0</pdfrwt>
<totfact> 0.15853187E+00</totfact>
</mgrwt>
</event>
<event>
 6    1  0.1529677E-003  0.6300347E+03  0.7818608E-02  0.9844981E-01
          1   -1    0    0  502    0  0.00000000000E+00  0.00000000000E+00  0.99244238019E+02  0.99244238019E+02  0.00000000000E+00 0.  1.
         13   -1    0    0    0    0 -0.00000000000E+00 -0.00000000000E+00 -0.10000000000E+04  0.10000000000E+04  0.00000000000E+00 0.  1.
    9000005    2    1    2  501    0 -0.49551079945E-03 -0.20178088670E-03 -0.90076405658E+03  0.10992359262E+04  0.63003470997E+03 0.  0.
         13    1    3    3    0    0 -0.24188272173E+03  0.14065242493E+03 -0.70288931778E+03  0.75653403675E+03  0.00000000000E+00 0.  1.
          3    1    3    3  501    0  0.24188222622E+03 -0.14065262671E+03 -0.19787473880E+03  0.34270188943E+03  0.00000000000E+00 0.  1.
         21    1    1    2  502  501  0.49551079945E-03  0.20178088669E-03  0.82946036590E-02  0.83118407310E-02  0.00000000000E+00 0.  1.
<mgrwt>
<rscale>  1 0.63003471E+03</rscale>
<asrwt>0</asrwt>
<pdfrwt beam="1">  1        1 0.36088890E+00 0.63003471E+03</pdfrwt>
<pdfrwt beam="2">0</pdfrwt>
<totfact> 0.19981989E+00</totfact>
</mgrwt>
</event>
<event>
 6    1  0.1529677E-003  0.6546453E+03  0.7818608E-02  0.9798101E-01
          1   -1    0    0  502    0  0.00000000000E+00  0.00000000000E+00  0.10763335413E+03  0.10763335413E+03  0.00000000000E+00 0.  1.
         13   -1    0    0    0    0 -0.00000000000E+00 -0.00000000000E+00 -0.10000000000E+04  0.10000000000E+04  0.00000000000E+00 0.  1.
    9000005    2    1    2  501    0 -0.66047864349E-02 -0.77763508864E-03 -0.89285984349E+03  0.11071401117E+04  0.65464534422E+03 0.  0.
         13    1    3    3    0    0 -0.18449958255E+03 -0.52759940248E+02 -0.89489777988E+03  0.91524081185E+03  0.00000000000E+00 0.  1.
          3    1    3    3  501    0  0.18449297777E+03  0.52759162613E+02  0.20379363831E+01  0.19189929982E+03  0.00000000000E+00 0.  1.
         21    1    1    2  502  501  0.66047864349E-02  0.77763508864E-03  0.49319762296E+00  0.49324245885E+00  0.00000000000E+00 0.  1.
<mgrwt>
<rscale>  1 0.65464534E+03</rscale>
<asrwt>0</asrwt>
<pdfrwt beam="1">  1        1 0.39139484E+00 0.65464534E+03</pdfrwt>
<pdfrwt beam="2">0</pdfrwt>
<totfact> 0.14598434E+00</totfact>
</mgrwt>
</event>
<event>
 6    1  0.1529677E-003  0.6522851E+03  0.7818608E-02  0.9802501E-01
          1   -1    0    0  502    0  0.00000000000E+00  0.00000000000E+00  0.10636913226E+03  0.10636913226E+03  0.00000000000E+00 0.  1.
         13   -1    0    0    0    0 -0.00000000000E+00 -0.00000000000E+00 -0.10000000000E+04  0.10000000000E+04  0.00000000000E+00 0.  1.
    9000005    2    1    2  501    0 -0.24985048981E-05  0.29023376470E-04 -0.89363103785E+03  0.11063689597E+04  0.65228509343E+03 0.  0.
         13    1    3    3    0    0  0.36009517399E+02 -0.16165804951E+03 -0.92336519707E+03  0.93810089941E+03  0.00000000000E+00 0.  1.
          3    1    3    3  501    0 -0.36009519897E+02  0.16165807853E+03  0.29734159221E+02  0.16826806026E+03  0.00000000000E+00 0.  1.
         21    1    1    2  502  501  0.24985048958E-05 -0.29023376479E-04  0.17011439361E-03  0.17259057281E-03  0.00000000000E+00 0.  1.
<mgrwt>
<rscale>  1 0.65228509E+03</rscale>
<asrwt>0</asrwt>
<pdfrwt beam="1">  1        1 0.38679766E+00 0.65228509E+03</pdfrwt>
<pdfrwt beam="2">0</pdfrwt>
<totfact> 0.15306424E+00</totfact>
</mgrwt>
</event>
<event>
 6    1  0.1717084E-003  0.6516214E+03  0.7818608E-02  0.9803742E-01
          1   -1    0    0  502    0  0.00000000000E+00  0.00000000000E+00  0.10615263072E+03  0.10615263072E+03  0.00000000000E+00 0.  1.
         13   -1    0    0    0    0 -0.00000000000E+00 -0.00000000000E+00 -0.10000000000E+04  0.10000000000E+04  0.00000000000E+00 0.  1.
    9000005    2    1    2  501    0  0.19542169682E-04 -0.53668215990E-04 -0.89384734183E+03  0.11061525673E+04  0.65162138681E+03 0.  0.
         13    1    3    3    0    0 -0.17408407233E+02 -0.44048492326E+02  0.10027732888E+03  0.11090024799E+03  0.00000000000E+00 0.  1.
          1    1    3    3  501    0  0.17408426776E+02  0.44048438658E+02 -0.99412467071E+03  0.99525231936E+03  0.00000000000E+00 0.  1.
         21    1    1    2  502  501 -0.19542169681E-04  0.53668215993E-04 -0.27448675574E-04  0.63368790382E-04  0.00000000000E+00 0.  1.
<mgrwt>
<rscale>  1 0.65162139E+03</rscale>
<asrwt>0</asrwt>
<pdfrwt beam="1">  1        1 0.38601038E+00 0.65162139E+03</pdfrwt>
<pdfrwt beam="2">0</pdfrwt>
<totfact> 0.15431632E+00</totfact>
</mgrwt>
</event>
<event>
 6    1  0.1529677E-003  0.6481009E+03  0.7818608E-02  0.9810349E-01
          1   -1    0    0  502    0  0.00000000000E+00  0.00000000000E+00  0.10501035903E+03  0.10501035903E+03  0.00000000000E+00 0.  1.
         13   -1    0    0    0    0 -0.00000000000E+00 -0.00000000000E+00 -0.10000000000E+04  0.10000000000E+04  0.00000000000E+00 0.  1.
    9000005    2    1    2  501    0 -0.12519813606E-03  0.11363409830E-02 -0.89499109112E+03  0.11050085124E+04  0.64810088672E+03 0.  0.
         13    1    3    3    0    0  0.23262092014E+03 -0.58879860068E+01 -0.83201425381E+03  0.86394147916E+03  0.00000000000E+00 0.  1.
          1    1    3    3  501    0 -0.23262104534E+03  0.58891223478E+01 -0.62976837311E+02  0.24106703328E+03  0.00000000000E+00 0.  1.
         21    1    1    2  502  501  0.12519813606E-03 -0.11363409830E-02  0.14501529897E-02  0.18465885022E-02  0.00000000000E+00 0. -1.
<mgrwt>
<rscale>  1 0.64810089E+03</rscale>
<asrwt>0</asrwt>
<pdfrwt beam="1">  1        1 0.38185666E+00 0.64810089E+03</pdfrwt>
<pdfrwt beam="2">0</pdfrwt>
<totfact> 0.16108571E+00</totfact>
</mgrwt>
</event>
<event>
 6    1  0.1529677E-003  0.6546438E+03  0.7818608E-02  0.9798104E-01
          1   -1    0    0  502    0  0.00000000000E+00  0.00000000000E+00  0.10713965015E+03  0.10713965015E+03  0.00000000000E+00 0.  1.
         13   -1    0    0    0    0 -0.00000000000E+00 -0.00000000000E+00 -0.10000000000E+04  0.10000000000E+04  0.00000000000E+00 0.  1.
    9000005    2    1    2  501    0 -0.32735410400E-05 -0.55220441965E-04 -0.89286035956E+03  0.11071395940E+04  0.65464376489E+03 0.  0.
         13    1    3    3    0    0  0.14732547412E+03 -0.13562560161E+03 -0.85391712129E+01  0.20042958010E+03  0.00000000000E+00 0.  1.
          3    1    3    3  501    0 -0.14732547739E+03  0.13562554639E+03 -0.88432118834E+03  0.90671001388E+03  0.00000000000E+00 0.  1.
         21    1    1    2  502  501  0.32735410302E-05  0.55220441964E-04  0.97037658431E-05  0.56162054389E-04  0.00000000000E+00 0.  1.
<mgrwt>
<rscale>  1 0.65464376E+03</rscale>
<asrwt>0</asrwt>
<pdfrwt beam="1">  1        1 0.38959955E+00 0.65464376E+03</pdfrwt>
<pdfrwt beam="2">0</pdfrwt>
<totfact> 0.14868600E+00</totfact>
</mgrwt>
</event>
<event>
 6    1  0.1529677E-003  0.6513442E+03  0.7818608E-02  0.9804260E-01
          1   -1    0    0  502    0  0.00000000000E+00  0.00000000000E+00  0.10860073179E+03  0.10860073179E+03  0.00000000000E+00 0.  1.
         13   -1    0    0    0    0 -0.00000000000E+00 -0.00000000000E+00 -0.10000000000E+04  0.10000000000E+04  0.00000000000E+00 0.  1.
    9000005    2    1    2  501    0 -0.50497650919E-01 -0.61150377629E-01 -0.89393699226E+03  0.11060617689E+04  0.65134421324E+03 0.  0.
         13    1    3    3    0    0 -0.91992239947E+02 -0.13388544232E+03 -0.92635718178E+03  0.94049216484E+03  0.00000000000E+00 0.  1.
          1    1    3    3  501    0  0.91941742296E+02  0.13382429194E+03  0.32420189521E+02  0.16556960403E+03  0.00000000000E+00 0.  1.
         21    1    1    2  502  501  0.50497650919E-01  0.61150377629E-01  0.25377240505E+01  0.25389629256E+01  0.00000000000E+00 0.  1.
<mgrwt>
<rscale>  1 0.65134422E+03</rscale>
<asrwt>0</asrwt>
<pdfrwt beam="1">  1        1 0.39491258E+00 0.65134422E+03</pdfrwt>
<pdfrwt beam="2">0</pdfrwt>
<totfact> 0.14091263E+00</totfact>
</mgrwt>
</event>
<event>
 6    1  0.1529677E-003  0.6536897E+03  0.7818608E-02  0.9799880E-01
          1   -1    0    0  502    0  0.00000000000E+00  0.00000000000E+00  0.10684835693E+03  0.10684835693E+03  0.00000000000E+00 0.  1.
         13   -1    0    0    0    0 -0.00000000000E+00 -0.00000000000E+00 -0.10000000000E+04  0.10000000000E+04  0.00000000000E+00 0.  1.
    9000005    2    1    2  501    0  0.23435569008E-02 -0.11209710181E-02 -0.89317236613E+03  0.11068274717E+04  0.65368966370E+03 0.  0.
         13    1    3    3    0    0 -0.29425109524E+03  0.28383265465E+02 -0.21052131698E+03  0.36291671456E+03  0.00000000000E+00 0.  1.
          1    1    3    3  501    0  0.29425343880E+03 -0.28384386436E+02 -0.68265104915E+03  0.74391075711E+03  0.00000000000E+00 0.  1.
         21    1    1    2  502  501 -0.23435569008E-02  0.11209710181E-02  0.20723058138E-01  0.20885257326E-01  0.00000000000E+00 0. -1.
<mgrwt>
<rscale>  1 0.65368966E+03</rscale>
<asrwt>0</asrwt>
<pdfrwt beam="1">  1        1 0.38854030E+00 0.65368966E+03</pdfrwt>
<pdfrwt beam="2">0</pdfrwt>
<totfact> 0.15032877E+00</totfact>
</mgrwt>
</event>
<event>
 6    1  0.1529677E-003  0.6452321E+03  0.7818608E-02  0.9815767E-01
          1   -1    0    0  502    0  0.00000000000E+00  0.00000000000E+00  0.10409349603E+03  0.10409349603E+03  0.00000000000E+00 0.  1.
         13   -1    0    0    0    0 -0.00000000000E+00 -0.00000000000E+00 -0.10000000000E+04  0.10000000000E+04  0.00000000000E+00 0.  1.
    9000005    2    1    2  501    0 -0.72886565946E-02 -0.72943745295E-02 -0.89591645395E+03  0.11040791665E+04  0.64523213915E+03 0.  0.
         13    1    3    3    0    0 -0.69139827811E+02 -0.15301278286E+03 -0.91934602966E+03  0.93455355639E+03  0.00000000000E+00 0.  1.
          1    1    3    3  501    0  0.69132539154E+02  0.15300548848E+03  0.23429575706E+02  0.16952561014E+03  0.00000000000E+00 0.  1.
         21    1    1    2  502  501  0.72886565946E-02  0.72943745295E-02  0.99499821339E-02  0.14329499614E-01  0.00000000000E+00 0. -1.
<mgrwt>
<rscale>  1 0.64523214E+03</rscale>
<asrwt>0</asrwt>
<pdfrwt beam="1">  1        1 0.37852260E+00 0.64523214E+03</pdfrwt>
<pdfrwt beam="2">0</pdfrwt>
<totfact> 0.16672399E+00</totfact>
</mgrwt>
</event>
<event>
 6    1  0.1529677E-003  0.6546679E+03  0.7818608E-02  0.9798059E-01
          1   -1    0    0  502    0  0.00000000000E+00  0.00000000000E+00  0.10714775414E+03  0.10714775414E+03  0.00000000000E+00 0.  1.
         13   -1    0    0    0    0 -0.00000000000E+00 -0.00000000000E+00 -0.10000000000E+04  0.10000000000E+04  0.00000000000E+00 0.  1.
    9000005    2    1    2  501    0  0.43172952530E-04  0.79571121105E-05 -0.89285247300E+03  0.11071475228E+04  0.65466793011E+03 0.  0.
         13    1    3    3    0    0 -0.30455838169E+03  0.60406423145E+02 -0.27114210806E+03  0.41221691690E+03  0.00000000000E+00 0.  1.
          1    1    3    3  501    0  0.30455842486E+03 -0.60406415188E+02 -0.62171036493E+03  0.69493060590E+03  0.00000000000E+00 0.  1.
         21    1    1    2  502  501 -0.43172952561E-04 -0.79571121077E-05  0.22713674495E-03  0.23134026968E-03  0.00000000000E+00 0. -1.
<mgrwt>
<rscale>  1 0.65466793E+03</rscale>
<asrwt>0</asrwt>
<pdfrwt beam="1">  1        1 0.38962902E+00 0.65466793E+03</pdfrwt>
<pdfrwt beam="2">0</pdfrwt>
<totfact> 0.14864061E+00</totfact>
</mgrwt>
</event>
<event>
 6    1  0.1529677E-003  0.6330236E+03  0.7818608E-02  0.9839166E-01
          1   -1    0    0  502    0  0.00000000000E+00  0.00000000000E+00  0.10020751517E+03  0.10020751517E+03  0.00000000000E+00 0.  1.
         13   -1    0    0    0    0 -0.00000000000E+00 -0.00000000000E+00 -0.10000000000E+04  0.10000000000E+04  0.00000000000E+00 0.  1.
    9000005    2    1    2  501    0  0.24274934607E-01  0.69232877218E-01 -0.89975148388E+03  0.11001234703E+04  0.63302362654E+03 0.  0.
         13    1    3    3    0    0  0.27231151504E+03 -0.65370546154E+02 -0.19354980776E+03  0.34042384995E+03  0.00000000000E+00 0.  1.
          1    1    3    3  501    0 -0.27228724010E+03  0.65439779031E+02 -0.70620167611E+03  0.75969962034E+03  0.00000000000E+00 0.  1.
         21    1    1    2  502  501 -0.24274934607E-01 -0.69232877218E-01 -0.41000950229E-01  0.84044878831E-01  0.00000000000E+00 0.  1.
<mgrwt>
<rscale>  1 0.63302363E+03</rscale>
<asrwt>0</asrwt>
<pdfrwt beam="1">  1        1 0.36439173E+00 0.63302363E+03</pdfrwt>
<pdfrwt beam="2">0</pdfrwt>
<totfact> 0.19278274E+00</totfact>
</mgrwt>
</event>
<event>
 6    1  0.1529677E-003  0.5225880E+03  0.7818608E-02  0.1008046E+00
          1   -1    0    0  502    0  0.00000000000E+00  0.00000000000E+00  0.68329134186E+02  0.68329134186E+02  0.00000000000E+00 0.  1.
         13   -1    0    0    0    0 -0.00000000000E+00 -0.00000000000E+00 -0.10000000000E+04  0.10000000000E+04  0.00000000000E+00 0.  1.
    9000005    2    1    2  501    0 -0.58700738182E-01 -0.19114499449E+00 -0.93142179622E+03  0.10680097319E+04  0.52258796856E+03 0.  0.
         13    1    3    3    0    0  0.40733740582E+02 -0.87063680114E+02  0.30860054510E+02  0.10095377646E+03  0.00000000000E+00 0.  1.
          3    1    3    3  501    0 -0.40792441321E+02  0.86872535119E+02 -0.96228185073E+03  0.96705595540E+03  0.00000000000E+00 0.  1.
         21    1    1    2  502  501  0.58700738182E-01  0.19114499449E+00 -0.24906959306E+00  0.31940232900E+00  0.00000000000E+00 0.  1.
<mgrwt>
<rscale>  1 0.52258801E+03</rscale>
<asrwt>0</asrwt>
<pdfrwt beam="1">  1        1 0.24847010E+00 0.52258801E+03</pdfrwt>
<pdfrwt beam="2">0</pdfrwt>
<totfact> 0.62475667E+00</totfact>
</mgrwt>
</event>
<event>
 6    1  0.1529677E-003  0.6530059E+03  0.7818608E-02  0.9801155E-01
          1   -1    0    0  502    0  0.00000000000E+00  0.00000000000E+00  0.11215136335E+03  0.11215136335E+03  0.00000000000E+00 0.  1.
         13   -1    0    0    0    0 -0.00000000000E+00 -0.00000000000E+00 -0.10000000000E+04  0.10000000000E+04  0.00000000000E+00 0.  1.
    9000005    2    1    2  501    0  0.47418322100E+00 -0.94315172587E+00 -0.89334017747E+03  0.11065592792E+04  0.65300509282E+03 0.  0.
         13    1    3    3    0    0 -0.26206166885E+03 -0.17056147873E+03 -0.60636492463E+03  0.68223599885E+03  0.00000000000E+00 0.  1.
          1    1    3    3  501    0  0.26253585207E+03  0.16961832700E+03 -0.28697525284E+03  0.42432328032E+03  0.00000000000E+00 0.  1.
         21    1    1    2  502  501 -0.47418322100E+00  0.94315172587E+00  0.54915408203E+01  0.55920841809E+01  0.00000000000E+00 0.  1.
<mgrwt>
<rscale>  1 0.65300595E+03</rscale>
<asrwt>0</asrwt>
<pdfrwt beam="1">  1        1 0.40782400E+00 0.65300595E+03</pdfrwt>
<pdfrwt beam="2">0</pdfrwt>
<totfact> 0.12337116E+00</totfact>
</mgrwt>
</event>
<event>
 6    1  0.1529677E-003  0.6499276E+03  0.7818608E-02  0.9806915E-01
          1   -1    0    0  502    0  0.00000000000E+00  0.00000000000E+00  0.10560695773E+03  0.10560695773E+03  0.00000000000E+00 0.  1.
         13   -1    0    0    0    0 -0.00000000000E+00 -0.00000000000E+00 -0.10000000000E+04  0.10000000000E+04  0.00000000000E+00 0.  1.
    9000005    2    1    2  501    0  0.45331657134E-04  0.24756523374E-03 -0.89439852335E+03  0.11056014709E+04  0.64992760661E+03 0.  0.
         13    1    3    3    0    0  0.15412024906E+03  0.28543271842E+03 -0.41418450861E+03  0.52609285786E+03  0.00000000000E+00 0.  1.
          1    1    3    3  501    0 -0.15412020373E+03 -0.28543247085E+03 -0.48021401474E+03  0.57950861302E+03  0.00000000000E+00 0.  1.
         21    1    1    2  502  501 -0.45331657137E-04 -0.24756523377E-03  0.54810739972E-02  0.54868493388E-02  0.00000000000E+00 0. -1.
<mgrwt>
<rscale>  1 0.64992761E+03</rscale>
<asrwt>0</asrwt>
<pdfrwt beam="1">  1        1 0.38402611E+00 0.64992761E+03</pdfrwt>
<pdfrwt beam="2">0</pdfrwt>
<totfact> 0.15751601E+00</totfact>
</mgrwt>
</event>
<event>
 6    1  0.1529677E-003  0.6545510E+03  0.7818608E-02  0.9798277E-01
          1   -1    0    0  502    0  0.00000000000E+00  0.00000000000E+00  0.10710925941E+03  0.10710925941E+03  0.00000000000E+00 0.  1.
         13   -1    0    0    0    0 -0.00000000000E+00 -0.00000000000E+00 -0.10000000000E+04  0.10000000000E+04  0.00000000000E+00 0.  1.
    9000005    2    1    2  501    0  0.49873096089E-05  0.28211996295E-05 -0.89289074423E+03  0.11071092526E+04  0.65455100344E+03 0.  0.
         13    1    3    3    0    0  0.19614648559E+03  0.72339415401E+02 -0.87233913358E+03  0.89704068961E+03  0.00000000000E+00 0.  1.
          3    1    3    3  501    0 -0.19614648060E+03 -0.72339412580E+02 -0.20551610650E+02  0.21006856301E+03  0.00000000000E+00 0.  1.
         21    1    1    2  502  501 -0.49873096028E-05 -0.28211996222E-05  0.36433929330E-05  0.67901941391E-05  0.00000000000E+00 0. -1.
<mgrwt>
<rscale>  1 0.65455100E+03</rscale>
<asrwt>0</asrwt>
<pdfrwt beam="1">  1        1 0.38948904E+00 0.65455100E+03</pdfrwt>
<pdfrwt beam="2">0</pdfrwt>
<totfact> 0.14885641E+00</totfact>
</mgrwt>
</event>
<event>
 6    1  0.1529677E-003  0.6487525E+03  0.7818608E-02  0.9809123E-01
          1   -1    0    0  502    0  0.00000000000E+00  0.00000000000E+00  0.10522294244E+03  0.10522294244E+03  0.00000000000E+00 0.  1.
         13   -1    0    0    0    0 -0.00000000000E+00 -0.00000000000E+00 -0.10000000000E+04  0.10000000000E+04  0.00000000000E+00 0.  1.
    9000005    2    1    2  501    0  0.74072771610E-02 -0.52807885760E-02 -0.89476697452E+03  0.11052093622E+04  0.64875249178E+03 0.  0.
         13    1    3    3    0    0 -0.25241916400E+03 -0.75489119610E+02 -0.12502571201E+03  0.29162556506E+03  0.00000000000E+00 0.  1.
          3    1    3    3  501    0  0.25242657127E+03  0.75483838821E+02 -0.76974126251E+03  0.81358379717E+03  0.00000000000E+00 0.  1.
         21    1    1    2  502  501 -0.74072771610E-02  0.52807885760E-02 -0.10083038431E-01  0.13580211594E-01  0.00000000000E+00 0. -1.
<mgrwt>
<rscale>  1 0.64875249E+03</rscale>
<asrwt>0</asrwt>
<pdfrwt beam="1">  1        1 0.38262969E+00 0.64875249E+03</pdfrwt>
<pdfrwt beam="2">0</pdfrwt>
<totfact> 0.15980498E+00</totfact>
</mgrwt>
</event>
<event>
 6    1  0.1529677E-003  0.6449044E+03  0.7818608E-02  0.9816388E-01
          1   -1    0    0  502    0  0.00000000000E+00  0.00000000000E+00  0.10397886661E+03  0.10397886661E+03  0.00000000000E+00 0.  1.
         13   -1    0    0    0    0 -0.00000000000E+00 -0.00000000000E+00 -0.10000000000E+04  0.10000000000E+04  0.00000000000E+00 0.  1.
    9000005    2    1    2  501    0 -0.50418074390E-02 -0.70728701422E-03 -0.89602238170E+03  0.11039736246E+04  0.64490437691E+03 0.  0.
         13    1    3    3    0    0  0.10592526025E+03 -0.30443582903E+03 -0.46271245123E+03  0.56391856440E+03  0.00000000000E+00 0.  1.
          1    1    3    3  501    0 -0.10593030205E+03  0.30443512174E+03 -0.43330993047E+03  0.54005506024E+03  0.00000000000E+00 0.  1.
         21    1    1    2  502  501  0.50418074390E-02  0.70728701423E-03  0.12483114135E-02  0.52419804042E-02  0.00000000000E+00 0.  1.
<mgrwt>
<rscale>  1 0.64490438E+03</rscale>
<asrwt>0</asrwt>
<pdfrwt beam="1">  1        1 0.37810577E+00 0.64490438E+03</pdfrwt>
<pdfrwt beam="2">0</pdfrwt>
<totfact> 0.16744103E+00</totfact>
</mgrwt>
</event>
<event>
 6    1  0.1529677E-003  0.6574142E+03  0.7818608E-02  0.9792966E-01
          1   -1    0    0  502    0  0.00000000000E+00  0.00000000000E+00  0.11092130678E+03  0.11092130678E+03  0.00000000000E+00 0.  1.
         13   -1    0    0    0    0 -0.00000000000E+00 -0.00000000000E+00 -0.10000000000E+04  0.10000000000E+04  0.00000000000E+00 0.  1.
    9000005    2    1    2  501    0  0.35910348840E-01 -0.63985079809E-01 -0.89195112282E+03  0.11080479402E+04  0.65741419737E+03 0.  0.
         13    1    3    3    0    0 -0.24614678802E+03  0.19943640302E+03 -0.29838176096E+03  0.43519512333E+03  0.00000000000E+00 0.  1.
          1    1    3    3  501    0  0.24618269837E+03 -0.19950038810E+03 -0.59356936187E+03  0.67285281687E+03  0.00000000000E+00 0.  1.
         21    1    1    2  502  501 -0.35910348840E-01  0.63985079809E-01  0.28724296070E+01  0.28733665778E+01  0.00000000000E+00 0. -1.
<mgrwt>
<rscale>  1 0.65741420E+03</rscale>
<asrwt>0</asrwt>
<pdfrwt beam="1">  1        1 0.40335106E+00 0.65741420E+03</pdfrwt>
<pdfrwt beam="2">0</pdfrwt>
<totfact> 0.12907759E+00</totfact>
</mgrwt>
</event>
<event>
 6    1  0.1529677E-003  0.6472586E+03  0.7818608E-02  0.9811937E-01
          1   -1    0    0  502    0  0.00000000000E+00  0.00000000000E+00  0.10477053292E+03  0.10477053292E+03  0.00000000000E+00 0.  1.
         13   -1    0    0    0    0 -0.00000000000E+00 -0.00000000000E+00 -0.10000000000E+04  0.10000000000E+04  0.00000000000E+00 0.  1.
    9000005    2    1    2  501    0  0.93035902644E-02 -0.44000306075E-01 -0.89524717178E+03  0.11047222003E+04  0.64725855674E+03 0.  0.
         13    1    3    3    0    0  0.12995067374E+03  0.20242692646E+03 -0.78122239904E+02  0.25291682927E+03  0.00000000000E+00 0.  1.
          1    1    3    3  501    0 -0.12994137015E+03 -0.20247092676E+03 -0.81712493188E+03  0.85180537105E+03  0.00000000000E+00 0.  1.
         21    1    1    2  502  501 -0.93035902643E-02  0.44000306075E-01  0.17704699908E-01  0.48332598992E-01  0.00000000000E+00 0.  1.
<mgrwt>
<rscale>  1 0.64725856E+03</rscale>
<asrwt>0</asrwt>
<pdfrwt beam="1">  1        1 0.38098456E+00 0.64725856E+03</pdfrwt>
<pdfrwt beam="2">0</pdfrwt>
<totfact> 0.16254549E+00</totfact>
</mgrwt>
</event>
<event>
 6    1  0.1529677E-003  0.6486562E+03  0.7818608E-02  0.9809304E-01
          1   -1    0    0  502    0  0.00000000000E+00  0.00000000000E+00  0.10519010258E+03  0.10519010258E+03  0.00000000000E+00 0.  1.
         13   -1    0    0    0    0 -0.00000000000E+00 -0.00000000000E+00 -0.10000000000E+04  0.10000000000E+04  0.00000000000E+00 0.  1.
    9000005    2    1    2  501    0  0.85061860685E-03  0.34742056163E-02 -0.89480791320E+03  0.11051860122E+04  0.64865624189E+03 0.  0.
         13    1    3    3    0    0  0.16624739775E+03 -0.26963991712E+03 -0.32881850999E+03  0.45658021713E+03  0.00000000000E+00 0.  1.
          3    1    3    3  501    0 -0.16624654713E+03  0.26964339132E+03 -0.56598940320E+03  0.64860579511E+03  0.00000000000E+00 0.  1.
         21    1    1    2  502  501 -0.85061860685E-03 -0.34742056163E-02 -0.19842232319E-02  0.40903298782E-02  0.00000000000E+00 0. -1.
<mgrwt>
<rscale>  1 0.64865624E+03</rscale>
<asrwt>0</asrwt>
<pdfrwt beam="1">  1        1 0.38251027E+00 0.64865624E+03</pdfrwt>
<pdfrwt beam="2">0</pdfrwt>
<totfact> 0.16000206E+00</totfact>
</mgrwt>
</event>
<event>
 6    1  0.1529677E-003  0.6537365E+03  0.7818608E-02  0.9799793E-01
          1   -1    0    0  502    0  0.00000000000E+00  0.00000000000E+00  0.10693007954E+03  0.10693007954E+03  0.00000000000E+00 0.  1.
         13   -1    0    0    0    0 -0.00000000000E+00 -0.00000000000E+00 -0.10000000000E+04  0.10000000000E+04  0.00000000000E+00 0.  1.
    9000005    2    1    2  501    0 -0.39547170815E-01 -0.23982376531E-01 -0.89315032192E+03  0.11068373243E+04  0.65373646285E+03 0.  0.
         13    1    3    3    0    0 -0.83832885745E+02  0.13973610742E+03 -0.92631761569E+03  0.94054157675E+03  0.00000000000E+00 0.  1.
          3    1    3    3  501    0  0.83793338574E+02 -0.13976008980E+03  0.33167293774E+02  0.16629574759E+03  0.00000000000E+00 0.  1.
         21    1    1    2  502  501  0.39547170815E-01  0.23982376531E-01  0.80401462142E-01  0.92755205882E-01  0.00000000000E+00 0. -1.
<mgrwt>
<rscale>  1 0.65373646E+03</rscale>
<asrwt>0</asrwt>
<pdfrwt beam="1">  1        1 0.38883747E+00 0.65373646E+03</pdfrwt>
<pdfrwt beam="2">0</pdfrwt>
<totfact> 0.14987229E+00</totfact>
</mgrwt>
</event>
<event>
 6    1  0.1529677E-003  0.6441722E+03  0.7818608E-02  0.9817777E-01
          1   -1    0    0  502    0  0.00000000000E+00  0.00000000000E+00  0.10374487392E+03  0.10374487392E+03  0.00000000000E+00 0.  1.
         13   -1    0    0    0    0 -0.00000000000E+00 -0.00000000000E+00 -0.10000000000E+04  0.10000000000E+04  0.00000000000E+00 0.  1.
    9000005    2    1    2  501    0  0.15040415239E-02 -0.46591337048E-03 -0.89626043409E+03  0.11037393373E+04  0.64417215012E+03 0.  0.
         13    1    3    3    0    0  0.13291718187E+03 -0.27149943677E+03 -0.25763369762E+03  0.39718263249E+03  0.00000000000E+00 0.  1.
          1    1    3    3  501    0 -0.13291567782E+03  0.27149897086E+03 -0.63862673646E+03  0.70655670481E+03  0.00000000000E+00 0.  1.
         21    1    1    2  502  501 -0.15040415239E-02  0.46591337046E-03  0.53080023191E-02  0.55366149219E-02  0.00000000000E+00 0. -1.
<mgrwt>
<rscale>  1 0.64417215E+03</rscale>
<asrwt>0</asrwt>
<pdfrwt beam="1">  1        1 0.37725488E+00 0.64417215E+03</pdfrwt>
<pdfrwt beam="2">0</pdfrwt>
<totfact> 0.16891582E+00</totfact>
</mgrwt>
</event>
<event>
 6    1  0.1529677E-003  0.6581871E+03  0.7818608E-02  0.9791537E-01
          1   -1    0    0  502    0  0.00000000000E+00  0.00000000000E+00  0.10830270996E+03  0.10830270996E+03  0.00000000000E+00 0.  1.
         13   -1    0    0    0    0 -0.00000000000E+00 -0.00000000000E+00 -0.10000000000E+04  0.10000000000E+04  0.00000000000E+00 0.  1.
    9000005    2    1    2  501    0 -0.36877606419E-03 -0.54107092851E-05 -0.89169710096E+03  0.11083022955E+04  0.65818709981E+03 0.  0.
         13    1    3    3    0    0  0.13280824909E+03  0.17655481965E+02  0.60301967223E+02  0.14692200081E+03  0.00000000000E+00 0.  1.
          1    1    3    3  501    0 -0.13280861787E+03 -0.17655487376E+02 -0.95199906818E+03  0.96138029470E+03  0.00000000000E+00 0.  1.
         21    1    1    2  502  501  0.36877606419E-03  0.54107092861E-05 -0.18908281106E-03  0.41446033674E-03  0.00000000000E+00 0.  1.
<mgrwt>
<rscale>  1 0.65818710E+03</rscale>
<asrwt>0</asrwt>
<pdfrwt beam="1">  1        1 0.39382887E+00 0.65818710E+03</pdfrwt>
<pdfrwt beam="2">0</pdfrwt>
<totfact> 0.14230197E+00</totfact>
</mgrwt>
</event>
<event>
 6    1  0.1529677E-003  0.6377581E+03  0.7818608E-02  0.9830025E-01
          1   -1    0    0  502    0  0.00000000000E+00  0.00000000000E+00  0.10241696809E+03  0.10241696809E+03  0.00000000000E+00 0.  1.
         13   -1    0    0    0    0 -0.00000000000E+00 -0.00000000000E+00 -0.10000000000E+04  0.10000000000E+04  0.00000000000E+00 0.  1.
    9000005    2    1    2  501    0 -0.98992515263E-01  0.68453936137E-01 -0.89831070053E+03  0.11016794133E+04  0.63775810499E+03 0.  0.
         13    1    3    3    0    0 -0.97932856048E+02 -0.20377955225E+03 -0.60714727947E+02  0.23410089363E+03  0.00000000000E+00 0.  1.
          3    1    3    3  501    0  0.97833863533E+02  0.20384800619E+03 -0.83759597259E+03  0.86757851966E+03  0.00000000000E+00 0.  1.
         21    1    1    2  502  501  0.98992515263E-01 -0.68453936137E-01  0.72766861946E+00  0.73755479742E+00  0.00000000000E+00 0.  1.
<mgrwt>
<rscale>  1 0.63775812E+03</rscale>
<asrwt>0</asrwt>
<pdfrwt beam="1">  1        1 0.37242612E+00 0.63775812E+03</pdfrwt>
<pdfrwt beam="2">0</pdfrwt>
<totfact> 0.17759615E+00</totfact>
</mgrwt>
</event>
<event>
 6    1  0.1529677E-003  0.6437349E+03  0.7818608E-02  0.9818607E-01
          1   -1    0    0  502    0  0.00000000000E+00  0.00000000000E+00  0.10359893721E+03  0.10359893721E+03  0.00000000000E+00 0.  1.
         13   -1    0    0    0    0 -0.00000000000E+00 -0.00000000000E+00 -0.10000000000E+04  0.10000000000E+04  0.00000000000E+00 0.  1.
    9000005    2    1    2  501    0 -0.43805321326E-05  0.34765685825E-04 -0.89640133553E+03  0.11035986622E+04  0.64373492442E+03 0.  0.
         13    1    3    3    0    0 -0.93346618836E+02  0.29472024216E+03 -0.29462294865E+03  0.42705537610E+03  0.00000000000E+00 0.  1.
          1    1    3    3  501    0  0.93346614455E+02 -0.29472020740E+03 -0.60177838688E+03  0.67654328612E+03  0.00000000000E+00 0.  1.
         21    1    1    2  502  501  0.43805321350E-05 -0.34765685830E-04  0.27274398282E-03  0.27498567624E-03  0.00000000000E+00 0.  1.
<mgrwt>
<rscale>  1 0.64373492E+03</rscale>
<asrwt>0</asrwt>
<pdfrwt beam="1">  1        1 0.37672420E+00 0.64373492E+03</pdfrwt>
<pdfrwt beam="2">0</pdfrwt>
<totfact> 0.16984128E+00</totfact>
</mgrwt>
</event>
<event>
 6    1  0.1529677E-003  0.6515373E+03  0.7818608E-02  0.9803899E-01
          1   -1    0    0  502    0  0.00000000000E+00  0.00000000000E+00  0.10701210446E+03  0.10701210446E+03  0.00000000000E+00 0.  1.
         13   -1    0    0    0    0 -0.00000000000E+00 -0.00000000000E+00 -0.10000000000E+04  0.10000000000E+04  0.00000000000E+00 0.  1.
    9000005    2    1    2  501    0 -0.12304091613E+00 -0.17104345503E+00 -0.89386091460E+03  0.11061140192E+04  0.65153729311E+03 0.  0.
         13    1    3    3    0    0 -0.76053261881E+02 -0.30189786658E+03 -0.28369309618E+03  0.42119852007E+03  0.00000000000E+00 0.  1.
          3    1    3    3  501    0  0.75930220965E+02  0.30172682312E+03 -0.61016781842E+03  0.68491549908E+03  0.00000000000E+00 0.  1.
         21    1    1    2  502  501  0.12304091613E+00  0.17104345503E+00  0.87301906471E+00  0.89808530658E+00  0.00000000000E+00 0. -1.
<mgrwt>
<rscale>  1 0.65153733E+03</rscale>
<asrwt>0</asrwt>
<pdfrwt beam="1">  1        1 0.38913575E+00 0.65153733E+03</pdfrwt>
<pdfrwt beam="2">0</pdfrwt>
<totfact> 0.14947775E+00</totfact>
</mgrwt>
</event>
<event>
 6    1  0.1529677E-003  0.6605102E+03  0.7818608E-02  0.9787255E-01
          1   -1    0    0  502    0  0.00000000000E+00  0.00000000000E+00  0.10911225737E+03  0.10911225737E+03  0.00000000000E+00 0.  1.
         13   -1    0    0    0    0 -0.00000000000E+00 -0.00000000000E+00 -0.10000000000E+04  0.10000000000E+04  0.00000000000E+00 0.  1.
    9000005    2    1    2  501    0  0.36654517404E-03 -0.52741930937E-01 -0.89091320459E+03  0.11090536898E+04  0.66051021644E+03 0.  0.
         13    1    3    3    0    0 -0.41206507404E+02 -0.32002454887E+03 -0.56388284145E+03  0.64967495489E+03  0.00000000000E+00 0.  1.
          1    1    3    3  501    0  0.41206873950E+02  0.31997180694E+03 -0.32703036313E+03  0.45937873493E+03  0.00000000000E+00 0.  1.
         21    1    1    2  502  501 -0.36654517404E-03  0.52741930937E-01  0.25461954456E-01  0.58567540148E-01  0.00000000000E+00 0.  1.
<mgrwt>
<rscale>  1 0.66051022E+03</rscale>
<asrwt>0</asrwt>
<pdfrwt beam="1">  1        1 0.39677268E+00 0.66051022E+03</pdfrwt>
<pdfrwt beam="2">0</pdfrwt>
<totfact> 0.13801623E+00</totfact>
</mgrwt>
</event>
<event>
 6    1  0.1529677E-003  0.6587514E+03  0.7818608E-02  0.9790495E-01
          1   -1    0    0  502    0  0.00000000000E+00  0.00000000000E+00  0.10848851857E+03  0.10848851857E+03  0.00000000000E+00 0.  1.
         13   -1    0    0    0    0 -0.00000000000E+00 -0.00000000000E+00 -0.10000000000E+04  0.10000000000E+04  0.00000000000E+00 0.  1.
    9000005    2    1    2  501    0 -0.69322049789E-05 -0.31325483643E-04 -0.89151164264E+03  0.11084883542E+04  0.65875141171E+03 0.  0.
         13    1    3    3    0    0 -0.22450808676E+02 -0.19007078782E+02  0.10627359320E+03  0.11026959901E+03  0.00000000000E+00 0.  1.
          3    1    3    3  501    0  0.22450801744E+02  0.19007047456E+02 -0.99778523584E+03  0.99821875519E+03  0.00000000000E+00 0.  1.
         21    1    1    2  502  501  0.69322049778E-05  0.31325483645E-04  0.16121041547E-03  0.16437195457E-03  0.00000000000E+00 0.  1.
<mgrwt>
<rscale>  1 0.65875141E+03</rscale>
<asrwt>0</asrwt>
<pdfrwt beam="1">  1        1 0.39450454E+00 0.65875141E+03</pdfrwt>
<pdfrwt beam="2">0</pdfrwt>
<totfact> 0.14130648E+00</totfact>
</mgrwt>
</event>
<event>
 6    1  0.1529677E-003  0.6438149E+03  0.7818608E-02  0.9818455E-01
          1   -1    0    0  502    0  0.00000000000E+00  0.00000000000E+00  0.10377255591E+03  0.10377255591E+03  0.00000000000E+00 0.  1.
         13   -1    0    0    0    0 -0.00000000000E+00 -0.00000000000E+00 -0.10000000000E+04  0.10000000000E+04  0.00000000000E+00 0.  1.
    9000005    2    1    2  501    0 -0.84648419572E-03 -0.85450048861E-02 -0.89637547152E+03  0.11036242796E+04  0.64381485273E+03 0.  0.
         13    1    3    3    0    0  0.38283975114E+02  0.19384545858E+02  0.98699424600E+02  0.10762434569E+03  0.00000000000E+00 0.  1.
          1    1    3    3  501    0 -0.38284821598E+02 -0.19393090863E+02 -0.99507489612E+03  0.99599993395E+03  0.00000000000E+00 0.  1.
         21    1    1    2  502  501  0.84648419572E-03  0.85450048861E-02  0.14802742836E+00  0.14827627319E+00  0.00000000000E+00 0. -1.
<mgrwt>
<rscale>  1 0.64381485E+03</rscale>
<asrwt>0</asrwt>
<pdfrwt beam="1">  1        1 0.37735554E+00 0.64381485E+03</pdfrwt>
<pdfrwt beam="2">0</pdfrwt>
<totfact> 0.16875444E+00</totfact>
</mgrwt>
</event>
<event>
 6    1  0.1529677E-003  0.6542313E+03  0.7818608E-02  0.9798872E-01
          1   -1    0    0  502    0  0.00000000000E+00  0.00000000000E+00  0.10700482598E+03  0.10700482598E+03  0.00000000000E+00 0.  1.
         13   -1    0    0    0    0 -0.00000000000E+00 -0.00000000000E+00 -0.10000000000E+04  0.10000000000E+04  0.00000000000E+00 0.  1.
    9000005    2    1    2  501    0 -0.11661001071E-03 -0.79794262824E-04 -0.89299530906E+03  0.11070046305E+04  0.65423132759E+03 0.  0.
         13    1    3    3    0    0 -0.89200032151E+02  0.47125404366E+02 -0.97302003024E+03  0.97823587581E+03  0.00000000000E+00 0.  1.
          1    1    3    3  501    0  0.89199915541E+02 -0.47125484160E+02  0.80024721180E+02  0.12876875471E+03  0.00000000000E+00 0.  1.
         21    1    1    2  502  501  0.11661001071E-03  0.79794262825E-04  0.13503977971E-03  0.19545014986E-03  0.00000000000E+00 0. -1.
<mgrwt>
<rscale>  1 0.65423133E+03</rscale>
<asrwt>0</asrwt>
<pdfrwt beam="1">  1        1 0.38910928E+00 0.65423133E+03</pdfrwt>
<pdfrwt beam="2">0</pdfrwt>
<totfact> 0.14944341E+00</totfact>
</mgrwt>
</event>
<event>
 6    1  0.1529677E-003  0.6531697E+03  0.7818608E-02  0.9800850E-01
          1   -1    0    0  502    0  0.00000000000E+00  0.00000000000E+00  0.10666016962E+03  0.10666016962E+03  0.00000000000E+00 0.  1.
         13   -1    0    0    0    0 -0.00000000000E+00 -0.00000000000E+00 -0.10000000000E+04  0.10000000000E+04  0.00000000000E+00 0.  1.
    9000005    2    1    2  501    0  0.12982976828E-02 -0.49295869543E-02 -0.89333905865E+03  0.11066550138E+04  0.65316969153E+03 0.  0.
         13    1    3    3    0    0 -0.17875933557E+03  0.11717116835E+03 -0.86503206551E+03  0.89104683216E+03  0.00000000000E+00 0.  1.
          3    1    3    3  501    0  0.17876063387E+03 -0.11717609794E+03 -0.28306993144E+02  0.21560818168E+03  0.00000000000E+00 0.  1.
         21    1    1    2  502  501 -0.12982976828E-02  0.49295869543E-02 -0.77173250600E-03  0.51557710843E-02  0.00000000000E+00 0.  1.
<mgrwt>
<rscale>  1 0.65316969E+03</rscale>
<asrwt>0</asrwt>
<pdfrwt beam="1">  1        1 0.38785598E+00 0.65316969E+03</pdfrwt>
<pdfrwt beam="2">0</pdfrwt>
<totfact> 0.15139650E+00</totfact>
</mgrwt>
</event>
<event>
 6    1  0.1529677E-003  0.6136035E+03  0.7818608E-02  0.9877578E-01
          1   -1    0    0  502    0  0.00000000000E+00  0.00000000000E+00  0.94127551350E+02  0.94127551350E+02  0.00000000000E+00 0.  1.
         13   -1    0    0    0    0 -0.00000000000E+00 -0.00000000000E+00 -0.10000000000E+04  0.10000000000E+04  0.00000000000E+00 0.  1.
    9000005    2    1    2  501    0 -0.27036766122E-03 -0.17531272469E-03 -0.90587254280E+03  0.10941272156E+04  0.61360353668E+03 0.  0.
         13    1    3    3    0    0  0.17973616009E+03  0.37964082145E+02 -0.89109318198E+03  0.90983153262E+03  0.00000000000E+00 0.  1.
          3    1    3    3  501    0 -0.17973643046E+03 -0.37964257458E+02 -0.14779360817E+02  0.18429568303E+03  0.00000000000E+00 0.  1.
         21    1    1    2  502  501  0.27036766122E-03  0.17531272469E-03  0.94145128901E-04  0.33570303687E-03  0.00000000000E+00 0. -1.
<mgrwt>
<rscale>  1 0.61360354E+03</rscale>
<asrwt>0</asrwt>
<pdfrwt beam="1">  1        1 0.34228273E+00 0.61360354E+03</pdfrwt>
<pdfrwt beam="2">0</pdfrwt>
<totfact> 0.24156878E+00</totfact>
</mgrwt>
</event>
<event>
 6    1  0.1529677E-003  0.6427347E+03  0.7818608E-02  0.9820508E-01
          1   -1    0    0  502    0  0.00000000000E+00  0.00000000000E+00  0.10332162477E+03  0.10332162477E+03  0.00000000000E+00 0.  1.
         13   -1    0    0    0    0 -0.00000000000E+00 -0.00000000000E+00 -0.10000000000E+04  0.10000000000E+04  0.00000000000E+00 0.  1.
    9000005    2    1    2  501    0  0.48901600992E-01  0.45250182380E-01 -0.89627525495E+03  0.11029130358E+04  0.64273464786E+03 0.  0.
         13    1    3    3    0    0 -0.29265966950E+03  0.91952987089E+02 -0.28386790575E+03  0.41795456918E+03  0.00000000000E+00 0.  1.
          3    1    3    3  501    0  0.29270857110E+03 -0.91907736907E+02 -0.61240734920E+03  0.68495846666E+03  0.00000000000E+00 0.  1.
         21    1    1    2  502  501 -0.48901600992E-01 -0.45250182380E-01 -0.40312028454E+00  0.40858892470E+00  0.00000000000E+00 0.  1.
<mgrwt>
<rscale>  1 0.64273465E+03</rscale>
<asrwt>0</asrwt>
<pdfrwt beam="1">  1        1 0.37571579E+00 0.64273465E+03</pdfrwt>
<pdfrwt beam="2">0</pdfrwt>
<totfact> 0.17161851E+00</totfact>
</mgrwt>
</event>
<event>
 6    1  0.1529677E-003  0.6523075E+03  0.7818608E-02  0.9802459E-01
          1   -1    0    0  502    0  0.00000000000E+00  0.00000000000E+00  0.11314630315E+03  0.11314630315E+03  0.00000000000E+00 0.  1.
         13   -1    0    0    0    0 -0.00000000000E+00 -0.00000000000E+00 -0.10000000000E+04  0.10000000000E+04  0.00000000000E+00 0.  1.
    9000005    2    1    2  501    0  0.25229858500E+01 -0.52269413981E+00 -0.89335144675E+03  0.11061563518E+04  0.65230240569E+03 0.  0.
         13    1    3    3    0    0  0.31078475184E+03  0.97453074393E+02 -0.39396752698E+03  0.51116990913E+03  0.00000000000E+00 0.  1.
          1    1    3    3  501    0 -0.30826176599E+03 -0.97975768533E+02 -0.49938391977E+03  0.59498644263E+03  0.00000000000E+00 0.  1.
         21    1    1    2  502  501 -0.25229858500E+01  0.52269413981E+00  0.64977498966E+01  0.69899513934E+01  0.00000000000E+00 0. -1.
<mgrwt>
<rscale>  1 0.65230749E+03</rscale>
<asrwt>0</asrwt>
<pdfrwt beam="1">  1        1 0.41144197E+00 0.65230749E+03</pdfrwt>
<pdfrwt beam="2">0</pdfrwt>
<totfact> 0.11886567E+00</totfact>
</mgrwt>
</event>
<event>
 6    1  0.1529677E-003  0.6491276E+03  0.7818608E-02  0.9808417E-01
          1   -1    0    0  502    0  0.00000000000E+00  0.00000000000E+00  0.10545012095E+03  0.10545012095E+03  0.00000000000E+00 0.  1.
         13   -1    0    0    0    0 -0.00000000000E+00 -0.00000000000E+00 -0.10000000000E+04  0.10000000000E+04  0.00000000000E+00 0.  1.
    9000005    2    1    2  501    0  0.34270848110E-03  0.29258680731E-02 -0.89465830657E+03  0.11053416534E+04  0.64912763401E+03 0.  0.
         13    1    3    3    0    0 -0.16053043039E+03  0.20558877126E+03 -0.77622178673E+03  0.81887546314E+03  0.00000000000E+00 0.  1.
          3    1    3    3  501    0  0.16053077309E+03 -0.20558584539E+03 -0.11843651985E+03  0.28646619027E+03  0.00000000000E+00 0.  1.
         21    1    1    2  502  501 -0.34270848110E-03 -0.29258680731E-02  0.10842752288E+00  0.10846753372E+00  0.00000000000E+00 0. -1.
<mgrwt>
<rscale>  1 0.64912763E+03</rscale>
<asrwt>0</asrwt>
<pdfrwt beam="1">  1        1 0.38345579E+00 0.64912763E+03</pdfrwt>
<pdfrwt beam="2">0</pdfrwt>
<totfact> 0.15845641E+00</totfact>
</mgrwt>
</event>
<event>
 6    1  0.1529677E-003  0.6108863E+03  0.7818608E-02  0.9883074E-01
          1   -1    0    0  502    0  0.00000000000E+00  0.00000000000E+00  0.93295642927E+02  0.93295642927E+02  0.00000000000E+00 0.  1.
         13   -1    0    0    0    0 -0.00000000000E+00 -0.00000000000E+00 -0.10000000000E+04  0.10000000000E+04  0.00000000000E+00 0.  1.
    9000005    2    1    2  501    0 -0.38193304874E-05 -0.30384120748E-04 -0.90670447318E+03  0.10932955228E+04  0.61088632215E+03 0.  0.
         13    1    3    3    0    0  0.75611441001E+02 -0.67926322293E+02  0.62141255584E+02  0.11913274494E+03  0.00000000000E+00 0.  1.
          3    1    3    3  501    0 -0.75611444820E+02  0.67926291909E+02 -0.96884572877E+03  0.97416277791E+03  0.00000000000E+00 0.  1.
         21    1    1    2  502  501  0.38193304897E-05  0.30384120744E-04  0.11610933635E-03  0.12007980707E-03  0.00000000000E+00 0. -1.
<mgrwt>
<rscale>  1 0.61088632E+03</rscale>
<asrwt>0</asrwt>
<pdfrwt beam="1">  1        1 0.33925760E+00 0.61088632E+03</pdfrwt>
<pdfrwt beam="2">0</pdfrwt>
<totfact> 0.24911065E+00</totfact>
</mgrwt>
</event>
<event>
 6    1  0.1529677E-003  0.6571316E+03  0.7818608E-02  0.9793489E-01
          1   -1    0    0  502    0  0.00000000000E+00  0.00000000000E+00  0.10970161257E+03  0.10970161257E+03  0.00000000000E+00 0.  1.
         13   -1    0    0    0    0 -0.00000000000E+00 -0.00000000000E+00 -0.10000000000E+04  0.10000000000E+04  0.00000000000E+00 0.  1.
    9000005    2    1    2  501    0 -0.27829805745E-01 -0.16373721014E-01 -0.89204436594E+03  0.11079553355E+04  0.65713154972E+03 0.  0.
         13    1    3    3    0    0 -0.28475446746E+02  0.28311214953E+03 -0.72300008812E+03  0.77697649109E+03  0.00000000000E+00 0.  1.
          3    1    3    3  501    0  0.28447616940E+02 -0.28312852326E+03 -0.16904427782E+03  0.33097884442E+03  0.00000000000E+00 0.  1.
         21    1    1    2  502  501  0.27829805745E-01  0.16373721014E-01  0.17459785164E+01  0.17462770618E+01  0.00000000000E+00 0. -1.
<mgrwt>
<rscale>  1 0.65713155E+03</rscale>
<asrwt>0</asrwt>
<pdfrwt beam="1">  1        1 0.39891580E+00 0.65713155E+03</pdfrwt>
<pdfrwt beam="2">0</pdfrwt>
<totfact> 0.13510164E+00</totfact>
</mgrwt>
</event>
<event>
 6    1  0.1529677E-003  0.6486720E+03  0.7818608E-02  0.9809274E-01
          1   -1    0    0  502    0  0.00000000000E+00  0.00000000000E+00  0.10519497271E+03  0.10519497271E+03  0.00000000000E+00 0.  1.
         13   -1    0    0    0    0 -0.00000000000E+00 -0.00000000000E+00 -0.10000000000E+04  0.10000000000E+04  0.00000000000E+00 0.  1.
    9000005    2    1    2  501    0 -0.53557621746E-03 -0.21697485962E-02 -0.89480480229E+03  0.11051927265E+04  0.64867197302E+03 0.  0.
         13    1    3    3    0    0  0.13201300222E+03  0.64179760814E+02  0.45361455980E+02  0.15363637636E+03  0.00000000000E+00 0.  1.
          3    1    3    3  501    0 -0.13201353779E+03 -0.64181930562E+02 -0.94016625827E+03  0.95155635018E+03  0.00000000000E+00 0.  1.
         21    1    1    2  502  501  0.53557621746E-03  0.21697485962E-02 -0.22500094260E-03  0.22461692456E-02  0.00000000000E+00 0. -1.
<mgrwt>
<rscale>  1 0.64867197E+03</rscale>
<asrwt>0</asrwt>
<pdfrwt beam="1">  1        1 0.38252798E+00 0.64867197E+03</pdfrwt>
<pdfrwt beam="2">0</pdfrwt>
<totfact> 0.15997278E+00</totfact>
</mgrwt>
</event>
<event>
 6    1  0.1529677E-003  0.6460159E+03  0.7818608E-02  0.9814284E-01
          1   -1    0    0  502    0  0.00000000000E+00  0.00000000000E+00  0.10449018100E+03  0.10449018100E+03  0.00000000000E+00 0.  1.
         13   -1    0    0    0    0 -0.00000000000E+00 -0.00000000000E+00 -0.10000000000E+04  0.10000000000E+04  0.00000000000E+00 0.  1.
    9000005    2    1    2  501    0 -0.17557124568E+00  0.14853386292E+00 -0.89556626124E+03  0.11042533830E+04  0.64601590746E+03 0.  0.
         13    1    3    3    0    0 -0.20373812034E+01  0.31109774428E+03 -0.59684720637E+03  0.67306206636E+03  0.00000000000E+00 0.  1.
          3    1    3    3  501    0  0.18618099577E+01 -0.31094921042E+03 -0.29871905487E+03  0.43119131663E+03  0.00000000000E+00 0.  1.
         21    1    1    2  502  501  0.17557124568E+00 -0.14853386292E+00  0.56442237016E-01  0.23679800857E+00  0.00000000000E+00 0.  1.
<mgrwt>
<rscale>  1 0.64601595E+03</rscale>
<asrwt>0</asrwt>
<pdfrwt beam="1">  1        1 0.37996510E+00 0.64601595E+03</pdfrwt>
<pdfrwt beam="2">0</pdfrwt>
<totfact> 0.16427569E+00</totfact>
</mgrwt>
</event>
<event>
 6    1  0.1529677E-003  0.6460103E+03  0.7818608E-02  0.9814294E-01
          1   -1    0    0  502    0  0.00000000000E+00  0.00000000000E+00  0.10433238075E+03  0.10433238075E+03  0.00000000000E+00 0.  1.
         13   -1    0    0    0    0 -0.00000000000E+00 -0.00000000000E+00 -0.10000000000E+04  0.10000000000E+04  0.00000000000E+00 0.  1.
    9000005    2    1    2  501    0 -0.12515097353E-04  0.77085153407E-05 -0.89566765734E+03  0.11043323399E+04  0.64601034404E+03 0.  0.
         13    1    3    3    0    0 -0.27382826055E+03  0.13041363692E+03 -0.25791605737E+03  0.39813355249E+03  0.00000000000E+00 0.  1.
          1    1    3    3  501    0  0.27382824804E+03 -0.13041362921E+03 -0.63775159997E+03  0.70619878743E+03  0.00000000000E+00 0.  1.
         21    1    1    2  502  501  0.12515097348E-04 -0.77085153476E-05  0.38083538277E-04  0.40821621209E-04  0.00000000000E+00 0.  1.
<mgrwt>
<rscale>  1 0.64601034E+03</rscale>
<asrwt>0</asrwt>
<pdfrwt beam="1">  1        1 0.37939128E+00 0.64601034E+03</pdfrwt>
<pdfrwt beam="2">0</pdfrwt>
<totfact> 0.16523619E+00</totfact>
</mgrwt>
</event>
<event>
 6    1  0.1529677E-003  0.6345592E+03  0.7818608E-02  0.9836192E-01
          1   -1    0    0  502    0  0.00000000000E+00  0.00000000000E+00  0.10066634971E+03  0.10066634971E+03  0.00000000000E+00 0.  1.
         13   -1    0    0    0    0 -0.00000000000E+00 -0.00000000000E+00 -0.10000000000E+04  0.10000000000E+04  0.00000000000E+00 0.  1.
    9000005    2    1    2  501    0  0.30754572151E-05 -0.46759762995E-05 -0.89933365070E+03  0.11006663441E+04  0.63455920587E+03 0.  0.
         13    1    3    3    0    0 -0.22222897821E+03  0.16582267755E+03 -0.18216847116E+03  0.33176532524E+03  0.00000000000E+00 0.  1.
          3    1    3    3  501    0  0.22222898129E+03 -0.16582268222E+03 -0.71716517954E+03  0.76890101886E+03  0.00000000000E+00 0.  1.
         21    1    1    2  502  501 -0.30754572015E-05  0.46759762945E-05  0.40400616396E-06  0.56112754598E-05  0.00000000000E+00 0. -1.
<mgrwt>
<rscale>  1 0.63455921E+03</rscale>
<asrwt>0</asrwt>
<pdfrwt beam="1">  1        1 0.36606023E+00 0.63455921E+03</pdfrwt>
<pdfrwt beam="2">0</pdfrwt>
<totfact> 0.18951105E+00</totfact>
</mgrwt>
</event>
<event>
 6    1  0.1565921E-003  0.6493380E+03  0.7818608E-02  0.9808022E-01
          1   -1    0    0  502    0  0.00000000000E+00  0.00000000000E+00  0.10540996184E+03  0.10540996184E+03  0.00000000000E+00 0.  1.
         13   -1    0    0    0    0 -0.00000000000E+00 -0.00000000000E+00 -0.10000000000E+04  0.10000000000E+04  0.00000000000E+00 0.  1.
    9000005    2    1    2  501    0 -0.16977797287E-04 -0.93305910980E-05 -0.89459003583E+03  0.11054099423E+04  0.64933797701E+03 0.  0.
         13    1    3    3    0    0 -0.18896415853E+03  0.20786299027E+03 -0.72439624044E+03  0.77695842173E+03  0.00000000000E+00 0.  1.
          1    1    3    3  501    0  0.18896414156E+03 -0.20786299960E+03 -0.17019379539E+03  0.32845152060E+03  0.00000000000E+00 0.  1.
         21    1    1    2  502  501  0.16977797309E-04  0.93305910948E-05 -0.23296630488E-05  0.19512377138E-04  0.00000000000E+00 0.  1.
<mgrwt>
<rscale>  1 0.64933798E+03</rscale>
<asrwt>0</asrwt>
<pdfrwt beam="1">  1        1 0.38330976E+00 0.64933798E+03</pdfrwt>
<pdfrwt beam="2">0</pdfrwt>
<totfact> 0.15868592E+00</totfact>
</mgrwt>
</event>
<event>
 6    1  0.1529677E-003  0.6571646E+03  0.7818608E-02  0.9793427E-01
          1   -1    0    0  502    0  0.00000000000E+00  0.00000000000E+00  0.10796689456E+03  0.10796689456E+03  0.00000000000E+00 0.  1.
         13   -1    0    0    0    0 -0.00000000000E+00 -0.00000000000E+00 -0.10000000000E+04  0.10000000000E+04  0.00000000000E+00 0.  1.
    9000005    2    1    2  501    0 -0.10764324600E-04  0.97664787444E-04 -0.89203367555E+03  0.11079663160E+04  0.65716457542E+03 0.  0.
         13    1    3    3    0    0 -0.26562406815E+03  0.58831426795E+01 -0.12007035880E+03  0.29156071068E+03  0.00000000000E+00 0.  1.
          1    1    3    3  501    0  0.26562405739E+03 -0.58830450147E+01 -0.77196331674E+03  0.81640560537E+03  0.00000000000E+00 0.  1.
         21    1    1    2  502  501  0.10764324569E-04 -0.97664787443E-04  0.57010747595E-03  0.57851258891E-03  0.00000000000E+00 0.  1.
<mgrwt>
<rscale>  1 0.65716458E+03</rscale>
<asrwt>0</asrwt>
<pdfrwt beam="1">  1        1 0.39260772E+00 0.65716458E+03</pdfrwt>
<pdfrwt beam="2">0</pdfrwt>
<totfact> 0.14411806E+00</totfact>
</mgrwt>
</event>
<event>
 6    1  0.1529677E-003  0.6484758E+03  0.7818608E-02  0.9809643E-01
          1   -1    0    0  502    0  0.00000000000E+00  0.00000000000E+00  0.10530669254E+03  0.10530669254E+03  0.00000000000E+00 0.  1.
         13   -1    0    0    0    0 -0.00000000000E+00 -0.00000000000E+00 -0.10000000000E+04  0.10000000000E+04  0.00000000000E+00 0.  1.
    9000005    2    1    2  501    0 -0.75263190809E-02 -0.10059008025E-01 -0.89486953270E+03  0.11051300201E+04  0.64847581336E+03 0.  0.
         13    1    3    3    0    0  0.14483589076E+02 -0.10785502899E+03  0.73079233823E+02  0.13108415636E+03  0.00000000000E+00 0.  1.
          1    1    3    3  501    0 -0.14491115396E+02  0.10784496998E+03 -0.96794876653E+03  0.97404586370E+03  0.00000000000E+00 0.  1.
         21    1    1    2  502  501  0.75263190809E-02  0.10059008025E-01  0.17622524146E+00  0.17667247904E+00  0.00000000000E+00 0. -1.
<mgrwt>
<rscale>  1 0.64847581E+03</rscale>
<asrwt>0</asrwt>
<pdfrwt beam="1">  1        1 0.38293423E+00 0.64847581E+03</pdfrwt>
<pdfrwt beam="2">0</pdfrwt>
<totfact> 0.15931874E+00</totfact>
</mgrwt>
</event>
<event>
 6    1  0.1529677E-003  0.6234827E+03  0.7818608E-02  0.9857850E-01
          3   -1    0    0  502    0  0.00000000000E+00  0.00000000000E+00  0.97183048655E+02  0.97183048655E+02  0.00000000000E+00 0.  1.
         13   -1    0    0    0    0 -0.00000000000E+00 -0.00000000000E+00 -0.10000000000E+04  0.10000000000E+04  0.00000000000E+00 0.  1.
    9000005    2    1    2  501    0 -0.22516078769E-03 -0.92577255566E-04 -0.90281729885E+03  0.10971826244E+04  0.62348266702E+03 0.  0.
         13    1    3    3    0    0  0.28149280554E+03 -0.79654362486E+01 -0.21609339414E+03  0.35496197365E+03  0.00000000000E+00 0.  1.
          1    1    3    3  501    0 -0.28149303070E+03  0.79653436714E+01 -0.68672390471E+03  0.74222065071E+03  0.00000000000E+00 0.  1.
         21    1    1    2  502  501  0.22516078770E-03  0.92577255566E-04  0.34750891800E-03  0.42429986644E-03  0.00000000000E+00 0. -1.
<mgrwt>
<rscale>  1 0.62348267E+03</rscale>
<asrwt>0</asrwt>
<pdfrwt beam="1">  1        3 0.35339365E+00 0.62348267E+03</pdfrwt>
<pdfrwt beam="2">0</pdfrwt>
<totfact> 0.10490171E-01</totfact>
</mgrwt>
</event>
<event>
 6    1  0.1529677E-003  0.6524782E+03  0.7818608E-02  0.9802140E-01
          1   -1    0    0  502    0  0.00000000000E+00  0.00000000000E+00  0.11194306450E+03  0.11194306450E+03  0.00000000000E+00 0.  1.
         13   -1    0    0    0    0 -0.00000000000E+00 -0.00000000000E+00 -0.10000000000E+04  0.10000000000E+04  0.00000000000E+00 0.  1.
    9000005    2    1    2  501    0  0.26205405770E+00 -0.90509946512E+00 -0.89352346423E+03  0.11063959199E+04  0.65247748041E+03 0.  0.
         13    1    3    3    0    0 -0.11865359118E+03  0.29167227234E+03 -0.30442029568E+03  0.43797614727E+03  0.00000000000E+00 0.  1.
          1    1    3    3  501    0  0.11891564524E+03 -0.29257737181E+03 -0.58910316855E+03  0.66841977258E+03  0.00000000000E+00 0.  1.
         21    1    1    2  502  501 -0.26205405770E+00  0.90509946512E+00  0.54665287382E+01  0.55471446543E+01  0.00000000000E+00 0.  1.
<mgrwt>
<rscale>  1 0.65247816E+03</rscale>
<asrwt>0</asrwt>
<pdfrwt beam="1">  1        1 0.40706655E+00 0.65247816E+03</pdfrwt>
<pdfrwt beam="2">0</pdfrwt>
<totfact> 0.12435074E+00</totfact>
</mgrwt>
</event>
<event>
 6    1  0.1529677E-003  0.6485029E+03  0.7818608E-02  0.9809593E-01
          1   -1    0    0  502    0  0.00000000000E+00  0.00000000000E+00  0.10514160443E+03  0.10514160443E+03  0.00000000000E+00 0.  1.
         13   -1    0    0    0    0 -0.00000000000E+00 -0.00000000000E+00 -0.10000000000E+04  0.10000000000E+04  0.00000000000E+00 0.  1.
    9000005    2    1    2  501    0  0.15882823840E-02 -0.58849118571E-02 -0.89485625725E+03  0.11051351448E+04  0.64850286586E+03 0.  0.
         13    1    3    3    0    0  0.19129791872E+03 -0.58173516910E+02 -0.88243623933E+03  0.90480537590E+03  0.00000000000E+00 0.  1.
          1    1    3    3  501    0 -0.19129633044E+03  0.58167631998E+02 -0.12420017921E+02  0.20032976887E+03  0.00000000000E+00 0.  1.
         21    1    1    2  502  501 -0.15882823840E-02  0.58849118571E-02 -0.21383187324E-02  0.64596621815E-02  0.00000000000E+00 0. -1.
<mgrwt>
<rscale>  1 0.64850287E+03</rscale>
<asrwt>0</asrwt>
<pdfrwt beam="1">  1        1 0.38233391E+00 0.64850287E+03</pdfrwt>
<pdfrwt beam="2">0</pdfrwt>
<totfact> 0.16029387E+00</totfact>
</mgrwt>
</event>
<event>
 6    1  0.1529677E-003  0.6499353E+03  0.7818608E-02  0.9806901E-01
          1   -1    0    0  502    0  0.00000000000E+00  0.00000000000E+00  0.10622153334E+03  0.10622153334E+03  0.00000000000E+00 0.  1.
         13   -1    0    0    0    0 -0.00000000000E+00 -0.00000000000E+00 -0.10000000000E+04  0.10000000000E+04  0.00000000000E+00 0.  1.
    9000005    2    1    2  501    0 -0.69985373435E-01  0.14091799645E+00 -0.89438492060E+03  0.11055950014E+04  0.64993530160E+03 0.  0.
         13    1    3    3    0    0  0.14157845692E+03  0.29249003592E+03 -0.43644668771E+03  0.54413288064E+03  0.00000000000E+00 0.  1.
          3    1    3    3  501    0 -0.14164844230E+03 -0.29234911793E+03 -0.45793823289E+03  0.56146212081E+03  0.00000000000E+00 0.  1.
         21    1    1    2  502  501  0.69985373435E-01 -0.14091799645E+00  0.60645394400E+00  0.62653189896E+00  0.00000000000E+00 0.  1.
<mgrwt>
<rscale>  1 0.64993532E+03</rscale>
<asrwt>0</asrwt>
<pdfrwt beam="1">  1        1 0.38626094E+00 0.64993532E+03</pdfrwt>
<pdfrwt beam="2">0</pdfrwt>
<totfact> 0.15397082E+00</totfact>
</mgrwt>
</event>
<event>
 6    1  0.1529677E-003  0.6403595E+03  0.7818608E-02  0.9825039E-01
          1   -1    0    0  502    0  0.00000000000E+00  0.00000000000E+00  0.10511789812E+03  0.10511789812E+03  0.00000000000E+00 0.  1.
         13   -1    0    0    0    0 -0.00000000000E+00 -0.00000000000E+00 -0.10000000000E+04  0.10000000000E+04  0.00000000000E+00 0.  1.
    9000005    2    1    2  501    0 -0.74373891022E+00  0.11719091302E+01 -0.89727941262E+03  0.11023477686E+04  0.64035797191E+03 0.  0.
         13    1    3    3    0    0 -0.79246802368E+02 -0.24808808796E+03 -0.12859504377E+03  0.29045557380E+03  0.00000000000E+00 0.  1.
          1    1    3    3  501    0  0.78503063458E+02  0.24925999709E+03 -0.76868436885E+03  0.81189219483E+03  0.00000000000E+00 0.  1.
         21    1    1    2  502  501  0.74373891022E+00 -0.11719091302E+01  0.23973107414E+01  0.27701294856E+01  0.00000000000E+00 0. -1.
<mgrwt>
<rscale>  1 0.64035948E+03</rscale>
<asrwt>0</asrwt>
<pdfrwt beam="1">  1        1 0.38224771E+00 0.64035948E+03</pdfrwt>
<pdfrwt beam="2">0</pdfrwt>
<totfact> 0.16067651E+00</totfact>
</mgrwt>
</event>
<event>
 6    1  0.1529677E-003  0.6533500E+03  0.7818608E-02  0.9800513E-01
          1   -1    0    0  502    0  0.00000000000E+00  0.00000000000E+00  0.10671871258E+03  0.10671871258E+03  0.00000000000E+00 0.  1.
         13   -1    0    0    0    0 -0.00000000000E+00 -0.00000000000E+00 -0.10000000000E+04  0.10000000000E+04  0.00000000000E+00 0.  1.
    9000005    2    1    2  501    0  0.59852717733E-02 -0.10542284312E-02 -0.89327668485E+03  0.11067110890E+04  0.65334998190E+03 0.  0.
         13    1    3    3    0    0  0.14158990993E+03  0.11711655107E+03 -0.90416061537E+03  0.92264316370E+03  0.00000000000E+00 0.  1.
          3    1    3    3  501    0 -0.14158392466E+03 -0.11711760530E+03  0.10883930520E+02  0.18406792533E+03  0.00000000000E+00 0.  1.
         21    1    1    2  502  501 -0.59852717733E-02  0.10542284312E-02 -0.46025686362E-02  0.76235499498E-02  0.00000000000E+00 0.  1.
<mgrwt>
<rscale>  1 0.65334998E+03</rscale>
<asrwt>0</asrwt>
<pdfrwt beam="1">  1        1 0.38806886E+00 0.65334998E+03</pdfrwt>
<pdfrwt beam="2">0</pdfrwt>
<totfact> 0.15106305E+00</totfact>
</mgrwt>
</event>
<event>
 6    1  0.1529677E-003  0.6491467E+03  0.7818608E-02  0.9808382E-01
          1   -1    0    0  502    0  0.00000000000E+00  0.00000000000E+00  0.10546129910E+03  0.10546129910E+03  0.00000000000E+00 0.  1.
         13   -1    0    0    0    0 -0.00000000000E+00 -0.00000000000E+00 -0.10000000000E+04  0.10000000000E+04  0.00000000000E+00 0.  1.
    9000005    2    1    2  501    0  0.31424882789E-02  0.41453395223E-02 -0.89465209043E+03  0.11053477903E+04  0.64914665107E+03 0.  0.
         13    1    3    3    0    0  0.45161833671E+02  0.31249365493E+03 -0.57540421791E+03  0.65633976688E+03  0.00000000000E+00 0.  1.
          1    1    3    3  501    0 -0.45158691183E+02 -0.31248950959E+03 -0.31924787252E+03  0.44900802343E+03  0.00000000000E+00 0.  1.
         21    1    1    2  502  501 -0.31424882789E-02 -0.41453395223E-02  0.11338953898E+00  0.11350879535E+00  0.00000000000E+00 0.  1.
<mgrwt>
<rscale>  1 0.64914665E+03</rscale>
<asrwt>0</asrwt>
<pdfrwt beam="1">  1        1 0.38349644E+00 0.64914665E+03</pdfrwt>
<pdfrwt beam="2">0</pdfrwt>
<totfact> 0.15839032E+00</totfact>
</mgrwt>
</event>
<event>
 6    1  0.1529677E-003  0.6521340E+03  0.7818608E-02  0.9802783E-01
          1   -1    0    0  502    0  0.00000000000E+00  0.00000000000E+00  0.10810101635E+03  0.10810101635E+03  0.00000000000E+00 0.  1.
         13   -1    0    0    0    0 -0.00000000000E+00 -0.00000000000E+00 -0.10000000000E+04  0.10000000000E+04  0.00000000000E+00 0.  1.
    9000005    2    1    2  501    0  0.42263292407E+00 -0.86035234841E-01 -0.89365139870E+03  0.11062963061E+04  0.65213381175E+03 0.  0.
         13    1    3    3    0    0  0.12351655984E+03  0.25970922442E+03 -0.70774202584E+03  0.76393978620E+03  0.00000000000E+00 0.  1.
          1    1    3    3  501    0 -0.12309392691E+03 -0.25979525966E+03 -0.18590937286E+03  0.34235651988E+03  0.00000000000E+00 0.  1.
         21    1    1    2  502  501 -0.42263292407E+00  0.86035234841E-01  0.17524150465E+01  0.18047102663E+01  0.00000000000E+00 0.  1.
<mgrwt>
<rscale>  1 0.65213395E+03</rscale>
<asrwt>0</asrwt>
<pdfrwt beam="1">  1        1 0.39309543E+00 0.65213395E+03</pdfrwt>
<pdfrwt beam="2">0</pdfrwt>
<totfact> 0.14353566E+00</totfact>
</mgrwt>
</event>
<event>
 6    1  0.1529677E-003  0.6781479E+03  0.7818608E-02  0.9755350E-01
          1   -1    0    0  502    0  0.00000000000E+00  0.00000000000E+00  0.11497716245E+03  0.11497716245E+03  0.00000000000E+00 0.  1.
         13   -1    0    0    0    0 -0.00000000000E+00 -0.00000000000E+00 -0.10000000000E+04  0.10000000000E+04  0.00000000000E+00 0.  1.
    9000005    2    1    2  501    0 -0.51225412443E-03  0.28016611719E-03 -0.88502882880E+03  0.11149711428E+04  0.67814793482E+03 0.  0.
         13    1    3    3    0    0  0.19041438914E+03 -0.27838800109E+03 -0.38524078907E+03  0.51202342163E+03  0.00000000000E+00 0.  1.
          3    1    3    3  501    0 -0.19041490139E+03  0.27838828126E+03 -0.49978803974E+03  0.60294772118E+03  0.00000000000E+00 0.  1.
         21    1    1    2  502  501  0.51225412442E-03 -0.28016611717E-03  0.59912532616E-02  0.60196356190E-02  0.00000000000E+00 0.  1.
<mgrwt>
<rscale>  1 0.67814793E+03</rscale>
<asrwt>0</asrwt>
<pdfrwt beam="1">  1        1 0.41809965E+00 0.67814793E+03</pdfrwt>
<pdfrwt beam="2">0</pdfrwt>
<totfact> 0.11039720E+00</totfact>
</mgrwt>
</event>
<event>
 6    1  0.1529677E-003  0.6083520E+03  0.7818608E-02  0.9888228E-01
          3   -1    0    0  502    0  0.00000000000E+00  0.00000000000E+00  0.92609055073E+02  0.92609055073E+02  0.00000000000E+00 0.  1.
         13   -1    0    0    0    0 -0.00000000000E+00 -0.00000000000E+00 -0.10000000000E+04  0.10000000000E+04  0.00000000000E+00 0.  1.
    9000005    2    1    2  501    0 -0.19251272406E+00 -0.17072643349E+00 -0.90717964565E+03  0.10922761046E+04  0.60835196465E+03 0.  0.
         13    1    3    3    0    0  0.13046860831E+03  0.25094030465E+02 -0.94470790431E+03  0.95400460826E+03  0.00000000000E+00 0.  1.
          3    1    3    3  501    0 -0.13066112103E+03 -0.25264756899E+02  0.37528258659E+02  0.13827149630E+03  0.00000000000E+00 0.  1.
         21    1    1    2  502  501  0.19251272406E+00  0.17072643349E+00 -0.21129928002E+00  0.33295052148E+00  0.00000000000E+00 0.  1.
<mgrwt>
<rscale>  1 0.60835202E+03</rscale>
<asrwt>0</asrwt>
<pdfrwt beam="1">  1        3 0.33676091E+00 0.60835202E+03</pdfrwt>
<pdfrwt beam="2">0</pdfrwt>
<totfact> 0.12897468E-01</totfact>
</mgrwt>
</event>
<event>
 6    1  0.1529677E-003  0.5865308E+03  0.7818608E-02  0.9933751E-01
          1   -1    0    0  502    0  0.00000000000E+00  0.00000000000E+00  0.86269506833E+02  0.86269506833E+02  0.00000000000E+00 0.  1.
         13   -1    0    0    0    0 -0.00000000000E+00 -0.00000000000E+00 -0.10000000000E+04  0.10000000000E+04  0.00000000000E+00 0.  1.
    9000005    2    1    2  501    0 -0.11849724119E+00  0.12495927846E+00 -0.91396473303E+03  0.10859787755E+04  0.58653076465E+03 0.  0.
         13    1    3    3    0    0 -0.37649741417E+02 -0.81780155122E+02  0.59783149902E+02  0.10807183635E+03  0.00000000000E+00 0.  1.
          1    1    3    3  501    0  0.37531244176E+02  0.81905114401E+02 -0.97374788293E+03  0.97790693911E+03  0.00000000000E+00 0.  1.
         21    1    1    2  502  501  0.11849724119E+00 -0.12495927846E+00  0.23423985866E+00  0.29073136884E+00  0.00000000000E+00 0. -1.
<mgrwt>
<rscale>  1 0.58653079E+03</rscale>
<asrwt>0</asrwt>
<pdfrwt beam="1">  1        1 0.31370796E+00 0.58653079E+03</pdfrwt>
<pdfrwt beam="2">0</pdfrwt>
<totfact> 0.32276055E+00</totfact>
</mgrwt>
</event>
<event>
 6    1  0.1529677E-003  0.6481589E+03  0.7818608E-02  0.9810240E-01
          3   -1    0    0  502    0  0.00000000000E+00  0.00000000000E+00  0.10517360818E+03  0.10517360818E+03  0.00000000000E+00 0.  1.
         13   -1    0    0    0    0 -0.00000000000E+00 -0.00000000000E+00 -0.10000000000E+04  0.10000000000E+04  0.00000000000E+00 0.  1.
    9000005    2    1    2  501    0 -0.48461862743E-01  0.48179846692E-01 -0.89496362870E+03  0.11050202987E+04  0.64815889955E+03 0.  0.
         13    1    3    3    0    0  0.13399327996E+03 -0.17278445411E+03 -0.85520776240E+03  0.88271681956E+03  0.00000000000E+00 0.  1.
          3    1    3    3  501    0 -0.13404174182E+03  0.17283263396E+03 -0.39755866295E+02  0.22230347909E+03  0.00000000000E+00 0.  1.
         21    1    1    2  502  501  0.48461862743E-01 -0.48179846692E-01  0.13723687697E+00  0.15330952406E+00  0.00000000000E+00 0. -1.
<mgrwt>
<rscale>  1 0.64815890E+03</rscale>
<asrwt>0</asrwt>
<pdfrwt beam="1">  1        3 0.38245029E+00 0.64815890E+03</pdfrwt>
<pdfrwt beam="2">0</pdfrwt>
<totfact> 0.73286235E-02</totfact>
</mgrwt>
</event>
<event>
 6    1  0.1529677E-003  0.6472527E+03  0.7818608E-02  0.9811948E-01
          1   -1    0    0  502    0  0.00000000000E+00  0.00000000000E+00  0.10473411682E+03  0.10473411682E+03  0.00000000000E+00 0.  1.
         13   -1    0    0    0    0 -0.00000000000E+00 -0.00000000000E+00 -0.10000000000E+04  0.10000000000E+04  0.00000000000E+00 0.  1.
    9000005    2    1    2  501    0 -0.19081540813E-04  0.30116738987E-05 -0.89526598108E+03  0.11047340170E+04  0.64725271070E+03 0.  0.
         13    1    3    3    0    0 -0.15473675366E+03  0.21783585684E+01 -0.93275547502E+03  0.94550567653E+03  0.00000000000E+00 0.  1.
          1    1    3    3  501    0  0.15473673458E+03 -0.21783555568E+01  0.37489493936E+02  0.15922834050E+03  0.00000000000E+00 0.  1.
         21    1    1    2  502  501  0.19081540799E-04 -0.30116738986E-05  0.97898245712E-04  0.99785980440E-04  0.00000000000E+00 0. -1.
<mgrwt>
<rscale>  1 0.64725271E+03</rscale>
<asrwt>0</asrwt>
<pdfrwt beam="1">  1        1 0.38085214E+00 0.64725271E+03</pdfrwt>
<pdfrwt beam="2">0</pdfrwt>
<totfact> 0.16276459E+00</totfact>
</mgrwt>
</event>
<event>
 6    1  0.1529677E-003  0.6708867E+03  0.7818608E-02  0.9768357E-01
          1   -1    0    0  502    0  0.00000000000E+00  0.00000000000E+00  0.11252956007E+03  0.11252956007E+03  0.00000000000E+00 0.  1.
         13   -1    0    0    0    0 -0.00000000000E+00 -0.00000000000E+00 -0.10000000000E+04  0.10000000000E+04  0.00000000000E+00 0.  1.
    9000005    2    1    2  501    0 -0.46736865013E-03 -0.94814177260E-04 -0.88747774958E+03  0.11125222349E+04  0.67088670214E+03 0.  0.
         13    1    3    3    0    0  0.13581595252E+03  0.28475436326E+03 -0.25472947369E+03  0.40548504919E+03  0.00000000000E+00 0.  1.
          1    1    3    3  501    0 -0.13581641989E+03 -0.28475445807E+03 -0.63274827589E+03  0.70703718569E+03  0.00000000000E+00 0.  1.
         21    1    1    2  502  501  0.46736865014E-03  0.94814177273E-04  0.73096524345E-02  0.73251922771E-02  0.00000000000E+00 0.  1.
<mgrwt>
<rscale>  1 0.67088670E+03</rscale>
<asrwt>0</asrwt>
<pdfrwt beam="1">  1        1 0.40919926E+00 0.67088670E+03</pdfrwt>
<pdfrwt beam="2">0</pdfrwt>
<totfact> 0.12121968E+00</totfact>
</mgrwt>
</event>
<event>
 6    1  0.1529677E-003  0.6519093E+03  0.7818608E-02  0.9803203E-01
          1   -1    0    0  502    0  0.00000000000E+00  0.00000000000E+00  0.10624740856E+03  0.10624740856E+03  0.00000000000E+00 0.  1.
         13   -1    0    0    0    0 -0.00000000000E+00 -0.00000000000E+00 -0.10000000000E+04  0.10000000000E+04  0.00000000000E+00 0.  1.
    9000005    2    1    2  501    0 -0.24739842729E-03 -0.30125523614E-03 -0.89375351646E+03  0.11062464048E+04  0.65190931874E+03 0.  0.
         13    1    3    3    0    0 -0.20470904997E+03 -0.21032787105E+03 -0.68747639286E+03  0.74750745763E+03  0.00000000000E+00 0.  1.
          1    1    3    3  501    0  0.20470880257E+03  0.21032756979E+03 -0.20627712360E+03  0.35873894712E+03  0.00000000000E+00 0.  1.
         21    1    1    2  502  501  0.24739842731E-03  0.30125523614E-03  0.92501438758E-03  0.10037989422E-02  0.00000000000E+00 0. -1.
<mgrwt>
<rscale>  1 0.65190932E+03</rscale>
<asrwt>0</asrwt>
<pdfrwt beam="1">  1        1 0.38635503E+00 0.65190932E+03</pdfrwt>
<pdfrwt beam="2">0</pdfrwt>
<totfact> 0.15376708E+00</totfact>
</mgrwt>
</event>
<event>
 6    1  0.1529677E-003  0.6450948E+03  0.7818608E-02  0.9816027E-01
          1   -1    0    0  502    0  0.00000000000E+00  0.00000000000E+00  0.10407495459E+03  0.10407495459E+03  0.00000000000E+00 0.  1.
         13   -1    0    0    0    0 -0.00000000000E+00 -0.00000000000E+00 -0.10000000000E+04  0.10000000000E+04  0.00000000000E+00 0.  1.
    9000005    2    1    2  501    0  0.76734685028E-02 -0.43950861967E-02 -0.89596260631E+03  0.11040363668E+04  0.64509480477E+03 0.  0.
         13    1    3    3    0    0 -0.31531077270E+03  0.42321741766E+02 -0.35705675682E+03  0.47822749900E+03  0.00000000000E+00 0.  1.
          3    1    3    3  501    0  0.31531844617E+03 -0.42326136852E+02 -0.53890584949E+03  0.62580886776E+03  0.00000000000E+00 0.  1.
         21    1    1    2  502  501 -0.76734685029E-02  0.43950861967E-02  0.37560900315E-01  0.38587823650E-01  0.00000000000E+00 0. -1.
<mgrwt>
<rscale>  1 0.64509480E+03</rscale>
<asrwt>0</asrwt>
<pdfrwt beam="1">  1        1 0.37845518E+00 0.64509480E+03</pdfrwt>
<pdfrwt beam="2">0</pdfrwt>
<totfact> 0.16684235E+00</totfact>
</mgrwt>
</event>
<event>
 6    1  0.1529677E-003  0.6509303E+03  0.7818608E-02  0.9805035E-01
          1   -1    0    0  502    0  0.00000000000E+00  0.00000000000E+00  0.10616408731E+03  0.10616408731E+03  0.00000000000E+00 0.  1.
         13   -1    0    0    0    0 -0.00000000000E+00 -0.00000000000E+00 -0.10000000000E+04  0.10000000000E+04  0.00000000000E+00 0.  1.
    9000005    2    1    2  501    0  0.29117966328E-01  0.69431726667E-01 -0.89406579616E+03  0.11059221885E+04  0.65093028314E+03 0.  0.
         13    1    3    3    0    0  0.15374840594E+03  0.28662905954E+03 -0.42578617081E+03  0.53580654471E+03  0.00000000000E+00 0.  1.
          1    1    3    3  501    0 -0.15371928797E+03 -0.28655962782E+03 -0.46827962535E+03  0.57011564380E+03  0.00000000000E+00 0.  1.
         21    1    1    2  502  501 -0.29117966328E-01 -0.69431726667E-01  0.22988347044E+00  0.24189880242E+00  0.00000000000E+00 0. -1.
<mgrwt>
<rscale>  1 0.65093029E+03</rscale>
<asrwt>0</asrwt>
<pdfrwt beam="1">  1        1 0.38605204E+00 0.65093029E+03</pdfrwt>
<pdfrwt beam="2">0</pdfrwt>
<totfact> 0.15427053E+00</totfact>
</mgrwt>
</event>
<event>
 6    1  0.1529677E-003  0.6473771E+03  0.7818608E-02  0.9811713E-01
          1   -1    0    0  502    0  0.00000000000E+00  0.00000000000E+00  0.10477433278E+03  0.10477433278E+03  0.00000000000E+00 0.  1.
         13   -1    0    0    0    0 -0.00000000000E+00 -0.00000000000E+00 -0.10000000000E+04  0.10000000000E+04  0.00000000000E+00 0.  1.
    9000005    2    1    2  501    0  0.12940470882E-04 -0.67929438785E-05 -0.89522570590E+03  0.11047742914E+04  0.64737714703E+03 0.  0.
         13    1    3    3    0    0 -0.12086379558E+03 -0.21998821574E+03 -0.79639626073E+03  0.83501489583E+03  0.00000000000E+00 0.  1.
          1    1    3    3  501    0  0.12086380852E+03  0.21998820894E+03 -0.98829445168E+02  0.26975939560E+03  0.00000000000E+00 0.  1.
         21    1    1    2  502  501 -0.12940470885E-04  0.67929438742E-05  0.38682312523E-04  0.41351193155E-04  0.00000000000E+00 0. -1.
<mgrwt>
<rscale>  1 0.64737715E+03</rscale>
<asrwt>0</asrwt>
<pdfrwt beam="1">  1        1 0.38099838E+00 0.64737715E+03</pdfrwt>
<pdfrwt beam="2">0</pdfrwt>
<totfact> 0.16251911E+00</totfact>
</mgrwt>
</event>
<event>
 6    1  0.1529677E-003  0.6607153E+03  0.7818608E-02  0.9786878E-01
          1   -1    0    0  502    0  0.00000000000E+00  0.00000000000E+00  0.10935097892E+03  0.10935097892E+03  0.00000000000E+00 0.  1.
         13   -1    0    0    0    0 -0.00000000000E+00 -0.00000000000E+00 -0.10000000000E+04  0.10000000000E+04  0.00000000000E+00 0.  1.
    9000005    2    1    2  501    0 -0.35127262670E-02 -0.68300425898E-02 -0.89086375897E+03  0.11091361037E+04  0.66071526355E+03 0.  0.
         13    1    3    3    0    0 -0.18948443237E+03  0.42140952619E+02  0.33032997275E+01  0.19414201448E+03  0.00000000000E+00 0.  1.
          1    1    3    3  501    0  0.18948091964E+03 -0.42147782662E+02 -0.89416705870E+03  0.91499408924E+03  0.00000000000E+00 0.  1.
         21    1    1    2  502  501  0.35127262670E-02  0.68300425898E-02  0.21473788479E+00  0.21487519143E+00  0.00000000000E+00 0.  1.
<mgrwt>
<rscale>  1 0.66071526E+03</rscale>
<asrwt>0</asrwt>
<pdfrwt beam="1">  1        1 0.39764076E+00 0.66071526E+03</pdfrwt>
<pdfrwt beam="2">0</pdfrwt>
<totfact> 0.13678820E+00</totfact>
</mgrwt>
</event>
<event>
 6    1  0.1529677E-003  0.6474592E+03  0.7818608E-02  0.9811558E-01
          3   -1    0    0  502    0  0.00000000000E+00  0.00000000000E+00  0.10483906869E+03  0.10483906869E+03  0.00000000000E+00 0.  1.
         13   -1    0    0    0    0 -0.00000000000E+00 -0.00000000000E+00 -0.10000000000E+04  0.10000000000E+04  0.00000000000E+00 0.  1.
    9000005    2    1    2  501    0  0.37014044951E-02  0.19620257580E-02 -0.89519901118E+03  0.11048007591E+04  0.64745922467E+03 0.  0.
         13    1    3    3    0    0  0.26103866701E+03  0.12618796538E+03 -0.20187694762E+03  0.35329716991E+03  0.00000000000E+00 0.  1.
          1    1    3    3  501    0 -0.26103496561E+03 -0.12618600336E+03 -0.69332206356E+03  0.75150358917E+03  0.00000000000E+00 0.  1.
         21    1    1    2  502  501 -0.37014044951E-02 -0.19620257580E-02  0.38079877147E-01  0.38309619991E-01  0.00000000000E+00 0.  1.
<mgrwt>
<rscale>  1 0.64745922E+03</rscale>
<asrwt>0</asrwt>
<pdfrwt beam="1">  1        3 0.38123378E+00 0.64745922E+03</pdfrwt>
<pdfrwt beam="2">0</pdfrwt>
<totfact> 0.74386500E-02</totfact>
</mgrwt>
</event>
<event>
 6    1  0.1529677E-003  0.6293027E+03  0.7818608E-02  0.9846411E-01
          1   -1    0    0  502    0  0.00000000000E+00  0.00000000000E+00  0.99005560548E+02  0.99005560548E+02  0.00000000000E+00 0.  1.
         13   -1    0    0    0    0 -0.00000000000E+00 -0.00000000000E+00 -0.10000000000E+04  0.10000000000E+04  0.00000000000E+00 0.  1.
    9000005    2    1    2  501    0 -0.78875648569E-04  0.10047796319E-03 -0.90099448211E+03  0.10990054259E+04  0.62930268497E+03 0.  0.
         13    1    3    3    0    0  0.26627912405E+03 -0.11621564530E+03 -0.23951821726E+03  0.37653635219E+03  0.00000000000E+00 0.  1.
          1    1    3    3  501    0 -0.26627920293E+03  0.11621574577E+03 -0.66147626485E+03  0.72246907369E+03  0.00000000000E+00 0.  1.
         21    1    1    2  502  501  0.78875648542E-04 -0.10047796319E-03  0.42657486473E-04  0.13467312342E-03  0.00000000000E+00 0. -1.
<mgrwt>
<rscale>  1 0.62930268E+03</rscale>
<asrwt>0</asrwt>
<pdfrwt beam="1">  1        1 0.36002098E+00 0.62930268E+03</pdfrwt>
<pdfrwt beam="2">0</pdfrwt>
<totfact> 0.20160096E+00</totfact>
</mgrwt>
</event>
<event>
 6    1  0.1529677E-003  0.6410418E+03  0.7818608E-02  0.9823735E-01
          1   -1    0    0  502    0  0.00000000000E+00  0.00000000000E+00  0.10508240134E+03  0.10508240134E+03  0.00000000000E+00 0.  1.
         13   -1    0    0    0    0 -0.00000000000E+00 -0.00000000000E+00 -0.10000000000E+04  0.10000000000E+04  0.00000000000E+00 0.  1.
    9000005    2    1    2  501    0  0.53213722611E+00 -0.70502848458E-01 -0.89723249508E+03  0.11027060836E+04  0.64104154966E+03 0.  0.
         13    1    3    3    0    0  0.57628791924E+02 -0.23004498955E+03 -0.77627537406E+02  0.24953518677E+03  0.00000000000E+00 0.  1.
          1    1    3    3  501    0 -0.57096654698E+02  0.22997448670E+03 -0.81960495767E+03  0.85317089680E+03  0.00000000000E+00 0.  1.
         21    1    1    2  502  501 -0.53213722611E+00  0.70502848458E-01  0.23148964248E+01  0.23763177685E+01  0.00000000000E+00 0.  1.
<mgrwt>
<rscale>  1 0.64104177E+03</rscale>
<asrwt>0</asrwt>
<pdfrwt beam="1">  1        1 0.38211863E+00 0.64104177E+03</pdfrwt>
<pdfrwt beam="2">0</pdfrwt>
<totfact> 0.16086711E+00</totfact>
</mgrwt>
</event>
<event>
 6    1  0.1529677E-003  0.6585931E+03  0.7818608E-02  0.9790787E-01
          1   -1    0    0  502    0  0.00000000000E+00  0.00000000000E+00  0.10846477826E+03  0.10846477826E+03  0.00000000000E+00 0.  1.
         13   -1    0    0    0    0 -0.00000000000E+00 -0.00000000000E+00 -0.10000000000E+04  0.10000000000E+04  0.00000000000E+00 0.  1.
    9000005    2    1    2  501    0 -0.14741748925E-02 -0.38958494258E-02 -0.89156361403E+03  0.11084360820E+04  0.65859309902E+03 0.  0.
         13    1    3    3    0    0  0.92843396387E+02 -0.14021789570E+03 -0.92228013014E+03  0.93748684950E+03  0.00000000000E+00 0.  1.
          1    1    3    3  501    0 -0.92844870562E+02  0.14021399985E+03  0.30716516109E+02  0.17094923254E+03  0.00000000000E+00 0.  1.
         21    1    1    2  502  501  0.14741748925E-02  0.38958494258E-02  0.28392296101E-01  0.28696224703E-01  0.00000000000E+00 0.  1.
<mgrwt>
<rscale>  1 0.65859310E+03</rscale>
<asrwt>0</asrwt>
<pdfrwt beam="1">  1        1 0.39441821E+00 0.65859310E+03</pdfrwt>
<pdfrwt beam="2">0</pdfrwt>
<totfact> 0.14143558E+00</totfact>
</mgrwt>
</event>
<event>
 6    1  0.1529677E-003  0.6561477E+03  0.7818608E-02  0.9795311E-01
          1   -1    0    0  502    0  0.00000000000E+00  0.00000000000E+00  0.10763373880E+03  0.10763373880E+03  0.00000000000E+00 0.  1.
         13   -1    0    0    0    0 -0.00000000000E+00 -0.00000000000E+00 -0.10000000000E+04  0.10000000000E+04  0.00000000000E+00 0.  1.
    9000005    2    1    2  501    0  0.11250393774E-03 -0.22255553756E-03 -0.89236752476E+03  0.11076324509E+04  0.65614773257E+03 0.  0.
         13    1    3    3    0    0 -0.21864033429E+03  0.10381366627E+03 -0.72313880213E+02  0.25260675042E+03  0.00000000000E+00 0.  1.
          1    1    3    3  501    0  0.21864044680E+03 -0.10381388883E+03 -0.82005364455E+03  0.85502570045E+03  0.00000000000E+00 0.  1.
         21    1    1    2  502  501 -0.11250393775E-03  0.22255553756E-03  0.12635665972E-02  0.12879396915E-02  0.00000000000E+00 0. -1.
<mgrwt>
<rscale>  1 0.65614773E+03</rscale>
<asrwt>0</asrwt>
<pdfrwt beam="1">  1        1 0.39139624E+00 0.65614773E+03</pdfrwt>
<pdfrwt beam="2">0</pdfrwt>
<totfact> 0.14594152E+00</totfact>
</mgrwt>
</event>
<event>
 6    1  0.1529677E-003  0.6564986E+03  0.7818608E-02  0.9794661E-01
          1   -1    0    0  502    0  0.00000000000E+00  0.00000000000E+00  0.10775162771E+03  0.10775162771E+03  0.00000000000E+00 0.  1.
         13   -1    0    0    0    0 -0.00000000000E+00 -0.00000000000E+00 -0.10000000000E+04  0.10000000000E+04  0.00000000000E+00 0.  1.
    9000005    2    1    2  501    0  0.40949776034E-02  0.90156448238E-03 -0.89225113112E+03  0.11077466085E+04  0.65649864247E+03 0.  0.
         13    1    3    3    0    0 -0.10464543577E+03  0.16324640479E+03  0.77672377678E+00  0.19390889408E+03  0.00000000000E+00 0.  1.
          1    1    3    3  501    0  0.10464953075E+03 -0.16324550323E+03 -0.89302785490E+03  0.91383771438E+03  0.00000000000E+00 0.  1.
         21    1    1    2  502  501 -0.40949776034E-02 -0.90156448239E-03  0.27588277307E-02  0.50192420280E-02  0.00000000000E+00 0. -1.
<mgrwt>
<rscale>  1 0.65649864E+03</rscale>
<asrwt>0</asrwt>
<pdfrwt beam="1">  1        1 0.39182493E+00 0.65649864E+03</pdfrwt>
<pdfrwt beam="2">0</pdfrwt>
<totfact> 0.14529403E+00</totfact>
</mgrwt>
</event>
<event>
 6    1  0.1529677E-003  0.6406982E+03  0.7818608E-02  0.9824392E-01
          1   -1    0    0  502    0  0.00000000000E+00  0.00000000000E+00  0.10262399024E+03  0.10262399024E+03  0.00000000000E+00 0.  1.
         13   -1    0    0    0    0 -0.00000000000E+00 -0.00000000000E+00 -0.10000000000E+04  0.10000000000E+04  0.00000000000E+00 0.  1.
    9000005    2    1    2  501    0  0.92932163284E-04  0.54308130012E-03 -0.89737626966E+03  0.11026233810E+04  0.64069817471E+03 0.  0.
         13    1    3    3    0    0  0.94324085029E+02  0.26191735962E+03 -0.72148256788E+03  0.77332711839E+03  0.00000000000E+00 0.  1.
          1    1    3    3  501    0 -0.94323992097E+02 -0.26191681654E+03 -0.17589370178E+03  0.32929626265E+03  0.00000000000E+00 0.  1.
         21    1    1    2  502  501 -0.92932163295E-04 -0.54308130014E-03  0.25990186548E-03  0.60919837920E-03  0.00000000000E+00 0.  1.
<mgrwt>
<rscale>  1 0.64069817E+03</rscale>
<asrwt>0</asrwt>
<pdfrwt beam="1">  1        1 0.37317893E+00 0.64069817E+03</pdfrwt>
<pdfrwt beam="2">0</pdfrwt>
<totfact> 0.17615290E+00</totfact>
</mgrwt>
</event>
<event>
 6    1  0.1529677E-003  0.6568643E+03  0.7818608E-02  0.9793983E-01
          1   -1    0    0  502    0  0.00000000000E+00  0.00000000000E+00  0.10789185063E+03  0.10789185063E+03  0.00000000000E+00 0.  1.
         13   -1    0    0    0    0 -0.00000000000E+00 -0.00000000000E+00 -0.10000000000E+04  0.10000000000E+04  0.00000000000E+00 0.  1.
    9000005    2    1    2  501    0 -0.24533733847E-03  0.22384288945E-03 -0.89213233051E+03  0.11078676672E+04  0.65686427281E+03 0.  0.
         13    1    3    3    0    0 -0.29702865373E+03  0.10883105461E+03 -0.29713327085E+03  0.43400276523E+03  0.00000000000E+00 0.  1.
          1    1    3    3  501    0  0.29702840839E+03 -0.10883083076E+03 -0.59499905967E+03  0.67386490198E+03  0.00000000000E+00 0.  1.
         21    1    1    2  502  501  0.24533733847E-03 -0.22384288945E-03  0.24181138608E-01  0.24183419122E-01  0.00000000000E+00 0. -1.
<mgrwt>
<rscale>  1 0.65686427E+03</rscale>
<asrwt>0</asrwt>
<pdfrwt beam="1">  1        1 0.39233483E+00 0.65686427E+03</pdfrwt>
<pdfrwt beam="2">0</pdfrwt>
<totfact> 0.14452882E+00</totfact>
</mgrwt>
</event>
<event>
 6    1  0.1529677E-003  0.6488814E+03  0.7818608E-02  0.9808880E-01
          1   -1    0    0  502    0  0.00000000000E+00  0.00000000000E+00  0.10528407476E+03  0.10528407476E+03  0.00000000000E+00 0.  1.
         13   -1    0    0    0    0 -0.00000000000E+00 -0.00000000000E+00 -0.10000000000E+04  0.10000000000E+04  0.00000000000E+00 0.  1.
    9000005    2    1    2  501    0  0.26352215189E-01 -0.14015456752E-01 -0.89472661082E+03  0.11052523722E+04  0.64888141999E+03 0.  0.
         13    1    3    3    0    0  0.10736675111E+03  0.17805806854E+03 -0.23138922389E+02  0.20920732479E+03  0.00000000000E+00 0.  1.
          3    1    3    3  501    0 -0.10734039889E+03 -0.17807208399E+03 -0.87158768843E+03  0.89604504739E+03  0.00000000000E+00 0.  1.
         21    1    1    2  502  501 -0.26352215189E-01  0.14015456751E-01  0.10685573460E-01  0.31702582758E-01  0.00000000000E+00 0.  1.
<mgrwt>
<rscale>  1 0.64888142E+03</rscale>
<asrwt>0</asrwt>
<pdfrwt beam="1">  1        1 0.38285199E+00 0.64888142E+03</pdfrwt>
<pdfrwt beam="2">0</pdfrwt>
<totfact> 0.15944020E+00</totfact>
</mgrwt>
</event>
<event>
 6    1  0.1529677E-003  0.6677845E+03  0.7818608E-02  0.9773968E-01
          1   -1    0    0  502    0  0.00000000000E+00  0.00000000000E+00  0.12098998666E+03  0.12098998666E+03  0.00000000000E+00 0.  1.
         13   -1    0    0    0    0 -0.00000000000E+00 -0.00000000000E+00 -0.10000000000E+04  0.10000000000E+04  0.00000000000E+00 0.  1.
    9000005    2    1    2  501    0 -0.10754889770E+01 -0.42075470303E+01 -0.88796137510E+03  0.11110407653E+04  0.66777040840E+03 0.  0.
         13    1    3    3    0    0  0.27104854575E+03 -0.66188871752E+02 -0.74897074997E+03  0.79925306706E+03  0.00000000000E+00 0.  1.
          1    1    3    3  501    0 -0.27212403473E+03  0.61981324721E+02 -0.13899062513E+03  0.31178769823E+03  0.00000000000E+00 0.  1.
         21    1    1    2  502  501  0.10754889770E+01  0.42075470303E+01  0.89513617560E+01  0.99492213684E+01  0.00000000000E+00 0.  1.
<mgrwt>
<rscale>  1 0.66778453E+03</rscale>
<asrwt>0</asrwt>
<pdfrwt beam="1">  1        1 0.43996452E+00 0.66778453E+03</pdfrwt>
<pdfrwt beam="2">0</pdfrwt>
<totfact> 0.88015069E-01</totfact>
</mgrwt>
</event>
<event>
 6    1  0.1529677E-003  0.6477115E+03  0.7818608E-02  0.9811083E-01
          1   -1    0    0  502    0  0.00000000000E+00  0.00000000000E+00  0.10488258470E+03  0.10488258470E+03  0.00000000000E+00 0.  1.
         13   -1    0    0    0    0 -0.00000000000E+00 -0.00000000000E+00 -0.10000000000E+04  0.10000000000E+04  0.00000000000E+00 0.  1.
    9000005    2    1    2  501    0 -0.10897080699E-04  0.10575378127E-04 -0.89511744760E+03  0.11048825490E+04  0.64771151149E+03 0.  0.
         13    1    3    3    0    0 -0.26456046035E+03 -0.68346628226E+02 -0.15102443177E+03  0.31220486505E+03  0.00000000000E+00 0.  1.
          1    1    3    3  501    0  0.26456044945E+03  0.68346638802E+02 -0.74409301583E+03  0.79267768396E+03  0.00000000000E+00 0.  1.
         21    1    1    2  502  501  0.10897080672E-04 -0.10575378135E-04  0.32300113640E-04  0.35691488215E-04  0.00000000000E+00 0. -1.
<mgrwt>
<rscale>  1 0.64771151E+03</rscale>
<asrwt>0</asrwt>
<pdfrwt beam="1">  1        1 0.38139202E+00 0.64771151E+03</pdfrwt>
<pdfrwt beam="2">0</pdfrwt>
<totfact> 0.16186012E+00</totfact>
</mgrwt>
</event>
<event>
 6    1  0.1529677E-003  0.6505946E+03  0.7818608E-02  0.9805664E-01
          1   -1    0    0  502    0  0.00000000000E+00  0.00000000000E+00  0.10681698940E+03  0.10681698940E+03  0.00000000000E+00 0.  1.
         13   -1    0    0    0    0 -0.00000000000E+00 -0.00000000000E+00 -0.10000000000E+04  0.10000000000E+04  0.00000000000E+00 0.  1.
    9000005    2    1    2  501    0 -0.11057635755E+00 -0.29611273624E+00 -0.89415393831E+03  0.11057959064E+04  0.65059451373E+03 0.  0.
         13    1    3    3    0    0  0.26684556275E+03 -0.17919885881E+03 -0.53250102821E+03  0.62199367392E+03  0.00000000000E+00 0.  1.
          1    1    3    3  501    0 -0.26695613911E+03  0.17890274607E+03 -0.36165291010E+03  0.48380223247E+03  0.00000000000E+00 0.  1.
         21    1    1    2  502  501  0.11057635755E+00  0.29611273624E+00  0.97092770441E+00  0.10210829989E+01  0.00000000000E+00 0. -1.
<mgrwt>
<rscale>  1 0.65059459E+03</rscale>
<asrwt>0</asrwt>
<pdfrwt beam="1">  1        1 0.38842624E+00 0.65059459E+03</pdfrwt>
<pdfrwt beam="2">0</pdfrwt>
<totfact> 0.15059025E+00</totfact>
</mgrwt>
</event>
<event>
 6    1  0.1529677E-003  0.6520761E+03  0.7818608E-02  0.9802891E-01
          1   -1    0    0  502    0  0.00000000000E+00  0.00000000000E+00  0.10633197217E+03  0.10633197217E+03  0.00000000000E+00 0.  1.
         13   -1    0    0    0    0 -0.00000000000E+00 -0.00000000000E+00 -0.10000000000E+04  0.10000000000E+04  0.00000000000E+00 0.  1.
    9000005    2    1    2  501    0  0.80477004997E-03 -0.14260546259E-02 -0.89369915381E+03  0.11063008031E+04  0.65207613783E+03 0.  0.
         13    1    3    3    0    0  0.25988916137E+03  0.35226478512E+02 -0.77546917957E+03  0.81861818294E+03  0.00000000000E+00 0.  1.
          1    1    3    3  501    0 -0.25988835660E+03 -0.35227904566E+02 -0.11822997424E+03  0.28768262021E+03  0.00000000000E+00 0.  1.
         21    1    1    2  502  501 -0.80477004995E-03  0.14260546259E-02  0.31125977817E-01  0.31169019581E-01  0.00000000000E+00 0.  1.
<mgrwt>
<rscale>  1 0.65207614E+03</rscale>
<asrwt>0</asrwt>
<pdfrwt beam="1">  1        1 0.38666253E+00 0.65207614E+03</pdfrwt>
<pdfrwt beam="2">0</pdfrwt>
<totfact> 0.15328115E+00</totfact>
</mgrwt>
</event>
<event>
 6    1  0.1529677E-003  0.6503127E+03  0.7818608E-02  0.9806193E-01
          1   -1    0    0  502    0  0.00000000000E+00  0.00000000000E+00  0.10914419728E+03  0.10914419728E+03  0.00000000000E+00 0.  1.
         13   -1    0    0    0    0 -0.00000000000E+00 -0.00000000000E+00 -0.10000000000E+04  0.10000000000E+04  0.00000000000E+00 0.  1.
    9000005    2    1    2  501    0 -0.40444966224E-01  0.14106935619E+00 -0.89427161796E+03  0.11057252310E+04  0.65031264661E+03 0.  0.
         13    1    3    3    0    0  0.23560702745E+03  0.20762089170E+03 -0.30361277230E+03  0.43680409975E+03  0.00000000000E+00 0.  1.
          3    1    3    3  501    0 -0.23564747241E+03 -0.20747982235E+03 -0.59065884566E+03  0.66892113129E+03  0.00000000000E+00 0.  1.
         21    1    1    2  502  501  0.40444966224E-01 -0.14106935619E+00  0.34158152448E+01  0.34189662392E+01  0.00000000000E+00 0.  1.
<mgrwt>
<rscale>  1 0.65031266E+03</rscale>
<asrwt>0</asrwt>
<pdfrwt beam="1">  1        1 0.39688883E+00 0.65031266E+03</pdfrwt>
<pdfrwt beam="2">0</pdfrwt>
<totfact> 0.13811627E+00</totfact>
</mgrwt>
</event>
<event>
 6    1  0.1529677E-003  0.6534746E+03  0.7818608E-02  0.9800281E-01
          1   -1    0    0  502    0  0.00000000000E+00  0.00000000000E+00  0.10677028611E+03  0.10677028611E+03  0.00000000000E+00 0.  1.
         13   -1    0    0    0    0 -0.00000000000E+00 -0.00000000000E+00 -0.10000000000E+04  0.10000000000E+04  0.00000000000E+00 0.  1.
    9000005    2    1    2  501    0 -0.28582657256E-02 -0.76659563291E-03 -0.89324256557E+03  0.11067570981E+04  0.65347455444E+03 0.  0.
         13    1    3    3    0    0 -0.56363894577E+02 -0.27843463529E+03 -0.72000301166E+03  0.77402007180E+03  0.00000000000E+00 0.  1.
          3    1    3    3  501    0  0.56361036311E+02  0.27843386870E+03 -0.17323955391E+03  0.33273702633E+03  0.00000000000E+00 0.  1.
         21    1    1    2  502  501  0.28582657256E-02  0.76659563294E-03  0.12851677691E-01  0.13187985870E-01  0.00000000000E+00 0.  1.
<mgrwt>
<rscale>  1 0.65347455E+03</rscale>
<asrwt>0</asrwt>
<pdfrwt beam="1">  1        1 0.38825640E+00 0.65347455E+03</pdfrwt>
<pdfrwt beam="2">0</pdfrwt>
<totfact> 0.15077083E+00</totfact>
</mgrwt>
</event>
<event>
 6    1  0.1529677E-003  0.6311873E+03  0.7818608E-02  0.9842735E-01
          1   -1    0    0  502    0  0.00000000000E+00  0.00000000000E+00  0.99617383925E+02  0.99617383925E+02  0.00000000000E+00 0.  1.
         13   -1    0    0    0    0 -0.00000000000E+00 -0.00000000000E+00 -0.10000000000E+04  0.10000000000E+04  0.00000000000E+00 0.  1.
    9000005    2    1    2  501    0  0.16332570479E-02  0.18831714375E-02 -0.90040054450E+03  0.10995992830E+04  0.63118732775E+03 0.  0.
         13    1    3    3    0    0 -0.67252050329E+02 -0.17091776010E+03 -0.31065505941E+01  0.18369912805E+03  0.00000000000E+00 0.  1.
          3    1    3    3  501    0  0.67253683586E+02  0.17091964327E+03 -0.89729399390E+03  0.91590015499E+03  0.00000000000E+00 0.  1.
         21    1    1    2  502  501 -0.16332570479E-02 -0.18831714375E-02  0.17928422701E-01  0.18100889586E-01  0.00000000000E+00 0.  1.
<mgrwt>
<rscale>  1 0.63118733E+03</rscale>
<asrwt>0</asrwt>
<pdfrwt beam="1">  1        1 0.36224580E+00 0.63118733E+03</pdfrwt>
<pdfrwt beam="2">0</pdfrwt>
<totfact> 0.19706533E+00</totfact>
</mgrwt>
</event>
<event>
 6    1  0.1529677E-003  0.6372876E+03  0.7818608E-02  0.9830930E-01
          1   -1    0    0  502    0  0.00000000000E+00  0.00000000000E+00  0.10153599382E+03  0.10153599382E+03  0.00000000000E+00 0.  1.
         13   -1    0    0    0    0 -0.00000000000E+00 -0.00000000000E+00 -0.10000000000E+04  0.10000000000E+04  0.00000000000E+00 0.  1.
    9000005    2    1    2  501    0  0.12171756896E-03 -0.89211449108E-04 -0.89846612988E+03  0.11015338648E+04  0.63728758710E+03 0.  0.
         13    1    3    3    0    0  0.96847106900E+02  0.29861975645E+03 -0.54360082652E+03  0.62773798646E+03  0.00000000000E+00 0.  1.
          1    1    3    3  501    0 -0.96846985182E+02 -0.29861984566E+03 -0.35486530337E+03  0.47379587830E+03  0.00000000000E+00 0.  1.
         21    1    1    2  502  501 -0.12171756896E-03  0.89211449138E-04  0.21236999777E-02  0.21290550591E-02  0.00000000000E+00 0.  1.
<mgrwt>
<rscale>  1 0.63728759E+03</rscale>
<asrwt>0</asrwt>
<pdfrwt beam="1">  1        1 0.36922257E+00 0.63728759E+03</pdfrwt>
<pdfrwt beam="2">0</pdfrwt>
<totfact> 0.18346151E+00</totfact>
</mgrwt>
</event>
<event>
 6    1  0.1529677E-003  0.6524440E+03  0.7818608E-02  0.9802204E-01
          1   -1    0    0  502    0  0.00000000000E+00  0.00000000000E+00  0.10967402340E+03  0.10967402340E+03  0.00000000000E+00 0.  1.
         13   -1    0    0    0    0 -0.00000000000E+00 -0.00000000000E+00 -0.10000000000E+04  0.10000000000E+04  0.00000000000E+00 0.  1.
    9000005    2    1    2  501    0  0.48398038061E+01 -0.29733367817E+01 -0.89056615788E+03  0.11039887688E+04  0.65241923308E+03 0.  0.
         13    1    3    3    0    0 -0.11599131304E+03  0.28882727327E+03 -0.59469867916E+03  0.67122402928E+03  0.00000000000E+00 0.  1.
          3    1    3    3  501    0  0.12083111685E+03 -0.29180061005E+03 -0.29586747872E+03  0.43276473955E+03  0.00000000000E+00 0.  1.
         21    1    1    2  502  501 -0.48398038061E+01  0.29733367817E+01  0.24018128236E+00  0.56852545720E+01  0.00000000000E+00 0.  1.
<mgrwt>
<rscale>  1 0.65244396E+03</rscale>
<asrwt>0</asrwt>
<pdfrwt beam="1">  1        1 0.39881547E+00 0.65244396E+03</pdfrwt>
<pdfrwt beam="2">0</pdfrwt>
<totfact> 0.13536043E+00</totfact>
</mgrwt>
</event>
<event>
 6    1  0.1529677E-003  0.6443756E+03  0.7818608E-02  0.9817391E-01
          1   -1    0    0  502    0  0.00000000000E+00  0.00000000000E+00  0.11105708720E+03  0.11105708720E+03  0.00000000000E+00 0.  1.
         13   -1    0    0    0    0 -0.00000000000E+00 -0.00000000000E+00 -0.10000000000E+04  0.10000000000E+04  0.00000000000E+00 0.  1.
    9000005    2    1    2  501    0  0.75783368907E-01 -0.14608886826E+00 -0.89619400182E+03  0.11038041308E+04  0.64437554510E+03 0.  0.
         13    1    3    3    0    0  0.15186549221E+03  0.22724761414E+03 -0.74015593372E+03  0.78900913308E+03  0.00000000000E+00 0.  1.
          1    1    3    3  501    0 -0.15178970884E+03 -0.22739370301E+03 -0.15603806809E+03  0.31479499769E+03  0.00000000000E+00 0.  1.
         21    1    1    2  502  501 -0.75783368907E-01  0.14608886826E+00  0.72510890156E+01  0.72529564309E+01  0.00000000000E+00 0.  1.
<mgrwt>
<rscale>  1 0.64437557E+03</rscale>
<asrwt>0</asrwt>
<pdfrwt beam="1">  1        1 0.40384481E+00 0.64437557E+03</pdfrwt>
<pdfrwt beam="2">0</pdfrwt>
<totfact> 0.12874476E+00</totfact>
</mgrwt>
</event>
<event>
 6    1  0.1529677E-003  0.6362706E+03  0.7818608E-02  0.9832888E-01
          1   -1    0    0  502    0  0.00000000000E+00  0.00000000000E+00  0.11807235064E+03  0.11807235064E+03  0.00000000000E+00 0.  1.
         13   -1    0    0    0    0 -0.00000000000E+00 -0.00000000000E+00 -0.10000000000E+04  0.10000000000E+04  0.00000000000E+00 0.  1.
    9000005    2    1    2  501    0 -0.25695735038E+00  0.72241244426E+00 -0.89878034688E+03  0.11012022196E+04  0.63627009095E+03 0.  0.
         13    1    3    3    0    0 -0.55343975416E+01 -0.40365097860E+02  0.96662348327E+02  0.10489795167E+03  0.00000000000E+00 0.  1.
          3    1    3    3  501    0  0.52774401912E+01  0.41087510304E+02 -0.99544269521E+03  0.99630426795E+03  0.00000000000E+00 0.  1.
         21    1    1    2  502  501  0.25695735038E+00 -0.72241244426E+00  0.16852697528E+02  0.16870131024E+02  0.00000000000E+00 0. -1.
<mgrwt>
<rscale>  1 0.63627055E+03</rscale>
<asrwt>0</asrwt>
<pdfrwt beam="1">  1        1 0.42935491E+00 0.63627055E+03</pdfrwt>
<pdfrwt beam="2">0</pdfrwt>
<totfact> 0.99003164E-01</totfact>
</mgrwt>
</event>
<event>
 6    1  0.1529677E-003  0.6646763E+03  0.7818608E-02  0.9779623E-01
          1   -1    0    0  502    0  0.00000000000E+00  0.00000000000E+00  0.11055962086E+03  0.11055962086E+03  0.00000000000E+00 0.  1.
         13   -1    0    0    0    0 -0.00000000000E+00 -0.00000000000E+00 -0.10000000000E+04  0.10000000000E+04  0.00000000000E+00 0.  1.
    9000005    2    1    2  501    0 -0.15186469387E-02 -0.33333114817E-03 -0.88955135367E+03  0.11104486354E+04  0.66467628295E+03 0.  0.
         13    1    3    3    0    0 -0.10571010416E+02  0.31386335383E+03 -0.26309083999E+03  0.40968126784E+03  0.00000000000E+00 0.  1.
          3    1    3    3  501    0  0.10569491769E+02 -0.31386368716E+03 -0.62646051369E+03  0.70076736759E+03  0.00000000000E+00 0.  1.
         21    1    1    2  502  501  0.15186469387E-02  0.33333114817E-03  0.11097453708E+00  0.11098542823E+00  0.00000000000E+00 0. -1.
<mgrwt>
<rscale>  1 0.66467628E+03</rscale>
<asrwt>0</asrwt>
<pdfrwt beam="1">  1        1 0.40203583E+00 0.66467628E+03</pdfrwt>
<pdfrwt beam="2">0</pdfrwt>
<totfact> 0.13065608E+00</totfact>
</mgrwt>
</event>
<event>
 6    1  0.1529677E-003  0.6540456E+03  0.7818608E-02  0.9799217E-01
          1   -1    0    0  502    0  0.00000000000E+00  0.00000000000E+00  0.10694395483E+03  0.10694395483E+03  0.00000000000E+00 0.  1.
         13   -1    0    0    0    0 -0.00000000000E+00 -0.00000000000E+00 -0.10000000000E+04  0.10000000000E+04  0.00000000000E+00 0.  1.
    9000005    2    1    2  501    0 -0.25321228406E-04 -0.22925519971E-05 -0.89305607112E+03  0.11069439185E+04  0.65404563489E+03 0.  0.
         13    1    3    3    0    0 -0.24261151767E+03  0.70371052425E+02 -0.95036549016E+02  0.26989697882E+03  0.00000000000E+00 0.  1.
          1    1    3    3  501    0  0.24261149235E+03 -0.70371054718E+02 -0.79801952211E+03  0.83704693968E+03  0.00000000000E+00 0.  1.
         21    1    1    2  502  501  0.25321228385E-04  0.22925519925E-05  0.25951255636E-04  0.36330263840E-04  0.00000000000E+00 0. -1.
<mgrwt>
<rscale>  1 0.65404563E+03</rscale>
<asrwt>0</asrwt>
<pdfrwt beam="1">  1        1 0.38888793E+00 0.65404563E+03</pdfrwt>
<pdfrwt beam="2">0</pdfrwt>
<totfact> 0.14978656E+00</totfact>
</mgrwt>
</event>
<event>
 6    1  0.1529677E-003  0.6510057E+03  0.7818608E-02  0.9804894E-01
          1   -1    0    0  502    0  0.00000000000E+00  0.00000000000E+00  0.10595246354E+03  0.10595246354E+03  0.00000000000E+00 0.  1.
         13   -1    0    0    0    0 -0.00000000000E+00 -0.00000000000E+00 -0.10000000000E+04  0.10000000000E+04  0.00000000000E+00 0.  1.
    9000005    2    1    2  501    0  0.10648234185E-02 -0.28365567375E-03 -0.89404566810E+03  0.11059502944E+04  0.65100568130E+03 0.  0.
         13    1    3    3    0    0  0.26466206442E+03 -0.50472897918E+01 -0.76882079989E+03  0.81311555502E+03  0.00000000000E+00 0.  1.
          1    1    3    3  501    0 -0.26466099960E+03  0.50470061362E+01 -0.12522486821E+03  0.29283473940E+03  0.00000000000E+00 0.  1.
         21    1    1    2  502  501 -0.10648234185E-02  0.28365567375E-03 -0.18683616678E-02  0.21691207379E-02  0.00000000000E+00 0.  1.
<mgrwt>
<rscale>  1 0.65100568E+03</rscale>
<asrwt>0</asrwt>
<pdfrwt beam="1">  1        1 0.38528250E+00 0.65100568E+03</pdfrwt>
<pdfrwt beam="2">0</pdfrwt>
<totfact> 0.15548265E+00</totfact>
</mgrwt>
</event>
<event>
 6    1  0.1529677E-003  0.6518601E+03  0.7818608E-02  0.9803295E-01
          1   -1    0    0  502    0  0.00000000000E+00  0.00000000000E+00  0.10663508621E+03  0.10663508621E+03  0.00000000000E+00 0.  1.
         13   -1    0    0    0    0 -0.00000000000E+00 -0.00000000000E+00 -0.10000000000E+04  0.10000000000E+04  0.00000000000E+00 0.  1.
    9000005    2    1    2  501    0 -0.13074479364E+00  0.57773740248E-01 -0.89375557748E+03  0.11062190933E+04  0.65186013040E+03 0.  0.
         13    1    3    3    0    0 -0.26710077794E+03 -0.17862564488E+03 -0.35390160844E+03  0.47801286075E+03  0.00000000000E+00 0.  1.
          3    1    3    3  501    0  0.26697003314E+03  0.17868341863E+03 -0.53985396905E+03  0.62820623252E+03  0.00000000000E+00 0.  1.
         21    1    1    2  502  501  0.13074479364E+00 -0.57773740248E-01  0.39066368586E+00  0.41599293453E+00  0.00000000000E+00 0.  1.
<mgrwt>
<rscale>  1 0.65186015E+03</rscale>
<asrwt>0</asrwt>
<pdfrwt beam="1">  1        1 0.38776477E+00 0.65186015E+03</pdfrwt>
<pdfrwt beam="2">0</pdfrwt>
<totfact> 0.15157416E+00</totfact>
</mgrwt>
</event>
<event>
 6    1  0.1529677E-003  0.6398787E+03  0.7818608E-02  0.9825959E-01
          1   -1    0    0  502    0  0.00000000000E+00  0.00000000000E+00  0.10236182246E+03  0.10236182246E+03  0.00000000000E+00 0.  1.
         13   -1    0    0    0    0 -0.00000000000E+00 -0.00000000000E+00 -0.10000000000E+04  0.10000000000E+04  0.00000000000E+00 0.  1.
    9000005    2    1    2  501    0 -0.49580121740E-03 -0.39853634186E-03 -0.89763863538E+03  0.11023610387E+04  0.63987869158E+03 0.  0.
         13    1    3    3    0    0  0.13132493303E+03 -0.75224528070E+02  0.36793479456E+02  0.15575213575E+03  0.00000000000E+00 0.  1.
          3    1    3    3  501    0 -0.13132542884E+03  0.75224129533E+02 -0.93443211484E+03  0.94660890296E+03  0.00000000000E+00 0.  1.
         21    1    1    2  502  501  0.49580121738E-03  0.39853634185E-03  0.45784023622E-03  0.78375234918E-03  0.00000000000E+00 0.  1.
<mgrwt>
<rscale>  1 0.63987869E+03</rscale>
<asrwt>0</asrwt>
<pdfrwt beam="1">  1        1 0.37222559E+00 0.63987869E+03</pdfrwt>
<pdfrwt beam="2">0</pdfrwt>
<totfact> 0.17788806E+00</totfact>
</mgrwt>
</event>
<event>
 6    1  0.1529677E-003  0.6464359E+03  0.7818608E-02  0.9813490E-01
          1   -1    0    0  502    0  0.00000000000E+00  0.00000000000E+00  0.10622630168E+03  0.10622630168E+03  0.00000000000E+00 0.  1.
         13   -1    0    0    0    0 -0.00000000000E+00 -0.00000000000E+00 -0.10000000000E+04  0.10000000000E+04  0.00000000000E+00 0.  1.
    9000005    2    1    2  501    0  0.39585743485E-03 -0.23745069570E-01 -0.89553006543E+03  0.11044697740E+04  0.64643590795E+03 0.  0.
         13    1    3    3    0    0  0.27393383719E+03  0.13600042368E+03 -0.62638882796E+03  0.69706443475E+03  0.00000000000E+00 0.  1.
          3    1    3    3  501    0 -0.27393344134E+03 -0.13602416875E+03 -0.26914123747E+03  0.40740533928E+03  0.00000000000E+00 0.  1.
         21    1    1    2  502  501 -0.39585743485E-03  0.23745069570E-01  0.17563671081E+01  0.17565276552E+01  0.00000000000E+00 0. -1.
<mgrwt>
<rscale>  1 0.64643591E+03</rscale>
<asrwt>0</asrwt>
<pdfrwt beam="1">  1        1 0.38627828E+00 0.64643591E+03</pdfrwt>
<pdfrwt beam="2">0</pdfrwt>
<totfact> 0.15404368E+00</totfact>
</mgrwt>
</event>
<event>
 6    1  0.1529677E-003  0.6499253E+03  0.7818608E-02  0.9806919E-01
          1   -1    0    0  502    0  0.00000000000E+00  0.00000000000E+00  0.10576944443E+03  0.10576944443E+03  0.00000000000E+00 0.  1.
         13   -1    0    0    0    0 -0.00000000000E+00 -0.00000000000E+00 -0.10000000000E+04  0.10000000000E+04  0.00000000000E+00 0.  1.
    9000005    2    1    2  501    0 -0.11057696159E+00  0.13106849724E+00 -0.89434970119E+03  0.11055606338E+04  0.64992530147E+03 0.  0.
         13    1    3    3    0    0 -0.16750298061E+03  0.26401173974E+03 -0.59842706141E+03  0.67518471181E+03  0.00000000000E+00 0.  1.
          1    1    3    3  501    0  0.16739240365E+03 -0.26388067125E+03 -0.29592263979E+03  0.43037592195E+03  0.00000000000E+00 0.  1.
         21    1    1    2  502  501  0.11057696159E+00 -0.13106849724E+00  0.11914562722E+00  0.20881066996E+00  0.00000000000E+00 0. -1.
<mgrwt>
<rscale>  1 0.64992532E+03</rscale>
<asrwt>0</asrwt>
<pdfrwt beam="1">  1        1 0.38461697E+00 0.64992532E+03</pdfrwt>
<pdfrwt beam="2">0</pdfrwt>
<totfact> 0.15657134E+00</totfact>
</mgrwt>
</event>
<event>
 6    1  0.1529677E-003  0.6474397E+03  0.7818608E-02  0.9811595E-01
          1   -1    0    0  502    0  0.00000000000E+00  0.00000000000E+00  0.10545528556E+03  0.10545528556E+03  0.00000000000E+00 0.  1.
         13   -1    0    0    0    0 -0.00000000000E+00 -0.00000000000E+00 -0.10000000000E+04  0.10000000000E+04  0.00000000000E+00 0.  1.
    9000005    2    1    2  501    0 -0.21256366996E+00 -0.11640833752E+00 -0.89518080746E+03  0.11047745885E+04  0.64743969181E+03 0.  0.
         13    1    3    3    0    0  0.74039827932E+02 -0.10939145078E+03  0.56715776117E+02  0.14375348652E+03  0.00000000000E+00 0.  1.
          3    1    3    3  501    0 -0.74252391602E+02  0.10927504245E+03 -0.95189658357E+03  0.96102110194E+03  0.00000000000E+00 0.  1.
         21    1    1    2  502  501  0.21256366996E+00  0.11640833752E+00  0.63609302163E+00  0.68069710371E+00  0.00000000000E+00 0. -1.
<mgrwt>
<rscale>  1 0.64743974E+03</rscale>
<asrwt>0</asrwt>
<pdfrwt beam="1">  1        1 0.38347457E+00 0.64743974E+03</pdfrwt>
<pdfrwt beam="2">0</pdfrwt>
<totfact> 0.15847550E+00</totfact>
</mgrwt>
</event>
<event>
 6    1  0.1529677E-003  0.6467092E+03  0.7818608E-02  0.9812974E-01
          1   -1    0    0  502    0  0.00000000000E+00  0.00000000000E+00  0.10637804435E+03  0.10637804435E+03  0.00000000000E+00 0.  1.
         13   -1    0    0    0    0 -0.00000000000E+00 -0.00000000000E+00 -0.10000000000E+04  0.10000000000E+04  0.00000000000E+00 0.  1.
    9000005    2    1    2  501    0  0.12290834407E+00  0.59247834391E-01 -0.89543897950E+03  0.11045559048E+04  0.64670917905E+03 0.  0.
         13    1    3    3    0    0  0.27836575900E+03 -0.90506849080E+02 -0.68263746665E+03  0.74274685889E+03  0.00000000000E+00 0.  1.
          1    1    3    3  501    0 -0.27824285066E+03  0.90566096915E+02 -0.21280151285E+03  0.36180904594E+03  0.00000000000E+00 0.  1.
         21    1    1    2  502  501 -0.12290834407E+00 -0.59247834391E-01  0.18170238470E+01  0.18221395192E+01  0.00000000000E+00 0. -1.
<mgrwt>
<rscale>  1 0.64670919E+03</rscale>
<asrwt>0</asrwt>
<pdfrwt beam="1">  1        1 0.38683007E+00 0.64670919E+03</pdfrwt>
<pdfrwt beam="2">0</pdfrwt>
<totfact> 0.15317207E+00</totfact>
</mgrwt>
</event>
<event>
 6    1  0.1529677E-003  0.6418368E+03  0.7818608E-02  0.9822219E-01
          1   -1    0    0  502    0  0.00000000000E+00  0.00000000000E+00  0.10304724147E+03  0.10304724147E+03  0.00000000000E+00 0.  1.
         13   -1    0    0    0    0 -0.00000000000E+00 -0.00000000000E+00 -0.10000000000E+04  0.10000000000E+04  0.00000000000E+00 0.  1.
    9000005    2    1    2  501    0 -0.81380988929E-02  0.16206153766E-02 -0.89701106301E+03  0.11029883495E+04  0.64183677976E+03 0.  0.
         13    1    3    3    0    0 -0.30829727528E+03  0.72445544557E+02 -0.35928762088E+03  0.47893962186E+03  0.00000000000E+00 0.  1.
          1    1    3    3  501    0  0.30828913718E+03 -0.72443923941E+02 -0.53772344213E+03  0.62404872762E+03  0.00000000000E+00 0.  1.
         21    1    1    2  502  501  0.81380988929E-02 -0.16206153766E-02  0.58304473712E-01  0.58891991838E-01  0.00000000000E+00 0.  1.
<mgrwt>
<rscale>  1 0.64183678E+03</rscale>
<asrwt>0</asrwt>
<pdfrwt beam="1">  1        1 0.37471803E+00 0.64183678E+03</pdfrwt>
<pdfrwt beam="2">0</pdfrwt>
<totfact> 0.17339152E+00</totfact>
</mgrwt>
</event>
<event>
 6    1  0.1529677E-003  0.6467456E+03  0.7818608E-02  0.9812905E-01
          1   -1    0    0  502    0  0.00000000000E+00  0.00000000000E+00  0.10457010185E+03  0.10457010185E+03  0.00000000000E+00 0.  1.
         13   -1    0    0    0    0 -0.00000000000E+00 -0.00000000000E+00 -0.10000000000E+04  0.10000000000E+04  0.00000000000E+00 0.  1.
    9000005    2    1    2  501    0 -0.12532668611E-03  0.17489593984E-03 -0.89542990119E+03  0.11045698867E+04  0.64674564287E+03 0.  0.
         13    1    3    3    0    0 -0.63401864563E+02 -0.23031868907E+03 -0.81995423327E+03  0.85404416725E+03  0.00000000000E+00 0.  1.
          3    1    3    3  501    0  0.63401739237E+02  0.23031886397E+03 -0.75475667929E+02  0.25052571941E+03  0.00000000000E+00 0.  1.
         21    1    1    2  502  501  0.12532668611E-03 -0.17489593984E-03  0.30451394573E-05  0.21518513169E-03  0.00000000000E+00 0.  1.
<mgrwt>
<rscale>  1 0.64674564E+03</rscale>
<asrwt>0</asrwt>
<pdfrwt beam="1">  1        1 0.38025572E+00 0.64674564E+03</pdfrwt>
<pdfrwt beam="2">0</pdfrwt>
<totfact> 0.16376937E+00</totfact>
</mgrwt>
</event>
<event>
 6    1  0.1529677E-003  0.6560103E+03  0.7818608E-02  0.9795566E-01
          1   -1    0    0  502    0  0.00000000000E+00  0.00000000000E+00  0.10758738921E+03  0.10758738921E+03  0.00000000000E+00 0.  1.
         13   -1    0    0    0    0 -0.00000000000E+00 -0.00000000000E+00 -0.10000000000E+04  0.10000000000E+04  0.00000000000E+00 0.  1.
    9000005    2    1    2  501    0  0.10040463394E-04 -0.97982186276E-05 -0.89241261477E+03  0.11075873746E+04  0.65601030283E+03 0.  0.
         13    1    3    3    0    0  0.29176734080E+03 -0.62691970026E+02 -0.21638390524E+03  0.36861966675E+03  0.00000000000E+00 0.  1.
          3    1    3    3  501    0 -0.29176733076E+03  0.62691960228E+02 -0.67602870953E+03  0.73896770788E+03  0.00000000000E+00 0.  1.
         21    1    1    2  502  501 -0.10040463393E-04  0.97982186309E-05  0.39817310681E-05  0.14583215550E-04  0.00000000000E+00 0. -1.
<mgrwt>
<rscale>  1 0.65601030E+03</rscale>
<asrwt>0</asrwt>
<pdfrwt beam="1">  1        1 0.39122769E+00 0.65601030E+03</pdfrwt>
<pdfrwt beam="2">0</pdfrwt>
<totfact> 0.14619682E+00</totfact>
</mgrwt>
</event>
<event>
 6    1  0.1529677E-003  0.6520534E+03  0.7818608E-02  0.9802934E-01
          1   -1    0    0  502    0  0.00000000000E+00  0.00000000000E+00  0.10632011372E+03  0.10632011372E+03  0.00000000000E+00 0.  1.
         13   -1    0    0    0    0 -0.00000000000E+00 -0.00000000000E+00 -0.10000000000E+04  0.10000000000E+04  0.00000000000E+00 0.  1.
    9000005    2    1    2  501    0  0.10561319140E-01  0.13474993162E-01 -0.89370351631E+03  0.11062909333E+04  0.65205341330E+03 0.  0.
         13    1    3    3    0    0 -0.14215868545E+03 -0.27543588570E+03 -0.61831072924E+03  0.69165177429E+03  0.00000000000E+00 0.  1.
          1    1    3    3  501    0  0.14216924677E+03  0.27544936070E+03 -0.27539278708E+03  0.41463915904E+03  0.00000000000E+00 0.  1.
         21    1    1    2  502  501 -0.10561319140E-01 -0.13474993162E-01  0.23630036790E-01  0.29180396526E-01  0.00000000000E+00 0.  1.
<mgrwt>
<rscale>  1 0.65205341E+03</rscale>
<asrwt>0</asrwt>
<pdfrwt beam="1">  1        1 0.38661941E+00 0.65205341E+03</pdfrwt>
<pdfrwt beam="2">0</pdfrwt>
<totfact> 0.15334919E+00</totfact>
</mgrwt>
</event>
<event>
 6    1  0.1529677E-003  0.6562353E+03  0.7818608E-02  0.9795149E-01
          1   -1    0    0  502    0  0.00000000000E+00  0.00000000000E+00  0.10779188161E+03  0.10779188161E+03  0.00000000000E+00 0.  1.
         13   -1    0    0    0    0 -0.00000000000E+00 -0.00000000000E+00 -0.10000000000E+04  0.10000000000E+04  0.00000000000E+00 0.  1.
    9000005    2    1    2  501    0  0.28660664967E-02  0.15555748909E+00 -0.89228537229E+03  0.11076181735E+04  0.65623533007E+03 0.  0.
         13    1    3    3    0    0  0.43080482267E+01 -0.71840521292E+02  0.94173911686E+02  0.11852571629E+03  0.00000000000E+00 0.  1.
          3    1    3    3  501    0 -0.43051821602E+01  0.71996078781E+02 -0.98645928397E+03  0.98909245720E+03  0.00000000000E+00 0.  1.
         21    1    1    2  502  501 -0.28660664967E-02 -0.15555748909E+00  0.77253895279E-01  0.17370812037E+00  0.00000000000E+00 0.  1.
<mgrwt>
<rscale>  1 0.65623535E+03</rscale>
<asrwt>0</asrwt>
<pdfrwt beam="1">  1        1 0.39197131E+00 0.65623535E+03</pdfrwt>
<pdfrwt beam="2">0</pdfrwt>
<totfact> 0.14508389E+00</totfact>
</mgrwt>
</event>
<event>
 6    1  0.1529677E-003  0.6073419E+03  0.7818608E-02  0.9890290E-01
          1   -1    0    0  502    0  0.00000000000E+00  0.00000000000E+00  0.92243464452E+02  0.92243464452E+02  0.00000000000E+00 0.  1.
         13   -1    0    0    0    0 -0.00000000000E+00 -0.00000000000E+00 -0.10000000000E+04  0.10000000000E+04  0.00000000000E+00 0.  1.
    9000005    2    1    2  501    0  0.31094407896E-03  0.62319581713E-03 -0.90778395684E+03  0.10922160343E+04  0.60734187517E+03 0.  0.
         13    1    3    3    0    0  0.22745200476E+03  0.94321970117E+02 -0.77349951810E+03  0.81174660641E+03  0.00000000000E+00 0.  1.
          3    1    3    3  501    0 -0.22745169382E+03 -0.94321346921E+02 -0.13428443874E+03  0.28046942791E+03  0.00000000000E+00 0.  1.
         21    1    1    2  502  501 -0.31094407896E-03 -0.62319581714E-03  0.27421290513E-01  0.27430133660E-01  0.00000000000E+00 0.  1.
<mgrwt>
<rscale>  1 0.60734188E+03</rscale>
<asrwt>0</asrwt>
<pdfrwt beam="1">  1        1 0.33543149E+00 0.60734188E+03</pdfrwt>
<pdfrwt beam="2">0</pdfrwt>
<totfact> 0.25898258E+00</totfact>
</mgrwt>
</event>
<event>
 6    1  0.1529677E-003  0.6539466E+03  0.7818608E-02  0.9799402E-01
          1   -1    0    0  502    0  0.00000000000E+00  0.00000000000E+00  0.10784162344E+03  0.10784162344E+03  0.00000000000E+00 0.  1.
         13   -1    0    0    0    0 -0.00000000000E+00 -0.00000000000E+00 -0.10000000000E+04  0.10000000000E+04  0.00000000000E+00 0.  1.
    9000005    2    1    2  501    0  0.19600748562E+00 -0.74404306421E+00 -0.89290896122E+03  0.11067667298E+04  0.65394616686E+03 0.  0.
         13    1    3    3    0    0 -0.40605050301E+02 -0.23169553962E+03 -0.61811638963E+02  0.24321240080E+03  0.00000000000E+00 0.  1.
          1    1    3    3  501    0  0.40801057786E+02  0.23095149656E+03 -0.83109732225E+03  0.86355432900E+03  0.00000000000E+00 0.  1.
         21    1    1    2  502  501 -0.19600748562E+00  0.74404306421E+00  0.75058465613E+00  0.10748936421E+01  0.00000000000E+00 0.  1.
<mgrwt>
<rscale>  1 0.65394662E+03</rscale>
<asrwt>0</asrwt>
<pdfrwt beam="1">  1        1 0.39215218E+00 0.65394662E+03</pdfrwt>
<pdfrwt beam="2">0</pdfrwt>
<totfact> 0.14487757E+00</totfact>
</mgrwt>
</event>
<event>
 6    1  0.1529677E-003  0.6680048E+03  0.7818608E-02  0.9773569E-01
          1   -1    0    0  502    0  0.00000000000E+00  0.00000000000E+00  0.11155946428E+03  0.11155946428E+03  0.00000000000E+00 0.  1.
         13   -1    0    0    0    0 -0.00000000000E+00 -0.00000000000E+00 -0.10000000000E+04  0.10000000000E+04  0.00000000000E+00 0.  1.
    9000005    2    1    2  501    0 -0.69377510556E-04 -0.10597985829E-03 -0.88844239579E+03  0.11115575999E+04  0.66800479585E+03 0.  0.
         13    1    3    3    0    0  0.22986702041E+03 -0.37148489277E+02 -0.84267356389E+03  0.87425259085E+03  0.00000000000E+00 0.  1.
          1    1    3    3  501    0 -0.22986708979E+03  0.37148383297E+02 -0.45768831896E+02  0.23730500906E+03  0.00000000000E+00 0.  1.
         21    1    1    2  502  501  0.69377510547E-04  0.10597985829E-03  0.18600657495E-02  0.18643737721E-02  0.00000000000E+00 0.  1.
<mgrwt>
<rscale>  1 0.66800480E+03</rscale>
<asrwt>0</asrwt>
<pdfrwt beam="1">  1        1 0.40567163E+00 0.66800480E+03</pdfrwt>
<pdfrwt beam="2">0</pdfrwt>
<totfact> 0.12577916E+00</totfact>
</mgrwt>
</event>
<event>
 6    1  0.1529677E-003  0.6380785E+03  0.7818608E-02  0.9829410E-01
          1   -1    0    0  502    0  0.00000000000E+00  0.00000000000E+00  0.10183878769E+03  0.10183878769E+03  0.00000000000E+00 0.  1.
         13   -1    0    0    0    0 -0.00000000000E+00 -0.00000000000E+00 -0.10000000000E+04  0.10000000000E+04  0.00000000000E+00 0.  1.
    9000005    2    1    2  501    0  0.34229123495E-02  0.81784231357E-02 -0.89821356007E+03  0.11017856945E+04  0.63807845674E+03 0.  0.
         13    1    3    3    0    0 -0.27647812274E+03 -0.89488771696E+02 -0.67645413318E+03  0.73623269888E+03  0.00000000000E+00 0.  1.
          3    1    3    3  501    0  0.27648154565E+03  0.89496950119E+02 -0.22175942689E+03  0.36555299558E+03  0.00000000000E+00 0.  1.
         21    1    1    2  502  501 -0.34229123495E-02 -0.81784231357E-02  0.52347755443E-01  0.53093223992E-01  0.00000000000E+00 0.  1.
<mgrwt>
<rscale>  1 0.63807846E+03</rscale>
<asrwt>0</asrwt>
<pdfrwt beam="1">  1        1 0.37032365E+00 0.63807846E+03</pdfrwt>
<pdfrwt beam="2">0</pdfrwt>
<totfact> 0.18140413E+00</totfact>
</mgrwt>
</event>
<event>
 6    1  0.1529677E-003  0.6453026E+03  0.7818608E-02  0.9815634E-01
          1   -1    0    0  502    0  0.00000000000E+00  0.00000000000E+00  0.10646899419E+03  0.10646899419E+03  0.00000000000E+00 0.  1.
         13   -1    0    0    0    0 -0.00000000000E+00 -0.00000000000E+00 -0.10000000000E+04  0.10000000000E+04  0.00000000000E+00 0.  1.
    9000005    2    1    2  501    0 -0.12472707452E+01 -0.20042085992E+01 -0.89522796020E+03  0.11035617290E+04  0.64529823846E+03 0.  0.
         13    1    3    3    0    0 -0.11066499344E+03  0.27907081452E+03 -0.24761199220E+03  0.38915158868E+03  0.00000000000E+00 0.  1.
          3    1    3    3  501    0  0.10941772270E+03 -0.28107502312E+03 -0.64761596799E+03  0.71441014037E+03  0.00000000000E+00 0.  1.
         21    1    1    2  502  501  0.12472707452E+01  0.20042085992E+01  0.16969543832E+01  0.29072651409E+01  0.00000000000E+00 0.  1.
<mgrwt>
<rscale>  1 0.64530256E+03</rscale>
<asrwt>0</asrwt>
<pdfrwt beam="1">  1        1 0.38716080E+00 0.64530256E+03</pdfrwt>
<pdfrwt beam="2">0</pdfrwt>
<totfact> 0.15269663E+00</totfact>
</mgrwt>
</event>
<event>
 6    1  0.1529677E-003  0.6452496E+03  0.7818608E-02  0.9815734E-01
          1   -1    0    0  502    0  0.00000000000E+00  0.00000000000E+00  0.10424983598E+03  0.10424983598E+03  0.00000000000E+00 0.  1.
         13   -1    0    0    0    0 -0.00000000000E+00 -0.00000000000E+00 -0.10000000000E+04  0.10000000000E+04  0.00000000000E+00 0.  1.
    9000005    2    1    2  501    0  0.36479579915E-02 -0.18641885415E-01 -0.89591261292E+03  0.11040862803E+04  0.64524964465E+03 0.  0.
         13    1    3    3    0    0  0.10152185167E+03 -0.11562141160E+03 -0.93318531685E+03  0.94578529951E+03  0.00000000000E+00 0.  1.
          1    1    3    3  501    0 -0.10151820371E+03  0.11560276972E+03  0.37272703929E+02  0.15830098076E+03  0.00000000000E+00 0.  1.
         21    1    1    2  502  501 -0.36479579915E-02  0.18641885415E-01  0.16244889704E+00  0.16355571418E+00  0.00000000000E+00 0. -1.
<mgrwt>
<rscale>  1 0.64524964E+03</rscale>
<asrwt>0</asrwt>
<pdfrwt beam="1">  1        1 0.37909111E+00 0.64524964E+03</pdfrwt>
<pdfrwt beam="2">0</pdfrwt>
<totfact> 0.16576382E+00</totfact>
</mgrwt>
</event>
<event>
 6    1  0.1529677E-003  0.6341819E+03  0.7818608E-02  0.9836922E-01
          1   -1    0    0  502    0  0.00000000000E+00  0.00000000000E+00  0.10381548851E+03  0.10381548851E+03  0.00000000000E+00 0.  1.
         13   -1    0    0    0    0 -0.00000000000E+00 -0.00000000000E+00 -0.10000000000E+04  0.10000000000E+04  0.00000000000E+00 0.  1.
    9000005    2    1    2  501    0 -0.12251288620E-01  0.17042765189E+00 -0.89945086661E+03  0.11005446673E+04  0.63418189350E+03 0.  0.
         13    1    3    3    0    0 -0.26520596385E+03 -0.78708258241E+02 -0.18081832759E+03  0.33049124160E+03  0.00000000000E+00 0.  1.
          3    1    3    3  501    0  0.26519371257E+03  0.78878685893E+02 -0.71863253902E+03  0.77005342569E+03  0.00000000000E+00 0.  1.
         21    1    1    2  502  501  0.12251288620E-01 -0.17042765189E+00  0.32663551274E+01  0.32708212267E+01  0.00000000000E+00 0. -1.
<mgrwt>
<rscale>  1 0.63418192E+03</rscale>
<asrwt>0</asrwt>
<pdfrwt beam="1">  1        1 0.37751166E+00 0.63418192E+03</pdfrwt>
<pdfrwt beam="2">0</pdfrwt>
<totfact> 0.16878739E+00</totfact>
</mgrwt>
</event>
<event>
 6    1  0.1529677E-003  0.6500452E+03  0.7818608E-02  0.9806694E-01
          1   -1    0    0  502    0  0.00000000000E+00  0.00000000000E+00  0.13376878313E+03  0.13376878313E+03  0.00000000000E+00 0.  1.
         13   -1    0    0    0    0 -0.00000000000E+00 -0.00000000000E+00 -0.10000000000E+04  0.10000000000E+04  0.00000000000E+00 0.  1.
    9000005    2    1    2  501    0 -0.94777597294E+01  0.25034793882E+02 -0.88713623921E+03  0.10998042606E+04  0.64949375348E+03 0.  0.
         13    1    3    3    0    0 -0.26757502840E+03 -0.15750995892E+03 -0.58614654746E+03  0.66330502642E+03  0.00000000000E+00 0.  1.
          1    1    3    3  501    0  0.25809726867E+03  0.18254475280E+03 -0.30098969175E+03  0.43649923414E+03  0.00000000000E+00 0.  1.
         21    1    1    2  502  501  0.94777597294E+01 -0.25034793882E+02  0.20905022337E+02  0.33964522565E+02  0.00000000000E+00 0. -1.
<mgrwt>
<rscale>  1 0.65004516E+03</rscale>
<asrwt>0</asrwt>
<pdfrwt beam="1">  1        1 0.48643296E+00 0.65004516E+03</pdfrwt>
<pdfrwt beam="2">0</pdfrwt>
<totfact> 0.53679163E-01</totfact>
</mgrwt>
</event>
<event>
 6    1  0.1529677E-003  0.6549715E+03  0.7818608E-02  0.9797495E-01
          1   -1    0    0  502    0  0.00000000000E+00  0.00000000000E+00  0.10725325960E+03  0.10725325960E+03  0.00000000000E+00 0.  1.
         13   -1    0    0    0    0 -0.00000000000E+00 -0.00000000000E+00 -0.10000000000E+04  0.10000000000E+04  0.00000000000E+00 0.  1.
    9000005    2    1    2  501    0  0.26872376917E-03  0.18701971305E-03 -0.89275308225E+03  0.11072469093E+04  0.65497148968E+03 0.  0.
         13    1    3    3    0    0  0.17771494845E+02  0.28641385981E+03 -0.71312791061E+03  0.76870029401E+03  0.00000000000E+00 0.  1.
          1    1    3    3  501    0 -0.17771226122E+02 -0.28641367279E+03 -0.17962517164E+03  0.33854661529E+03  0.00000000000E+00 0.  1.
         21    1    1    2  502  501 -0.26872376917E-03 -0.18701971309E-03  0.63418510948E-02  0.63502963826E-02  0.00000000000E+00 0.  1.
<mgrwt>
<rscale>  1 0.65497149E+03</rscale>
<asrwt>0</asrwt>
<pdfrwt beam="1">  1        1 0.39001268E+00 0.65497149E+03</pdfrwt>
<pdfrwt beam="2">0</pdfrwt>
<totfact> 0.14805114E+00</totfact>
</mgrwt>
</event>
<event>
 6    1  0.1529677E-003  0.6560328E+03  0.7818608E-02  0.9795524E-01
          1   -1    0    0  502    0  0.00000000000E+00  0.00000000000E+00  0.10764452344E+03  0.10764452344E+03  0.00000000000E+00 0.  1.
         13   -1    0    0    0    0 -0.00000000000E+00 -0.00000000000E+00 -0.10000000000E+04  0.10000000000E+04  0.00000000000E+00 0.  1.
    9000005    2    1    2  501    0  0.38874854442E-01  0.74863004725E-01 -0.89236196948E+03  0.11075599192E+04  0.65603283673E+03 0.  0.
         13    1    3    3    0    0 -0.28220958733E+03 -0.27899372065E+02 -0.16791669796E+03  0.32957039247E+03  0.00000000000E+00 0.  1.
          1    1    3    3  501    0  0.28224846218E+03  0.27974235070E+02 -0.72444527152E+03  0.77798952670E+03  0.00000000000E+00 0.  1.
         21    1    1    2  502  501 -0.38874854442E-01 -0.74863004725E-01  0.64929134945E-02  0.84604265317E-01  0.00000000000E+00 0. -1.
<mgrwt>
<rscale>  1 0.65603284E+03</rscale>
<asrwt>0</asrwt>
<pdfrwt beam="1">  1        1 0.39143546E+00 0.65603284E+03</pdfrwt>
<pdfrwt beam="2">0</pdfrwt>
<totfact> 0.14588615E+00</totfact>
</mgrwt>
</event>
<event>
 6    1  0.1529677E-003  0.6501061E+03  0.7818608E-02  0.9806580E-01
          1   -1    0    0  502    0  0.00000000000E+00  0.00000000000E+00  0.10632782690E+03  0.10632782690E+03  0.00000000000E+00 0.  1.
         13   -1    0    0    0    0 -0.00000000000E+00 -0.00000000000E+00 -0.10000000000E+04  0.10000000000E+04  0.00000000000E+00 0.  1.
    9000005    2    1    2  501    0  0.22479938826E-01 -0.36261301249E-02 -0.89434029914E+03  0.11056593130E+04  0.65010610299E+03 0.  0.
         13    1    3    3    0    0 -0.15380399750E+03  0.13797882779E+03 -0.20410020646E+02  0.20763043011E+03  0.00000000000E+00 0.  1.
          3    1    3    3  501    0  0.15382647744E+03 -0.13798245392E+03 -0.87393027849E+03  0.89802888284E+03  0.00000000000E+00 0.  1.
         21    1    1    2  502  501 -0.22479938826E-01  0.36261301249E-02  0.66812603840E+00  0.66851394874E+00  0.00000000000E+00 0. -1.
<mgrwt>
<rscale>  1 0.65010610E+03</rscale>
<asrwt>0</asrwt>
<pdfrwt beam="1">  1        1 0.38664746E+00 0.65010610E+03</pdfrwt>
<pdfrwt beam="2">0</pdfrwt>
<totfact> 0.15336061E+00</totfact>
</mgrwt>
</event>
<event>
 6    1  0.1529677E-003  0.6495154E+03  0.7818608E-02  0.9807689E-01
          1   -1    0    0  502    0  0.00000000000E+00  0.00000000000E+00  0.10549526764E+03  0.10549526764E+03  0.00000000000E+00 0.  1.
         13   -1    0    0    0    0 -0.00000000000E+00 -0.00000000000E+00 -0.10000000000E+04  0.10000000000E+04  0.00000000000E+00 0.  1.
    9000005    2    1    2  501    0  0.17675270753E-02  0.67710993702E-03 -0.89453240796E+03  0.11054675274E+04  0.64951537720E+03 0.  0.
         13    1    3    3    0    0  0.13648970906E+03 -0.58526734630E+02  0.44289664645E+02  0.15497223539E+03  0.00000000000E+00 0.  1.
          1    1    3    3  501    0 -0.13648794153E+03  0.58527411740E+02 -0.93882207261E+03  0.95049529200E+03  0.00000000000E+00 0.  1.
         21    1    1    2  502  501 -0.17675270753E-02 -0.67710993701E-03  0.27675600258E-01  0.27740250169E-01  0.00000000000E+00 0.  1.
<mgrwt>
<rscale>  1 0.64951538E+03</rscale>
<asrwt>0</asrwt>
<pdfrwt beam="1">  1        1 0.38361996E+00 0.64951538E+03</pdfrwt>
<pdfrwt beam="2">0</pdfrwt>
<totfact> 0.15818057E+00</totfact>
</mgrwt>
</event>
<event>
 6    1  0.1529677E-003  0.6195663E+03  0.7818608E-02  0.9865624E-01
          1   -1    0    0  502    0  0.00000000000E+00  0.00000000000E+00  0.10628792789E+03  0.10628792789E+03  0.00000000000E+00 0.  1.
         13   -1    0    0    0    0 -0.00000000000E+00 -0.00000000000E+00 -0.10000000000E+04  0.10000000000E+04  0.00000000000E+00 0.  1.
    9000005    2    1    2  501    0  0.20411838702E+00  0.36574741828E+00 -0.90402973721E+03  0.10959617646E+04  0.61956617744E+03 0.  0.
         13    1    3    3    0    0  0.28749488054E+03  0.10940202704E+03 -0.38507176703E+03  0.49285127130E+03  0.00000000000E+00 0.  1.
          3    1    3    3  501    0 -0.28729076215E+03 -0.10903627962E+03 -0.51895797018E+03  0.60311049328E+03  0.00000000000E+00 0.  1.
         21    1    1    2  502  501 -0.20411838702E+00 -0.36574741828E+00  0.10317665099E+02  0.10326163304E+02  0.00000000000E+00 0. -1.
<mgrwt>
<rscale>  1 0.61956632E+03</rscale>
<asrwt>0</asrwt>
<pdfrwt beam="1">  1        1 0.38650237E+00 0.61956632E+03</pdfrwt>
<pdfrwt beam="2">0</pdfrwt>
<totfact> 0.15447771E+00</totfact>
</mgrwt>
</event>
<event>
 6    1  0.1529677E-003  0.6290196E+03  0.7818608E-02  0.9846964E-01
          3   -1    0    0  502    0  0.00000000000E+00  0.00000000000E+00  0.10258341141E+03  0.10258341141E+03  0.00000000000E+00 0.  1.
         13   -1    0    0    0    0 -0.00000000000E+00 -0.00000000000E+00 -0.10000000000E+04  0.10000000000E+04  0.00000000000E+00 0.  1.
    9000005    2    1    2  501    0 -0.52585312574E-01 -0.81539983748E-01 -0.90108288516E+03  0.10989158312E+04  0.62901957739E+03 0.  0.
         13    1    3    3    0    0  0.30690313516E+03  0.53523910982E+02 -0.52546571135E+03  0.61087523867E+03  0.00000000000E+00 0.  1.
          1    1    3    3  501    0 -0.30695572047E+03 -0.53605450965E+02 -0.37561717381E+03  0.48804059254E+03  0.00000000000E+00 0.  1.
         21    1    1    2  502  501  0.52585312574E-01  0.81539983748E-01  0.36662965650E+01  0.36675801950E+01  0.00000000000E+00 0.  1.
<mgrwt>
<rscale>  1 0.62901958E+03</rscale>
<asrwt>0</asrwt>
<pdfrwt beam="1">  1        3 0.37303137E+00 0.62901958E+03</pdfrwt>
<pdfrwt beam="2">0</pdfrwt>
<totfact> 0.82447615E-02</totfact>
</mgrwt>
</event>
<event>
 6    1  0.1529677E-003  0.6415306E+03  0.7818608E-02  0.9822802E-01
          1   -1    0    0  502    0  0.00000000000E+00  0.00000000000E+00  0.10289154438E+03  0.10289154438E+03  0.00000000000E+00 0.  1.
         13   -1    0    0    0    0 -0.00000000000E+00 -0.00000000000E+00 -0.10000000000E+04  0.10000000000E+04  0.00000000000E+00 0.  1.
    9000005    2    1    2  501    0  0.71700740619E-04  0.36843190458E-04 -0.89710960824E+03  0.11028903889E+04  0.64153063903E+03 0.  0.
         13    1    3    3    0    0  0.90909960440E+02 -0.26099228396E+03 -0.16865026316E+03  0.32376612617E+03  0.00000000000E+00 0.  1.
          3    1    3    3  501    0 -0.90909888739E+02  0.26099232081E+03 -0.72845934509E+03  0.77912426277E+03  0.00000000000E+00 0.  1.
         21    1    1    2  502  501 -0.71700740631E-04 -0.36843190470E-04  0.11526248895E-02  0.11554404151E-02  0.00000000000E+00 0. -1.
<mgrwt>
<rscale>  1 0.64153064E+03</rscale>
<asrwt>0</asrwt>
<pdfrwt beam="1">  1        1 0.37415186E+00 0.64153064E+03</pdfrwt>
<pdfrwt beam="2">0</pdfrwt>
<totfact> 0.17439889E+00</totfact>
</mgrwt>
</event>
<event>
 6    1  0.1529677E-003  0.6382834E+03  0.7818608E-02  0.9829016E-01
          1   -1    0    0  502    0  0.00000000000E+00  0.00000000000E+00  0.10511388535E+03  0.10511388535E+03  0.00000000000E+00 0.  1.
         13   -1    0    0    0    0 -0.00000000000E+00 -0.00000000000E+00 -0.10000000000E+04  0.10000000000E+04  0.00000000000E+00 0.  1.
    9000005    2    1    2  501    0  0.76089253820E-01 -0.44342145867E+00 -0.89813147508E+03  0.11018374885E+04  0.63828324595E+03 0.  0.
         13    1    3    3    0    0  0.27140326466E+03 -0.15580343161E+03 -0.33999504053E+03  0.46209422086E+03  0.00000000000E+00 0.  1.
          3    1    3    3  501    0 -0.27132717541E+03  0.15536001015E+03 -0.55813643456E+03  0.63974326761E+03  0.00000000000E+00 0.  1.
         21    1    1    2  502  501 -0.76089253820E-01  0.44342145867E+00  0.32453604375E+01  0.32763968828E+01  0.00000000000E+00 0. -1.
<mgrwt>
<rscale>  1 0.63828340E+03</rscale>
<asrwt>0</asrwt>
<pdfrwt beam="1">  1        1 0.38223312E+00 0.63828340E+03</pdfrwt>
<pdfrwt beam="2">0</pdfrwt>
<totfact> 0.16076256E+00</totfact>
</mgrwt>
</event>
<event>
 6    1  0.1529677E-003  0.6504834E+03  0.7818608E-02  0.9805872E-01
          1   -1    0    0  502    0  0.00000000000E+00  0.00000000000E+00  0.10909865081E+03  0.10909865081E+03  0.00000000000E+00 0.  1.
         13   -1    0    0    0    0 -0.00000000000E+00 -0.00000000000E+00 -0.10000000000E+04  0.10000000000E+04  0.00000000000E+00 0.  1.
    9000005    2    1    2  501    0 -0.67797012689E+00  0.13293897557E+01 -0.89403118978E+03  0.11056312566E+04  0.65048172942E+03 0.  0.
         13    1    3    3    0    0 -0.29733329558E+03 -0.35484688158E+01 -0.22220462296E+03  0.37120691636E+03  0.00000000000E+00 0.  1.
          3    1    3    3  501    0  0.29665532545E+03  0.48778585714E+01 -0.67182656682E+03  0.73442434022E+03  0.00000000000E+00 0.  1.
         21    1    1    2  502  501  0.67797012689E+00 -0.13293897557E+01  0.31298405940E+01  0.34673942318E+01  0.00000000000E+00 0.  1.
<mgrwt>
<rscale>  1 0.65048344E+03</rscale>
<asrwt>0</asrwt>
<pdfrwt beam="1">  1        1 0.39672320E+00 0.65048344E+03</pdfrwt>
<pdfrwt beam="2">0</pdfrwt>
<totfact> 0.13834638E+00</totfact>
</mgrwt>
</event>
<event>
 6    1  0.1529677E-003  0.6597116E+03  0.7818608E-02  0.9788725E-01
          1   -1    0    0  502    0  0.00000000000E+00  0.00000000000E+00  0.11453269703E+03  0.11453269703E+03  0.00000000000E+00 0.  1.
         13   -1    0    0    0    0 -0.00000000000E+00 -0.00000000000E+00 -0.10000000000E+04  0.10000000000E+04  0.00000000000E+00 0.  1.
    9000005    2    1    2  501    0  0.38310257266E+01  0.11199868142E+02 -0.88334775108E+03  0.11025074609E+04  0.65960544125E+03 0.  0.
         13    1    3    3    0    0 -0.24877110129E+03 -0.15745687226E+03 -0.66852682908E+03  0.73048466696E+03  0.00000000000E+00 0.  1.
          3    1    3    3  501    0  0.25260212702E+03  0.16865674040E+03 -0.21482092200E+03  0.37202279391E+03  0.00000000000E+00 0.  1.
         21    1    1    2  502  501 -0.38310257266E+01 -0.11199868142E+02 -0.21195518874E+01  0.12025236161E+02  0.00000000000E+00 0.  1.
<mgrwt>
<rscale>  1 0.65971164E+03</rscale>
<asrwt>0</asrwt>
<pdfrwt beam="1">  1        1 0.41648341E+00 0.65971164E+03</pdfrwt>
<pdfrwt beam="2">0</pdfrwt>
<totfact> 0.11266155E+00</totfact>
</mgrwt>
</event>
<event>
 6    1  0.1529677E-003  0.6633589E+03  0.7818608E-02  0.9782030E-01
          1   -1    0    0  502    0  0.00000000000E+00  0.00000000000E+00  0.11002556375E+03  0.11002556375E+03  0.00000000000E+00 0.  1.
         13   -1    0    0    0    0 -0.00000000000E+00 -0.00000000000E+00 -0.10000000000E+04  0.10000000000E+04  0.00000000000E+00 0.  1.
    9000005    2    1    2  501    0  0.54265787949E-03 -0.26064516588E-02 -0.88998860088E+03  0.11100111511E+04  0.66335891178E+03 0.  0.
         13    1    3    3    0    0  0.21380108799E+03  0.23382548948E+03 -0.28082455050E+03  0.42337653799E+03  0.00000000000E+00 0.  1.
          3    1    3    3  501    0 -0.21380054533E+03 -0.23382809593E+03 -0.60916405038E+03  0.68663461310E+03  0.00000000000E+00 0.  1.
         21    1    1    2  502  501 -0.54265787950E-03  0.26064516588E-02  0.14164628311E-01  0.14412659817E-01  0.00000000000E+00 0.  1.
<mgrwt>
<rscale>  1 0.66335891E+03</rscale>
<asrwt>0</asrwt>
<pdfrwt beam="1">  1        1 0.40009380E+00 0.66335891E+03</pdfrwt>
<pdfrwt beam="2">0</pdfrwt>
<totfact> 0.13332213E+00</totfact>
</mgrwt>
</event>
<event>
 6    1  0.1529677E-003  0.6451283E+03  0.7818608E-02  0.9815964E-01
          1   -1    0    0  502    0  0.00000000000E+00  0.00000000000E+00  0.10823818790E+03  0.10823818790E+03  0.00000000000E+00 0.  1.
         13   -1    0    0    0    0 -0.00000000000E+00 -0.00000000000E+00 -0.10000000000E+04  0.10000000000E+04  0.00000000000E+00 0.  1.
    9000005    2    1    2  501    0 -0.56099618324E+01 -0.99533645788E-01 -0.89377126555E+03  0.11022783656E+04  0.64510389749E+03 0.  0.
         13    1    3    3    0    0 -0.18476918228E+03  0.20532631951E+03 -0.73875370861E+03  0.78870500835E+03  0.00000000000E+00 0.  1.
          3    1    3    3  501    0  0.17915922045E+03 -0.20542585315E+03 -0.15501755694E+03  0.31357335725E+03  0.00000000000E+00 0.  1.
         21    1    1    2  502  501  0.56099618324E+01  0.99533645788E-01  0.20094534459E+01  0.59598223009E+01  0.00000000000E+00 0. -1.
<mgrwt>
<rscale>  1 0.64512830E+03</rscale>
<asrwt>0</asrwt>
<pdfrwt beam="1">  1        1 0.39359424E+00 0.64512830E+03</pdfrwt>
<pdfrwt beam="2">0</pdfrwt>
<totfact> 0.14299375E+00</totfact>
</mgrwt>
</event>
<event>
 6    1  0.1529677E-003  0.6561328E+03  0.7818608E-02  0.9795339E-01
          1   -1    0    0  502    0  0.00000000000E+00  0.00000000000E+00  0.10762822737E+03  0.10762822737E+03  0.00000000000E+00 0.  1.
         13   -1    0    0    0    0 -0.00000000000E+00 -0.00000000000E+00 -0.10000000000E+04  0.10000000000E+04  0.00000000000E+00 0.  1.
    9000005    2    1    2  501    0  0.11943118920E-05 -0.11162558722E-03 -0.89237243701E+03  0.11076275537E+04  0.65613278484E+03 0.  0.
         13    1    3    3    0    0  0.30981575764E+03 -0.10734693089E+03 -0.42781733994E+03  0.53901469702E+03  0.00000000000E+00 0.  1.
          1    1    3    3  501    0 -0.30981575644E+03  0.10734681926E+03 -0.46455509707E+03  0.56861285666E+03  0.00000000000E+00 0.  1.
         21    1    1    2  502  501 -0.11943118991E-05  0.11162558722E-03  0.66438221494E-03  0.67369535075E-03  0.00000000000E+00 0. -1.
<mgrwt>
<rscale>  1 0.65613278E+03</rscale>
<asrwt>0</asrwt>
<pdfrwt beam="1">  1        1 0.39137620E+00 0.65613278E+03</pdfrwt>
<pdfrwt beam="2">0</pdfrwt>
<totfact> 0.14597181E+00</totfact>
</mgrwt>
</event>
<event>
 6    1  0.1529677E-003  0.6526389E+03  0.7818608E-02  0.9801840E-01
          1   -1    0    0  502    0  0.00000000000E+00  0.00000000000E+00  0.10668458198E+03  0.10668458198E+03  0.00000000000E+00 0.  1.
         13   -1    0    0    0    0 -0.00000000000E+00 -0.00000000000E+00 -0.10000000000E+04  0.10000000000E+04  0.00000000000E+00 0.  1.
    9000005    2    1    2  501    0  0.16450057597E-01  0.32820361567E-01 -0.89351373744E+03  0.11064828932E+04  0.65263894501E+03 0.  0.
         13    1    3    3    0    0 -0.12195738916E+02  0.26781492999E+03 -0.13132412702E+03  0.29852905908E+03  0.00000000000E+00 0.  1.
          3    1    3    3  501    0  0.12212188973E+02 -0.26778210963E+03 -0.76218961042E+03  0.80795383410E+03  0.00000000000E+00 0.  1.
         21    1    1    2  502  501 -0.16450057597E-01 -0.32820361567E-01  0.19831942652E+00  0.20168880847E+00  0.00000000000E+00 0.  1.
<mgrwt>
<rscale>  1 0.65263895E+03</rscale>
<asrwt>0</asrwt>
<pdfrwt beam="1">  1        1 0.38794475E+00 0.65263895E+03</pdfrwt>
<pdfrwt beam="2">0</pdfrwt>
<totfact> 0.15127433E+00</totfact>
</mgrwt>
</event>
<event>
 6    1  0.1529677E-003  0.6547802E+03  0.7818608E-02  0.9797851E-01
          1   -1    0    0  502    0  0.00000000000E+00  0.00000000000E+00  0.10736926823E+03  0.10736926823E+03  0.00000000000E+00 0.  1.
         13   -1    0    0    0    0 -0.00000000000E+00 -0.00000000000E+00 -0.10000000000E+04  0.10000000000E+04  0.00000000000E+00 0.  1.
    9000005    2    1    2  501    0  0.12523166852E+00 -0.30411791942E-01 -0.89279054806E+03  0.11071639658E+04  0.65478016754E+03 0.  0.
         13    1    3    3    0    0  0.54462764725E+02  0.30715866406E+03 -0.61436912245E+03  0.68902979345E+03  0.00000000000E+00 0.  1.
          1    1    3    3  501    0 -0.54337533056E+02 -0.30718907586E+03 -0.27842142562E+03  0.41813417233E+03  0.00000000000E+00 0.  1.
         21    1    1    2  502  501 -0.12523166852E+00  0.30411791942E-01  0.15981629553E+00  0.20530245056E+00  0.00000000000E+00 0.  1.
<mgrwt>
<rscale>  1 0.65478018E+03</rscale>
<asrwt>0</asrwt>
<pdfrwt beam="1">  1        1 0.39043453E+00 0.65478018E+03</pdfrwt>
<pdfrwt beam="2">0</pdfrwt>
<totfact> 0.14741991E+00</totfact>
</mgrwt>
</event>
<event>
 6    1  0.1529677E-003  0.6607166E+03  0.7818608E-02  0.9786875E-01
          1   -1    0    0  502    0  0.00000000000E+00  0.00000000000E+00  0.11201288054E+03  0.11201288054E+03  0.00000000000E+00 0.  1.
         13   -1    0    0    0    0 -0.00000000000E+00 -0.00000000000E+00 -0.10000000000E+04  0.10000000000E+04  0.00000000000E+00 0.  1.
    9000005    2    1    2  501    0  0.17891606997E+00  0.13320677945E+00 -0.89085859055E+03  0.11091327588E+04  0.66071657960E+03 0.  0.
         13    1    3    3    0    0 -0.83367212240E+02  0.26992939168E+03 -0.73303997637E+03  0.78559504551E+03  0.00000000000E+00 0.  1.
          1    1    3    3  501    0  0.83546128310E+02 -0.26979618490E+03 -0.15781861417E+03  0.32353771329E+03  0.00000000000E+00 0.  1.
         21    1    1    2  502  501 -0.17891606997E+00 -0.13320677945E+00  0.28714710836E+01  0.28801217318E+01  0.00000000000E+00 0.  1.
<mgrwt>
<rscale>  1 0.66071662E+03</rscale>
<asrwt>0</asrwt>
<pdfrwt beam="1">  1        1 0.40732042E+00 0.66071662E+03</pdfrwt>
<pdfrwt beam="2">0</pdfrwt>
<totfact> 0.12383049E+00</totfact>
</mgrwt>
</event>
<event>
 6    1  0.1529677E-003  0.6472789E+03  0.7818608E-02  0.9811899E-01
          1   -1    0    0  502    0  0.00000000000E+00  0.00000000000E+00  0.10474633129E+03  0.10474633129E+03  0.00000000000E+00 0.  1.
         13   -1    0    0    0    0 -0.00000000000E+00 -0.00000000000E+00 -0.10000000000E+04  0.10000000000E+04  0.00000000000E+00 0.  1.
    9000005    2    1    2  501    0 -0.10853248688E-01  0.48725619731E-02 -0.89523680242E+03  0.11047256914E+04  0.64727885847E+03 0.  0.
         13    1    3    3    0    0 -0.29313114775E+03  0.11193814144E+03 -0.58298778510E+03  0.66206553669E+03  0.00000000000E+00 0.  1.
          3    1    3    3  501    0  0.29312029450E+03 -0.11193326888E+03 -0.31224901732E+03  0.44266015469E+03  0.00000000000E+00 0.  1.
         21    1    1    2  502  501  0.10853248688E-01 -0.48725619731E-02 -0.16866281814E-01  0.20639920773E-01  0.00000000000E+00 0. -1.
<mgrwt>
<rscale>  1 0.64727886E+03</rscale>
<asrwt>0</asrwt>
<pdfrwt beam="1">  1        1 0.38089655E+00 0.64727886E+03</pdfrwt>
<pdfrwt beam="2">0</pdfrwt>
<totfact> 0.16269034E+00</totfact>
</mgrwt>
</event>
<event>
 6    1  0.1529677E-003  0.6219115E+03  0.7818608E-02  0.9860961E-01
          1   -1    0    0  502    0  0.00000000000E+00  0.00000000000E+00  0.96694637807E+02  0.96694637807E+02  0.00000000000E+00 0.  1.
         13   -1    0    0    0    0 -0.00000000000E+00 -0.00000000000E+00 -0.10000000000E+04  0.10000000000E+04  0.00000000000E+00 0.  1.
    9000005    2    1    2  501    0  0.48744360322E-03  0.92793739043E-03 -0.90330627324E+03  0.10966932490E+04  0.62191145610E+03 0.  0.
         13    1    3    3    0    0  0.29041825105E+03  0.11087885042E+03 -0.43836010927E+03  0.53739786510E+03  0.00000000000E+00 0.  1.
          1    1    3    3  501    0 -0.29041776361E+03 -0.11087792248E+03 -0.46494616396E+03  0.55929538394E+03  0.00000000000E+00 0.  1.
         21    1    1    2  502  501 -0.48744360318E-03 -0.92793739042E-03  0.91104303258E-03  0.13887650896E-02  0.00000000000E+00 0. -1.
<mgrwt>
<rscale>  1 0.62191146E+03</rscale>
<asrwt>0</asrwt>
<pdfrwt beam="1">  1        1 0.35161761E+00 0.62191146E+03</pdfrwt>
<pdfrwt beam="2">0</pdfrwt>
<totfact> 0.21966630E+00</totfact>
</mgrwt>
</event>
<event>
 6    1  0.1529677E-003  0.6429883E+03  0.7818608E-02  0.9820026E-01
          1   -1    0    0  502    0  0.00000000000E+00  0.00000000000E+00  0.10335887492E+03  0.10335887492E+03  0.00000000000E+00 0.  1.
         13   -1    0    0    0    0 -0.00000000000E+00 -0.00000000000E+00 -0.10000000000E+04  0.10000000000E+04  0.00000000000E+00 0.  1.
    9000005    2    1    2  501    0 -0.54284613995E-04 -0.82630837937E-04 -0.89664149235E+03  0.11033584946E+04  0.64298833719E+03 0.  0.
         13    1    3    3    0    0 -0.48853133847E+02  0.15471219009E+03 -0.92459860131E+03  0.93872523349E+03  0.00000000000E+00 0.  1.
          1    1    3    3  501    0  0.48853079562E+02 -0.15471227272E+03  0.27957108965E+02  0.16463326108E+03  0.00000000000E+00 0.  1.
         21    1    1    2  502  501  0.54284613992E-04  0.82630837953E-04  0.36727226136E-03  0.38034666905E-03  0.00000000000E+00 0.  1.
<mgrwt>
<rscale>  1 0.64298834E+03</rscale>
<asrwt>0</asrwt>
<pdfrwt beam="1">  1        1 0.37585125E+00 0.64298834E+03</pdfrwt>
<pdfrwt beam="2">0</pdfrwt>
<totfact> 0.17137501E+00</totfact>
</mgrwt>
</event>
<event>
 6    1  0.1529677E-003  0.6405281E+03  0.7818608E-02  0.9824717E-01
          1   -1    0    0  502    0  0.00000000000E+00  0.00000000000E+00  0.10276965956E+03  0.10276965956E+03  0.00000000000E+00 0.  1.
         13   -1    0    0    0    0 -0.00000000000E+00 -0.00000000000E+00 -0.10000000000E+04  0.10000000000E+04  0.00000000000E+00 0.  1.
    9000005    2    1    2  501    0 -0.12012579796E-01 -0.37860133701E-02 -0.89743073533E+03  0.11025688692E+04  0.64052805290E+03 0.  0.
         13    1    3    3    0    0 -0.93053474431E+02 -0.15952320617E+03 -0.89912001526E+03  0.91789073655E+03  0.00000000000E+00 0.  1.
          3    1    3    3  501    0  0.93041461851E+02  0.15951942016E+03  0.16892799228E+01  0.18467813270E+03  0.00000000000E+00 0.  1.
         21    1    1    2  502  501  0.12012579796E-01  0.37860133701E-02  0.20039489095E+00  0.20079030926E+00  0.00000000000E+00 0.  1.
<mgrwt>
<rscale>  1 0.64052805E+03</rscale>
<asrwt>0</asrwt>
<pdfrwt beam="1">  1        1 0.37370864E+00 0.64052805E+03</pdfrwt>
<pdfrwt beam="2">0</pdfrwt>
<totfact> 0.17521582E+00</totfact>
</mgrwt>
</event>
<event>
 6    1  0.1529677E-003  0.6543605E+03  0.7818608E-02  0.9798631E-01
          1   -1    0    0  502    0  0.00000000000E+00  0.00000000000E+00  0.10706970099E+03  0.10706970099E+03  0.00000000000E+00 0.  1.
         13   -1    0    0    0    0 -0.00000000000E+00 -0.00000000000E+00 -0.10000000000E+04  0.10000000000E+04  0.00000000000E+00 0.  1.
    9000005    2    1    2  501    0 -0.27511672107E-02 -0.69197325011E-02 -0.89295242368E+03  0.11070463568E+04  0.65436045496E+03 0.  0.
         13    1    3    3    0    0  0.28973279045E+03 -0.14876473472E+03 -0.49919727319E+03  0.59604861691E+03  0.00000000000E+00 0.  1.
          3    1    3    3  501    0 -0.28973554162E+03  0.14875781499E+03 -0.39375515049E+03  0.51099773985E+03  0.00000000000E+00 0.  1.
         21    1    1    2  502  501  0.27511672107E-02  0.69197325011E-02  0.22124676854E-01  0.23344227226E-01  0.00000000000E+00 0. -1.
<mgrwt>
<rscale>  1 0.65436046E+03</rscale>
<asrwt>0</asrwt>
<pdfrwt beam="1">  1        1 0.38934519E+00 0.65436046E+03</pdfrwt>
<pdfrwt beam="2">0</pdfrwt>
<totfact> 0.14908042E+00</totfact>
</mgrwt>
</event>
<event>
 6    1  0.1566497E-003  0.5822518E+03  0.7818608E-02  0.9942928E-01
          1   -1    0    0  502    0  0.00000000000E+00  0.00000000000E+00  0.84754354493E+02  0.84754354493E+02  0.00000000000E+00 0.  1.
         13   -1    0    0    0    0 -0.00000000000E+00 -0.00000000000E+00 -0.10000000000E+04  0.10000000000E+04  0.00000000000E+00 0.  1.
    9000005    2    1    2  501    0  0.75856781280E-04  0.27786677515E-04 -0.91524569805E+03  0.10847542581E+04  0.58225176060E+03 0.  0.
         13    1    3    3    0    0 -0.28919890492E+03 -0.86342448005E+01 -0.39743502209E+03  0.49159450116E+03  0.00000000000E+00 0.  1.
          1    1    3    3  501    0  0.28919898077E+03  0.86342725872E+01 -0.51781067596E+03  0.59315975696E+03  0.00000000000E+00 0.  1.
         21    1    1    2  502  501 -0.75856781225E-04 -0.27786677514E-04  0.52542398408E-04  0.96369364092E-04  0.00000000000E+00 0.  1.
<mgrwt>
<rscale>  1 0.58225176E+03</rscale>
<asrwt>0</asrwt>
<pdfrwt beam="1">  1        1 0.30819830E+00 0.58225176E+03</pdfrwt>
<pdfrwt beam="2">0</pdfrwt>
<totfact> 0.34119241E+00</totfact>
</mgrwt>
</event>
<event>
 6    1  0.1529677E-003  0.6468671E+03  0.7818608E-02  0.9812676E-01
          1   -1    0    0  502    0  0.00000000000E+00  0.00000000000E+00  0.15442937290E+03  0.15442937290E+03  0.00000000000E+00 0.  1.
         13   -1    0    0    0    0 -0.00000000000E+00 -0.00000000000E+00 -0.10000000000E+04  0.10000000000E+04  0.00000000000E+00 0.  1.
    9000005    2    1    2  501    0  0.82687496884E+01  0.76415929018E+01 -0.89468708829E+03  0.11040389678E+04  0.64676911675E+03 0.  0.
         13    1    3    3    0    0  0.21819129167E+03 -0.23047245692E+03 -0.34120829044E+03  0.46599151347E+03  0.00000000000E+00 0.  1.
          1    1    3    3  501    0 -0.20992254198E+03  0.23811404982E+03 -0.55347879784E+03  0.63804745436E+03  0.00000000000E+00 0.  1.
         21    1    1    2  502  501 -0.82687496884E+01 -0.76415929018E+01  0.49116461184E+02  0.50390405066E+02  0.00000000000E+00 0.  1.
<mgrwt>
<rscale>  1 0.64686711E+03</rscale>
<asrwt>0</asrwt>
<pdfrwt beam="1">  1        1 0.56156254E+00 0.64686711E+03</pdfrwt>
<pdfrwt beam="2">0</pdfrwt>
<totfact> 0.22863503E-01</totfact>
</mgrwt>
</event>
<event>
 6    1  0.1529677E-003  0.6533144E+03  0.7818608E-02  0.9800580E-01
          1   -1    0    0  502    0  0.00000000000E+00  0.00000000000E+00  0.10722535439E+03  0.10722535439E+03  0.00000000000E+00 0.  1.
         13   -1    0    0    0    0 -0.00000000000E+00 -0.00000000000E+00 -0.10000000000E+04  0.10000000000E+04  0.00000000000E+00 0.  1.
    9000005    2    1    2  501    0  0.50217919630E-01 -0.50512896328E-01 -0.89329236405E+03  0.11067027592E+04  0.65331442997E+03 0.  0.
         13    1    3    3    0    0  0.14684890437E+03 -0.12951354219E+03 -0.37047518421E+01  0.19583687986E+03  0.00000000000E+00 0.  1.
          1    1    3    3  501    0 -0.14679868645E+03  0.12946302930E+03 -0.88958761220E+03  0.91086587931E+03  0.00000000000E+00 0.  1.
         21    1    1    2  502  501 -0.50217919630E-01  0.50512896328E-01  0.51771843579E+00  0.52259522664E+00  0.00000000000E+00 0.  1.
<mgrwt>
<rscale>  1 0.65331443E+03</rscale>
<asrwt>0</asrwt>
<pdfrwt beam="1">  1        1 0.38991120E+00 0.65331443E+03</pdfrwt>
<pdfrwt beam="2">0</pdfrwt>
<totfact> 0.14825020E+00</totfact>
</mgrwt>
</event>
<event>
 6    1  0.1529677E-003  0.6558313E+03  0.7818608E-02  0.9795898E-01
          1   -1    0    0  502    0  0.00000000000E+00  0.00000000000E+00  0.10757084376E+03  0.10757084376E+03  0.00000000000E+00 0.  1.
         13   -1    0    0    0    0 -0.00000000000E+00 -0.00000000000E+00 -0.10000000000E+04  0.10000000000E+04  0.00000000000E+00 0.  1.
    9000005    2    1    2  501    0  0.31793110953E-02  0.12852249067E+00 -0.89225799575E+03  0.11073567782E+04  0.65583129445E+03 0.  0.
         13    1    3    3    0    0  0.13911669410E+03  0.20043835887E+03 -0.76156607495E+02  0.25559502958E+03  0.00000000000E+00 0.  1.
          1    1    3    3  501    0 -0.13911351479E+03 -0.20030983638E+03 -0.81610138825E+03  0.85176174865E+03  0.00000000000E+00 0.  1.
         21    1    1    2  502  501 -0.31793110953E-02 -0.12852249067E+00 -0.17116049053E+00  0.21406553236E+00  0.00000000000E+00 0.  1.
<mgrwt>
<rscale>  1 0.65583131E+03</rscale>
<asrwt>0</asrwt>
<pdfrwt beam="1">  1        1 0.39116753E+00 0.65583131E+03</pdfrwt>
<pdfrwt beam="2">0</pdfrwt>
<totfact> 0.14629158E+00</totfact>
</mgrwt>
</event>
<event>
 6    1  0.1529677E-003  0.6536885E+03  0.7818608E-02  0.9799883E-01
          1   -1    0    0  502    0  0.00000000000E+00  0.00000000000E+00  0.10824050202E+03  0.10824050202E+03  0.00000000000E+00 0.  1.
         13   -1    0    0    0    0 -0.00000000000E+00 -0.00000000000E+00 -0.10000000000E+04  0.10000000000E+04  0.00000000000E+00 0.  1.
    9000005    2    1    2  501    0 -0.97349637462E-02 -0.20694449784E-01 -0.89317274242E+03  0.11068270726E+04  0.65368847337E+03 0.  0.
         13    1    3    3    0    0  0.19609343003E+03 -0.20411332912E+02 -0.51915575837E+01  0.19722121611E+03  0.00000000000E+00 0.  1.
          3    1    3    3  501    0 -0.19610316500E+03  0.20390638462E+02 -0.88798118483E+03  0.90960585644E+03  0.00000000000E+00 0.  1.
         21    1    1    2  502  501  0.97349637461E-02  0.20694449784E-01  0.14132444362E+01  0.14134294698E+01  0.00000000000E+00 0.  1.
<mgrwt>
<rscale>  1 0.65368847E+03</rscale>
<asrwt>0</asrwt>
<pdfrwt beam="1">  1        1 0.39360266E+00 0.65368847E+03</pdfrwt>
<pdfrwt beam="2">0</pdfrwt>
<totfact> 0.14275141E+00</totfact>
</mgrwt>
</event>
<event>
 6    1  0.1529677E-003  0.6435119E+03  0.7818608E-02  0.9819030E-01
          1   -1    0    0  502    0  0.00000000000E+00  0.00000000000E+00  0.10624271058E+03  0.10624271058E+03  0.00000000000E+00 0.  1.
         13   -1    0    0    0    0 -0.00000000000E+00 -0.00000000000E+00 -0.10000000000E+04  0.10000000000E+04  0.00000000000E+00 0.  1.
    9000005    2    1    2  501    0  0.23170052252E+00  0.71621492576E-01 -0.89646714046E+03  0.11035220292E+04  0.64351183057E+03 0.  0.
         13    1    3    3    0    0 -0.27099231679E+03  0.99021015182E+02 -0.20421200794E+03  0.35347495158E+03  0.00000000000E+00 0.  1.
          3    1    3    3  501    0  0.27122401731E+03 -0.98949393690E+02 -0.69225513252E+03  0.75004707757E+03  0.00000000000E+00 0.  1.
         21    1    1    2  502  501 -0.23170052252E+00 -0.71621492576E-01  0.27098510416E+01  0.27206814290E+01  0.00000000000E+00 0.  1.
<mgrwt>
<rscale>  1 0.64351188E+03</rscale>
<asrwt>0</asrwt>
<pdfrwt beam="1">  1        1 0.38633794E+00 0.64351188E+03</pdfrwt>
<pdfrwt beam="2">0</pdfrwt>
<totfact> 0.15403403E+00</totfact>
</mgrwt>
</event>
<event>
 6    1  0.1529677E-003  0.6344378E+03  0.7818608E-02  0.9836427E-01
          1   -1    0    0  502    0  0.00000000000E+00  0.00000000000E+00  0.10064332955E+03  0.10064332955E+03  0.00000000000E+00 0.  1.
         13   -1    0    0    0    0 -0.00000000000E+00 -0.00000000000E+00 -0.10000000000E+04  0.10000000000E+04  0.00000000000E+00 0.  1.
    9000005    2    1    2  501    0 -0.71718151926E-02 -0.11040015342E-01 -0.89936905271E+03  0.11006252564E+04  0.63443775264E+03 0.  0.
         13    1    3    3    0    0  0.79031461555E+02  0.27615371178E+03 -0.68318234816E+03  0.74111062959E+03  0.00000000000E+00 0.  1.
          3    1    3    3  501    0 -0.79038633370E+02 -0.27616475179E+03 -0.21618670455E+03  0.35951462685E+03  0.00000000000E+00 0.  1.
         21    1    1    2  502  501  0.71718151926E-02  0.11040015342E-01  0.12382256230E-01  0.18073105468E-01  0.00000000000E+00 0. -1.
<mgrwt>
<rscale>  1 0.63443775E+03</rscale>
<asrwt>0</asrwt>
<pdfrwt beam="1">  1        1 0.36597652E+00 0.63443775E+03</pdfrwt>
<pdfrwt beam="2">0</pdfrwt>
<totfact> 0.18967545E+00</totfact>
</mgrwt>
</event>
<event>
 6    1  0.1529677E-003  0.6569760E+03  0.7818608E-02  0.9793777E-01
          1   -1    0    0  502    0  0.00000000000E+00  0.00000000000E+00  0.10790439709E+03  0.10790439709E+03  0.00000000000E+00 0.  1.
         13   -1    0    0    0    0 -0.00000000000E+00 -0.00000000000E+00 -0.10000000000E+04  0.10000000000E+04  0.00000000000E+00 0.  1.
    9000005    2    1    2  501    0 -0.26724036104E-04 -0.62439002022E-05 -0.89209562757E+03  0.11079043602E+04  0.65697599850E+03 0.  0.
         13    1    3    3    0    0  0.20686864527E+03 -0.24007752477E+03 -0.30027183453E+03  0.43657190577E+03  0.00000000000E+00 0.  1.
          1    1    3    3  501    0 -0.20686867199E+03  0.24007751853E+03 -0.59182379304E+03  0.67133245442E+03  0.00000000000E+00 0.  1.
         21    1    1    2  502  501  0.26724036122E-04  0.62439001842E-05  0.24656000223E-04  0.36892800696E-04  0.00000000000E+00 0.  1.
<mgrwt>
<rscale>  1 0.65697600E+03</rscale>
<asrwt>0</asrwt>
<pdfrwt beam="1">  1        1 0.39238045E+00 0.65697600E+03</pdfrwt>
<pdfrwt beam="2">0</pdfrwt>
<totfact> 0.14445841E+00</totfact>
</mgrwt>
</event>
<event>
 6    1  0.1529677E-003  0.6621539E+03  0.7818608E-02  0.9784237E-01
          1   -1    0    0  502    0  0.00000000000E+00  0.00000000000E+00  0.10964564976E+03  0.10964564976E+03  0.00000000000E+00 0.  1.
         13   -1    0    0    0    0 -0.00000000000E+00 -0.00000000000E+00 -0.10000000000E+04  0.10000000000E+04  0.00000000000E+00 0.  1.
    9000005    2    1    2  501    0  0.32894340422E-01  0.27295658127E-01 -0.89037229132E+03  0.11095992927E+04  0.66215388807E+03 0.  0.
         13    1    3    3    0    0 -0.10053793073E+03 -0.24985162447E+03 -0.76779757406E+03  0.81366259868E+03  0.00000000000E+00 0.  1.
          3    1    3    3  501    0  0.10057082507E+03  0.24987892013E+03 -0.12257471726E+03  0.29593669406E+03  0.00000000000E+00 0.  1.
         21    1    1    2  502  501 -0.32894340422E-01 -0.27295658127E-01  0.17941075723E-01  0.46357014383E-01  0.00000000000E+00 0.  1.
<mgrwt>
<rscale>  1 0.66215389E+03</rscale>
<asrwt>0</asrwt>
<pdfrwt beam="1">  1        1 0.39871229E+00 0.66215389E+03</pdfrwt>
<pdfrwt beam="2">0</pdfrwt>
<totfact> 0.13525664E+00</totfact>
</mgrwt>
</event>
<event>
 6    1  0.1529677E-003  0.6479263E+03  0.7818608E-02  0.9810678E-01
          1   -1    0    0  502    0  0.00000000000E+00  0.00000000000E+00  0.10495223028E+03  0.10495223028E+03  0.00000000000E+00 0.  1.
         13   -1    0    0    0    0 -0.00000000000E+00 -0.00000000000E+00 -0.10000000000E+04  0.10000000000E+04  0.00000000000E+00 0.  1.
    9000005    2    1    2  501    0  0.58806396055E-04 -0.83715467952E-04 -0.89504783762E+03  0.11049521075E+04  0.64792632931E+03 0.  0.
         13    1    3    3    0    0  0.20132563620E+03 -0.25146472822E+03 -0.38880279072E+03  0.50491002308E+03  0.00000000000E+00 0.  1.
          3    1    3    3  501    0 -0.20132557740E+03  0.25146464450E+03 -0.50624504691E+03  0.60004208441E+03  0.00000000000E+00 0.  1.
         21    1    1    2  502  501 -0.58806396038E-04  0.83715467936E-04  0.67905958268E-04  0.12279124951E-03  0.00000000000E+00 0.  1.
<mgrwt>
<rscale>  1 0.64792633E+03</rscale>
<asrwt>0</asrwt>
<pdfrwt beam="1">  1        1 0.38164528E+00 0.64792633E+03</pdfrwt>
<pdfrwt beam="2">0</pdfrwt>
<totfact> 0.16143750E+00</totfact>
</mgrwt>
</event>
<event>
 6    1  0.1529677E-003  0.6501923E+03  0.7818608E-02  0.9806418E-01
          1   -1    0    0  502    0  0.00000000000E+00  0.00000000000E+00  0.10609925862E+03  0.10609925862E+03  0.00000000000E+00 0.  1.
         13   -1    0    0    0    0 -0.00000000000E+00 -0.00000000000E+00 -0.10000000000E+04  0.10000000000E+04  0.00000000000E+00 0.  1.
    9000005    2    1    2  501    0 -0.70054843033E+00 -0.10156898684E+01 -0.89264025442E+03  0.11043353932E+04  0.65019113680E+03 0.  0.
         13    1    3    3    0    0  0.31337961602E+03  0.82919165197E+02 -0.47513663752E+03  0.57518448867E+03  0.00000000000E+00 0.  1.
          3    1    3    3  501    0 -0.31408016445E+03 -0.83934855066E+02 -0.41750361691E+03  0.52915090449E+03  0.00000000000E+00 0.  1.
         21    1    1    2  502  501  0.70054843033E+00  0.10156898684E+01 -0.12604869556E+01  0.17638654646E+01  0.00000000000E+00 0. -1.
<mgrwt>
<rscale>  1 0.65019231E+03</rscale>
<asrwt>0</asrwt>
<pdfrwt beam="1">  1        1 0.38581630E+00 0.65019231E+03</pdfrwt>
<pdfrwt beam="2">0</pdfrwt>
<totfact> 0.15466265E+00</totfact>
</mgrwt>
</event>
<event>
 6    1  0.1529677E-003  0.6507103E+03  0.7818608E-02  0.9805447E-01
          1   -1    0    0  502    0  0.00000000000E+00  0.00000000000E+00  0.10603549225E+03  0.10603549225E+03  0.00000000000E+00 0.  1.
         13   -1    0    0    0    0 -0.00000000000E+00 -0.00000000000E+00 -0.10000000000E+04  0.10000000000E+04  0.00000000000E+00 0.  1.
    9000005    2    1    2  501    0  0.51341439354E-02 -0.23903226070E-02 -0.89414396972E+03  0.11058559409E+04  0.65071032226E+03 0.  0.
         13    1    3    3    0    0  0.76770882040E+02 -0.31150214035E+03 -0.53906160295E+03  0.62730755101E+03  0.00000000000E+00 0.  1.
          3    1    3    3  501    0 -0.76765747896E+02  0.31149975003E+03 -0.35508236677E+03  0.47854838993E+03  0.00000000000E+00 0.  1.
         21    1    1    2  502  501 -0.51341439354E-02  0.23903226070E-02  0.17946197299E+00  0.17955130973E+00  0.00000000000E+00 0.  1.
<mgrwt>
<rscale>  1 0.65071032E+03</rscale>
<asrwt>0</asrwt>
<pdfrwt beam="1">  1        1 0.38558442E+00 0.65071032E+03</pdfrwt>
<pdfrwt beam="2">0</pdfrwt>
<totfact> 0.15501362E+00</totfact>
</mgrwt>
</event>
<event>
 6    1  0.1529677E-003  0.6445290E+03  0.7818608E-02  0.9817100E-01
          1   -1    0    0  502    0  0.00000000000E+00  0.00000000000E+00  0.10385443180E+03  0.10385443180E+03  0.00000000000E+00 0.  1.
         13   -1    0    0    0    0 -0.00000000000E+00 -0.00000000000E+00 -0.10000000000E+04  0.10000000000E+04  0.00000000000E+00 0.  1.
    9000005    2    1    2  501    0 -0.77706954471E-06  0.10766627284E-04 -0.89614557222E+03  0.11038544203E+04  0.64452904865E+03 0.  0.
         13    1    3    3    0    0  0.30632155371E+03  0.99716323497E+02 -0.43292911806E+03  0.53963307969E+03  0.00000000000E+00 0.  1.
          1    1    3    3  501    0 -0.30632155448E+03 -0.99716312731E+02 -0.46321645417E+03  0.56422134059E+03  0.00000000000E+00 0.  1.
         21    1    1    2  502  501  0.77706949255E-06 -0.10766627274E-04  0.40269390188E-05  0.11521299307E-04  0.00000000000E+00 0. -1.
<mgrwt>
<rscale>  1 0.64452905E+03</rscale>
<asrwt>0</asrwt>
<pdfrwt beam="1">  1        1 0.37765328E+00 0.64452905E+03</pdfrwt>
<pdfrwt beam="2">0</pdfrwt>
<totfact> 0.16822334E+00</totfact>
</mgrwt>
</event>
<event>
 6    1  0.3519450E-003  0.6217539E+03  0.7818608E-02  0.9861274E-01
          1   -1    0    0  502    0  0.00000000000E+00  0.00000000000E+00  0.96644523896E+02  0.96644523896E+02  0.00000000000E+00 0.  1.
         13   -1    0    0    0    0 -0.00000000000E+00 -0.00000000000E+00 -0.10000000000E+04  0.10000000000E+04  0.00000000000E+00 0.  1.
    9000005    2    1    2  501    0 -0.23695213912E-04 -0.87457701857E-04 -0.90335539885E+03  0.10966444048E+04  0.62175394972E+03 0.  0.
         13    1    3    3    0    0  0.72907214041E+02  0.11826278517E+02 -0.98429944763E+03  0.98706672790E+03  0.00000000000E+00 0.  1.
          3    1    3    3  501    0 -0.72907237737E+02 -0.11826365975E+02  0.80944048780E+02  0.10957767692E+03  0.00000000000E+00 0.  1.
         21    1    1    2  502  501  0.23695213914E-04  0.87457701857E-04 -0.77253577027E-04  0.11907320412E-03  0.00000000000E+00 0. -1.
<mgrwt>
<rscale>  1 0.62175395E+03</rscale>
<asrwt>0</asrwt>
<pdfrwt beam="1">  1        1 0.35143537E+00 0.62175395E+03</pdfrwt>
<pdfrwt beam="2">0</pdfrwt>
<totfact> 0.22007473E+00</totfact>
</mgrwt>
</event>
<event>
 6    1  0.1529677E-003  0.6474203E+03  0.7818608E-02  0.9811632E-01
          1   -1    0    0  502    0  0.00000000000E+00  0.00000000000E+00  0.10482412990E+03  0.10482412990E+03  0.00000000000E+00 0.  1.
         13   -1    0    0    0    0 -0.00000000000E+00 -0.00000000000E+00 -0.10000000000E+04  0.10000000000E+04  0.00000000000E+00 0.  1.
    9000005    2    1    2  501    0  0.34844103286E-01  0.55900564891E-01 -0.89517466429E+03  0.11047582479E+04  0.64742034440E+03 0.  0.
         13    1    3    3    0    0 -0.15241431416E+03 -0.25575524303E+03 -0.66425022498E+03  0.72792116941E+03  0.00000000000E+00 0.  1.
          3    1    3    3  501    0  0.15244915826E+03  0.25581114359E+03 -0.23092443932E+03  0.37683707848E+03  0.00000000000E+00 0.  1.
         21    1    1    2  502  501 -0.34844103286E-01 -0.55900564891E-01 -0.12058087572E-02  0.65882005614E-01  0.00000000000E+00 0.  1.
<mgrwt>
<rscale>  1 0.64742035E+03</rscale>
<asrwt>0</asrwt>
<pdfrwt beam="1">  1        1 0.38117946E+00 0.64742035E+03</pdfrwt>
<pdfrwt beam="2">0</pdfrwt>
<totfact> 0.16221895E+00</totfact>
</mgrwt>
</event>
<event>
 6    1  0.1529677E-003  0.6409917E+03  0.7818608E-02  0.9823831E-01
          1   -1    0    0  502    0  0.00000000000E+00  0.00000000000E+00  0.10273506727E+03  0.10273506727E+03  0.00000000000E+00 0.  1.
         13   -1    0    0    0    0 -0.00000000000E+00 -0.00000000000E+00 -0.10000000000E+04  0.10000000000E+04  0.00000000000E+00 0.  1.
    9000005    2    1    2  501    0  0.35808599046E-03 -0.55192162299E-03 -0.89728241331E+03  0.11027175743E+04  0.64099166881E+03 0.  0.
         13    1    3    3    0    0  0.22485575188E+03  0.22713296420E+03 -0.40763936679E+03  0.51799550764E+03  0.00000000000E+00 0.  1.
          3    1    3    3  501    0 -0.22485539379E+03 -0.22713351612E+03 -0.48964304652E+03  0.58472206668E+03  0.00000000000E+00 0.  1.
         21    1    1    2  502  501 -0.35808599044E-03  0.55192162299E-03  0.17480573210E-01  0.17492949517E-01  0.00000000000E+00 0.  1.
<mgrwt>
<rscale>  1 0.64099167E+03</rscale>
<asrwt>0</asrwt>
<pdfrwt beam="1">  1        1 0.37358285E+00 0.64099167E+03</pdfrwt>
<pdfrwt beam="2">0</pdfrwt>
<totfact> 0.17542435E+00</totfact>
</mgrwt>
</event>
<event>
 6    1  0.1529677E-003  0.6527487E+03  0.7818608E-02  0.9801635E-01
          1   -1    0    0  502    0  0.00000000000E+00  0.00000000000E+00  0.10739904366E+03  0.10739904366E+03  0.00000000000E+00 0.  1.
         13   -1    0    0    0    0 -0.00000000000E+00 -0.00000000000E+00 -0.10000000000E+04  0.10000000000E+04  0.00000000000E+00 0.  1.
    9000005    2    1    2  501    0  0.20430434602E-01  0.11484881727E-01 -0.89347960214E+03  0.11065200853E+04  0.65274872596E+03 0.  0.
         13    1    3    3    0    0 -0.26062705063E+03  0.18177663794E+03 -0.57299509949E+03  0.65520423507E+03  0.00000000000E+00 0.  1.
          3    1    3    3  501    0  0.26064748106E+03 -0.18176515306E+03 -0.32048450265E+03  0.45131585025E+03  0.00000000000E+00 0.  1.
         21    1    1    2  502  501 -0.20430434602E-01 -0.11484881727E-01  0.87864580566E+00  0.87895833631E+00  0.00000000000E+00 0. -1.
<mgrwt>
<rscale>  1 0.65274873E+03</rscale>
<asrwt>0</asrwt>
<pdfrwt beam="1">  1        1 0.39054280E+00 0.65274873E+03</pdfrwt>
<pdfrwt beam="2">0</pdfrwt>
<totfact> 0.14731257E+00</totfact>
</mgrwt>
</event>
<event>
 6    1  0.1529677E-003  0.6500960E+03  0.7818608E-02  0.9806599E-01
          1   -1    0    0  502    0  0.00000000000E+00  0.00000000000E+00  0.10567863258E+03  0.10567863258E+03  0.00000000000E+00 0.  1.
         13   -1    0    0    0    0 -0.00000000000E+00 -0.00000000000E+00 -0.10000000000E+04  0.10000000000E+04  0.00000000000E+00 0.  1.
    9000005    2    1    2  501    0 -0.70842867099E-03 -0.95844830007E-03 -0.89434379135E+03  0.11056561770E+04  0.65009596568E+03 0.  0.
         13    1    3    3    0    0  0.29463265493E+02  0.85038311401E+02 -0.97838714359E+03  0.98251768492E+03  0.00000000000E+00 0.  1.
          1    1    3    3  501    0 -0.29463973922E+02 -0.85039269849E+02  0.84043352241E+02  0.12313849208E+03  0.00000000000E+00 0.  1.
         21    1    1    2  502  501  0.70842867099E-03  0.95844830006E-03  0.22423932916E-01  0.22455584200E-01  0.00000000000E+00 0.  1.
<mgrwt>
<rscale>  1 0.65009597E+03</rscale>
<asrwt>0</asrwt>
<pdfrwt beam="1">  1        1 0.38428675E+00 0.65009597E+03</pdfrwt>
<pdfrwt beam="2">0</pdfrwt>
<totfact> 0.15709373E+00</totfact>
</mgrwt>
</event>
<event>
 6    1  0.1529677E-003  0.6530651E+03  0.7818608E-02  0.9801045E-01
          1   -1    0    0  502    0  0.00000000000E+00  0.00000000000E+00  0.10675517554E+03  0.10675517554E+03  0.00000000000E+00 0.  1.
         13   -1    0    0    0    0 -0.00000000000E+00 -0.00000000000E+00 -0.10000000000E+04  0.10000000000E+04  0.00000000000E+00 0.  1.
    9000005    2    1    2  501    0 -0.20037743559E-03 -0.45869448802E-02 -0.89337645996E+03  0.11066234600E+04  0.65306506795E+03 0.  0.
         13    1    3    3    0    0 -0.46170805614E+02 -0.68105953729E+02  0.88769079278E+02  0.12103765389E+03  0.00000000000E+00 0.  1.
          1    1    3    3  501    0  0.46170605236E+02  0.68101366784E+02 -0.98214553924E+03  0.98558580610E+03  0.00000000000E+00 0.  1.
         21    1    1    2  502  501  0.20037743559E-03  0.45869448802E-02  0.13163549720E+00  0.13171554327E+00  0.00000000000E+00 0.  1.
<mgrwt>
<rscale>  1 0.65306507E+03</rscale>
<asrwt>0</asrwt>
<pdfrwt beam="1">  1        1 0.38820146E+00 0.65306507E+03</pdfrwt>
<pdfrwt beam="2">0</pdfrwt>
<totfact> 0.15086681E+00</totfact>
</mgrwt>
</event>
<event>
 6    1  0.1529677E-003  0.5175674E+03  0.7818608E-02  0.1009293E+00
          1   -1    0    0  502    0  0.00000000000E+00  0.00000000000E+00  0.66992347658E+02  0.66992347658E+02  0.00000000000E+00 0.  1.
         13   -1    0    0    0    0 -0.00000000000E+00 -0.00000000000E+00 -0.10000000000E+04  0.10000000000E+04  0.00000000000E+00 0.  1.
    9000005    2    1    2  501    0 -0.13508436544E-03  0.13422208323E-02 -0.93303097162E+03  0.10669689894E+04  0.51756741620E+03 0.  0.
         13    1    3    3    0    0  0.12255249610E+03 -0.22346221061E+03 -0.55903489423E+03  0.61438952370E+03  0.00000000000E+00 0.  1.
          1    1    3    3  501    0 -0.12255263119E+03  0.22346355283E+03 -0.37399607739E+03  0.45257946569E+03  0.00000000000E+00 0.  1.
         21    1    1    2  502  501  0.13508436543E-03 -0.13422208323E-02  0.23319280179E-01  0.23358266901E-01  0.00000000000E+00 0.  1.
<mgrwt>
<rscale>  1 0.51756742E+03</rscale>
<asrwt>0</asrwt>
<pdfrwt beam="1">  1        1 0.24360905E+00 0.51756742E+03</pdfrwt>
<pdfrwt beam="2">0</pdfrwt>
<totfact> 0.65654933E+00</totfact>
</mgrwt>
</event>
<event>
 6    1  0.1529677E-003  0.6500340E+03  0.7818608E-02  0.9806715E-01
          1   -1    0    0  502    0  0.00000000000E+00  0.00000000000E+00  0.10669996832E+03  0.10669996832E+03  0.00000000000E+00 0.  1.
         13   -1    0    0    0    0 -0.00000000000E+00 -0.00000000000E+00 -0.10000000000E+04  0.10000000000E+04  0.00000000000E+00 0.  1.
    9000005    2    1    2  501    0 -0.35035118832E-01  0.10922738750E+00 -0.89436052753E+03  0.11056332868E+04  0.65003399792E+03 0.  0.
         13    1    3    3    0    0 -0.28174337408E+03 -0.16195750121E+03 -0.45451226161E+03  0.55874050953E+03  0.00000000000E+00 0.  1.
          3    1    3    3  501    0  0.28170833896E+03  0.16206672860E+03 -0.43984826592E+03  0.54689277724E+03  0.00000000000E+00 0.  1.
         21    1    1    2  502  501  0.35035118832E-01 -0.10922738750E+00  0.10604958544E+01  0.10666815546E+01  0.00000000000E+00 0. -1.
<mgrwt>
<rscale>  1 0.65003401E+03</rscale>
<asrwt>0</asrwt>
<pdfrwt beam="1">  1        1 0.38800070E+00 0.65003401E+03</pdfrwt>
<pdfrwt beam="2">0</pdfrwt>
<totfact> 0.15126111E+00</totfact>
</mgrwt>
</event>
<event>
 6    1  0.1529677E-003  0.6059806E+03  0.7818608E-02  0.9893075E-01
          1   -1    0    0  502    0  0.00000000000E+00  0.00000000000E+00  0.10976611683E+03  0.10976611683E+03  0.00000000000E+00 0.  1.
         13   -1    0    0    0    0 -0.00000000000E+00 -0.00000000000E+00 -0.10000000000E+04  0.10000000000E+04  0.00000000000E+00 0.  1.
    9000005    2    1    2  501    0  0.14836403337E+02  0.82883958411E+01 -0.90371225532E+03  0.10880754994E+04  0.60574221874E+03 0.  0.
         13    1    3    3    0    0 -0.20624282793E+03  0.18735438980E+03 -0.64871299022E+03  0.70602146931E+03  0.00000000000E+00 0.  1.
          1    1    3    3  501    0  0.22107923126E+03 -0.17906599396E+03 -0.25499926510E+03  0.38205403007E+03  0.00000000000E+00 0.  1.
         21    1    1    2  502  501 -0.14836403337E+02 -0.82883958411E+01  0.13478372148E+02  0.21690617450E+02  0.00000000000E+00 0.  1.
<mgrwt>
<rscale>  1 0.60598057E+03</rscale>
<asrwt>0</asrwt>
<pdfrwt beam="1">  1        1 0.39915036E+00 0.60598057E+03</pdfrwt>
<pdfrwt beam="2">0</pdfrwt>
<totfact> 0.13612754E+00</totfact>
</mgrwt>
</event>
<event>
 6    1  0.1529677E-003  0.6367339E+03  0.7818608E-02  0.9831996E-01
          1   -1    0    0  502    0  0.00000000000E+00  0.00000000000E+00  0.10147098122E+03  0.10147098122E+03  0.00000000000E+00 0.  1.
         13   -1    0    0    0    0 -0.00000000000E+00 -0.00000000000E+00 -0.10000000000E+04  0.10000000000E+04  0.00000000000E+00 0.  1.
    9000005    2    1    2  501    0  0.75186712858E-02  0.27076589252E-03 -0.89864235110E+03  0.11013573994E+04  0.63673388953E+03 0.  0.
         13    1    3    3    0    0  0.29868740181E+03 -0.11009286060E+03 -0.45799625558E+03  0.55775906275E+03  0.00000000000E+00 0.  1.
          1    1    3    3  501    0 -0.29867988314E+03  0.11009313137E+03 -0.44064609552E+03  0.54359833670E+03  0.00000000000E+00 0.  1.
         21    1    1    2  502  501 -0.75186712858E-02 -0.27076589252E-03  0.11333232075E+00  0.11358177080E+00  0.00000000000E+00 0. -1.
<mgrwt>
<rscale>  1 0.63673389E+03</rscale>
<asrwt>0</asrwt>
<pdfrwt beam="1">  1        1 0.36898616E+00 0.63673389E+03</pdfrwt>
<pdfrwt beam="2">0</pdfrwt>
<totfact> 0.18391899E+00</totfact>
</mgrwt>
</event>
<event>
 6    1  0.1529677E-003  0.6866292E+03  0.7818608E-02  0.9740375E-01
          1   -1    0    0  502    0  0.00000000000E+00  0.00000000000E+00  0.11788452811E+03  0.11788452811E+03  0.00000000000E+00 0.  1.
         13   -1    0    0    0    0 -0.00000000000E+00 -0.00000000000E+00 -0.10000000000E+04  0.10000000000E+04  0.00000000000E+00 0.  1.
    9000005    2    1    2  501    0 -0.72444642559E-03 -0.17626638612E-03 -0.88213507775E+03  0.11178649081E+04  0.68662919930E+03 0.  0.
         13    1    3    3    0    0  0.97457945317E+02  0.32454986809E+03 -0.53074476556E+03  0.62969887577E+03  0.00000000000E+00 0.  1.
          3    1    3    3  501    0 -0.97458669764E+02 -0.32455004435E+03 -0.35139031219E+03  0.48816603231E+03  0.00000000000E+00 0.  1.
         21    1    1    2  502  501  0.72444642560E-03  0.17626638612E-03  0.19605858961E-01  0.19620030531E-01  0.00000000000E+00 0.  1.
<mgrwt>
<rscale>  1 0.68662920E+03</rscale>
<asrwt>0</asrwt>
<pdfrwt beam="1">  1        1 0.42867192E+00 0.68662920E+03</pdfrwt>
<pdfrwt beam="2">0</pdfrwt>
<totfact> 0.98722851E-01</totfact>
</mgrwt>
</event>
<event>
 6    1  0.1529677E-003  0.5892529E+03  0.7818608E-02  0.9927957E-01
          1   -1    0    0  502    0  0.00000000000E+00  0.00000000000E+00  0.86824091102E+02  0.86824091102E+02  0.00000000000E+00 0.  1.
         13   -1    0    0    0    0 -0.00000000000E+00 -0.00000000000E+00 -0.10000000000E+04  0.10000000000E+04  0.00000000000E+00 0.  1.
    9000005    2    1    2  501    0  0.43520673410E-02 -0.36405654651E-02 -0.91319479062E+03  0.10868043753E+04  0.58925293760E+03 0.  0.
         13    1    3    3    0    0 -0.25679391604E+03 -0.78771927955E+02 -0.67987750566E+03  0.73101405913E+03  0.00000000000E+00 0.  1.
          3    1    3    3  501    0  0.25679826810E+03  0.78768287390E+02 -0.23331728497E+03  0.35579031615E+03  0.00000000000E+00 0.  1.
         21    1    1    2  502  501 -0.43520673410E-02  0.36405654651E-02  0.18881726099E-01  0.19715825814E-01  0.00000000000E+00 0. -1.
<mgrwt>
<rscale>  1 0.58925294E+03</rscale>
<asrwt>0</asrwt>
<pdfrwt beam="1">  1        1 0.31572463E+00 0.58925294E+03</pdfrwt>
<pdfrwt beam="2">0</pdfrwt>
<totfact> 0.31619686E+00</totfact>
</mgrwt>
</event>
<event>
 6    1  0.1529677E-003  0.6224671E+03  0.7818608E-02  0.9859860E-01
          1   -1    0    0  502    0  0.00000000000E+00  0.00000000000E+00  0.96887290102E+02  0.96887290102E+02  0.00000000000E+00 0.  1.
         13   -1    0    0    0    0 -0.00000000000E+00 -0.00000000000E+00 -0.10000000000E+04  0.10000000000E+04  0.00000000000E+00 0.  1.
    9000005    2    1    2  501    0  0.58553128434E-03 -0.78654414988E-02 -0.90313286579E+03  0.10968656460E+04  0.62246708506E+03 0.  0.
         13    1    3    3    0    0 -0.18136500289E+03 -0.11051878415E+03 -0.85246421145E+03  0.87852313443E+03  0.00000000000E+00 0.  1.
          1    1    3    3  501    0  0.18136558842E+03  0.11051091871E+03 -0.50668654341E+02  0.21834251155E+03  0.00000000000E+00 0.  1.
         21    1    1    2  502  501 -0.58553128434E-03  0.78654414988E-02  0.20155894809E-01  0.21644124200E-01  0.00000000000E+00 0. -1.
<mgrwt>
<rscale>  1 0.62246709E+03</rscale>
<asrwt>0</asrwt>
<pdfrwt beam="1">  1        1 0.35231816E+00 0.62246709E+03</pdfrwt>
<pdfrwt beam="2">0</pdfrwt>
<totfact> 0.21810496E+00</totfact>
</mgrwt>
</event>
<event>
 6    1  0.1529677E-003  0.6497527E+03  0.7818608E-02  0.9807243E-01
          1   -1    0    0  502    0  0.00000000000E+00  0.00000000000E+00  0.10568269929E+03  0.10568269929E+03  0.00000000000E+00 0.  1.
         13   -1    0    0    0    0 -0.00000000000E+00 -0.00000000000E+00 -0.10000000000E+04  0.10000000000E+04  0.00000000000E+00 0.  1.
    9000005    2    1    2  501    0 -0.12512752987E+00 -0.63493995063E-01 -0.89441478358E+03  0.11055118447E+04  0.64975273294E+03 0.  0.
         13    1    3    3    0    0  0.18582599741E+03 -0.66657314816E+02 -0.88609478224E+03  0.90782072132E+03  0.00000000000E+00 0.  1.
          3    1    3    3  501    0 -0.18595112494E+03  0.66593820821E+02 -0.83200013335E+01  0.19769112337E+03  0.00000000000E+00 0.  1.
         21    1    1    2  502  501  0.12512752987E+00  0.63493995063E-01  0.97482862727E-01  0.17085460095E+00  0.00000000000E+00 0.  1.
<mgrwt>
<rscale>  1 0.64975275E+03</rscale>
<asrwt>0</asrwt>
<pdfrwt beam="1">  1        1 0.38430154E+00 0.64975275E+03</pdfrwt>
<pdfrwt beam="2">0</pdfrwt>
<totfact> 0.15708003E+00</totfact>
</mgrwt>
</event>
<event>
 6    1  0.1529677E-003  0.6118583E+03  0.7818608E-02  0.9881105E-01
          1   -1    0    0  502    0  0.00000000000E+00  0.00000000000E+00  0.93593875714E+02  0.93593875714E+02  0.00000000000E+00 0.  1.
         13   -1    0    0    0    0 -0.00000000000E+00 -0.00000000000E+00 -0.10000000000E+04  0.10000000000E+04  0.00000000000E+00 0.  1.
    9000005    2    1    2  501    0  0.24952530362E-03  0.21734461811E-04 -0.90640733929E+03  0.10935926352E+04  0.61185830628E+03 0.  0.
         13    1    3    3    0    0  0.29035841896E+03 -0.86959059821E+02 -0.37901720989E+03  0.48530808250E+03  0.00000000000E+00 0.  1.
          3    1    3    3  501    0 -0.29035816944E+03  0.86959081555E+02 -0.52739012940E+03  0.60828455266E+03  0.00000000000E+00 0.  1.
         21    1    1    2  502  501 -0.24952530366E-03 -0.21734461808E-04  0.12150016950E-02  0.12405500324E-02  0.00000000000E+00 0.  1.
<mgrwt>
<rscale>  1 0.61185831E+03</rscale>
<asrwt>0</asrwt>
<pdfrwt beam="1">  1        1 0.34034208E+00 0.61185831E+03</pdfrwt>
<pdfrwt beam="2">0</pdfrwt>
<totfact> 0.24638115E+00</totfact>
</mgrwt>
</event>
<event>
 6    1  0.1529677E-003  0.6480153E+03  0.7818608E-02  0.9810511E-01
          1   -1    0    0  502    0  0.00000000000E+00  0.00000000000E+00  0.10580183372E+03  0.10580183372E+03  0.00000000000E+00 0.  1.
         13   -1    0    0    0    0 -0.00000000000E+00 -0.00000000000E+00 -0.10000000000E+04  0.10000000000E+04  0.00000000000E+00 0.  1.
    9000005    2    1    2  501    0  0.24628091500E-01  0.10213127957E+00 -0.89501534054E+03  0.11049779338E+04  0.64801524928E+03 0.  0.
         13    1    3    3    0    0 -0.21028905611E+03 -0.22826707050E+03 -0.28908507835E+03  0.42414328371E+03  0.00000000000E+00 0.  1.
          1    1    3    3  501    0  0.21031368421E+03  0.22836920178E+03 -0.60593026219E+03  0.68083465007E+03  0.00000000000E+00 0.  1.
         21    1    1    2  502  501 -0.24628091500E-01 -0.10213127957E+00  0.81717425792E+00  0.82389993868E+00  0.00000000000E+00 0.  1.
<mgrwt>
<rscale>  1 0.64801526E+03</rscale>
<asrwt>0</asrwt>
<pdfrwt beam="1">  1        1 0.38473475E+00 0.64801526E+03</pdfrwt>
<pdfrwt beam="2">0</pdfrwt>
<totfact> 0.15643891E+00</totfact>
</mgrwt>
</event>
<event>
 6    1  0.1529677E-003  0.6207073E+03  0.7818608E-02  0.9863353E-01
          1   -1    0    0  502    0  0.00000000000E+00  0.00000000000E+00  0.96733302893E+02  0.96733302893E+02  0.00000000000E+00 0.  1.
         13   -1    0    0    0    0 -0.00000000000E+00 -0.00000000000E+00 -0.10000000000E+04  0.10000000000E+04  0.00000000000E+00 0.  1.
    9000005    2    1    2  501    0  0.27255375686E-01  0.50021803119E-01 -0.90367846763E+03  0.10963176107E+04  0.62070728000E+03 0.  0.
         13    1    3    3    0    0  0.75760177062E+02  0.22948530400E+03 -0.79585632716E+03  0.83173938386E+03  0.00000000000E+00 0.  1.
          1    1    3    3  501    0 -0.75732921686E+02 -0.22943528220E+03 -0.10782214047E+03  0.26457822684E+03  0.00000000000E+00 0.  1.
         21    1    1    2  502  501 -0.27255375686E-01 -0.50021803119E-01  0.41177052018E+00  0.41569219090E+00  0.00000000000E+00 0. -1.
<mgrwt>
<rscale>  1 0.62070728E+03</rscale>
<asrwt>0</asrwt>
<pdfrwt beam="1">  1        1 0.35175821E+00 0.62070728E+03</pdfrwt>
<pdfrwt beam="2">0</pdfrwt>
<totfact> 0.21940382E+00</totfact>
</mgrwt>
</event>
<event>
 6    1  0.1529677E-003  0.6518165E+03  0.7818608E-02  0.9803377E-01
          1   -1    0    0  502    0  0.00000000000E+00  0.00000000000E+00  0.10634710140E+03  0.10634710140E+03  0.00000000000E+00 0.  1.
         13   -1    0    0    0    0 -0.00000000000E+00 -0.00000000000E+00 -0.10000000000E+04  0.10000000000E+04  0.00000000000E+00 0.  1.
    9000005    2    1    2  501    0  0.23139775348E-02 -0.10220307210E-02 -0.89378379590E+03  0.11062161797E+04  0.65181650969E+03 0.  0.
         13    1    3    3    0    0 -0.52430739521E+02 -0.20024699232E+03 -0.87411164030E+03  0.89828670261E+03  0.00000000000E+00 0.  1.
          3    1    3    3  501    0  0.52433053498E+02  0.20024597029E+03 -0.19672155601E+02  0.20792947704E+03  0.00000000000E+00 0.  1.
         21    1    1    2  502  501 -0.23139775348E-02  0.10220307210E-02  0.13089730597E+00  0.13092174666E+00  0.00000000000E+00 0.  1.
<mgrwt>
<rscale>  1 0.65181651E+03</rscale>
<asrwt>0</asrwt>
<pdfrwt beam="1">  1        1 0.38671755E+00 0.65181651E+03</pdfrwt>
<pdfrwt beam="2">0</pdfrwt>
<totfact> 0.15320257E+00</totfact>
</mgrwt>
</event>
<event>
 6    1  0.1529677E-003  0.6476142E+03  0.7818608E-02  0.9811266E-01
          1   -1    0    0  502    0  0.00000000000E+00  0.00000000000E+00  0.10623271585E+03  0.10623271585E+03  0.00000000000E+00 0.  1.
         13   -1    0    0    0    0 -0.00000000000E+00 -0.00000000000E+00 -0.10000000000E+04  0.10000000000E+04  0.00000000000E+00 0.  1.
    9000005    2    1    2  501    0 -0.84301323126E-02  0.19881123978E-01 -0.89514886350E+03  0.11048509677E+04  0.64761421591E+03 0.  0.
         13    1    3    3    0    0  0.17375713558E+03 -0.25646529916E+03 -0.28680825929E+03  0.42216699236E+03  0.00000000000E+00 0.  1.
          3    1    3    3  501    0 -0.17376556571E+03  0.25648518029E+03 -0.60834060421E+03  0.68268397539E+03  0.00000000000E+00 0.  1.
         21    1    1    2  502  501  0.84301323126E-02 -0.19881123978E-01  0.13815793466E+01  0.13817481019E+01  0.00000000000E+00 0. -1.
<mgrwt>
<rscale>  1 0.64761422E+03</rscale>
<asrwt>0</asrwt>
<pdfrwt beam="1">  1        1 0.38630160E+00 0.64761422E+03</pdfrwt>
<pdfrwt beam="2">0</pdfrwt>
<totfact> 0.15397333E+00</totfact>
</mgrwt>
</event>
<event>
 6    1  0.1529677E-003  0.6546071E+03  0.7818608E-02  0.9798173E-01
          1   -1    0    0  502    0  0.00000000000E+00  0.00000000000E+00  0.10721606859E+03  0.10721606859E+03  0.00000000000E+00 0.  1.
         13   -1    0    0    0    0 -0.00000000000E+00 -0.00000000000E+00 -0.10000000000E+04  0.10000000000E+04  0.00000000000E+00 0.  1.
    9000005    2    1    2  501    0 -0.53122447216E-01 -0.53360100844E-01 -0.89285429761E+03  0.11071130118E+04  0.65460707185E+03 0.  0.
         13    1    3    3    0    0  0.26724180407E+03 -0.13362357607E+03 -0.22047142920E+03  0.37132343452E+03  0.00000000000E+00 0.  1.
          1    1    3    3  501    0 -0.26729492652E+03  0.13357021597E+03 -0.67238286841E+03  0.73578957731E+03  0.00000000000E+00 0.  1.
         21    1    1    2  502  501  0.53122447216E-01  0.53360100844E-01  0.70366203545E-01  0.10305676767E+00  0.00000000000E+00 0.  1.
<mgrwt>
<rscale>  1 0.65460708E+03</rscale>
<asrwt>0</asrwt>
<pdfrwt beam="1">  1        1 0.38987744E+00 0.65460708E+03</pdfrwt>
<pdfrwt beam="2">0</pdfrwt>
<totfact> 0.14826575E+00</totfact>
</mgrwt>
</event>
<event>
 6    1  0.1529677E-003  0.6488497E+03  0.7818608E-02  0.9808940E-01
          1   -1    0    0  502    0  0.00000000000E+00  0.00000000000E+00  0.10534450530E+03  0.10534450530E+03  0.00000000000E+00 0.  1.
         13   -1    0    0    0    0 -0.00000000000E+00 -0.00000000000E+00 -0.10000000000E+04  0.10000000000E+04  0.00000000000E+00 0.  1.
    9000005    2    1    2  501    0 -0.22984549292E+00  0.75677534224E-01 -0.89452208901E+03  0.11050681846E+04  0.64884964851E+03 0.  0.
         13    1    3    3    0    0  0.14308501122E+03  0.28166028272E+03 -0.57278346498E+03  0.65413051683E+03  0.00000000000E+00 0.  1.
          1    1    3    3  501    0 -0.14331485671E+03 -0.28158460519E+03 -0.32173862404E+03  0.45093766779E+03  0.00000000000E+00 0.  1.
         21    1    1    2  502  501  0.22984549292E+00 -0.75677534224E-01 -0.13340569152E+00  0.27632068024E+00  0.00000000000E+00 0. -1.
<mgrwt>
<rscale>  1 0.64884969E+03</rscale>
<asrwt>0</asrwt>
<pdfrwt beam="1">  1        1 0.38307174E+00 0.64884969E+03</pdfrwt>
<pdfrwt beam="2">0</pdfrwt>
<totfact> 0.15908505E+00</totfact>
</mgrwt>
</event>
<event>
 6    1  0.1529677E-003  0.7542378E+03  0.7818608E-02  0.9628725E-01
          1   -1    0    0  502    0  0.00000000000E+00  0.00000000000E+00  0.17530857322E+03  0.17530857322E+03  0.00000000000E+00 0.  1.
         13   -1    0    0    0    0 -0.00000000000E+00 -0.00000000000E+00 -0.10000000000E+04  0.10000000000E+04  0.00000000000E+00 0.  1.
    9000005    2    1    2  501    0 -0.26680649901E+01 -0.34657047531E+01 -0.85761615072E+03  0.11420946134E+04  0.75422510852E+03 0.  0.
         13    1    3    3    0    0 -0.61725689105E+01  0.37534844903E+03 -0.42419023648E+03  0.56644674553E+03  0.00000000000E+00 0.  1.
          3    1    3    3  501    0  0.35045039205E+01 -0.37881415379E+03 -0.43342591423E+03  0.57564786787E+03  0.00000000000E+00 0.  1.
         21    1    1    2  502  501  0.26680649901E+01  0.34657047531E+01  0.32924723934E+02  0.33213959812E+02  0.00000000000E+00 0.  1.
<mgrwt>
<rscale>  1 0.75423779E+03</rscale>
<asrwt>0</asrwt>
<pdfrwt beam="1">  1        1 0.63748707E+00 0.75423779E+03</pdfrwt>
<pdfrwt beam="2">0</pdfrwt>
<totfact> 0.85635234E-02</totfact>
</mgrwt>
</event>
<event>
 6    1  0.1529677E-003  0.6345685E+03  0.7818608E-02  0.9836174E-01
          1   -1    0    0  502    0  0.00000000000E+00  0.00000000000E+00  0.10123269386E+03  0.10123269386E+03  0.00000000000E+00 0.  1.
         13   -1    0    0    0    0 -0.00000000000E+00 -0.00000000000E+00 -0.10000000000E+04  0.10000000000E+04  0.00000000000E+00 0.  1.
    9000005    2    1    2  501    0  0.38061391289E+00 -0.55391102599E-01 -0.89925759337E+03  0.11006095432E+04  0.63456835684E+03 0.  0.
         13    1    3    3    0    0  0.23778526971E+03 -0.50420903341E+02 -0.80392436944E+03  0.83986814070E+03  0.00000000000E+00 0.  1.
          1    1    3    3  501    0 -0.23740465579E+03  0.50365512238E+02 -0.95333223936E+02  0.26074140255E+03  0.00000000000E+00 0.  1.
         21    1    1    2  502  501 -0.38061391289E+00  0.55391102599E-01  0.49028723671E+00  0.62315062338E+00  0.00000000000E+00 0. -1.
<mgrwt>
<rscale>  1 0.63456847E+03</rscale>
<asrwt>0</asrwt>
<pdfrwt beam="1">  1        1 0.36811966E+00 0.63456847E+03</pdfrwt>
<pdfrwt beam="2">0</pdfrwt>
<totfact> 0.18560978E+00</totfact>
</mgrwt>
</event>
<event>
 6    1  0.1529677E-003  0.6513509E+03  0.7818608E-02  0.9804248E-01
          1   -1    0    0  502    0  0.00000000000E+00  0.00000000000E+00  0.10606505183E+03  0.10606505183E+03  0.00000000000E+00 0.  1.
         13   -1    0    0    0    0 -0.00000000000E+00 -0.00000000000E+00 -0.10000000000E+04  0.10000000000E+04  0.00000000000E+00 0.  1.
    9000005    2    1    2  501    0  0.10006202302E-04  0.69341897870E-04 -0.89393551154E+03  0.11060644841E+04  0.65135086108E+03 0.  0.
         13    1    3    3    0    0 -0.10430746353E+03 -0.24543526132E+03 -0.12952607103E+03  0.29647178200E+03  0.00000000000E+00 0.  1.
          1    1    3    3  501    0  0.10430747354E+03  0.24543533066E+03 -0.76440944051E+03  0.80959270211E+03  0.00000000000E+00 0.  1.
         21    1    1    2  502  501 -0.10006202301E-04 -0.69341897889E-04  0.56336927311E-03  0.56770886973E-03  0.00000000000E+00 0. -1.
<mgrwt>
<rscale>  1 0.65135086E+03</rscale>
<asrwt>0</asrwt>
<pdfrwt beam="1">  1        1 0.38569191E+00 0.65135086E+03</pdfrwt>
<pdfrwt beam="2">0</pdfrwt>
<totfact> 0.15482563E+00</totfact>
</mgrwt>
</event>
<event>
 6    1  0.1529677E-003  0.6468137E+03  0.7818608E-02  0.9812776E-01
          1   -1    0    0  502    0  0.00000000000E+00  0.00000000000E+00  0.10460573198E+03  0.10460573198E+03  0.00000000000E+00 0.  1.
         13   -1    0    0    0    0 -0.00000000000E+00 -0.00000000000E+00 -0.10000000000E+04  0.10000000000E+04  0.00000000000E+00 0.  1.
    9000005    2    1    2  501    0  0.17604495548E-02 -0.12906961903E-02 -0.89540789965E+03  0.11045919267E+04  0.64681374268E+03 0.  0.
         13    1    3    3    0    0  0.85025911156E+02 -0.13416020903E+03  0.33394178274E+02  0.16230692652E+03  0.00000000000E+00 0.  1.
          1    1    3    3  501    0 -0.85024150706E+02  0.13415891833E+03 -0.92880207792E+03  0.94228500016E+03  0.00000000000E+00 0.  1.
         21    1    1    2  502  501 -0.17604495548E-02  0.12906961903E-02  0.13631626938E-01  0.13805300875E-01  0.00000000000E+00 0.  1.
<mgrwt>
<rscale>  1 0.64681374E+03</rscale>
<asrwt>0</asrwt>
<pdfrwt beam="1">  1        1 0.38038528E+00 0.64681374E+03</pdfrwt>
<pdfrwt beam="2">0</pdfrwt>
<totfact> 0.16355186E+00</totfact>
</mgrwt>
</event>
<event>
 6    1  0.1529677E-003  0.6446234E+03  0.7818608E-02  0.9816921E-01
          3   -1    0    0  502    0  0.00000000000E+00  0.00000000000E+00  0.10411964220E+03  0.10411964220E+03  0.00000000000E+00 0.  1.
         13   -1    0    0    0    0 -0.00000000000E+00 -0.00000000000E+00 -0.10000000000E+04  0.10000000000E+04  0.00000000000E+00 0.  1.
    9000005    2    1    2  501    0 -0.22012092210E+00 -0.40309049660E+00 -0.89583601478E+03  0.11036582297E+04  0.64462323238E+03 0.  0.
         13    1    3    3    0    0  0.14206472695E+03  0.27141516283E+03 -0.27730148910E+03  0.41321264879E+03  0.00000000000E+00 0.  1.
          1    1    3    3  501    0 -0.14228484787E+03 -0.27181825333E+03 -0.61853452567E+03  0.69044558093E+03  0.00000000000E+00 0.  1.
         21    1    1    2  502  501  0.22012092210E+00  0.40309049660E+00 -0.44343023865E-01  0.46141247551E+00  0.00000000000E+00 0.  1.
<mgrwt>
<rscale>  1 0.64462340E+03</rscale>
<asrwt>0</asrwt>
<pdfrwt beam="1">  1        3 0.37861768E+00 0.64462340E+03</pdfrwt>
<pdfrwt beam="2">0</pdfrwt>
<totfact> 0.76827439E-02</totfact>
</mgrwt>
</event>
<event>
 6    1  0.1529677E-003  0.6605664E+03  0.7818608E-02  0.9787152E-01
          1   -1    0    0  502    0  0.00000000000E+00  0.00000000000E+00  0.10915955671E+03  0.10915955671E+03  0.00000000000E+00 0.  1.
         13   -1    0    0    0    0 -0.00000000000E+00 -0.00000000000E+00 -0.10000000000E+04  0.10000000000E+04  0.00000000000E+00 0.  1.
    9000005    2    1    2  501    0 -0.40295496755E-02  0.20177140339E-01 -0.89091139595E+03  0.11090856809E+04  0.66056637194E+03 0.  0.
         13    1    3    3    0    0  0.34370088661E+02 -0.29830701598E+03 -0.21454388989E+03  0.36904939977E+03  0.00000000000E+00 0.  1.
          1    1    3    3  501    0 -0.34374118211E+02  0.29832719312E+03 -0.67636750606E+03  0.74003628114E+03  0.00000000000E+00 0.  1.
         21    1    1    2  502  501  0.40295496755E-02 -0.20177140339E-01  0.70952659016E-01  0.73875801751E-01  0.00000000000E+00 0. -1.
<mgrwt>
<rscale>  1 0.66056637E+03</rscale>
<asrwt>0</asrwt>
<pdfrwt beam="1">  1        1 0.39694468E+00 0.66056637E+03</pdfrwt>
<pdfrwt beam="2">0</pdfrwt>
<totfact> 0.13777168E+00</totfact>
</mgrwt>
</event>
<event>
 6    1  0.1529677E-003  0.6494023E+03  0.7818608E-02  0.9807901E-01
          1   -1    0    0  502    0  0.00000000000E+00  0.00000000000E+00  0.10543746769E+03  0.10543746769E+03  0.00000000000E+00 0.  1.
         13   -1    0    0    0    0 -0.00000000000E+00 -0.00000000000E+00 -0.10000000000E+04  0.10000000000E+04  0.00000000000E+00 0.  1.
    9000005    2    1    2  501    0  0.11735377443E-02 -0.11756103478E-03 -0.89456908975E+03  0.11054308050E+04  0.64940234706E+03 0.  0.
         13    1    3    3    0    0  0.18117108541E+03 -0.15588825162E+03 -0.82141511329E+03  0.85548050681E+03  0.00000000000E+00 0.  1.
          1    1    3    3  501    0 -0.18116991187E+03  0.15588813406E+03 -0.73153976456E+02  0.24995029822E+03  0.00000000000E+00 0.  1.
         21    1    1    2  502  501 -0.11735377443E-02  0.11756103477E-03  0.65574414366E-02  0.66626608520E-02  0.00000000000E+00 0. -1.
<mgrwt>
<rscale>  1 0.64940235E+03</rscale>
<asrwt>0</asrwt>
<pdfrwt beam="1">  1        1 0.38340978E+00 0.64940235E+03</pdfrwt>
<pdfrwt beam="2">0</pdfrwt>
<totfact> 0.15852260E+00</totfact>
</mgrwt>
</event>
<event>
 6    1  0.1529677E-003  0.6266535E+03  0.7818608E-02  0.9851601E-01
          1   -1    0    0  502    0  0.00000000000E+00  0.00000000000E+00  0.98174827376E+02  0.98174827376E+02  0.00000000000E+00 0.  1.
         13   -1    0    0    0    0 -0.00000000000E+00 -0.00000000000E+00 -0.10000000000E+04  0.10000000000E+04  0.00000000000E+00 0.  1.
    9000005    2    1    2  501    0 -0.28376535289E-03  0.49020948165E-03 -0.90182626648E+03  0.10981735956E+04  0.62665351758E+03 0.  0.
         13    1    3    3    0    0  0.28179188385E+03 -0.47129565814E+01 -0.21098394846E+03  0.35205554145E+03  0.00000000000E+00 0.  1.
          3    1    3    3  501    0 -0.28179216761E+03  0.47134467908E+01 -0.69084231802E+03  0.74611805412E+03  0.00000000000E+00 0.  1.
         21    1    1    2  502  501  0.28376535287E-03 -0.49020948165E-03  0.10938566981E-02  0.12318078532E-02  0.00000000000E+00 0. -1.
<mgrwt>
<rscale>  1 0.62665352E+03</rscale>
<asrwt>0</asrwt>
<pdfrwt beam="1">  1        1 0.35700013E+00 0.62665352E+03</pdfrwt>
<pdfrwt beam="2">0</pdfrwt>
<totfact> 0.20792362E+00</totfact>
</mgrwt>
</event>
