<event>
 6    1  0.7220224E-003  0.6489837E+03  0.7818608E-02  0.9808688E-01
          1   -1    0    0  502    0  0.00000000000E+00  0.00000000000E+00  0.10529496278E+03  0.10529496278E+03  0.00000000000E+00 0.  1.
         13   -1    0    0    0    0 -0.00000000000E+00 -0.00000000000E+00 -0.10000000000E+04  0.10000000000E+04  0.00000000000E+00 0.  1.
    9000005    2    1    2  501    0  0.21498250362E-05 -0.18057483573E-05 -0.89470503789E+03  0.11052949599E+04  0.64898370052E+03 0.  0.
         13    1    3    3    0    0 -0.29798770145E+03 -0.15611395826E+01 -0.66609432057E+03  0.72971278683E+03  0.00000000000E+00 0.  1.
          1    1    3    3  501    0  0.29798770360E+03  0.15611377769E+01 -0.22861071732E+03  0.37558217306E+03  0.00000000000E+00 0.  1.
         21    1    1    2  502  501 -0.21498250824E-05  0.18057483573E-05  0.67081274977E-06  0.28866009007E-05  0.00000000000E+00 0.  1.
<mgrwt>
<rscale>  1 0.64898370E+03</rscale>
<asrwt>0</asrwt>
<pdfrwt beam="1">  1        1 0.38289158E+00 0.64898370E+03</pdfrwt>
<pdfrwt beam="2">0</pdfrwt>
<totfact> 0.15937298E+00</totfact>
</mgrwt>
</event>
<event>
 6    1  0.7220224E-003  0.6884011E+03  0.7818608E-02  0.9737276E-01
          1   -1    0    0  502    0  0.00000000000E+00  0.00000000000E+00  0.12080073622E+03  0.12080073622E+03  0.00000000000E+00 0.  1.
         13   -1    0    0    0    0 -0.00000000000E+00 -0.00000000000E+00 -0.10000000000E+04  0.10000000000E+04  0.00000000000E+00 0.  1.
    9000005    2    1    2  501    0  0.16132274248E+01  0.63035989856E+00 -0.88115932709E+03  0.11181850710E+04  0.68839893482E+03 0.  0.
         13    1    3    3    0    0 -0.12145153899E+03  0.31893895139E+03 -0.36785176531E+03  0.50178426867E+03  0.00000000000E+00 0.  1.
          3    1    3    3  501    0  0.12306476642E+03 -0.31830859149E+03 -0.51330756178E+03  0.61640080234E+03  0.00000000000E+00 0.  1.
         21    1    1    2  502  501 -0.16132274248E+01 -0.63035989856E+00  0.19600633117E+01  0.26156652140E+01  0.00000000000E+00 0.  1.
<mgrwt>
<rscale>  1 0.68840111E+03</rscale>
<asrwt>0</asrwt>
<pdfrwt beam="1">  1        1 0.43927633E+00 0.68840111E+03</pdfrwt>
<pdfrwt beam="2">0</pdfrwt>
<totfact> 0.88295121E-01</totfact>
</mgrwt>
</event>
<event>
 6    1  0.7220224E-003  0.6461585E+03  0.7818608E-02  0.9814014E-01
          3   -1    0    0  502    0  0.00000000000E+00  0.00000000000E+00  0.10438019429E+03  0.10438019429E+03  0.00000000000E+00 0.  1.
         13   -1    0    0    0    0 -0.00000000000E+00 -0.00000000000E+00 -0.10000000000E+04  0.10000000000E+04  0.00000000000E+00 0.  1.
    9000005    2    1    2  501    0 -0.15954071330E-04 -0.33194222055E-05 -0.89561979551E+03  0.11043801751E+04  0.64615845808E+03 0.  0.
         13    1    3    3    0    0 -0.16304987107E+03  0.16122858002E+03 -0.58813485830E+02  0.23672545614E+03  0.00000000000E+00 0.  1.
          3    1    3    3  501    0  0.16304985512E+03 -0.16122858334E+03 -0.83680630968E+03  0.86765471892E+03  0.00000000000E+00 0.  1.
         21    1    1    2  502  501  0.15954071322E-04  0.33194222212E-05 -0.10201574398E-04  0.19225583888E-04  0.00000000000E+00 0. -1.
<mgrwt>
<rscale>  1 0.64615846E+03</rscale>
<asrwt>0</asrwt>
<pdfrwt beam="1">  1        3 0.37956514E+00 0.64615846E+03</pdfrwt>
<pdfrwt beam="2">0</pdfrwt>
<totfact> 0.75927681E-02</totfact>
</mgrwt>
</event>
<event>
 6    1  0.7220224E-003  0.5884268E+03  0.7818608E-02  0.9929712E-01
          1   -1    0    0  502    0  0.00000000000E+00  0.00000000000E+00  0.87357714527E+02  0.87357714527E+02  0.00000000000E+00 0.  1.
         13   -1    0    0    0    0 -0.00000000000E+00 -0.00000000000E+00 -0.10000000000E+04  0.10000000000E+04  0.00000000000E+00 0.  1.
    9000005    2    1    2  501    0 -0.18433888123E-01  0.67289973385E-01 -0.91343681638E+03  0.10865601262E+04  0.58842678857E+03 0.  0.
         13    1    3    3    0    0  0.18519549630E+03  0.74541788737E+02 -0.85580530272E+03  0.87878129604E+03  0.00000000000E+00 0.  1.
          3    1    3    3  501    0 -0.18521393019E+03 -0.74474498764E+02 -0.57631513662E+02  0.20777883018E+03  0.00000000000E+00 0.  1.
         21    1    1    2  502  501  0.18433888123E-01 -0.67289973385E-01  0.79453090407E+00  0.79758830626E+00  0.00000000000E+00 0.  1.
<mgrwt>
<rscale>  1 0.58842679E+03</rscale>
<asrwt>0</asrwt>
<pdfrwt beam="1">  1        1 0.31766509E+00 0.58842679E+03</pdfrwt>
<pdfrwt beam="2">0</pdfrwt>
<totfact> 0.31019736E+00</totfact>
</mgrwt>
</event>
<event>
 6    1  0.7220224E-003  0.6550914E+03  0.7818608E-02  0.9797272E-01
          1   -1    0    0  502    0  0.00000000000E+00  0.00000000000E+00  0.11370842894E+03  0.11370842894E+03  0.00000000000E+00 0.  1.
         13   -1    0    0    0    0 -0.00000000000E+00 -0.00000000000E+00 -0.10000000000E+04  0.10000000000E+04  0.00000000000E+00 0.  1.
    9000005    2    1    2  501    0 -0.52818535629E+01  0.10852953451E+01 -0.89143575153E+03  0.11062560175E+04  0.65506915771E+03 0.  0.
         13    1    3    3    0    0 -0.28668053065E+03  0.37377619519E+02 -0.18058258224E+03  0.34087077038E+03  0.00000000000E+00 0.  1.
          1    1    3    3  501    0  0.28139867709E+03 -0.36292324173E+02 -0.71085316930E+03  0.76538524715E+03  0.00000000000E+00 0.  1.
         21    1    1    2  502  501  0.52818535629E+01 -0.10852953451E+01  0.51441804760E+01  0.74524114095E+01  0.00000000000E+00 0.  1.
<mgrwt>
<rscale>  1 0.65509135E+03</rscale>
<asrwt>0</asrwt>
<pdfrwt beam="1">  1        1 0.41348607E+00 0.65509135E+03</pdfrwt>
<pdfrwt beam="2">0</pdfrwt>
<totfact> 0.11631734E+00</totfact>
</mgrwt>
</event>
<event>
 6    1  0.7220224E-003  0.6603727E+03  0.7818608E-02  0.9787508E-01
          1   -1    0    0  502    0  0.00000000000E+00  0.00000000000E+00  0.11064881563E+03  0.11064881563E+03  0.00000000000E+00 0.  1.
         13   -1    0    0    0    0 -0.00000000000E+00 -0.00000000000E+00 -0.10000000000E+04  0.10000000000E+04  0.00000000000E+00 0.  1.
    9000005    2    1    2  501    0  0.25346406592E+00 -0.73346943589E-01 -0.89096507760E+03  0.11090134945E+04  0.66037269166E+03 0.  0.
         13    1    3    3    0    0 -0.93566103562E+02  0.17602264136E+03 -0.88733477280E+03  0.90945125490E+03  0.00000000000E+00 0.  1.
          3    1    3    3  501    0  0.93819567628E+02 -0.17609598831E+03 -0.36303047939E+01  0.19956223962E+03  0.00000000000E+00 0.  1.
         21    1    1    2  502  501 -0.25346406592E+00  0.73346943589E-01  0.16138932300E+01  0.16353211198E+01  0.00000000000E+00 0.  1.
<mgrwt>
<rscale>  1 0.66037274E+03</rscale>
<asrwt>0</asrwt>
<pdfrwt beam="1">  1        1 0.40236018E+00 0.66037274E+03</pdfrwt>
<pdfrwt beam="2">0</pdfrwt>
<totfact> 0.13032653E+00</totfact>
</mgrwt>
</event>
<event>
 6    1  0.1167526E-002  0.6211003E+03  0.7818608E-02  0.9862571E-01
          1   -1    0    0  502    0  0.00000000000E+00  0.00000000000E+00  0.96441406468E+02  0.96441406468E+02  0.00000000000E+00 0.  1.
         13   -1    0    0    0    0 -0.00000000000E+00 -0.00000000000E+00 -0.10000000000E+04  0.10000000000E+04  0.00000000000E+00 0.  1.
    9000005    2    1    2  501    0  0.83880293857E-05  0.20311168498E-05 -0.90355859334E+03  0.10964413978E+04  0.62110031983E+03 0.  0.
         13    1    3    3    0    0 -0.17388795614E+03 -0.15650383606E+03 -0.81231526103E+03  0.84533221593E+03  0.00000000000E+00 0.  1.
          3    1    3    3  501    0  0.17388796453E+03  0.15650383809E+03 -0.91243332312E+02  0.25110918190E+03  0.00000000000E+00 0.  1.
         21    1    1    2  502  501 -0.83880293959E-05 -0.20311168465E-05 -0.19166994596E-06  0.86325668349E-05  0.00000000000E+00 0. -1.
<mgrwt>
<rscale>  1 0.62110032E+03</rscale>
<asrwt>0</asrwt>
<pdfrwt beam="1">  1        1 0.35069676E+00 0.62110032E+03</pdfrwt>
<pdfrwt beam="2">0</pdfrwt>
<totfact> 0.22173823E+00</totfact>
</mgrwt>
</event>
<event>
 6    1  0.7220224E-003  0.6426635E+03  0.7818608E-02  0.9820644E-01
          1   -1    0    0  502    0  0.00000000000E+00  0.00000000000E+00  0.10325612402E+03  0.10325612402E+03  0.00000000000E+00 0.  1.
         13   -1    0    0    0    0 -0.00000000000E+00 -0.00000000000E+00 -0.10000000000E+04  0.10000000000E+04  0.00000000000E+00 0.  1.
    9000005    2    1    2  501    0 -0.54230129771E-02 -0.17440907470E-02 -0.89673975571E+03  0.11032490936E+04  0.64266349897E+03 0.  0.
         13    1    3    3    0    0  0.21539306175E+03  0.11111261748E+03 -0.86181332548E+02  0.25723026046E+03  0.00000000000E+00 0.  1.
          3    1    3    3  501    0 -0.21539848477E+03 -0.11111436157E+03 -0.81055842316E+03  0.84601883309E+03  0.00000000000E+00 0.  1.
         21    1    1    2  502  501  0.54230129771E-02  0.17440907469E-02 -0.41202664573E-02  0.70304706786E-02  0.00000000000E+00 0. -1.
<mgrwt>
<rscale>  1 0.64266350E+03</rscale>
<asrwt>0</asrwt>
<pdfrwt beam="1">  1        1 0.37547761E+00 0.64266350E+03</pdfrwt>
<pdfrwt beam="2">0</pdfrwt>
<totfact> 0.17203567E+00</totfact>
</mgrwt>
</event>
<event>
 6    1  0.7220224E-003  0.6536826E+03  0.7818608E-02  0.9799894E-01
          1   -1    0    0  502    0  0.00000000000E+00  0.00000000000E+00  0.10682605364E+03  0.10682605364E+03  0.00000000000E+00 0.  1.
         13   -1    0    0    0    0 -0.00000000000E+00 -0.00000000000E+00 -0.10000000000E+04  0.10000000000E+04  0.00000000000E+00 0.  1.
    9000005    2    1    2  501    0 -0.19084948413E-03 -0.37871137965E-03 -0.89317471009E+03  0.11068251801E+04  0.65368258084E+03 0.  0.
         13    1    3    3    0    0 -0.42921374845E+02 -0.12400475274E+03  0.60263552835E+02  0.14439916524E+03  0.00000000000E+00 0.  1.
          1    1    3    3  501    0  0.42921183995E+02  0.12400437403E+03 -0.95343826292E+03  0.96242601483E+03  0.00000000000E+00 0.  1.
         21    1    1    2  502  501  0.19084948414E-03  0.37871137967E-03  0.76373037550E-03  0.87357307716E-03  0.00000000000E+00 0.  1.
<mgrwt>
<rscale>  1 0.65368258E+03</rscale>
<asrwt>0</asrwt>
<pdfrwt beam="1">  1        1 0.38845920E+00 0.65368258E+03</pdfrwt>
<pdfrwt beam="2">0</pdfrwt>
<totfact> 0.15045342E+00</totfact>
</mgrwt>
</event>
<event>
 6    1  0.7220224E-003  0.6608363E+03  0.7818608E-02  0.9786655E-01
          1   -1    0    0  502    0  0.00000000000E+00  0.00000000000E+00  0.10922768677E+03  0.10922768677E+03  0.00000000000E+00 0.  1.
         13   -1    0    0    0    0 -0.00000000000E+00 -0.00000000000E+00 -0.10000000000E+04  0.10000000000E+04  0.00000000000E+00 0.  1.
    9000005    2    1    2  501    0 -0.13036460253E-01  0.21011965601E-02 -0.89082290133E+03  0.11091754037E+04  0.66083631440E+03 0.  0.
         13    1    3    3    0    0 -0.22815448254E+03  0.21096520798E+03 -0.63396348914E+03  0.70602442765E+03  0.00000000000E+00 0.  1.
          1    1    3    3  501    0  0.22814144608E+03 -0.21096310679E+03 -0.25685941220E+03  0.40315097604E+03  0.00000000000E+00 0.  1.
         21    1    1    2  502  501  0.13036460253E-01 -0.21011965601E-02  0.50588103480E-01  0.52283080788E-01  0.00000000000E+00 0.  1.
<mgrwt>
<rscale>  1 0.66083631E+03</rscale>
<asrwt>0</asrwt>
<pdfrwt beam="1">  1        1 0.39719243E+00 0.66083631E+03</pdfrwt>
<pdfrwt beam="2">0</pdfrwt>
<totfact> 0.13741532E+00</totfact>
</mgrwt>
</event>
<event>
 6    1  0.7220224E-003  0.6470194E+03  0.7818608E-02  0.9812388E-01
          1   -1    0    0  502    0  0.00000000000E+00  0.00000000000E+00  0.10586960394E+03  0.10586960394E+03  0.00000000000E+00 0.  1.
         13   -1    0    0    0    0 -0.00000000000E+00 -0.00000000000E+00 -0.10000000000E+04  0.10000000000E+04  0.00000000000E+00 0.  1.
    9000005    2    1    2  501    0  0.79399526221E+00  0.23919607009E+00 -0.89518269626E+03  0.11045298357E+04  0.64701886419E+03 0.  0.
         13    1    3    3    0    0  0.11953395112E+03  0.26611762481E+03 -0.68759311983E+03  0.74692118336E+03  0.00000000000E+00 0.  1.
          1    1    3    3  501    0 -0.11873995585E+03 -0.26587842874E+03 -0.20758957643E+03  0.35760865234E+03  0.00000000000E+00 0.  1.
         21    1    1    2  502  501 -0.79399526221E+00 -0.23919607009E+00  0.10523002004E+01  0.13397682442E+01  0.00000000000E+00 0. -1.
<mgrwt>
<rscale>  1 0.64701940E+03</rscale>
<asrwt>0</asrwt>
<pdfrwt beam="1">  1        1 0.38498119E+00 0.64701940E+03</pdfrwt>
<pdfrwt beam="2">0</pdfrwt>
<totfact> 0.15607562E+00</totfact>
</mgrwt>
</event>
<event>
 6    1  0.7220224E-003  0.6653269E+03  0.7818608E-02  0.9778437E-01
          1   -1    0    0  502    0  0.00000000000E+00  0.00000000000E+00  0.11212051685E+03  0.11212051685E+03  0.00000000000E+00 0.  1.
         13   -1    0    0    0    0 -0.00000000000E+00 -0.00000000000E+00 -0.10000000000E+04  0.10000000000E+04  0.00000000000E+00 0.  1.
    9000005    2    1    2  501    0  0.13643699242E+00  0.10225975267E+00 -0.88932949119E+03  0.11106605184E+04  0.66532684763E+03 0.  0.
         13    1    3    3    0    0 -0.41876758912E+02  0.32064033649E+03 -0.57539950162E+03  0.66003672230E+03  0.00000000000E+00 0.  1.
          1    1    3    3  501    0  0.42013195904E+02 -0.32053807674E+03 -0.31392998958E+03  0.45062379611E+03  0.00000000000E+00 0.  1.
         21    1    1    2  502  501 -0.13643699242E+00 -0.10225975267E+00  0.14500080385E+01  0.14599984320E+01  0.00000000000E+00 0. -1.
<mgrwt>
<rscale>  1 0.66532687E+03</rscale>
<asrwt>0</asrwt>
<pdfrwt beam="1">  1        1 0.40771183E+00 0.66532687E+03</pdfrwt>
<pdfrwt beam="2">0</pdfrwt>
<totfact> 0.12322387E+00</totfact>
</mgrwt>
</event>
<event>
 6    1  0.7220224E-003  0.6527639E+03  0.7818608E-02  0.9801607E-01
          1   -1    0    0  502    0  0.00000000000E+00  0.00000000000E+00  0.10652864521E+03  0.10652864521E+03  0.00000000000E+00 0.  1.
         13   -1    0    0    0    0 -0.00000000000E+00 -0.00000000000E+00 -0.10000000000E+04  0.10000000000E+04  0.00000000000E+00 0.  1.
    9000005    2    1    2  501    0 -0.93645059565E-04 -0.22138030266E-03 -0.89347481438E+03  0.11065251773E+04  0.65276391139E+03 0.  0.
         13    1    3    3    0    0  0.47913758910E+02  0.27208746753E+03 -0.15216436362E+03  0.31540658179E+03  0.00000000000E+00 0.  1.
          1    1    3    3  501    0 -0.47913852555E+02 -0.27208768891E+03 -0.74131045076E+03  0.79111859549E+03  0.00000000000E+00 0.  1.
         21    1    1    2  502  501  0.93645059564E-04  0.22138030262E-03  0.34595864917E-02  0.34679269498E-02  0.00000000000E+00 0. -1.
<mgrwt>
<rscale>  1 0.65276391E+03</rscale>
<asrwt>0</asrwt>
<pdfrwt beam="1">  1        1 0.38737771E+00 0.65276391E+03</pdfrwt>
<pdfrwt beam="2">0</pdfrwt>
<totfact> 0.15214820E+00</totfact>
</mgrwt>
</event>
<event>
 6    1  0.7220224E-003  0.5113330E+03  0.7818608E-02  0.1010862E+00
          1   -1    0    0  502    0  0.00000000000E+00  0.00000000000E+00  0.65366699408E+02  0.65366699408E+02  0.00000000000E+00 0.  1.
         13   -1    0    0    0    0 -0.00000000000E+00 -0.00000000000E+00 -0.10000000000E+04  0.10000000000E+04  0.00000000000E+00 0.  1.
    9000005    2    1    2  501    0 -0.52066663667E-03 -0.98282014773E-03 -0.93463438635E+03  0.10653651451E+04  0.51133301890E+03 0.  0.
         13    1    3    3    0    0 -0.20844482887E+03  0.14076352027E+03 -0.56283437015E+03  0.61647882652E+03  0.00000000000E+00 0.  1.
          3    1    3    3  501    0  0.20844430821E+03 -0.14076450309E+03 -0.37180001620E+03  0.44888631857E+03  0.00000000000E+00 0.  1.
         21    1    1    2  502  501  0.52066663665E-03  0.98282014772E-03  0.10857607538E-02  0.15543183727E-02  0.00000000000E+00 0.  1.
<mgrwt>
<rscale>  1 0.51133302E+03</rscale>
<asrwt>0</asrwt>
<pdfrwt beam="1">  1        1 0.23769759E+00 0.51133302E+03</pdfrwt>
<pdfrwt beam="2">0</pdfrwt>
<totfact> 0.69752581E+00</totfact>
</mgrwt>
</event>
<event>
 6    1  0.7220224E-003  0.6501548E+03  0.7818608E-02  0.9806489E-01
          1   -1    0    0  502    0  0.00000000000E+00  0.00000000000E+00  0.10902980630E+03  0.10902980630E+03  0.00000000000E+00 0.  1.
         13   -1    0    0    0    0 -0.00000000000E+00 -0.00000000000E+00 -0.10000000000E+04  0.10000000000E+04  0.00000000000E+00 0.  1.
    9000005    2    1    2  501    0  0.40049236798E+01  0.98396358385E+00 -0.89286199803E+03  0.11044925691E+04  0.65014173840E+03 0.  0.
         13    1    3    3    0    0  0.13654756275E+02  0.28104417276E+03 -0.16886980345E+03  0.32816046369E+03  0.00000000000E+00 0.  1.
          1    1    3    3  501    0 -0.96498325957E+01 -0.28006020918E+03 -0.72399219459E+03  0.77633210539E+03  0.00000000000E+00 0.  1.
         21    1    1    2  502  501 -0.40049236798E+01 -0.98396358385E+00  0.18918043377E+01  0.45372372285E+01  0.00000000000E+00 0.  1.
<mgrwt>
<rscale>  1 0.65015482E+03</rscale>
<asrwt>0</asrwt>
<pdfrwt beam="1">  1        1 0.39647286E+00 0.65015482E+03</pdfrwt>
<pdfrwt beam="2">0</pdfrwt>
<totfact> 0.13871026E+00</totfact>
</mgrwt>
</event>
<event>
 6    1  0.7220224E-003  0.6511425E+03  0.7818608E-02  0.9804638E-01
          1   -1    0    0  502    0  0.00000000000E+00  0.00000000000E+00  0.10601268948E+03  0.10601268948E+03  0.00000000000E+00 0.  1.
         13   -1    0    0    0    0 -0.00000000000E+00 -0.00000000000E+00 -0.10000000000E+04  0.10000000000E+04  0.00000000000E+00 0.  1.
    9000005    2    1    2  501    0  0.55132762287E-03 -0.31139730433E-02 -0.89400319033E+03  0.11059964978E+04  0.65114249510E+03 0.  0.
         13    1    3    3    0    0  0.30916593937E+03 -0.16795385460E+02 -0.61796741154E+03  0.69119417298E+03  0.00000000000E+00 0.  1.
          3    1    3    3  501    0 -0.30916538804E+03  0.16792271487E+02 -0.27603577879E+03  0.41480232487E+03  0.00000000000E+00 0.  1.
         21    1    1    2  502  501 -0.55132762288E-03  0.31139730433E-02  0.15879807966E-01  0.16191636462E-01  0.00000000000E+00 0.  1.
<mgrwt>
<rscale>  1 0.65114250E+03</rscale>
<asrwt>0</asrwt>
<pdfrwt beam="1">  1        1 0.38550150E+00 0.65114250E+03</pdfrwt>
<pdfrwt beam="2">0</pdfrwt>
<totfact> 0.15513224E+00</totfact>
</mgrwt>
</event>
<event>
 6    1  0.7220224E-003  0.7062730E+03  0.7818608E-02  0.9706564E-01
          1   -1    0    0  502    0  0.00000000000E+00  0.00000000000E+00  0.12470594556E+03  0.12470594556E+03  0.00000000000E+00 0.  1.
         13   -1    0    0    0    0 -0.00000000000E+00 -0.00000000000E+00 -0.10000000000E+04  0.10000000000E+04  0.00000000000E+00 0.  1.
    9000005    2    1    2  501    0  0.24582074897E-04 -0.78093203172E-04 -0.87529459908E+03  0.11247053948E+04  0.70627302788E+03 0.  0.
         13    1    3    3    0    0  0.30640402297E+02  0.10130867355E+03  0.98853094909E+02  0.14482477676E+03  0.00000000000E+00 0.  1.
          1    1    3    3  501    0 -0.30640377715E+02 -0.10130875165E+03 -0.97414769399E+03  0.97988061804E+03  0.00000000000E+00 0.  1.
         21    1    1    2  502  501 -0.24582074896E-04  0.78093203172E-04  0.54464239526E-03  0.55076144156E-03  0.00000000000E+00 0.  1.
<mgrwt>
<rscale>  1 0.70627303E+03</rscale>
<asrwt>0</asrwt>
<pdfrwt beam="1">  1        1 0.45347712E+00 0.70627303E+03</pdfrwt>
<pdfrwt beam="2">0</pdfrwt>
<totfact> 0.75700798E-01</totfact>
</mgrwt>
</event>
<event>
 6    1  0.7220224E-003  0.6708647E+03  0.7818608E-02  0.9768397E-01
          1   -1    0    0  502    0  0.00000000000E+00  0.00000000000E+00  0.11274874215E+03  0.11274874215E+03  0.00000000000E+00 0.  1.
         13   -1    0    0    0    0 -0.00000000000E+00 -0.00000000000E+00 -0.10000000000E+04  0.10000000000E+04  0.00000000000E+00 0.  1.
    9000005    2    1    2  501    0  0.11646268439E+00 -0.67813869354E+00 -0.88651342317E+03  0.11117398637E+04  0.67086436909E+03 0.  0.
         13    1    3    3    0    0  0.26067625776E+03 -0.15983607024E+02 -0.79232214831E+03  0.83425534087E+03  0.00000000000E+00 0.  1.
          1    1    3    3  501    0 -0.26055979508E+03  0.15305468331E+02 -0.94191274852E+02  0.27748452286E+03  0.00000000000E+00 0.  1.
         21    1    1    2  502  501 -0.11646268439E+00  0.67813869354E+00 -0.73783468388E+00  0.10088784195E+01  0.00000000000E+00 0.  1.
<mgrwt>
<rscale>  1 0.67086472E+03</rscale>
<asrwt>0</asrwt>
<pdfrwt beam="1">  1        1 0.40999629E+00 0.67086472E+03</pdfrwt>
<pdfrwt beam="2">0</pdfrwt>
<totfact> 0.12022656E+00</totfact>
</mgrwt>
</event>
<event>
 6    1  0.7220224E-003  0.6545489E+03  0.7818608E-02  0.9798281E-01
          1   -1    0    0  502    0  0.00000000000E+00  0.00000000000E+00  0.10742163053E+03  0.10742163053E+03  0.00000000000E+00 0.  1.
         13   -1    0    0    0    0 -0.00000000000E+00 -0.00000000000E+00 -0.10000000000E+04  0.10000000000E+04  0.00000000000E+00 0.  1.
    9000005    2    1    2  501    0 -0.39736786252E-01  0.27933123169E+00 -0.89281944789E+03  0.11070505190E+04  0.65454885648E+03 0.  0.
         13    1    3    3    0    0  0.37555492788E+02 -0.47469918079E+02 -0.99031581394E+03  0.99216390758E+03  0.00000000000E+00 0.  1.
          1    1    3    3  501    0 -0.37595229574E+02  0.47749249310E+02  0.97496366045E+02  0.11488661144E+03  0.00000000000E+00 0.  1.
         21    1    1    2  502  501  0.39736786252E-01 -0.27933123169E+00  0.24107841838E+00  0.37111151017E+00  0.00000000000E+00 0. -1.
<mgrwt>
<rscale>  1 0.65454892E+03</rscale>
<asrwt>0</asrwt>
<pdfrwt beam="1">  1        1 0.39062493E+00 0.65454892E+03</pdfrwt>
<pdfrwt beam="2">0</pdfrwt>
<totfact> 0.14713979E+00</totfact>
</mgrwt>
</event>
<event>
 6    1  0.7220224E-003  0.6427093E+03  0.7818608E-02  0.9820557E-01
          1   -1    0    0  502    0  0.00000000000E+00  0.00000000000E+00  0.10327379015E+03  0.10327379015E+03  0.00000000000E+00 0.  1.
         13   -1    0    0    0    0 -0.00000000000E+00 -0.00000000000E+00 -0.10000000000E+04  0.10000000000E+04  0.00000000000E+00 0.  1.
    9000005    2    1    2  501    0 -0.20172856498E-02 -0.18898285474E-03 -0.89673095835E+03  0.11032686275E+04  0.64270930649E+03 0.  0.
         13    1    3    3    0    0  0.11682634821E+03 -0.56159531141E+02 -0.95313101691E+03  0.96190489341E+03  0.00000000000E+00 0.  1.
          3    1    3    3  501    0 -0.11682836550E+03  0.56159342158E+02  0.56400058554E+02  0.14136373404E+03  0.00000000000E+00 0.  1.
         21    1    1    2  502  501  0.20172856498E-02  0.18898285474E-03  0.47485046117E-02  0.51626981278E-02  0.00000000000E+00 0.  1.
<mgrwt>
<rscale>  1 0.64270931E+03</rscale>
<asrwt>0</asrwt>
<pdfrwt beam="1">  1        1 0.37554185E+00 0.64270931E+03</pdfrwt>
<pdfrwt beam="2">0</pdfrwt>
<totfact> 0.17192222E+00</totfact>
</mgrwt>
</event>
<event>
 6    1  0.7220224E-003  0.6474907E+03  0.7818608E-02  0.9811499E-01
          1   -1    0    0  502    0  0.00000000000E+00  0.00000000000E+00  0.10481667818E+03  0.10481667818E+03  0.00000000000E+00 0.  1.
         13   -1    0    0    0    0 -0.00000000000E+00 -0.00000000000E+00 -0.10000000000E+04  0.10000000000E+04  0.00000000000E+00 0.  1.
    9000005    2    1    2  501    0 -0.24490532383E-04  0.17517029909E-03 -0.89518893399E+03  0.11048110632E+04  0.64749073962E+03 0.  0.
         13    1    3    3    0    0  0.31080659602E+03 -0.75470817248E+02 -0.36203324469E+03  0.48307831108E+03  0.00000000000E+00 0.  1.
          3    1    3    3  501    0 -0.31080662051E+03  0.75470992419E+02 -0.53315568930E+03  0.62173275214E+03  0.00000000000E+00 0.  1.
         21    1    1    2  502  501  0.24490532388E-04 -0.17517029909E-03  0.56121702986E-02  0.56149568013E-02  0.00000000000E+00 0. -1.
<mgrwt>
<rscale>  1 0.64749074E+03</rscale>
<asrwt>0</asrwt>
<pdfrwt beam="1">  1        1 0.38115236E+00 0.64749074E+03</pdfrwt>
<pdfrwt beam="2">0</pdfrwt>
<totfact> 0.16226154E+00</totfact>
</mgrwt>
</event>
<event>
 6    1  0.7220224E-003  0.6443793E+03  0.7818608E-02  0.9817384E-01
          1   -1    0    0  502    0  0.00000000000E+00  0.00000000000E+00  0.10380617212E+03  0.10380617212E+03  0.00000000000E+00 0.  1.
         13   -1    0    0    0    0 -0.00000000000E+00 -0.00000000000E+00 -0.10000000000E+04  0.10000000000E+04  0.00000000000E+00 0.  1.
    9000005    2    1    2  501    0 -0.12223221120E-05  0.16148025566E-05 -0.89619383803E+03  0.11038061618E+04  0.64437927296E+03 0.  0.
         13    1    3    3    0    0  0.19825916306E+03 -0.26780589000E+02 -0.88071156957E+03  0.90314825165E+03  0.00000000000E+00 0.  1.
          3    1    3    3  501    0 -0.19825916428E+03  0.26780590615E+02 -0.15482268466E+02  0.20065791012E+03  0.00000000000E+00 0.  1.
         21    1    1    2  502  501  0.12223221098E-05 -0.16148025567E-05  0.10150278497E-04  0.10350353241E-04  0.00000000000E+00 0.  1.
<mgrwt>
<rscale>  1 0.64437927E+03</rscale>
<asrwt>0</asrwt>
<pdfrwt beam="1">  1        1 0.37747779E+00 0.64437927E+03</pdfrwt>
<pdfrwt beam="2">0</pdfrwt>
<totfact> 0.16852781E+00</totfact>
</mgrwt>
</event>
<event>
 6    1  0.7220224E-003  0.6541224E+03  0.7818608E-02  0.9799074E-01
          1   -1    0    0  502    0  0.00000000000E+00  0.00000000000E+00  0.11263692040E+03  0.11263692040E+03  0.00000000000E+00 0.  1.
         13   -1    0    0    0    0 -0.00000000000E+00 -0.00000000000E+00 -0.10000000000E+04  0.10000000000E+04  0.00000000000E+00 0.  1.
    9000005    2    1    2  501    0 -0.26032032199E-01 -0.21329435085E+00 -0.89302872938E+03  0.11069671973E+04  0.65412232674E+03 0.  0.
         13    1    3    3    0    0  0.11534440896E+03  0.45073233590E+02 -0.95872618168E+03  0.96669117122E+03  0.00000000000E+00 0.  1.
          1    1    3    3  501    0 -0.11537044099E+03 -0.45286527941E+02  0.65697452306E+02  0.14027602613E+03  0.00000000000E+00 0.  1.
         21    1    1    2  502  501  0.26032032199E-01  0.21329435085E+00  0.56656497728E+01  0.56697230527E+01  0.00000000000E+00 0. -1.
<mgrwt>
<rscale>  1 0.65412236E+03</rscale>
<asrwt>0</asrwt>
<pdfrwt beam="1">  1        1 0.40958967E+00 0.65412236E+03</pdfrwt>
<pdfrwt beam="2">0</pdfrwt>
<totfact> 0.12111852E+00</totfact>
</mgrwt>
</event>
<event>
 6    1  0.7220224E-003  0.6138168E+03  0.7818608E-02  0.9877148E-01
          1   -1    0    0  502    0  0.00000000000E+00  0.00000000000E+00  0.94192788029E+02  0.94192788029E+02  0.00000000000E+00 0.  1.
         13   -1    0    0    0    0 -0.00000000000E+00 -0.00000000000E+00 -0.10000000000E+04  0.10000000000E+04  0.00000000000E+00 0.  1.
    9000005    2    1    2  501    0 -0.85444665388E-06  0.34862594873E-05 -0.90580723727E+03  0.10941927625E+04  0.61381678892E+03 0.  0.
         13    1    3    3    0    0 -0.15536046164E+03  0.18551965761E+03 -0.78942592225E+03  0.82568014577E+03  0.00000000000E+00 0.  1.
          3    1    3    3  501    0  0.15536046079E+03 -0.18551965413E+03 -0.11638131502E+03  0.26851261671E+03  0.00000000000E+00 0.  1.
         21    1    1    2  502  501  0.85444666204E-06 -0.34862594964E-05  0.25298862169E-04  0.25552231046E-04  0.00000000000E+00 0. -1.
<mgrwt>
<rscale>  1 0.61381679E+03</rscale>
<asrwt>0</asrwt>
<pdfrwt beam="1">  1        1 0.34251995E+00 0.61381679E+03</pdfrwt>
<pdfrwt beam="2">0</pdfrwt>
<totfact> 0.24098680E+00</totfact>
</mgrwt>
</event>
<event>
 6    1  0.7220224E-003  0.6358690E+03  0.7818608E-02  0.9833662E-01
          1   -1    0    0  502    0  0.00000000000E+00  0.00000000000E+00  0.10294696719E+03  0.10294696719E+03  0.00000000000E+00 0.  1.
         13   -1    0    0    0    0 -0.00000000000E+00 -0.00000000000E+00 -0.10000000000E+04  0.10000000000E+04  0.00000000000E+00 0.  1.
    9000005    2    1    2  501    0 -0.44238419726E+00 -0.50745398453E-01 -0.89888834212E+03  0.11010584124E+04  0.63586883683E+03 0.  0.
         13    1    3    3    0    0 -0.16074626783E+03 -0.64513481265E+02  0.12288926059E+02  0.17364437679E+03  0.00000000000E+00 0.  1.
          1    1    3    3  501    0  0.16030388363E+03  0.64462735866E+02 -0.91117726818E+03  0.92741403563E+03  0.00000000000E+00 0.  1.
         21    1    1    2  502  501  0.44238419726E+00  0.50745398453E-01  0.18353093186E+01  0.18885547830E+01  0.00000000000E+00 0.  1.
<mgrwt>
<rscale>  1 0.63586899E+03</rscale>
<asrwt>0</asrwt>
<pdfrwt beam="1">  1        1 0.37435340E+00 0.63586899E+03</pdfrwt>
<pdfrwt beam="2">0</pdfrwt>
<totfact> 0.17422413E+00</totfact>
</mgrwt>
</event>
<event>
 6    1  0.7220224E-003  0.6336534E+03  0.7818608E-02  0.9837945E-01
          1   -1    0    0  502    0  0.00000000000E+00  0.00000000000E+00  0.10038120609E+03  0.10038120609E+03  0.00000000000E+00 0.  1.
         13   -1    0    0    0    0 -0.00000000000E+00 -0.00000000000E+00 -0.10000000000E+04  0.10000000000E+04  0.00000000000E+00 0.  1.
    9000005    2    1    2  501    0  0.14556469978E-04  0.10844923560E-03 -0.89962084351E+03  0.11003791536E+04  0.63365339069E+03 0.  0.
         13    1    3    3    0    0 -0.11027607352E+03 -0.13270922976E+03 -0.91124821981E+03  0.92744049413E+03  0.00000000000E+00 0.  1.
          3    1    3    3  501    0  0.11027608808E+03  0.13270933821E+03  0.11627376297E+02  0.17293865944E+03  0.00000000000E+00 0.  1.
         21    1    1    2  502  501 -0.14556469975E-04 -0.10844923558E-03  0.20495983224E-02  0.20525170915E-02  0.00000000000E+00 0.  1.
<mgrwt>
<rscale>  1 0.63365339E+03</rscale>
<asrwt>0</asrwt>
<pdfrwt beam="1">  1        1 0.36502334E+00 0.63365339E+03</pdfrwt>
<pdfrwt beam="2">0</pdfrwt>
<totfact> 0.19153625E+00</totfact>
</mgrwt>
</event>
<event>
 6    1  0.7220224E-003  0.6578566E+03  0.7818608E-02  0.9792148E-01
          1   -1    0    0  502    0  0.00000000000E+00  0.00000000000E+00  0.10854533742E+03  0.10854533742E+03  0.00000000000E+00 0.  1.
         13   -1    0    0    0    0 -0.00000000000E+00 -0.00000000000E+00 -0.10000000000E+04  0.10000000000E+04  0.00000000000E+00 0.  1.
    9000005    2    1    2  501    0  0.24297772044E-01 -0.77880665786E-01 -0.89180092933E+03  0.11081895897E+04  0.65785656683E+03 0.  0.
         13    1    3    3    0    0 -0.30298615435E+01 -0.27994000618E+03 -0.15495263604E+03  0.31997797820E+03  0.00000000000E+00 0.  1.
          1    1    3    3  501    0  0.30541593155E+01  0.27986212551E+03 -0.73684829329E+03  0.78821161150E+03  0.00000000000E+00 0.  1.
         21    1    1    2  502  501 -0.24297772044E-01  0.77880665786E-01  0.34626674981E+00  0.35574772220E+00  0.00000000000E+00 0. -1.
<mgrwt>
<rscale>  1 0.65785657E+03</rscale>
<asrwt>0</asrwt>
<pdfrwt beam="1">  1        1 0.39471115E+00 0.65785657E+03</pdfrwt>
<pdfrwt beam="2">0</pdfrwt>
<totfact> 0.14103143E+00</totfact>
</mgrwt>
</event>
<event>
 6    1  0.7220224E-003  0.6487730E+03  0.7818608E-02  0.9809084E-01
          1   -1    0    0  502    0  0.00000000000E+00  0.00000000000E+00  0.10560120863E+03  0.10560120863E+03  0.00000000000E+00 0.  1.
         13   -1    0    0    0    0 -0.00000000000E+00 -0.00000000000E+00 -0.10000000000E+04  0.10000000000E+04  0.00000000000E+00 0.  1.
    9000005    2    1    2  501    0 -0.19268724040E+00 -0.49746108821E-01 -0.89474397280E+03  0.11052027701E+04  0.64877295456E+03 0.  0.
         13    1    3    3    0    0  0.88373185997E+02 -0.28113872425E+03 -0.21644645375E+03  0.36564719282E+03  0.00000000000E+00 0.  1.
          3    1    3    3  501    0 -0.88565873237E+02  0.28108897814E+03 -0.67829751905E+03  0.73955557728E+03  0.00000000000E+00 0.  1.
         21    1    1    2  502  501  0.19268724040E+00  0.49746108821E-01  0.34518143097E+00  0.39843853760E+00  0.00000000000E+00 0. -1.
<mgrwt>
<rscale>  1 0.64877299E+03</rscale>
<asrwt>0</asrwt>
<pdfrwt beam="1">  1        1 0.38400520E+00 0.64877299E+03</pdfrwt>
<pdfrwt beam="2">0</pdfrwt>
<totfact> 0.15758311E+00</totfact>
</mgrwt>
</event>
<event>
 6    1  0.7220224E-003  0.6008087E+03  0.7818608E-02  0.9903730E-01
          1   -1    0    0  502    0  0.00000000000E+00  0.00000000000E+00  0.90242822047E+02  0.90242822047E+02  0.00000000000E+00 0.  1.
         13   -1    0    0    0    0 -0.00000000000E+00 -0.00000000000E+00 -0.10000000000E+04  0.10000000000E+04  0.00000000000E+00 0.  1.
    9000005    2    1    2  501    0  0.54488263785E-05  0.15910683828E-05 -0.90975722053E+03  0.10902427791E+04  0.60080871920E+03 0.  0.
         13    1    3    3    0    0 -0.61532941996E+02  0.17982199220E+03 -0.32727435319E+02  0.19285574104E+03  0.00000000000E+00 0.  1.
          3    1    3    3  501    0  0.61532947445E+02 -0.17982199061E+03 -0.87702978521E+03  0.89738703806E+03  0.00000000000E+00 0.  1.
         21    1    1    2  502  501 -0.54488263813E-05 -0.15910683823E-05  0.42574582290E-04  0.42951324365E-04  0.00000000000E+00 0.  1.
<mgrwt>
<rscale>  1 0.60080872E+03</rscale>
<asrwt>0</asrwt>
<pdfrwt beam="1">  1        1 0.32815641E+00 0.60080872E+03</pdfrwt>
<pdfrwt beam="2">0</pdfrwt>
<totfact> 0.27880401E+00</totfact>
</mgrwt>
</event>
<event>
 6    1  0.7220224E-003  0.6617726E+03  0.7818608E-02  0.9784936E-01
          1   -1    0    0  502    0  0.00000000000E+00  0.00000000000E+00  0.10952901484E+03  0.10952901484E+03  0.00000000000E+00 0.  1.
         13   -1    0    0    0    0 -0.00000000000E+00 -0.00000000000E+00 -0.10000000000E+04  0.10000000000E+04  0.00000000000E+00 0.  1.
    9000005    2    1    2  501    0  0.17352742434E-02 -0.30618152935E-02 -0.89051417102E+03  0.11094856858E+04  0.66177261823E+03 0.  0.
         13    1    3    3    0    0 -0.81362546046E+02  0.11538932510E+03 -0.94695987921E+03  0.95742758111E+03  0.00000000000E+00 0.  1.
          3    1    3    3  501    0  0.81364281321E+02 -0.11539238691E+03  0.56445708193E+02  0.15205810470E+03  0.00000000000E+00 0.  1.
         21    1    1    2  502  501 -0.17352742434E-02  0.30618152935E-02  0.43185855323E-01  0.43329020178E-01  0.00000000000E+00 0.  1.
<mgrwt>
<rscale>  1 0.66177262E+03</rscale>
<asrwt>0</asrwt>
<pdfrwt beam="1">  1        1 0.39828817E+00 0.66177262E+03</pdfrwt>
<pdfrwt beam="2">0</pdfrwt>
<totfact> 0.13585613E+00</totfact>
</mgrwt>
</event>
<event>
 6    1  0.7220224E-003  0.6442885E+03  0.7818608E-02  0.9817556E-01
          1   -1    0    0  502    0  0.00000000000E+00  0.00000000000E+00  0.10378391365E+03  0.10378391365E+03  0.00000000000E+00 0.  1.
         13   -1    0    0    0    0 -0.00000000000E+00 -0.00000000000E+00 -0.10000000000E+04  0.10000000000E+04  0.00000000000E+00 0.  1.
    9000005    2    1    2  501    0  0.27701159377E-02  0.35570171188E-02 -0.89622227230E+03  0.11037762591E+04  0.64428849812E+03 0.  0.
         13    1    3    3    0    0  0.29540274442E+03  0.86415765620E+02 -0.61106823699E+03  0.68420381190E+03  0.00000000000E+00 0.  1.
          3    1    3    3  501    0 -0.29539997430E+03 -0.86412208603E+02 -0.28515403530E+03  0.41957244722E+03  0.00000000000E+00 0.  1.
         21    1    1    2  502  501 -0.27701159377E-02 -0.35570171187E-02  0.61859431183E-02  0.76545284214E-02  0.00000000000E+00 0.  1.
<mgrwt>
<rscale>  1 0.64428850E+03</rscale>
<asrwt>0</asrwt>
<pdfrwt beam="1">  1        1 0.37739685E+00 0.64428850E+03</pdfrwt>
<pdfrwt beam="2">0</pdfrwt>
<totfact> 0.16866909E+00</totfact>
</mgrwt>
</event>
<event>
 6    1  0.7220224E-003  0.6617704E+03  0.7818608E-02  0.9784940E-01
          1   -1    0    0  502    0  0.00000000000E+00  0.00000000000E+00  0.11499219288E+03  0.11499219288E+03  0.00000000000E+00 0.  1.
         13   -1    0    0    0    0 -0.00000000000E+00 -0.00000000000E+00 -0.10000000000E+04  0.10000000000E+04  0.00000000000E+00 0.  1.
    9000005    2    1    2  501    0  0.35051294786E+00 -0.16099684917E-01 -0.89050878403E+03  0.11094800367E+04  0.66177030330E+03 0.  0.
         13    1    3    3    0    0 -0.11685957220E+03 -0.14951075886E+03 -0.89950330091E+03  0.91930180843E+03  0.00000000000E+00 0.  1.
          1    1    3    3  501    0  0.11721008514E+03  0.14949465918E+03  0.89945168826E+01  0.19017822829E+03  0.00000000000E+00 0.  1.
         21    1    1    2  502  501 -0.35051294786E+00  0.16099684917E-01  0.55009769149E+01  0.55121561612E+01  0.00000000000E+00 0. -1.
<mgrwt>
<rscale>  1 0.66177040E+03</rscale>
<asrwt>0</asrwt>
<pdfrwt beam="1">  1        1 0.41815431E+00 0.66177040E+03</pdfrwt>
<pdfrwt beam="2">0</pdfrwt>
<totfact> 0.11068184E+00</totfact>
</mgrwt>
</event>
<event>
 6    1  0.7220224E-003  0.6482182E+03  0.7818608E-02  0.9810128E-01
          1   -1    0    0  502    0  0.00000000000E+00  0.00000000000E+00  0.10504835966E+03  0.10504835966E+03  0.00000000000E+00 0.  1.
         13   -1    0    0    0    0 -0.00000000000E+00 -0.00000000000E+00 -0.10000000000E+04  0.10000000000E+04  0.00000000000E+00 0.  1.
    9000005    2    1    2  501    0  0.21015670129E-02  0.18260335838E-03 -0.89495248841E+03  0.11050460861E+04  0.64821824709E+03 0.  0.
         13    1    3    3    0    0 -0.26765141276E+03 -0.11949637772E+03 -0.21169298053E+03  0.36156684174E+03  0.00000000000E+00 0.  1.
          3    1    3    3  501    0  0.26765351433E+03  0.11949656033E+03 -0.68325950788E+03  0.74347924434E+03  0.00000000000E+00 0.  1.
         21    1    1    2  502  501 -0.21015670128E-02 -0.18260335839E-03  0.84806590124E-03  0.22735750854E-02  0.00000000000E+00 0.  1.
<mgrwt>
<rscale>  1 0.64821825E+03</rscale>
<asrwt>0</asrwt>
<pdfrwt beam="1">  1        1 0.38199484E+00 0.64821825E+03</pdfrwt>
<pdfrwt beam="2">0</pdfrwt>
<totfact> 0.16085603E+00</totfact>
</mgrwt>
</event>
<event>
 6    1  0.7220224E-003  0.6544190E+03  0.7818608E-02  0.9798522E-01
          1   -1    0    0  502    0  0.00000000000E+00  0.00000000000E+00  0.10707429975E+03  0.10707429975E+03  0.00000000000E+00 0.  1.
         13   -1    0    0    0    0 -0.00000000000E+00 -0.00000000000E+00 -0.10000000000E+04  0.10000000000E+04  0.00000000000E+00 0.  1.
    9000005    2    1    2  501    0 -0.15434602759E-03  0.76371400829E-03 -0.89293391315E+03  0.11070660500E+04  0.65441902917E+03 0.  0.
         13    1    3    3    0    0 -0.24290229977E+03  0.18390180125E+03 -0.24456260754E+03  0.39068179986E+03  0.00000000000E+00 0.  1.
          1    1    3    3  501    0  0.24290214542E+03 -0.18390103754E+03 -0.64837130561E+03  0.71638425011E+03  0.00000000000E+00 0.  1.
         21    1    1    2  502  501  0.15434602759E-03 -0.76371400828E-03  0.82129089610E-02  0.82497851720E-02  0.00000000000E+00 0.  1.
<mgrwt>
<rscale>  1 0.65441903E+03</rscale>
<asrwt>0</asrwt>
<pdfrwt beam="1">  1        1 0.38936191E+00 0.65441903E+03</pdfrwt>
<pdfrwt beam="2">0</pdfrwt>
<totfact> 0.14905335E+00</totfact>
</mgrwt>
</event>
<event>
 6    1  0.7220224E-003  0.6516996E+03  0.7818608E-02  0.9803595E-01
          1   -1    0    0  502    0  0.00000000000E+00  0.00000000000E+00  0.10617971183E+03  0.10617971183E+03  0.00000000000E+00 0.  1.
         13   -1    0    0    0    0 -0.00000000000E+00 -0.00000000000E+00 -0.10000000000E+04  0.10000000000E+04  0.00000000000E+00 0.  1.
    9000005    2    1    2  501    0 -0.73143124894E-04 -0.99954325222E-04 -0.89382189295E+03  0.11061781023E+04  0.65169963759E+03 0.  0.
         13    1    3    3    0    0  0.28095523624E+03 -0.64236488632E+02 -0.70497832475E+03  0.76161447571E+03  0.00000000000E+00 0.  1.
          1    1    3    3  501    0 -0.28095530938E+03  0.64236388678E+02 -0.18884356820E+03  0.34456362656E+03  0.00000000000E+00 0.  1.
         21    1    1    2  502  501  0.73143124921E-04  0.99954325223E-04  0.16047782805E-02  0.16095509043E-02  0.00000000000E+00 0.  1.
<mgrwt>
<rscale>  1 0.65169964E+03</rscale>
<asrwt>0</asrwt>
<pdfrwt beam="1">  1        1 0.38610886E+00 0.65169964E+03</pdfrwt>
<pdfrwt beam="2">0</pdfrwt>
<totfact> 0.15415931E+00</totfact>
</mgrwt>
</event>
<event>
 6    1  0.7220224E-003  0.6369629E+03  0.7818608E-02  0.9831555E-01
          1   -1    0    0  502    0  0.00000000000E+00  0.00000000000E+00  0.10144808260E+03  0.10144808260E+03  0.00000000000E+00 0.  1.
         13   -1    0    0    0    0 -0.00000000000E+00 -0.00000000000E+00 -0.10000000000E+04  0.10000000000E+04  0.00000000000E+00 0.  1.
    9000005    2    1    2  501    0  0.31769496703E-02  0.25314009719E-02 -0.89856932296E+03  0.11014302093E+04  0.63696285432E+03 0.  0.
         13    1    3    3    0    0 -0.18711828547E+03  0.19013249254E+03 -0.75011731282E+03  0.79614044017E+03  0.00000000000E+00 0.  1.
          3    1    3    3  501    0  0.18712146242E+03 -0.19012996114E+03 -0.14845201014E+03  0.30528976913E+03  0.00000000000E+00 0.  1.
         21    1    1    2  502  501 -0.31769496703E-02 -0.25314009719E-02  0.17405562361E-01  0.17873292959E-01  0.00000000000E+00 0. -1.
<mgrwt>
<rscale>  1 0.63696285E+03</rscale>
<asrwt>0</asrwt>
<pdfrwt beam="1">  1        1 0.36890290E+00 0.63696285E+03</pdfrwt>
<pdfrwt beam="2">0</pdfrwt>
<totfact> 0.18406619E+00</totfact>
</mgrwt>
</event>
<event>
 6    1  0.7220224E-003  0.6448667E+03  0.7818608E-02  0.9816459E-01
          1   -1    0    0  502    0  0.00000000000E+00  0.00000000000E+00  0.10396748223E+03  0.10396748223E+03  0.00000000000E+00 0.  1.
         13   -1    0    0    0    0 -0.00000000000E+00 -0.00000000000E+00 -0.10000000000E+04  0.10000000000E+04  0.00000000000E+00 0.  1.
    9000005    2    1    2  501    0  0.21071363770E-03 -0.51647276592E-04 -0.89603671671E+03  0.11039632777E+04  0.64486674654E+03 0.  0.
         13    1    3    3    0    0  0.11046002250E+03 -0.20812293183E+03 -0.82482367457E+03  0.85781738468E+03  0.00000000000E+00 0.  1.
          1    1    3    3  501    0 -0.11045981179E+03  0.20812288018E+03 -0.71213042138E+02  0.24614589301E+03  0.00000000000E+00 0.  1.
         21    1    1    2  502  501 -0.21071363770E-03  0.51647276579E-04  0.41989410352E-02  0.42045420078E-02  0.00000000000E+00 0.  1.
<mgrwt>
<rscale>  1 0.64486675E+03</rscale>
<asrwt>0</asrwt>
<pdfrwt beam="1">  1        1 0.37806437E+00 0.64486675E+03</pdfrwt>
<pdfrwt beam="2">0</pdfrwt>
<totfact> 0.16751256E+00</totfact>
</mgrwt>
</event>
<event>
 6    1  0.7220224E-003  0.6502641E+03  0.7818608E-02  0.9806284E-01
          1   -1    0    0  502    0  0.00000000000E+00  0.00000000000E+00  0.10571906760E+03  0.10571906760E+03  0.00000000000E+00 0.  1.
         13   -1    0    0    0    0 -0.00000000000E+00 -0.00000000000E+00 -0.10000000000E+04  0.10000000000E+04  0.00000000000E+00 0.  1.
    9000005    2    1    2  501    0 -0.30905823304E-02  0.25522916674E-02 -0.89428861450E+03  0.11057104027E+04  0.65026407603E+03 0.  0.
         13    1    3    3    0    0 -0.28175179154E+03 -0.16225569654E+03 -0.44618986008E+03  0.55208366606E+03  0.00000000000E+00 0.  1.
          1    1    3    3  501    0  0.28174870095E+03  0.16225824883E+03 -0.44809875442E+03  0.55362673663E+03  0.00000000000E+00 0.  1.
         21    1    1    2  502  501  0.30905823304E-02 -0.25522916674E-02  0.76820977270E-02  0.86649014642E-02  0.00000000000E+00 0. -1.
<mgrwt>
<rscale>  1 0.65026408E+03</rscale>
<asrwt>0</asrwt>
<pdfrwt beam="1">  1        1 0.38443378E+00 0.65026408E+03</pdfrwt>
<pdfrwt beam="2">0</pdfrwt>
<totfact> 0.15685386E+00</totfact>
</mgrwt>
</event>
<event>
 6    1  0.7220224E-003  0.6550265E+03  0.7818608E-02  0.9797393E-01
          1   -1    0    0  502    0  0.00000000000E+00  0.00000000000E+00  0.10779750595E+03  0.10779750595E+03  0.00000000000E+00 0.  1.
         13   -1    0    0    0    0 -0.00000000000E+00 -0.00000000000E+00 -0.10000000000E+04  0.10000000000E+04  0.00000000000E+00 0.  1.
    9000005    2    1    2  501    0 -0.81183832029E-02  0.57874438798E-02 -0.89273500640E+03  0.11072649003E+04  0.65502653965E+03 0.  0.
         13    1    3    3    0    0 -0.24671073394E+03  0.18484744169E+03 -0.25940748532E+03  0.40289825810E+03  0.00000000000E+00 0.  1.
          3    1    3    3  501    0  0.24670261555E+03 -0.18484165425E+03 -0.63332752108E+03  0.70436664218E+03  0.00000000000E+00 0.  1.
         21    1    1    2  502  501  0.81183832029E-02 -0.57874438797E-02  0.53251234508E+00  0.53260567056E+00  0.00000000000E+00 0.  1.
<mgrwt>
<rscale>  1 0.65502654E+03</rscale>
<asrwt>0</asrwt>
<pdfrwt beam="1">  1        1 0.39199176E+00 0.65502654E+03</pdfrwt>
<pdfrwt beam="2">0</pdfrwt>
<totfact> 0.14508617E+00</totfact>
</mgrwt>
</event>
<event>
 6    1  0.7220224E-003  0.6392423E+03  0.7818608E-02  0.9827177E-01
          1   -1    0    0  502    0  0.00000000000E+00  0.00000000000E+00  0.10216675182E+03  0.10216675182E+03  0.00000000000E+00 0.  1.
         13   -1    0    0    0    0 -0.00000000000E+00 -0.00000000000E+00 -0.10000000000E+04  0.10000000000E+04  0.00000000000E+00 0.  1.
    9000005    2    1    2  501    0  0.72510235015E-04 -0.14658702835E-03 -0.89784233015E+03  0.11021576684E+04  0.63924226717E+03 0.  0.
         13    1    3    3    0    0  0.59099830430E+02  0.12102946956E+03 -0.94868072799E+03  0.95819415888E+03  0.00000000000E+00 0.  1.
          3    1    3    3  501    0 -0.59099757920E+02 -0.12102961615E+03  0.50838397835E+02  0.14396350949E+03  0.00000000000E+00 0.  1.
         21    1    1    2  502  501 -0.72510235016E-04  0.14658702835E-03  0.90819717327E-02  0.90834440629E-02  0.00000000000E+00 0.  1.
<mgrwt>
<rscale>  1 0.63924227E+03</rscale>
<asrwt>0</asrwt>
<pdfrwt beam="1">  1        1 0.37151624E+00 0.63924227E+03</pdfrwt>
<pdfrwt beam="2">0</pdfrwt>
<totfact> 0.17919058E+00</totfact>
</mgrwt>
</event>
<event>
 6    1  0.7220224E-003  0.6595765E+03  0.7818608E-02  0.9788974E-01
          3   -1    0    0  502    0  0.00000000000E+00  0.00000000000E+00  0.10876106928E+03  0.10876106928E+03  0.00000000000E+00 0.  1.
         13   -1    0    0    0    0 -0.00000000000E+00 -0.00000000000E+00 -0.10000000000E+04  0.10000000000E+04  0.00000000000E+00 0.  1.
    9000005    2    1    2  501    0  0.11994842158E-03  0.18798446243E-03 -0.89123968991E+03  0.11087602780E+04  0.65957650748E+03 0.  0.
         13    1    3    3    0    0 -0.10202095601E+03 -0.70212321489E+02 -0.95942390369E+03  0.96738424244E+03  0.00000000000E+00 0.  1.
          1    1    3    3  501    0  0.10202107596E+03  0.70212509474E+02  0.68184213773E+02  0.14137603557E+03  0.00000000000E+00 0.  1.
         21    1    1    2  502  501 -0.11994842160E-03 -0.18798446242E-03  0.75919731670E-03  0.79126882135E-03  0.00000000000E+00 0.  1.
<mgrwt>
<rscale>  1 0.65957651E+03</rscale>
<asrwt>0</asrwt>
<pdfrwt beam="1">  1        3 0.39549563E+00 0.65957651E+03</pdfrwt>
<pdfrwt beam="2">0</pdfrwt>
<totfact> 0.62448874E-02</totfact>
</mgrwt>
</event>
<event>
 6    1  0.7220225E-003  0.5696078E+03  0.7818608E-02  0.9970547E-01
          1   -1    0    0  502    0  0.00000000000E+00  0.00000000000E+00  0.81113263048E+02  0.81113263048E+02  0.00000000000E+00 0.  1.
         13   -1    0    0    0    0 -0.00000000000E+00 -0.00000000000E+00 -0.10000000000E+04  0.10000000000E+04  0.00000000000E+00 0.  1.
    9000005    2    1    2  501    0 -0.17394358025E-05  0.15665849787E-04 -0.91888671407E+03  0.10811132353E+04  0.56960778977E+03 0.  0.
         13    1    3    3    0    0  0.10837846207E+03 -0.26188352759E+03 -0.51260014730E+03  0.58573695809E+03  0.00000000000E+00 0.  1.
          3    1    3    3  501    0 -0.10837846381E+03  0.26188354326E+03 -0.40628656677E+03  0.49537627717E+03  0.00000000000E+00 0.  1.
         21    1    1    2  502  501  0.17394358055E-05 -0.15665849810E-04 -0.22878687039E-04  0.27782706992E-04  0.00000000000E+00 0.  1.
<mgrwt>
<rscale>  1 0.56960779E+03</rscale>
<asrwt>0</asrwt>
<pdfrwt beam="1">  1        1 0.29495794E+00 0.56960779E+03</pdfrwt>
<pdfrwt beam="2">0</pdfrwt>
<totfact> 0.39002376E+00</totfact>
</mgrwt>
</event>
<event>
 6    1  0.7220224E-003  0.6499327E+03  0.7818608E-02  0.9806905E-01
          1   -1    0    0  502    0  0.00000000000E+00  0.00000000000E+00  0.10569219255E+03  0.10569219255E+03  0.00000000000E+00 0.  1.
         13   -1    0    0    0    0 -0.00000000000E+00 -0.00000000000E+00 -0.10000000000E+04  0.10000000000E+04  0.00000000000E+00 0.  1.
    9000005    2    1    2  501    0 -0.90385375566E-02 -0.22789931285E-01 -0.89439500073E+03  0.11056016180E+04  0.64993270408E+03 0.  0.
         13    1    3    3    0    0 -0.13861908925E+03 -0.29025264053E+03 -0.36835290320E+03  0.48902526370E+03  0.00000000000E+00 0.  1.
          1    1    3    3  501    0  0.13861005071E+03  0.29022985060E+03 -0.52604209753E+03  0.61657635433E+03  0.00000000000E+00 0.  1.
         21    1    1    2  502  501  0.90385375566E-02  0.22789931285E-01  0.87193287142E-01  0.90574529818E-01  0.00000000000E+00 0. -1.
<mgrwt>
<rscale>  1 0.64993270E+03</rscale>
<asrwt>0</asrwt>
<pdfrwt beam="1">  1        1 0.38433606E+00 0.64993270E+03</pdfrwt>
<pdfrwt beam="2">0</pdfrwt>
<totfact> 0.15701961E+00</totfact>
</mgrwt>
</event>
<event>
 6    1  0.7220224E-003  0.6428812E+03  0.7818608E-02  0.9820230E-01
          1   -1    0    0  502    0  0.00000000000E+00  0.00000000000E+00  0.10332409149E+03  0.10332409149E+03  0.00000000000E+00 0.  1.
         13   -1    0    0    0    0 -0.00000000000E+00 -0.00000000000E+00 -0.10000000000E+04  0.10000000000E+04  0.00000000000E+00 0.  1.
    9000005    2    1    2  501    0 -0.36536094967E-05  0.28866039656E-05 -0.89667594977E+03  0.11033240500E+04  0.64288117124E+03 0.  0.
         13    1    3    3    0    0 -0.12906937223E+03  0.21959068139E+03 -0.78484394356E+03  0.82514179748E+03  0.00000000000E+00 0.  1.
          1    1    3    3  501    0  0.12906936857E+03 -0.21959067850E+03 -0.11183200621E+03  0.27818225249E+03  0.00000000000E+00 0.  1.
         21    1    1    2  502  501  0.36536095163E-05 -0.28866039681E-05  0.41262370298E-04  0.41524264564E-04  0.00000000000E+00 0. -1.
<mgrwt>
<rscale>  1 0.64288117E+03</rscale>
<asrwt>0</asrwt>
<pdfrwt beam="1">  1        1 0.37572476E+00 0.64288117E+03</pdfrwt>
<pdfrwt beam="2">0</pdfrwt>
<totfact> 0.17159830E+00</totfact>
</mgrwt>
</event>
<event>
 6    1  0.7220224E-003  0.6478506E+03  0.7818608E-02  0.9810821E-01
          1   -1    0    0  502    0  0.00000000000E+00  0.00000000000E+00  0.10530712241E+03  0.10530712241E+03  0.00000000000E+00 0.  1.
         13   -1    0    0    0    0 -0.00000000000E+00 -0.00000000000E+00 -0.10000000000E+04  0.10000000000E+04  0.00000000000E+00 0.  1.
    9000005    2    1    2  501    0  0.65282624049E-02  0.12902615860E-02 -0.89507235554E+03  0.11049275861E+04  0.64785063777E+03 0.  0.
         13    1    3    3    0    0 -0.26991212741E+03  0.14084600996E+03 -0.25887426531E+03  0.39963238143E+03  0.00000000000E+00 0.  1.
          3    1    3    3  501    0  0.26991865567E+03 -0.14084471970E+03 -0.63619809023E+03  0.70529520469E+03  0.00000000000E+00 0.  1.
         21    1    1    2  502  501 -0.65282624048E-02 -0.12902615859E-02  0.37947795198E+00  0.37953629474E+00  0.00000000000E+00 0. -1.
<mgrwt>
<rscale>  1 0.64785064E+03</rscale>
<asrwt>0</asrwt>
<pdfrwt beam="1">  1        1 0.38293580E+00 0.64785064E+03</pdfrwt>
<pdfrwt beam="2">0</pdfrwt>
<totfact> 0.15933458E+00</totfact>
</mgrwt>
</event>
<event>
 6    1  0.7220224E-003  0.6470281E+03  0.7818608E-02  0.9812372E-01
          1   -1    0    0  502    0  0.00000000000E+00  0.00000000000E+00  0.10544826431E+03  0.10544826431E+03  0.00000000000E+00 0.  1.
         13   -1    0    0    0    0 -0.00000000000E+00 -0.00000000000E+00 -0.10000000000E+04  0.10000000000E+04  0.00000000000E+00 0.  1.
    9000005    2    1    2  501    0 -0.10596809768E-01  0.57309400270E-01 -0.89533745494E+03  0.11046603865E+04  0.64702813536E+03 0.  0.
         13    1    3    3    0    0 -0.24530147934E+03  0.14088047161E+03 -0.17963228353E+03  0.33509383811E+03  0.00000000000E+00 0.  1.
          3    1    3    3  501    0  0.24529088253E+03 -0.14082316221E+03 -0.71570517141E+03  0.76956654842E+03  0.00000000000E+00 0.  1.
         21    1    1    2  502  501  0.10596809768E-01 -0.57309400270E-01  0.78571924896E+00  0.78787778108E+00  0.00000000000E+00 0.  1.
<mgrwt>
<rscale>  1 0.64702814E+03</rscale>
<asrwt>0</asrwt>
<pdfrwt beam="1">  1        1 0.38344904E+00 0.64702814E+03</pdfrwt>
<pdfrwt beam="2">0</pdfrwt>
<totfact> 0.15852875E+00</totfact>
</mgrwt>
</event>
<event>
 6    1  0.7220224E-003  0.6265874E+03  0.7818608E-02  0.9851731E-01
          1   -1    0    0  502    0  0.00000000000E+00  0.00000000000E+00  0.98153663230E+02  0.98153663230E+02  0.00000000000E+00 0.  1.
         13   -1    0    0    0    0 -0.00000000000E+00 -0.00000000000E+00 -0.10000000000E+04  0.10000000000E+04  0.00000000000E+00 0.  1.
    9000005    2    1    2  501    0 -0.35994907158E-04 -0.41744974681E-04 -0.90184704383E+03  0.10981529540E+04  0.62658744000E+03 0.  0.
         13    1    3    3    0    0  0.17611596414E+02 -0.31274445719E+03 -0.44074890746E+03  0.54072068877E+03  0.00000000000E+00 0.  1.
          1    1    3    3  501    0 -0.17611632409E+02  0.31274441544E+03 -0.46109813637E+03  0.55743226526E+03  0.00000000000E+00 0.  1.
         21    1    1    2  502  501  0.35994907155E-04  0.41744974702E-04  0.70706113043E-03  0.70920640044E-03  0.00000000000E+00 0.  1.
<mgrwt>
<rscale>  1 0.62658744E+03</rscale>
<asrwt>0</asrwt>
<pdfrwt beam="1">  1        1 0.35692316E+00 0.62658744E+03</pdfrwt>
<pdfrwt beam="2">0</pdfrwt>
<totfact> 0.20808711E+00</totfact>
</mgrwt>
</event>
<event>
 6    1  0.7220224E-003  0.6463875E+03  0.7818608E-02  0.9813581E-01
          1   -1    0    0  502    0  0.00000000000E+00  0.00000000000E+00  0.10445888531E+03  0.10445888531E+03  0.00000000000E+00 0.  1.
         13   -1    0    0    0    0 -0.00000000000E+00 -0.00000000000E+00 -0.10000000000E+04  0.10000000000E+04  0.00000000000E+00 0.  1.
    9000005    2    1    2  501    0  0.16889251120E-03  0.44030040745E-03 -0.89554577538E+03  0.11044542008E+04  0.64638753540E+03 0.  0.
         13    1    3    3    0    0 -0.17357062997E+03  0.99645128720E+01  0.17747871203E+02  0.17475995547E+03  0.00000000000E+00 0.  1.
          1    1    3    3  501    0  0.17357079886E+03 -0.99640725716E+01 -0.91329364658E+03  0.92969424535E+03  0.00000000000E+00 0.  1.
         21    1    1    2  502  501 -0.16889251119E-03 -0.44030040745E-03  0.46606864052E-02  0.46844836319E-02  0.00000000000E+00 0.  1.
<mgrwt>
<rscale>  1 0.64638754E+03</rscale>
<asrwt>0</asrwt>
<pdfrwt beam="1">  1        1 0.37985129E+00 0.64638754E+03</pdfrwt>
<pdfrwt beam="2">0</pdfrwt>
<totfact> 0.16445449E+00</totfact>
</mgrwt>
</event>
<event>
 6    1  0.7220224E-003  0.6523701E+03  0.7818608E-02  0.9802342E-01
          1   -1    0    0  502    0  0.00000000000E+00  0.00000000000E+00  0.10642001249E+03  0.10642001249E+03  0.00000000000E+00 0.  1.
         13   -1    0    0    0    0 -0.00000000000E+00 -0.00000000000E+00 -0.10000000000E+04  0.10000000000E+04  0.00000000000E+00 0.  1.
    9000005    2    1    2  501    0  0.40945380457E-02  0.14415460411E-01 -0.89360063255E+03  0.11063945019E+04  0.65237006613E+03 0.  0.
         13    1    3    3    0    0  0.22121694203E+03 -0.16904253846E+03 -0.15856931157E+03  0.32040059585E+03  0.00000000000E+00 0.  1.
          3    1    3    3  501    0 -0.22121284749E+03  0.16905695392E+03 -0.73503132098E+03  0.78599390608E+03  0.00000000000E+00 0.  1.
         21    1    1    2  502  501 -0.40945380457E-02 -0.14415460411E-01  0.20645044311E-01  0.25510558506E-01  0.00000000000E+00 0. -1.
<mgrwt>
<rscale>  1 0.65237007E+03</rscale>
<asrwt>0</asrwt>
<pdfrwt beam="1">  1        1 0.38698268E+00 0.65237007E+03</pdfrwt>
<pdfrwt beam="2">0</pdfrwt>
<totfact> 0.15277339E+00</totfact>
</mgrwt>
</event>
<event>
 6    1  0.7220224E-003  0.6173838E+03  0.7818608E-02  0.9869982E-01
          1   -1    0    0  502    0  0.00000000000E+00  0.00000000000E+00  0.11029383526E+03  0.11029383526E+03  0.00000000000E+00 0.  1.
         13   -1    0    0    0    0 -0.00000000000E+00 -0.00000000000E+00 -0.10000000000E+04  0.10000000000E+04  0.00000000000E+00 0.  1.
    9000005    2    1    2  501    0 -0.32381398240E+01 -0.15783501161E+01 -0.90447212690E+03  0.10950948097E+04  0.61737333697E+03 0.  0.
         13    1    3    3    0    0 -0.60007085466E+02 -0.15553946416E+03 -0.91557176517E+03  0.93062615071E+03  0.00000000000E+00 0.  1.
          1    1    3    3  501    0  0.56768945642E+02  0.15396111405E+03  0.11099638266E+02  0.16446865901E+03  0.00000000000E+00 0.  1.
         21    1    1    2  502  501  0.32381398240E+01  0.15783501161E+01  0.14765962159E+02  0.15199025531E+02  0.00000000000E+00 0.  1.
<mgrwt>
<rscale>  1 0.61738385E+03</rscale>
<asrwt>0</asrwt>
<pdfrwt beam="1">  1        1 0.40106934E+00 0.61738385E+03</pdfrwt>
<pdfrwt beam="2">0</pdfrwt>
<totfact> 0.13317106E+00</totfact>
</mgrwt>
</event>
<event>
 6    1  0.7220224E-003  0.6483082E+03  0.7818608E-02  0.9809959E-01
          1   -1    0    0  502    0  0.00000000000E+00  0.00000000000E+00  0.10625236922E+03  0.10625236922E+03  0.00000000000E+00 0.  1.
         13   -1    0    0    0    0 -0.00000000000E+00 -0.00000000000E+00 -0.10000000000E+04  0.10000000000E+04  0.00000000000E+00 0.  1.
    9000005    2    1    2  501    0 -0.49763770297E+00  0.18328673028E+01 -0.89400937367E+03  0.11043351955E+04  0.64830537303E+03 0.  0.
         13    1    3    3    0    0 -0.45653456146E+02 -0.31890884188E+03 -0.39991065957E+03  0.51353249471E+03  0.00000000000E+00 0.  1.
          3    1    3    3  501    0  0.45155818443E+02  0.32074170918E+03 -0.49409871410E+03  0.59080270076E+03  0.00000000000E+00 0.  1.
         21    1    1    2  502  501  0.49763770297E+00 -0.18328673028E+01  0.26174288627E+00  0.19171737458E+01  0.00000000000E+00 0.  1.
<mgrwt>
<rscale>  1 0.64830815E+03</rscale>
<asrwt>0</asrwt>
<pdfrwt beam="1">  1        1 0.38637307E+00 0.64830815E+03</pdfrwt>
<pdfrwt beam="2">0</pdfrwt>
<totfact> 0.15384140E+00</totfact>
</mgrwt>
</event>
<event>
 6    1  0.7220224E-003  0.6473030E+03  0.7818608E-02  0.9811853E-01
          1   -1    0    0  502    0  0.00000000000E+00  0.00000000000E+00  0.10488116987E+03  0.10488116987E+03  0.00000000000E+00 0.  1.
         13   -1    0    0    0    0 -0.00000000000E+00 -0.00000000000E+00 -0.10000000000E+04  0.10000000000E+04  0.00000000000E+00 0.  1.
    9000005    2    1    2  501    0  0.32066061021E+00  0.20602630606E+00 -0.89478998520E+03  0.11043777724E+04  0.64730286666E+03 0.  0.
         13    1    3    3    0    0 -0.22347972195E+03  0.20845922084E+03 -0.62888180367E+03  0.69920723385E+03  0.00000000000E+00 0.  1.
          3    1    3    3  501    0  0.22380038256E+03 -0.20825319453E+03 -0.26590818153E+03  0.40517053851E+03  0.00000000000E+00 0.  1.
         21    1    1    2  502  501 -0.32066061021E+00 -0.20602630606E+00 -0.32884493273E+00  0.50339751242E+00  0.00000000000E+00 0. -1.
<mgrwt>
<rscale>  1 0.64730298E+03</rscale>
<asrwt>0</asrwt>
<pdfrwt beam="1">  1        1 0.38138688E+00 0.64730298E+03</pdfrwt>
<pdfrwt beam="2">0</pdfrwt>
<totfact> 0.16188075E+00</totfact>
</mgrwt>
</event>
<event>
 6    1  0.7220224E-003  0.6290251E+03  0.7818608E-02  0.9846953E-01
          1   -1    0    0  502    0  0.00000000000E+00  0.00000000000E+00  0.99286264929E+02  0.99286264929E+02  0.00000000000E+00 0.  1.
         13   -1    0    0    0    0 -0.00000000000E+00 -0.00000000000E+00 -0.10000000000E+04  0.10000000000E+04  0.00000000000E+00 0.  1.
    9000005    2    1    2  501    0  0.84476104791E-01  0.47248488854E-01 -0.90107486273E+03  0.10989123909E+04  0.62902505925E+03 0.  0.
         13    1    3    3    0    0 -0.64127768286E+02  0.30641969557E+03 -0.50359896148E+03  0.59297328312E+03  0.00000000000E+00 0.  1.
          1    1    3    3  501    0  0.64212244391E+02 -0.30637244708E+03 -0.39747590126E+03  0.50593910774E+03  0.00000000000E+00 0.  1.
         21    1    1    2  502  501 -0.84476104791E-01 -0.47248488854E-01  0.36112766259E+00  0.37387407060E+00  0.00000000000E+00 0. -1.
<mgrwt>
<rscale>  1 0.62902507E+03</rscale>
<asrwt>0</asrwt>
<pdfrwt beam="1">  1        1 0.36104172E+00 0.62902507E+03</pdfrwt>
<pdfrwt beam="2">0</pdfrwt>
<totfact> 0.19954891E+00</totfact>
</mgrwt>
</event>
<event>
 6    1  0.7220224E-003  0.6555419E+03  0.7818608E-02  0.9796435E-01
          1   -1    0    0  502    0  0.00000000000E+00  0.00000000000E+00  0.10744401382E+03  0.10744401382E+03  0.00000000000E+00 0.  1.
         13   -1    0    0    0    0 -0.00000000000E+00 -0.00000000000E+00 -0.10000000000E+04  0.10000000000E+04  0.00000000000E+00 0.  1.
    9000005    2    1    2  501    0 -0.22901251281E-01  0.15585222350E-01 -0.89253767325E+03  0.11074108065E+04  0.65554190965E+03 0.  0.
         13    1    3    3    0    0  0.25107621080E+03 -0.34246590538E+02 -0.79743408815E+03  0.83672768422E+03  0.00000000000E+00 0.  1.
          1    1    3    3  501    0 -0.25109911205E+03  0.34262175761E+02 -0.95103585103E+02  0.27068312223E+03  0.00000000000E+00 0.  1.
         21    1    1    2  502  501  0.22901251281E-01 -0.15585222350E-01 -0.18312921303E-01  0.33207371962E-01  0.00000000000E+00 0.  1.
<mgrwt>
<rscale>  1 0.65554191E+03</rscale>
<asrwt>0</asrwt>
<pdfrwt beam="1">  1        1 0.39070633E+00 0.65554191E+03</pdfrwt>
<pdfrwt beam="2">0</pdfrwt>
<totfact> 0.14699041E+00</totfact>
</mgrwt>
</event>
<event>
 6    1  0.7220224E-003  0.5773361E+03  0.7818608E-02  0.9953575E-01
          1   -1    0    0  502    0  0.00000000000E+00  0.00000000000E+00  0.93956361355E+02  0.93956361355E+02  0.00000000000E+00 0.  1.
         13   -1    0    0    0    0 -0.00000000000E+00 -0.00000000000E+00 -0.10000000000E+04  0.10000000000E+04  0.00000000000E+00 0.  1.
    9000005    2    1    2  501    0 -0.15984567123E+02 -0.82168058890E+01 -0.90786826585E+03  0.10758911586E+04  0.57705630124E+03 0.  0.
         13    1    3    3    0    0  0.93980665816E+02  0.23432814169E+03 -0.20816642886E+03  0.32722363246E+03  0.00000000000E+00 0.  1.
          1    1    3    3  501    0 -0.10996523294E+03 -0.24254494758E+03 -0.69970183699E+03  0.74866752617E+03  0.00000000000E+00 0.  1.
         21    1    1    2  502  501  0.15984567123E+02  0.82168058890E+01  0.18246272030E+01  0.18065202727E+02  0.00000000000E+00 0.  1.
<mgrwt>
<rscale>  1 0.57733612E+03</rscale>
<asrwt>0</asrwt>
<pdfrwt beam="1">  1        1 0.34166022E+00 0.57733612E+03</pdfrwt>
<pdfrwt beam="2">0</pdfrwt>
<totfact> 0.24472233E+00</totfact>
</mgrwt>
</event>
<event>
 6    1  0.7220224E-003  0.5939244E+03  0.7818608E-02  0.9918092E-01
          1   -1    0    0  502    0  0.00000000000E+00  0.00000000000E+00  0.88336393828E+02  0.88336393828E+02  0.00000000000E+00 0.  1.
         13   -1    0    0    0    0 -0.00000000000E+00 -0.00000000000E+00 -0.10000000000E+04  0.10000000000E+04  0.00000000000E+00 0.  1.
    9000005    2    1    2  501    0  0.24620923420E-02  0.32706285276E-02 -0.91181340709E+03  0.10881865370E+04  0.59392444797E+03 0.  0.
         13    1    3    3    0    0  0.23114711524E+03  0.41668641885E+02 -0.78885456684E+03  0.82307763438E+03  0.00000000000E+00 0.  1.
          1    1    3    3  501    0 -0.23114465315E+03 -0.41665371256E+02 -0.12295884025E+03  0.26510890260E+03  0.00000000000E+00 0.  1.
         21    1    1    2  502  501 -0.24620923420E-02 -0.32706285276E-02  0.14980091985E+00  0.14985684668E+00  0.00000000000E+00 0.  1.
<mgrwt>
<rscale>  1 0.59392445E+03</rscale>
<asrwt>0</asrwt>
<pdfrwt beam="1">  1        1 0.32122393E+00 0.59392445E+03</pdfrwt>
<pdfrwt beam="2">0</pdfrwt>
<totfact> 0.29910530E+00</totfact>
</mgrwt>
</event>
<event>
 6    1  0.7220224E-003  0.6459087E+03  0.7818608E-02  0.9814487E-01
          1   -1    0    0  502    0  0.00000000000E+00  0.00000000000E+00  0.10429996363E+03  0.10429996363E+03  0.00000000000E+00 0.  1.
         13   -1    0    0    0    0 -0.00000000000E+00 -0.00000000000E+00 -0.10000000000E+04  0.10000000000E+04  0.00000000000E+00 0.  1.
    9000005    2    1    2  501    0  0.18400558281E-03  0.90759095627E-04 -0.89570045535E+03  0.11042994971E+04  0.64590871926E+03 0.  0.
         13    1    3    3    0    0  0.27814339397E+03  0.16348984200E+03 -0.42325775152E+03  0.53220278116E+03  0.00000000000E+00 0.  1.
          3    1    3    3  501    0 -0.27814320997E+03 -0.16348975124E+03 -0.47244270383E+03  0.57209671596E+03  0.00000000000E+00 0.  1.
         21    1    1    2  502  501 -0.18400558279E-03 -0.90759095630E-04  0.41897880239E-03  0.46651742175E-03  0.00000000000E+00 0. -1.
<mgrwt>
<rscale>  1 0.64590872E+03</rscale>
<asrwt>0</asrwt>
<pdfrwt beam="1">  1        1 0.37927339E+00 0.64590872E+03</pdfrwt>
<pdfrwt beam="2">0</pdfrwt>
<totfact> 0.16543722E+00</totfact>
</mgrwt>
</event>
<event>
 6    1  0.7220224E-003  0.6468916E+03  0.7818608E-02  0.9812629E-01
          1   -1    0    0  502    0  0.00000000000E+00  0.00000000000E+00  0.10461747832E+03  0.10461747832E+03  0.00000000000E+00 0.  1.
         13   -1    0    0    0    0 -0.00000000000E+00 -0.00000000000E+00 -0.10000000000E+04  0.10000000000E+04  0.00000000000E+00 0.  1.
    9000005    2    1    2  501    0 -0.18534644792E-03 -0.29234387017E-03 -0.89538271526E+03  0.11046170817E+04  0.64689156002E+03 0.  0.
         13    1    3    3    0    0  0.40066689861E+01 -0.32235734115E+03 -0.49244692703E+03  0.58858668413E+03  0.00000000000E+00 0.  1.
          1    1    3    3  501    0 -0.40068543326E+01  0.32235704881E+03 -0.40293578824E+03  0.51603039759E+03  0.00000000000E+00 0.  1.
         21    1    1    2  502  501  0.18534644792E-03  0.29234387018E-03  0.19358657903E-03  0.39660308593E-03  0.00000000000E+00 0.  1.
<mgrwt>
<rscale>  1 0.64689156E+03</rscale>
<asrwt>0</asrwt>
<pdfrwt beam="1">  1        1 0.38042800E+00 0.64689156E+03</pdfrwt>
<pdfrwt beam="2">0</pdfrwt>
<totfact> 0.16347855E+00</totfact>
</mgrwt>
</event>
<event>
 6    1  0.7220224E-003  0.6427621E+03  0.7818608E-02  0.9820456E-01
          1   -1    0    0  502    0  0.00000000000E+00  0.00000000000E+00  0.10330107785E+03  0.10330107785E+03  0.00000000000E+00 0.  1.
         13   -1    0    0    0    0 -0.00000000000E+00 -0.00000000000E+00 -0.10000000000E+04  0.10000000000E+04  0.00000000000E+00 0.  1.
    9000005    2    1    2  501    0  0.21426955326E-02  0.85699247996E-02 -0.89671281694E+03  0.11032846127E+04  0.64276205595E+03 0.  0.
         13    1    3    3    0    0  0.74806161166E+02 -0.11405870416E+03  0.51135280609E+02  0.14567143394E+03  0.00000000000E+00 0.  1.
          1    1    3    3  501    0 -0.74804018470E+02  0.11406727408E+03 -0.94784809755E+03  0.95761317880E+03  0.00000000000E+00 0.  1.
         21    1    1    2  502  501 -0.21426955326E-02 -0.85699247996E-02  0.13894791624E-01  0.16465114317E-01  0.00000000000E+00 0. -1.
<mgrwt>
<rscale>  1 0.64276206E+03</rscale>
<asrwt>0</asrwt>
<pdfrwt beam="1">  1        1 0.37564108E+00 0.64276206E+03</pdfrwt>
<pdfrwt beam="2">0</pdfrwt>
<totfact> 0.17174770E+00</totfact>
</mgrwt>
</event>
<event>
 6    1  0.7220224E-003  0.6565061E+03  0.7818608E-02  0.9794647E-01
          1   -1    0    0  502    0  0.00000000000E+00  0.00000000000E+00  0.10777097515E+03  0.10777097515E+03  0.00000000000E+00 0.  1.
         13   -1    0    0    0    0 -0.00000000000E+00 -0.00000000000E+00 -0.10000000000E+04  0.10000000000E+04  0.00000000000E+00 0.  1.
    9000005    2    1    2  501    0  0.96285915947E-03 -0.10032054121E-03 -0.89224992330E+03  0.11077500543E+04  0.65650609834E+03 0.  0.
         13    1    3    3    0    0 -0.28101063902E+03 -0.57553806798E+02 -0.17683410493E+03  0.33697139431E+03  0.00000000000E+00 0.  1.
          1    1    3    3  501    0  0.28101160187E+03  0.57553706478E+02 -0.71541581837E+03  0.77077865998E+03  0.00000000000E+00 0.  1.
         21    1    1    2  502  501 -0.96285915946E-03  0.10032054121E-03  0.20898447831E-01  0.20920857624E-01  0.00000000000E+00 0. -1.
<mgrwt>
<rscale>  1 0.65650610E+03</rscale>
<asrwt>0</asrwt>
<pdfrwt beam="1">  1        1 0.39189528E+00 0.65650610E+03</pdfrwt>
<pdfrwt beam="2">0</pdfrwt>
<totfact> 0.14518938E+00</totfact>
</mgrwt>
</event>
<event>
 6    1  0.7220224E-003  0.6527058E+03  0.7818608E-02  0.9801715E-01
          1   -1    0    0  502    0  0.00000000000E+00  0.00000000000E+00  0.10650627576E+03  0.10650627576E+03  0.00000000000E+00 0.  1.
         13   -1    0    0    0    0 -0.00000000000E+00 -0.00000000000E+00 -0.10000000000E+04  0.10000000000E+04  0.00000000000E+00 0.  1.
    9000005    2    1    2  501    0 -0.10957201397E-04  0.10156581425E-05 -0.89349378856E+03  0.11065062105E+04  0.65270578647E+03 0.  0.
         13    1    3    3    0    0 -0.15078533761E+03  0.28884607519E+03 -0.47791109855E+03  0.57841792098E+03  0.00000000000E+00 0.  1.
          3    1    3    3  501    0  0.15078532665E+03 -0.28884607418E+03 -0.41558269001E+03  0.52808828953E+03  0.00000000000E+00 0.  1.
         21    1    1    2  502  501  0.10957201403E-04 -0.10156581478E-05  0.64320872385E-04  0.65255394018E-04  0.00000000000E+00 0.  1.
<mgrwt>
<rscale>  1 0.65270579E+03</rscale>
<asrwt>0</asrwt>
<pdfrwt beam="1">  1        1 0.38729636E+00 0.65270579E+03</pdfrwt>
<pdfrwt beam="2">0</pdfrwt>
<totfact> 0.15227609E+00</totfact>
</mgrwt>
</event>
<event>
 6    1  0.7220224E-003  0.6305750E+03  0.7818608E-02  0.9843927E-01
          1   -1    0    0  502    0  0.00000000000E+00  0.00000000000E+00  0.99406930967E+02  0.99406930967E+02  0.00000000000E+00 0.  1.
         13   -1    0    0    0    0 -0.00000000000E+00 -0.00000000000E+00 -0.10000000000E+04  0.10000000000E+04  0.00000000000E+00 0.  1.
    9000005    2    1    2  501    0 -0.22813301950E-03  0.10793090397E-02 -0.90059328258E+03  0.10994058073E+04  0.63057503009E+03 0.  0.
         13    1    3    3    0    0 -0.22855602200E+03 -0.15022436793E+03 -0.72375819827E+03  0.77371257291E+03  0.00000000000E+00 0.  1.
          1    1    3    3  501    0  0.22855579387E+03  0.15022544724E+03 -0.17683508430E+03  0.32569323442E+03  0.00000000000E+00 0.  1.
         21    1    1    2  502  501  0.22813301950E-03 -0.10793090397E-02  0.21354337387E-03  0.11236340375E-02  0.00000000000E+00 0.  1.
<mgrwt>
<rscale>  1 0.63057503E+03</rscale>
<asrwt>0</asrwt>
<pdfrwt beam="1">  1        1 0.36148051E+00 0.63057503E+03</pdfrwt>
<pdfrwt beam="2">0</pdfrwt>
<totfact> 0.19861302E+00</totfact>
</mgrwt>
</event>
<event>
 6    1  0.7220224E-003  0.6315826E+03  0.7818608E-02  0.9841965E-01
          1   -1    0    0  502    0  0.00000000000E+00  0.00000000000E+00  0.99724583357E+02  0.99724583357E+02  0.00000000000E+00 0.  1.
         13   -1    0    0    0    0 -0.00000000000E+00 -0.00000000000E+00 -0.10000000000E+04  0.10000000000E+04  0.00000000000E+00 0.  1.
    9000005    2    1    2  501    0 -0.33720262167E-04 -0.85588712693E-04 -0.90027584125E+03  0.10997241489E+04  0.63158262590E+03 0.  0.
         13    1    3    3    0    0  0.24105960657E+03  0.17799478611E+03 -0.62366902234E+03  0.69192118570E+03  0.00000000000E+00 0.  1.
          3    1    3    3  501    0 -0.24105964029E+03 -0.17799487169E+03 -0.27660681891E+03  0.40780296320E+03  0.00000000000E+00 0.  1.
         21    1    1    2  502  501  0.33720262145E-04  0.85588712708E-04  0.42460500653E-03  0.43445586127E-03  0.00000000000E+00 0.  1.
<mgrwt>
<rscale>  1 0.63158263E+03</rscale>
<asrwt>0</asrwt>
<pdfrwt beam="1">  1        1 0.36263561E+00 0.63158263E+03</pdfrwt>
<pdfrwt beam="2">0</pdfrwt>
<totfact> 0.19627847E+00</totfact>
</mgrwt>
</event>
<event>
 6    1  0.7220224E-003  0.6479840E+03  0.7818608E-02  0.9810569E-01
          1   -1    0    0  502    0  0.00000000000E+00  0.00000000000E+00  0.10559316915E+03  0.10559316915E+03  0.00000000000E+00 0.  1.
         13   -1    0    0    0    0 -0.00000000000E+00 -0.00000000000E+00 -0.10000000000E+04  0.10000000000E+04  0.00000000000E+00 0.  1.
    9000005    2    1    2  501    0 -0.26459823699E-01 -0.13135733480E+00 -0.89502119306E+03  0.11049643641E+04  0.64798402138E+03 0.  0.
         13    1    3    3    0    0  0.11540239475E+03  0.28870527364E+03 -0.29243071422E+03  0.42683037657E+03  0.00000000000E+00 0.  1.
          1    1    3    3  501    0 -0.11542885457E+03 -0.28883663098E+03 -0.60259047883E+03  0.67813398753E+03  0.00000000000E+00 0.  1.
         21    1    1    2  502  501  0.26459823699E-01  0.13135733480E+00  0.61436220196E+00  0.62880504679E+00  0.00000000000E+00 0. -1.
<mgrwt>
<rscale>  1 0.64798404E+03</rscale>
<asrwt>0</asrwt>
<pdfrwt beam="1">  1        1 0.38397597E+00 0.64798404E+03</pdfrwt>
<pdfrwt beam="2">0</pdfrwt>
<totfact> 0.15765299E+00</totfact>
</mgrwt>
</event>
<event>
 6    1  0.7220224E-003  0.7026978E+03  0.7818608E-02  0.9712630E-01
          1   -1    0    0  502    0  0.00000000000E+00  0.00000000000E+00  0.12344608051E+03  0.12344608051E+03  0.00000000000E+00 0.  1.
         13   -1    0    0    0    0 -0.00000000000E+00 -0.00000000000E+00 -0.10000000000E+04  0.10000000000E+04  0.00000000000E+00 0.  1.
    9000005    2    1    2  501    0  0.30598853300E-05 -0.37221183184E-05 -0.87655393531E+03  0.11234460640E+04  0.70269784199E+03 0.  0.
         13    1    3    3    0    0 -0.18786655064E+03 -0.27450400045E+02 -0.91092307901E+03  0.93049890982E+03  0.00000000000E+00 0.  1.
          1    1    3    3  501    0  0.18786655370E+03  0.27450396323E+02  0.34369143695E+02  0.19294715415E+03  0.00000000000E+00 0.  1.
         21    1    1    2  502  501 -0.30598853318E-05  0.37221183199E-05  0.15821811512E-04  0.16539249758E-04  0.00000000000E+00 0. -1.
<mgrwt>
<rscale>  1 0.70269784E+03</rscale>
<asrwt>0</asrwt>
<pdfrwt beam="1">  1        1 0.44889578E+00 0.70269784E+03</pdfrwt>
<pdfrwt beam="2">0</pdfrwt>
<totfact> 0.79534946E-01</totfact>
</mgrwt>
</event>
<event>
 6    1  0.7220224E-003  0.6512813E+03  0.7818608E-02  0.9804378E-01
          1   -1    0    0  502    0  0.00000000000E+00  0.00000000000E+00  0.10604706106E+03  0.10604706106E+03  0.00000000000E+00 0.  1.
         13   -1    0    0    0    0 -0.00000000000E+00 -0.00000000000E+00 -0.10000000000E+04  0.10000000000E+04  0.00000000000E+00 0.  1.
    9000005    2    1    2  501    0 -0.34479552858E-02  0.20406595725E-02 -0.89395728799E+03  0.11060411478E+04  0.65128134306E+03 0.  0.
         13    1    3    3    0    0  0.13637494078E+03 -0.21794336248E+03 -0.78638754568E+03  0.82734684729E+03  0.00000000000E+00 0.  1.
          1    1    3    3  501    0 -0.13637838873E+03  0.21794540314E+03 -0.10756974230E+03  0.27869430049E+03  0.00000000000E+00 0.  1.
         21    1    1    2  502  501  0.34479552858E-02 -0.20406595726E-02  0.43490466600E-02  0.59132811530E-02  0.00000000000E+00 0. -1.
<mgrwt>
<rscale>  1 0.65128134E+03</rscale>
<asrwt>0</asrwt>
<pdfrwt beam="1">  1        1 0.38562649E+00 0.65128134E+03</pdfrwt>
<pdfrwt beam="2">0</pdfrwt>
<totfact> 0.15493085E+00</totfact>
</mgrwt>
</event>
<event>
 6    1  0.7220224E-003  0.6423930E+03  0.7818608E-02  0.9821159E-01
          1   -1    0    0  502    0  0.00000000000E+00  0.00000000000E+00  0.10317906389E+03  0.10317906389E+03  0.00000000000E+00 0.  1.
         13   -1    0    0    0    0 -0.00000000000E+00 -0.00000000000E+00 -0.10000000000E+04  0.10000000000E+04  0.00000000000E+00 0.  1.
    9000005    2    1    2  501    0 -0.37212851640E-03  0.73469953554E-03 -0.89683278888E+03  0.11031671825E+04  0.64239301167E+03 0.  0.
         13    1    3    3    0    0 -0.23179252294E+03 -0.22060126872E+03 -0.49620551254E+03  0.59043425047E+03  0.00000000000E+00 0.  1.
          3    1    3    3  501    0  0.23179215081E+03  0.22060200342E+03 -0.40062727634E+03  0.51273293208E+03  0.00000000000E+00 0.  1.
         21    1    1    2  502  501  0.37212851642E-03 -0.73469953554E-03  0.11852764889E-01  0.11881342456E-01  0.00000000000E+00 0. -1.
<mgrwt>
<rscale>  1 0.64239301E+03</rscale>
<asrwt>0</asrwt>
<pdfrwt beam="1">  1        1 0.37519739E+00 0.64239301E+03</pdfrwt>
<pdfrwt beam="2">0</pdfrwt>
<totfact> 0.17253360E+00</totfact>
</mgrwt>
</event>
<event>
 6    1  0.7220224E-003  0.6444970E+03  0.7818608E-02  0.9817160E-01
          1   -1    0    0  502    0  0.00000000000E+00  0.00000000000E+00  0.10384423146E+03  0.10384423146E+03  0.00000000000E+00 0.  1.
         13   -1    0    0    0    0 -0.00000000000E+00 -0.00000000000E+00 -0.10000000000E+04  0.10000000000E+04  0.00000000000E+00 0.  1.
    9000005    2    1    2  501    0 -0.36230884461E-05  0.27432586222E-04 -0.89615590101E+03  0.11038440961E+04  0.64449700515E+03 0.  0.
         13    1    3    3    0    0 -0.21153788860E+03 -0.51654794153E+02 -0.41229534711E+02  0.22162213473E+03  0.00000000000E+00 0.  1.
          1    1    3    3  501    0  0.21153788498E+03  0.51654821586E+02 -0.85492636630E+03  0.88222196139E+03  0.00000000000E+00 0.  1.
         21    1    1    2  502  501  0.36230884315E-05 -0.27432586220E-04  0.13246943367E-03  0.13532857944E-03  0.00000000000E+00 0. -1.
<mgrwt>
<rscale>  1 0.64449701E+03</rscale>
<asrwt>0</asrwt>
<pdfrwt beam="1">  1        1 0.37761618E+00 0.64449701E+03</pdfrwt>
<pdfrwt beam="2">0</pdfrwt>
<totfact> 0.16828766E+00</totfact>
</mgrwt>
</event>
<event>
 6    1  0.7220224E-003  0.6475990E+03  0.7818608E-02  0.9811295E-01
          1   -1    0    0  502    0  0.00000000000E+00  0.00000000000E+00  0.10484621363E+03  0.10484621363E+03  0.00000000000E+00 0.  1.
         13   -1    0    0    0    0 -0.00000000000E+00 -0.00000000000E+00 -0.10000000000E+04  0.10000000000E+04  0.00000000000E+00 0.  1.
    9000005    2    1    2  501    0  0.39539484817E-04  0.10138067452E-06 -0.89515389576E+03  0.11048460973E+04  0.64759895126E+03 0.  0.
         13    1    3    3    0    0  0.24875266596E+03 -0.27775993666E+02 -0.97119779531E+02  0.26848025294E+03  0.00000000000E+00 0.  1.
          1    1    3    3  501    0 -0.24875262642E+03  0.27775993768E+02 -0.79803411622E+03  0.83636584437E+03  0.00000000000E+00 0.  1.
         21    1    1    2  502  501 -0.39539484797E-04 -0.10138067388E-06  0.10938890569E-03  0.11631557860E-03  0.00000000000E+00 0. -1.
<mgrwt>
<rscale>  1 0.64759895E+03</rscale>
<asrwt>0</asrwt>
<pdfrwt beam="1">  1        1 0.38125976E+00 0.64759895E+03</pdfrwt>
<pdfrwt beam="2">0</pdfrwt>
<totfact> 0.16208125E+00</totfact>
</mgrwt>
</event>
<event>
 6    1  0.7220224E-003  0.6542692E+03  0.7818608E-02  0.9798801E-01
          1   -1    0    0  502    0  0.00000000000E+00  0.00000000000E+00  0.11816758966E+03  0.11816758966E+03  0.00000000000E+00 0.  1.
         13   -1    0    0    0    0 -0.00000000000E+00 -0.00000000000E+00 -0.10000000000E+04  0.10000000000E+04  0.00000000000E+00 0.  1.
    9000005    2    1    2  501    0 -0.17276712573E+02  0.10718077047E+02 -0.88157399616E+03  0.10978346422E+04  0.65395323152E+03 0.  0.
         13    1    3    3    0    0 -0.15554724670E+03  0.28935078063E+03 -0.56796377090E+03  0.65612625711E+03  0.00000000000E+00 0.  1.
          1    1    3    3  501    0  0.13827053412E+03 -0.27863270358E+03 -0.31361022526E+03  0.44170838513E+03  0.00000000000E+00 0.  1.
         21    1    1    2  502  501  0.17276712573E+02 -0.10718077047E+02 -0.25841417978E+00  0.20332947421E+02  0.00000000000E+00 0.  1.
<mgrwt>
<rscale>  1 0.65426920E+03</rscale>
<asrwt>0</asrwt>
<pdfrwt beam="1">  1        1 0.42970123E+00 0.65426920E+03</pdfrwt>
<pdfrwt beam="2">0</pdfrwt>
<totfact> 0.98286802E-01</totfact>
</mgrwt>
</event>
<event>
 6    1  0.7220224E-003  0.6543138E+03  0.7818608E-02  0.9798718E-01
          1   -1    0    0  502    0  0.00000000000E+00  0.00000000000E+00  0.10738377815E+03  0.10738377815E+03  0.00000000000E+00 0.  1.
         13   -1    0    0    0    0 -0.00000000000E+00 -0.00000000000E+00 -0.10000000000E+04  0.10000000000E+04  0.00000000000E+00 0.  1.
    9000005    2    1    2  501    0  0.10531535645E+01 -0.21788202909E+00 -0.89115270847E+03  0.11055676073E+04  0.65431294346E+03 0.  0.
         13    1    3    3    0    0  0.97258643707E+01 -0.74007577884E+02 -0.98390190353E+03  0.98672927888E+03  0.00000000000E+00 0.  1.
          3    1    3    3  501    0 -0.86727108062E+01  0.73789695855E+02  0.92749195063E+02  0.11883832846E+03  0.00000000000E+00 0.  1.
         21    1    1    2  502  501 -0.10531535645E+01  0.21788202909E+00 -0.14635133808E+01  0.18161708138E+01  0.00000000000E+00 0.  1.
<mgrwt>
<rscale>  1 0.65431383E+03</rscale>
<asrwt>0</asrwt>
<pdfrwt beam="1">  1        1 0.39048729E+00 0.65431383E+03</pdfrwt>
<pdfrwt beam="2">0</pdfrwt>
<totfact> 0.14735324E+00</totfact>
</mgrwt>
</event>
<event>
 6    1  0.7220224E-003  0.6527270E+03  0.7818608E-02  0.9801676E-01
          1   -1    0    0  502    0  0.00000000000E+00  0.00000000000E+00  0.10652855717E+03  0.10652855717E+03  0.00000000000E+00 0.  1.
         13   -1    0    0    0    0 -0.00000000000E+00 -0.00000000000E+00 -0.10000000000E+04  0.10000000000E+04  0.00000000000E+00 0.  1.
    9000005    2    1    2  501    0  0.22230376146E-02  0.14146222798E-02 -0.89348673685E+03  0.11065130378E+04  0.65272701335E+03 0.  0.
         13    1    3    3    0    0  0.29190957940E+03  0.81434737063E+02 -0.24141325053E+03  0.38745732214E+03  0.00000000000E+00 0.  1.
          3    1    3    3  501    0 -0.29190735637E+03 -0.81433322441E+02 -0.65207348632E+03  0.71905571569E+03  0.00000000000E+00 0.  1.
         21    1    1    2  502  501 -0.22230376146E-02 -0.14146222798E-02  0.15294018206E-01  0.15519344229E-01  0.00000000000E+00 0.  1.
<mgrwt>
<rscale>  1 0.65272701E+03</rscale>
<asrwt>0</asrwt>
<pdfrwt beam="1">  1        1 0.38737739E+00 0.65272701E+03</pdfrwt>
<pdfrwt beam="2">0</pdfrwt>
<totfact> 0.15214973E+00</totfact>
</mgrwt>
</event>
<event>
 6    1  0.7220224E-003  0.6500241E+03  0.7818608E-02  0.9806734E-01
          1   -1    0    0  502    0  0.00000000000E+00  0.00000000000E+00  0.10563567839E+03  0.10563567839E+03  0.00000000000E+00 0.  1.
         13   -1    0    0    0    0 -0.00000000000E+00 -0.00000000000E+00 -0.10000000000E+04  0.10000000000E+04  0.00000000000E+00 0.  1.
    9000005    2    1    2  501    0  0.12674020016E-03  0.14073928611E-03 -0.89436715425E+03  0.11056328394E+04  0.65002412957E+03 0.  0.
         13    1    3    3    0    0 -0.15723471527E+03  0.25016556550E+03 -0.21691719574E+03  0.36654963601E+03  0.00000000000E+00 0.  1.
          1    1    3    3  501    0  0.15723484201E+03 -0.25016542477E+03 -0.67744995851E+03  0.73908320342E+03  0.00000000000E+00 0.  1.
         21    1    1    2  502  501 -0.12674020017E-03 -0.14073928612E-03  0.28326381143E-02  0.28389627176E-02  0.00000000000E+00 0. -1.
<mgrwt>
<rscale>  1 0.65002413E+03</rscale>
<asrwt>0</asrwt>
<pdfrwt beam="1">  1        1 0.38413055E+00 0.65002413E+03</pdfrwt>
<pdfrwt beam="2">0</pdfrwt>
<totfact> 0.15734583E+00</totfact>
</mgrwt>
</event>
<event>
 6    1  0.7220224E-003  0.6360262E+03  0.7818608E-02  0.9833359E-01
          1   -1    0    0  502    0  0.00000000000E+00  0.00000000000E+00  0.10115128285E+03  0.10115128285E+03  0.00000000000E+00 0.  1.
         13   -1    0    0    0    0 -0.00000000000E+00 -0.00000000000E+00 -0.10000000000E+04  0.10000000000E+04  0.00000000000E+00 0.  1.
    9000005    2    1    2  501    0  0.17224697702E-02  0.31862535032E-02 -0.89886746227E+03  0.11011321910E+04  0.63602624736E+03 0.  0.
         13    1    3    3    0    0  0.30294734458E+03 -0.58688542465E+02 -0.31632657597E+03  0.44190942655E+03  0.00000000000E+00 0.  1.
          1    1    3    3  501    0 -0.30294562211E+03  0.58691728719E+02 -0.58254088629E+03  0.65922276446E+03  0.00000000000E+00 0.  1.
         21    1    1    2  502  501 -0.17224697702E-02 -0.31862535032E-02  0.18745120506E-01  0.19091847901E-01  0.00000000000E+00 0.  1.
<mgrwt>
<rscale>  1 0.63602625E+03</rscale>
<asrwt>0</asrwt>
<pdfrwt beam="1">  1        1 0.36782362E+00 0.63602625E+03</pdfrwt>
<pdfrwt beam="2">0</pdfrwt>
<totfact> 0.18611637E+00</totfact>
</mgrwt>
</event>
<event>
 6    1  0.7220224E-003  0.6592549E+03  0.7818608E-02  0.9789566E-01
          1   -1    0    0  502    0  0.00000000000E+00  0.00000000000E+00  0.10865447274E+03  0.10865447274E+03  0.00000000000E+00 0.  1.
         13   -1    0    0    0    0 -0.00000000000E+00 -0.00000000000E+00 -0.10000000000E+04  0.10000000000E+04  0.00000000000E+00 0.  1.
    9000005    2    1    2  501    0 -0.18098635604E-03  0.23464769498E-04 -0.89134570150E+03  0.11086542204E+04  0.65925489826E+03 0.  0.
         13    1    3    3    0    0  0.25945027350E+03 -0.20236454410E+03 -0.47881290631E+03  0.58097130082E+03  0.00000000000E+00 0.  1.
          3    1    3    3  501    0 -0.25945045448E+03  0.20236456756E+03 -0.41253279519E+03  0.52768291960E+03  0.00000000000E+00 0.  1.
         21    1    1    2  502  501  0.18098635605E-03 -0.23464769507E-04  0.17423628693E-03  0.25231912367E-03  0.00000000000E+00 0.  1.
<mgrwt>
<rscale>  1 0.65925490E+03</rscale>
<asrwt>0</asrwt>
<pdfrwt beam="1">  1        1 0.39510801E+00 0.65925490E+03</pdfrwt>
<pdfrwt beam="2">0</pdfrwt>
<totfact> 0.14042296E+00</totfact>
</mgrwt>
</event>
<event>
 6    1  0.7220224E-003  0.6445870E+03  0.7818608E-02  0.9816990E-01
          1   -1    0    0  502    0  0.00000000000E+00  0.00000000000E+00  0.10387785434E+03  0.10387785434E+03  0.00000000000E+00 0.  1.
         13   -1    0    0    0    0 -0.00000000000E+00 -0.00000000000E+00 -0.10000000000E+04  0.10000000000E+04  0.00000000000E+00 0.  1.
    9000005    2    1    2  501    0 -0.98215340574E-03  0.76591635784E-03 -0.89612680384E+03  0.11038730325E+04  0.64458701770E+03 0.  0.
         13    1    3    3    0    0  0.13520622807E+03 -0.52013456613E+02  0.44974842884E+02  0.15168671751E+03  0.00000000000E+00 0.  1.
          3    1    3    3  501    0 -0.13520721022E+03  0.52014222529E+02 -0.94110164672E+03  0.95218631502E+03  0.00000000000E+00 0.  1.
         21    1    1    2  502  501  0.98215340575E-03 -0.76591635784E-03  0.46581809627E-02  0.48218153284E-02  0.00000000000E+00 0. -1.
<mgrwt>
<rscale>  1 0.64458702E+03</rscale>
<asrwt>0</asrwt>
<pdfrwt beam="1">  1        1 0.37773845E+00 0.64458702E+03</pdfrwt>
<pdfrwt beam="2">0</pdfrwt>
<totfact> 0.16807621E+00</totfact>
</mgrwt>
</event>
<event>
 6    1  0.7220224E-003  0.6527818E+03  0.7818608E-02  0.9801573E-01
          1   -1    0    0  502    0  0.00000000000E+00  0.00000000000E+00  0.11639504199E+03  0.11639504199E+03  0.00000000000E+00 0.  1.
         13   -1    0    0    0    0 -0.00000000000E+00 -0.00000000000E+00 -0.10000000000E+04  0.10000000000E+04  0.00000000000E+00 0.  1.
    9000005    2    1    2  501    0 -0.17275781092E+01 -0.27465208858E+00 -0.89338308994E+03  0.11064616728E+04  0.65277946349E+03 0.  0.
         13    1    3    3    0    0 -0.23824806181E+03  0.15986334409E+03 -0.18172282772E+03  0.33961980781E+03  0.00000000000E+00 0.  1.
          3    1    3    3  501    0  0.23652048370E+03 -0.16013799618E+03 -0.71166026222E+03  0.76684186496E+03  0.00000000000E+00 0.  1.
         21    1    1    2  502  501  0.17275781092E+01  0.27465208858E+00  0.97781319347E+01  0.99333692183E+01  0.00000000000E+00 0.  1.
<mgrwt>
<rscale>  1 0.65278181E+03</rscale>
<asrwt>0</asrwt>
<pdfrwt beam="1">  1        1 0.42325559E+00 0.65278181E+03</pdfrwt>
<pdfrwt beam="2">0</pdfrwt>
<totfact> 0.10515227E+00</totfact>
</mgrwt>
</event>
<event>
 6    1  0.7220224E-003  0.6486719E+03  0.7818608E-02  0.9809275E-01
          1   -1    0    0  502    0  0.00000000000E+00  0.00000000000E+00  0.10519397757E+03  0.10519397757E+03  0.00000000000E+00 0.  1.
         13   -1    0    0    0    0 -0.00000000000E+00 -0.00000000000E+00 -0.10000000000E+04  0.10000000000E+04  0.00000000000E+00 0.  1.
    9000005    2    1    2  501    0 -0.34140037693E-03 -0.28159599412E-03 -0.89480583668E+03  0.11051934976E+04  0.64867185989E+03 0.  0.
         13    1    3    3    0    0  0.14168168055E+03  0.26073828046E+03 -0.22437333962E+03  0.37202358129E+03  0.00000000000E+00 0.  1.
          3    1    3    3  501    0 -0.14168202195E+03 -0.26073856206E+03 -0.67043249706E+03  0.73316991632E+03  0.00000000000E+00 0.  1.
         21    1    1    2  502  501  0.34140037694E-03  0.28159599411E-03 -0.18575296255E-03  0.47995279390E-03  0.00000000000E+00 0. -1.
<mgrwt>
<rscale>  1 0.64867186E+03</rscale>
<asrwt>0</asrwt>
<pdfrwt beam="1">  1        1 0.38252436E+00 0.64867186E+03</pdfrwt>
<pdfrwt beam="2">0</pdfrwt>
<totfact> 0.15997867E+00</totfact>
</mgrwt>
</event>
