<LesHouchesEvents version="3.0">
<header>
<!--
#*********************************************************************
#                                                                    *
#                        MadGraph5_aMC@NLO                           *
#                                                                    *
#                           Going Beyond                             *
#                                                                    *
#                   http://madgraph.hep.uiuc.edu                     *
#                   http://madgraph.phys.ucl.ac.be                   *
#                   http://amcatnlo.cern.ch                          *
#                                                                    *
#                     The MadGraph5_aMC@NLO team                     *
#                                                                    *
#....................................................................*
#                                                                    *
# This file contains all the information necessary to reproduce      *
# the events generated:                                              *
#                                                                    *
# 1. software version                                                *
# 2. proc_card          : code generation info including model       *
# 3. param_card         : model primary parameters in the LH format  *
# 4. run_card           : running parameters (collider and cuts)     *
# 5. pythia_card        : present only if pythia has been run        *
# 6. pgs_card           : present only if pgs has been run           *
# 7. delphes_cards      : present only if delphes has been run       *
#                                                                    *
#                                                                    *
#*********************************************************************
-->
<MGVersion>
3.2.0
</MGVersion>
<MG5ProcCard>
<![CDATA[
#************************************************************
#*                     MadGraph5_aMC@NLO                    *
#*                                                          *
#*                *                       *                 *
#*                  *        * *        *                   *
#*                    * * * * 5 * * * *                     *
#*                  *        * *        *                   *
#*                *                       *                 *
#*                                                          *
#*                                                          *
#*         VERSION 3.2.0                 2021-08-22         *
#*                                                          *
#*    The MadGraph5_aMC@NLO Development Team - Find us at   *
#*    https://server06.fynu.ucl.ac.be/projects/madgraph     *
#*                                                          *
#************************************************************
#*                                                          *
#*               Command File for MadGraph5_aMC@NLO         *
#*                                                          *
#*     run as ./bin/mg5_aMC  filename                       *
#*                                                          *
#************************************************************
set group_subprocesses Auto
set ignore_six_quark_processes False
set low_mem_multicore_nlo_generation False
set complex_mass_scheme False
set include_lepton_initiated_processes False
set gauge unitary
set loop_optimized_output True
set loop_color_flows False
set max_npoint_for_channel 0
set default_unset_couplings 99
set max_t_for_channel 99
set zerowidth_tchannel True
set nlo_mixed_expansion True
import model sm
define p = g u c d s u~ c~ d~ s~
define j = g u c d s u~ c~ d~ s~
define l+ = e+ mu+
define l- = e- mu-
define vl = ve vm vt
define vl~ = ve~ vm~ vt~
tutorial
import model MSSM_SLHA2
define v = w+ w- z a
set group_subprocesses Auto
set ignore_six_quark_processes False
set low_mem_multicore_nlo_generation False
set complex_mass_scheme False
set include_lepton_initiated_processes False
set gauge unitary
set loop_optimized_output True
set loop_color_flows False
set max_npoint_for_channel 0
set default_unset_couplings 99
set max_t_for_channel 99
set zerowidth_tchannel True
set nlo_mixed_expansion True
import model sm
define p = g u c d s u~ c~ d~ s~
define j = g u c d s u~ c~ d~ s~
define l+ = e+ mu+
define l- = e- mu-
define vl = ve vm vt
define vl~ = ve~ vm~ vt~
tutorial
import model MSSM_SLHA2
define v = w+ w- z a
tutorial stop
tutorial
import model /home/nick/Desktop/LQ_Research/mg_root/models/LQ_S1_/NLO_\
MODEL/NLO_LQ_S1_
generate p mu- > s1tm43 j, ( s1tm43 > mu- j )
output LQ_S1-_OUT
]]>
</MG5ProcCard>
<MGProcCard>
#*********************************************************************
#                        MadGraph/MadEvent                           *
#                   http://madgraph.hep.uiuc.edu                     *
#                                                                    *
#                          proc_card.dat                             *
#*********************************************************************
#                                                                    *
#            This Files is generated by MADGRAPH 5                   *
#                                                                    *
# WARNING: This Files is generated for MADEVENT (compatibility issue)*
#          This files is NOT a valid MG4 proc_card.dat               *
#          Running this in MG4 will NEVER reproduce the result of MG5*
#                                                                    *
#*********************************************************************
#*********************************************************************
# Process(es) requested : mg2 input                                  *
#*********************************************************************
# Begin PROCESS # This is TAG. Do not modify this line
p mu- > s1tm43 j , ( s1tm43 > mu- j )           #Process
# Be carefull the coupling are here in MG5 convention
          
end_coup           # End the couplings input

done               # this tells MG there are no more procs
# End PROCESS  # This is TAG. Do not modify this line
#*********************************************************************
# Model information                                                  *
#*********************************************************************
# Begin MODEL  # This is TAG. Do not modify this line
NLO_LQ_S1_
# End   MODEL  # This is TAG. Do not modify this line
#*********************************************************************
# Start multiparticle definitions                                    *
#*********************************************************************
# Begin MULTIPARTICLES # This is TAG. Do not modify this line

# End  MULTIPARTICLES # This is TAG. Do not modify this line
</MGProcCard>
<MGRunCard>
<![CDATA[
#*********************************************************************
#                       MadGraph5_aMC@NLO                            *
#                                                                    *
#                     run_card.dat MadEvent                          *
#                                                                    *
#  This file is used to set the parameters of the run.               *
#                                                                    *
#  Some notation/conventions:                                        *
#                                                                    *
#   Lines starting with a '# ' are info or comments                  *
#                                                                    *
#   mind the format:   value    = variable     ! comment             *
#                                                                    *
#   To display more options, you can type the command:               *
#      update full_run_card                                          *
#*********************************************************************
#                                                                    
#*********************************************************************
# Tag name for the run (one word)                                    *
#*********************************************************************
  tag_1     = run_tag ! name of the run 
#*********************************************************************
# Number of events and rnd seed                                      *
# Warning: Do not generate more than 1M events in a single run       *
#*********************************************************************
  10000 = nevents ! Number of unweighted events requested 
 144 = iseed   ! rnd seed (0=assigned automatically=default))
#*********************************************************************
# Collider type and energy                                           *
# lpp: 0=No PDF, 1=proton, -1=antiproton, 2=photon from proton,      *
#                3=photon from electron, 4=photon from muon          *
#*********************************************************************
     1        = lpp1    ! beam 1 type 
     0        = lpp2    ! beam 2 type
     275.0     = ebeam1  ! beam 1 total energy in GeV
     1000.0     = ebeam2  ! beam 2 total energy in GeV
#*********************************************************************
# Beam polarization from -100 (left-handed) to 100 (right-handed)    *
#*********************************************************************
     0.0     = polbeam1 ! beam polarization for beam 1
     0.0     = polbeam2 ! beam polarization for beam 2


#*********************************************************************
# PDF CHOICE: this automatically fixes also alpha_s and its evol.    *
#*********************************************************************
     nn23lo1    = pdlabel     ! PDF set                                     
     230000    = lhaid     ! if pdlabel=lhapdf, this is the lhapdf number
# To see heavy ion options: type "update ion_pdf"
#*********************************************************************
# Renormalization and factorization scales                           *
#*********************************************************************
 False = fixed_ren_scale  ! if .true. use fixed ren scale
 False        = fixed_fac_scale  ! if .true. use fixed fac scale
 91.188  = scale            ! fixed ren scale
 91.188  = dsqrt_q2fact1    ! fixed fact scale for pdf1
 91.188  = dsqrt_q2fact2    ! fixed fact scale for pdf2
 -1 = dynamical_scale_choice ! Choose one of the preselected dynamical choices
 1.0  = scalefact        ! scale factor for event-by-event scales
#*********************************************************************
# Type and output format
#*********************************************************************
  False     = gridpack  !True = setting up the grid pack
  -1.0 = time_of_flight ! threshold (in mm) below which the invariant livetime is not written (-1 means not written)
  average =  event_norm       ! average/sum. Normalization of the weight in the LHEF
# To see MLM/CKKW  merging options: type "update MLM" or "update CKKW"

#*********************************************************************
#
#*********************************************************************
# Phase-Space Optimization strategy (basic options)
#*********************************************************************
   0  = nhel          ! using helicities importance sampling or not.
                             ! 0: sum over helicity, 1: importance sampling
   2  = sde_strategy  ! default integration strategy (hep-ph/2021.xxxxx)
                             ! 1 is old strategy (using amp square)
			     ! 2 is new strategy (using only the denominator)
# To see advanced option for Phase-Space optimization: type "update psoptim"			     
#*********************************************************************
# Generation bias, check the wiki page below for more information:   *
#  'cp3.irmp.ucl.ac.be/projects/madgraph/wiki/LOEventGenerationBias' *
#*********************************************************************
 None = bias_module  ! Bias type of bias, [None, ptj_bias, -custom_folder-]
 {} = bias_parameters ! Specifies the parameters of the module.
#
#*******************************                                                 
# Parton level cuts definition *
#*******************************                                     
#                                                                    
#
#*********************************************************************
# BW cutoff (M+/-bwcutoff*Gamma) ! Define on/off-shell for "$" and decay  
#*********************************************************************
  15.0  = bwcutoff      ! (M+/-bwcutoff*Gamma)
 #*********************************************************************
 # Apply pt/E/eta/dr/mij/kt_durham cuts on decay products or not
 # (note that etmiss/ptll/ptheavy/ht/sorted cuts always apply)
 #*********************************************************************
   False  = cut_decays    ! Cut decay products 
#*********************************************************************
# Standard Cuts                                                      *
#*********************************************************************
# Minimum and maximum pt's (for max, -1 means no cut)                *
#*********************************************************************
 0.0  = ptj       ! minimum pt for the jets 
 0.0  = ptl       ! minimum pt for the charged leptons 
 -1.0  = ptjmax    ! maximum pt for the jets
 -1.0  = ptlmax    ! maximum pt for the charged leptons
 {} = pt_min_pdg ! pt cut for other particles (use pdg code). Applied on particle and anti-particle
 {}	= pt_max_pdg ! pt cut for other particles (syntax e.g. {6: 100, 25: 50}) 
#
# For display option for energy cut in the partonic center of mass frame type 'update ecut'
#
#*********************************************************************
# Maximum and minimum absolute rapidity (for max, -1 means no cut)   *
#*********************************************************************
 5.0 = etaj    ! max rap for the jets 
 2.5  = etal    ! max rap for the charged leptons 
 0.0  = etalmin ! main rap for the charged leptons
 {} = eta_min_pdg ! rap cut for other particles (use pdg code). Applied on particle and anti-particle
 {} = eta_max_pdg ! rap cut for other particles (syntax e.g. {6: 2.5, 23: 5})
#*********************************************************************
# Minimum and maximum DeltaR distance                                *
#*********************************************************************
 0.4 = drjj    ! min distance between jets 
 0.4 = drjl    ! min distance between jet and lepton 
 -1.0  = drjjmax ! max distance between jets
 -1.0  = drjlmax ! max distance between jet and lepton
#*********************************************************************
# Minimum and maximum invariant mass for pairs                       *
#*********************************************************************
 0.0   = mmjj    ! min invariant mass of a jet pair 
 -1.0  = mmjjmax ! max invariant mass of a jet pair
 {} = mxx_min_pdg ! min invariant mass of a pair of particles X/X~ (e.g. {6:250})
 {'default': False} = mxx_only_part_antipart ! if True the invariant mass is applied only 
                       ! to pairs of particle/antiparticle and not to pairs of the same pdg codes.  
#*********************************************************************
# Inclusive cuts                                                     *
#*********************************************************************
 0.0  = xptj ! minimum pt for at least one jet  
 #*********************************************************************
 # Control the pt's of the jets sorted by pt                          *
 #*********************************************************************
 0.0   = ptj1min ! minimum pt for the leading jet in pt
 0.0   = ptj2min ! minimum pt for the second jet in pt
 -1.0  = ptj1max ! maximum pt for the leading jet in pt 
 -1.0  = ptj2max ! maximum pt for the second jet in pt
 1   = cutuse  ! reject event if fails any (0) / all (1) jet pt cuts
 #*********************************************************************
 # Control the Ht(k)=Sum of k leading jets                            *
 #*********************************************************************
 0.0   = htjmin ! minimum jet HT=Sum(jet pt)
 -1.0  = htjmax ! maximum jet HT=Sum(jet pt)
 0.0   = ihtmin  !inclusive Ht for all partons (including b)
 -1.0  = ihtmax  !inclusive Ht for all partons (including b)
 #*********************************************************************
 # WBF cuts                                                           *
 #*********************************************************************
 0.0   = xetamin ! minimum rapidity for two jets in the WBF case  
 0.0   = deltaeta ! minimum rapidity for two jets in the WBF case 
#*********************************************************************
# maximal pdg code for quark to be considered as a light jet         *
# (otherwise b cuts are applied)                                     *
#*********************************************************************
 4 = maxjetflavor    ! Maximum jet pdg code
#*********************************************************************
#
#*********************************************************************
# Store info for systematics studies                                 *
# WARNING: Do not use for interference type of computation           *
#*********************************************************************
   True  = use_syst      ! Enable systematics studies
#
systematics = systematics_program ! none, systematics [python], SysCalc [depreceted, C++]
['--mur=0.5,1,2', '--muf=0.5,1,2', '--pdf=errorset'] = systematics_arguments ! see: https://cp3.irmp.ucl.ac.be/projects/madgraph/wiki/Systematics#Systematicspythonmodule
# Syscalc is deprecated but to see the associate options type'update syscalc'
]]>
</MGRunCard>
<slha>
######################################################################
## PARAM_CARD AUTOMATICALY GENERATED BY MG5 FOLLOWING UFO MODEL   ####
######################################################################
##                                                                  ##
##  Width set on Auto will be computed following the information    ##
##        present in the decay.py files of the model.               ##
##        See  arXiv:1402.1178 for more details.                    ##
##                                                                  ##
######################################################################

###################################
## INFORMATION FOR MASS
###################################
Block mass 
    5 4.700000e+00 # MB 
    6 1.720000e+02 # MT 
   15 1.777000e+00 # MTA 
   23 9.118760e+01 # MZ 
   25 1.250000e+02 # MH 
  9000005 6.500000e+02 # MS1t 
## Dependent parameters, given by model restrictions.
## Those values should be edited following the 
## analytical expression. MG5 ignores those values 
## but they are important for interfacing the output of MG5
## to external program such as Pythia.
  1 0.000000e+00 # d : 0.0 
  2 0.000000e+00 # u : 0.0 
  3 0.000000e+00 # s : 0.0 
  4 0.000000e+00 # c : 0.0 
  11 0.000000e+00 # e- : 0.0 
  12 0.000000e+00 # ve : 0.0 
  13 0.000000e+00 # mu- : 0.0 
  14 0.000000e+00 # vm : 0.0 
  16 0.000000e+00 # vt : 0.0 
  21 0.000000e+00 # g : 0.0 
  22 0.000000e+00 # a : 0.0 
  24 7.982436e+01 # w+ : cmath.sqrt(MZ__exp__2/2. + cmath.sqrt(MZ__exp__4/4. - (aEW*cmath.pi*MZ__exp__2)/(Gf*sqrt__2))) 
  9000002 9.118760e+01 # ghz : MZ 
  9000003 7.982436e+01 # ghwp : MW 
  9000004 7.982436e+01 # ghwm : MW 

###################################
## INFORMATION FOR SMINPUTS
###################################
Block sminputs 
    1 1.279000e+02 # aEWM1 
    2 1.166370e-05 # Gf 
    3 1.184000e-01 # aS (Note that Parameter not used if you use a PDF set) 

###################################
## INFORMATION FOR YUKAWA
###################################
Block yukawa 
    5 4.700000e+00 # ymb 
    6 1.720000e+02 # ymt 
   15 1.777000e+00 # ymtau 

###################################
## INFORMATION FOR YUKS1TRR
###################################
Block yuks1trr 
    1   1 1.000000e-01 # yRR1x1 
    1   2 1.000000e-01 # yRR1x2 
    1   3 1.000000e-01 # yRR1x3 
    2   1 1.000000e-01 # yRR2x1 
    2   2 1.000000e-01 # yRR2x2 
    2   3 1.000000e-01 # yRR2x3 
    3   1 1.000000e-01 # yRR3x1 
    3   2 1.000000e-01 # yRR3x2 
    3   3 1.000000e-01 # yRR3x3 

###################################
## INFORMATION FOR DECAY
###################################
DECAY   6 1.508336e+00 # WT 
DECAY  23 2.495200e+00 # WZ 
DECAY  24 2.085000e+00 # WW 
DECAY  25 4.070000e-03 # WH 
DECAY 9000005 1.293134e+01 # WS1t 
## Dependent parameters, given by model restrictions.
## Those values should be edited following the 
## analytical expression. MG5 ignores those values 
## but they are important for interfacing the output of MG5
## to external program such as Pythia.
DECAY  1 0.000000e+00 # d : 0.0 
DECAY  2 0.000000e+00 # u : 0.0 
DECAY  3 0.000000e+00 # s : 0.0 
DECAY  4 0.000000e+00 # c : 0.0 
DECAY  5 0.000000e+00 # b : 0.0 
DECAY  11 0.000000e+00 # e- : 0.0 
DECAY  12 0.000000e+00 # ve : 0.0 
DECAY  13 0.000000e+00 # mu- : 0.0 
DECAY  14 0.000000e+00 # vm : 0.0 
DECAY  15 0.000000e+00 # ta- : 0.0 
DECAY  16 0.000000e+00 # vt : 0.0 
DECAY  21 0.000000e+00 # g : 0.0 
DECAY  22 0.000000e+00 # a : 0.0 
DECAY  9000002 2.495200e+00 # ghz : WZ 
DECAY  9000003 2.085000e+00 # ghwp : WW 
DECAY  9000004 2.085000e+00 # ghwm : WW 
#===========================================================
# QUANTUM NUMBERS OF NEW STATE(S) (NON SM PDG CODE)
#===========================================================

Block QNUMBERS 9000001  # gha 
        1 0  # 3 times electric charge
        2 1  # number of spin states (2S+1)
        3 1  # colour rep (1: singlet, 3: triplet, 8: octet)
        4 1  # Particle/Antiparticle distinction (0=own anti)
Block QNUMBERS 9000002  # ghz 
        1 0  # 3 times electric charge
        2 1  # number of spin states (2S+1)
        3 1  # colour rep (1: singlet, 3: triplet, 8: octet)
        4 1  # Particle/Antiparticle distinction (0=own anti)
Block QNUMBERS 9000003  # ghwp 
        1 3  # 3 times electric charge
        2 1  # number of spin states (2S+1)
        3 1  # colour rep (1: singlet, 3: triplet, 8: octet)
        4 1  # Particle/Antiparticle distinction (0=own anti)
Block QNUMBERS 9000004  # ghwm 
        1 -3  # 3 times electric charge
        2 1  # number of spin states (2S+1)
        3 1  # colour rep (1: singlet, 3: triplet, 8: octet)
        4 1  # Particle/Antiparticle distinction (0=own anti)
Block QNUMBERS 82  # ghg 
        1 0  # 3 times electric charge
        2 1  # number of spin states (2S+1)
        3 8  # colour rep (1: singlet, 3: triplet, 8: octet)
        4 1  # Particle/Antiparticle distinction (0=own anti)
Block QNUMBERS 9000005  # s1tm43 
        1 -4  # 3 times electric charge
        2 1  # number of spin states (2S+1)
        3 3  # colour rep (1: singlet, 3: triplet, 8: octet)
        4 1  # Particle/Antiparticle distinction (0=own anti)
</slha>
<MGGenerationInfo>
#  Number of Events        :       10000
#  Integrated weight (pb)  :       0.056466785242100005
</MGGenerationInfo>
</header>
<init>
2212 13 2.750000e+02 1.000000e+03 0 0 247000 247000 -4 1
5.646679e-02 2.329309e-04 5.646679e-02 1
<generator name='MadGraph5_aMC@NLO' version='3.2.0'>please cite 1405.0301 </generator>
</init>
<event>
 6      1 +5.6466785e-02 6.53302200e+02 7.81860800e-03 9.80060200e-02
        1 -1    0    0  502    0 +0.0000000000e+00 +0.0000000000e+00 +1.0867411559e+02 1.0867411559e+02 0.0000000000e+00 0.0000e+00 1.0000e+00
       13 -1    0    0    0    0 -0.0000000000e+00 -0.0000000000e+00 -1.0000000000e+03 1.0000000000e+03 0.0000000000e+00 0.0000e+00 1.0000e+00
  9000005  2    1    2  501    0 -2.3136082405e-02 +4.6416879890e-02 -8.9329866667e+02 1.1067006517e+03 6.5330224396e+02 0.0000e+00 0.0000e+00
       13  1    3    3    0    0 +1.2187951392e+02 -2.9449563017e+02 -5.6761712398e+02 6.5097733566e+02 0.0000000000e+00 0.0000e+00 1.0000e+00
        3  1    3    3  501    0 -1.2190265000e+02 +2.9454204705e+02 -3.2568154269e+02 4.5572331606e+02 0.0000000000e+00 0.0000e+00 1.0000e+00
       21  1    1    2  502  501 +2.3136082405e-02 -4.6416879890e-02 +1.9727822596e+00 1.9734638707e+00 0.0000000000e+00 0.0000e+00 1.0000e+00
<mgrwt>
<rscale>  1 0.65330225E+03</rscale>
<asrwt>0</asrwt>
<pdfrwt beam="1">  1        1 0.39517944E+00 0.65330225E+03</pdfrwt>
<pdfrwt beam="2">0</pdfrwt>
<totfact> 0.14047653E+00</totfact>
</mgrwt>
</event>
<event>
 6      1 +5.6466785e-02 6.36742900e+02 7.81860800e-03 9.83197800e-02
        1 -1    0    0  502    0 +0.0000000000e+00 +0.0000000000e+00 +1.0136161691e+02 1.0136161691e+02 0.0000000000e+00 0.0000e+00 1.0000e+00
       13 -1    0    0    0    0 -0.0000000000e+00 -0.0000000000e+00 -1.0000000000e+03 1.0000000000e+03 0.0000000000e+00 0.0000e+00 1.0000e+00
  9000005  2    1    2  501    0 +6.4752000270e-05 -2.4031606415e-05 -8.9863962193e+02 1.1013603761e+03 6.3674289006e+02 0.0000e+00 0.0000e+00
       13  1    3    3    0    0 +1.9120055623e+02 -1.9205083069e+02 -7.3833258496e+02 7.8649614130e+02 0.0000000000e+00 0.0000e+00 1.0000e+00
        3  1    3    3  501    0 -1.9120049148e+02 +1.9205080666e+02 -1.6030703697e+02 3.1486423484e+02 0.0000000000e+00 0.0000e+00 1.0000e+00
       21  1    1    2  502  501 -6.4752000282e-05 +2.4031606406e-05 +1.2388355163e-03 1.2407593546e-03 0.0000000000e+00 0.0000e+00 -1.0000e+00
<mgrwt>
<rscale>  1 0.63674289E+03</rscale>
<asrwt>0</asrwt>
<pdfrwt beam="1">  1        1 0.36858848E+00 0.63674289E+03</pdfrwt>
<pdfrwt beam="2">0</pdfrwt>
<totfact> 0.18465944E+00</totfact>
</mgrwt>
</event>
<event>
 6      1 +5.6466785e-02 6.36213500e+02 7.81860800e-03 9.83299800e-02
        1 -1    0    0  502    0 +0.0000000000e+00 +0.0000000000e+00 +1.0119207105e+02 1.0119207105e+02 0.0000000000e+00 0.0000e+00 1.0000e+00
       13 -1    0    0    0    0 -0.0000000000e+00 -0.0000000000e+00 -1.0000000000e+03 1.0000000000e+03 0.0000000000e+00 0.0000e+00 1.0000e+00
  9000005  2    1    2  501    0 +1.3371098802e-05 -5.2797115660e-04 -8.9880746744e+02 1.1011913697e+03 6.3621346191e+02 0.0000e+00 0.0000e+00
       13  1    3    3    0    0 -7.1294712555e+01 -1.3614419335e+02 -9.3148203049e+02 9.4407465306e+02 0.0000000000e+00 0.0000e+00 1.0000e+00
        3  1    3    3  501    0 +7.1294725926e+01 +1.3614366538e+02 +3.2674563054e+01 1.5711671661e+02 0.0000000000e+00 0.0000e+00 1.0000e+00
       21  1    1    2  502  501 -1.3371098809e-05 +5.2797115660e-04 -4.6151583668e-04 7.0137664346e-04 0.0000000000e+00 0.0000e+00 1.0000e+00
<mgrwt>
<rscale>  1 0.63621346E+03</rscale>
<asrwt>0</asrwt>
<pdfrwt beam="1">  1        1 0.36797194E+00 0.63621346E+03</pdfrwt>
<pdfrwt beam="2">0</pdfrwt>
<totfact> 0.18583136E+00</totfact>
</mgrwt>
</event>
<event>
 6      1 +5.6466785e-02 6.48052900e+02 7.81860800e-03 9.81044000e-02
        1 -1    0    0  502    0 +0.0000000000e+00 +0.0000000000e+00 +1.0533036762e+02 1.0533036762e+02 0.0000000000e+00 0.0000e+00 1.0000e+00
       13 -1    0    0    0    0 -0.0000000000e+00 -0.0000000000e+00 -1.0000000000e+03 1.0000000000e+03 0.0000000000e+00 0.0000e+00 1.0000e+00
  9000005  2    1    2  501    0 -6.8445959915e-03 +1.1245979247e-03 -8.9500681506e+02 1.1049931136e+03 6.4805291609e+02 0.0000e+00 0.0000e+00
       13  1    3    3    0    0 -1.7674713545e+02 -1.2879233154e+01 -9.1005235540e+02 9.2714654403e+02 0.0000000000e+00 0.0000e+00 1.0000e+00
        3  1    3    3  501    0 +1.7674029085e+02 +1.2880357752e+01 +1.5045540338e+01 1.7784656958e+02 0.0000000000e+00 0.0000e+00 1.0000e+00
       21  1    1    2  502  501 +6.8445959915e-03 -1.1245979247e-03 +3.3718267866e-01 3.3725401703e-01 0.0000000000e+00 0.0000e+00 1.0000e+00
<mgrwt>
<rscale>  1 0.64805292E+03</rscale>
<asrwt>0</asrwt>
<pdfrwt beam="1">  1        1 0.38302033E+00 0.64805292E+03</pdfrwt>
<pdfrwt beam="2">0</pdfrwt>
<totfact> 0.15919167E+00</totfact>
</mgrwt>
</event>
<event>
 6      1 +5.6466785e-02 6.68908000e+02 7.81860800e-03 9.77193300e-02
        1 -1    0    0  502    0 +0.0000000000e+00 +0.0000000000e+00 +1.1447731088e+02 1.1447731088e+02 0.0000000000e+00 0.0000e+00 1.0000e+00
       13 -1    0    0    0    0 -0.0000000000e+00 -0.0000000000e+00 -1.0000000000e+03 1.0000000000e+03 0.0000000000e+00 0.0000e+00 1.0000e+00
  9000005  2    1    2  501    0 -4.6946665464e-02 -2.5869485499e-02 -8.8814021593e+02 1.1118592353e+03 6.6890800044e+02 0.0000e+00 0.0000e+00
       13  1    3    3    0    0 +1.8387489468e+02 +1.8983989782e+02 -7.8467986632e+02 8.2799254604e+02 0.0000000000e+00 0.0000e+00 1.0000e+00
        1  1    3    3  501    0 -1.8392184134e+02 -1.8986576730e+02 -1.0346034962e+02 2.8386668924e+02 0.0000000000e+00 0.0000e+00 1.0000e+00
       21  1    1    2  502  501 +4.6946665464e-02 +2.5869485499e-02 +2.6175268095e+00 2.6180755944e+00 0.0000000000e+00 0.0000e+00 -1.0000e+00
<mgrwt>
<rscale>  1 0.66890800E+03</rscale>
<asrwt>0</asrwt>
<pdfrwt beam="1">  1        1 0.41628201E+00 0.66890800E+03</pdfrwt>
<pdfrwt beam="2">0</pdfrwt>
<totfact> 0.11269717E+00</totfact>
</mgrwt>
</event>
<event>
 6      1 +5.6466785e-02 6.55359200e+02 7.81860800e-03 9.79677500e-02
        1 -1    0    0  502    0 +0.0000000000e+00 +0.0000000000e+00 +1.0737395459e+02 1.0737395459e+02 0.0000000000e+00 0.0000e+00 1.0000e+00
       13 -1    0    0    0    0 -0.0000000000e+00 -0.0000000000e+00 -1.0000000000e+03 1.0000000000e+03 0.0000000000e+00 0.0000e+00 1.0000e+00
  9000005  2    1    2  501    0 +1.2020794190e-04 +4.8585026605e-05 -8.9262592196e+02 1.1073737756e+03 6.5535917043e+02 0.0000e+00 0.0000e+00
       13  1    3    3    0    0 -1.5314392607e+02 +2.7189420418e+02 -2.7738835323e+02 4.1752104003e+02 0.0000000000e+00 0.0000e+00 1.0000e+00
        1  1    3    3  501    0 +1.5314404628e+02 -2.7189415560e+02 -6.1523756873e+02 6.8985273554e+02 0.0000000000e+00 0.0000e+00 1.0000e+00
       21  1    1    2  502  501 -1.2020794189e-04 -4.8585026592e-05 -1.2344476915e-04 1.7902252689e-04 0.0000000000e+00 0.0000e+00 1.0000e+00
<mgrwt>
<rscale>  1 0.65535917E+03</rscale>
<asrwt>0</asrwt>
<pdfrwt beam="1">  1        1 0.39045157E+00 0.65535917E+03</pdfrwt>
<pdfrwt beam="2">0</pdfrwt>
<totfact> 0.14737842E+00</totfact>
</mgrwt>
</event>
<event>
 6      1 +5.6466785e-02 6.61682900e+02 7.81860800e-03 9.78510100e-02
        1 -1    0    0  502    0 +0.0000000000e+00 +0.0000000000e+00 +1.0945674163e+02 1.0945674163e+02 0.0000000000e+00 0.0000e+00 1.0000e+00
       13 -1    0    0    0    0 -0.0000000000e+00 -0.0000000000e+00 -1.0000000000e+03 1.0000000000e+03 0.0000000000e+00 0.0000e+00 1.0000e+00
  9000005  2    1    2  501    0 -6.6634260463e-05 -6.6931393690e-05 -8.9054392815e+02 1.1094560652e+03 6.6168290949e+02 0.0000e+00 0.0000e+00
       13  1    3    3    0    0 -1.5681866652e+02 +2.7682145233e+02 -2.9312555758e+02 4.3260236147e+02 0.0000000000e+00 0.0000e+00 1.0000e+00
        1  1    3    3  501    0 +1.5681859989e+02 -2.7682151927e+02 -5.9741837057e+02 6.7685370376e+02 0.0000000000e+00 0.0000e+00 1.0000e+00
       21  1    1    2  502  501 +6.6634260465e-05 +6.6931393718e-05 +6.6977757727e-04 6.7640368062e-04 0.0000000000e+00 0.0000e+00 1.0000e+00
<mgrwt>
<rscale>  1 0.66168291E+03</rscale>
<asrwt>0</asrwt>
<pdfrwt beam="1">  1        1 0.39802535E+00 0.66168291E+03</pdfrwt>
<pdfrwt beam="2">0</pdfrwt>
<totfact> 0.13622514E+00</totfact>
</mgrwt>
</event>
<event>
 6      1 +5.6466785e-02 6.72666700e+02 7.81860800e-03 9.76515200e-02
        1 -1    0    0  502    0 +0.0000000000e+00 +0.0000000000e+00 +1.1312026059e+02 1.1312026059e+02 0.0000000000e+00 0.0000e+00 1.0000e+00
       13 -1    0    0    0    0 -0.0000000000e+00 -0.0000000000e+00 -1.0000000000e+03 1.0000000000e+03 0.0000000000e+00 0.0000e+00 1.0000e+00
  9000005  2    1    2  501    0 +6.9507671689e-05 +2.8848645229e-05 -8.8687985015e+02 1.1131201267e+03 6.7266674353e+02 0.0000e+00 0.0000e+00
       13  1    3    3    0    0 -3.9327859775e+01 -3.0265789669e+02 -6.7729614679e+02 7.4288528956e+02 0.0000000000e+00 0.0000e+00 1.0000e+00
        1  1    3    3  501    0 +3.9327929282e+01 +3.0265792554e+02 -2.0958370336e+02 3.7023483714e+02 0.0000000000e+00 0.0000e+00 1.0000e+00
       21  1    1    2  502  501 -6.9507671687e-05 -2.8848645224e-05 +1.1074295432e-04 1.3389384858e-04 0.0000000000e+00 0.0000e+00 -1.0000e+00
<mgrwt>
<rscale>  1 0.67266674E+03</rscale>
<asrwt>0</asrwt>
<pdfrwt beam="1">  1        1 0.41134727E+00 0.67266674E+03</pdfrwt>
<pdfrwt beam="2">0</pdfrwt>
<totfact> 0.11851951E+00</totfact>
</mgrwt>
</event>
<event>
 6      1 +5.6466785e-02 6.45499800e+02 7.81860800e-03 9.81526000e-02
        1 -1    0    0  502    0 +0.0000000000e+00 +0.0000000000e+00 +1.0416811456e+02 1.0416811456e+02 0.0000000000e+00 0.0000e+00 1.0000e+00
       13 -1    0    0    0    0 -0.0000000000e+00 -0.0000000000e+00 -1.0000000000e+03 1.0000000000e+03 0.0000000000e+00 0.0000e+00 1.0000e+00
  9000005  2    1    2  501    0 -8.0127070703e-06 -2.8755049584e-05 -8.9583250049e+02 1.1041674988e+03 6.4549980360e+02 0.0000e+00 0.0000e+00
       13  1    3    3    0    0 -6.6412773757e+01 -8.8799692781e+01 +7.0560336199e+01 1.3143364486e+02 0.0000000000e+00 0.0000e+00 1.0000e+00
        3  1    3    3  501    0 +6.6412765745e+01 +8.8799664026e+01 -9.6639283669e+02 9.7273385393e+02 0.0000000000e+00 0.0000e+00 1.0000e+00
       21  1    1    2  502  501 +8.0127070769e-06 +2.8755049586e-05 +6.1504609978e-04 6.1577005546e-04 0.0000000000e+00 0.0000e+00 -1.0000e+00
<mgrwt>
<rscale>  1 0.64549980E+03</rscale>
<asrwt>0</asrwt>
<pdfrwt beam="1">  1        1 0.37879394E+00 0.64549980E+03</pdfrwt>
<pdfrwt beam="2">0</pdfrwt>
<totfact> 0.16625714E+00</totfact>
</mgrwt>
</event>
<event>
 6      1 +5.6466785e-02 6.72639500e+02 7.81860800e-03 9.76520100e-02
        1 -1    0    0  502    0 +0.0000000000e+00 +0.0000000000e+00 +1.1541613847e+02 1.1541613847e+02 0.0000000000e+00 0.0000e+00 1.0000e+00
       13 -1    0    0    0    0 -0.0000000000e+00 -0.0000000000e+00 -1.0000000000e+03 1.0000000000e+03 0.0000000000e+00 0.0000e+00 1.0000e+00
  9000005  2    1    2  501    0 -3.5371663421e-04 +7.8967027656e-02 -8.8688826386e+02 1.1131103835e+03 6.7263952236e+02 0.0000e+00 0.0000e+00
       13  1    3    3    0    0 +3.1951724615e+02 +1.0476427268e+02 -4.5542963673e+02 5.6611215976e+02 0.0000000000e+00 0.0000e+00 1.0000e+00
        3  1    3    3  501    0 -3.1951759987e+02 -1.0468530565e+02 -4.3145862713e+02 5.4699822373e+02 0.0000000000e+00 0.0000e+00 1.0000e+00
       21  1    1    2  502  501 +3.5371663421e-04 -7.8967027656e-02 +2.3044023289e+00 2.3057549762e+00 0.0000000000e+00 0.0000e+00 1.0000e+00
<mgrwt>
<rscale>  1 0.67263953E+03</rscale>
<asrwt>0</asrwt>
<pdfrwt beam="1">  1        1 0.41969593E+00 0.67263953E+03</pdfrwt>
<pdfrwt beam="2">0</pdfrwt>
<totfact> 0.10869608E+00</totfact>
</mgrwt>
</event>
<event>
 6      1 +5.6466785e-02 6.42971800e+02 7.81860800e-03 9.82005700e-02
        1 -1    0    0  502    0 +0.0000000000e+00 +0.0000000000e+00 +1.0535159760e+02 1.0535159760e+02 0.0000000000e+00 0.0000e+00 1.0000e+00
       13 -1    0    0    0    0 -0.0000000000e+00 -0.0000000000e+00 -1.0000000000e+03 1.0000000000e+03 0.0000000000e+00 0.0000e+00 1.0000e+00
  9000005  2    1    2  501    0 -5.3569279889e-03 -3.9333824931e-01 -8.9662543253e+02 1.1033358119e+03 6.4297168906e+02 0.0000e+00 0.0000e+00
       13  1    3    3    0    0 +3.2070946103e+02 -1.8898246567e+01 -4.2751092686e+02 5.3476844961e+02 0.0000000000e+00 0.0000e+00 1.0000e+00
        1  1    3    3  501    0 -3.2071481796e+02 +1.8504908317e+01 -4.6911450567e+02 5.6856736234e+02 0.0000000000e+00 0.0000e+00 1.0000e+00
       21  1    1    2  502  501 +5.3569279889e-03 +3.9333824931e-01 +1.9770301280e+00 2.0157856538e+00 0.0000000000e+00 0.0000e+00 -1.0000e+00
<mgrwt>
<rscale>  1 0.64297181E+03</rscale>
<asrwt>0</asrwt>
<pdfrwt beam="1">  1        1 0.38309753E+00 0.64297181E+03</pdfrwt>
<pdfrwt beam="2">0</pdfrwt>
<totfact> 0.15921640E+00</totfact>
</mgrwt>
</event>
<event>
 6      1 +5.6466785e-02 6.46669700e+02 7.81860800e-03 9.81304800e-02
        1 -1    0    0  502    0 +0.0000000000e+00 +0.0000000000e+00 +1.0484438140e+02 1.0484438140e+02 0.0000000000e+00 0.0000e+00 1.0000e+00
       13 -1    0    0    0    0 -0.0000000000e+00 -0.0000000000e+00 -1.0000000000e+03 1.0000000000e+03 0.0000000000e+00 0.0000e+00 1.0000e+00
  9000005  2    1    2  501    0 +2.0721330676e-01 +7.5858313666e-03 -8.9541435698e+02 1.1045128087e+03 6.4666964590e+02 0.0000e+00 0.0000e+00
       13  1    3    3    0    0 -2.8340193460e+01 +8.5400624898e+01 +8.2730633801e+01 1.2223252868e+02 0.0000000000e+00 0.0000e+00 1.0000e+00
        1  1    3    3  501    0 +2.8547406767e+01 -8.5393039067e+01 -9.7814499078e+02 9.8228028003e+02 0.0000000000e+00 0.0000e+00 1.0000e+00
       21  1    1    2  502  501 -2.0721330676e-01 -7.5858313666e-03 +2.5873837429e-01 3.3157268534e-01 0.0000000000e+00 0.0000e+00 1.0000e+00
<mgrwt>
<rscale>  1 0.64666968E+03</rscale>
<asrwt>0</asrwt>
<pdfrwt beam="1">  1        1 0.38125310E+00 0.64666968E+03</pdfrwt>
<pdfrwt beam="2">0</pdfrwt>
<totfact> 0.16211996E+00</totfact>
</mgrwt>
</event>
<event>
 6      1 +5.6466785e-02 6.50606600e+02 7.81860800e-03 9.80564200e-02
        1 -1    0    0  502    0 +0.0000000000e+00 +0.0000000000e+00 +1.0583333101e+02 1.0583333101e+02 0.0000000000e+00 0.0000e+00 1.0000e+00
       13 -1    0    0    0    0 -0.0000000000e+00 -0.0000000000e+00 -1.0000000000e+03 1.0000000000e+03 0.0000000000e+00 0.0000e+00 1.0000e+00
  9000005  2    1    2  501    0 +1.2694299147e-03 -1.4410598055e-03 -8.9417766559e+02 1.1058221680e+03 6.5060661657e+02 0.0000e+00 0.0000e+00
       13  1    3    3    0    0 -2.3945034130e+02 +2.1867816814e+02 -4.9091867862e+02 5.8835172830e+02 0.0000000000e+00 0.0000e+00 1.0000e+00
        3  1    3    3  501    0 +2.3945161073e+02 -2.1867960920e+02 -4.0325898697e+02 5.1747043967e+02 0.0000000000e+00 0.0000e+00 1.0000e+00
       21  1    1    2  502  501 -1.2694299147e-03 +1.4410598055e-03 +1.0996602026e-02 1.1163035510e-02 0.0000000000e+00 0.0000e+00 1.0000e+00
<mgrwt>
<rscale>  1 0.65060662E+03</rscale>
<asrwt>0</asrwt>
<pdfrwt beam="1">  1        1 0.38484929E+00 0.65060662E+03</pdfrwt>
<pdfrwt beam="2">0</pdfrwt>
<totfact> 0.15618172E+00</totfact>
</mgrwt>
</event>
<event>
 6      1 +5.6466785e-02 6.46832700e+02 7.81860800e-03 9.81274100e-02
        1 -1    0    0  502    0 +0.0000000000e+00 +0.0000000000e+00 +1.0459996887e+02 1.0459996887e+02 0.0000000000e+00 0.0000e+00 1.0000e+00
       13 -1    0    0    0    0 -0.0000000000e+00 -0.0000000000e+00 -1.0000000000e+03 1.0000000000e+03 0.0000000000e+00 0.0000e+00 1.0000e+00
  9000005  2    1    2  501    0 -1.4112788921e-04 +9.7174517332e-05 -8.9540186057e+02 1.1045981314e+03 6.4683269865e+02 0.0000e+00 0.0000e+00
       13  1    3    3    0    0 +3.1518193947e+02 +2.7010547710e+01 -5.6262390390e+02 6.4545711081e+02 0.0000000000e+00 0.0000e+00 1.0000e+00
        3  1    3    3  501    0 -3.1518208060e+02 -2.7010450536e+01 -3.3277795667e+02 4.5914102062e+02 0.0000000000e+00 0.0000e+00 1.0000e+00
       21  1    1    2  502  501 +1.4112788922e-04 -9.7174517331e-05 +1.8294365359e-03 1.8374433343e-03 0.0000000000e+00 0.0000e+00 1.0000e+00
<mgrwt>
<rscale>  1 0.64683270E+03</rscale>
<asrwt>0</asrwt>
<pdfrwt beam="1">  1        1 0.38036433E+00 0.64683270E+03</pdfrwt>
<pdfrwt beam="2">0</pdfrwt>
<totfact> 0.16358612E+00</totfact>
</mgrwt>
</event>
<event>
 6      1 +5.6466785e-02 6.49242700e+02 7.81860800e-03 9.80820100e-02
        1 -1    0    0  502    0 +0.0000000000e+00 +0.0000000000e+00 +1.0539200179e+02 1.0539200179e+02 0.0000000000e+00 0.0000e+00 1.0000e+00
       13 -1    0    0    0    0 -0.0000000000e+00 -0.0000000000e+00 -1.0000000000e+03 1.0000000000e+03 0.0000000000e+00 0.0000e+00 1.0000e+00
  9000005  2    1    2  501    0 -1.0423660025e-04 -1.6689939963e-04 -8.9462096270e+02 1.1053790358e+03 6.4924274805e+02 0.0000e+00 0.0000e+00
       13  1    3    3    0    0 -7.5476470492e+01 -2.8824685369e+02 -6.6664550077e+02 7.3020488217e+02 0.0000000000e+00 0.0000e+00 1.0000e+00
        1  1    3    3  501    0 +7.5476366255e+01 +2.8824668679e+02 -2.2797546193e+02 3.7517415363e+02 0.0000000000e+00 0.0000e+00 1.0000e+00
       21  1    1    2  502  501 +1.0423660026e-04 +1.6689939962e-04 +1.2964493758e-02 1.2965987008e-02 0.0000000000e+00 0.0000e+00 -1.0000e+00
<mgrwt>
<rscale>  1 0.64924275E+03</rscale>
<asrwt>0</asrwt>
<pdfrwt beam="1">  1        1 0.38324445E+00 0.64924275E+03</pdfrwt>
<pdfrwt beam="2">0</pdfrwt>
<totfact> 0.15879420E+00</totfact>
</mgrwt>
</event>
<event>
 6      1 +5.6466785e-02 6.53591700e+02 7.81860800e-03 9.80006300e-02
        1 -1    0    0  502    0 +0.0000000000e+00 +0.0000000000e+00 +1.0752085466e+02 1.0752085466e+02 0.0000000000e+00 0.0000e+00 1.0000e+00
       13 -1    0    0    0    0 -0.0000000000e+00 -0.0000000000e+00 -1.0000000000e+03 1.0000000000e+03 0.0000000000e+00 0.0000e+00 1.0000e+00
  9000005  2    1    2  501    0 -1.7008989890e-01 -2.5371503300e-01 -8.9316869438e+02 1.1067666798e+03 6.5359167186e+02 0.0000e+00 0.0000e+00
       13  1    3    3    0    0 +1.4858130085e+02 -1.1975654506e+02 -8.9583873680e+02 9.1593944963e+02 0.0000000000e+00 0.0000e+00 1.0000e+00
        3  1    3    3  501    0 -1.4875139075e+02 +1.1950283003e+02 +2.6700424174e+00 1.9082723013e+02 0.0000000000e+00 0.0000e+00 1.0000e+00
       21  1    1    2  502  501 +1.7008989890e-01 +2.5371503300e-01 +6.8954903828e-01 7.5417489210e-01 0.0000000000e+00 0.0000e+00 -1.0000e+00
<mgrwt>
<rscale>  1 0.65359174E+03</rscale>
<asrwt>0</asrwt>
<pdfrwt beam="1">  1        1 0.39098575E+00 0.65359174E+03</pdfrwt>
<pdfrwt beam="2">0</pdfrwt>
<totfact> 0.14662454E+00</totfact>
</mgrwt>
</event>
<event>
 6      1 +5.6466785e-02 6.10133700e+02 7.81860800e-03 9.88460200e-02
        1 -1    0    0  502    0 +0.0000000000e+00 +0.0000000000e+00 +1.0753194026e+02 1.0753194026e+02 0.0000000000e+00 0.0000e+00 1.0000e+00
       13 -1    0    0    0    0 -0.0000000000e+00 -0.0000000000e+00 -1.0000000000e+03 1.0000000000e+03 0.0000000000e+00 0.0000e+00 1.0000e+00
  9000005  2    1    2  501    0 -7.7869354714e+00 -8.6708526653e-02 -9.0578072160e+02 1.0921088780e+03 6.1008396307e+02 0.0000e+00 0.0000e+00
       13  1    3    3    0    0 +1.5712809795e+02 +1.8617558725e+01 +1.2715670826e+01 1.5873733318e+02 0.0000000000e+00 0.0000e+00 1.0000e+00
        1  1    3    3  501    0 -1.6491503343e+02 -1.8704267252e+01 -9.1849639243e+02 9.3337154486e+02 0.0000000000e+00 0.0000e+00 1.0000e+00
       21  1    1    2  502  501 +7.7869354714e+00 +8.6708526653e-02 +1.3312661860e+01 1.5423062218e+01 0.0000000000e+00 0.0000e+00 -1.0000e+00
<mgrwt>
<rscale>  1 0.61013366E+03</rscale>
<asrwt>0</asrwt>
<pdfrwt beam="1">  1        1 0.39102606E+00 0.61013366E+03</pdfrwt>
<pdfrwt beam="2">0</pdfrwt>
<totfact> 0.14779066E+00</totfact>
</mgrwt>
</event>
<event>
 6      1 +5.6466785e-02 4.80218700e+02 7.81860800e-03 1.01907500e-01
        1 -1    0    0  502    0 +0.0000000000e+00 +0.0000000000e+00 +5.7652564770e+01 5.7652564770e+01 0.0000000000e+00 0.0000e+00 1.0000e+00
       13 -1    0    0    0    0 -0.0000000000e+00 -0.0000000000e+00 -1.0000000000e+03 1.0000000000e+03 0.0000000000e+00 0.0000e+00 1.0000e+00
  9000005  2    1    2  501    0 -1.9460775874e-05 +7.9214255777e-07 -9.4234748806e+02 1.0576525085e+03 4.8021874223e+02 0.0000e+00 0.0000e+00
       13  1    3    3    0    0 +1.1275411274e+02 +1.2379557543e+02 -8.5018318693e+02 8.6651617745e+02 0.0000000000e+00 0.0000e+00 1.0000e+00
        3  1    3    3  501    0 -1.1275413221e+02 -1.2379557464e+02 -9.2164301130e+01 1.9113633101e+02 0.0000000000e+00 0.0000e+00 1.0000e+00
       21  1    1    2  502  501 +1.9460775869e-05 -7.9214256021e-07 +5.2833829526e-05 5.6309526988e-05 0.0000000000e+00 0.0000e+00 -1.0000e+00
<mgrwt>
<rscale>  1 0.48021874E+03</rscale>
<asrwt>0</asrwt>
<pdfrwt beam="1">  1        1 0.20964613E+00 0.48021874E+03</pdfrwt>
<pdfrwt beam="2">0</pdfrwt>
<totfact> 0.93302270E+00</totfact>
</mgrwt>
</event>
<event>
 6      1 +5.6466785e-02 6.51666700e+02 7.81860800e-03 9.80365700e-02
        1 -1    0    0  502    0 +0.0000000000e+00 +0.0000000000e+00 +1.0637056643e+02 1.0637056643e+02 0.0000000000e+00 0.0000e+00 1.0000e+00
       13 -1    0    0    0    0 -0.0000000000e+00 -0.0000000000e+00 -1.0000000000e+03 1.0000000000e+03 0.0000000000e+00 0.0000e+00 1.0000e+00
  9000005  2    1    2  501    0 +3.1437819758e-02 +7.9825593011e-03 -8.9383118667e+02 1.1061662227e+03 6.5166672531e+02 0.0000e+00 0.0000e+00
       13  1    3    3    0    0 -1.1435515602e+02 -8.9019096735e+01 -9.4226168109e+02 9.5334074545e+02 0.0000000000e+00 0.0000e+00 1.0000e+00
        3  1    3    3  501    0 +1.1438659384e+02 +8.9027079294e+01 +4.8430494422e+01 1.5282547722e+02 0.0000000000e+00 0.0000e+00 1.0000e+00
       21  1    1    2  502  501 -3.1437819758e-02 -7.9825593011e-03 +2.0175309100e-01 2.0434374836e-01 0.0000000000e+00 0.0000e+00 -1.0000e+00
<mgrwt>
<rscale>  1 0.65166673E+03</rscale>
<asrwt>0</asrwt>
<pdfrwt beam="1">  1        1 0.38680288E+00 0.65166673E+03</pdfrwt>
<pdfrwt beam="2">0</pdfrwt>
<totfact> 0.15307360E+00</totfact>
</mgrwt>
</event>
<event>
 6      1 +5.6466785e-02 6.41186400e+02 7.81860800e-03 9.82345900e-02
        1 -1    0    0  502    0 +0.0000000000e+00 +0.0000000000e+00 +1.1629558696e+02 1.1629558696e+02 0.0000000000e+00 0.0000e+00 1.0000e+00
       13 -1    0    0    0    0 -0.0000000000e+00 -0.0000000000e+00 -1.0000000000e+03 1.0000000000e+03 0.0000000000e+00 0.0000e+00 1.0000e+00
  9000005  2    1    2  501    0 -1.1484647682e+01 -3.5624780384e+01 -8.5701435731e+02 1.0703240612e+03 6.4009293476e+02 0.0000e+00 0.0000e+00
       13  1    3    3    0    0 -3.1818267768e+02 -5.8507947572e+01 -3.4433894690e+02 4.7247508576e+02 0.0000000000e+00 0.0000e+00 1.0000e+00
        3  1    3    3  501    0 +3.0669803000e+02 +2.2883167188e+01 -5.1267541041e+02 5.9784897540e+02 0.0000000000e+00 0.0000e+00 1.0000e+00
       21  1    1    2  502  501 +1.1484647682e+01 +3.5624780384e+01 -2.6690055731e+01 4.5971525803e+01 0.0000000000e+00 0.0000e+00 -1.0000e+00
<mgrwt>
<rscale>  1 0.64118639E+03</rscale>
<asrwt>0</asrwt>
<pdfrwt beam="1">  1        1 0.42289394E+00 0.64118639E+03</pdfrwt>
<pdfrwt beam="2">0</pdfrwt>
<totfact> 0.10579325E+00</totfact>
</mgrwt>
</event>
<event>
 6      1 +5.6466785e-02 6.76266700e+02 7.81860800e-03 9.75870300e-02
        1 -1    0    0  502    0 +0.0000000000e+00 +0.0000000000e+00 +1.1447167561e+02 1.1447167561e+02 0.0000000000e+00 0.0000e+00 1.0000e+00
       13 -1    0    0    0    0 -0.0000000000e+00 -0.0000000000e+00 -1.0000000000e+03 1.0000000000e+03 0.0000000000e+00 0.0000e+00 1.0000e+00
  9000005  2    1    2  501    0 -6.0417079304e-03 +2.1406877553e-02 -8.8566483981e+02 1.1143333600e+03 6.7626668421e+02 0.0000e+00 0.0000e+00
       13  1    3    3    0    0 -7.2988200185e+00 +2.9246286621e+02 -7.2225090759e+02 7.7925231754e+02 0.0000000000e+00 0.0000e+00 1.0000e+00
        1  1    3    3  501    0 +7.2927783106e+00 -2.9244145933e+02 -1.6341393222e+02 3.3508104243e+02 0.0000000000e+00 0.0000e+00 1.0000e+00
       21  1    1    2  502  501 +6.0417079304e-03 -2.1406877553e-02 +1.3651542461e-01 1.3831564552e-01 0.0000000000e+00 0.0000e+00 -1.0000e+00
<mgrwt>
<rscale>  1 0.67626668E+03</rscale>
<asrwt>0</asrwt>
<pdfrwt beam="1">  1        1 0.41626152E+00 0.67626668E+03</pdfrwt>
<pdfrwt beam="2">0</pdfrwt>
<totfact> 0.11256318E+00</totfact>
</mgrwt>
</event>
<event>
 6      1 +5.6466785e-02 6.77244300e+02 7.81860800e-03 9.75695900e-02
        1 -1    0    0  502    0 +0.0000000000e+00 +0.0000000000e+00 +1.1666196712e+02 1.1666196712e+02 0.0000000000e+00 0.0000e+00 1.0000e+00
       13 -1    0    0    0    0 -0.0000000000e+00 -0.0000000000e+00 -1.0000000000e+03 1.0000000000e+03 0.0000000000e+00 0.0000e+00 1.0000e+00
  9000005  2    1    2  501    0 +5.6770050131e-03 +3.4848579872e-02 -8.8533488183e+02 1.1146648060e+03 6.7724425107e+02 0.0000e+00 0.0000e+00
       13  1    3    3    0    0 +3.2362641051e+02 +6.4625327288e+01 -3.1777735781e+02 4.5814073781e+02 0.0000000000e+00 0.0000e+00 1.0000e+00
        3  1    3    3  501    0 -3.2362073351e+02 -6.4590478708e+01 -5.6755752402e+02 6.5652406823e+02 0.0000000000e+00 0.0000e+00 1.0000e+00
       21  1    1    2  502  501 -5.6770050130e-03 -3.4848579872e-02 +1.9968489436e+00 1.9971610740e+00 0.0000000000e+00 0.0000e+00 1.0000e+00
<mgrwt>
<rscale>  1 0.67724425E+03</rscale>
<asrwt>0</asrwt>
<pdfrwt beam="1">  1        1 0.42422623E+00 0.67724425E+03</pdfrwt>
<pdfrwt beam="2">0</pdfrwt>
<totfact> 0.10359890E+00</totfact>
</mgrwt>
</event>
<event>
 6      1 +5.6466785e-02 6.71583700e+02 7.81860800e-03 9.76710100e-02
        1 -1    0    0  502    0 +0.0000000000e+00 +0.0000000000e+00 +1.1275722300e+02 1.1275722300e+02 0.0000000000e+00 0.0000e+00 1.0000e+00
       13 -1    0    0    0    0 -0.0000000000e+00 -0.0000000000e+00 -1.0000000000e+03 1.0000000000e+03 0.0000000000e+00 0.0000e+00 1.0000e+00
  9000005  2    1    2  501    0 +4.1689193779e-05 +3.3780419926e-04 -8.8724381683e+02 1.1127561289e+03 6.7158365963e+02 0.0000e+00 0.0000e+00
       13  1    3    3    0    0 -1.1894226295e+02 +2.5682941478e+02 -7.4300405737e+02 7.9508718986e+02 0.0000000000e+00 0.0000e+00 1.0000e+00
        1  1    3    3  501    0 +1.1894230464e+02 -2.5682907698e+02 -1.4423975945e+02 3.1766893902e+02 0.0000000000e+00 0.0000e+00 1.0000e+00
       21  1    1    2  502  501 -4.1689193780e-05 -3.3780419927e-04 +1.0398248636e-03 1.0941139853e-03 0.0000000000e+00 0.0000e+00 -1.0000e+00
<mgrwt>
<rscale>  1 0.67158366E+03</rscale>
<asrwt>0</asrwt>
<pdfrwt beam="1">  1        1 0.41002713E+00 0.67158366E+03</pdfrwt>
<pdfrwt beam="2">0</pdfrwt>
<totfact> 0.12017197E+00</totfact>
</mgrwt>
</event>
<event>
 6      1 +5.6466785e-02 6.58612600e+02 7.81860800e-03 9.79075100e-02
        1 -1    0    0  502    0 +0.0000000000e+00 +0.0000000000e+00 +1.0860063321e+02 1.0860063321e+02 0.0000000000e+00 0.0000e+00 1.0000e+00
       13 -1    0    0    0    0 -0.0000000000e+00 -0.0000000000e+00 -1.0000000000e+03 1.0000000000e+03 0.0000000000e+00 0.0000e+00 1.0000e+00
  9000005  2    1    2  501    0 -9.6134359879e-05 -2.3634387599e-03 -8.9155733712e+02 1.1084426452e+03 6.5861264203e+02 0.0000e+00 0.0000e+00
       13  1    3    3    0    0 +7.4857451419e+01 +3.1565299069e+02 -3.5055088594e+02 4.7762576585e+02 0.0000000000e+00 0.0000e+00 1.0000e+00
        1  1    3    3  501    0 -7.4857547553e+01 -3.1565535413e+02 -5.4100645118e+02 6.3081687932e+02 0.0000000000e+00 0.0000e+00 1.0000e+00
       21  1    1    2  502  501 +9.6134359875e-05 +2.3634387599e-03 +1.5797033623e-01 1.5798804453e-01 0.0000000000e+00 0.0000e+00 -1.0000e+00
<mgrwt>
<rscale>  1 0.65861264E+03</rscale>
<asrwt>0</asrwt>
<pdfrwt beam="1">  1        1 0.39491223E+00 0.65861264E+03</pdfrwt>
<pdfrwt beam="2">0</pdfrwt>
<totfact> 0.14072157E+00</totfact>
</mgrwt>
</event>
<event>
 6      1 +5.6466785e-02 6.48606900e+02 7.81860800e-03 9.80939700e-02
        1 -1    0    0  502    0 +0.0000000000e+00 +0.0000000000e+00 +1.0641195180e+02 1.0641195180e+02 0.0000000000e+00 0.0000e+00 1.0000e+00
       13 -1    0    0    0    0 -0.0000000000e+00 -0.0000000000e+00 -1.0000000000e+03 1.0000000000e+03 0.0000000000e+00 0.0000e+00 1.0000e+00
  9000005  2    1    2  501    0 -6.7536152070e-01 +1.9687695975e+00 -8.9377641139e+02 1.1043220600e+03 6.4860358197e+02 0.0000e+00 0.0000e+00
       13  1    3    3    0    0 -2.2780572380e+02 -2.2387636587e+02 -3.5509663698e+02 4.7760830875e+02 0.0000000000e+00 0.0000e+00 1.0000e+00
        1  1    3    3  501    0 +2.2713036228e+02 +2.2584513547e+02 -5.3867977441e+02 6.2671375128e+02 0.0000000000e+00 0.0000e+00 1.0000e+00
       21  1    1    2  502  501 +6.7536152070e-01 -1.9687695975e+00 +1.8836318914e-01 2.0898917682e+00 0.0000000000e+00 0.0000e+00 -1.0000e+00
<mgrwt>
<rscale>  1 0.64860692E+03</rscale>
<asrwt>0</asrwt>
<pdfrwt beam="1">  1        1 0.38695337E+00 0.64860692E+03</pdfrwt>
<pdfrwt beam="2">0</pdfrwt>
<totfact> 0.15292568E+00</totfact>
</mgrwt>
</event>
<event>
 6      1 +5.6466785e-02 6.40087400e+02 7.81860800e-03 9.82555900e-02
        1 -1    0    0  502    0 +0.0000000000e+00 +0.0000000000e+00 +1.0705217054e+02 1.0705217054e+02 0.0000000000e+00 0.0000e+00 1.0000e+00
       13 -1    0    0    0    0 -0.0000000000e+00 -0.0000000000e+00 -1.0000000000e+03 1.0000000000e+03 0.0000000000e+00 0.0000e+00 1.0000e+00
  9000005  2    1    2  501    0 -3.9810076705e+00 -1.8684261218e+00 -8.9639124158e+02 1.1014667856e+03 6.4007224770e+02 0.0000e+00 0.0000e+00
       13  1    3    3    0    0 -1.1863374676e+02 -1.1412498718e+02 +2.4739561288e+01 1.6646478445e+02 0.0000000000e+00 0.0000e+00 1.0000e+00
        3  1    3    3  501    0 +1.1465273909e+02 +1.1225656106e+02 -9.2113080287e+02 9.3500200111e+02 0.0000000000e+00 0.0000e+00 1.0000e+00
       21  1    1    2  502  501 +3.9810076705e+00 +1.8684261218e+00 +3.4434121207e+00 5.5853849713e+00 0.0000000000e+00 0.0000e+00 -1.0000e+00
<mgrwt>
<rscale>  1 0.64008735E+03</rscale>
<asrwt>0</asrwt>
<pdfrwt beam="1">  1        1 0.38928144E+00 0.64008735E+03</pdfrwt>
<pdfrwt beam="2">0</pdfrwt>
<totfact> 0.14957626E+00</totfact>
</mgrwt>
</event>
<event>
 6      1 +5.6466785e-02 6.36319800e+02 7.81860800e-03 9.83279300e-02
        1 -1    0    0  502    0 +0.0000000000e+00 +0.0000000000e+00 +1.0122612314e+02 1.0122612314e+02 0.0000000000e+00 0.0000e+00 1.0000e+00
       13 -1    0    0    0    0 -0.0000000000e+00 -0.0000000000e+00 -1.0000000000e+03 1.0000000000e+03 0.0000000000e+00 0.0000e+00 1.0000e+00
  9000005  2    1    2  501    0 +5.7181441630e-04 -2.0038272312e-04 -8.9877398233e+02 1.1012255081e+03 6.3631984757e+02 0.0000e+00 0.0000e+00
       13  1    3    3    0    0 -2.2095432086e+02 -1.0807306463e+02 -1.0014069784e+02 2.6557251095e+02 0.0000000000e+00 0.0000e+00 1.0000e+00
        1  1    3    3  501    0 +2.2095489268e+02 +1.0807286425e+02 -7.9863328449e+02 8.3565299717e+02 0.0000000000e+00 0.0000e+00 1.0000e+00
       21  1    1    2  502  501 -5.7181441631e-04 +2.0038272312e-04 +1.0546955817e-04 6.1501934126e-04 0.0000000000e+00 0.0000e+00 1.0000e+00
<mgrwt>
<rscale>  1 0.63631985E+03</rscale>
<asrwt>0</asrwt>
<pdfrwt beam="1">  1        1 0.36809577E+00 0.63631985E+03</pdfrwt>
<pdfrwt beam="2">0</pdfrwt>
<totfact> 0.18559542E+00</totfact>
</mgrwt>
</event>
<event>
 6      1 +5.6466785e-02 6.47023900e+02 7.81860800e-03 9.81238000e-02
        3 -1    0    0  502    0 +0.0000000000e+00 +0.0000000000e+00 +1.0467948988e+02 1.0467948988e+02 0.0000000000e+00 0.0000e+00 1.0000e+00
       13 -1    0    0    0    0 -0.0000000000e+00 -0.0000000000e+00 -1.0000000000e+03 1.0000000000e+03 0.0000000000e+00 0.0000e+00 1.0000e+00
  9000005  2    1    2  501    0 +7.4519189206e-03 +2.4183969139e-02 -8.9533053721e+02 1.1046522697e+03 6.4702385232e+02 0.0000e+00 0.0000e+00
       13  1    3    3    0    0 +3.1275819764e+00 +3.0141229329e+02 -6.4830019258e+02 7.1494915345e+02 0.0000000000e+00 0.0000e+00 1.0000e+00
        3  1    3    3  501    0 -3.1201300575e+00 -3.0138810932e+02 -2.4703034462e+02 3.8970311625e+02 0.0000000000e+00 0.0000e+00 1.0000e+00
       21  1    1    2  502  501 -7.4519189206e-03 -2.4183969139e-02 +1.0027081611e-02 2.7220173117e-02 0.0000000000e+00 0.0000e+00 -1.0000e+00
<mgrwt>
<rscale>  1 0.64702385E+03</rscale>
<asrwt>0</asrwt>
<pdfrwt beam="1">  1        3 0.38065349E+00 0.64702385E+03</pdfrwt>
<pdfrwt beam="2">0</pdfrwt>
<totfact> 0.74918572E-02</totfact>
</mgrwt>
</event>
<event>
 6      1 +5.6466785e-02 6.54989400e+02 7.81860800e-03 9.79746200e-02
        1 -1    0    0  502    0 +0.0000000000e+00 +0.0000000000e+00 +1.2856780066e+02 1.2856780066e+02 0.0000000000e+00 0.0000e+00 1.0000e+00
       13 -1    0    0    0    0 -0.0000000000e+00 -0.0000000000e+00 -1.0000000000e+03 1.0000000000e+03 0.0000000000e+00 0.0000e+00 1.0000e+00
  9000005  2    1    2  501    0 +4.1333020218e+01 +3.6602081491e+00 -8.6734024404e+02 1.0868717603e+03 6.5367370202e+02 0.0000e+00 0.0000e+00
       13  1    3    3    0    0 -3.9183994419e+00 -2.1940768626e+02 -3.2838495013e+01 2.2188612710e+02 0.0000000000e+00 0.0000e+00 1.0000e+00
        3  1    3    3  501    0 +4.5251419660e+01 +2.2306789441e+02 -8.3450174903e+02 8.6498563319e+02 0.0000000000e+00 0.0000e+00 1.0000e+00
       21  1    1    2  502  501 -4.1333020218e+01 -3.6602081491e+00 -4.0919552965e+00 4.1696040366e+01 0.0000000000e+00 0.0000e+00 -1.0000e+00
<mgrwt>
<rscale>  1 0.65498941E+03</rscale>
<asrwt>0</asrwt>
<pdfrwt beam="1">  1        1 0.46752026E+00 0.65498941E+03</pdfrwt>
<pdfrwt beam="2">0</pdfrwt>
<totfact> 0.65823762E-01</totfact>
</mgrwt>
</event>
<event>
 6      1 +5.6466785e-02 6.50982800e+02 7.81860800e-03 9.80493700e-02
        1 -1    0    0  502    0 +0.0000000000e+00 +0.0000000000e+00 +1.1196573758e+02 1.1196573758e+02 0.0000000000e+00 0.0000e+00 1.0000e+00
       13 -1    0    0    0    0 -0.0000000000e+00 -0.0000000000e+00 -1.0000000000e+03 1.0000000000e+03 0.0000000000e+00 0.0000e+00 1.0000e+00
  9000005  2    1    2  501    0 +7.4064810931e-02 -3.9576511437e-01 -8.9404791676e+02 1.1059386193e+03 6.5098263432e+02 0.0000e+00 0.0000e+00
       13  1    3    3    0    0 +2.8233523334e+01 -2.7657168421e+02 -1.5911509045e+02 3.2032271283e+02 0.0000000000e+00 0.0000e+00 1.0000e+00
        1  1    3    3  501    0 -2.8159458523e+01 +2.7617591909e+02 -7.3493282631e+02 7.8561590652e+02 0.0000000000e+00 0.0000e+00 1.0000e+00
       21  1    1    2  502  501 -7.4064810931e-02 +3.9576511437e-01 +6.0136543376e+00 6.0271182264e+00 0.0000000000e+00 0.0000e+00 -1.0000e+00
<mgrwt>
<rscale>  1 0.65098276E+03</rscale>
<asrwt>0</asrwt>
<pdfrwt beam="1">  1        1 0.40714900E+00 0.65098276E+03</pdfrwt>
<pdfrwt beam="2">0</pdfrwt>
<totfact> 0.12428090E+00</totfact>
</mgrwt>
</event>
<event>
 6      1 +5.6466785e-02 6.24474900e+02 7.81860800e-03 9.85589000e-02
        1 -1    0    0  502    0 +0.0000000000e+00 +0.0000000000e+00 +9.7871687324e+01 9.7871687324e+01 0.0000000000e+00 0.0000e+00 1.0000e+00
       13 -1    0    0    0    0 -0.0000000000e+00 -0.0000000000e+00 -1.0000000000e+03 1.0000000000e+03 0.0000000000e+00 0.0000e+00 1.0000e+00
  9000005  2    1    2  501    0 +3.8108633755e-02 -5.9173748963e-03 -9.0250668552e+02 1.0974913542e+03 6.2447494236e+02 0.0000e+00 0.0000e+00
       13  1    3    3    0    0 +1.7705872692e+02 -4.4181701532e+01 -5.9775373136e+00 1.8258572365e+02 0.0000000000e+00 0.0000e+00 1.0000e+00
        3  1    3    3  501    0 -1.7702061829e+02 +4.4175784158e+01 -8.9652914821e+02 9.1490563054e+02 0.0000000000e+00 0.0000e+00 1.0000e+00
       21  1    1    2  502  501 -3.8108633755e-02 +5.9173748963e-03 +3.7837284295e-01 3.8033313237e-01 0.0000000000e+00 0.0000e+00 -1.0000e+00
<mgrwt>
<rscale>  1 0.62447494E+03</rscale>
<asrwt>0</asrwt>
<pdfrwt beam="1">  1        1 0.35589780E+00 0.62447494E+03</pdfrwt>
<pdfrwt beam="2">0</pdfrwt>
<totfact> 0.21032386E+00</totfact>
</mgrwt>
</event>
<event>
 6      1 +5.6466785e-02 6.33913700e+02 7.81860800e-03 9.83744100e-02
        1 -1    0    0  502    0 +0.0000000000e+00 +0.0000000000e+00 +1.0046195596e+02 1.0046195596e+02 0.0000000000e+00 0.0000e+00 1.0000e+00
       13 -1    0    0    0    0 -0.0000000000e+00 -0.0000000000e+00 -1.0000000000e+03 1.0000000000e+03 0.0000000000e+00 0.0000e+00 1.0000e+00
  9000005  2    1    2  501    0 -2.5800925568e-04 +1.9218888610e-05 -8.9953829704e+02 1.1004615941e+03 6.3391369462e+02 0.0000e+00 0.0000e+00
       13  1    3    3    0    0 +5.8764429479e+01 -3.0119169503e+02 -5.8746994059e+02 6.6279003193e+02 0.0000000000e+00 0.0000e+00 1.0000e+00
        1  1    3    3  501    0 -5.8764687489e+01 +3.0119171425e+02 -3.1206835646e+02 4.3767156217e+02 0.0000000000e+00 0.0000e+00 1.0000e+00
       21  1    1    2  502  501 +2.5800925569e-04 -1.9218888663e-05 +2.5300537277e-04 3.6186994950e-04 0.0000000000e+00 0.0000e+00 1.0000e+00
<mgrwt>
<rscale>  1 0.63391369E+03</rscale>
<asrwt>0</asrwt>
<pdfrwt beam="1">  1        1 0.36531697E+00 0.63391369E+03</pdfrwt>
<pdfrwt beam="2">0</pdfrwt>
<totfact> 0.19096051E+00</totfact>
</mgrwt>
</event>
<event>
 6      1 +5.6466785e-02 6.55927000e+02 7.81860800e-03 9.79572100e-02
        3 -1    0    0  502    0 +0.0000000000e+00 +0.0000000000e+00 +1.0756405807e+02 1.0756405807e+02 0.0000000000e+00 0.0000e+00 1.0000e+00
       13 -1    0    0    0    0 -0.0000000000e+00 -0.0000000000e+00 -1.0000000000e+03 1.0000000000e+03 0.0000000000e+00 0.0000e+00 1.0000e+00
  9000005  2    1    2  501    0 -4.3455367942e-03 -1.1078950414e-02 -8.9242415488e+02 1.1075473081e+03 6.5592695274e+02 0.0000e+00 0.0000e+00
       13  1    3    3    0    0 +5.2616249665e+01 +3.2075986047e+02 -3.7258578731e+02 4.9444466497e+02 0.0000000000e+00 0.0000e+00 1.0000e+00
        3  1    3    3  501    0 -5.2620595202e+01 -3.2077093942e+02 -5.1983836757e+02 6.1310264313e+02 0.0000000000e+00 0.0000e+00 1.0000e+00
       21  1    1    2  502  501 +4.3455367942e-03 +1.1078950414e-02 -1.1787051462e-02 1.6749967596e-02 0.0000000000e+00 0.0000e+00 1.0000e+00
<mgrwt>
<rscale>  1 0.65592695E+03</rscale>
<asrwt>0</asrwt>
<pdfrwt beam="1">  1        3 0.39114285E+00 0.65592695E+03</pdfrwt>
<pdfrwt beam="2">0</pdfrwt>
<totfact> 0.65866474E-02</totfact>
</mgrwt>
</event>
<event>
 6      1 +5.6466785e-02 6.37389300e+02 7.81860800e-03 9.83073400e-02
        1 -1    0    0  502    0 +0.0000000000e+00 +0.0000000000e+00 +1.3423995769e+02 1.3423995769e+02 0.0000000000e+00 0.0000e+00 1.0000e+00
       13 -1    0    0    0    0 -0.0000000000e+00 -0.0000000000e+00 -1.0000000000e+03 1.0000000000e+03 0.0000000000e+00 0.0000e+00 1.0000e+00
  9000005  2    1    2  501    0 +1.3948139102e-01 +8.7931150245e-01 -8.9842703642e+02 1.1015608336e+03 6.3738868660e+02 0.0000e+00 0.0000e+00
       13  1    3    3    0    0 +1.9770291564e+02 -8.5922516527e+01 -4.3618910212e+01 2.1993574295e+02 0.0000000000e+00 0.0000e+00 1.0000e+00
        1  1    3    3  501    0 -1.9756343425e+02 +8.6801828030e+01 -8.5480812621e+02 8.8162509069e+02 0.0000000000e+00 0.0000e+00 1.0000e+00
       21  1    1    2  502  501 -1.3948139102e-01 -8.7931150245e-01 +3.2666994111e+01 3.2679124040e+01 0.0000000000e+00 0.0000e+00 -1.0000e+00
<mgrwt>
<rscale>  1 0.63738931E+03</rscale>
<asrwt>0</asrwt>
<pdfrwt beam="1">  1        1 0.48814633E+00 0.63738931E+03</pdfrwt>
<pdfrwt beam="2">0</pdfrwt>
<totfact> 0.52832147E-01</totfact>
</mgrwt>
</event>
<event>
 6      1 +5.6466785e-02 6.62577500e+02 7.81860800e-03 9.78346000e-02
        1 -1    0    0  502    0 +0.0000000000e+00 +0.0000000000e+00 +1.0977870997e+02 1.0977870997e+02 0.0000000000e+00 0.0000e+00 1.0000e+00
       13 -1    0    0    0    0 -0.0000000000e+00 -0.0000000000e+00 -1.0000000000e+03 1.0000000000e+03 0.0000000000e+00 0.0000e+00 1.0000e+00
  9000005  2    1    2  501    0 +1.7005194036e-03 -8.6061658479e-04 -8.9024771427e+02 1.1097522171e+03 6.6257753551e+02 0.0000e+00 0.0000e+00
       13  1    3    3    0    0 -1.0440271545e+02 +6.9234493307e+01 +6.8551975895e+01 1.4280306529e+02 0.0000000000e+00 0.0000e+00 1.0000e+00
        3  1    3    3  501    0 +1.0440441597e+02 -6.9235353924e+01 -9.5879969017e+02 9.6694915180e+02 0.0000000000e+00 0.0000e+00 1.0000e+00
       21  1    1    2  502  501 -1.7005194036e-03 +8.6061658479e-04 +2.6424242141e-02 2.6492885835e-02 0.0000000000e+00 0.0000e+00 -1.0000e+00
<mgrwt>
<rscale>  1 0.66257754E+03</rscale>
<asrwt>0</asrwt>
<pdfrwt beam="1">  1        1 0.39919615E+00 0.66257754E+03</pdfrwt>
<pdfrwt beam="2">0</pdfrwt>
<totfact> 0.13457606E+00</totfact>
</mgrwt>
</event>
<event>
 6      1 +5.6466785e-02 6.49789300e+02 7.81860800e-03 9.80717500e-02
        1 -1    0    0  502    0 +0.0000000000e+00 +0.0000000000e+00 +1.0801503595e+02 1.0801503595e+02 0.0000000000e+00 0.0000e+00 1.0000e+00
       13 -1    0    0    0    0 -0.0000000000e+00 -0.0000000000e+00 -1.0000000000e+03 1.0000000000e+03 0.0000000000e+00 0.0000e+00 1.0000e+00
  9000005  2    1    2  501    0 +3.3291631863e-02 +2.4203512652e-02 -8.9444326348e+02 1.1055563920e+03 6.4978933704e+02 0.0000e+00 0.0000e+00
       13  1    3    3    0    0 -8.8791057207e+01 -2.3103005884e+02 -8.9142110839e+01 2.6306853832e+02 0.0000000000e+00 0.0000e+00 1.0000e+00
        3  1    3    3  501    0 +8.8824348839e+01 +2.3105426235e+02 -8.0530115264e+02 8.4248785365e+02 0.0000000000e+00 0.0000e+00 1.0000e+00
       21  1    1    2  502  501 -3.3291631863e-02 -2.4203512652e-02 +2.4582994361e+00 2.4586439881e+00 0.0000000000e+00 0.0000e+00 1.0000e+00
<mgrwt>
<rscale>  1 0.64978934E+03</rscale>
<asrwt>0</asrwt>
<pdfrwt beam="1">  1        1 0.39278278E+00 0.64978934E+03</pdfrwt>
<pdfrwt beam="2">0</pdfrwt>
<totfact> 0.14405858E+00</totfact>
</mgrwt>
</event>
<event>
 6      1 +5.6466785e-02 6.52934500e+02 7.81860800e-03 9.80128800e-02
        1 -1    0    0  502    0 +0.0000000000e+00 +0.0000000000e+00 +1.0658131313e+02 1.0658131313e+02 0.0000000000e+00 0.0000e+00 1.0000e+00
       13 -1    0    0    0    0 -0.0000000000e+00 -0.0000000000e+00 -1.0000000000e+03 1.0000000000e+03 0.0000000000e+00 0.0000e+00 1.0000e+00
  9000005  2    1    2  501    0 +7.8277394454e-04 +3.4138222992e-04 -8.9341864484e+02 1.1065804581e+03 6.5293448014e+02 0.0000e+00 0.0000e+00
       13  1    3    3    0    0 +1.4655968160e+02 +2.8574636153e+02 -3.4715895107e+02 4.7291654729e+02 0.0000000000e+00 0.0000e+00 1.0000e+00
        1  1    3    3  501    0 -1.4655889882e+02 -2.8574602014e+02 -5.4625969377e+02 6.3366391083e+02 0.0000000000e+00 0.0000e+00 1.0000e+00
       21  1    1    2  502  501 -7.8277394454e-04 -3.4138222995e-04 -4.2026797259e-05 8.5501060044e-04 0.0000000000e+00 0.0000e+00 1.0000e+00
<mgrwt>
<rscale>  1 0.65293448E+03</rscale>
<asrwt>0</asrwt>
<pdfrwt beam="1">  1        1 0.38756923E+00 0.65293448E+03</pdfrwt>
<pdfrwt beam="2">0</pdfrwt>
<totfact> 0.15184653E+00</totfact>
</mgrwt>
</event>
<event>
 6      1 +5.6466785e-02 6.56243000e+02 7.81860800e-03 9.79513500e-02
        1 -1    0    0  502    0 +0.0000000000e+00 +0.0000000000e+00 +1.0766373936e+02 1.0766373936e+02 0.0000000000e+00 0.0000e+00 1.0000e+00
       13 -1    0    0    0    0 -0.0000000000e+00 -0.0000000000e+00 -1.0000000000e+03 1.0000000000e+03 0.0000000000e+00 0.0000e+00 1.0000e+00
  9000005  2    1    2  501    0 +3.3485476507e-06 +3.1750764151e-06 -8.9233627392e+02 1.1076637253e+03 6.5624302098e+02 0.0000e+00 0.0000e+00
       13  1    3    3    0    0 +8.1943375206e+01 -2.5212654538e+02 -1.1982841832e+02 2.9093188458e+02 0.0000000000e+00 0.0000e+00 1.0000e+00
        3  1    3    3  501    0 -8.1943371858e+01 +2.5212654856e+02 -7.7250785560e+02 8.1673184072e+02 0.0000000000e+00 0.0000e+00 1.0000e+00
       21  1    1    2  502  501 -3.3485476459e-06 -3.1750764007e-06 +1.3278253871e-05 1.4057236832e-05 0.0000000000e+00 0.0000e+00 -1.0000e+00
<mgrwt>
<rscale>  1 0.65624302E+03</rscale>
<asrwt>0</asrwt>
<pdfrwt beam="1">  1        1 0.39150533E+00 0.65624302E+03</pdfrwt>
<pdfrwt beam="2">0</pdfrwt>
<totfact> 0.14577632E+00</totfact>
</mgrwt>
</event>
<event>
 6      1 +5.6466785e-02 6.07673800e+02 7.81860800e-03 9.88961200e-02
        1 -1    0    0  502    0 +0.0000000000e+00 +0.0000000000e+00 +9.2317175773e+01 9.2317175773e+01 0.0000000000e+00 0.0000e+00 1.0000e+00
       13 -1    0    0    0    0 -0.0000000000e+00 -0.0000000000e+00 -1.0000000000e+03 1.0000000000e+03 0.0000000000e+00 0.0000e+00 1.0000e+00
  9000005  2    1    2  501    0 +1.2564011368e-05 -2.1411790641e-05 -9.0768313623e+02 1.0923168628e+03 6.0767380470e+02 0.0000e+00 0.0000e+00
       13  1    3    3    0    0 -7.7854365861e-01 -1.9797500585e+02 -3.9540580985e+01 2.0188651916e+02 0.0000000000e+00 0.0000e+00 1.0000e+00
        1  1    3    3  501    0 +7.7855622262e-01 +1.9797498444e+02 -8.6814255525e+02 8.9043034362e+02 0.0000000000e+00 0.0000e+00 1.0000e+00
       21  1    1    2  502  501 -1.2564011368e-05 +2.1411790640e-05 +3.1200569837e-04 3.1299181295e-04 0.0000000000e+00 0.0000e+00 1.0000e+00
<mgrwt>
<rscale>  1 0.60767380E+03</rscale>
<asrwt>0</asrwt>
<pdfrwt beam="1">  1        1 0.33569953E+00 0.60767380E+03</pdfrwt>
<pdfrwt beam="2">0</pdfrwt>
<totfact> 0.25827498E+00</totfact>
</mgrwt>
</event>
<event>
 6      1 +5.6466785e-02 6.73869800e+02 7.81860800e-03 9.76299200e-02
        1 -1    0    0  502    0 +0.0000000000e+00 +0.0000000000e+00 +1.1355390200e+02 1.1355390200e+02 0.0000000000e+00 0.0000e+00 1.0000e+00
       13 -1    0    0    0    0 -0.0000000000e+00 -0.0000000000e+00 -1.0000000000e+03 1.0000000000e+03 0.0000000000e+00 0.0000e+00 1.0000e+00
  9000005  2    1    2  501    0 +3.4647239154e-02 +3.6427562719e-02 -8.8644779693e+02 1.1135036001e+03 6.7386984512e+02 0.0000e+00 0.0000e+00
       13  1    3    3    0    0 -2.6888668984e+01 +3.3563351606e+02 -4.6437981564e+02 5.7360393199e+02 0.0000000000e+00 0.0000e+00 1.0000e+00
        1  1    3    3  501    0 +2.6923316223e+01 -3.3559708849e+02 -4.2206798129e+02 5.3989966808e+02 0.0000000000e+00 0.0000e+00 1.0000e+00
       21  1    1    2  502  501 -3.4647239154e-02 -3.6427562719e-02 +1.6989332000e-03 5.0301937146e-02 0.0000000000e+00 0.0000e+00 1.0000e+00
<mgrwt>
<rscale>  1 0.67386985E+03</rscale>
<asrwt>0</asrwt>
<pdfrwt beam="1">  1        1 0.41292415E+00 0.67386985E+03</pdfrwt>
<pdfrwt beam="2">0</pdfrwt>
<totfact> 0.11657567E+00</totfact>
</mgrwt>
</event>
<event>
 6      1 +5.6466785e-02 6.59847200e+02 7.81860800e-03 9.78847500e-02
        1 -1    0    0  502    0 +0.0000000000e+00 +0.0000000000e+00 +1.0885404679e+02 1.0885404679e+02 0.0000000000e+00 0.0000e+00 1.0000e+00
       13 -1    0    0    0    0 -0.0000000000e+00 -0.0000000000e+00 -1.0000000000e+03 1.0000000000e+03 0.0000000000e+00 0.0000e+00 1.0000e+00
  9000005  2    1    2  501    0 +8.5081517511e-05 -5.9717028535e-05 -8.9115041376e+02 1.1088495850e+03 6.5984721130e+02 0.0000e+00 0.0000e+00
       13  1    3    3    0    0 -1.7178303885e+02 +2.0212175628e+02 -7.7525010747e+02 8.1937497272e+02 0.0000000000e+00 0.0000e+00 1.0000e+00
        3  1    3    3  501    0 +1.7178312393e+02 -2.0212181600e+02 -1.1590030630e+02 2.8947461230e+02 0.0000000000e+00 0.0000e+00 1.0000e+00
       21  1    1    2  502  501 -8.5081517506e-05 +5.9717028562e-05 +4.4605533522e-03 4.4617643591e-03 0.0000000000e+00 0.0000e+00 -1.0000e+00
<mgrwt>
<rscale>  1 0.65984721E+03</rscale>
<asrwt>0</asrwt>
<pdfrwt beam="1">  1        1 0.39583373E+00 0.65984721E+03</pdfrwt>
<pdfrwt beam="2">0</pdfrwt>
<totfact> 0.13936772E+00</totfact>
</mgrwt>
</event>
<event>
 6      1 +5.6466785e-02 6.50233800e+02 7.81860800e-03 9.80634100e-02
        1 -1    0    0  502    0 +0.0000000000e+00 +0.0000000000e+00 +1.0570105155e+02 1.0570105155e+02 0.0000000000e+00 0.0000e+00 1.0000e+00
       13 -1    0    0    0    0 -0.0000000000e+00 -0.0000000000e+00 -1.0000000000e+03 1.0000000000e+03 0.0000000000e+00 0.0000e+00 1.0000e+00
  9000005  2    1    2  501    0 -4.6344880587e-05 +1.2332822789e-04 -8.9429889195e+02 1.1057009082e+03 6.5023379661e+02 0.0000e+00 0.0000e+00
       13  1    3    3    0    0 +1.9353635027e+02 +2.3372945075e+02 -2.4873160279e+02 3.9236868536e+02 0.0000000000e+00 0.0000e+00 1.0000e+00
        1  1    3    3  501    0 -1.9353639661e+02 -2.3372932742e+02 -6.4556728916e+02 7.1333222284e+02 0.0000000000e+00 0.0000e+00 1.0000e+00
       21  1    1    2  502  501 +4.6344880572e-05 -1.2332822790e-04 -5.6499142959e-05 1.4335219882e-04 0.0000000000e+00 0.0000e+00 1.0000e+00
<mgrwt>
<rscale>  1 0.65023380E+03</rscale>
<asrwt>0</asrwt>
<pdfrwt beam="1">  1        1 0.38436827E+00 0.65023380E+03</pdfrwt>
<pdfrwt beam="2">0</pdfrwt>
<totfact> 0.15695940E+00</totfact>
</mgrwt>
</event>
<event>
 6      1 +5.6466785e-02 6.53632100e+02 7.81860800e-03 9.79998800e-02
        1 -1    0    0  502    0 +0.0000000000e+00 +0.0000000000e+00 +1.1146274422e+02 1.1146274422e+02 0.0000000000e+00 0.0000e+00 1.0000e+00
       13 -1    0    0    0    0 -0.0000000000e+00 -0.0000000000e+00 -1.0000000000e+03 1.0000000000e+03 0.0000000000e+00 0.0000e+00 1.0000e+00
  9000005  2    1    2  501    0 -1.2155645333e-01 -1.2580197745e-02 -8.9319038405e+02 1.1068080115e+03 6.5363208088e+02 0.0000e+00 0.0000e+00
       13  1    3    3    0    0 -5.9281964354e+01 +2.8946961539e+02 -6.8309382150e+02 7.4426082693e+02 0.0000000000e+00 0.0000e+00 1.0000e+00
        1  1    3    3  501    0 +5.9160407900e+01 -2.8948219558e+02 -2.1009656256e+02 3.6254718454e+02 0.0000000000e+00 0.0000e+00 1.0000e+00
       21  1    1    2  502  501 +1.2155645333e-01 +1.2580197745e-02 +4.6531282763e+00 4.6547327515e+00 0.0000000000e+00 0.0000e+00 -1.0000e+00
<mgrwt>
<rscale>  1 0.65363209E+03</rscale>
<asrwt>0</asrwt>
<pdfrwt beam="1">  1        1 0.40531992E+00 0.65363209E+03</pdfrwt>
<pdfrwt beam="2">0</pdfrwt>
<totfact> 0.12658002E+00</totfact>
</mgrwt>
</event>
<event>
 6      1 +5.6466785e-02 6.40422800e+02 7.81860800e-03 9.82491800e-02
        1 -1    0    0  502    0 +0.0000000000e+00 +0.0000000000e+00 +1.0850796000e+02 1.0850796000e+02 0.0000000000e+00 0.0000e+00 1.0000e+00
       13 -1    0    0    0    0 -0.0000000000e+00 -0.0000000000e+00 -1.0000000000e+03 1.0000000000e+03 0.0000000000e+00 0.0000e+00 1.0000e+00
  9000005  2    1    2  501    0 -1.7809823002e+00 +7.3692729542e-01 -8.9729276869e+02 1.1023953981e+03 6.4041985137e+02 0.0000e+00 0.0000e+00
       13  1    3    3    0    0 -2.2482174224e+02 -1.7413637615e+02 -1.9428257326e+02 3.4440384951e+02 0.0000000000e+00 0.0000e+00 1.0000e+00
        3  1    3    3  501    0 +2.2304075994e+02 +1.7487330344e+02 -7.0301019542e+02 7.5799154858e+02 0.0000000000e+00 0.0000e+00 1.0000e+00
       21  1    1    2  502  501 +1.7809823002e+00 -7.3692729542e-01 +5.8007286870e+00 6.1125619091e+00 0.0000000000e+00 0.0000e+00 1.0000e+00
<mgrwt>
<rscale>  1 0.64042275E+03</rscale>
<asrwt>0</asrwt>
<pdfrwt beam="1">  1        1 0.39457523E+00 0.64042275E+03</pdfrwt>
<pdfrwt beam="2">0</pdfrwt>
<totfact> 0.14169275E+00</totfact>
</mgrwt>
</event>
<event>
 6      1 +5.6466785e-02 6.43047600e+02 7.81860800e-03 9.81991300e-02
        3 -1    0    0  502    0 +0.0000000000e+00 +0.0000000000e+00 +1.0337837448e+02 1.0337837448e+02 0.0000000000e+00 0.0000e+00 1.0000e+00
       13 -1    0    0    0    0 -0.0000000000e+00 -0.0000000000e+00 -1.0000000000e+03 1.0000000000e+03 0.0000000000e+00 0.0000e+00 1.0000e+00
  9000005  2    1    2  501    0 +4.2156918823e-04 -2.1326174652e-04 -8.9662237703e+02 1.1033774868e+03 6.4304758098e+02 0.0000e+00 0.0000e+00
       13  1    3    3    0    0 -2.2909119555e+02 -1.0324837812e+02 -1.0413536909e+02 2.7200584288e+02 0.0000000000e+00 0.0000e+00 1.0000e+00
        3  1    3    3  501    0 +2.2909161712e+02 +1.0324816486e+02 -7.9248700794e+02 8.3137164393e+02 0.0000000000e+00 0.0000e+00 1.0000e+00
       21  1    1    2  502  501 -4.2156918823e-04 +2.1326174652e-04 +7.5150819608e-04 8.8767433317e-04 0.0000000000e+00 0.0000e+00 1.0000e+00
<mgrwt>
<rscale>  1 0.64304758E+03</rscale>
<asrwt>0</asrwt>
<pdfrwt beam="1">  1        3 0.37592215E+00 0.64304758E+03</pdfrwt>
<pdfrwt beam="2">0</pdfrwt>
<totfact> 0.79410948E-02</totfact>
</mgrwt>
</event>
<event>
 6      1 +5.6466785e-02 6.46662900e+02 7.81860800e-03 9.81306100e-02
        1 -1    0    0  502    0 +0.0000000000e+00 +0.0000000000e+00 +1.0454323038e+02 1.0454323038e+02 0.0000000000e+00 0.0000e+00 1.0000e+00
       13 -1    0    0    0    0 -0.0000000000e+00 -0.0000000000e+00 -1.0000000000e+03 1.0000000000e+03 0.0000000000e+00 0.0000e+00 1.0000e+00
  9000005  2    1    2  501    0 -2.0209170160e-06 -2.5142210234e-06 -8.9545677273e+02 1.1045432259e+03 6.4666289985e+02 0.0000e+00 0.0000e+00
       13  1    3    3    0    0 +6.3864343642e+01 -3.1574671207e+02 -4.9508178889e+02 5.9066117044e+02 0.0000000000e+00 0.0000e+00 1.0000e+00
        3  1    3    3  501    0 -6.3864345662e+01 +3.1574670955e+02 -4.0037498384e+02 5.1388205546e+02 0.0000000000e+00 0.0000e+00 1.0000e+00
       21  1    1    2  502  501 +2.0209170179e-06 +2.5142210627e-06 +3.1158463862e-06 4.4848536038e-06 0.0000000000e+00 0.0000e+00 -1.0000e+00
<mgrwt>
<rscale>  1 0.64666290E+03</rscale>
<asrwt>0</asrwt>
<pdfrwt beam="1">  1        1 0.38015800E+00 0.64666290E+03</pdfrwt>
<pdfrwt beam="2">0</pdfrwt>
<totfact> 0.16393454E+00</totfact>
</mgrwt>
</event>
<event>
 6      1 +5.6466785e-02 6.39383500e+02 7.81860800e-03 9.82690700e-02
        1 -1    0    0  502    0 +0.0000000000e+00 +0.0000000000e+00 +1.0223385049e+02 1.0223385049e+02 0.0000000000e+00 0.0000e+00 1.0000e+00
       13 -1    0    0    0    0 -0.0000000000e+00 -0.0000000000e+00 -1.0000000000e+03 1.0000000000e+03 0.0000000000e+00 0.0000e+00 1.0000e+00
  9000005  2    1    2  501    0 -1.7588313126e-03 -5.2087445951e-02 -8.9777102267e+02 1.1021815060e+03 6.3938350022e+02 0.0000e+00 0.0000e+00
       13  1    3    3    0    0 -2.3295571994e+02 -2.1683580257e+02 -5.0143499745e+02 5.9390503398e+02 0.0000000000e+00 0.0000e+00 1.0000e+00
        3  1    3    3  501    0 +2.3295396111e+02 +2.1678371513e+02 -3.9633602522e+02 5.0827647204e+02 0.0000000000e+00 0.0000e+00 1.0000e+00
       21  1    1    2  502  501 +1.7588313126e-03 +5.2087445951e-02 +4.8731618335e-03 5.2344466943e-02 0.0000000000e+00 0.0000e+00 1.0000e+00
<mgrwt>
<rscale>  1 0.63938350E+03</rscale>
<asrwt>0</asrwt>
<pdfrwt beam="1">  1        1 0.37176024E+00 0.63938350E+03</pdfrwt>
<pdfrwt beam="2">0</pdfrwt>
<totfact> 0.17874406E+00</totfact>
</mgrwt>
</event>
<event>
 6      1 +5.6466785e-02 6.10070300e+02 7.81860800e-03 9.88473100e-02
        1 -1    0    0  502    0 +0.0000000000e+00 +0.0000000000e+00 +9.3412671989e+01 9.3412671989e+01 0.0000000000e+00 0.0000e+00 1.0000e+00
       13 -1    0    0    0    0 -0.0000000000e+00 -0.0000000000e+00 -1.0000000000e+03 1.0000000000e+03 0.0000000000e+00 0.0000e+00 1.0000e+00
  9000005  2    1    2  501    0 +1.6357903239e-02 -2.1230704702e-01 -9.0691944723e+02 1.0930181532e+03 6.1007028630e+02 0.0000e+00 0.0000e+00
       13  1    3    3    0    0 +2.2721193871e+02 +9.1936899193e+01 -1.2818806270e+02 2.7660411773e+02 0.0000000000e+00 0.0000e+00 1.0000e+00
        3  1    3    3  501    0 -2.2719558080e+02 -9.2149206240e+01 -7.7873138453e+02 8.1641403552e+02 0.0000000000e+00 0.0000e+00 1.0000e+00
       21  1    1    2  502  501 -1.6357903239e-02 +2.1230704702e-01 +3.3211921819e-01 3.9451874266e-01 0.0000000000e+00 0.0000e+00 1.0000e+00
<mgrwt>
<rscale>  1 0.61007032E+03</rscale>
<asrwt>0</asrwt>
<pdfrwt beam="1">  1        1 0.33968316E+00 0.61007032E+03</pdfrwt>
<pdfrwt beam="2">0</pdfrwt>
<totfact> 0.24808872E+00</totfact>
</mgrwt>
</event>
<event>
 6      1 +5.6466785e-02 6.26423800e+02 7.81860800e-03 9.85205200e-02
        1 -1    0    0  502    0 +0.0000000000e+00 +0.0000000000e+00 +9.8242890305e+01 9.8242890305e+01 0.0000000000e+00 0.0000e+00 1.0000e+00
       13 -1    0    0    0    0 -0.0000000000e+00 -0.0000000000e+00 -1.0000000000e+03 1.0000000000e+03 0.0000000000e+00 0.0000e+00 1.0000e+00
  9000005  2    1    2  501    0 +2.0003203284e-02 -6.7829237435e-03 -9.0189743238e+02 1.0981009868e+03 6.2642381686e+02 0.0000e+00 0.0000e+00
       13  1    3    3    0    0 -1.5463123515e+02 -2.3629155122e+02 -6.8844299314e+02 7.4410904501e+02 0.0000000000e+00 0.0000e+00 1.0000e+00
        3  1    3    3  501    0 +1.5465123835e+02 +2.3628476829e+02 -2.1345443924e+02 3.5399194184e+02 0.0000000000e+00 0.0000e+00 1.0000e+00
       21  1    1    2  502  501 -2.0003203284e-02 +6.7829237436e-03 +1.4032268577e-01 1.4190346133e-01 0.0000000000e+00 0.0000e+00 1.0000e+00
<mgrwt>
<rscale>  1 0.62642382E+03</rscale>
<asrwt>0</asrwt>
<pdfrwt beam="1">  1        1 0.35724763E+00 0.62642382E+03</pdfrwt>
<pdfrwt beam="2">0</pdfrwt>
<totfact> 0.20741518E+00</totfact>
</mgrwt>
</event>
<event>
 6      1 +5.6466785e-02 6.49811000e+02 7.81860800e-03 9.80713400e-02
        1 -1    0    0  502    0 +0.0000000000e+00 +0.0000000000e+00 +1.0748471737e+02 1.0748471737e+02 0.0000000000e+00 0.0000e+00 1.0000e+00
       13 -1    0    0    0    0 -0.0000000000e+00 -0.0000000000e+00 -1.0000000000e+03 1.0000000000e+03 0.0000000000e+00 0.0000e+00 1.0000e+00
  9000005  2    1    2  501    0 -1.7952510984e-01 -2.6854165384e-01 -8.9442138249e+02 1.1055514402e+03 6.4981095185e+02 0.0000e+00 0.0000e+00
       13  1    3    3    0    0 +1.9627446917e+02 +2.4459718278e+01 -8.8552677793e+02 9.0734757370e+02 0.0000000000e+00 0.0000e+00 1.0000e+00
        1  1    3    3  501    0 -1.9645399428e+02 -2.4728259932e+01 -8.8946045637e+00 1.9820386651e+02 0.0000000000e+00 0.0000e+00 1.0000e+00
       21  1    1    2  502  501 +1.7952510984e-01 +2.6854165384e-01 +1.9060998662e+00 1.9332771619e+00 0.0000000000e+00 0.0000e+00 -1.0000e+00
<mgrwt>
<rscale>  1 0.64981103E+03</rscale>
<asrwt>0</asrwt>
<pdfrwt beam="1">  1        1 0.39085434E+00 0.64981103E+03</pdfrwt>
<pdfrwt beam="2">0</pdfrwt>
<totfact> 0.14692506E+00</totfact>
</mgrwt>
</event>
<event>
 6      1 +5.6466785e-02 5.93368500e+02 7.81860800e-03 9.91926100e-02
        3 -1    0    0  502    0 +0.0000000000e+00 +0.0000000000e+00 +8.9573566351e+01 8.9573566351e+01 0.0000000000e+00 0.0000e+00 1.0000e+00
       13 -1    0    0    0    0 -0.0000000000e+00 -0.0000000000e+00 -1.0000000000e+03 1.0000000000e+03 0.0000000000e+00 0.0000e+00 1.0000e+00
  9000005  2    1    2  501    0 +1.1937686078e+00 -9.0973604105e-01 -9.1157514381e+02 1.0876835298e+03 5.9336663662e+02 0.0000e+00 0.0000e+00
       13  1    3    3    0    0 -7.7133751352e+01 -8.8150202080e+01 -9.5537264659e+02 9.6252634643e+02 0.0000000000e+00 0.0000e+00 1.0000e+00
        1  1    3    3  501    0 +7.8327519960e+01 +8.7240466039e+01 +4.3797502774e+01 1.2515718336e+02 0.0000000000e+00 0.0000e+00 1.0000e+00
       21  1    1    2  502  501 -1.1937686078e+00 +9.0973604105e-01 +1.1487101645e+00 1.8900365592e+00 0.0000000000e+00 0.0000e+00 1.0000e+00
<mgrwt>
<rscale>  1 0.59336853E+03</rscale>
<asrwt>0</asrwt>
<pdfrwt beam="1">  1        3 0.32572275E+00 0.59336853E+03</pdfrwt>
<pdfrwt beam="2">0</pdfrwt>
<totfact> 0.14810244E-01</totfact>
</mgrwt>
</event>
<event>
 6      1 +5.6466785e-02 5.42996500e+02 7.81860800e-03 1.00312800e-01
        1 -1    0    0  502    0 +0.0000000000e+00 +0.0000000000e+00 +7.4268161420e+01 7.4268161420e+01 0.0000000000e+00 0.0000e+00 1.0000e+00
       13 -1    0    0    0    0 -0.0000000000e+00 -0.0000000000e+00 -1.0000000000e+03 1.0000000000e+03 0.0000000000e+00 0.0000e+00 1.0000e+00
  9000005  2    1    2  501    0 -2.4331747253e-03 -4.6975702920e-02 -9.2628763530e+02 1.0737103777e+03 5.4299649146e+02 0.0000e+00 0.0000e+00
       13  1    3    3    0    0 +1.3829842343e+02 -3.0273301436e+01 -9.2124029428e+02 9.3205504478e+02 0.0000000000e+00 0.0000e+00 1.0000e+00
        3  1    3    3  501    0 -1.3830085660e+02 +3.0226325733e+01 -5.0473410218e+00 1.4165533296e+02 0.0000000000e+00 0.0000e+00 1.0000e+00
       21  1    1    2  502  501 +2.4331747253e-03 +4.6975702920e-02 +5.5579672175e-01 5.5778367931e-01 0.0000000000e+00 0.0000e+00 1.0000e+00
<mgrwt>
<rscale>  1 0.54299649E+03</rscale>
<asrwt>0</asrwt>
<pdfrwt beam="1">  1        1 0.27006661E+00 0.54299649E+03</pdfrwt>
<pdfrwt beam="2">0</pdfrwt>
<totfact> 0.50180857E+00</totfact>
</mgrwt>
</event>
<event>
 6      1 +5.6466785e-02 6.54930200e+02 7.81860800e-03 9.79757200e-02
        1 -1    0    0  502    0 +0.0000000000e+00 +0.0000000000e+00 +1.0723344214e+02 1.0723344214e+02 0.0000000000e+00 0.0000e+00 1.0000e+00
       13 -1    0    0    0    0 -0.0000000000e+00 -0.0000000000e+00 -1.0000000000e+03 1.0000000000e+03 0.0000000000e+00 0.0000e+00 1.0000e+00
  9000005  2    1    2  501    0 +4.3669964612e-05 +4.9048225037e-08 -8.9276657700e+02 1.1072333945e+03 6.5493024729e+02 0.0000e+00 0.0000e+00
       13  1    3    3    0    0 -2.8143225832e+02 +6.0363452504e+01 -7.1038710615e+02 7.6648398745e+02 0.0000000000e+00 0.0000e+00 1.0000e+00
        3  1    3    3  501    0 +2.8143230199e+02 -6.0363452455e+01 -1.8237947084e+02 3.4074940701e+02 0.0000000000e+00 0.0000e+00 1.0000e+00
       21  1    1    2  502  501 -4.3669964623e-05 -4.9048218560e-08 +1.9134121505e-05 4.7677907060e-05 0.0000000000e+00 0.0000e+00 1.0000e+00
<mgrwt>
<rscale>  1 0.65493025E+03</rscale>
<asrwt>0</asrwt>
<pdfrwt beam="1">  1        1 0.38994061E+00 0.65493025E+03</pdfrwt>
<pdfrwt beam="2">0</pdfrwt>
<totfact> 0.14816126E+00</totfact>
</mgrwt>
</event>
<event>
 6      1 +5.6466785e-02 6.45765200e+02 7.81860800e-03 9.81475800e-02
        1 -1    0    0  502    0 +0.0000000000e+00 +0.0000000000e+00 +1.1204182495e+02 1.1204182495e+02 0.0000000000e+00 0.0000e+00 1.0000e+00
       13 -1    0    0    0    0 -0.0000000000e+00 -0.0000000000e+00 -1.0000000000e+03 1.0000000000e+03 0.0000000000e+00 0.0000e+00 1.0000e+00
  9000005  2    1    2  501    0 +9.5802455118e-01 +5.2484445540e-01 -8.9570450002e+02 1.1042188573e+03 6.4576430695e+02 0.0000e+00 0.0000e+00
       13  1    3    3    0    0 -9.5812846988e+01 -2.8910001084e+02 -2.6595920940e+02 4.0434294724e+02 0.0000000000e+00 0.0000e+00 1.0000e+00
        1  1    3    3  501    0 +9.6770871539e+01 +2.8962485530e+02 -6.2974529062e+02 6.9987591003e+02 0.0000000000e+00 0.0000e+00 1.0000e+00
       21  1    1    2  502  501 -9.5802455118e-01 -5.2484445540e-01 +7.7463249680e+00 7.8229676756e+00 0.0000000000e+00 0.0000e+00 1.0000e+00
<mgrwt>
<rscale>  1 0.64576523E+03</rscale>
<asrwt>0</asrwt>
<pdfrwt beam="1">  1        1 0.40742568E+00 0.64576523E+03</pdfrwt>
<pdfrwt beam="2">0</pdfrwt>
<totfact> 0.12405220E+00</totfact>
</mgrwt>
</event>
<event>
 6      1 +5.6466785e-02 6.49619200e+02 7.81860800e-03 9.80749400e-02
        1 -1    0    0  502    0 +0.0000000000e+00 +0.0000000000e+00 +1.0550129387e+02 1.0550129387e+02 0.0000000000e+00 0.0000e+00 1.0000e+00
       13 -1    0    0    0    0 -0.0000000000e+00 -0.0000000000e+00 -1.0000000000e+03 1.0000000000e+03 0.0000000000e+00 0.0000e+00 1.0000e+00
  9000005  2    1    2  501    0 -2.3091112382e-06 +6.2077953942e-06 -8.9449872943e+02 1.1055012696e+03 6.4961918093e+02 0.0000e+00 0.0000e+00
       13  1    3    3    0    0 -1.7497909009e+02 +2.4882614902e+02 -2.5344839493e+02 3.9593967129e+02 0.0000000000e+00 0.0000e+00 1.0000e+00
        3  1    3    3  501    0 +1.7497908778e+02 -2.4882614281e+02 -6.4105033450e+02 7.0956159836e+02 0.0000000000e+00 0.0000e+00 1.0000e+00
       21  1    1    2  502  501 +2.3091112508e-06 -6.2077953992e-06 +2.3296055702e-05 2.4219309028e-05 0.0000000000e+00 0.0000e+00 1.0000e+00
<mgrwt>
<rscale>  1 0.64961918E+03</rscale>
<asrwt>0</asrwt>
<pdfrwt beam="1">  1        1 0.38364188E+00 0.64961918E+03</pdfrwt>
<pdfrwt beam="2">0</pdfrwt>
<totfact> 0.15814227E+00</totfact>
</mgrwt>
</event>
<event>
 6      1 +5.6466785e-02 6.43000500e+02 7.81860800e-03 9.82000300e-02
        1 -1    0    0  502    0 +0.0000000000e+00 +0.0000000000e+00 +1.0338219823e+02 1.0338219823e+02 0.0000000000e+00 0.0000e+00 1.0000e+00
       13 -1    0    0    0    0 -0.0000000000e+00 -0.0000000000e+00 -1.0000000000e+03 1.0000000000e+03 0.0000000000e+00 0.0000e+00 1.0000e+00
  9000005  2    1    2  501    0 +3.6492991919e-04 +2.6315349564e-04 -8.9663758031e+02 1.1033624146e+03 6.4300051904e+02 0.0000e+00 0.0000e+00
       13  1    3    3    0    0 -1.2977425736e+02 +1.9523950490e+02 -8.2583987489e+02 8.5847033793e+02 0.0000000000e+00 0.0000e+00 1.0000e+00
        3  1    3    3  501    0 +1.2977462229e+02 -1.9523924175e+02 -7.0797705414e+01 2.4489207664e+02 0.0000000000e+00 0.0000e+00 1.0000e+00
       21  1    1    2  502  501 -3.6492991919e-04 -2.6315349564e-04 +1.9778539357e-02 1.9783655949e-02 0.0000000000e+00 0.0000e+00 -1.0000e+00
<mgrwt>
<rscale>  1 0.64300052E+03</rscale>
<asrwt>0</asrwt>
<pdfrwt beam="1">  1        1 0.37593606E+00 0.64300052E+03</pdfrwt>
<pdfrwt beam="2">0</pdfrwt>
<totfact> 0.17122731E+00</totfact>
</mgrwt>
</event>
<event>
 6      1 +5.6466785e-02 6.43576100e+02 7.81860800e-03 9.81890800e-02
        1 -1    0    0  502    0 +0.0000000000e+00 +0.0000000000e+00 +1.1302591564e+02 1.1302591564e+02 0.0000000000e+00 0.0000e+00 1.0000e+00
       13 -1    0    0    0    0 -0.0000000000e+00 -0.0000000000e+00 -1.0000000000e+03 1.0000000000e+03 0.0000000000e+00 0.0000e+00 1.0000e+00
  9000005  2    1    2  501    0 -4.1596251796e+00 -9.0050260956e+00 -8.9350140182e+02 1.1011516220e+03 6.4349960882e+02 0.0000e+00 0.0000e+00
       13  1    3    3    0    0 +1.4841317206e+02 -2.1427328428e+02 -1.2091691734e+02 2.8733327496e+02 0.0000000000e+00 0.0000e+00 1.0000e+00
        3  1    3    3  501    0 -1.5257279724e+02 +2.0526825819e+02 -7.7258448449e+02 8.1381834702e+02 0.0000000000e+00 0.0000e+00 1.0000e+00
       21  1    1    2  502  501 +4.1596251796e+00 +9.0050260956e+00 +6.5273174620e+00 1.1874293658e+01 0.0000000000e+00 0.0000e+00 1.0000e+00
<mgrwt>
<rscale>  1 0.64357606E+03</rscale>
<asrwt>0</asrwt>
<pdfrwt beam="1">  1        1 0.41100420E+00 0.64357606E+03</pdfrwt>
<pdfrwt beam="2">0</pdfrwt>
<totfact> 0.11960779E+00</totfact>
</mgrwt>
</event>
<event>
 6      1 +5.6466785e-02 6.51970300e+02 7.81860800e-03 9.80308900e-02
        1 -1    0    0  502    0 +0.0000000000e+00 +0.0000000000e+00 +1.0653689556e+02 1.0653689556e+02 0.0000000000e+00 0.0000e+00 1.0000e+00
       13 -1    0    0    0    0 -0.0000000000e+00 -0.0000000000e+00 -1.0000000000e+03 1.0000000000e+03 0.0000000000e+00 0.0000e+00 1.0000e+00
  9000005  2    1    2  501    0 -4.4621497389e-03 -4.1389126660e-03 -8.9373363583e+02 1.1062662957e+03 6.5197032541e+02 0.0000e+00 0.0000e+00
       13  1    3    3    0    0 +2.7368956669e+02 -4.0974763848e+01 -1.5453926456e+02 3.1696576231e+02 0.0000000000e+00 0.0000e+00 1.0000e+00
        1  1    3    3  501    0 -2.7369402884e+02 +4.0970624935e+01 -7.3919437127e+02 7.8930053341e+02 0.0000000000e+00 0.0000e+00 1.0000e+00
       21  1    1    2  502  501 +4.4621497389e-03 +4.1389126660e-03 +2.7053138602e-01 2.7059983777e-01 0.0000000000e+00 0.0000e+00 -1.0000e+00
<mgrwt>
<rscale>  1 0.65197033E+03</rscale>
<asrwt>0</asrwt>
<pdfrwt beam="1">  1        1 0.38740771E+00 0.65197033E+03</pdfrwt>
<pdfrwt beam="2">0</pdfrwt>
<totfact> 0.15212399E+00</totfact>
</mgrwt>
</event>
<event>
 6      1 +5.6466785e-02 6.45216400e+02 7.81860800e-03 9.81579700e-02
        1 -1    0    0  502    0 +0.0000000000e+00 +0.0000000000e+00 +1.0414243452e+02 1.0414243452e+02 0.0000000000e+00 0.0000e+00 1.0000e+00
       13 -1    0    0    0    0 -0.0000000000e+00 -0.0000000000e+00 -1.0000000000e+03 1.0000000000e+03 0.0000000000e+00 0.0000e+00 1.0000e+00
  9000005  2    1    2  501    0 +2.4771673919e-03 -5.3366010502e-02 -8.9591187566e+02 1.1040662527e+03 6.4521639676e+02 0.0000e+00 0.0000e+00
       13  1    3    3    0    0 +1.6557455776e+02 -2.7686114863e+02 -4.5640723223e+02 5.5890481428e+02 0.0000000000e+00 0.0000e+00 1.0000e+00
        3  1    3    3  501    0 -1.6557208059e+02 +2.7680778262e+02 -4.3950464343e+02 5.4516143846e+02 0.0000000000e+00 0.0000e+00 1.0000e+00
       21  1    1    2  502  501 -2.4771673919e-03 +5.3366010502e-02 +5.4310174777e-02 7.6181772883e-02 0.0000000000e+00 0.0000e+00 1.0000e+00
<mgrwt>
<rscale>  1 0.64521640E+03</rscale>
<asrwt>0</asrwt>
<pdfrwt beam="1">  1        1 0.37870056E+00 0.64521640E+03</pdfrwt>
<pdfrwt beam="2">0</pdfrwt>
<totfact> 0.16642351E+00</totfact>
</mgrwt>
</event>
<event>
 6      1 +5.6466785e-02 6.16617300e+02 7.81860800e-03 9.87151800e-02
        1 -1    0    0  502    0 +0.0000000000e+00 +0.0000000000e+00 +9.5054379081e+01 9.5054379081e+01 0.0000000000e+00 0.0000e+00 1.0000e+00
       13 -1    0    0    0    0 -0.0000000000e+00 -0.0000000000e+00 -1.0000000000e+03 1.0000000000e+03 0.0000000000e+00 0.0000e+00 1.0000e+00
  9000005  2    1    2  501    0 +5.8203358108e-05 +1.9333535874e-05 -9.0494577181e+02 1.0950542162e+03 6.1661729340e+02 0.0000e+00 0.0000e+00
       13  1    3    3    0    0 -8.7719803183e+01 +1.6662853039e+02 -8.8600632542e+02 9.0579635664e+02 0.0000000000e+00 0.0000e+00 1.0000e+00
        1  1    3    3  501    0 +8.7719861387e+01 -1.6662851106e+02 -1.8939446382e+01 1.8925785957e+02 0.0000000000e+00 0.0000e+00 1.0000e+00
       21  1    1    2  502  501 -5.8203358117e-05 -1.9333535882e-05 +1.5088691975e-04 1.6287504124e-04 0.0000000000e+00 0.0000e+00 1.0000e+00
<mgrwt>
<rscale>  1 0.61661729E+03</rscale>
<asrwt>0</asrwt>
<pdfrwt beam="1">  1        1 0.34565302E+00 0.61661729E+03</pdfrwt>
<pdfrwt beam="2">0</pdfrwt>
<totfact> 0.23342742E+00</totfact>
</mgrwt>
</event>
<event>
 6      1 +5.6466785e-02 6.47688300e+02 7.81860800e-03 9.81112700e-02
        1 -1    0    0  502    0 +0.0000000000e+00 +0.0000000000e+00 +1.0676937277e+02 1.0676937277e+02 0.0000000000e+00 0.0000e+00 1.0000e+00
       13 -1    0    0    0    0 -0.0000000000e+00 -0.0000000000e+00 -1.0000000000e+03 1.0000000000e+03 0.0000000000e+00 0.0000e+00 1.0000e+00
  9000005  2    1    2  501    0 +1.7979124025e+00 +4.1162657892e+00 -8.9153411026e+02 1.1019678831e+03 6.4767273336e+02 0.0000e+00 0.0000e+00
       13  1    3    3    0    0 -2.4400154777e+02 +1.7836112643e+02 -2.4642501016e+02 3.8996760425e+02 0.0000000000e+00 0.0000e+00 1.0000e+00
        3  1    3    3  501    0 +2.4579946017e+02 -1.7424486064e+02 -6.4510910010e+02 7.1200027887e+02 0.0000000000e+00 0.0000e+00 1.0000e+00
       21  1    1    2  502  501 -1.7979124025e+00 -4.1162657892e+00 -1.6965169625e+00 4.8014896499e+00 0.0000000000e+00 0.0000e+00 1.0000e+00
<mgrwt>
<rscale>  1 0.64768831E+03</rscale>
<asrwt>0</asrwt>
<pdfrwt beam="1">  1        1 0.38825308E+00 0.64768831E+03</pdfrwt>
<pdfrwt beam="2">0</pdfrwt>
<totfact> 0.15093814E+00</totfact>
</mgrwt>
</event>
<event>
 6      1 +5.6466785e-02 6.42860100e+02 7.81860800e-03 9.82027000e-02
        1 -1    0    0  502    0 +0.0000000000e+00 +0.0000000000e+00 +1.0332022399e+02 1.0332022399e+02 0.0000000000e+00 0.0000e+00 1.0000e+00
       13 -1    0    0    0    0 -0.0000000000e+00 -0.0000000000e+00 -1.0000000000e+03 1.0000000000e+03 0.0000000000e+00 0.0000e+00 1.0000e+00
  9000005  2    1    2  501    0 +3.1909332046e-04 +1.5735073468e-05 -8.9668272380e+02 1.1033172589e+03 6.4286006777e+02 0.0000e+00 0.0000e+00
       13  1    3    3    0    0 +2.8630806966e+02 +4.2993100196e+01 -2.0869904986e+02 3.5689775963e+02 0.0000000000e+00 0.0000e+00 1.0000e+00
        3  1    3    3  501    0 -2.8630775057e+02 -4.2993084461e+01 -6.8798367394e+02 7.4641949931e+02 0.0000000000e+00 0.0000e+00 1.0000e+00
       21  1    1    2  502  501 -3.1909332050e-04 -1.5735073467e-05 +2.9477813749e-03 2.9650435366e-03 0.0000000000e+00 0.0000e+00 -1.0000e+00
<mgrwt>
<rscale>  1 0.64286007E+03</rscale>
<asrwt>0</asrwt>
<pdfrwt beam="1">  1        1 0.37571070E+00 0.64286007E+03</pdfrwt>
<pdfrwt beam="2">0</pdfrwt>
<totfact> 0.17162343E+00</totfact>
</mgrwt>
</event>
<event>
 6      1 +5.6466785e-02 6.46408200e+02 7.81860800e-03 9.81354200e-02
        1 -1    0    0  502    0 +0.0000000000e+00 +0.0000000000e+00 +1.0448418349e+02 1.0448418349e+02 0.0000000000e+00 0.0000e+00 1.0000e+00
       13 -1    0    0    0    0 -0.0000000000e+00 -0.0000000000e+00 -1.0000000000e+03 1.0000000000e+03 0.0000000000e+00 0.0000e+00 1.0000e+00
  9000005  2    1    2  501    0 -3.9183033553e-04 +6.3583292655e-04 -8.9553911821e+02 1.1044608698e+03 6.4640815335e+02 0.0000e+00 0.0000e+00
       13  1    3    3    0    0 +1.4271510475e+02 -1.6415308358e+02 -3.9318401245e+01 2.2104246797e+02 0.0000000000e+00 0.0000e+00 1.0000e+00
        3  1    3    3  501    0 -1.4271549658e+02 +1.6415371941e+02 -8.5622071697e+02 8.8341840185e+02 0.0000000000e+00 0.0000e+00 1.0000e+00
       21  1    1    2  502  501 +3.9183033553e-04 -6.3583292655e-04 +2.3301702493e-02 2.3313668815e-02 0.0000000000e+00 0.0000e+00 1.0000e+00
<mgrwt>
<rscale>  1 0.64640815E+03</rscale>
<asrwt>0</asrwt>
<pdfrwt beam="1">  1        1 0.37994329E+00 0.64640815E+03</pdfrwt>
<pdfrwt beam="2">0</pdfrwt>
<totfact> 0.16430025E+00</totfact>
</mgrwt>
</event>
<event>
 6      1 +5.6466785e-02 6.48265400e+02 7.81860800e-03 9.81003900e-02
        1 -1    0    0  502    0 +0.0000000000e+00 +0.0000000000e+00 +1.0506201372e+02 1.0506201372e+02 0.0000000000e+00 0.0000e+00 1.0000e+00
       13 -1    0    0    0    0 -0.0000000000e+00 -0.0000000000e+00 -1.0000000000e+03 1.0000000000e+03 0.0000000000e+00 0.0000e+00 1.0000e+00
  9000005  2    1    2  501    0 +7.0688577125e-07 +1.9048518141e-06 -8.9493798544e+02 1.1050620115e+03 6.4826541749e+02 0.0000e+00 0.0000e+00
       13  1    3    3    0    0 -3.0696836523e+02 -5.4964417736e+01 -2.9680939872e+02 4.3051885399e+02 0.0000000000e+00 0.0000e+00 1.0000e+00
        3  1    3    3  501    0 +3.0696836594e+02 +5.4964419641e+01 -5.9812858672e+02 6.7454315753e+02 0.0000000000e+00 0.0000e+00 1.0000e+00
       21  1    1    2  502  501 -7.0688576300e-07 -1.9048518207e-06 -8.3892515781e-07 2.1981681831e-06 0.0000000000e+00 0.0000e+00 -1.0000e+00
<mgrwt>
<rscale>  1 0.64826542E+03</rscale>
<asrwt>0</asrwt>
<pdfrwt beam="1">  1        1 0.38204449E+00 0.64826542E+03</pdfrwt>
<pdfrwt beam="2">0</pdfrwt>
<totfact> 0.16077343E+00</totfact>
</mgrwt>
</event>
<event>
 6      1 +5.6466785e-02 6.34498200e+02 7.81860800e-03 9.83631000e-02
        1 -1    0    0  502    0 +0.0000000000e+00 +0.0000000000e+00 +1.0095555787e+02 1.0095555787e+02 0.0000000000e+00 0.0000e+00 1.0000e+00
       13 -1    0    0    0    0 -0.0000000000e+00 -0.0000000000e+00 -1.0000000000e+03 1.0000000000e+03 0.0000000000e+00 0.0000e+00 1.0000e+00
  9000005  2    1    2  501    0 -9.3228231836e-03 -4.3067037064e-03 -8.9935292285e+02 1.1006469063e+03 6.3449817360e+02 0.0000e+00 0.0000e+00
       13  1    3    3    0    0 +1.9375568423e+02 +7.2774392674e+01 -8.6674242670e+02 8.9111155960e+02 0.0000000000e+00 0.0000e+00 1.0000e+00
        1  1    3    3  501    0 -1.9376500705e+02 -7.2778699378e+01 -3.2610496150e+01 2.0953534666e+02 0.0000000000e+00 0.0000e+00 1.0000e+00
       21  1    1    2  502  501 +9.3228231836e-03 +4.3067037064e-03 +3.0848072166e-01 3.0865161325e-01 0.0000000000e+00 0.0000e+00 -1.0000e+00
<mgrwt>
<rscale>  1 0.63449817E+03</rscale>
<asrwt>0</asrwt>
<pdfrwt beam="1">  1        1 0.36711189E+00 0.63449817E+03</pdfrwt>
<pdfrwt beam="2">0</pdfrwt>
<totfact> 0.18751134E+00</totfact>
</mgrwt>
</event>
<event>
 6      1 +5.6466785e-02 4.67143600e+02 7.81860800e-03 1.02273000e-01
        1 -1    0    0  502    0 +0.0000000000e+00 +0.0000000000e+00 +5.6101953534e+01 5.6101953534e+01 0.0000000000e+00 0.0000e+00 1.0000e+00
       13 -1    0    0    0    0 -0.0000000000e+00 -0.0000000000e+00 -1.0000000000e+03 1.0000000000e+03 0.0000000000e+00 0.0000e+00 1.0000e+00
  9000005  2    1    2  501    0 -5.6956560672e-02 -4.0830681265e-01 -9.4541519640e+02 1.0545297886e+03 4.6714345933e+02 0.0000e+00 0.0000e+00
       13  1    3    3    0    0 -1.7312587962e+02 +3.3934008619e+01 -8.1820943316e+02 8.3701300088e+02 0.0000000000e+00 0.0000e+00 1.0000e+00
        3  1    3    3  501    0 +1.7306892306e+02 -3.4342315432e+01 -1.2720576325e+02 2.1751678777e+02 0.0000000000e+00 0.0000e+00 1.0000e+00
       21  1    1    2  502  501 +5.6956560672e-02 +4.0830681265e-01 +1.5171499383e+00 1.5721648890e+00 0.0000000000e+00 0.0000e+00 -1.0000e+00
<mgrwt>
<rscale>  1 0.46714364E+03</rscale>
<asrwt>0</asrwt>
<pdfrwt beam="1">  1        1 0.20400753E+00 0.46714364E+03</pdfrwt>
<pdfrwt beam="2">0</pdfrwt>
<totfact> 0.99115258E+00</totfact>
</mgrwt>
</event>
<event>
 6      1 +5.6466785e-02 6.57257100e+02 7.81860800e-03 9.79325600e-02
        1 -1    0    0  502    0 +0.0000000000e+00 +0.0000000000e+00 +1.0808070985e+02 1.0808070985e+02 0.0000000000e+00 0.0000e+00 1.0000e+00
       13 -1    0    0    0    0 -0.0000000000e+00 -0.0000000000e+00 -1.0000000000e+03 1.0000000000e+03 0.0000000000e+00 0.0000e+00 1.0000e+00
  9000005  2    1    2  501    0 -1.4747673665e-02 -9.8670449919e-02 -8.9196909115e+02 1.1079692043e+03 6.5725709438e+02 0.0000e+00 0.0000e+00
       13  1    3    3    0    0 +6.4740544533e+01 +2.3640308393e+02 -7.7011123159e+01 2.5692113438e+02 0.0000000000e+00 0.0000e+00 1.0000e+00
        3  1    3    3  501    0 -6.4755292206e+01 -2.3650175438e+02 -8.1495796799e+02 8.5104806991e+02 0.0000000000e+00 0.0000e+00 1.0000e+00
       21  1    1    2  502  501 +1.4747673665e-02 +9.8670449919e-02 +4.9800997887e-02 1.1150556469e-01 0.0000000000e+00 0.0000e+00 1.0000e+00
<mgrwt>
<rscale>  1 0.65725710E+03</rscale>
<asrwt>0</asrwt>
<pdfrwt beam="1">  1        1 0.39302159E+00 0.65725710E+03</pdfrwt>
<pdfrwt beam="2">0</pdfrwt>
<totfact> 0.14350688E+00</totfact>
</mgrwt>
</event>
<event>
 6      1 +5.6466785e-02 6.55627400e+02 7.81860800e-03 9.79627700e-02
        1 -1    0    0  502    0 +0.0000000000e+00 +0.0000000000e+00 +1.0767503784e+02 1.0767503784e+02 0.0000000000e+00 0.0000e+00 1.0000e+00
       13 -1    0    0    0    0 -0.0000000000e+00 -0.0000000000e+00 -1.0000000000e+03 1.0000000000e+03 0.0000000000e+00 0.0000e+00 1.0000e+00
  9000005  2    1    2  501    0 +4.7311805010e-01 +3.3331605130e-01 -8.9194061012e+02 1.1069802956e+03 6.5562717145e+02 0.0000e+00 0.0000e+00
       13  1    3    3    0    0 +9.6653908692e+01 -5.9878731438e+00 +8.2845053516e+01 1.2744071399e+02 0.0000000000e+00 0.0000e+00 1.0000e+00
        3  1    3    3  501    0 -9.6180790642e+01 +6.3211891951e+00 -9.7478566364e+02 9.7953958162e+02 0.0000000000e+00 0.0000e+00 1.0000e+00
       21  1    1    2  502  501 -4.7311805010e-01 -3.3331605130e-01 -3.8435203515e-01 6.9474223012e-01 0.0000000000e+00 0.0000e+00 1.0000e+00
<mgrwt>
<rscale>  1 0.65562743E+03</rscale>
<asrwt>0</asrwt>
<pdfrwt beam="1">  1        1 0.39154642E+00 0.65562743E+03</pdfrwt>
<pdfrwt beam="2">0</pdfrwt>
<totfact> 0.14573178E+00</totfact>
</mgrwt>
</event>
<event>
 6      1 +5.6466785e-02 6.39080000e+02 7.81860800e-03 9.82748800e-02
        1 -1    0    0  502    0 +0.0000000000e+00 +0.0000000000e+00 +1.0212237178e+02 1.0212237178e+02 0.0000000000e+00 0.0000e+00 1.0000e+00
       13 -1    0    0    0    0 -0.0000000000e+00 -0.0000000000e+00 -1.0000000000e+03 1.0000000000e+03 0.0000000000e+00 0.0000e+00 1.0000e+00
  9000005  2    1    2  501    0 -8.2924035448e-04 -3.4978057872e-04 -8.9789418912e+02 1.1021057864e+03 6.3907995561e+02 0.0000e+00 0.0000e+00
       13  1    3    3    0    0 +2.2559641711e+02 -1.6551181518e+02 -7.1509197431e+02 7.6788308752e+02 0.0000000000e+00 0.0000e+00 1.0000e+00
        3  1    3    3  501    0 -2.2559724635e+02 +1.6551146540e+02 -1.8280221480e+02 3.3422269892e+02 0.0000000000e+00 0.0000e+00 1.0000e+00
       21  1    1    2  502  501 +8.2924035446e-04 +3.4978057870e-04 +1.6560898397e-02 1.6585335141e-02 0.0000000000e+00 0.0000e+00 1.0000e+00
<mgrwt>
<rscale>  1 0.63907996E+03</rscale>
<asrwt>0</asrwt>
<pdfrwt beam="1">  1        1 0.37135486E+00 0.63907996E+03</pdfrwt>
<pdfrwt beam="2">0</pdfrwt>
<totfact> 0.17948876E+00</totfact>
</mgrwt>
</event>
<event>
 6      1 +5.6466785e-02 6.54283400e+02 7.81860800e-03 9.79877500e-02
        1 -1    0    0  502    0 +0.0000000000e+00 +0.0000000000e+00 +1.0702295513e+02 1.0702295513e+02 0.0000000000e+00 0.0000e+00 1.0000e+00
       13 -1    0    0    0    0 -0.0000000000e+00 -0.0000000000e+00 -1.0000000000e+03 1.0000000000e+03 0.0000000000e+00 0.0000e+00 1.0000e+00
  9000005  2    1    2  501    0 +2.5372460650e-03 -5.8546486184e-04 -8.9297661156e+02 1.1070203154e+03 6.5428338655e+02 0.0000e+00 0.0000e+00
       13  1    3    3    0    0 +2.0332963708e+02 -2.1872955557e+02 -6.7245810810e+02 7.3578900980e+02 0.0000000000e+00 0.0000e+00 1.0000e+00
        1  1    3    3  501    0 -2.0332709984e+02 +2.1872897010e+02 -2.2051850346e+02 3.7123130560e+02 0.0000000000e+00 0.0000e+00 1.0000e+00
       21  1    1    2  502  501 -2.5372460650e-03 +5.8546486184e-04 -4.3330706375e-04 2.6397237943e-03 0.0000000000e+00 0.0000e+00 1.0000e+00
<mgrwt>
<rscale>  1 0.65428339E+03</rscale>
<asrwt>0</asrwt>
<pdfrwt beam="1">  1        1 0.38917520E+00 0.65428339E+03</pdfrwt>
<pdfrwt beam="2">0</pdfrwt>
<totfact> 0.14934145E+00</totfact>
</mgrwt>
</event>
<event>
 6      1 +5.6466785e-02 6.45684500e+02 7.81860800e-03 9.81491100e-02
        1 -1    0    0  502    0 +0.0000000000e+00 +0.0000000000e+00 +1.0714861705e+02 1.0714861705e+02 0.0000000000e+00 0.0000e+00 1.0000e+00
       13 -1    0    0    0    0 -0.0000000000e+00 -0.0000000000e+00 -1.0000000000e+03 1.0000000000e+03 0.0000000000e+00 0.0000e+00 1.0000e+00
  9000005  2    1    2  501    0 -4.2300593409e-01 -4.4615011597e-01 -8.9573713995e+02 1.1041980955e+03 6.4568415826e+02 0.0000e+00 0.0000e+00
       13  1    3    3    0    0 -1.8938580119e+02 -9.5016167374e+01 -8.6511466244e+02 8.9068424985e+02 0.0000000000e+00 0.0000e+00 1.0000e+00
        3  1    3    3  501    0 +1.8896279525e+02 +9.4570017258e+01 -3.0622477509e+01 2.1351384565e+02 0.0000000000e+00 0.0000e+00 1.0000e+00
       21  1    1    2  502  501 +4.2300593409e-01 +4.4615011597e-01 +2.8857569986e+00 2.9505215473e+00 0.0000000000e+00 0.0000e+00 -1.0000e+00
<mgrwt>
<rscale>  1 0.64568445E+03</rscale>
<asrwt>0</asrwt>
<pdfrwt beam="1">  1        1 0.38963216E+00 0.64568445E+03</pdfrwt>
<pdfrwt beam="2">0</pdfrwt>
<totfact> 0.14888499E+00</totfact>
</mgrwt>
</event>
<event>
 6      1 +5.6466785e-02 6.17992500e+02 7.81860800e-03 9.86876500e-02
        3 -1    0    0  502    0 +0.0000000000e+00 +0.0000000000e+00 +9.6216619911e+01 9.6216619911e+01 0.0000000000e+00 0.0000e+00 1.0000e+00
       13 -1    0    0    0    0 -0.0000000000e+00 -0.0000000000e+00 -1.0000000000e+03 1.0000000000e+03 0.0000000000e+00 0.0000e+00 1.0000e+00
  9000005  2    1    2  501    0 -6.2212456661e-02 -3.4261167785e-02 -9.0451944726e+02 1.0954771342e+03 6.1799248867e+02 0.0000e+00 0.0000e+00
       13  1    3    3    0    0 +1.6685730800e+02 -9.9304777168e+01 -2.6186720154e+01 1.9592994747e+02 0.0000000000e+00 0.0000e+00 1.0000e+00
        1  1    3    3  501    0 -1.6691952046e+02 +9.9270516000e+01 -8.7833272711e+02 8.9954718674e+02 0.0000000000e+00 0.0000e+00 1.0000e+00
       21  1    1    2  502  501 +6.2212456661e-02 +3.4261167785e-02 +7.3606717569e-01 7.3948570271e-01 0.0000000000e+00 0.0000e+00 1.0000e+00
<mgrwt>
<rscale>  1 0.61799249E+03</rscale>
<asrwt>0</asrwt>
<pdfrwt beam="1">  1        3 0.34987936E+00 0.61799249E+03</pdfrwt>
<pdfrwt beam="2">0</pdfrwt>
<totfact> 0.10961452E-01</totfact>
</mgrwt>
</event>
<event>
 6      1 +5.6466785e-02 6.73144800e+02 7.81860800e-03 9.76429300e-02
        1 -1    0    0  502    0 +0.0000000000e+00 +0.0000000000e+00 +1.1329134622e+02 1.1329134622e+02 0.0000000000e+00 0.0000e+00 1.0000e+00
       13 -1    0    0    0    0 -0.0000000000e+00 -0.0000000000e+00 -1.0000000000e+03 1.0000000000e+03 0.0000000000e+00 0.0000e+00 1.0000e+00
  9000005  2    1    2  501    0 +2.2378677946e-04 +1.6998420662e-04 -8.8671901814e+02 1.1132809780e+03 6.7314479790e+02 0.0000e+00 0.0000e+00
       13  1    3    3    0    0 +2.5441231551e+02 +1.4555007829e+02 -1.6974553247e+02 3.3870931101e+02 0.0000000000e+00 0.0000e+00 1.0000e+00
        1  1    3    3  501    0 -2.5441209172e+02 -1.4554990831e+02 -7.1697348567e+02 7.7457166704e+02 0.0000000000e+00 0.0000e+00 1.0000e+00
       21  1    1    2  502  501 -2.2378677947e-04 -1.6998420660e-04 +1.0364365245e-02 1.0368174482e-02 0.0000000000e+00 0.0000e+00 1.0000e+00
<mgrwt>
<rscale>  1 0.67314480E+03</rscale>
<asrwt>0</asrwt>
<pdfrwt beam="1">  1        1 0.41196940E+00 0.67314480E+03</pdfrwt>
<pdfrwt beam="2">0</pdfrwt>
<totfact> 0.11774892E+00</totfact>
</mgrwt>
</event>
<event>
 6      1 +5.6466785e-02 6.44627400e+02 7.81860800e-03 9.81691300e-02
        1 -1    0    0  502    0 +0.0000000000e+00 +0.0000000000e+00 +1.0404718913e+02 1.0404718913e+02 0.0000000000e+00 0.0000e+00 1.0000e+00
       13 -1    0    0    0    0 -0.0000000000e+00 -0.0000000000e+00 -1.0000000000e+03 1.0000000000e+03 0.0000000000e+00 0.0000e+00 1.0000e+00
  9000005  2    1    2  501    0 +3.0547548512e-02 -2.0671749183e-02 -8.9611154035e+02 1.1038842305e+03 6.4462741190e+02 0.0000e+00 0.0000e+00
       13  1    3    3    0    0 -7.3397156709e+01 -1.0350163684e+02 +5.9318335972e+01 1.4006568611e+02 0.0000000000e+00 0.0000e+00 1.0000e+00
        3  1    3    3  501    0 +7.3427704258e+01 +1.0348096510e+02 -9.5542987633e+02 9.6381854437e+02 0.0000000000e+00 0.0000e+00 1.0000e+00
       21  1    1    2  502  501 -3.0547548512e-02 +2.0671749183e-02 +1.5872948380e-01 1.6295865415e-01 0.0000000000e+00 0.0000e+00 -1.0000e+00
<mgrwt>
<rscale>  1 0.64462741E+03</rscale>
<asrwt>0</asrwt>
<pdfrwt beam="1">  1        1 0.37835421E+00 0.64462741E+03</pdfrwt>
<pdfrwt beam="2">0</pdfrwt>
<totfact> 0.16702778E+00</totfact>
</mgrwt>
</event>
<event>
 6      1 +5.6466785e-02 6.26260500e+02 7.81860800e-03 9.85237300e-02
        1 -1    0    0  502    0 +0.0000000000e+00 +0.0000000000e+00 +9.8065605580e+01 9.8065605580e+01 0.0000000000e+00 0.0000e+00 1.0000e+00
       13 -1    0    0    0    0 -0.0000000000e+00 -0.0000000000e+00 -1.0000000000e+03 1.0000000000e+03 0.0000000000e+00 0.0000e+00 1.0000e+00
  9000005  2    1    2  501    0 -6.0052239835e-03 +4.9904453909e-03 -9.0194832149e+02 1.0980496390e+03 6.2626051694e+02 0.0000e+00 0.0000e+00
       13  1    3    3    0    0 -1.0513452882e+02 +2.8180581208e+02 -2.9827874029e+02 4.2360121787e+02 0.0000000000e+00 0.0000e+00 1.0000e+00
        1  1    3    3  501    0 +1.0512852359e+02 -2.8180082163e+02 -6.0366958120e+02 6.7444842117e+02 0.0000000000e+00 0.0000e+00 1.0000e+00
       21  1    1    2  502  501 +6.0052239836e-03 -4.9904453910e-03 +1.3927071115e-02 1.5966545341e-02 0.0000000000e+00 0.0000e+00 1.0000e+00
<mgrwt>
<rscale>  1 0.62626052E+03</rscale>
<asrwt>0</asrwt>
<pdfrwt beam="1">  1        1 0.35660295E+00 0.62626052E+03</pdfrwt>
<pdfrwt beam="2">0</pdfrwt>
<totfact> 0.20877065E+00</totfact>
</mgrwt>
</event>
<event>
 6      1 +5.6466785e-02 6.49164700e+02 7.81860800e-03 9.80834800e-02
        1 -1    0    0  502    0 +0.0000000000e+00 +0.0000000000e+00 +1.0860335631e+02 1.0860335631e+02 0.0000000000e+00 0.0000e+00 1.0000e+00
       13 -1    0    0    0    0 -0.0000000000e+00 -0.0000000000e+00 -1.0000000000e+03 1.0000000000e+03 0.0000000000e+00 0.0000e+00 1.0000e+00
  9000005  2    1    2  501    0 +3.6662414223e-01 +8.4507671673e-01 -8.9457398905e+02 1.1052951708e+03 6.4916403484e+02 0.0000e+00 0.0000e+00
       13  1    3    3    0    0 +2.9476254955e+02 -1.3521177158e+02 -4.2443639035e+02 5.3414738907e+02 0.0000000000e+00 0.0000e+00 1.0000e+00
        1  1    3    3  501    0 -2.9439592541e+02 +1.3605684830e+02 -4.7013759869e+02 5.7114778172e+02 0.0000000000e+00 0.0000e+00 1.0000e+00
       21  1    1    2  502  501 -3.6662414223e-01 -8.4507671673e-01 +3.1773453514e+00 3.3081855148e+00 0.0000000000e+00 0.0000e+00 -1.0000e+00
<mgrwt>
<rscale>  1 0.64916469E+03</rscale>
<asrwt>0</asrwt>
<pdfrwt beam="1">  1        1 0.39492213E+00 0.64916469E+03</pdfrwt>
<pdfrwt beam="2">0</pdfrwt>
<totfact> 0.14095673E+00</totfact>
</mgrwt>
</event>
<event>
 6      1 +5.6466785e-02 6.40208700e+02 7.81860800e-03 9.82532700e-02
        1 -1    0    0  502    0 +0.0000000000e+00 +0.0000000000e+00 +1.0274431901e+02 1.0274431901e+02 0.0000000000e+00 0.0000e+00 1.0000e+00
       13 -1    0    0    0    0 -0.0000000000e+00 -0.0000000000e+00 -1.0000000000e+03 1.0000000000e+03 0.0000000000e+00 0.0000e+00 1.0000e+00
  9000005  2    1    2  501    0 -5.1364235396e-01 +1.4843818939e-02 -8.9724266776e+02 1.1022302975e+03 6.4020852833e+02 0.0000e+00 0.0000e+00
       13  1    3    3    0    0 -2.2263182359e+02 +5.9003268174e+01 -8.3205922316e+02 8.6334747662e+02 0.0000000000e+00 0.0000e+00 1.0000e+00
        3  1    3    3  501    0 +2.2211818124e+02 -5.8988424355e+01 -6.5183444596e+01 2.3888282084e+02 0.0000000000e+00 0.0000e+00 1.0000e+00
       21  1    1    2  502  501 +5.1364235396e-01 -1.4843818939e-02 -1.3013236936e-02 5.1402154729e-01 0.0000000000e+00 0.0000e+00 1.0000e+00
<mgrwt>
<rscale>  1 0.64020873E+03</rscale>
<asrwt>0</asrwt>
<pdfrwt beam="1">  1        1 0.37361649E+00 0.64020873E+03</pdfrwt>
<pdfrwt beam="2">0</pdfrwt>
<totfact> 0.17538968E+00</totfact>
</mgrwt>
</event>
<event>
 6      1 +5.6466785e-02 6.37547100e+02 7.81860800e-03 9.83043100e-02
        1 -1    0    0  502    0 +0.0000000000e+00 +0.0000000000e+00 +1.0161691257e+02 1.0161691257e+02 0.0000000000e+00 0.0000e+00 1.0000e+00
       13 -1    0    0    0    0 -0.0000000000e+00 -0.0000000000e+00 -1.0000000000e+03 1.0000000000e+03 0.0000000000e+00 0.0000e+00 1.0000e+00
  9000005  2    1    2  501    0 +1.3978045744e-04 -1.0525122087e-03 -8.9838202598e+02 1.1016154112e+03 6.3754705683e+02 0.0000e+00 0.0000e+00
       13  1    3    3    0    0 -1.0672836507e+01 -2.9987664446e+02 -6.3510700311e+02 7.0242495452e+02 0.0000000000e+00 0.0000e+00 1.0000e+00
        1  1    3    3  501    0 +1.0672976288e+01 +2.9987559195e+02 -2.6327502287e+02 3.9919045672e+02 0.0000000000e+00 0.0000e+00 1.0000e+00
       21  1    1    2  502  501 -1.3978045744e-04 +1.0525122087e-03 -1.0614519605e-03 1.5013330044e-03 0.0000000000e+00 0.0000e+00 -1.0000e+00
<mgrwt>
<rscale>  1 0.63754706E+03</rscale>
<asrwt>0</asrwt>
<pdfrwt beam="1">  1        1 0.36951682E+00 0.63754706E+03</pdfrwt>
<pdfrwt beam="2">0</pdfrwt>
<totfact> 0.18290792E+00</totfact>
</mgrwt>
</event>
<event>
 6      1 +5.6466785e-02 6.92698300e+02 7.81860800e-03 9.72980100e-02
        1 -1    0    0  502    0 +0.0000000000e+00 +0.0000000000e+00 +1.1995848904e+02 1.1995848904e+02 0.0000000000e+00 0.0000e+00 1.0000e+00
       13 -1    0    0    0    0 -0.0000000000e+00 -0.0000000000e+00 -1.0000000000e+03 1.0000000000e+03 0.0000000000e+00 0.0000e+00 1.0000e+00
  9000005  2    1    2  501    0 -4.5454356439e-05 +1.2788881634e-05 -8.8004226913e+02 1.1199577294e+03 6.9269828944e+02 0.0000e+00 0.0000e+00
       13  1    3    3    0    0 +3.1251782834e+02 +1.1155555214e+02 -6.0044921153e+02 6.8604029756e+02 0.0000000000e+00 0.0000e+00 1.0000e+00
        1  1    3    3  501    0 -3.1251787380e+02 -1.1155553935e+02 -2.7959305760e+02 4.3391743184e+02 0.0000000000e+00 0.0000e+00 1.0000e+00
       21  1    1    2  502  501 +4.5454356415e-05 -1.2788881636e-05 +7.5816319602e-04 7.5963220430e-04 0.0000000000e+00 0.0000e+00 1.0000e+00
<mgrwt>
<rscale>  1 0.69269829E+03</rscale>
<asrwt>0</asrwt>
<pdfrwt beam="1">  1        1 0.43621361E+00 0.69269829E+03</pdfrwt>
<pdfrwt beam="2">0</pdfrwt>
<totfact> 0.91111278E-01</totfact>
</mgrwt>
</event>
<event>
 6      1 +5.6466785e-02 6.53170700e+02 7.81860800e-03 9.80084800e-02
        1 -1    0    0  502    0 +0.0000000000e+00 +0.0000000000e+00 +1.0666039617e+02 1.0666039617e+02 0.0000000000e+00 0.0000e+00 1.0000e+00
       13 -1    0    0    0    0 -0.0000000000e+00 -0.0000000000e+00 -1.0000000000e+03 1.0000000000e+03 0.0000000000e+00 0.0000e+00 1.0000e+00
  9000005  2    1    2  501    0 +1.1619852819e-03 -2.1544949160e-03 -8.9334128441e+02 1.1066574269e+03 6.5317073583e+02 0.0000e+00 0.0000e+00
       13  1    3    3    0    0 -1.6170834161e+02 +2.0619225336e+02 -1.1642478806e+02 2.8673954099e+02 0.0000000000e+00 0.0000e+00 1.0000e+00
        1  1    3    3  501    0 +1.6170950359e+02 -2.0619440786e+02 -7.7691649635e+02 8.1991788594e+02 0.0000000000e+00 0.0000e+00 1.0000e+00
       21  1    1    2  502  501 -1.1619852819e-03 +2.1544949160e-03 +1.6805773484e-03 2.9692420518e-03 0.0000000000e+00 0.0000e+00 -1.0000e+00
<mgrwt>
<rscale>  1 0.65317074E+03</rscale>
<asrwt>0</asrwt>
<pdfrwt beam="1">  1        1 0.38785680E+00 0.65317074E+03</pdfrwt>
<pdfrwt beam="2">0</pdfrwt>
<totfact> 0.15139520E+00</totfact>
</mgrwt>
</event>
<event>
 6      1 +5.6466785e-02 6.49300900e+02 7.81860800e-03 9.80809200e-02
        1 -1    0    0  502    0 +0.0000000000e+00 +0.0000000000e+00 +1.0539795206e+02 1.0539795206e+02 0.0000000000e+00 0.0000e+00 1.0000e+00
       13 -1    0    0    0    0 -0.0000000000e+00 -0.0000000000e+00 -1.0000000000e+03 1.0000000000e+03 0.0000000000e+00 0.0000e+00 1.0000e+00
  9000005  2    1    2  501    0 -2.4098415679e-05 +2.6727315436e-05 -8.9460207806e+02 1.1053979051e+03 6.4930089373e+02 0.0000e+00 0.0000e+00
       13  1    3    3    0    0 +2.4925230421e+02 -4.2466079084e+01 -1.0062143502e+02 2.7213002813e+02 0.0000000000e+00 0.0000e+00 1.0000e+00
        3  1    3    3  501    0 -2.4925232831e+02 +4.2466105811e+01 -7.9398064304e+02 8.3326787700e+02 0.0000000000e+00 0.0000e+00 1.0000e+00
       21  1    1    2  502  501 +2.4098415670e-05 -2.6727315439e-05 +3.0124018639e-05 4.6931221243e-05 0.0000000000e+00 0.0000e+00 -1.0000e+00
<mgrwt>
<rscale>  1 0.64930089E+03</rscale>
<asrwt>0</asrwt>
<pdfrwt beam="1">  1        1 0.38326609E+00 0.64930089E+03</pdfrwt>
<pdfrwt beam="2">0</pdfrwt>
<totfact> 0.15875754E+00</totfact>
</mgrwt>
</event>
<event>
 6      1 +5.6466785e-02 6.21548000e+02 7.81860800e-03 9.86168200e-02
        1 -1    0    0  502    0 +0.0000000000e+00 +0.0000000000e+00 +9.6581026011e+01 9.6581026011e+01 0.0000000000e+00 0.0000e+00 1.0000e+00
       13 -1    0    0    0    0 -0.0000000000e+00 -0.0000000000e+00 -1.0000000000e+03 1.0000000000e+03 0.0000000000e+00 0.0000e+00 1.0000e+00
  9000005  2    1    2  501    0 -8.3227658507e-05 +8.3229064956e-05 -9.0341950253e+02 1.0965804845e+03 6.2154803635e+02 0.0000e+00 0.0000e+00
       13  1    3    3    0    0 +2.1780628059e+02 +2.0925582642e+02 -5.8079032797e+02 6.5463347135e+02 0.0000000000e+00 0.0000e+00 1.0000e+00
        3  1    3    3  501    0 -2.1780636381e+02 -2.0925574319e+02 -3.2262917456e+02 4.4194701317e+02 0.0000000000e+00 0.0000e+00 1.0000e+00
       21  1    1    2  502  501 +8.3227658503e-05 -8.3229064938e-05 +5.2853900589e-04 5.4148628896e-04 0.0000000000e+00 0.0000e+00 -1.0000e+00
<mgrwt>
<rscale>  1 0.62154804E+03</rscale>
<asrwt>0</asrwt>
<pdfrwt beam="1">  1        1 0.35120447E+00 0.62154804E+03</pdfrwt>
<pdfrwt beam="2">0</pdfrwt>
<totfact> 0.22059353E+00</totfact>
</mgrwt>
</event>
<event>
 6      1 +5.6466785e-02 6.43996700e+02 7.81860800e-03 9.81811000e-02
        1 -1    0    0  502    0 +0.0000000000e+00 +0.0000000000e+00 +1.0573647554e+02 1.0573647554e+02 0.0000000000e+00 0.0000e+00 1.0000e+00
       13 -1    0    0    0    0 -0.0000000000e+00 -0.0000000000e+00 -1.0000000000e+03 1.0000000000e+03 0.0000000000e+00 0.0000e+00 1.0000e+00
  9000005  2    1    2  501    0 -1.1499601156e-01 +1.4558917250e-02 -8.9631525775e+02 1.1036814705e+03 6.4399668765e+02 0.0000e+00 0.0000e+00
       13  1    3    3    0    0 +2.2081741842e+02 +1.9581022496e+02 -6.6863980071e+02 7.3087697978e+02 0.0000000000e+00 0.0000e+00 1.0000e+00
        1  1    3    3  501    0 -2.2093241444e+02 -1.9579566604e+02 -2.2767545704e+02 3.7280449076e+02 0.0000000000e+00 0.0000e+00 1.0000e+00
       21  1    1    2  502  501 +1.1499601156e-01 -1.4558917250e-02 +2.0517332917e+00 2.0550049988e+00 0.0000000000e+00 0.0000e+00 -1.0000e+00
<mgrwt>
<rscale>  1 0.64399670E+03</rscale>
<asrwt>0</asrwt>
<pdfrwt beam="1">  1        1 0.38449709E+00 0.64399670E+03</pdfrwt>
<pdfrwt beam="2">0</pdfrwt>
<totfact> 0.15693492E+00</totfact>
</mgrwt>
</event>
<event>
 6      1 +5.6466785e-02 6.48538500e+02 7.81860800e-03 9.80952600e-02
        1 -1    0    0  502    0 +0.0000000000e+00 +0.0000000000e+00 +1.0515103536e+02 1.0515103536e+02 0.0000000000e+00 0.0000e+00 1.0000e+00
       13 -1    0    0    0    0 -0.0000000000e+00 -0.0000000000e+00 -1.0000000000e+03 1.0000000000e+03 0.0000000000e+00 0.0000e+00 1.0000e+00
  9000005  2    1    2  501    0 +9.0253266522e-04 +6.1090737734e-04 -8.9484870783e+02 1.1051499157e+03 6.4853845389e+02 0.0000e+00 0.0000e+00
       13  1    3    3    0    0 +3.2226649594e+01 +2.8055924279e+02 -7.1900059489e+02 7.7247258923e+02 0.0000000000e+00 0.0000e+00 1.0000e+00
        1  1    3    3  501    0 -3.2225747062e+01 -2.8055863188e+02 -1.7584811294e+02 3.3267732643e+02 0.0000000000e+00 0.0000e+00 1.0000e+00
       21  1    1    2  502  501 -9.0253266522e-04 -6.1090737738e-04 -2.5680729728e-04 1.1196977375e-03 0.0000000000e+00 0.0000e+00 1.0000e+00
<mgrwt>
<rscale>  1 0.64853845E+03</rscale>
<asrwt>0</asrwt>
<pdfrwt beam="1">  1        1 0.38236821E+00 0.64853845E+03</pdfrwt>
<pdfrwt beam="2">0</pdfrwt>
<totfact> 0.16023691E+00</totfact>
</mgrwt>
</event>
<event>
 6      1 +5.6466785e-02 6.36489100e+02 7.81860800e-03 9.83246700e-02
        1 -1    0    0  502    0 +0.0000000000e+00 +0.0000000000e+00 +1.0128546928e+02 1.0128546928e+02 0.0000000000e+00 0.0000e+00 1.0000e+00
       13 -1    0    0    0    0 -0.0000000000e+00 -0.0000000000e+00 -1.0000000000e+03 1.0000000000e+03 0.0000000000e+00 0.0000e+00 1.0000e+00
  9000005  2    1    2  501    0 -5.5612645326e-05 +6.4117750333e-04 -8.9872038756e+02 1.1012795772e+03 6.3648909819e+02 0.0000e+00 0.0000e+00
       13  1    3    3    0    0 -2.8956433028e+02 +8.8038654596e+01 -2.7911518856e+02 4.1170814245e+02 0.0000000000e+00 0.0000e+00 1.0000e+00
        1  1    3    3  501    0 +2.8956427467e+02 -8.8038013418e+01 -6.1960519900e+02 6.8957143473e+02 0.0000000000e+00 0.0000e+00 1.0000e+00
       21  1    1    2  502  501 +5.5612645313e-05 -6.4117750333e-04 +5.8568445972e-03 5.8920989463e-03 0.0000000000e+00 0.0000e+00 1.0000e+00
<mgrwt>
<rscale>  1 0.63648910E+03</rscale>
<asrwt>0</asrwt>
<pdfrwt beam="1">  1        1 0.36831157E+00 0.63648910E+03</pdfrwt>
<pdfrwt beam="2">0</pdfrwt>
<totfact> 0.18518544E+00</totfact>
</mgrwt>
</event>
<event>
 6      1 +5.6466785e-02 4.76128300e+02 7.81860800e-03 1.02020500e-01
        1 -1    0    0  502    0 +0.0000000000e+00 +0.0000000000e+00 +5.6828457510e+01 5.6828457510e+01 0.0000000000e+00 0.0000e+00 1.0000e+00
       13 -1    0    0    0    0 -0.0000000000e+00 -0.0000000000e+00 -1.0000000000e+03 1.0000000000e+03 0.0000000000e+00 0.0000e+00 1.0000e+00
  9000005  2    1    2  501    0 -6.0325147375e-02 -2.1801404090e-02 -9.4331837425e+02 1.0566682265e+03 4.7612832462e+02 0.0000e+00 0.0000e+00
       13  1    3    3    0    0 -2.5099853246e+01 +1.3287922988e+02 -9.0646648324e+02 9.1649788739e+02 0.0000000000e+00 0.0000e+00 1.0000e+00
        1  1    3    3  501    0 +2.5039528098e+01 -1.3290103128e+02 -3.6851891010e+01 1.4017033907e+02 0.0000000000e+00 0.0000e+00 1.0000e+00
       21  1    1    2  502  501 +6.0325147375e-02 +2.1801404090e-02 +1.4683175754e-01 1.6023105082e-01 0.0000000000e+00 0.0000e+00 1.0000e+00
<mgrwt>
<rscale>  1 0.47612833E+03</rscale>
<asrwt>0</asrwt>
<pdfrwt beam="1">  1        1 0.20664937E+00 0.47612833E+03</pdfrwt>
<pdfrwt beam="2">0</pdfrwt>
<totfact> 0.96300233E+00</totfact>
</mgrwt>
</event>
<event>
 6      1 +5.6466785e-02 6.54558000e+02 7.81860800e-03 9.79826400e-02
        1 -1    0    0  502    0 +0.0000000000e+00 +0.0000000000e+00 +1.0711429620e+02 1.0711429620e+02 0.0000000000e+00 0.0000e+00 1.0000e+00
       13 -1    0    0    0    0 -0.0000000000e+00 -0.0000000000e+00 -1.0000000000e+03 1.0000000000e+03 0.0000000000e+00 0.0000e+00 1.0000e+00
  9000005  2    1    2  501    0 -1.0179789058e-03 -1.9605249807e-04 -8.9288833606e+02 1.1071114672e+03 6.5455803411e+02 0.0000e+00 0.0000e+00
       13  1    3    3    0    0 +1.0507707966e+02 -2.2406215692e+02 -8.0867932061e+02 8.4569928841e+02 0.0000000000e+00 0.0000e+00 1.0000e+00
        3  1    3    3  501    0 -1.0507809764e+02 +2.2406196087e+02 -8.4209015450e+01 2.6141217874e+02 0.0000000000e+00 0.0000e+00 1.0000e+00
       21  1    1    2  502  501 +1.0179789058e-03 +1.9605249808e-04 +2.6322653319e-03 2.8290525645e-03 0.0000000000e+00 0.0000e+00 1.0000e+00
<mgrwt>
<rscale>  1 0.65455803E+03</rscale>
<asrwt>0</asrwt>
<pdfrwt beam="1">  1        1 0.38950735E+00 0.65455803E+03</pdfrwt>
<pdfrwt beam="2">0</pdfrwt>
<totfact> 0.14882838E+00</totfact>
</mgrwt>
</event>
<event>
 6      1 +5.6466785e-02 5.75954900e+02 7.81860800e-03 9.95658700e-02
        1 -1    0    0  502    0 +0.0000000000e+00 +0.0000000000e+00 +8.2946150207e+01 8.2946150207e+01 0.0000000000e+00 0.0000e+00 1.0000e+00
       13 -1    0    0    0    0 -0.0000000000e+00 -0.0000000000e+00 -1.0000000000e+03 1.0000000000e+03 0.0000000000e+00 0.0000e+00 1.0000e+00
  9000005  2    1    2  501    0 -1.2514437935e-03 +2.6494724204e-03 -9.1706884301e+02 1.0829308734e+03 5.7595487118e+02 0.0000e+00 0.0000e+00
       13  1    3    3    0    0 +8.6198106047e+01 -2.2122312349e+02 -1.5210297532e+02 2.8196648551e+02 0.0000000000e+00 0.0000e+00 1.0000e+00
        3  1    3    3  501    0 -8.6199357491e+01 +2.2122577296e+02 -7.6496586769e+02 8.0096438784e+02 0.0000000000e+00 0.0000e+00 1.0000e+00
       21  1    1    2  502  501 +1.2514437935e-03 -2.6494724204e-03 +1.4993214358e-02 1.5276854796e-02 0.0000000000e+00 0.0000e+00 1.0000e+00
<mgrwt>
<rscale>  1 0.57595487E+03</rscale>
<asrwt>0</asrwt>
<pdfrwt beam="1">  1        1 0.30162300E+00 0.57595487E+03</pdfrwt>
<pdfrwt beam="2">0</pdfrwt>
<totfact> 0.36463270E+00</totfact>
</mgrwt>
</event>
<event>
 6      1 +5.6466785e-02 6.51395900e+02 7.81860800e-03 9.80416300e-02
        1 -1    0    0  502    0 +0.0000000000e+00 +0.0000000000e+00 +1.0607944916e+02 1.0607944916e+02 0.0000000000e+00 0.0000e+00 1.0000e+00
       13 -1    0    0    0    0 -0.0000000000e+00 -0.0000000000e+00 -1.0000000000e+03 1.0000000000e+03 0.0000000000e+00 0.0000e+00 1.0000e+00
  9000005  2    1    2  501    0 +1.0760932042e-05 +7.2341359669e-05 -8.9392085670e+02 1.1060791347e+03 6.5139585057e+02 0.0000e+00 0.0000e+00
       13  1    3    3    0    0 +8.2144814534e+01 -2.7644787659e+02 -7.0396093329e+02 7.6074450022e+02 0.0000000000e+00 0.0000e+00 1.0000e+00
        3  1    3    3  501    0 -8.2144803773e+01 +2.7644794893e+02 -1.8995992341e+02 3.4533463446e+02 0.0000000000e+00 0.0000e+00 1.0000e+00
       21  1    1    2  502  501 -1.0760932045e-05 -7.2341359652e-05 +3.0585098087e-04 3.1447399332e-04 0.0000000000e+00 0.0000e+00 1.0000e+00
<mgrwt>
<rscale>  1 0.65139585E+03</rscale>
<asrwt>0</asrwt>
<pdfrwt beam="1">  1        1 0.38574426E+00 0.65139585E+03</pdfrwt>
<pdfrwt beam="2">0</pdfrwt>
<totfact> 0.15474178E+00</totfact>
</mgrwt>
</event>
<event>
 6      1 +5.6466785e-02 6.51121200e+02 7.81860800e-03 9.80467800e-02
        1 -1    0    0  502    0 +0.0000000000e+00 +0.0000000000e+00 +1.0598970423e+02 1.0598970423e+02 0.0000000000e+00 0.0000e+00 1.0000e+00
       13 -1    0    0    0    0 -0.0000000000e+00 -0.0000000000e+00 -1.0000000000e+03 1.0000000000e+03 0.0000000000e+00 0.0000e+00 1.0000e+00
  9000005  2    1    2  501    0 +4.3804641621e-06 +5.1164276726e-06 -8.9401030173e+02 1.1059896952e+03 6.5112117642e+02 0.0000e+00 0.0000e+00
       13  1    3    3    0    0 +1.1923097625e+02 +4.6172316033e+01 -9.5556786845e+02 9.6408394846e+02 0.0000000000e+00 0.0000e+00 1.0000e+00
        3  1    3    3  501    0 -1.1923097187e+02 -4.6172310916e+01 +6.1557566724e+01 1.4190574678e+02 0.0000000000e+00 0.0000e+00 1.0000e+00
       21  1    1    2  502  501 -4.3804641739e-06 -5.1164276731e-06 +5.9581825029e-06 8.9925656657e-06 0.0000000000e+00 0.0000e+00 -1.0000e+00
<mgrwt>
<rscale>  1 0.65112118E+03</rscale>
<asrwt>0</asrwt>
<pdfrwt beam="1">  1        1 0.38541792E+00 0.65112118E+03</pdfrwt>
<pdfrwt beam="2">0</pdfrwt>
<totfact> 0.15526500E+00</totfact>
</mgrwt>
</event>
<event>
 6      1 +5.6466785e-02 6.38622800e+02 7.81860800e-03 9.82836500e-02
        1 -1    0    0  502    0 +0.0000000000e+00 +0.0000000000e+00 +1.0195980699e+02 1.0195980699e+02 0.0000000000e+00 0.0000e+00 1.0000e+00
       13 -1    0    0    0    0 -0.0000000000e+00 -0.0000000000e+00 -1.0000000000e+03 1.0000000000e+03 0.0000000000e+00 0.0000e+00 1.0000e+00
  9000005  2    1    2  501    0 +3.3075448123e-06 -2.1605975803e-05 -8.9804023707e+02 1.1019597578e+03 6.3862276849e+02 0.0000e+00 0.0000e+00
       13  1    3    3    0    0 +2.5443647646e+01 +3.1811251927e+02 -4.3037171663e+02 5.3578238922e+02 0.0000000000e+00 0.0000e+00 1.0000e+00
        3  1    3    3  501    0 -2.5443644339e+01 -3.1811254087e+02 -4.6766852044e+02 5.6617736859e+02 0.0000000000e+00 0.0000e+00 1.0000e+00
       21  1    1    2  502  501 -3.3075448097e-06 +2.1605975771e-05 +4.4062454283e-05 4.9185952457e-05 0.0000000000e+00 0.0000e+00 1.0000e+00
<mgrwt>
<rscale>  1 0.63862277E+03</rscale>
<asrwt>0</asrwt>
<pdfrwt beam="1">  1        1 0.37076372E+00 0.63862277E+03</pdfrwt>
<pdfrwt beam="2">0</pdfrwt>
<totfact> 0.18058052E+00</totfact>
</mgrwt>
</event>
<event>
 6      1 +5.6466785e-02 6.14193600e+02 7.81860800e-03 9.87638900e-02
        1 -1    0    0  502    0 +0.0000000000e+00 +0.0000000000e+00 +9.4310293551e+01 9.4310293551e+01 0.0000000000e+00 0.0000e+00 1.0000e+00
       13 -1    0    0    0    0 -0.0000000000e+00 -0.0000000000e+00 -1.0000000000e+03 1.0000000000e+03 0.0000000000e+00 0.0000e+00 1.0000e+00
  9000005  2    1    2  501    0 -4.5448748486e-03 -1.2146929005e-03 -9.0568746533e+02 1.0943050826e+03 6.1419364123e+02 0.0000e+00 0.0000e+00
       13  1    3    3    0    0 +8.9067498386e+01 -7.7645155745e+01 -9.5787184667e+02 9.6513225214e+02 0.0000000000e+00 0.0000e+00 1.0000e+00
        1  1    3    3  501    0 -8.9072043261e+01 +7.7643941053e+01 +5.2184381341e+01 1.2917283046e+02 0.0000000000e+00 0.0000e+00 1.0000e+00
       21  1    1    2  502  501 +4.5448748486e-03 +1.2146929005e-03 -2.2411180814e-03 5.2109477532e-03 0.0000000000e+00 0.0000e+00 1.0000e+00
<mgrwt>
<rscale>  1 0.61419364E+03</rscale>
<asrwt>0</asrwt>
<pdfrwt beam="1">  1        1 0.34294725E+00 0.61419364E+03</pdfrwt>
<pdfrwt beam="2">0</pdfrwt>
<totfact> 0.23994227E+00</totfact>
</mgrwt>
</event>
<event>
 6      1 +5.6466785e-02 6.31867100e+02 7.81860800e-03 9.84141200e-02
        1 -1    0    0  502    0 +0.0000000000e+00 +0.0000000000e+00 +9.9834286936e+01 9.9834286936e+01 0.0000000000e+00 0.0000e+00 1.0000e+00
       13 -1    0    0    0    0 -0.0000000000e+00 -0.0000000000e+00 -1.0000000000e+03 1.0000000000e+03 0.0000000000e+00 0.0000e+00 1.0000e+00
  9000005  2    1    2  501    0 +5.4345971333e-04 -8.6007368336e-04 -9.0018598820e+02 1.0998139863e+03 6.3186706758e+02 0.0000e+00 0.0000e+00
       13  1    3    3    0    0 +2.4576854533e+02 +1.8672745321e+02 -5.6743231344e+02 6.4594794681e+02 0.0000000000e+00 0.0000e+00 1.0000e+00
        1  1    3    3  501    0 -2.4576800187e+02 -1.8672831328e+02 -3.3275367476e+02 4.5386603948e+02 0.0000000000e+00 0.0000e+00 1.0000e+00
       21  1    1    2  502  501 -5.4345971335e-04 +8.6007368334e-04 +2.0275133915e-02 2.0300643598e-02 0.0000000000e+00 0.0000e+00 1.0000e+00
<mgrwt>
<rscale>  1 0.63186707E+03</rscale>
<asrwt>0</asrwt>
<pdfrwt beam="1">  1        1 0.36303454E+00 0.63186707E+03</pdfrwt>
<pdfrwt beam="2">0</pdfrwt>
<totfact> 0.19548059E+00</totfact>
</mgrwt>
</event>
<event>
 6      1 +5.6466785e-02 6.63382900e+02 7.81860800e-03 9.78198600e-02
        1 -1    0    0  502    0 +0.0000000000e+00 +0.0000000000e+00 +1.1002157803e+02 1.1002157803e+02 0.0000000000e+00 0.0000e+00 1.0000e+00
       13 -1    0    0    0    0 -0.0000000000e+00 -0.0000000000e+00 -1.0000000000e+03 1.0000000000e+03 0.0000000000e+00 0.0000e+00 1.0000e+00
  9000005  2    1    2  501    0 +1.8050778507e-03 -2.9328696016e-03 -8.8997932039e+02 1.1100180189e+03 6.6338285448e+02 0.0000e+00 0.0000e+00
       13  1    3    3    0    0 -2.4707277261e+02 -1.4441655404e+02 -1.6440836120e+02 3.3004727734e+02 0.0000000000e+00 0.0000e+00 1.0000e+00
        3  1    3    3  501    0 +2.4707457768e+02 +1.4441362118e+02 -7.2557095919e+02 7.7997074159e+02 0.0000000000e+00 0.0000e+00 1.0000e+00
       21  1    1    2  502  501 -1.8050778507e-03 +2.9328696016e-03 +8.9842237738e-04 3.5591000148e-03 0.0000000000e+00 0.0000e+00 -1.0000e+00
<mgrwt>
<rscale>  1 0.66338285E+03</rscale>
<asrwt>0</asrwt>
<pdfrwt beam="1">  1        1 0.40007931E+00 0.66338285E+03</pdfrwt>
<pdfrwt beam="2">0</pdfrwt>
<totfact> 0.13334137E+00</totfact>
</mgrwt>
</event>
<event>
 6      1 +5.6466785e-02 6.31398700e+02 7.81860800e-03 9.84232300e-02
        1 -1    0    0  502    0 +0.0000000000e+00 +0.0000000000e+00 +1.0219269891e+02 1.0219269891e+02 0.0000000000e+00 0.0000e+00 1.0000e+00
       13 -1    0    0    0    0 -0.0000000000e+00 -0.0000000000e+00 -1.0000000000e+03 1.0000000000e+03 0.0000000000e+00 0.0000e+00 1.0000e+00
  9000005  2    1    2  501    0 +2.9442588281e-01 +2.5976464130e+00 -8.9956923114e+02 1.0990401046e+03 6.3139331277e+02 0.0000e+00 0.0000e+00
       13  1    3    3    0    0 -1.9282883889e+01 +3.1585891429e+02 -4.1949834735e+02 5.2546888278e+02 0.0000000000e+00 0.0000e+00 1.0000e+00
        1  1    3    3  501    0 +1.9577309772e+01 -3.1326126788e+02 -4.8007088379e+02 5.7357122180e+02 0.0000000000e+00 0.0000e+00 1.0000e+00
       21  1    1    2  502  501 -2.9442588281e-01 -2.5976464130e+00 +1.7619300561e+00 3.1525943301e+00 0.0000000000e+00 0.0000e+00 -1.0000e+00
<mgrwt>
<rscale>  1 0.63139872E+03</rscale>
<asrwt>0</asrwt>
<pdfrwt beam="1">  1        1 0.37161060E+00 0.63139872E+03</pdfrwt>
<pdfrwt beam="2">0</pdfrwt>
<totfact> 0.17927727E+00</totfact>
</mgrwt>
</event>
<event>
 6      1 +5.6466785e-02 6.20792100e+02 7.81860800e-03 9.86318400e-02
        3 -1    0    0  502    0 +0.0000000000e+00 +0.0000000000e+00 +9.6376620689e+01 9.6376620689e+01 0.0000000000e+00 0.0000e+00 1.0000e+00
       13 -1    0    0    0    0 -0.0000000000e+00 -0.0000000000e+00 -1.0000000000e+03 1.0000000000e+03 0.0000000000e+00 0.0000e+00 1.0000e+00
  9000005  2    1    2  501    0 +1.9959306218e-03 +3.2138513171e-04 -9.0365426266e+02 1.0963456712e+03 6.2079207825e+02 0.0000e+00 0.0000e+00
       13  1    3    3    0    0 +3.7633473019e+01 +2.7094169862e+02 -1.9275323204e+02 3.3463336774e+02 0.0000000000e+00 0.0000e+00 1.0000e+00
        3  1    3    3  501    0 -3.7631477089e+01 -2.7094137724e+02 -7.1090103062e+02 7.6171230350e+02 0.0000000000e+00 0.0000e+00 1.0000e+00
       21  1    1    2  502  501 -1.9959306218e-03 -3.2138513174e-04 +3.0883349059e-02 3.0949447112e-02 0.0000000000e+00 0.0000e+00 -1.0000e+00
<mgrwt>
<rscale>  1 0.62079208E+03</rscale>
<asrwt>0</asrwt>
<pdfrwt beam="1">  1        3 0.35046118E+00 0.62079208E+03</pdfrwt>
<pdfrwt beam="2">0</pdfrwt>
<totfact> 0.10878699E-01</totfact>
</mgrwt>
</event>
<event>
 6      1 +5.6466785e-02 6.44792900e+02 7.81860800e-03 9.81659900e-02
        1 -1    0    0  502    0 +0.0000000000e+00 +0.0000000000e+00 +1.0393950459e+02 1.0393950459e+02 0.0000000000e+00 0.0000e+00 1.0000e+00
       13 -1    0    0    0    0 -0.0000000000e+00 -0.0000000000e+00 -1.0000000000e+03 1.0000000000e+03 0.0000000000e+00 0.0000e+00 1.0000e+00
  9000005  2    1    2  501    0 -1.7676024726e-05 -4.6593351044e-06 -8.9606053977e+02 1.1039394566e+03 6.4479286048e+02 0.0000e+00 0.0000e+00
       13  1    3    3    0    0 +1.4169372953e+02 -2.3108380655e+02 -7.4684957048e+02 7.9451942680e+02 0.0000000000e+00 0.0000e+00 1.0000e+00
        1  1    3    3  501    0 -1.4169374720e+02 +2.3108380189e+02 -1.4921096930e+02 3.0942002981e+02 0.0000000000e+00 0.0000e+00 1.0000e+00
       21  1    1    2  502  501 +1.7676024724e-05 +4.6593351094e-06 +4.4366752905e-05 4.7984997833e-05 0.0000000000e+00 0.0000e+00 -1.0000e+00
<mgrwt>
<rscale>  1 0.64479286E+03</rscale>
<asrwt>0</asrwt>
<pdfrwt beam="1">  1        1 0.37796263E+00 0.64479286E+03</pdfrwt>
<pdfrwt beam="2">0</pdfrwt>
<totfact> 0.16768790E+00</totfact>
</mgrwt>
</event>
<event>
 6      1 +5.6466785e-02 6.55763400e+02 7.81860800e-03 9.79602400e-02
        3 -1    0    0  502    0 +0.0000000000e+00 +0.0000000000e+00 +1.0753485380e+02 1.0753485380e+02 0.0000000000e+00 0.0000e+00 1.0000e+00
       13 -1    0    0    0    0 -0.0000000000e+00 -0.0000000000e+00 -1.0000000000e+03 1.0000000000e+03 0.0000000000e+00 0.0000e+00 1.0000e+00
  9000005  2    1    2  501    0 +7.6537103079e-03 +3.9116754902e-03 -8.9249285804e+02 1.1075058396e+03 6.5576343517e+02 0.0000e+00 0.0000e+00
       13  1    3    3    0    0 +4.8981419981e+01 -3.2154979807e+02 -3.7636320045e+02 4.9743613740e+02 0.0000000000e+00 0.0000e+00 1.0000e+00
        1  1    3    3  501    0 -4.8973766270e+01 +3.2155370974e+02 -5.1612965759e+02 6.1006970215e+02 0.0000000000e+00 0.0000e+00 1.0000e+00
       21  1    1    2  502  501 -7.6537103079e-03 -3.9116754902e-03 +2.7711846788e-02 2.9014254066e-02 0.0000000000e+00 0.0000e+00 1.0000e+00
<mgrwt>
<rscale>  1 0.65576344E+03</rscale>
<asrwt>0</asrwt>
<pdfrwt beam="1">  1        3 0.39103666E+00 0.65576344E+03</pdfrwt>
<pdfrwt beam="2">0</pdfrwt>
<totfact> 0.65953040E-02</totfact>
</mgrwt>
</event>
<event>
 6      1 +5.6466785e-02 6.50143700e+02 7.81860800e-03 9.80651000e-02
        1 -1    0    0  502    0 +0.0000000000e+00 +0.0000000000e+00 +1.0568406558e+02 1.0568406558e+02 0.0000000000e+00 0.0000e+00 1.0000e+00
       13 -1    0    0    0    0 -0.0000000000e+00 -0.0000000000e+00 -1.0000000000e+03 1.0000000000e+03 0.0000000000e+00 0.0000e+00 1.0000e+00
  9000005  2    1    2  501    0 -5.8310464670e-05 +2.3195110208e-04 -8.9432829394e+02 1.1056717037e+03 6.5014369113e+02 0.0000e+00 0.0000e+00
       13  1    3    3    0    0 -2.4023763623e+01 -3.2236807853e+02 -5.0541770624e+02 5.9995447915e+02 0.0000000000e+00 0.0000e+00 1.0000e+00
        1  1    3    3  501    0 +2.4023705312e+01 +3.2236831048e+02 -3.8891058770e+02 5.0571722459e+02 0.0000000000e+00 0.0000e+00 1.0000e+00
       21  1    1    2  502  501 +5.8310464669e-05 -2.3195110208e-04 +1.2359524530e-02 1.2361838376e-02 0.0000000000e+00 0.0000e+00 1.0000e+00
<mgrwt>
<rscale>  1 0.65014369E+03</rscale>
<asrwt>0</asrwt>
<pdfrwt beam="1">  1        1 0.38430650E+00 0.65014369E+03</pdfrwt>
<pdfrwt beam="2">0</pdfrwt>
<totfact> 0.15706075E+00</totfact>
</mgrwt>
</event>
<event>
 6      1 +5.6466785e-02 6.39613400e+02 7.81860800e-03 9.82646700e-02
        1 -1    0    0  502    0 +0.0000000000e+00 +0.0000000000e+00 +1.0227639103e+02 1.0227639103e+02 0.0000000000e+00 0.0000e+00 1.0000e+00
       13 -1    0    0    0    0 -0.0000000000e+00 -0.0000000000e+00 -1.0000000000e+03 1.0000000000e+03 0.0000000000e+00 0.0000e+00 1.0000e+00
  9000005  2    1    2  501    0 -7.9731741764e-05 +7.0483157913e-05 -8.9772364227e+02 1.1022762795e+03 6.3961336641e+02 0.0000e+00 0.0000e+00
       13  1    3    3    0    0 +1.0424231022e+02 +2.6243568902e+02 -1.9014506586e+02 3.4043221966e+02 0.0000000000e+00 0.0000e+00 1.0000e+00
        3  1    3    3  501    0 -1.0424238996e+02 -2.6243561854e+02 -7.0757857641e+02 7.6184405985e+02 0.0000000000e+00 0.0000e+00 1.0000e+00
       21  1    1    2  502  501 +7.9731741753e-05 -7.0483157928e-05 +3.3300519616e-05 1.1150762665e-04 0.0000000000e+00 0.0000e+00 -1.0000e+00
<mgrwt>
<rscale>  1 0.63961337E+03</rscale>
<asrwt>0</asrwt>
<pdfrwt beam="1">  1        1 0.37191493E+00 0.63961337E+03</pdfrwt>
<pdfrwt beam="2">0</pdfrwt>
<totfact> 0.17845695E+00</totfact>
</mgrwt>
</event>
<event>
 6      1 +5.6466785e-02 6.53639900e+02 7.81860800e-03 9.79997300e-02
        1 -1    0    0  502    0 +0.0000000000e+00 +0.0000000000e+00 +1.0681284835e+02 1.0681284835e+02 0.0000000000e+00 0.0000e+00 1.0000e+00
       13 -1    0    0    0    0 -0.0000000000e+00 -0.0000000000e+00 -1.0000000000e+03 1.0000000000e+03 0.0000000000e+00 0.0000e+00 1.0000e+00
  9000005  2    1    2  501    0 +4.1052230527e-04 +1.2194161006e-03 -8.9318843884e+02 1.1068110284e+03 6.5363985897e+02 0.0000e+00 0.0000e+00
       13  1    3    3    0    0 +6.1550203312e+01 +1.3630786554e+02 +4.5464495545e+01 1.5631788794e+02 0.0000000000e+00 0.0000e+00 1.0000e+00
        1  1    3    3  501    0 -6.1549792789e+01 -1.3630664612e+02 -9.3865293438e+02 9.5049314042e+02 0.0000000000e+00 0.0000e+00 1.0000e+00
       21  1    1    2  502  501 -4.1052230528e-04 -1.2194161006e-03 +1.2871822637e-03 1.8199841674e-03 0.0000000000e+00 0.0000e+00 1.0000e+00
<mgrwt>
<rscale>  1 0.65363986E+03</rscale>
<asrwt>0</asrwt>
<pdfrwt beam="1">  1        1 0.38841118E+00 0.65363986E+03</pdfrwt>
<pdfrwt beam="2">0</pdfrwt>
<totfact> 0.15052834E+00</totfact>
</mgrwt>
</event>
<event>
 6      1 +5.6466785e-02 6.48199300e+02 7.81860800e-03 9.81016400e-02
        1 -1    0    0  502    0 +0.0000000000e+00 +0.0000000000e+00 +1.0504058530e+02 1.0504058530e+02 0.0000000000e+00 0.0000e+00 1.0000e+00
       13 -1    0    0    0    0 -0.0000000000e+00 -0.0000000000e+00 -1.0000000000e+03 1.0000000000e+03 0.0000000000e+00 0.0000e+00 1.0000e+00
  9000005  2    1    2  501    0 -7.6770542137e-06 -2.9666332395e-05 -8.9495940393e+02 1.1050405528e+03 6.4819926621e+02 0.0000e+00 0.0000e+00
       13  1    3    3    0    0 +3.0260842522e+02 -1.1202409287e+02 -3.9579021085e+02 5.1065756374e+02 0.0000000000e+00 0.0000e+00 1.0000e+00
        1  1    3    3  501    0 -3.0260843290e+02 +1.1202406320e+02 -4.9916919308e+02 5.9438298909e+02 0.0000000000e+00 0.0000e+00 1.0000e+00
       21  1    1    2  502  501 +7.6770541678e-06 +2.9666332409e-05 -1.0770046221e-05 3.2481107353e-05 0.0000000000e+00 0.0000e+00 1.0000e+00
<mgrwt>
<rscale>  1 0.64819927E+03</rscale>
<asrwt>0</asrwt>
<pdfrwt beam="1">  1        1 0.38196657E+00 0.64819927E+03</pdfrwt>
<pdfrwt beam="2">0</pdfrwt>
<totfact> 0.16090284E+00</totfact>
</mgrwt>
</event>
<event>
 6      1 +5.6466785e-02 6.46471900e+02 7.81860800e-03 9.81342200e-02
        1 -1    0    0  502    0 +0.0000000000e+00 +0.0000000000e+00 +1.1354857614e+02 1.1354857614e+02 0.0000000000e+00 0.0000e+00 1.0000e+00
       13 -1    0    0    0    0 -0.0000000000e+00 -0.0000000000e+00 -1.0000000000e+03 1.0000000000e+03 0.0000000000e+00 0.0000e+00 1.0000e+00
  9000005  2    1    2  501    0 +8.9200050429e+00 +4.4506499122e+00 -8.9238899453e+02 1.1019455800e+03 6.4639505635e+02 0.0000e+00 0.0000e+00
       13  1    3    3    0    0 +1.4121133959e+02 -2.6508871326e+02 -2.4243158222e+02 3.8598671012e+02 0.0000000000e+00 0.0000e+00 1.0000e+00
        3  1    3    3  501    0 -1.3229133455e+02 +2.6953936318e+02 -6.4995741231e+02 7.1595886985e+02 0.0000000000e+00 0.0000e+00 1.0000e+00
       21  1    1    2  502  501 -8.9200050429e+00 -4.4506499122e+00 +5.9375706671e+00 1.1602996166e+01 0.0000000000e+00 0.0000e+00 -1.0000e+00
<mgrwt>
<rscale>  1 0.64647192E+03</rscale>
<asrwt>0</asrwt>
<pdfrwt beam="1">  1        1 0.41290478E+00 0.64647192E+03</pdfrwt>
<pdfrwt beam="2">0</pdfrwt>
<totfact> 0.11721550E+00</totfact>
</mgrwt>
</event>
<event>
 6      1 +5.6466785e-02 6.49247000e+02 7.81860800e-03 9.80819300e-02
        1 -1    0    0  502    0 +0.0000000000e+00 +0.0000000000e+00 +1.0569307480e+02 1.0569307480e+02 0.0000000000e+00 0.0000e+00 1.0000e+00
       13 -1    0    0    0    0 -0.0000000000e+00 -0.0000000000e+00 -1.0000000000e+03 1.0000000000e+03 0.0000000000e+00 0.0000e+00 1.0000e+00
  9000005  2    1    2  501    0 -4.5559913167e-01 -9.8780051498e-02 -8.9441469580e+02 1.1052145954e+03 6.4924682241e+02 0.0000e+00 0.0000e+00
       13  1    3    3    0    0 +1.2562902302e+02 -2.4674141753e+02 -7.3544258650e+02 7.8583699111e+02 0.0000000000e+00 0.0000e+00 1.0000e+00
        1  1    3    3  501    0 -1.2608462215e+02 +2.4664263748e+02 -1.5897210930e+02 3.1937760426e+02 0.0000000000e+00 0.0000e+00 1.0000e+00
       21  1    1    2  502  501 +4.5559913167e-01 +9.8780051498e-02 +1.0777059730e-01 4.7847943425e-01 0.0000000000e+00 0.0000e+00 -1.0000e+00
<mgrwt>
<rscale>  1 0.64924699E+03</rscale>
<asrwt>0</asrwt>
<pdfrwt beam="1">  1        1 0.38433926E+00 0.64924699E+03</pdfrwt>
<pdfrwt beam="2">0</pdfrwt>
<totfact> 0.15703436E+00</totfact>
</mgrwt>
</event>
<event>
 6      1 +5.6466785e-02 6.43922600e+02 7.81860800e-03 9.81825000e-02
        1 -1    0    0  502    0 +0.0000000000e+00 +0.0000000000e+00 +1.0365908883e+02 1.0365908883e+02 0.0000000000e+00 0.0000e+00 1.0000e+00
       13 -1    0    0    0    0 -0.0000000000e+00 -0.0000000000e+00 -1.0000000000e+03 1.0000000000e+03 0.0000000000e+00 0.0000e+00 1.0000e+00
  9000005  2    1    2  501    0 +1.2603253936e-05 +1.6135140495e-05 -8.9634092383e+02 1.1036590648e+03 6.4392257259e+02 0.0000e+00 0.0000e+00
       13  1    3    3    0    0 +2.3729193870e+02 -1.7235550907e+01 -7.6376729938e+01 2.4987583570e+02 0.0000000000e+00 0.0000e+00 1.0000e+00
        1  1    3    3  501    0 -2.3729192610e+02 +1.7235567043e+01 -8.1996419389e+02 8.5378322906e+02 0.0000000000e+00 0.0000e+00 1.0000e+00
       21  1    1    2  502  501 -1.2603253943e-05 -1.6135140493e-05 +1.2658547491e-05 2.4071219189e-05 0.0000000000e+00 0.0000e+00 -1.0000e+00
<mgrwt>
<rscale>  1 0.64392257E+03</rscale>
<asrwt>0</asrwt>
<pdfrwt beam="1">  1        1 0.37694294E+00 0.64392257E+03</pdfrwt>
<pdfrwt beam="2">0</pdfrwt>
<totfact> 0.16945901E+00</totfact>
</mgrwt>
</event>
<event>
 6      1 +5.6466785e-02 6.33000900e+02 7.81860800e-03 9.83921000e-02
        1 -1    0    0  502    0 +0.0000000000e+00 +0.0000000000e+00 +1.0017261392e+02 1.0017261392e+02 0.0000000000e+00 0.0000e+00 1.0000e+00
       13 -1    0    0    0    0 -0.0000000000e+00 -0.0000000000e+00 -1.0000000000e+03 1.0000000000e+03 0.0000000000e+00 0.0000e+00 1.0000e+00
  9000005  2    1    2  501    0 -4.7153884680e-05 +1.7026444004e-04 -8.9982730641e+02 1.1001724201e+03 6.3300092624e+02 0.0000e+00 0.0000e+00
       13  1    3    3    0    0 +1.6248526305e+02 -2.6597570611e+02 -3.5427542290e+02 4.7186397639e+02 0.0000000000e+00 0.0000e+00 1.0000e+00
        3  1    3    3  501    0 -1.6248531020e+02 +2.6597587638e+02 -5.4555188351e+02 6.2830844372e+02 0.0000000000e+00 0.0000e+00 1.0000e+00
       21  1    1    2  502  501 +4.7153884669e-05 -1.7026444002e-04 -7.9672345044e-05 1.9380699404e-04 0.0000000000e+00 0.0000e+00 1.0000e+00
<mgrwt>
<rscale>  1 0.63300093E+03</rscale>
<asrwt>0</asrwt>
<pdfrwt beam="1">  1        1 0.36426482E+00 0.63300093E+03</pdfrwt>
<pdfrwt beam="2">0</pdfrwt>
<totfact> 0.19303051E+00</totfact>
</mgrwt>
</event>
<event>
 6      1 +5.6466785e-02 6.41774000e+02 7.81860800e-03 9.82233800e-02
        1 -1    0    0  502    0 +0.0000000000e+00 +0.0000000000e+00 +1.0598087687e+02 1.0598087687e+02 0.0000000000e+00 0.0000e+00 1.0000e+00
       13 -1    0    0    0    0 -0.0000000000e+00 -0.0000000000e+00 -1.0000000000e+03 1.0000000000e+03 0.0000000000e+00 0.0000e+00 1.0000e+00
  9000005  2    1    2  501    0 +5.6511963020e-01 +1.6041203239e-01 -8.9699991772e+02 1.1029427477e+03 6.4177371971e+02 0.0000e+00 0.0000e+00
       13  1    3    3    0    0 -3.5495589379e+01 +2.9662136463e+02 -6.5009344989e+02 7.1544787680e+02 0.0000000000e+00 0.0000e+00 1.0000e+00
        1  1    3    3  501    0 +3.6060709009e+01 -2.9646095260e+02 -2.4690646783e+02 3.8749487094e+02 0.0000000000e+00 0.0000e+00 1.0000e+00
       21  1    1    2  502  501 -5.6511963020e-01 -1.6041203239e-01 +2.9807945862e+00 3.0381291252e+00 0.0000000000e+00 0.0000e+00 1.0000e+00
<mgrwt>
<rscale>  1 0.64177399E+03</rscale>
<asrwt>0</asrwt>
<pdfrwt beam="1">  1        1 0.38538582E+00 0.64177399E+03</pdfrwt>
<pdfrwt beam="2">0</pdfrwt>
<totfact> 0.15558573E+00</totfact>
</mgrwt>
</event>
<event>
 6      1 +5.6466785e-02 6.26342100e+02 7.81860800e-03 9.85221300e-02
        1 -1    0    0  502    0 +0.0000000000e+00 +0.0000000000e+00 +9.8076142291e+01 9.8076142291e+01 0.0000000000e+00 0.0000e+00 1.0000e+00
       13 -1    0    0    0    0 -0.0000000000e+00 -0.0000000000e+00 -1.0000000000e+03 1.0000000000e+03 0.0000000000e+00 0.0000e+00 1.0000e+00
  9000005  2    1    2  501    0 +6.9937655098e-06 -1.6393434635e-05 -9.0192390500e+02 1.0980760917e+03 6.2634205739e+02 0.0000e+00 0.0000e+00
       13  1    3    3    0    0 -2.4121743700e+02 -1.9479150304e+02 -3.7361387690e+02 4.8550685946e+02 0.0000000000e+00 0.0000e+00 1.0000e+00
        3  1    3    3  501    0 +2.4121744399e+02 +1.9479148664e+02 -5.2831002810e+02 6.1256923229e+02 0.0000000000e+00 0.0000e+00 1.0000e+00
       21  1    1    2  502  501 -6.9937655154e-06 +1.6393434616e-05 +4.7295824547e-05 5.0542580802e-05 0.0000000000e+00 0.0000e+00 1.0000e+00
<mgrwt>
<rscale>  1 0.62634206E+03</rscale>
<asrwt>0</asrwt>
<pdfrwt beam="1">  1        1 0.35664127E+00 0.62634206E+03</pdfrwt>
<pdfrwt beam="2">0</pdfrwt>
<totfact> 0.20868715E+00</totfact>
</mgrwt>
</event>
<event>
 6      1 +5.6466785e-02 6.50761400e+02 7.81860800e-03 9.80535100e-02
        1 -1    0    0  502    0 +0.0000000000e+00 +0.0000000000e+00 +1.1202856990e+02 1.1202856990e+02 0.0000000000e+00 0.0000e+00 1.0000e+00
       13 -1    0    0    0    0 -0.0000000000e+00 -0.0000000000e+00 -1.0000000000e+03 1.0000000000e+03 0.0000000000e+00 0.0000e+00 1.0000e+00
  9000005  2    1    2  501    0 +1.6635379136e+01 +7.9471714945e+00 -8.5860432762e+02 1.0773540824e+03 6.5050021838e+02 0.0000e+00 0.0000e+00
       13  1    3    3    0    0 -3.0533784550e+02 -7.0599752925e+01 -4.9018382591e+02 5.8180383996e+02 0.0000000000e+00 0.0000e+00 1.0000e+00
        3  1    3    3  501    0 +3.2197322464e+02 +7.8546924420e+01 -3.6842050170e+02 4.9555024245e+02 0.0000000000e+00 0.0000e+00 1.0000e+00
       21  1    1    2  502  501 -1.6635379136e+01 -7.9471714945e+00 -2.9367102487e+01 3.4674487484e+01 0.0000000000e+00 0.0000e+00 1.0000e+00
<mgrwt>
<rscale>  1 0.65076142E+03</rscale>
<asrwt>0</asrwt>
<pdfrwt beam="1">  1        1 0.40737748E+00 0.65076142E+03</pdfrwt>
<pdfrwt beam="2">0</pdfrwt>
<totfact> 0.12399391E+00</totfact>
</mgrwt>
</event>
<event>
 6      1 +5.6466785e-02 6.57856500e+02 7.81860800e-03 9.79214800e-02
        1 -1    0    0  502    0 +0.0000000000e+00 +0.0000000000e+00 +1.0819718842e+02 1.0819718842e+02 0.0000000000e+00 0.0000e+00 1.0000e+00
       13 -1    0    0    0    0 -0.0000000000e+00 -0.0000000000e+00 -1.0000000000e+03 1.0000000000e+03 0.0000000000e+00 0.0000e+00 1.0000e+00
  9000005  2    1    2  501    0 -3.7573143302e-05 -1.0185850323e-04 -8.9180621563e+02 1.1081937826e+03 6.5785646888e+02 0.0000e+00 0.0000e+00
       13  1    3    3    0    0 -1.1107044268e+02 +1.3915750558e+02 -9.1180390518e+02 9.2902519670e+02 0.0000000000e+00 0.0000e+00 1.0000e+00
        1  1    3    3  501    0 +1.1107040511e+02 -1.3915760744e+02 +1.9997689551e+01 1.7916858594e+02 0.0000000000e+00 0.0000e+00 1.0000e+00
       21  1    1    2  502  501 +3.7573143295e-05 +1.0185850322e-04 +3.4040515707e-03 3.4057824346e-03 0.0000000000e+00 0.0000e+00 -1.0000e+00
<mgrwt>
<rscale>  1 0.65785647E+03</rscale>
<asrwt>0</asrwt>
<pdfrwt beam="1">  1        1 0.39344515E+00 0.65785647E+03</pdfrwt>
<pdfrwt beam="2">0</pdfrwt>
<totfact> 0.14287053E+00</totfact>
</mgrwt>
</event>
<event>
 6      1 +5.6466785e-02 6.54843500e+02 7.81860800e-03 9.79773300e-02
        1 -1    0    0  502    0 +0.0000000000e+00 +0.0000000000e+00 +1.0720517404e+02 1.0720517404e+02 0.0000000000e+00 0.0000e+00 1.0000e+00
       13 -1    0    0    0    0 -0.0000000000e+00 -0.0000000000e+00 -1.0000000000e+03 1.0000000000e+03 0.0000000000e+00 0.0000e+00 1.0000e+00
  9000005  2    1    2  501    0 +6.6879291580e-05 +1.2570961673e-05 -8.9279500383e+02 1.1072049836e+03 6.5484345979e+02 0.0000e+00 0.0000e+00
       13  1    3    3    0    0 +1.7715663546e+02 -1.3550343240e+02 -8.5169217732e+02 8.8041195959e+02 0.0000000000e+00 0.0000e+00 1.0000e+00
        1  1    3    3  501    0 -1.7715656858e+02 +1.3550344497e+02 -4.1102826508e+01 2.2679302400e+02 0.0000000000e+00 0.0000e+00 1.0000e+00
       21  1    1    2  502  501 -6.6879291575e-05 -1.2570961695e-05 +1.7787483241e-04 1.9044769551e-04 0.0000000000e+00 0.0000e+00 1.0000e+00
<mgrwt>
<rscale>  1 0.65484346E+03</rscale>
<asrwt>0</asrwt>
<pdfrwt beam="1">  1        1 0.38983782E+00 0.65484346E+03</pdfrwt>
<pdfrwt beam="2">0</pdfrwt>
<totfact> 0.14831924E+00</totfact>
</mgrwt>
</event>
<event>
 6      1 +5.6466785e-02 6.48588300e+02 7.81860800e-03 9.80943200e-02
        1 -1    0    0  502    0 +0.0000000000e+00 +0.0000000000e+00 +1.0517090026e+02 1.0517090026e+02 0.0000000000e+00 0.0000e+00 1.0000e+00
       13 -1    0    0    0    0 -0.0000000000e+00 -0.0000000000e+00 -1.0000000000e+03 1.0000000000e+03 0.0000000000e+00 0.0000e+00 1.0000e+00
  9000005  2    1    2  501    0 -3.1809356368e-03 +2.7384573238e-04 -8.9483260952e+02 1.1051661556e+03 6.4858833816e+02 0.0000e+00 0.0000e+00
       13  1    3    3    0    0 +1.3179974825e+02 -5.6121630015e+01 +4.8331833673e+01 1.5118457970e+02 0.0000000000e+00 0.0000e+00 1.0000e+00
        1  1    3    3  501    0 -1.3180292919e+02 +5.6121903860e+01 -9.4316444319e+02 9.5398157589e+02 0.0000000000e+00 0.0000e+00 1.0000e+00
       21  1    1    2  502  501 +3.1809356368e-03 -2.7384573238e-04 +3.5097781705e-03 4.7446691999e-03 0.0000000000e+00 0.0000e+00 1.0000e+00
<mgrwt>
<rscale>  1 0.64858834E+03</rscale>
<asrwt>0</asrwt>
<pdfrwt beam="1">  1        1 0.38244044E+00 0.64858834E+03</pdfrwt>
<pdfrwt beam="2">0</pdfrwt>
<totfact> 0.16011775E+00</totfact>
</mgrwt>
</event>
<event>
 6      1 +5.6466785e-02 6.39664900e+02 7.81860800e-03 9.82636800e-02
        1 -1    0    0  502    0 +0.0000000000e+00 +0.0000000000e+00 +1.1118173143e+02 1.1118173143e+02 0.0000000000e+00 0.0000e+00 1.0000e+00
       13 -1    0    0    0    0 -0.0000000000e+00 -0.0000000000e+00 -1.0000000000e+03 1.0000000000e+03 0.0000000000e+00 0.0000e+00 1.0000e+00
  9000005  2    1    2  501    0 -3.1207732996e+00 -2.4690696966e+01 -8.7063614257e+02 1.0803603193e+03 6.3918053548e+02 0.0000e+00 0.0000e+00
       13  1    3    3    0    0 +1.6670062117e+02 -1.4668400093e+02 -4.2300841714e+01 2.2604126711e+02 0.0000000000e+00 0.0000e+00 1.0000e+00
        3  1    3    3  501    0 -1.6982139446e+02 +1.2199330396e+02 -8.2833530085e+02 8.5431905215e+02 0.0000000000e+00 0.0000e+00 1.0000e+00
       21  1    1    2  502  501 +3.1207732996e+00 +2.4690696966e+01 -1.8182126000e+01 3.0821412176e+01 0.0000000000e+00 0.0000e+00 1.0000e+00
<mgrwt>
<rscale>  1 0.63966485E+03</rscale>
<asrwt>0</asrwt>
<pdfrwt beam="1">  1        1 0.40429806E+00 0.63966485E+03</pdfrwt>
<pdfrwt beam="2">0</pdfrwt>
<totfact> 0.12826319E+00</totfact>
</mgrwt>
</event>
<event>
 6      1 +5.6466785e-02 6.33465200e+02 7.81860800e-03 9.83831000e-02
        1 -1    0    0  502    0 +0.0000000000e+00 +0.0000000000e+00 +1.0219627796e+02 1.0219627796e+02 0.0000000000e+00 0.0000e+00 1.0000e+00
       13 -1    0    0    0    0 -0.0000000000e+00 -0.0000000000e+00 -1.0000000000e+03 1.0000000000e+03 0.0000000000e+00 0.0000e+00 1.0000e+00
  9000005  2    1    2  501    0 +8.4341842060e-02 +1.2721564918e-02 -8.9967938411e+02 1.1003186775e+03 6.3346522441e+02 0.0000e+00 0.0000e+00
       13  1    3    3    0    0 +7.9745394831e+01 -2.4826785868e+02 -7.6215160224e+02 8.0552549460e+02 0.0000000000e+00 0.0000e+00 1.0000e+00
        3  1    3    3  501    0 -7.9661052989e+01 +2.4828058024e+02 -1.3752778187e+02 2.9479318288e+02 0.0000000000e+00 0.0000e+00 1.0000e+00
       21  1    1    2  502  501 -8.4341842060e-02 -1.2721564918e-02 +1.8756620624e+00 1.8776004785e+00 0.0000000000e+00 0.0000e+00 1.0000e+00
<mgrwt>
<rscale>  1 0.63346523E+03</rscale>
<asrwt>0</asrwt>
<pdfrwt beam="1">  1        1 0.37162361E+00 0.63346523E+03</pdfrwt>
<pdfrwt beam="2">0</pdfrwt>
<totfact> 0.17918547E+00</totfact>
</mgrwt>
</event>
<event>
 6      1 +5.6466785e-02 6.32593200e+02 7.81860800e-03 9.84000100e-02
        1 -1    0    0  502    0 +0.0000000000e+00 +0.0000000000e+00 +1.0004939021e+02 1.0004939021e+02 0.0000000000e+00 0.0000e+00 1.0000e+00
       13 -1    0    0    0    0 -0.0000000000e+00 -0.0000000000e+00 -1.0000000000e+03 1.0000000000e+03 0.0000000000e+00 0.0000e+00 1.0000e+00
  9000005  2    1    2  501    0 +6.3014532756e-05 +2.3278228447e-04 -8.9995645145e+02 1.1000435436e+03 6.3259322099e+02 0.0000e+00 0.0000e+00
       13  1    3    3    0    0 -1.2686231155e+02 +3.4074995322e+01 +5.0367360183e+01 1.4068412266e+02 0.0000000000e+00 0.0000e+00 1.0000e+00
        1  1    3    3  501    0 +1.2686237456e+02 -3.4074762539e+01 -9.5032381164e+02 9.5935942091e+02 0.0000000000e+00 0.0000e+00 1.0000e+00
       21  1    1    2  502  501 -6.3014532752e-05 -2.3278228447e-04 +5.8416593083e-03 5.8466350918e-03 0.0000000000e+00 0.0000e+00 1.0000e+00
<mgrwt>
<rscale>  1 0.63259322E+03</rscale>
<asrwt>0</asrwt>
<pdfrwt beam="1">  1        1 0.36381673E+00 0.63259322E+03</pdfrwt>
<pdfrwt beam="2">0</pdfrwt>
<totfact> 0.19391925E+00</totfact>
</mgrwt>
</event>
<event>
 6      1 +5.6466785e-02 6.51122200e+02 7.81860800e-03 9.80467600e-02
        1 -1    0    0  502    0 +0.0000000000e+00 +0.0000000000e+00 +1.0599024229e+02 1.0599024229e+02 0.0000000000e+00 0.0000e+00 1.0000e+00
       13 -1    0    0    0    0 -0.0000000000e+00 -0.0000000000e+00 -1.0000000000e+03 1.0000000000e+03 0.0000000000e+00 0.0000e+00 1.0000e+00
  9000005  2    1    2  501    0 -1.5700792829e-05 +9.7989727124e-06 -8.9400995772e+02 1.1059900414e+03 6.5112223677e+02 0.0000e+00 0.0000e+00
       13  1    3    3    0    0 -2.0299449726e+02 -2.4720203978e+02 -3.4404141559e+02 4.6976601626e+02 0.0000000000e+00 0.0000e+00 1.0000e+00
        3  1    3    3  501    0 +2.0299448156e+02 +2.4720204958e+02 -5.4996854213e+02 6.3622402516e+02 0.0000000000e+00 0.0000e+00 1.0000e+00
       21  1    1    2  502  501 +1.5700792819e-05 -9.7989727206e-06 +2.0001679095e-04 2.0087123095e-04 0.0000000000e+00 0.0000e+00 -1.0000e+00
<mgrwt>
<rscale>  1 0.65112224E+03</rscale>
<asrwt>0</asrwt>
<pdfrwt beam="1">  1        1 0.38541988E+00 0.65112224E+03</pdfrwt>
<pdfrwt beam="2">0</pdfrwt>
<totfact> 0.15526188E+00</totfact>
</mgrwt>
</event>
<event>
 6      1 +5.6466785e-02 6.51970600e+02 7.81860800e-03 9.80308800e-02
        1 -1    0    0  502    0 +0.0000000000e+00 +0.0000000000e+00 +1.0626935795e+02 1.0626935795e+02 0.0000000000e+00 0.0000e+00 1.0000e+00
       13 -1    0    0    0    0 -0.0000000000e+00 -0.0000000000e+00 -1.0000000000e+03 1.0000000000e+03 0.0000000000e+00 0.0000e+00 1.0000e+00
  9000005  2    1    2  501    0 +6.2080062456e-05 -3.8267717778e-04 -8.9373356037e+02 1.1062664140e+03 6.5197062954e+02 0.0000e+00 0.0000e+00
       13  1    3    3    0    0 +3.7191559926e+00 -2.4896113566e+02 -8.9847785853e+01 2.6470380392e+02 0.0000000000e+00 0.0000e+00 1.0000e+00
        3  1    3    3  501    0 -3.7190939125e+00 +2.4896075298e+02 -8.0388577452e+02 8.4156261006e+02 0.0000000000e+00 0.0000e+00 1.0000e+00
       21  1    1    2  502  501 -6.2080062456e-05 +3.8267717777e-04 +2.9183260986e-03 2.9439638201e-03 0.0000000000e+00 0.0000e+00 -1.0000e+00
<mgrwt>
<rscale>  1 0.65197063E+03</rscale>
<asrwt>0</asrwt>
<pdfrwt beam="1">  1        1 0.38643484E+00 0.65197063E+03</pdfrwt>
<pdfrwt beam="2">0</pdfrwt>
<totfact> 0.15364030E+00</totfact>
</mgrwt>
</event>
<event>
 6      1 +5.6466785e-02 6.01706200e+02 7.81860800e-03 9.90187300e-02
        3 -1    0    0  502    0 +0.0000000000e+00 +0.0000000000e+00 +9.0676231506e+01 9.0676231506e+01 0.0000000000e+00 0.0000e+00 1.0000e+00
       13 -1    0    0    0    0 -0.0000000000e+00 -0.0000000000e+00 -1.0000000000e+03 1.0000000000e+03 0.0000000000e+00 0.0000e+00 1.0000e+00
  9000005  2    1    2  501    0 -3.3567166388e-02 -6.6907709982e-02 -9.0947802995e+02 1.0905047672e+03 6.0170620306e+02 0.0000e+00 0.0000e+00
       13  1    3    3    0    0 -1.6480573661e+02 -1.5458868495e+02 -9.4718014521e+01 2.4501039694e+02 0.0000000000e+00 0.0000e+00 1.0000e+00
        1  1    3    3  501    0 +1.6477216944e+02 +1.5452177724e+02 -8.1476001543e+02 8.4549437030e+02 0.0000000000e+00 0.0000e+00 1.0000e+00
       21  1    1    2  502  501 +3.3567166388e-02 +6.6907709982e-02 +1.5426146020e-01 1.7146426572e-01 0.0000000000e+00 0.0000e+00 1.0000e+00
<mgrwt>
<rscale>  1 0.60170621E+03</rscale>
<asrwt>0</asrwt>
<pdfrwt beam="1">  1        3 0.32973245E+00 0.60170621E+03</pdfrwt>
<pdfrwt beam="2">0</pdfrwt>
<totfact> 0.14077627E-01</totfact>
</mgrwt>
</event>
<event>
 6      1 +5.6466785e-02 6.58577500e+02 7.81860800e-03 9.79081600e-02
        1 -1    0    0  502    0 +0.0000000000e+00 +0.0000000000e+00 +1.0843178624e+02 1.0843178624e+02 0.0000000000e+00 0.0000e+00 1.0000e+00
       13 -1    0    0    0    0 -0.0000000000e+00 -0.0000000000e+00 -1.0000000000e+03 1.0000000000e+03 0.0000000000e+00 0.0000e+00 1.0000e+00
  9000005  2    1    2  501    0 -8.6228073997e-05 -9.8121705889e-05 -8.9156890410e+02 1.1084310837e+03 6.5857752501e+02 0.0000e+00 0.0000e+00
       13  1    3    3    0    0 +1.1343524098e+02 +2.4320406675e+02 -7.6696079195e+02 8.1255438487e+02 0.0000000000e+00 0.0000e+00 1.0000e+00
        3  1    3    3  501    0 -1.1343532721e+02 -2.4320416487e+02 -1.2460811214e+02 2.9587669878e+02 0.0000000000e+00 0.0000e+00 1.0000e+00
       21  1    1    2  502  501 +8.6228073991e-05 +9.8121705912e-05 +6.9033556832e-04 7.0258547295e-04 0.0000000000e+00 0.0000e+00 -1.0000e+00
<mgrwt>
<rscale>  1 0.65857753E+03</rscale>
<asrwt>0</asrwt>
<pdfrwt beam="1">  1        1 0.39429824E+00 0.65857753E+03</pdfrwt>
<pdfrwt beam="2">0</pdfrwt>
<totfact> 0.14160977E+00</totfact>
</mgrwt>
</event>
<event>
 6      1 +5.6466785e-02 6.47111400e+02 7.81860800e-03 9.81221400e-02
        1 -1    0    0  502    0 +0.0000000000e+00 +0.0000000000e+00 +1.0476518688e+02 1.0476518688e+02 0.0000000000e+00 0.0000e+00 1.0000e+00
       13 -1    0    0    0    0 -0.0000000000e+00 -0.0000000000e+00 -1.0000000000e+03 1.0000000000e+03 0.0000000000e+00 0.0000e+00 1.0000e+00
  9000005  2    1    2  501    0 +2.1618928185e-03 -1.6834167846e-03 -8.9531166746e+02 1.1046882837e+03 6.4711144502e+02 0.0000e+00 0.0000e+00
       13  1    3    3    0    0 -1.1562060473e+02 -1.8478711267e+02 -8.5584358021e+02 8.8316625560e+02 0.0000000000e+00 0.0000e+00 1.0000e+00
        3  1    3    3  501    0 +1.1562276663e+02 +1.8478542925e+02 -3.9468087245e+01 2.2152202811e+02 0.0000000000e+00 0.0000e+00 1.0000e+00
       21  1    1    2  502  501 -2.1618928185e-03 +1.6834167846e-03 +7.6854334436e-02 7.6903162446e-02 0.0000000000e+00 0.0000e+00 1.0000e+00
<mgrwt>
<rscale>  1 0.64711145E+03</rscale>
<asrwt>0</asrwt>
<pdfrwt beam="1">  1        1 0.38096512E+00 0.64711145E+03</pdfrwt>
<pdfrwt beam="2">0</pdfrwt>
<totfact> 0.16258201E+00</totfact>
</mgrwt>
</event>
<event>
 6      1 +5.6466785e-02 6.54199100e+02 7.81860800e-03 9.79893200e-02
        1 -1    0    0  502    0 +0.0000000000e+00 +0.0000000000e+00 +1.0699411566e+02 1.0699411566e+02 0.0000000000e+00 0.0000e+00 1.0000e+00
       13 -1    0    0    0    0 -0.0000000000e+00 -0.0000000000e+00 -1.0000000000e+03 1.0000000000e+03 0.0000000000e+00 0.0000e+00 1.0000e+00
  9000005  2    1    2  501    0 +1.5686905954e-05 +9.7298281503e-06 -8.9300585001e+02 1.1069940767e+03 6.5419908105e+02 0.0000e+00 0.0000e+00
       13  1    3    3    0    0 -2.8854939046e+02 +1.3477944041e+02 -5.7276688794e+02 6.5535345899e+02 0.0000000000e+00 0.0000e+00 1.0000e+00
        3  1    3    3  501    0 +2.8854940614e+02 -1.3477943068e+02 -3.2023896207e+02 4.5164061769e+02 0.0000000000e+00 0.0000e+00 1.0000e+00
       21  1    1    2  502  501 -1.5686905952e-05 -9.7298281676e-06 -3.4327622666e-05 3.8976072819e-05 0.0000000000e+00 0.0000e+00 -1.0000e+00
<mgrwt>
<rscale>  1 0.65419908E+03</rscale>
<asrwt>0</asrwt>
<pdfrwt beam="1">  1        1 0.38907033E+00 0.65419908E+03</pdfrwt>
<pdfrwt beam="2">0</pdfrwt>
<totfact> 0.14950372E+00</totfact>
</mgrwt>
</event>
<event>
 6      1 +5.6466785e-02 6.35481800e+02 7.81860800e-03 9.83440900e-02
        1 -1    0    0  502    0 +0.0000000000e+00 +0.0000000000e+00 +1.0181704375e+02 1.0181704375e+02 0.0000000000e+00 0.0000e+00 1.0000e+00
       13 -1    0    0    0    0 -0.0000000000e+00 -0.0000000000e+00 -1.0000000000e+03 1.0000000000e+03 0.0000000000e+00 0.0000e+00 1.0000e+00
  9000005  2    1    2  501    0 -1.5364622476e-02 +1.9547782636e-03 -8.9904064529e+02 1.1009592149e+03 6.3548179415e+02 0.0000e+00 0.0000e+00
       13  1    3    3    0    0 -2.1743730654e+02 -1.5903604128e+02 -7.4144274145e+02 7.8886550409e+02 0.0000000000e+00 0.0000e+00 1.0000e+00
        3  1    3    3  501    0 +2.1742194191e+02 +1.5903799606e+02 -1.5759790384e+02 3.1209371078e+02 0.0000000000e+00 0.0000e+00 1.0000e+00
       21  1    1    2  502  501 +1.5364622476e-02 -1.9547782636e-03 +8.5768904092e-01 8.5782887787e-01 0.0000000000e+00 0.0000e+00 -1.0000e+00
<mgrwt>
<rscale>  1 0.63548179E+03</rscale>
<asrwt>0</asrwt>
<pdfrwt beam="1">  1        1 0.37024458E+00 0.63548179E+03</pdfrwt>
<pdfrwt beam="2">0</pdfrwt>
<totfact> 0.18163531E+00</totfact>
</mgrwt>
</event>
<event>
 6      1 +5.6466785e-02 6.35862000e+02 7.81860800e-03 9.83367600e-02
        3 -1    0    0  502    0 +0.0000000000e+00 +0.0000000000e+00 +1.0292074999e+02 1.0292074999e+02 0.0000000000e+00 0.0000e+00 1.0000e+00
       13 -1    0    0    0    0 -0.0000000000e+00 -0.0000000000e+00 -1.0000000000e+03 1.0000000000e+03 0.0000000000e+00 0.0000e+00 1.0000e+00
  9000005  2    1    2  501    0 +1.2350819299e-01 -1.2892144632e-02 -8.9891756184e+02 1.1010782487e+03 6.3586202232e+02 0.0000e+00 0.0000e+00
       13  1    3    3    0    0 +2.3511827980e+01 +1.8235354576e+02 -3.1938802880e-01 1.8386332890e+02 0.0000000000e+00 0.0000e+00 1.0000e+00
        1  1    3    3  501    0 -2.3388319787e+01 -1.8236643791e+02 -8.9859817381e+02 9.1721491983e+02 0.0000000000e+00 0.0000e+00 1.0000e+00
       21  1    1    2  502  501 -1.2350819299e-01 +1.2892144632e-02 +1.8383118295e+00 1.8425012520e+00 0.0000000000e+00 0.0000e+00 -1.0000e+00
<mgrwt>
<rscale>  1 0.63586203E+03</rscale>
<asrwt>0</asrwt>
<pdfrwt beam="1">  1        3 0.37425806E+00 0.63586203E+03</pdfrwt>
<pdfrwt beam="2">0</pdfrwt>
<totfact> 0.81132727E-02</totfact>
</mgrwt>
</event>
<event>
 6      1 +5.6466785e-02 6.48362500e+02 7.81860800e-03 9.80985700e-02
        1 -1    0    0  502    0 +0.0000000000e+00 +0.0000000000e+00 +1.2030346535e+02 1.2030346535e+02 0.0000000000e+00 0.0000e+00 1.0000e+00
       13 -1    0    0    0    0 -0.0000000000e+00 -0.0000000000e+00 -1.0000000000e+03 1.0000000000e+03 0.0000000000e+00 0.0000e+00 1.0000e+00
  9000005  2    1    2  501    0 +1.8872987567e+00 +3.7111464474e+00 -8.9459100874e+02 1.1048380244e+03 6.4834917506e+02 0.0000e+00 0.0000e+00
       13  1    3    3    0    0 +1.9034616058e+02 -2.0713617785e+02 -1.7408523808e+02 3.3082129184e+02 0.0000000000e+00 0.0000e+00 1.0000e+00
        3  1    3    3  501    0 -1.8845886182e+02 +2.1084732430e+02 -7.2050577066e+02 7.7401673258e+02 0.0000000000e+00 0.0000e+00 1.0000e+00
       21  1    1    2  502  501 -1.8872987567e+00 -3.7111464474e+00 +1.4894474092e+01 1.5465440926e+01 0.0000000000e+00 0.0000e+00 1.0000e+00
<mgrwt>
<rscale>  1 0.64836254E+03</rscale>
<asrwt>0</asrwt>
<pdfrwt beam="1">  1        1 0.43746807E+00 0.64836254E+03</pdfrwt>
<pdfrwt beam="2">0</pdfrwt>
<totfact> 0.90712715E-01</totfact>
</mgrwt>
</event>
<event>
 6      1 +5.6466785e-02 6.47886900e+02 7.81860800e-03 9.81075200e-02
        1 -1    0    0  502    0 +0.0000000000e+00 +0.0000000000e+00 +1.0493955154e+02 1.0493955154e+02 0.0000000000e+00 0.0000e+00 1.0000e+00
       13 -1    0    0    0    0 -0.0000000000e+00 -0.0000000000e+00 -1.0000000000e+03 1.0000000000e+03 0.0000000000e+00 0.0000e+00 1.0000e+00
  9000005  2    1    2  501    0 +4.7204482740e-06 -1.5863407796e-05 -8.9506064082e+02 1.1049393585e+03 6.4788689997e+02 0.0000e+00 0.0000e+00
       13  1    3    3    0    0 -7.3406278745e+01 -7.4207445719e+01 +7.5473783344e+01 1.2880806936e+02 0.0000000000e+00 0.0000e+00 1.0000e+00
        3  1    3    3  501    0 +7.3406283466e+01 +7.4207429855e+01 -9.7053442416e+02 9.7613128911e+02 0.0000000000e+00 0.0000e+00 1.0000e+00
       21  1    1    2  502  501 -4.7204482786e-06 +1.5863407797e-05 +1.9235596544e-04 1.9306669257e-04 0.0000000000e+00 0.0000e+00 1.0000e+00
<mgrwt>
<rscale>  1 0.64788690E+03</rscale>
<asrwt>0</asrwt>
<pdfrwt beam="1">  1        1 0.38159917E+00 0.64788690E+03</pdfrwt>
<pdfrwt beam="2">0</pdfrwt>
<totfact> 0.16151436E+00</totfact>
</mgrwt>
</event>
<event>
 6      1 +5.6466785e-02 6.49635900e+02 7.81860800e-03 9.80746300e-02
        1 -1    0    0  502    0 +0.0000000000e+00 +0.0000000000e+00 +1.0550669523e+02 1.0550669523e+02 0.0000000000e+00 0.0000e+00 1.0000e+00
       13 -1    0    0    0    0 -0.0000000000e+00 -0.0000000000e+00 -1.0000000000e+03 1.0000000000e+03 0.0000000000e+00 0.0000e+00 1.0000e+00
  9000005  2    1    2  501    0 +6.3190611854e-07 -2.8777152323e-06 -8.9449330518e+02 1.1055066923e+03 6.4963587770e+02 0.0000e+00 0.0000e+00
       13  1    3    3    0    0 -1.7261702211e+02 -5.4440163457e+01 -9.0622997531e+02 9.2412831137e+02 0.0000000000e+00 0.0000e+00 1.0000e+00
        3  1    3    3  501    0 +1.7261702275e+02 +5.4440160579e+01 +1.1736670129e+01 1.8137838088e+02 0.0000000000e+00 0.0000e+00 1.0000e+00
       21  1    1    2  502  501 -6.3190614019e-07 +2.8777152324e-06 +4.0900834445e-07 2.9745315858e-06 0.0000000000e+00 0.0000e+00 1.0000e+00
<mgrwt>
<rscale>  1 0.64963588E+03</rscale>
<asrwt>0</asrwt>
<pdfrwt beam="1">  1        1 0.38366152E+00 0.64963588E+03</pdfrwt>
<pdfrwt beam="2">0</pdfrwt>
<totfact> 0.15811017E+00</totfact>
</mgrwt>
</event>
<event>
 6      1 +5.6466785e-02 6.59117000e+02 7.81860800e-03 9.78982100e-02
        1 -1    0    0  502    0 +0.0000000000e+00 +0.0000000000e+00 +1.0861749215e+02 1.0861749215e+02 0.0000000000e+00 0.0000e+00 1.0000e+00
       13 -1    0    0    0    0 -0.0000000000e+00 -0.0000000000e+00 -1.0000000000e+03 1.0000000000e+03 0.0000000000e+00 0.0000e+00 1.0000e+00
  9000005  2    1    2  501    0 +4.4124546633e-05 -3.3302059742e-04 -8.9139119251e+02 1.1086088010e+03 6.5911699687e+02 0.0000e+00 0.0000e+00
       13  1    3    3    0    0 -5.1731962889e+01 +2.3759339940e+02 -8.1983962135e+02 8.5513965185e+02 0.0000000000e+00 0.0000e+00 1.0000e+00
        1  1    3    3  501    0 +5.1732007014e+01 -2.3759373242e+02 -7.1551571158e+01 2.5346914915e+02 0.0000000000e+00 0.0000e+00 1.0000e+00
       21  1    1    2  502  501 -4.4124546634e-05 +3.3302059743e-04 +8.6846585157e-03 8.6911531588e-03 0.0000000000e+00 0.0000e+00 1.0000e+00
<mgrwt>
<rscale>  1 0.65911700E+03</rscale>
<asrwt>0</asrwt>
<pdfrwt beam="1">  1        1 0.39497353E+00 0.65911700E+03</pdfrwt>
<pdfrwt beam="2">0</pdfrwt>
<totfact> 0.14062006E+00</totfact>
</mgrwt>
</event>
<event>
 6      1 +5.6466785e-02 6.51995700e+02 7.81860800e-03 9.80304200e-02
        1 -1    0    0  502    0 +0.0000000000e+00 +0.0000000000e+00 +1.0634146706e+02 1.0634146706e+02 0.0000000000e+00 0.0000e+00 1.0000e+00
       13 -1    0    0    0    0 -0.0000000000e+00 -0.0000000000e+00 -1.0000000000e+03 1.0000000000e+03 0.0000000000e+00 0.0000e+00 1.0000e+00
  9000005  2    1    2  501    0 -7.2645547943e-03 +8.2580614847e-02 -8.9369572354e+02 1.1062506074e+03 6.5199566969e+02 0.0000e+00 0.0000e+00
       13  1    3    3    0    0 -1.4779923920e+01 +3.2559860995e+02 -4.3284306364e+02 5.4183578572e+02 0.0000000000e+00 0.0000e+00 1.0000e+00
        3  1    3    3  501    0 +1.4772659365e+01 -3.2551602934e+02 -4.6085265991e+02 5.6441482171e+02 0.0000000000e+00 0.0000e+00 1.0000e+00
       21  1    1    2  502  501 +7.2645547943e-03 -8.2580614847e-02 +3.7190602408e-02 9.0859631368e-02 0.0000000000e+00 0.0000e+00 1.0000e+00
<mgrwt>
<rscale>  1 0.65199567E+03</rscale>
<asrwt>0</asrwt>
<pdfrwt beam="1">  1        1 0.38669706E+00 0.65199567E+03</pdfrwt>
<pdfrwt beam="2">0</pdfrwt>
<totfact> 0.15322949E+00</totfact>
</mgrwt>
</event>
<event>
 6      1 +5.6466785e-02 5.76847100e+02 7.81860800e-03 9.95464000e-02
        1 -1    0    0  502    0 +0.0000000000e+00 +0.0000000000e+00 +8.3188142378e+01 8.3188142378e+01 0.0000000000e+00 0.0000e+00 1.0000e+00
       13 -1    0    0    0    0 -0.0000000000e+00 -0.0000000000e+00 -1.0000000000e+03 1.0000000000e+03 0.0000000000e+00 0.0000e+00 1.0000e+00
  9000005  2    1    2  501    0 +4.5462525122e-06 +7.3739298330e-06 -9.1681185883e+02 1.0831881336e+03 5.7684707535e+02 0.0000e+00 0.0000e+00
       13  1    3    3    0    0 -1.5674793868e+02 -1.7312872525e+02 -1.4059775250e+02 2.7260080666e+02 0.0000000000e+00 0.0000e+00 1.0000e+00
        3  1    3    3  501    0 +1.5674794323e+02 +1.7312873262e+02 -7.7621410634e+02 8.1058732697e+02 0.0000000000e+00 0.0000e+00 1.0000e+00
       21  1    1    2  502  501 -4.5462525125e-06 -7.3739298399e-06 +1.2121881918e-06 8.7471511593e-06 0.0000000000e+00 0.0000e+00 1.0000e+00
<mgrwt>
<rscale>  1 0.57684708E+03</rscale>
<asrwt>0</asrwt>
<pdfrwt beam="1">  1        1 0.30250297E+00 0.57684708E+03</pdfrwt>
<pdfrwt beam="2">0</pdfrwt>
<totfact> 0.36140226E+00</totfact>
</mgrwt>
</event>
<event>
 6      1 +5.6466785e-02 6.59593300e+02 7.81860800e-03 9.78894300e-02
        1 -1    0    0  502    0 +0.0000000000e+00 +0.0000000000e+00 +1.0877062669e+02 1.0877062669e+02 0.0000000000e+00 0.0000e+00 1.0000e+00
       13 -1    0    0    0    0 -0.0000000000e+00 -0.0000000000e+00 -1.0000000000e+03 1.0000000000e+03 0.0000000000e+00 0.0000e+00 1.0000e+00
  9000005  2    1    2  501    0 -3.3511901066e-05 -1.0978452141e-04 -8.9123417573e+02 1.1087658229e+03 6.5959327925e+02 0.0000e+00 0.0000e+00
       13  1    3    3    0    0 +5.0552230631e+01 -1.9210930577e+02 -8.8814822212e+02 9.1009273035e+02 0.0000000000e+00 0.0000e+00 1.0000e+00
        3  1    3    3  501    0 -5.0552264143e+01 +1.9210919598e+02 -3.0859536136e+00 1.9867309254e+02 0.0000000000e+00 0.0000e+00 1.0000e+00
       21  1    1    2  502  501 +3.3511901061e-05 +1.0978452142e-04 +4.8024242350e-03 4.8037958139e-03 0.0000000000e+00 0.0000e+00 -1.0000e+00
<mgrwt>
<rscale>  1 0.65959328E+03</rscale>
<asrwt>0</asrwt>
<pdfrwt beam="1">  1        1 0.39553039E+00 0.65959328E+03</pdfrwt>
<pdfrwt beam="2">0</pdfrwt>
<totfact> 0.13980805E+00</totfact>
</mgrwt>
</event>
<event>
 6      1 +5.6466785e-02 6.59215800e+02 7.81860800e-03 9.78963800e-02
        1 -1    0    0  502    0 +0.0000000000e+00 +0.0000000000e+00 +1.0864940261e+02 1.0864940261e+02 0.0000000000e+00 0.0000e+00 1.0000e+00
       13 -1    0    0    0    0 -0.0000000000e+00 -0.0000000000e+00 -1.0000000000e+03 1.0000000000e+03 0.0000000000e+00 0.0000e+00 1.0000e+00
  9000005  2    1    2  501    0 -8.5380561640e-04 +4.9147231042e-04 -8.9135859843e+02 1.1086413411e+03 6.5921580100e+02 0.0000e+00 0.0000e+00
       13  1    3    3    0    0 -2.2392149843e+02 +1.5498631102e+02 -1.3339756161e+02 3.0324330744e+02 0.0000000000e+00 0.0000e+00 1.0000e+00
        1  1    3    3  501    0 +2.2392064463e+02 -1.5498581955e+02 -7.5796103682e+02 8.0539803370e+02 0.0000000000e+00 0.0000e+00 1.0000e+00
       21  1    1    2  502  501 +8.5380561640e-04 -4.9147231041e-04 +8.0010479076e-03 8.0614698835e-03 0.0000000000e+00 0.0000e+00 -1.0000e+00
<mgrwt>
<rscale>  1 0.65921580E+03</rscale>
<asrwt>0</asrwt>
<pdfrwt beam="1">  1        1 0.39508957E+00 0.65921580E+03</pdfrwt>
<pdfrwt beam="2">0</pdfrwt>
<totfact> 0.14045050E+00</totfact>
</mgrwt>
</event>
<event>
 6      1 +5.6466785e-02 6.48671800e+02 7.81860800e-03 9.80927500e-02
        1 -1    0    0  502    0 +0.0000000000e+00 +0.0000000000e+00 +1.0519472884e+02 1.0519472884e+02 0.0000000000e+00 0.0000e+00 1.0000e+00
       13 -1    0    0    0    0 -0.0000000000e+00 -0.0000000000e+00 -1.0000000000e+03 1.0000000000e+03 0.0000000000e+00 0.0000e+00 1.0000e+00
  9000005  2    1    2  501    0 -1.3067985890e-04 -5.7935445170e-05 -8.9480621501e+02 1.1051937742e+03 6.4867180930e+02 0.0000e+00 0.0000e+00
       13  1    3    3    0    0 -1.9715987804e+02 -2.5122020112e+02 -5.4393719057e+02 6.3075452772e+02 0.0000000000e+00 0.0000e+00 1.0000e+00
        3  1    3    3  501    0 +1.9715974736e+02 +2.5122014318e+02 -3.5086902443e+02 4.7443924651e+02 0.0000000000e+00 0.0000e+00 1.0000e+00
       21  1    1    2  502  501 +1.3067985889e-04 +5.7935445161e-05 +9.4384363154e-04 9.5460700926e-04 0.0000000000e+00 0.0000e+00 -1.0000e+00
<mgrwt>
<rscale>  1 0.64867181E+03</rscale>
<asrwt>0</asrwt>
<pdfrwt beam="1">  1        1 0.38252709E+00 0.64867181E+03</pdfrwt>
<pdfrwt beam="2">0</pdfrwt>
<totfact> 0.15997423E+00</totfact>
</mgrwt>
</event>
<event>
 6      1 +5.6466785e-02 6.36833100e+02 7.81860800e-03 9.83180400e-02
        1 -1    0    0  502    0 +0.0000000000e+00 +0.0000000000e+00 +1.0138913017e+02 1.0138913017e+02 0.0000000000e+00 0.0000e+00 1.0000e+00
       13 -1    0    0    0    0 -0.0000000000e+00 -0.0000000000e+00 -1.0000000000e+03 1.0000000000e+03 0.0000000000e+00 0.0000e+00 1.0000e+00
  9000005  2    1    2  501    0 +4.9130415796e-05 +5.4770223414e-06 -8.9861087631e+02 1.1013890803e+03 6.3683310153e+02 0.0000e+00 0.0000e+00
       13  1    3    3    0    0 -4.3548414055e+01 -3.1502776779e+02 -4.7665838024e+02 5.7301149229e+02 0.0000000000e+00 0.0000e+00 1.0000e+00
        1  1    3    3  501    0 +4.3548463185e+01 +3.1502777327e+02 -4.2195249607e+02 5.2837758802e+02 0.0000000000e+00 0.0000e+00 1.0000e+00
       21  1    1    2  502  501 -4.9130415796e-05 -5.4770223599e-06 +6.4763112048e-06 4.9857177387e-05 0.0000000000e+00 0.0000e+00 1.0000e+00
<mgrwt>
<rscale>  1 0.63683310E+03</rscale>
<asrwt>0</asrwt>
<pdfrwt beam="1">  1        1 0.36868852E+00 0.63683310E+03</pdfrwt>
<pdfrwt beam="2">0</pdfrwt>
<totfact> 0.18446979E+00</totfact>
</mgrwt>
</event>
<event>
 6      1 +5.6466785e-02 6.54232700e+02 7.81860800e-03 9.79886900e-02
        1 -1    0    0  502    0 +0.0000000000e+00 +0.0000000000e+00 +1.0709479101e+02 1.0709479101e+02 0.0000000000e+00 0.0000e+00 1.0000e+00
       13 -1    0    0    0    0 -0.0000000000e+00 -0.0000000000e+00 -1.0000000000e+03 1.0000000000e+03 0.0000000000e+00 0.0000e+00 1.0000e+00
  9000005  2    1    2  501    0 +1.8730862425e-02 +1.7031070990e-02 -8.9299291126e+02 1.1070035080e+03 6.5423270057e+02 0.0000e+00 0.0000e+00
       13  1    3    3    0    0 +1.5823415054e+01 +1.0223568136e+02 -9.7159866524e+02 9.7709082551e+02 0.0000000000e+00 0.0000e+00 1.0000e+00
        1  1    3    3  501    0 -1.5804684192e+01 -1.0221865029e+02 +7.8605753977e+01 1.2991268248e+02 0.0000000000e+00 0.0000e+00 1.0000e+00
       21  1    1    2  502  501 -1.8730862425e-02 -1.7031070990e-02 +8.7702270237e-02 9.1283025755e-02 0.0000000000e+00 0.0000e+00 -1.0000e+00
<mgrwt>
<rscale>  1 0.65423270E+03</rscale>
<asrwt>0</asrwt>
<pdfrwt beam="1">  1        1 0.38943642E+00 0.65423270E+03</pdfrwt>
<pdfrwt beam="2">0</pdfrwt>
<totfact> 0.14894516E+00</totfact>
</mgrwt>
</event>
<event>
 6      1 +5.6466785e-02 6.52247500e+02 7.81860800e-03 9.80257100e-02
        1 -1    0    0  502    0 +0.0000000000e+00 +0.0000000000e+00 +1.0849608667e+02 1.0849608667e+02 0.0000000000e+00 0.0000e+00 1.0000e+00
       13 -1    0    0    0    0 -0.0000000000e+00 -0.0000000000e+00 -1.0000000000e+03 1.0000000000e+03 0.0000000000e+00 0.0000e+00 1.0000e+00
  9000005  2    1    2  501    0 +4.4555600851e-02 +7.9481844629e-05 -8.9364304618e+02 1.1063564899e+03 6.5224748882e+02 0.0000e+00 0.0000e+00
       13  1    3    3    0    0 -3.0780374132e+02 +6.2426882795e+01 -5.9566195991e+02 6.7338950790e+02 0.0000000000e+00 0.0000e+00 1.0000e+00
        3  1    3    3  501    0 +3.0784829692e+02 -6.2426803313e+01 -2.9798108626e+02 4.3296698195e+02 0.0000000000e+00 0.0000e+00 1.0000e+00
       21  1    1    2  502  501 -4.4555600851e-02 -7.9481844633e-05 +2.1391328448e+00 2.1395968162e+00 0.0000000000e+00 0.0000e+00 1.0000e+00
<mgrwt>
<rscale>  1 0.65224749E+03</rscale>
<asrwt>0</asrwt>
<pdfrwt beam="1">  1        1 0.39453206E+00 0.65224749E+03</pdfrwt>
<pdfrwt beam="2">0</pdfrwt>
<totfact> 0.14143851E+00</totfact>
</mgrwt>
</event>
<event>
 6      1 +5.6466785e-02 6.24708700e+02 7.81860800e-03 9.85542900e-02
        1 -1    0    0  502    0 +0.0000000000e+00 +0.0000000000e+00 +9.7602243814e+01 9.7602243814e+01 0.0000000000e+00 0.0000e+00 1.0000e+00
       13 -1    0    0    0    0 -0.0000000000e+00 -0.0000000000e+00 -1.0000000000e+03 1.0000000000e+03 0.0000000000e+00 0.0000e+00 1.0000e+00
  9000005  2    1    2  501    0 -1.8244336881e-03 +2.2258034820e-03 -9.0243469125e+02 1.0975651968e+03 6.2470872350e+02 0.0000e+00 0.0000e+00
       13  1    3    3    0    0 +1.4510303497e+02 +2.3914849152e+02 -2.0702067332e+02 3.4800064790e+02 0.0000000000e+00 0.0000e+00 1.0000e+00
        1  1    3    3  501    0 -1.4510485940e+02 -2.3914626571e+02 -6.9541401793e+02 7.4956454889e+02 0.0000000000e+00 0.0000e+00 1.0000e+00
       21  1    1    2  502  501 +1.8244336881e-03 -2.2258034820e-03 +3.6935066807e-02 3.7047023085e-02 0.0000000000e+00 0.0000e+00 1.0000e+00
<mgrwt>
<rscale>  1 0.62470872E+03</rscale>
<asrwt>0</asrwt>
<pdfrwt beam="1">  1        1 0.35491800E+00 0.62470872E+03</pdfrwt>
<pdfrwt beam="2">0</pdfrwt>
<totfact> 0.21239674E+00</totfact>
</mgrwt>
</event>
<event>
 6      1 +5.6466785e-02 6.60280800e+02 7.81860800e-03 9.78767700e-02
        1 -1    0    0  502    0 +0.0000000000e+00 +0.0000000000e+00 +1.0901062140e+02 1.0901062140e+02 0.0000000000e+00 0.0000e+00 1.0000e+00
       13 -1    0    0    0    0 -0.0000000000e+00 -0.0000000000e+00 -1.0000000000e+03 1.0000000000e+03 0.0000000000e+00 0.0000e+00 1.0000e+00
  9000005  2    1    2  501    0 -8.2178698713e-04 -2.6189975375e-04 -8.9100729236e+02 1.1089926869e+03 6.6028083762e+02 0.0000e+00 0.0000e+00
       13  1    3    3    0    0 +1.2296612204e+02 +1.4479362573e+02 +8.0033269096e+00 1.9013130848e+02 0.0000000000e+00 0.0000e+00 1.0000e+00
        3  1    3    3  501    0 -1.2296694383e+02 -1.4479388763e+02 -8.9901061927e+02 9.1886137841e+02 0.0000000000e+00 0.0000e+00 1.0000e+00
       21  1    1    2  502  501 +8.2178698714e-04 +2.6189975375e-04 +1.7913763686e-02 1.7934515737e-02 0.0000000000e+00 0.0000e+00 -1.0000e+00
<mgrwt>
<rscale>  1 0.66028084E+03</rscale>
<asrwt>0</asrwt>
<pdfrwt beam="1">  1        1 0.39640310E+00 0.66028084E+03</pdfrwt>
<pdfrwt beam="2">0</pdfrwt>
<totfact> 0.13854590E+00</totfact>
</mgrwt>
</event>
<event>
 6      1 +5.6466785e-02 6.40046700e+02 7.81860800e-03 9.82563700e-02
        1 -1    0    0  502    0 +0.0000000000e+00 +0.0000000000e+00 +1.0786770353e+02 1.0786770353e+02 0.0000000000e+00 0.0000e+00 1.0000e+00
       13 -1    0    0    0    0 -0.0000000000e+00 -0.0000000000e+00 -1.0000000000e+03 1.0000000000e+03 0.0000000000e+00 0.0000e+00 1.0000e+00
  9000005  2    1    2  501    0 -2.5357434778e+00 +6.9591066253e-02 -8.9725797157e+02 1.1021486666e+03 6.4004170252e+02 0.0000e+00 0.0000e+00
       13  1    3    3    0    0 +7.9662354596e+01 +2.3788884943e+01 +8.3403174424e+01 1.1776286040e+02 0.0000000000e+00 0.0000e+00 1.0000e+00
        1  1    3    3  501    0 -8.2198098074e+01 -2.3719293876e+01 -9.8066114599e+02 9.8438580622e+02 0.0000000000e+00 0.0000e+00 1.0000e+00
       21  1    1    2  502  501 +2.5357434778e+00 -6.9591066253e-02 +5.1256751032e+00 5.7190369089e+00 0.0000000000e+00 0.0000e+00 -1.0000e+00
<mgrwt>
<rscale>  1 0.64004673E+03</rscale>
<asrwt>0</asrwt>
<pdfrwt beam="1">  1        1 0.39224702E+00 0.64004673E+03</pdfrwt>
<pdfrwt beam="2">0</pdfrwt>
<totfact> 0.14511633E+00</totfact>
</mgrwt>
</event>
<event>
 6      1 +5.6466785e-02 6.73944800e+02 7.81860800e-03 9.76285800e-02
        1 -1    0    0  502    0 +0.0000000000e+00 +0.0000000000e+00 +1.1357020934e+02 1.1357020934e+02 0.0000000000e+00 0.0000e+00 1.0000e+00
       13 -1    0    0    0    0 -0.0000000000e+00 -0.0000000000e+00 -1.0000000000e+03 1.0000000000e+03 0.0000000000e+00 0.0000e+00 1.0000e+00
  9000005  2    1    2  501    0 +3.7740794911e-02 -4.3561308351e-02 -8.8637143828e+02 1.1134881913e+03 6.7394482141e+02 0.0000e+00 0.0000e+00
       13  1    3    3    0    0 +2.1348678135e+02 -2.6069179595e+02 -4.5271481349e+02 5.6434698603e+02 0.0000000000e+00 0.0000e+00 1.0000e+00
        3  1    3    3  501    0 -2.1344904055e+02 +2.6064823464e+02 -4.3365662479e+02 5.4914120530e+02 0.0000000000e+00 0.0000e+00 1.0000e+00
       21  1    1    2  502  501 -3.7740794911e-02 +4.3561308351e-02 -5.8352373743e-02 8.2018014529e-02 0.0000000000e+00 0.0000e+00 -1.0000e+00
<mgrwt>
<rscale>  1 0.67394482E+03</rscale>
<asrwt>0</asrwt>
<pdfrwt beam="1">  1        1 0.41298345E+00 0.67394482E+03</pdfrwt>
<pdfrwt beam="2">0</pdfrwt>
<totfact> 0.11650250E+00</totfact>
</mgrwt>
</event>
<event>
 6      1 +5.6466785e-02 6.49462600e+02 7.81860800e-03 9.80778800e-02
        1 -1    0    0  502    0 +0.0000000000e+00 +0.0000000000e+00 +1.0545314081e+02 1.0545314081e+02 0.0000000000e+00 0.0000e+00 1.0000e+00
       13 -1    0    0    0    0 -0.0000000000e+00 -0.0000000000e+00 -1.0000000000e+03 1.0000000000e+03 0.0000000000e+00 0.0000e+00 1.0000e+00
  9000005  2    1    2  501    0 -1.5525314907e-04 +7.6349831033e-05 -8.9454957375e+02 1.1054504207e+03 6.4946261849e+02 0.0000e+00 0.0000e+00
       13  1    3    3    0    0 -2.3967993549e+02 +1.2177181775e+02 -7.5729841153e+02 8.0360172423e+02 0.0000000000e+00 0.0000e+00 1.0000e+00
        3  1    3    3  501    0 +2.3967978023e+02 -1.2177174140e+02 -1.3725116222e+02 3.0184869651e+02 0.0000000000e+00 0.0000e+00 1.0000e+00
       21  1    1    2  502  501 +1.5525314908e-04 -7.6349831033e-05 +2.7145608334e-03 2.7200686306e-03 0.0000000000e+00 0.0000e+00 -1.0000e+00
<mgrwt>
<rscale>  1 0.64946262E+03</rscale>
<asrwt>0</asrwt>
<pdfrwt beam="1">  1        1 0.38346678E+00 0.64946262E+03</pdfrwt>
<pdfrwt beam="2">0</pdfrwt>
<totfact> 0.15842892E+00</totfact>
</mgrwt>
</event>
<event>
 6      1 +5.6466785e-02 6.63177300e+02 7.81860800e-03 9.78236200e-02
        1 -1    0    0  502    0 +0.0000000000e+00 +0.0000000000e+00 +1.1210019575e+02 1.1210019575e+02 0.0000000000e+00 0.0000e+00 1.0000e+00
       13 -1    0    0    0    0 -0.0000000000e+00 -0.0000000000e+00 -1.0000000000e+03 1.0000000000e+03 0.0000000000e+00 0.0000e+00 1.0000e+00
  9000005  2    1    2  501    0 -3.0130921221e-02 +6.1282803053e-03 -8.9004884752e+02 1.1099509325e+03 6.6317729206e+02 0.0000e+00 0.0000e+00
       13  1    3    3    0    0 +3.0960672170e+02 -1.1177787076e+02 -3.7825779902e+02 5.0142753917e+02 0.0000000000e+00 0.0000e+00 1.0000e+00
        3  1    3    3  501    0 -3.0963685262e+02 +1.1178399904e+02 -5.1179104850e+02 6.0852339336e+02 0.0000000000e+00 0.0000e+00 1.0000e+00
       21  1    1    2  502  501 +3.0130921221e-02 -6.1282803053e-03 +2.1490432626e+00 2.1492632163e+00 0.0000000000e+00 0.0000e+00 1.0000e+00
<mgrwt>
<rscale>  1 0.66317729E+03</rscale>
<asrwt>0</asrwt>
<pdfrwt beam="1">  1        1 0.40763794E+00 0.66317729E+03</pdfrwt>
<pdfrwt beam="2">0</pdfrwt>
<totfact> 0.12336806E+00</totfact>
</mgrwt>
</event>
<event>
 6      1 +5.6466785e-02 6.56581200e+02 7.81860800e-03 9.79450800e-02
        1 -1    0    0  502    0 +0.0000000000e+00 +0.0000000000e+00 +1.0778441016e+02 1.0778441016e+02 0.0000000000e+00 0.0000e+00 1.0000e+00
       13 -1    0    0    0    0 -0.0000000000e+00 -0.0000000000e+00 -1.0000000000e+03 1.0000000000e+03 0.0000000000e+00 0.0000e+00 1.0000e+00
  9000005  2    1    2  501    0 -1.2135903034e-03 -8.0793963429e-04 -8.9222521021e+02 1.1077746799e+03 6.5658123319e+02 0.0000e+00 0.0000e+00
       13  1    3    3    0    0 +1.3659334351e+02 +2.7791347382e+02 -6.3001273824e+02 7.0200405324e+02 0.0000000000e+00 0.0000e+00 1.0000e+00
        3  1    3    3  501    0 -1.3659455710e+02 -2.7791428176e+02 -2.6221247198e+02 4.0577062671e+02 0.0000000000e+00 0.0000e+00 1.0000e+00
       21  1    1    2  502  501 +1.2135903034e-03 +8.0793963425e-04 +9.6203723257e-03 9.7302174468e-03 0.0000000000e+00 0.0000e+00 -1.0000e+00
<mgrwt>
<rscale>  1 0.65658123E+03</rscale>
<asrwt>0</asrwt>
<pdfrwt beam="1">  1        1 0.39194414E+00 0.65658123E+03</pdfrwt>
<pdfrwt beam="2">0</pdfrwt>
<totfact> 0.14511487E+00</totfact>
</mgrwt>
</event>
<event>
 6      1 +5.6466785e-02 6.54645100e+02 7.81860800e-03 9.79810200e-02
        1 -1    0    0  502    0 +0.0000000000e+00 +0.0000000000e+00 +1.1433213690e+02 1.1433213690e+02 0.0000000000e+00 0.0000e+00 1.0000e+00
       13 -1    0    0    0    0 -0.0000000000e+00 -0.0000000000e+00 -1.0000000000e+03 1.0000000000e+03 0.0000000000e+00 0.0000e+00 1.0000e+00
  9000005  2    1    2  501    0 +5.1508455444e-01 +1.1747051975e+00 -8.9279659176e+02 1.1070889320e+03 6.5464379929e+02 0.0000e+00 0.0000e+00
       13  1    3    3    0    0 +5.9183095826e+01 -2.0807502783e+02 -3.1270709373e+01 2.1857656165e+02 0.0000000000e+00 0.0000e+00 1.0000e+00
        3  1    3    3  501    0 -5.8668011272e+01 +2.0924973303e+02 -8.6152588238e+02 8.8851237039e+02 0.0000000000e+00 0.0000e+00 1.0000e+00
       21  1    1    2  502  501 -5.1508455444e-01 -1.1747051975e+00 +7.1287286598e+00 7.2432048642e+00 0.0000000000e+00 0.0000e+00 1.0000e+00
<mgrwt>
<rscale>  1 0.65464506E+03</rscale>
<asrwt>0</asrwt>
<pdfrwt beam="1">  1        1 0.41575410E+00 0.65464506E+03</pdfrwt>
<pdfrwt beam="2">0</pdfrwt>
<totfact> 0.11362805E+00</totfact>
</mgrwt>
</event>
<event>
 6      1 +5.6466785e-02 6.31338200e+02 7.81860800e-03 9.84244100e-02
        3 -1    0    0  502    0 +0.0000000000e+00 +0.0000000000e+00 +9.9715307240e+01 9.9715307240e+01 0.0000000000e+00 0.0000e+00 1.0000e+00
       13 -1    0    0    0    0 -0.0000000000e+00 -0.0000000000e+00 -1.0000000000e+03 1.0000000000e+03 0.0000000000e+00 0.0000e+00 1.0000e+00
  9000005  2    1    2  501    0 -3.5635266043e-03 -9.9808335648e-04 -9.0035296797e+02 1.0996469318e+03 6.3133818804e+02 0.0000e+00 0.0000e+00
       13  1    3    3    0    0 -8.0485614272e-01 -2.7214200060e+02 -1.7157347941e+02 3.2171318767e+02 0.0000000000e+00 0.0000e+00 1.0000e+00
        3  1    3    3  501    0 +8.0129261611e-01 +2.7214100251e+02 -7.2877948857e+02 7.7793374414e+02 0.0000000000e+00 0.0000e+00 1.0000e+00
       21  1    1    2  502  501 +3.5635266043e-03 +9.9808335645e-04 +6.8275214637e-02 6.8375432913e-02 0.0000000000e+00 0.0000e+00 1.0000e+00
<mgrwt>
<rscale>  1 0.63133819E+03</rscale>
<asrwt>0</asrwt>
<pdfrwt beam="1">  1        3 0.36260188E+00 0.63133819E+03</pdfrwt>
<pdfrwt beam="2">0</pdfrwt>
<totfact> 0.93603196E-02</totfact>
</mgrwt>
</event>
<event>
 6      1 +5.6466785e-02 6.64275300e+02 7.81860800e-03 9.78035500e-02
        1 -1    0    0  502    0 +0.0000000000e+00 +0.0000000000e+00 +1.1031833236e+02 1.1031833236e+02 0.0000000000e+00 0.0000e+00 1.0000e+00
       13 -1    0    0    0    0 -0.0000000000e+00 -0.0000000000e+00 -1.0000000000e+03 1.0000000000e+03 0.0000000000e+00 0.0000e+00 1.0000e+00
  9000005  2    1    2  501    0 +1.1959119013e-04 -6.6728809429e-05 -8.8968458755e+02 1.1103154092e+03 6.6427527628e+02 0.0000e+00 0.0000e+00
       13  1    3    3    0    0 -1.9125051447e+02 -1.4615537466e+02 -8.2737588074e+02 8.6167801461e+02 0.0000000000e+00 0.0000e+00 1.0000e+00
        3  1    3    3  501    0 +1.9125063406e+02 +1.4615530793e+02 -6.2308706812e+01 2.4863739463e+02 0.0000000000e+00 0.0000e+00 1.0000e+00
       21  1    1    2  502  501 -1.1959119013e-04 +6.6728809431e-05 +2.9199092753e-03 2.9231190470e-03 0.0000000000e+00 0.0000e+00 -1.0000e+00
<mgrwt>
<rscale>  1 0.66427528E+03</rscale>
<asrwt>0</asrwt>
<pdfrwt beam="1">  1        1 0.40115842E+00 0.66427528E+03</pdfrwt>
<pdfrwt beam="2">0</pdfrwt>
<totfact> 0.13184952E+00</totfact>
</mgrwt>
</event>
<event>
 6      1 +5.6466785e-02 6.82117200e+02 7.81860800e-03 9.74831300e-02
        1 -1    0    0  502    0 +0.0000000000e+00 +0.0000000000e+00 +1.1632298918e+02 1.1632298918e+02 0.0000000000e+00 0.0000e+00 1.0000e+00
       13 -1    0    0    0    0 -0.0000000000e+00 -0.0000000000e+00 -1.0000000000e+03 1.0000000000e+03 0.0000000000e+00 0.0000e+00 1.0000e+00
  9000005  2    1    2  501    0 +1.1182493877e-03 -5.2772574062e-03 -8.8367345565e+02 1.1163165286e+03 6.8211715692e+02 0.0000e+00 0.0000e+00
       13  1    3    3    0    0 -2.8311841163e+02 -1.7509803659e+02 -3.2039990309e+02 4.6202971260e+02 0.0000000000e+00 0.0000e+00 1.0000e+00
        3  1    3    3  501    0 +2.8311952988e+02 +1.7509275933e+02 -5.6327355256e+02 6.5428681599e+02 0.0000000000e+00 0.0000e+00 1.0000e+00
       21  1    1    2  502  501 -1.1182493877e-03 +5.2772574062e-03 -3.5551750332e-03 6.4605879718e-03 0.0000000000e+00 0.0000e+00 1.0000e+00
<mgrwt>
<rscale>  1 0.68211716E+03</rscale>
<asrwt>0</asrwt>
<pdfrwt beam="1">  1        1 0.42299358E+00 0.68211716E+03</pdfrwt>
<pdfrwt beam="2">0</pdfrwt>
<totfact> 0.10484019E+00</totfact>
</mgrwt>
</event>
<event>
 6      1 +5.6466785e-02 6.19779200e+02 7.81860800e-03 9.86519900e-02
        1 -1    0    0  502    0 +0.0000000000e+00 +0.0000000000e+00 +9.6031562744e+01 9.6031562744e+01 0.0000000000e+00 0.0000e+00 1.0000e+00
       13 -1    0    0    0    0 -0.0000000000e+00 -0.0000000000e+00 -1.0000000000e+03 1.0000000000e+03 0.0000000000e+00 0.0000e+00 1.0000e+00
  9000005  2    1    2  501    0 -4.8727939657e-06 -3.1541942320e-06 -9.0396844350e+02 1.0960315542e+03 6.1977917115e+02 0.0000e+00 0.0000e+00
       13  1    3    3    0    0 -2.1563695642e+02 +1.1973797860e+02 -1.2022192522e+02 2.7438985367e+02 0.0000000000e+00 0.0000e+00 1.0000e+00
        1  1    3    3  501    0 +2.1563695155e+02 -1.1973798175e+02 -7.8374651829e+02 8.2164170054e+02 0.0000000000e+00 0.0000e+00 1.0000e+00
       21  1    1    2  502  501 +4.8727939478e-06 +3.1541942325e-06 +6.2474937275e-06 8.5278508423e-06 0.0000000000e+00 0.0000e+00 1.0000e+00
<mgrwt>
<rscale>  1 0.61977917E+03</rscale>
<asrwt>0</asrwt>
<pdfrwt beam="1">  1        1 0.34920642E+00 0.61977917E+03</pdfrwt>
<pdfrwt beam="2">0</pdfrwt>
<totfact> 0.22513189E+00</totfact>
</mgrwt>
</event>
<event>
 6      1 +5.6466785e-02 6.29678300e+02 7.81860800e-03 9.84567700e-02
        1 -1    0    0  502    0 +0.0000000000e+00 +0.0000000000e+00 +9.9125744167e+01 9.9125744167e+01 0.0000000000e+00 0.0000e+00 1.0000e+00
       13 -1    0    0    0    0 -0.0000000000e+00 -0.0000000000e+00 -1.0000000000e+03 1.0000000000e+03 0.0000000000e+00 0.0000e+00 1.0000e+00
  9000005  2    1    2  501    0 +3.1333386801e-04 +2.4430417355e-04 -9.0087628051e+02 1.0991236809e+03 6.2967832507e+02 0.0000e+00 0.0000e+00
       13  1    3    3    0    0 +2.6075110486e+02 -1.7253529484e+02 -5.1490891044e+02 6.0240414399e+02 0.0000000000e+00 0.0000e+00 1.0000e+00
        1  1    3    3  501    0 -2.6075079153e+02 +1.7253553915e+02 -3.8596737008e+02 4.9671953688e+02 0.0000000000e+00 0.0000e+00 1.0000e+00
       21  1    1    2  502  501 -3.1333386804e-04 -2.4430417357e-04 +2.0246799411e-03 2.0632962720e-03 0.0000000000e+00 0.0000e+00 1.0000e+00
<mgrwt>
<rscale>  1 0.62967833E+03</rscale>
<asrwt>0</asrwt>
<pdfrwt beam="1">  1        1 0.36045801E+00 0.62967833E+03</pdfrwt>
<pdfrwt beam="2">0</pdfrwt>
<totfact> 0.20070197E+00</totfact>
</mgrwt>
</event>
<event>
 6      1 +5.6466785e-02 6.53872600e+02 7.81860800e-03 9.79954000e-02
        1 -1    0    0  502    0 +0.0000000000e+00 +0.0000000000e+00 +1.0688748614e+02 1.0688748614e+02 0.0000000000e+00 0.0000e+00 1.0000e+00
       13 -1    0    0    0    0 -0.0000000000e+00 -0.0000000000e+00 -1.0000000000e+03 1.0000000000e+03 0.0000000000e+00 0.0000e+00 1.0000e+00
  9000005  2    1    2  501    0 -8.0440665329e-07 +8.3547827217e-06 -8.9311267164e+02 1.1068873281e+03 6.5387255099e+02 0.0000e+00 0.0000e+00
       13  1    3    3    0    0 -1.7680618752e+02 +2.3279879386e+02 -6.9437719424e+02 7.5340254463e+02 0.0000000000e+00 0.0000e+00 1.0000e+00
        1  1    3    3  501    0 +1.7680618672e+02 -2.3279878550e+02 -1.9873547740e+02 3.5348478351e+02 0.0000000000e+00 0.0000e+00 1.0000e+00
       21  1    1    2  502  501 +8.0440663964e-07 -8.3547827250e-06 +1.5777925566e-04 1.5800235119e-04 0.0000000000e+00 0.0000e+00 1.0000e+00
<mgrwt>
<rscale>  1 0.65387255E+03</rscale>
<asrwt>0</asrwt>
<pdfrwt beam="1">  1        1 0.38868259E+00 0.65387255E+03</pdfrwt>
<pdfrwt beam="2">0</pdfrwt>
<totfact> 0.15010558E+00</totfact>
</mgrwt>
</event>
<event>
 6      1 +5.6466785e-02 6.58653400e+02 7.81860800e-03 9.79067600e-02
        1 -1    0    0  502    0 +0.0000000000e+00 +0.0000000000e+00 +1.0848933834e+02 1.0848933834e+02 0.0000000000e+00 0.0000e+00 1.0000e+00
       13 -1    0    0    0    0 -0.0000000000e+00 -0.0000000000e+00 -1.0000000000e+03 1.0000000000e+03 0.0000000000e+00 0.0000e+00 1.0000e+00
  9000005  2    1    2  501    0 -2.1999085553e-03 -1.2310909237e-03 -8.9154387238e+02 1.1084560321e+03 6.5865339797e+02 0.0000e+00 0.0000e+00
       13  1    3    3    0    0 -4.1520414513e+01 -3.2615151926e+02 -4.7760666093e+02 5.7983349412e+02 0.0000000000e+00 0.0000e+00 1.0000e+00
        3  1    3    3  501    0 +4.1518214604e+01 +3.2615028816e+02 -4.1393721145e+02 5.2862253796e+02 0.0000000000e+00 0.0000e+00 1.0000e+00
       21  1    1    2  502  501 +2.1999085553e-03 +1.2310909237e-03 +3.3210721515e-02 3.3306263766e-02 0.0000000000e+00 0.0000e+00 -1.0000e+00
<mgrwt>
<rscale>  1 0.65865340E+03</rscale>
<asrwt>0</asrwt>
<pdfrwt beam="1">  1        1 0.39450752E+00 0.65865340E+03</pdfrwt>
<pdfrwt beam="2">0</pdfrwt>
<totfact> 0.14130475E+00</totfact>
</mgrwt>
</event>
<event>
 6      1 +5.6466785e-02 6.52414300e+02 7.81860800e-03 9.80226000e-02
        1 -1    0    0  502    0 +0.0000000000e+00 +0.0000000000e+00 +1.0643621360e+02 1.0643621360e+02 0.0000000000e+00 0.0000e+00 1.0000e+00
       13 -1    0    0    0    0 -0.0000000000e+00 -0.0000000000e+00 -1.0000000000e+03 1.0000000000e+03 0.0000000000e+00 0.0000e+00 1.0000e+00
  9000005  2    1    2  501    0 +1.3133266201e-02 +8.4858023349e-03 -8.9358618705e+02 1.1064088955e+03 6.5241426260e+02 0.0000e+00 0.0000e+00
       13  1    3    3    0    0 +1.6206196207e+02 +2.8293055716e+02 -4.2968843268e+02 5.3939403862e+02 0.0000000000e+00 0.0000e+00 1.0000e+00
        1  1    3    3  501    0 -1.6204882880e+02 -2.8292207135e+02 -4.6389775437e+02 5.6701485684e+02 0.0000000000e+00 0.0000e+00 1.0000e+00
       21  1    1    2  502  501 -1.3133266201e-02 -8.4858023349e-03 +2.2400651182e-02 2.7318138585e-02 0.0000000000e+00 0.0000e+00 -1.0000e+00
<mgrwt>
<rscale>  1 0.65241426E+03</rscale>
<asrwt>0</asrwt>
<pdfrwt beam="1">  1        1 0.38704159E+00 0.65241426E+03</pdfrwt>
<pdfrwt beam="2">0</pdfrwt>
<totfact> 0.15268041E+00</totfact>
</mgrwt>
</event>
<event>
 6      1 +5.6466785e-02 6.44064000e+02 7.81860800e-03 9.81798200e-02
        1 -1    0    0  502    0 +0.0000000000e+00 +0.0000000000e+00 +1.0372100309e+02 1.0372100309e+02 0.0000000000e+00 0.0000e+00 1.0000e+00
       13 -1    0    0    0    0 -0.0000000000e+00 -0.0000000000e+00 -1.0000000000e+03 1.0000000000e+03 0.0000000000e+00 0.0000e+00 1.0000e+00
  9000005  2    1    2  501    0 -4.2635477296e-02 -5.5836644799e-03 -8.9625479571e+02 1.1036716608e+03 6.4406402960e+02 0.0000e+00 0.0000e+00
       13  1    3    3    0    0 -2.3450425571e+02 -9.5264956869e+01 -1.0694254605e+02 2.7478057811e+02 0.0000000000e+00 0.0000e+00 1.0000e+00
        3  1    3    3  501    0 +2.3446162023e+02 +9.5259373204e+01 -7.8931224965e+02 8.2889108271e+02 0.0000000000e+00 0.0000e+00 1.0000e+00
       21  1    1    2  502  501 +4.2635477296e-02 +5.5836644799e-03 -2.4201203324e-02 4.9342268651e-02 0.0000000000e+00 0.0000e+00 -1.0000e+00
<mgrwt>
<rscale>  1 0.64406403E+03</rscale>
<asrwt>0</asrwt>
<pdfrwt beam="1">  1        1 0.37716808E+00 0.64406403E+03</pdfrwt>
<pdfrwt beam="2">0</pdfrwt>
<totfact> 0.16906800E+00</totfact>
</mgrwt>
</event>
<event>
 6      1 +5.6466785e-02 6.39563200e+02 7.81860800e-03 9.82656300e-02
        1 -1    0    0  502    0 +0.0000000000e+00 +0.0000000000e+00 +1.0445952638e+02 1.0445952638e+02 0.0000000000e+00 0.0000e+00 1.0000e+00
       13 -1    0    0    0    0 -0.0000000000e+00 -0.0000000000e+00 -1.0000000000e+03 1.0000000000e+03 0.0000000000e+00 0.0000e+00 1.0000e+00
  9000005  2    1    2  501    0 -7.3248295797e-02 +7.4286079276e-02 -8.9773836958e+02 1.1022591559e+03 6.3956317562e+02 0.0000e+00 0.0000e+00
       13  1    3    3    0    0 +1.9539742108e+00 -1.1425351738e+02 +6.5866101595e+01 1.3189400134e+02 0.0000000000e+00 0.0000e+00 1.0000e+00
        3  1    3    3  501    0 -2.0272225065e+00 +1.1432780346e+02 -9.6360447117e+02 9.7036515454e+02 0.0000000000e+00 0.0000e+00 1.0000e+00
       21  1    1    2  502  501 +7.3248295797e-02 -7.4286079276e-02 +2.1978959601e+00 2.2003705110e+00 0.0000000000e+00 0.0000e+00 1.0000e+00
<mgrwt>
<rscale>  1 0.63956318E+03</rscale>
<asrwt>0</asrwt>
<pdfrwt beam="1">  1        1 0.37985362E+00 0.63956318E+03</pdfrwt>
<pdfrwt beam="2">0</pdfrwt>
<totfact> 0.16465788E+00</totfact>
</mgrwt>
</event>
<event>
 6      1 +5.6466785e-02 6.51103100e+02 7.81860800e-03 9.80471200e-02
        1 -1    0    0  502    0 +0.0000000000e+00 +0.0000000000e+00 +1.0601990160e+02 1.0601990160e+02 0.0000000000e+00 0.0000e+00 1.0000e+00
       13 -1    0    0    0    0 -0.0000000000e+00 -0.0000000000e+00 -1.0000000000e+03 1.0000000000e+03 0.0000000000e+00 0.0000e+00 1.0000e+00
  9000005  2    1    2  501    0 -1.2666378381e-03 -2.2937056519e-04 -8.9401618034e+02 1.1059837967e+03 6.5110308545e+02 0.0000e+00 0.0000e+00
       13  1    3    3    0    0 +1.5071276559e+01 -3.2105783524e+02 -5.3492092018e+02 6.2405582106e+02 0.0000000000e+00 0.0000e+00 1.0000e+00
        3  1    3    3  501    0 -1.5072543197e+01 +3.2105760587e+02 -3.5909526016e+02 4.8192797565e+02 0.0000000000e+00 0.0000e+00 1.0000e+00
       21  1    1    2  502  501 +1.2666378381e-03 +2.2937056519e-04 +3.6081942108e-02 3.6104896185e-02 0.0000000000e+00 0.0000e+00 1.0000e+00
<mgrwt>
<rscale>  1 0.65110309E+03</rscale>
<asrwt>0</asrwt>
<pdfrwt beam="1">  1        1 0.38552773E+00 0.65110309E+03</pdfrwt>
<pdfrwt beam="2">0</pdfrwt>
<totfact> 0.15509193E+00</totfact>
</mgrwt>
</event>
<event>
 6      1 +5.6466785e-02 5.42263800e+02 7.81860800e-03 1.00330100e-01
        1 -1    0    0  502    0 +0.0000000000e+00 +0.0000000000e+00 +7.3512526276e+01 7.3512526276e+01 0.0000000000e+00 0.0000e+00 1.0000e+00
       13 -1    0    0    0    0 -0.0000000000e+00 -0.0000000000e+00 -1.0000000000e+03 1.0000000000e+03 0.0000000000e+00 0.0000e+00 1.0000e+00
  9000005  2    1    2  501    0 -1.6950363317e-06 -4.5525007693e-06 -9.2648749749e+02 1.0735125020e+03 5.4226378173e+02 0.0000e+00 0.0000e+00
       13  1    3    3    0    0 +7.5877593162e+01 -1.8377066256e+02 -9.8296446179e+01 2.2179102077e+02 0.0000000000e+00 0.0000e+00 1.0000e+00
        3  1    3    3  501    0 -7.5877594857e+01 +1.8377065800e+02 -8.2819105131e+02 8.5172148125e+02 0.0000000000e+00 0.0000e+00 1.0000e+00
       21  1    1    2  502  501 +1.6950363260e-06 +4.5525007572e-06 +2.3769544765e-05 2.4260867042e-05 0.0000000000e+00 0.0000e+00 1.0000e+00
<mgrwt>
<rscale>  1 0.54226378E+03</rscale>
<asrwt>0</asrwt>
<pdfrwt beam="1">  1        1 0.26731884E+00 0.54226378E+03</pdfrwt>
<pdfrwt beam="2">0</pdfrwt>
<totfact> 0.51579623E+00</totfact>
</mgrwt>
</event>
<event>
 6      1 +5.6466785e-02 6.47444600e+02 7.81860800e-03 9.81158600e-02
        3 -1    0    0  502    0 +0.0000000000e+00 +0.0000000000e+00 +1.0480384888e+02 1.0480384888e+02 0.0000000000e+00 0.0000e+00 1.0000e+00
       13 -1    0    0    0    0 -0.0000000000e+00 -0.0000000000e+00 -1.0000000000e+03 1.0000000000e+03 0.0000000000e+00 0.0000e+00 1.0000e+00
  9000005  2    1    2  501    0 +1.3644866627e-02 +1.5372500358e-02 -8.9518372411e+02 1.1047798296e+03 6.4744464745e+02 0.0000e+00 0.0000e+00
       13  1    3    3    0    0 +2.7226847222e+02 -1.7504069342e+02 -4.5659127958e+02 5.5968291193e+02 0.0000000000e+00 0.0000e+00 1.0000e+00
        3  1    3    3  501    0 -2.7225482735e+02 +1.7505606592e+02 -4.3859244452e+02 5.4509691764e+02 0.0000000000e+00 0.0000e+00 1.0000e+00
       21  1    1    2  502  501 -1.3644866627e-02 -1.5372500358e-02 -1.2427015723e-02 2.4019302078e-02 0.0000000000e+00 0.0000e+00 -1.0000e+00
<mgrwt>
<rscale>  1 0.64744465E+03</rscale>
<asrwt>0</asrwt>
<pdfrwt beam="1">  1        3 0.38110571E+00 0.64744465E+03</pdfrwt>
<pdfrwt beam="2">0</pdfrwt>
<totfact> 0.74502591E-02</totfact>
</mgrwt>
</event>
<event>
 6      1 +5.6466785e-02 6.50295300e+02 7.81860800e-03 9.80622500e-02
        1 -1    0    0  502    0 +0.0000000000e+00 +0.0000000000e+00 +1.0572146451e+02 1.0572146451e+02 0.0000000000e+00 0.0000e+00 1.0000e+00
       13 -1    0    0    0    0 -0.0000000000e+00 -0.0000000000e+00 -1.0000000000e+03 1.0000000000e+03 0.0000000000e+00 0.0000e+00 1.0000e+00
  9000005  2    1    2  501    0 +7.0059598457e-04 -1.0849627822e-03 -8.9427775293e+02 1.1057199544e+03 6.5029525464e+02 0.0000e+00 0.0000e+00
       13  1    3    3    0    0 +4.4743089651e+01 +3.0930053284e+02 -2.9456299293e+02 4.2946026649e+02 0.0000000000e+00 0.0000e+00 1.0000e+00
        1  1    3    3  501    0 -4.4742389055e+01 -3.0930161781e+02 -5.9971476000e+02 6.7625968793e+02 0.0000000000e+00 0.0000e+00 1.0000e+00
       21  1    1    2  502  501 -7.0059598457e-04 +1.0849627821e-03 -7.8255960784e-04 1.5100922197e-03 0.0000000000e+00 0.0000e+00 -1.0000e+00
<mgrwt>
<rscale>  1 0.65029525E+03</rscale>
<asrwt>0</asrwt>
<pdfrwt beam="1">  1        1 0.38444250E+00 0.65029525E+03</pdfrwt>
<pdfrwt beam="2">0</pdfrwt>
<totfact> 0.15683904E+00</totfact>
</mgrwt>
</event>
<event>
 6      1 +5.6466785e-02 6.46334800e+02 7.81860800e-03 9.81368100e-02
        1 -1    0    0  502    0 +0.0000000000e+00 +0.0000000000e+00 +1.0609399987e+02 1.0609399987e+02 0.0000000000e+00 0.0000e+00 1.0000e+00
       13 -1    0    0    0    0 -0.0000000000e+00 -0.0000000000e+00 -1.0000000000e+03 1.0000000000e+03 0.0000000000e+00 0.0000e+00 1.0000e+00
  9000005  2    1    2  501    0 -3.6733369246e-01 -5.2108619778e-01 -8.9549482164e+02 1.1043820365e+03 6.4633451125e+02 0.0000e+00 0.0000e+00
       13  1    3    3    0    0 +1.2454832732e+02 +2.8313641971e+02 -2.8919620035e+02 4.2345361056e+02 0.0000000000e+00 0.0000e+00 1.0000e+00
        1  1    3    3  501    0 -1.2491566101e+02 -2.8365750591e+02 -6.0629862130e+02 6.8092842591e+02 0.0000000000e+00 0.0000e+00 1.0000e+00
       21  1    1    2  502  501 +3.6733369246e-01 +5.2108619778e-01 +1.5888215103e+00 1.7119633929e+00 0.0000000000e+00 0.0000e+00 -1.0000e+00
<mgrwt>
<rscale>  1 0.64633483E+03</rscale>
<asrwt>0</asrwt>
<pdfrwt beam="1">  1        1 0.38579718E+00 0.64633483E+03</pdfrwt>
<pdfrwt beam="2">0</pdfrwt>
<totfact> 0.15480351E+00</totfact>
</mgrwt>
</event>
<event>
 6      1 +5.6466785e-02 6.38577400e+02 7.81860800e-03 9.82845200e-02
        1 -1    0    0  502    0 +0.0000000000e+00 +0.0000000000e+00 +1.0194643239e+02 1.0194643239e+02 0.0000000000e+00 0.0000e+00 1.0000e+00
       13 -1    0    0    0    0 -0.0000000000e+00 -0.0000000000e+00 -1.0000000000e+03 1.0000000000e+03 0.0000000000e+00 0.0000e+00 1.0000e+00
  9000005  2    1    2  501    0 -8.0392757866e-05 +7.7075754788e-05 -8.9805473244e+02 1.1019452623e+03 6.3857737084e+02 0.0000e+00 0.0000e+00
       13  1    3    3    0    0 +1.3780080797e+02 -1.1888193270e+02 +3.6764807866e+00 1.8203157174e+02 0.0000000000e+00 0.0000e+00 1.0000e+00
        1  1    3    3  501    0 -1.3780088836e+02 +1.1888200978e+02 -9.0173121322e+02 9.1991369051e+02 0.0000000000e+00 0.0000e+00 1.0000e+00
       21  1    1    2  502  501 +8.0392757870e-05 -7.7075754798e-05 +1.1648298814e-03 1.1701420085e-03 0.0000000000e+00 0.0000e+00 -1.0000e+00
<mgrwt>
<rscale>  1 0.63857737E+03</rscale>
<asrwt>0</asrwt>
<pdfrwt beam="1">  1        1 0.37071508E+00 0.63857737E+03</pdfrwt>
<pdfrwt beam="2">0</pdfrwt>
<totfact> 0.18067088E+00</totfact>
</mgrwt>
</event>
<event>
 6      1 +5.6466785e-02 6.49832300e+02 7.81860800e-03 9.80709400e-02
        1 -1    0    0  502    0 +0.0000000000e+00 +0.0000000000e+00 +1.2767554558e+02 1.2767554558e+02 0.0000000000e+00 0.0000e+00 1.0000e+00
       13 -1    0    0    0    0 -0.0000000000e+00 -0.0000000000e+00 -1.0000000000e+03 1.0000000000e+03 0.0000000000e+00 0.0000e+00 1.0000e+00
  9000005  2    1    2  501    0 -7.1734856243e-01 -3.9458385800e-01 -8.9442112470e+02 1.1055637134e+03 6.4983175189e+02 0.0000e+00 0.0000e+00
       13  1    3    3    0    0 -9.6909311074e-01 -3.8261562426e+00 +1.0553144220e+02 1.0560522670e+02 0.0000000000e+00 0.0000e+00 1.0000e+00
        1  1    3    3  501    0 +2.5174454831e-01 +3.4315723846e+00 -9.9995256690e+02 9.9995848669e+02 0.0000000000e+00 0.0000e+00 1.0000e+00
       21  1    1    2  502  501 +7.1734856243e-01 +3.9458385800e-01 +2.2096670278e+01 2.2111832189e+01 0.0000000000e+00 0.0000e+00 1.0000e+00
<mgrwt>
<rscale>  1 0.64983227E+03</rscale>
<asrwt>0</asrwt>
<pdfrwt beam="1">  1        1 0.46427569E+00 0.64983227E+03</pdfrwt>
<pdfrwt beam="2">0</pdfrwt>
<totfact> 0.68232692E-01</totfact>
</mgrwt>
</event>
<event>
 6      1 +5.6466785e-02 6.48613400e+02 7.81860800e-03 9.80938400e-02
        1 -1    0    0  502    0 +0.0000000000e+00 +0.0000000000e+00 +1.0528748291e+02 1.0528748291e+02 0.0000000000e+00 0.0000e+00 1.0000e+00
       13 -1    0    0    0    0 -0.0000000000e+00 -0.0000000000e+00 -1.0000000000e+03 1.0000000000e+03 0.0000000000e+00 0.0000e+00 1.0000e+00
  9000005  2    1    2  501    0 +7.0864855243e-04 +9.0456915237e-03 -8.9482495246e+02 1.1051746820e+03 6.4861343046e+02 0.0000e+00 0.0000e+00
       13  1    3    3    0    0 -9.6118348183e+01 -4.8820091615e+01 -9.6857248592e+02 9.7455364074e+02 0.0000000000e+00 0.0000e+00 1.0000e+00
        3  1    3    3  501    0 +9.6119056832e+01 +4.8829137306e+01 +7.3747533458e+01 1.3062104129e+02 0.0000000000e+00 0.0000e+00 1.0000e+00
       21  1    1    2  502  501 -7.0864855242e-04 -9.0456915237e-03 +1.1243537050e-01 1.1280088323e-01 0.0000000000e+00 0.0000e+00 1.0000e+00
<mgrwt>
<rscale>  1 0.64861343E+03</rscale>
<asrwt>0</asrwt>
<pdfrwt beam="1">  1        1 0.38286438E+00 0.64861343E+03</pdfrwt>
<pdfrwt beam="2">0</pdfrwt>
<totfact> 0.15942797E+00</totfact>
</mgrwt>
</event>
<event>
 6      1 +5.6466785e-02 6.31690800e+02 7.81860800e-03 9.84175500e-02
        1 -1    0    0  502    0 +0.0000000000e+00 +0.0000000000e+00 +9.9948407183e+01 9.9948407183e+01 0.0000000000e+00 0.0000e+00 1.0000e+00
       13 -1    0    0    0    0 -0.0000000000e+00 -0.0000000000e+00 -1.0000000000e+03 1.0000000000e+03 0.0000000000e+00 0.0000e+00 1.0000e+00
  9000005  2    1    2  501    0 +5.1790432068e-02 +2.2628310987e-02 -9.0023706502e+02 1.0997545149e+03 6.3169076023e+02 0.0000e+00 0.0000e+00
       13  1    3    3    0    0 +1.8310909075e+02 +2.5198503577e+02 -3.5888724313e+02 4.7521095384e+02 0.0000000000e+00 0.0000e+00 1.0000e+00
        3  1    3    3  501    0 -1.8305730032e+02 -2.5196240746e+02 -5.4134982189e+02 6.2454356104e+02 0.0000000000e+00 0.0000e+00 1.0000e+00
       21  1    1    2  502  501 -5.1790432068e-02 -2.2628310987e-02 +1.8547220162e-01 1.9389230745e-01 0.0000000000e+00 0.0000e+00 1.0000e+00
<mgrwt>
<rscale>  1 0.63169076E+03</rscale>
<asrwt>0</asrwt>
<pdfrwt beam="1">  1        1 0.36344952E+00 0.63169076E+03</pdfrwt>
<pdfrwt beam="2">0</pdfrwt>
<totfact> 0.19467055E+00</totfact>
</mgrwt>
</event>
<event>
 6      1 +5.6466785e-02 6.55427800e+02 7.81860800e-03 9.79664700e-02
        1 -1    0    0  502    0 +0.0000000000e+00 +0.0000000000e+00 +1.0739642487e+02 1.0739642487e+02 0.0000000000e+00 0.0000e+00 1.0000e+00
       13 -1    0    0    0    0 -0.0000000000e+00 -0.0000000000e+00 -1.0000000000e+03 1.0000000000e+03 0.0000000000e+00 0.0000e+00 1.0000e+00
  9000005  2    1    2  501    0 +7.2408357710e-07 -3.4285616834e-06 -8.9260358780e+02 1.1073964117e+03 6.5542783564e+02 0.0000e+00 0.0000e+00
       13  1    3    3    0    0 -6.6572639615e+01 -3.1727394813e+02 -5.2736172489e+02 6.1903559137e+02 0.0000000000e+00 0.0000e+00 1.0000e+00
        3  1    3    3  501    0 +6.6572640339e+01 +3.1727394470e+02 -3.6524186292e+02 4.8836082035e+02 0.0000000000e+00 0.0000e+00 1.0000e+00
       21  1    1    2  502  501 -7.2408358124e-07 +3.4285616945e-06 +1.2670685505e-05 1.3146315205e-05 0.0000000000e+00 0.0000e+00 1.0000e+00
<mgrwt>
<rscale>  1 0.65542784E+03</rscale>
<asrwt>0</asrwt>
<pdfrwt beam="1">  1        1 0.39053328E+00 0.65542784E+03</pdfrwt>
<pdfrwt beam="2">0</pdfrwt>
<totfact> 0.14725359E+00</totfact>
</mgrwt>
</event>
<event>
 6      1 +5.6466785e-02 6.32492100e+02 7.81860800e-03 9.84019800e-02
        1 -1    0    0  502    0 +0.0000000000e+00 +0.0000000000e+00 +1.0066483031e+02 1.0066483031e+02 0.0000000000e+00 0.0000e+00 1.0000e+00
       13 -1    0    0    0    0 -0.0000000000e+00 -0.0000000000e+00 -1.0000000000e+03 1.0000000000e+03 0.0000000000e+00 0.0000e+00 1.0000e+00
  9000005  2    1    2  501    0 +1.9709673211e-02 -8.6822772565e-02 -8.9998510181e+02 1.1000088285e+03 6.3249208001e+02 0.0000e+00 0.0000e+00
       13  1    3    3    0    0 +1.1743925626e+02 +2.4569533679e+02 -7.2948717431e+02 7.7865892078e+02 0.0000000000e+00 0.0000e+00 1.0000e+00
        3  1    3    3  501    0 -1.1741954658e+02 -2.4578215957e+02 -1.7049792751e+02 3.2134990768e+02 0.0000000000e+00 0.0000e+00 1.0000e+00
       21  1    1    2  502  501 -1.9709673211e-02 +8.6822772565e-02 +6.4993212013e-01 6.5600184895e-01 0.0000000000e+00 0.0000e+00 1.0000e+00
<mgrwt>
<rscale>  1 0.63249209E+03</rscale>
<asrwt>0</asrwt>
<pdfrwt beam="1">  1        1 0.36605470E+00 0.63249209E+03</pdfrwt>
<pdfrwt beam="2">0</pdfrwt>
<totfact> 0.18959283E+00</totfact>
</mgrwt>
</event>
<event>
 6      1 +5.6466785e-02 6.72904300e+02 7.81860800e-03 9.76472500e-02
        3 -1    0    0  502    0 +0.0000000000e+00 +0.0000000000e+00 +1.1615750168e+02 1.1615750168e+02 0.0000000000e+00 0.0000e+00 1.0000e+00
       13 -1    0    0    0    0 -0.0000000000e+00 -0.0000000000e+00 -1.0000000000e+03 1.0000000000e+03 0.0000000000e+00 0.0000e+00 1.0000e+00
  9000005  2    1    2  501    0 +4.5310399972e-02 +5.9410571170e-02 -8.8679941357e+02 1.1131996426e+03 6.7290433106e+02 0.0000e+00 0.0000e+00
       13  1    3    3    0    0 -1.1268461339e+02 +1.1058074498e+02 +4.8116157723e+01 1.6504874398e+02 0.0000000000e+00 0.0000e+00 1.0000e+00
        3  1    3    3  501    0 +1.1272992379e+02 -1.1052133441e+02 -9.3491557129e+02 9.4815089860e+02 0.0000000000e+00 0.0000e+00 1.0000e+00
       21  1    1    2  502  501 -4.5310399972e-02 -5.9410571170e-02 +2.9569152462e+00 2.9578590942e+00 0.0000000000e+00 0.0000e+00 1.0000e+00
<mgrwt>
<rscale>  1 0.67290434E+03</rscale>
<asrwt>0</asrwt>
<pdfrwt beam="1">  1        3 0.42239181E+00 0.67290434E+03</pdfrwt>
<pdfrwt beam="2">0</pdfrwt>
<totfact> 0.45106954E-02</totfact>
</mgrwt>
</event>
<event>
 6      1 +5.6466785e-02 5.50663700e+02 7.81860800e-03 1.00134000e-01
        1 -1    0    0  502    0 +0.0000000000e+00 +0.0000000000e+00 +7.5808439975e+01 7.5808439975e+01 0.0000000000e+00 0.0000e+00 1.0000e+00
       13 -1    0    0    0    0 -0.0000000000e+00 -0.0000000000e+00 -1.0000000000e+03 1.0000000000e+03 0.0000000000e+00 0.0000e+00 1.0000e+00
  9000005  2    1    2  501    0 +7.9850425129e-04 +1.2520482401e-03 -9.2419158324e+02 1.0758069548e+03 5.5066370994e+02 0.0000e+00 0.0000e+00
       13  1    3    3    0    0 +2.6650770161e+02 -2.7543325664e+01 -5.8600826782e+02 6.4435291554e+02 0.0000000000e+00 0.0000e+00 1.0000e+00
        1  1    3    3  501    0 -2.6650690310e+02 +2.7544577712e+01 -3.3818331542e+02 4.3145403926e+02 0.0000000000e+00 0.0000e+00 1.0000e+00
       21  1    1    2  502  501 -7.9850425125e-04 -1.2520482401e-03 +2.3214765591e-05 1.4851844196e-03 0.0000000000e+00 0.0000e+00 1.0000e+00
<mgrwt>
<rscale>  1 0.55066371E+03</rscale>
<asrwt>0</asrwt>
<pdfrwt beam="1">  1        1 0.27566764E+00 0.55066371E+03</pdfrwt>
<pdfrwt beam="2">0</pdfrwt>
<totfact> 0.47398296E+00</totfact>
</mgrwt>
</event>
<event>
 6      1 +5.6466785e-02 6.46521700e+02 7.81860800e-03 9.81332800e-02
        1 -1    0    0  502    0 +0.0000000000e+00 +0.0000000000e+00 +1.0467564869e+02 1.0467564869e+02 0.0000000000e+00 0.0000e+00 1.0000e+00
       13 -1    0    0    0    0 -0.0000000000e+00 -0.0000000000e+00 -1.0000000000e+03 1.0000000000e+03 0.0000000000e+00 0.0000e+00 1.0000e+00
  9000005  2    1    2  501    0 +4.0485450962e-03 +2.8184195129e-02 -8.9550116872e+02 1.1044965534e+03 6.4652168748e+02 0.0000e+00 0.0000e+00
       13  1    3    3    0    0 -2.3579809419e+02 +2.1611073538e+02 -5.2785683968e+02 6.1720129161e+02 0.0000000000e+00 0.0000e+00 1.0000e+00
        1  1    3    3  501    0 +2.3580214273e+02 -2.1608255119e+02 -3.6764432904e+02 4.8729526175e+02 0.0000000000e+00 0.0000e+00 1.0000e+00
       21  1    1    2  502  501 -4.0485450962e-03 -2.8184195129e-02 +1.7681741439e-01 1.7909533105e-01 0.0000000000e+00 0.0000e+00 1.0000e+00
<mgrwt>
<rscale>  1 0.64652169E+03</rscale>
<asrwt>0</asrwt>
<pdfrwt beam="1">  1        1 0.38063953E+00 0.64652169E+03</pdfrwt>
<pdfrwt beam="2">0</pdfrwt>
<totfact> 0.16313861E+00</totfact>
</mgrwt>
</event>
<event>
 6      1 +5.6466785e-02 6.54868900e+02 7.81860800e-03 9.79768600e-02
        1 -1    0    0  502    0 +0.0000000000e+00 +0.0000000000e+00 +1.0721346444e+02 1.0721346444e+02 0.0000000000e+00 0.0000e+00 1.0000e+00
       13 -1    0    0    0    0 -0.0000000000e+00 -0.0000000000e+00 -1.0000000000e+03 1.0000000000e+03 0.0000000000e+00 0.0000e+00 1.0000e+00
  9000005  2    1    2  501    0 +1.1570681642e-05 -7.1712211707e-06 -8.9278668570e+02 1.1072133137e+03 6.5486888445e+02 0.0000e+00 0.0000e+00
       13  1    3    3    0    0 -2.8962687018e+00 +3.1465872546e+02 -2.9333873968e+02 4.3019311719e+02 0.0000000000e+00 0.0000e+00 1.0000e+00
        3  1    3    3  501    0 +2.8962802725e+00 -3.1465873263e+02 -5.9944794603e+02 6.7702019649e+02 0.0000000000e+00 0.0000e+00 1.0000e+00
       21  1    1    2  502  501 -1.1570681642e-05 +7.1712211976e-06 +1.5014001869e-04 1.5075586987e-04 0.0000000000e+00 0.0000e+00 1.0000e+00
<mgrwt>
<rscale>  1 0.65486888E+03</rscale>
<asrwt>0</asrwt>
<pdfrwt beam="1">  1        1 0.38986797E+00 0.65486888E+03</pdfrwt>
<pdfrwt beam="2">0</pdfrwt>
<totfact> 0.14827289E+00</totfact>
</mgrwt>
</event>
<event>
 6      1 +5.6466785e-02 6.17180600e+02 7.81860800e-03 9.87038900e-02
        1 -1    0    0  502    0 +0.0000000000e+00 +0.0000000000e+00 +1.0629067696e+02 1.0629067696e+02 0.0000000000e+00 0.0000e+00 1.0000e+00
       13 -1    0    0    0    0 -0.0000000000e+00 -0.0000000000e+00 -1.0000000000e+03 1.0000000000e+03 0.0000000000e+00 0.0000e+00 1.0000e+00
  9000005  2    1    2  501    0 -3.8003803535e-01 -7.3245243055e-02 -9.0476830977e+02 1.0952249198e+03 6.1718050910e+02 0.0000e+00 0.0000e+00
       13  1    3    3    0    0 +7.8016633460e+01 -5.9983289714e+01 -9.7126734604e+02 9.7624015879e+02 0.0000000000e+00 0.0000e+00 1.0000e+00
        3  1    3    3  501    0 -7.8396671495e+01 +5.9910044471e+01 +6.6499036272e+01 1.1898476102e+02 0.0000000000e+00 0.0000e+00 1.0000e+00
       21  1    1    2  502  501 +3.8003803535e-01 +7.3245243055e-02 +1.1058986727e+01 1.1065757146e+01 0.0000000000e+00 0.0000e+00 1.0000e+00
<mgrwt>
<rscale>  1 0.61718063E+03</rscale>
<asrwt>0</asrwt>
<pdfrwt beam="1">  1        1 0.38651237E+00 0.61718063E+03</pdfrwt>
<pdfrwt beam="2">0</pdfrwt>
<totfact> 0.15453335E+00</totfact>
</mgrwt>
</event>
<event>
 6      1 +5.6466785e-02 6.47209100e+02 7.81860800e-03 9.81203000e-02
        1 -1    0    0  502    0 +0.0000000000e+00 +0.0000000000e+00 +1.0543991046e+02 1.0543991046e+02 0.0000000000e+00 0.0000e+00 1.0000e+00
       13 -1    0    0    0    0 -0.0000000000e+00 -0.0000000000e+00 -1.0000000000e+03 1.0000000000e+03 0.0000000000e+00 0.0000e+00 1.0000e+00
  9000005  2    1    2  501    0 +2.5940044476e-01 +1.5811751734e-01 -8.9524454015e+02 1.1046910698e+03 6.4720899305e+02 0.0000e+00 0.0000e+00
       13  1    3    3    0    0 +2.0960378708e+01 -2.3006947152e+02 -6.0895853332e+01 2.3891338212e+02 0.0000000000e+00 0.0000e+00 1.0000e+00
        1  1    3    3  501    0 -2.0700978263e+01 +2.3022758904e+02 -8.3434868681e+02 8.6577768766e+02 0.0000000000e+00 0.0000e+00 1.0000e+00
       21  1    1    2  502  501 -2.5940044476e-01 -1.5811751734e-01 +6.8445060354e-01 7.4884068314e-01 0.0000000000e+00 0.0000e+00 1.0000e+00
<mgrwt>
<rscale>  1 0.64720906E+03</rscale>
<asrwt>0</asrwt>
<pdfrwt beam="1">  1        1 0.38341866E+00 0.64720906E+03</pdfrwt>
<pdfrwt beam="2">0</pdfrwt>
<totfact> 0.15857245E+00</totfact>
</mgrwt>
</event>
<event>
 6      1 +5.6466785e-02 6.42754400e+02 7.81860800e-03 9.82047100e-02
        1 -1    0    0  502    0 +0.0000000000e+00 +0.0000000000e+00 +1.0328342338e+02 1.0328342338e+02 0.0000000000e+00 0.0000e+00 1.0000e+00
       13 -1    0    0    0    0 -0.0000000000e+00 -0.0000000000e+00 -1.0000000000e+03 1.0000000000e+03 0.0000000000e+00 0.0000e+00 1.0000e+00
  9000005  2    1    2  501    0 +5.1844654883e-05 -4.9755379962e-05 -8.9671669136e+02 1.1032832880e+03 6.4275437688e+02 0.0000e+00 0.0000e+00
       13  1    3    3    0    0 +7.3633909976e+00 +2.9615898188e+02 -6.6219034295e+02 7.2543808307e+02 0.0000000000e+00 0.0000e+00 1.0000e+00
        1  1    3    3  501    0 -7.3633391529e+00 -2.9615903163e+02 -2.3452634841e+02 3.7784520492e+02 0.0000000000e+00 0.0000e+00 1.0000e+00
       21  1    1    2  502  501 -5.1844654884e-05 +4.9755379952e-05 +1.1474339972e-04 1.3538653498e-04 0.0000000000e+00 0.0000e+00 -1.0000e+00
<mgrwt>
<rscale>  1 0.64275438E+03</rscale>
<asrwt>0</asrwt>
<pdfrwt beam="1">  1        1 0.37557688E+00 0.64275438E+03</pdfrwt>
<pdfrwt beam="2">0</pdfrwt>
<totfact> 0.17185976E+00</totfact>
</mgrwt>
</event>
<event>
 6      1 +5.6466785e-02 6.31467200e+02 7.81860800e-03 9.84219000e-02
        1 -1    0    0  502    0 +0.0000000000e+00 +0.0000000000e+00 +9.9732904734e+01 9.9732904734e+01 0.0000000000e+00 0.0000e+00 1.0000e+00
       13 -1    0    0    0    0 -0.0000000000e+00 -0.0000000000e+00 -1.0000000000e+03 1.0000000000e+03 0.0000000000e+00 0.0000e+00 1.0000e+00
  9000005  2    1    2  501    0 -1.8835882196e-04 -8.7094013165e-04 -9.0031229476e+02 1.0996876965e+03 6.3146718176e+02 0.0000e+00 0.0000e+00
       13  1    3    3    0    0 +2.7274271066e+02 -1.5735928715e+02 -4.9052168483e+02 5.8289111742e+02 0.0000000000e+00 0.0000e+00 1.0000e+00
        1  1    3    3  501    0 -2.7274289902e+02 +1.5735841621e+02 -4.0979060993e+02 5.1679657904e+02 0.0000000000e+00 0.0000e+00 1.0000e+00
       21  1    1    2  502  501 +1.8835882196e-04 +8.7094013165e-04 +4.5199494948e-02 4.5208277553e-02 0.0000000000e+00 0.0000e+00 -1.0000e+00
<mgrwt>
<rscale>  1 0.63146718E+03</rscale>
<asrwt>0</asrwt>
<pdfrwt beam="1">  1        1 0.36266587E+00 0.63146718E+03</pdfrwt>
<pdfrwt beam="2">0</pdfrwt>
<totfact> 0.19622270E+00</totfact>
</mgrwt>
</event>
<event>
 6      1 +5.6466785e-02 6.53521200e+02 7.81860800e-03 9.80019400e-02
        1 -1    0    0  502    0 +0.0000000000e+00 +0.0000000000e+00 +1.0688304901e+02 1.0688304901e+02 0.0000000000e+00 0.0000e+00 1.0000e+00
       13 -1    0    0    0    0 -0.0000000000e+00 -0.0000000000e+00 -1.0000000000e+03 1.0000000000e+03 0.0000000000e+00 0.0000e+00 1.0000e+00
  9000005  2    1    2  501    0 +7.8258764640e-03 -1.1671060708e-02 -8.9322700201e+02 1.1067721045e+03 6.5352124218e+02 0.0000e+00 0.0000e+00
       13  1    3    3    0    0 -2.4781979601e+02 +1.9489147403e+02 -3.0120607105e+02 4.3603031452e+02 0.0000000000e+00 0.0000e+00 1.0000e+00
        1  1    3    3  501    0 +2.4782762188e+02 -1.9490314509e+02 -5.9202093096e+02 6.7074178998e+02 0.0000000000e+00 0.0000e+00 1.0000e+00
       21  1    1    2  502  501 -7.8258764640e-03 +1.1671060708e-02 +1.1005102116e-01 1.1094451433e-01 0.0000000000e+00 0.0000e+00 -1.0000e+00
<mgrwt>
<rscale>  1 0.65352124E+03</rscale>
<asrwt>0</asrwt>
<pdfrwt beam="1">  1        1 0.38866645E+00 0.65352124E+03</pdfrwt>
<pdfrwt beam="2">0</pdfrwt>
<totfact> 0.15014006E+00</totfact>
</mgrwt>
</event>
<event>
 6      1 +5.6466785e-02 6.51200300e+02 7.81860800e-03 9.80452900e-02
        1 -1    0    0  502    0 +0.0000000000e+00 +0.0000000000e+00 +1.0601911446e+02 1.0601911446e+02 0.0000000000e+00 0.0000e+00 1.0000e+00
       13 -1    0    0    0    0 -0.0000000000e+00 -0.0000000000e+00 -1.0000000000e+03 1.0000000000e+03 0.0000000000e+00 0.0000e+00 1.0000e+00
  9000005  2    1    2  501    0 -5.4008383953e-03 -6.6776245348e-03 -8.9397771588e+02 1.1060099599e+03 6.5120033383e+02 0.0000e+00 0.0000e+00
       13  1    3    3    0    0 +2.6475528112e+02 -1.2754054360e+02 -6.8508698452e+02 7.4545699105e+02 0.0000000000e+00 0.0000e+00 1.0000e+00
        1  1    3    3  501    0 -2.6476068196e+02 +1.2753386597e+02 -2.0889073136e+02 3.6055296882e+02 0.0000000000e+00 0.0000e+00 1.0000e+00
       21  1    1    2  502  501 +5.4008383953e-03 +6.6776245348e-03 -3.1696605614e-03 9.1545875317e-03 0.0000000000e+00 0.0000e+00 1.0000e+00
<mgrwt>
<rscale>  1 0.65120033E+03</rscale>
<asrwt>0</asrwt>
<pdfrwt beam="1">  1        1 0.38552487E+00 0.65120033E+03</pdfrwt>
<pdfrwt beam="2">0</pdfrwt>
<totfact> 0.15509366E+00</totfact>
</mgrwt>
</event>
<event>
 6      1 +5.6466785e-02 5.69798300e+02 7.81860800e-03 9.97012500e-02
        1 -1    0    0  502    0 +0.0000000000e+00 +0.0000000000e+00 +8.1331638894e+01 8.1331638894e+01 0.0000000000e+00 0.0000e+00 1.0000e+00
       13 -1    0    0    0    0 -0.0000000000e+00 -0.0000000000e+00 -1.0000000000e+03 1.0000000000e+03 0.0000000000e+00 0.0000e+00 1.0000e+00
  9000005  2    1    2  501    0 +5.1764856053e-01 -1.2533023903e-01 -9.1815555201e+02 1.0805922872e+03 5.6979802552e+02 0.0000e+00 0.0000e+00
       13  1    3    3    0    0 -3.1446027366e+01 -2.7514373533e+02 -5.8624254298e+02 6.4836197215e+02 0.0000000000e+00 0.0000e+00 1.0000e+00
        1  1    3    3  501    0 +3.1963675926e+01 +2.7501840509e+02 -3.3191300903e+02 4.3223031509e+02 0.0000000000e+00 0.0000e+00 1.0000e+00
       21  1    1    2  502  501 -5.1764856053e-01 +1.2533023903e-01 -5.1280909815e-01 7.3935165664e-01 0.0000000000e+00 0.0000e+00 -1.0000e+00
<mgrwt>
<rscale>  1 0.56979827E+03</rscale>
<asrwt>0</asrwt>
<pdfrwt beam="1">  1        1 0.29575204E+00 0.56979827E+03</pdfrwt>
<pdfrwt beam="2">0</pdfrwt>
<totfact> 0.38694688E+00</totfact>
</mgrwt>
</event>
<event>
 6      1 +5.6466785e-02 6.58885200e+02 7.81860800e-03 9.79024800e-02
        1 -1    0    0  502    0 +0.0000000000e+00 +0.0000000000e+00 +1.1091638272e+02 1.1091638272e+02 0.0000000000e+00 0.0000e+00 1.0000e+00
       13 -1    0    0    0    0 -0.0000000000e+00 -0.0000000000e+00 -1.0000000000e+03 1.0000000000e+03 0.0000000000e+00 0.0000e+00 1.0000e+00
  9000005  2    1    2  501    0 +9.4090079494e-01 +1.2726284249e+00 -8.9117279534e+02 1.1082954015e+03 6.5888332884e+02 0.0000e+00 0.0000e+00
       13  1    3    3    0    0 -3.1899539339e+02 -1.8850456788e+01 -3.1360983694e+02 4.4773265522e+02 0.0000000000e+00 0.0000e+00 1.0000e+00
        3  1    3    3  501    0 +3.1993629418e+02 +2.0123085213e+01 -5.7756295841e+02 6.6056274631e+02 0.0000000000e+00 0.0000e+00 1.0000e+00
       21  1    1    2  502  501 -9.4090079494e-01 -1.2726284249e+00 +2.0891780634e+00 2.6209811893e+00 0.0000000000e+00 0.0000e+00 -1.0000e+00
<mgrwt>
<rscale>  1 0.65888523E+03</rscale>
<asrwt>0</asrwt>
<pdfrwt beam="1">  1        1 0.40333315E+00 0.65888523E+03</pdfrwt>
<pdfrwt beam="2">0</pdfrwt>
<totfact> 0.12906539E+00</totfact>
</mgrwt>
</event>
<event>
 6      1 +5.6466785e-02 6.48378600e+02 7.81860800e-03 9.80982600e-02
        3 -1    0    0  502    0 +0.0000000000e+00 +0.0000000000e+00 +1.0844345567e+02 1.0844345567e+02 0.0000000000e+00 0.0000e+00 1.0000e+00
       13 -1    0    0    0    0 -0.0000000000e+00 -0.0000000000e+00 -1.0000000000e+03 1.0000000000e+03 0.0000000000e+00 0.0000e+00 1.0000e+00
  9000005  2    1    2  501    0 -8.6769833754e-02 +1.5846381441e-01 -8.9489859044e+02 1.1050965299e+03 6.4837860900e+02 0.0000e+00 0.0000e+00
       13  1    3    3    0    0 -1.5625029691e+01 +1.2924822840e+01 -9.9893172800e+02 9.9913752297e+02 0.0000000000e+00 0.0000e+00 1.0000e+00
        3  1    3    3  501    0 +1.5538259857e+01 -1.2766359026e+01 +1.0403313756e+02 1.0595900694e+02 0.0000000000e+00 0.0000e+00 1.0000e+00
       21  1    1    2  502  501 +8.6769833754e-02 -1.5846381441e-01 +3.3420461185e+00 3.3469257600e+00 0.0000000000e+00 0.0000e+00 -1.0000e+00
<mgrwt>
<rscale>  1 0.64837863E+03</rscale>
<asrwt>0</asrwt>
<pdfrwt beam="1">  1        3 0.39434067E+00 0.64837863E+03</pdfrwt>
<pdfrwt beam="2">0</pdfrwt>
<totfact> 0.63447322E-02</totfact>
</mgrwt>
</event>
<event>
 6      1 +5.6466785e-02 6.55531900e+02 7.81860800e-03 9.79645400e-02
        1 -1    0    0  502    0 +0.0000000000e+00 +0.0000000000e+00 +1.0743494888e+02 1.0743494888e+02 0.0000000000e+00 0.0000e+00 1.0000e+00
       13 -1    0    0    0    0 -0.0000000000e+00 -0.0000000000e+00 -1.0000000000e+03 1.0000000000e+03 0.0000000000e+00 0.0000e+00 1.0000e+00
  9000005  2    1    2  501    0 -1.5918310460e-03 -5.1439519495e-03 -8.9256757455e+02 1.1074290023e+03 6.5553193665e+02 0.0000e+00 0.0000e+00
       13  1    3    3    0    0 -2.5229646289e+02 +1.3802462985e+02 -1.8064022376e+02 3.3961035625e+02 0.0000000000e+00 0.0000e+00 1.0000e+00
        3  1    3    3  501    0 +2.5229487106e+02 -1.3802977380e+02 -7.1192735079e+02 7.6781864605e+02 0.0000000000e+00 0.0000e+00 1.0000e+00
       21  1    1    2  502  501 +1.5918310460e-03 +5.1439519494e-03 +2.5234301015e-03 5.9465844999e-03 0.0000000000e+00 0.0000e+00 -1.0000e+00
<mgrwt>
<rscale>  1 0.65553194E+03</rscale>
<asrwt>0</asrwt>
<pdfrwt beam="1">  1        1 0.39067337E+00 0.65553194E+03</pdfrwt>
<pdfrwt beam="2">0</pdfrwt>
<totfact> 0.14704019E+00</totfact>
</mgrwt>
</event>
<event>
 6      1 +5.6466785e-02 6.40126100e+02 7.81860800e-03 9.82548500e-02
        1 -1    0    0  502    0 +0.0000000000e+00 +0.0000000000e+00 +1.0298865532e+02 1.0298865532e+02 0.0000000000e+00 0.0000e+00 1.0000e+00
       13 -1    0    0    0    0 -0.0000000000e+00 -0.0000000000e+00 -1.0000000000e+03 1.0000000000e+03 0.0000000000e+00 0.0000e+00 1.0000e+00
  9000005  2    1    2  501    0 +2.8924538985e-02 +2.1513957026e-02 -8.9755898827e+02 1.1024398266e+03 6.4012610673e+02 0.0000e+00 0.0000e+00
       13  1    3    3    0    0 -2.9061067894e+02 -9.8170051926e+01 -6.0601638165e+02 6.7922586865e+02 0.0000000000e+00 0.0000e+00 1.0000e+00
        3  1    3    3  501    0 +2.9063960348e+02 +9.8191565883e+01 -2.9154260662e+02 4.2321395794e+02 0.0000000000e+00 0.0000e+00 1.0000e+00
       21  1    1    2  502  501 -2.8924538985e-02 -2.1513957026e-02 +5.4764358957e-01 5.4882873513e-01 0.0000000000e+00 0.0000e+00 1.0000e+00
<mgrwt>
<rscale>  1 0.64012611E+03</rscale>
<asrwt>0</asrwt>
<pdfrwt beam="1">  1        1 0.37450499E+00 0.64012611E+03</pdfrwt>
<pdfrwt beam="2">0</pdfrwt>
<totfact> 0.17382069E+00</totfact>
</mgrwt>
</event>
<event>
 6      1 +5.6466785e-02 6.55393100e+02 7.81860800e-03 9.79671200e-02
        1 -1    0    0  502    0 +0.0000000000e+00 +0.0000000000e+00 +1.0738711150e+02 1.0738711150e+02 0.0000000000e+00 0.0000e+00 1.0000e+00
       13 -1    0    0    0    0 -0.0000000000e+00 -0.0000000000e+00 -1.0000000000e+03 1.0000000000e+03 0.0000000000e+00 0.0000e+00 1.0000e+00
  9000005  2    1    2  501    0 -3.4200478202e-03 +8.0732010144e-04 -8.9261318926e+02 1.1073835846e+03 6.5539308648e+02 0.0000e+00 0.0000e+00
       13  1    3    3    0    0 +2.4587859067e+01 -2.7389871208e+02 -1.4518978004e+02 3.1097449979e+02 0.0000000000e+00 0.0000e+00 1.0000e+00
        1  1    3    3  501    0 -2.4591279115e+01 +2.7389951940e+02 -7.4742340922e+02 7.9640908482e+02 0.0000000000e+00 0.0000e+00 1.0000e+00
       21  1    1    2  502  501 +3.4200478202e-03 -8.0732010144e-04 +3.0075176676e-04 3.5268887796e-03 0.0000000000e+00 0.0000e+00 1.0000e+00
<mgrwt>
<rscale>  1 0.65539309E+03</rscale>
<asrwt>0</asrwt>
<pdfrwt beam="1">  1        1 0.39049941E+00 0.65539309E+03</pdfrwt>
<pdfrwt beam="2">0</pdfrwt>
<totfact> 0.14730549E+00</totfact>
</mgrwt>
</event>
<event>
 6      1 +5.6466785e-02 6.83194500e+02 7.81860800e-03 9.74641100e-02
        3 -1    0    0  502    0 +0.0000000000e+00 +0.0000000000e+00 +1.1668878374e+02 1.1668878374e+02 0.0000000000e+00 0.0000e+00 1.0000e+00
       13 -1    0    0    0    0 -0.0000000000e+00 -0.0000000000e+00 -1.0000000000e+03 1.0000000000e+03 0.0000000000e+00 0.0000e+00 1.0000e+00
  9000005  2    1    2  501    0 +1.4154150875e-04 +3.6616506918e-05 -8.8331127612e+02 1.1166886258e+03 6.8319446453e+02 0.0000e+00 0.0000e+00
       13  1    3    3    0    0 +2.2967190657e+02 +2.3334473462e+02 -2.8242920613e+02 4.3239473438e+02 0.0000000000e+00 0.0000e+00 1.0000e+00
        1  1    3    3  501    0 -2.2967176503e+02 -2.3334469800e+02 -6.0088206999e+02 6.8429389138e+02 0.0000000000e+00 0.0000e+00 1.0000e+00
       21  1    1    2  502  501 -1.4154150875e-04 -3.6616506940e-05 +5.9859949111e-05 1.5798095071e-04 0.0000000000e+00 0.0000e+00 -1.0000e+00
<mgrwt>
<rscale>  1 0.68319446E+03</rscale>
<asrwt>0</asrwt>
<pdfrwt beam="1">  1        3 0.42432374E+00 0.68319446E+03</pdfrwt>
<pdfrwt beam="2">0</pdfrwt>
<totfact> 0.44001884E-02</totfact>
</mgrwt>
</event>
<event>
 6      1 +5.6466785e-02 6.41706600e+02 7.81860800e-03 9.82246700e-02
        1 -1    0    0  502    0 +0.0000000000e+00 +0.0000000000e+00 +1.0294683536e+02 1.0294683536e+02 0.0000000000e+00 0.0000e+00 1.0000e+00
       13 -1    0    0    0    0 -0.0000000000e+00 -0.0000000000e+00 -1.0000000000e+03 1.0000000000e+03 0.0000000000e+00 0.0000e+00 1.0000e+00
  9000005  2    1    2  501    0 -1.6115446186e-06 +2.1020901499e-06 -8.9705317412e+02 1.1029468255e+03 6.4170655500e+02 0.0000e+00 0.0000e+00
       13  1    3    3    0    0 +9.4629608061e+01 +2.9769922283e+02 -5.7444622188e+02 6.5388687999e+02 0.0000000000e+00 0.0000e+00 1.0000e+00
        3  1    3    3  501    0 -9.4629609673e+01 -2.9769922072e+02 -3.2260695224e+02 4.4905994553e+02 0.0000000000e+00 0.0000e+00 1.0000e+00
       21  1    1    2  502  501 +1.6115446109e-06 -2.1020901573e-06 +9.4755371451e-06 9.8387836266e-06 0.0000000000e+00 0.0000e+00 -1.0000e+00
<mgrwt>
<rscale>  1 0.64170656E+03</rscale>
<asrwt>0</asrwt>
<pdfrwt beam="1">  1        1 0.37435292E+00 0.64170656E+03</pdfrwt>
<pdfrwt beam="2">0</pdfrwt>
<totfact> 0.17403838E+00</totfact>
</mgrwt>
</event>
<event>
 6      1 +5.6466785e-02 6.30317300e+02 7.81860800e-03 9.84443000e-02
        1 -1    0    0  502    0 +0.0000000000e+00 +0.0000000000e+00 +9.9334506319e+01 9.9334506319e+01 0.0000000000e+00 0.0000e+00 1.0000e+00
       13 -1    0    0    0    0 -0.0000000000e+00 -0.0000000000e+00 -1.0000000000e+03 1.0000000000e+03 0.0000000000e+00 0.0000e+00 1.0000e+00
  9000005  2    1    2  501    0 +3.3658947928e-04 -1.6585778953e-04 -9.0067503408e+02 1.0993249585e+03 6.3031725937e+02 0.0000e+00 0.0000e+00
       13  1    3    3    0    0 +3.0524233269e+02 -7.7289515069e+01 -4.2703442795e+02 5.3057040386e+02 0.0000000000e+00 0.0000e+00 1.0000e+00
        1  1    3    3  501    0 -3.0524199610e+02 +7.7289349211e+01 -4.7364060614e+02 5.6875455468e+02 0.0000000000e+00 0.0000e+00 1.0000e+00
       21  1    1    2  502  501 -3.3658947928e-04 +1.6585778953e-04 +9.5404005231e-03 9.5477768839e-03 0.0000000000e+00 0.0000e+00 -1.0000e+00
<mgrwt>
<rscale>  1 0.63031726E+03</rscale>
<asrwt>0</asrwt>
<pdfrwt beam="1">  1        1 0.36121715E+00 0.63031726E+03</pdfrwt>
<pdfrwt beam="2">0</pdfrwt>
<totfact> 0.19915003E+00</totfact>
</mgrwt>
</event>
<event>
 6      1 +5.6466785e-02 6.57663900e+02 7.81860800e-03 9.79250400e-02
        1 -1    0    0  502    0 +0.0000000000e+00 +0.0000000000e+00 +1.0813192511e+02 1.0813192511e+02 0.0000000000e+00 0.0000e+00 1.0000e+00
       13 -1    0    0    0    0 -0.0000000000e+00 -0.0000000000e+00 -1.0000000000e+03 1.0000000000e+03 0.0000000000e+00 0.0000e+00 1.0000e+00
  9000005  2    1    2  501    0 -1.7551621164e-03 -3.3981577631e-03 -8.9185812883e+02 1.1081212690e+03 6.5766391483e+02 0.0000e+00 0.0000e+00
       13  1    3    3    0    0 -3.2523441596e+02 -2.4339030593e+01 -5.1664344328e+02 6.1097484500e+02 0.0000000000e+00 0.0000e+00 1.0000e+00
        3  1    3    3  501    0 +3.2523266080e+02 +2.4335632435e+01 -3.7521468554e+02 4.9714642401e+02 0.0000000000e+00 0.0000e+00 1.0000e+00
       21  1    1    2  502  501 +1.7551621164e-03 +3.3981577631e-03 -9.9460686882e-03 1.0656094622e-02 0.0000000000e+00 0.0000e+00 -1.0000e+00
<mgrwt>
<rscale>  1 0.65766391E+03</rscale>
<asrwt>0</asrwt>
<pdfrwt beam="1">  1        1 0.39320783E+00 0.65766391E+03</pdfrwt>
<pdfrwt beam="2">0</pdfrwt>
<totfact> 0.14322293E+00</totfact>
</mgrwt>
</event>
<event>
 6      1 +5.6466785e-02 6.70533300e+02 7.81860800e-03 9.76899500e-02
        1 -1    0    0  502    0 +0.0000000000e+00 +0.0000000000e+00 +1.1240383782e+02 1.1240383782e+02 0.0000000000e+00 0.0000e+00 1.0000e+00
       13 -1    0    0    0    0 -0.0000000000e+00 -0.0000000000e+00 -1.0000000000e+03 1.0000000000e+03 0.0000000000e+00 0.0000e+00 1.0000e+00
  9000005  2    1    2  501    0 +6.9253577848e-05 +4.5445932017e-05 -8.8759624619e+02 1.1124037198e+03 6.7053332481e+02 0.0000e+00 0.0000e+00
       13  1    3    3    0    0 -1.1497711893e+02 +2.8598864445e+02 -6.6259848040e+02 7.3078450234e+02 0.0000000000e+00 0.0000e+00 1.0000e+00
        3  1    3    3  501    0 +1.1497718818e+02 -2.8598859900e+02 -2.2499776579e+02 3.8161921751e+02 0.0000000000e+00 0.0000e+00 1.0000e+00
       21  1    1    2  502  501 -6.9253577847e-05 -4.5445932014e-05 +8.4007019634e-05 1.1797698983e-04 0.0000000000e+00 0.0000e+00 -1.0000e+00
<mgrwt>
<rscale>  1 0.67053332E+03</rscale>
<asrwt>0</asrwt>
<pdfrwt beam="1">  1        1 0.40874209E+00 0.67053332E+03</pdfrwt>
<pdfrwt beam="2">0</pdfrwt>
<totfact> 0.12180121E+00</totfact>
</mgrwt>
</event>
<event>
 6      1 +5.6466785e-02 6.41204000e+02 7.81860800e-03 9.82342600e-02
        1 -1    0    0  502    0 +0.0000000000e+00 +0.0000000000e+00 +1.2360029492e+02 1.2360029492e+02 0.0000000000e+00 0.0000e+00 1.0000e+00
       13 -1    0    0    0    0 -0.0000000000e+00 -0.0000000000e+00 -1.0000000000e+03 1.0000000000e+03 0.0000000000e+00 0.0000e+00 1.0000e+00
  9000005  2    1    2  501    0 +3.1707672123e-01 +1.1310515553e-01 -8.9721285422e+02 1.1027844234e+03 6.4120391869e+02 0.0000e+00 0.0000e+00
       13  1    3    3    0    0 +1.4118415897e+01 -2.2723543376e+02 -6.0429850931e+01 2.3555686979e+02 0.0000000000e+00 0.0000e+00 1.0000e+00
        3  1    3    3  501    0 -1.3801339176e+01 +2.2734853891e+02 -8.3678300329e+02 8.6722755359e+02 0.0000000000e+00 0.0000e+00 1.0000e+00
       21  1    1    2  502  501 -3.1707672123e-01 -1.1310515553e-01 +2.0813149143e+01 2.0815871533e+01 0.0000000000e+00 0.0000e+00 1.0000e+00
<mgrwt>
<rscale>  1 0.64120401E+03</rscale>
<asrwt>0</asrwt>
<pdfrwt beam="1">  1        1 0.44945657E+00 0.64120401E+03</pdfrwt>
<pdfrwt beam="2">0</pdfrwt>
<totfact> 0.80054339E-01</totfact>
</mgrwt>
</event>
<event>
 6      1 +5.6466785e-02 6.34036600e+02 7.81860800e-03 9.83720300e-02
        1 -1    0    0  502    0 +0.0000000000e+00 +0.0000000000e+00 +1.0181340715e+02 1.0181340715e+02 0.0000000000e+00 0.0000e+00 1.0000e+00
       13 -1    0    0    0    0 -0.0000000000e+00 -0.0000000000e+00 -1.0000000000e+03 1.0000000000e+03 0.0000000000e+00 0.0000e+00 1.0000e+00
  9000005  2    1    2  501    0 -4.0514156510e-02 +4.2465191654e-02 -8.9949866967e+02 1.1005000183e+03 6.3403661574e+02 0.0000e+00 0.0000e+00
       13  1    3    3    0    0 -1.6922557546e+02 +6.2827147315e+01 -9.0213919456e+02 9.2002156072e+02 0.0000000000e+00 0.0000e+00 1.0000e+00
        3  1    3    3  501    0 +1.6918506131e+02 -6.2784682123e+01 +2.6405248896e+00 1.8047845758e+02 0.0000000000e+00 0.0000e+00 1.0000e+00
       21  1    1    2  502  501 +4.0514156510e-02 -4.2465191654e-02 +1.3120768215e+00 1.3133888514e+00 0.0000000000e+00 0.0000e+00 -1.0000e+00
<mgrwt>
<rscale>  1 0.63403662E+03</rscale>
<asrwt>0</asrwt>
<pdfrwt beam="1">  1        1 0.37023135E+00 0.63403662E+03</pdfrwt>
<pdfrwt beam="2">0</pdfrwt>
<totfact> 0.18170766E+00</totfact>
</mgrwt>
</event>
<event>
 6      1 +5.6466785e-02 6.54822300e+02 7.81860800e-03 9.79777200e-02
        1 -1    0    0  502    0 +0.0000000000e+00 +0.0000000000e+00 +1.0719839587e+02 1.0719839587e+02 0.0000000000e+00 0.0000e+00 1.0000e+00
       13 -1    0    0    0    0 -0.0000000000e+00 -0.0000000000e+00 -1.0000000000e+03 1.0000000000e+03 0.0000000000e+00 0.0000e+00 1.0000e+00
  9000005  2    1    2  501    0 +6.5974126926e-06 -1.7967642066e-05 -8.9280192728e+02 1.1071980722e+03 6.5482233439e+02 0.0000e+00 0.0000e+00
       13  1    3    3    0    0 -1.2246783545e+02 +2.6629143460e+02 -1.9969759383e+02 3.5466692522e+02 0.0000000000e+00 0.0000e+00 1.0000e+00
        1  1    3    3  501    0 +1.2246784205e+02 -2.6629145257e+02 -6.9310433346e+02 7.5253114693e+02 0.0000000000e+00 0.0000e+00 1.0000e+00
       21  1    1    2  502  501 -6.5974126814e-06 +1.7967642034e-05 +3.2314849395e-04 3.2371486089e-04 0.0000000000e+00 0.0000e+00 1.0000e+00
<mgrwt>
<rscale>  1 0.65482233E+03</rscale>
<asrwt>0</asrwt>
<pdfrwt beam="1">  1        1 0.38981317E+00 0.65482233E+03</pdfrwt>
<pdfrwt beam="2">0</pdfrwt>
<totfact> 0.14835715E+00</totfact>
</mgrwt>
</event>
<event>
 6      1 +5.6466785e-02 6.57091900e+02 7.81860800e-03 9.79356200e-02
        1 -1    0    0  502    0 +0.0000000000e+00 +0.0000000000e+00 +1.0794264130e+02 1.0794264130e+02 0.0000000000e+00 0.0000e+00 1.0000e+00
       13 -1    0    0    0    0 -0.0000000000e+00 -0.0000000000e+00 -1.0000000000e+03 1.0000000000e+03 0.0000000000e+00 0.0000e+00 1.0000e+00
  9000005  2    1    2  501    0 +4.9754374297e-04 +2.8542916675e-04 -8.9205683620e+02 1.1079418654e+03 6.5709190992e+02 0.0000e+00 0.0000e+00
       13  1    3    3    0    0 -2.4749610938e+02 +1.3774992470e+02 -7.2672189176e+02 7.7997055962e+02 0.0000000000e+00 0.0000e+00 1.0000e+00
        3  1    3    3  501    0 +2.4749660693e+02 -1.3774963927e+02 -1.6533494444e+02 3.2797130577e+02 0.0000000000e+00 0.0000e+00 1.0000e+00
       21  1    1    2  502  501 -4.9754374297e-04 -2.8542916677e-04 -5.2249974119e-04 7.7590306415e-04 0.0000000000e+00 0.0000e+00 1.0000e+00
<mgrwt>
<rscale>  1 0.65709191E+03</rscale>
<asrwt>0</asrwt>
<pdfrwt beam="1">  1        1 0.39251952E+00 0.65709191E+03</pdfrwt>
<pdfrwt beam="2">0</pdfrwt>
<totfact> 0.14425004E+00</totfact>
</mgrwt>
</event>
<event>
 6      1 +5.6466785e-02 6.49489100e+02 7.81860800e-03 9.80773800e-02
        1 -1    0    0  502    0 +0.0000000000e+00 +0.0000000000e+00 +1.0546215932e+02 1.0546215932e+02 0.0000000000e+00 0.0000e+00 1.0000e+00
       13 -1    0    0    0    0 -0.0000000000e+00 -0.0000000000e+00 -1.0000000000e+03 1.0000000000e+03 0.0000000000e+00 0.0000e+00 1.0000e+00
  9000005  2    1    2  501    0 -3.7126066644e-05 -8.0901308479e-05 -8.9454097622e+02 1.1054590225e+03 6.4948910102e+02 0.0000e+00 0.0000e+00
       13  1    3    3    0    0 -9.3275861495e+01 -2.3531715573e+02 -7.9352040142e+02 8.3291606876e+02 0.0000000000e+00 0.0000e+00 1.0000e+00
        1  1    3    3  501    0 +9.3275824369e+01 +2.3531707482e+02 -1.0102057479e+02 2.7254295376e+02 0.0000000000e+00 0.0000e+00 1.0000e+00
       21  1    1    2  502  501 +3.7126066642e-05 +8.0901308491e-05 +3.1355397690e-03 3.1368029918e-03 0.0000000000e+00 0.0000e+00 -1.0000e+00
<mgrwt>
<rscale>  1 0.64948910E+03</rscale>
<asrwt>0</asrwt>
<pdfrwt beam="1">  1        1 0.38349957E+00 0.64948910E+03</pdfrwt>
<pdfrwt beam="2">0</pdfrwt>
<totfact> 0.15837528E+00</totfact>
</mgrwt>
</event>
<event>
 6      1 +5.6466785e-02 6.59978300e+02 7.81860800e-03 9.78823400e-02
        1 -1    0    0  502    0 +0.0000000000e+00 +0.0000000000e+00 +1.1458817648e+02 1.1458817648e+02 0.0000000000e+00 0.0000e+00 1.0000e+00
       13 -1    0    0    0    0 -0.0000000000e+00 -0.0000000000e+00 -1.0000000000e+03 1.0000000000e+03 0.0000000000e+00 0.0000e+00 1.0000e+00
  9000005  2    1    2  501    0 +1.9688905019e-01 -1.0732616267e-01 -8.9110472368e+02 1.1088908616e+03 6.5997823007e+02 0.0000e+00 0.0000e+00
       13  1    3    3    0    0 +2.0657905799e+02 -1.8478836821e+02 -7.4685587671e+02 7.9662748434e+02 0.0000000000e+00 0.0000e+00 1.0000e+00
        1  1    3    3  501    0 -2.0638216894e+02 +1.8468104205e+02 -1.4424884697e+02 3.1226337730e+02 0.0000000000e+00 0.0000e+00 1.0000e+00
       21  1    1    2  502  501 -1.9688905019e-01 +1.0732616267e-01 +5.6929001613e+00 5.6973148456e+00 0.0000000000e+00 0.0000e+00 1.0000e+00
<mgrwt>
<rscale>  1 0.65997827E+03</rscale>
<asrwt>0</asrwt>
<pdfrwt beam="1">  1        1 0.41668516E+00 0.65997827E+03</pdfrwt>
<pdfrwt beam="2">0</pdfrwt>
<totfact> 0.11242038E+00</totfact>
</mgrwt>
</event>
<event>
 6      1 +5.6466785e-02 6.45931500e+02 7.81860800e-03 9.81444300e-02
        1 -1    0    0  502    0 +0.0000000000e+00 +0.0000000000e+00 +1.0525272051e+02 1.0525272051e+02 0.0000000000e+00 0.0000e+00 1.0000e+00
       13 -1    0    0    0    0 -0.0000000000e+00 -0.0000000000e+00 -1.0000000000e+03 1.0000000000e+03 0.0000000000e+00 0.0000e+00 1.0000e+00
  9000005  2    1    2  501    0 -9.4105022787e-01 +9.9113576299e-01 -8.9511439703e+02 1.1038375524e+03 6.4593009706e+02 0.0000e+00 0.0000e+00
       13  1    3    3    0    0 +8.7934676773e+01 +1.8509145516e+02 -2.0833747298e+01 2.0597426825e+02 0.0000000000e+00 0.0000e+00 1.0000e+00
        1  1    3    3  501    0 -8.8875727001e+01 -1.8410031940e+02 -8.7428064973e+02 8.9786328411e+02 0.0000000000e+00 0.0000e+00 1.0000e+00
       21  1    1    2  502  501 +9.4105022787e-01 -9.9113576299e-01 +3.6711753985e-01 1.4151681597e+00 0.0000000000e+00 0.0000e+00 1.0000e+00
<mgrwt>
<rscale>  1 0.64593154E+03</rscale>
<asrwt>0</asrwt>
<pdfrwt beam="1">  1        1 0.38273797E+00 0.64593154E+03</pdfrwt>
<pdfrwt beam="2">0</pdfrwt>
<totfact> 0.15971217E+00</totfact>
</mgrwt>
</event>
<event>
 6      1 +5.6466785e-02 6.52225100e+02 7.81860800e-03 9.80261300e-02
        1 -1    0    0  502    0 +0.0000000000e+00 +0.0000000000e+00 +1.0720190436e+02 1.0720190436e+02 0.0000000000e+00 0.0000e+00 1.0000e+00
       13 -1    0    0    0    0 -0.0000000000e+00 -0.0000000000e+00 -1.0000000000e+03 1.0000000000e+03 0.0000000000e+00 0.0000e+00 1.0000e+00
  9000005  2    1    2  501    0 -2.3133424481e-01 -1.2672878263e-01 -8.9362797582e+02 1.1063311134e+03 6.5222504077e+02 0.0000e+00 0.0000e+00
       13  1    3    3    0    0 +3.2272941135e+02 -2.0503832002e+01 -5.1665445166e+02 6.0951333250e+02 0.0000000000e+00 0.0000e+00 1.0000e+00
        1  1    3    3  501    0 -3.2296074560e+02 +2.0377103220e+01 -3.7697352416e+02 4.9681778094e+02 0.0000000000e+00 0.0000e+00 1.0000e+00
       21  1    1    2  502  501 +2.3133424481e-01 +1.2672878263e-01 +8.2988018013e-01 8.7079092240e-01 0.0000000000e+00 0.0000e+00 1.0000e+00
<mgrwt>
<rscale>  1 0.65222509E+03</rscale>
<asrwt>0</asrwt>
<pdfrwt beam="1">  1        1 0.38982593E+00 0.65222509E+03</pdfrwt>
<pdfrwt beam="2">0</pdfrwt>
<totfact> 0.14840937E+00</totfact>
</mgrwt>
</event>
<event>
 6      1 +5.6466785e-02 6.59418200e+02 7.81860800e-03 9.78926500e-02
        1 -1    0    0  502    0 +0.0000000000e+00 +0.0000000000e+00 +1.1590575233e+02 1.1590575233e+02 0.0000000000e+00 0.0000e+00 1.0000e+00
       13 -1    0    0    0    0 -0.0000000000e+00 -0.0000000000e+00 -1.0000000000e+03 1.0000000000e+03 0.0000000000e+00 0.0000e+00 1.0000e+00
  9000005  2    1    2  501    0 +3.2593258227e+00 -1.8127916458e+00 -8.9075225826e+02 1.1082743355e+03 6.5940769454e+02 0.0000e+00 0.0000e+00
       13  1    3    3    0    0 +1.4117844467e+02 +5.5673804787e+00 +5.5645673348e+01 1.5185120983e+02 0.0000000000e+00 0.0000e+00 1.0000e+00
        1  1    3    3  501    0 -1.3791911884e+02 -7.3801721245e+00 -9.4639793161e+02 9.5642312563e+02 0.0000000000e+00 0.0000e+00 1.0000e+00
       21  1    1    2  502  501 -3.2593258227e+00 +1.8127916458e+00 +6.6580105907e+00 7.6314168668e+00 0.0000000000e+00 0.0000e+00 -1.0000e+00
<mgrwt>
<rscale>  1 0.65941824E+03</rscale>
<asrwt>0</asrwt>
<pdfrwt beam="1">  1        1 0.42147635E+00 0.65941824E+03</pdfrwt>
<pdfrwt beam="2">0</pdfrwt>
<totfact> 0.10697669E+00</totfact>
</mgrwt>
</event>
<event>
 6      1 +5.6466785e-02 6.46426400e+02 7.81860800e-03 9.81350800e-02
        1 -1    0    0  502    0 +0.0000000000e+00 +0.0000000000e+00 +1.0446689459e+02 1.0446689459e+02 0.0000000000e+00 0.0000e+00 1.0000e+00
       13 -1    0    0    0    0 -0.0000000000e+00 -0.0000000000e+00 -1.0000000000e+03 1.0000000000e+03 0.0000000000e+00 0.0000e+00 1.0000e+00
  9000005  2    1    2  501    0 +3.3795774726e-04 -1.6965797158e-05 -8.9553270779e+02 1.1044663725e+03 6.4642643603e+02 0.0000e+00 0.0000e+00
       13  1    3    3    0    0 -1.2599502934e+02 +2.9763546973e+02 -4.5163095496e+02 5.5536667143e+02 0.0000000000e+00 0.0000e+00 1.0000e+00
        3  1    3    3  501    0 +1.2599536729e+02 -2.9763548669e+02 -4.4390175283e+02 5.4909970104e+02 0.0000000000e+00 0.0000e+00 1.0000e+00
       21  1    1    2  502  501 -3.3795774727e-04 +1.6965797140e-05 -3.9762565559e-04 5.2212013866e-04 0.0000000000e+00 0.0000e+00 -1.0000e+00
<mgrwt>
<rscale>  1 0.64642644E+03</rscale>
<asrwt>0</asrwt>
<pdfrwt beam="1">  1        1 0.37988042E+00 0.64642644E+03</pdfrwt>
<pdfrwt beam="2">0</pdfrwt>
<totfact> 0.16440466E+00</totfact>
</mgrwt>
</event>
<event>
 6      1 +5.6466785e-02 6.55667200e+02 7.81860800e-03 9.79620300e-02
        3 -1    0    0  502    0 +0.0000000000e+00 +0.0000000000e+00 +1.0767451793e+02 1.0767451793e+02 0.0000000000e+00 0.0000e+00 1.0000e+00
       13 -1    0    0    0    0 -0.0000000000e+00 -0.0000000000e+00 -1.0000000000e+03 1.0000000000e+03 0.0000000000e+00 0.0000e+00 1.0000e+00
  9000005  2    1    2  501    0 -1.6149517706e-01 -2.6784930526e-01 -8.9237912793e+02 1.1073571824e+03 6.5566708297e+02 0.0000e+00 0.0000e+00
       13  1    3    3    0    0 -1.1251958403e+02 +1.0750233302e+01 -9.6599107221e+02 9.7258160372e+02 0.0000000000e+00 0.0000e+00 1.0000e+00
        3  1    3    3  501    0 +1.1235808886e+02 -1.1018082607e+01 +7.3611944278e+01 1.3477557871e+02 0.0000000000e+00 0.0000e+00 1.0000e+00
       21  1    1    2  502  501 +1.6149517706e-01 +2.6784930526e-01 +5.3645868358e-02 3.1733550342e-01 0.0000000000e+00 0.0000e+00 -1.0000e+00
<mgrwt>
<rscale>  1 0.65566716E+03</rscale>
<asrwt>0</asrwt>
<pdfrwt beam="1">  1        3 0.39154453E+00 0.65566716E+03</pdfrwt>
<pdfrwt beam="2">0</pdfrwt>
<totfact> 0.65549752E-02</totfact>
</mgrwt>
</event>
<event>
 6      1 +5.6466785e-02 6.54065800e+02 7.81860800e-03 9.79918000e-02
        1 -1    0    0  502    0 +0.0000000000e+00 +0.0000000000e+00 +1.0709207420e+02 1.0709207420e+02 0.0000000000e+00 0.0000e+00 1.0000e+00
       13 -1    0    0    0    0 -0.0000000000e+00 -0.0000000000e+00 -1.0000000000e+03 1.0000000000e+03 0.0000000000e+00 0.0000e+00 1.0000e+00
  9000005  2    1    2  501    0 -5.2192855516e-03 +2.4625827739e-03 -8.9304940553e+02 1.1069504768e+03 6.5406583564e+02 0.0000e+00 0.0000e+00
       13  1    3    3    0    0 +1.0899451739e+02 -2.1830935454e+02 -8.1502846890e+02 8.5077034752e+02 0.0000000000e+00 0.0000e+00 1.0000e+00
        1  1    3    3  501    0 -1.0899973667e+02 +2.1831181713e+02 -7.8020936638e+01 2.5618012929e+02 0.0000000000e+00 0.0000e+00 1.0000e+00
       21  1    1    2  502  501 +5.2192855516e-03 -2.4625827739e-03 +1.4147973908e-01 1.4159739343e-01 0.0000000000e+00 0.0000e+00 1.0000e+00
<mgrwt>
<rscale>  1 0.65406584E+03</rscale>
<asrwt>0</asrwt>
<pdfrwt beam="1">  1        1 0.38942655E+00 0.65406584E+03</pdfrwt>
<pdfrwt beam="2">0</pdfrwt>
<totfact> 0.14896479E+00</totfact>
</mgrwt>
</event>
<event>
 6      1 +5.6466785e-02 6.62802100e+02 7.81860800e-03 9.78304900e-02
        1 -1    0    0  502    0 +0.0000000000e+00 +0.0000000000e+00 +1.0983083559e+02 1.0983083559e+02 0.0000000000e+00 0.0000e+00 1.0000e+00
       13 -1    0    0    0    0 -0.0000000000e+00 -0.0000000000e+00 -1.0000000000e+03 1.0000000000e+03 0.0000000000e+00 0.0000e+00 1.0000e+00
  9000005  2    1    2  501    0 -5.2627232435e-04 +1.2379433937e-04 -8.9017333930e+02 1.1098266258e+03 6.6280205599e+02 0.0000e+00 0.0000e+00
       13  1    3    3    0    0 -2.8515423525e+02 +8.3123351159e+01 -1.9896970741e+02 3.5750716616e+02 0.0000000000e+00 0.0000e+00 1.0000e+00
        3  1    3    3  501    0 +2.8515370898e+02 -8.3123227365e+01 -6.9120363189e+02 7.5231945968e+02 0.0000000000e+00 0.0000e+00 1.0000e+00
       21  1    1    2  502  501 +5.2627232433e-04 -1.2379433937e-04 +4.1748876469e-03 4.2097475533e-03 0.0000000000e+00 0.0000e+00 1.0000e+00
<mgrwt>
<rscale>  1 0.66280206E+03</rscale>
<asrwt>0</asrwt>
<pdfrwt beam="1">  1        1 0.39938570E+00 0.66280206E+03</pdfrwt>
<pdfrwt beam="2">0</pdfrwt>
<totfact> 0.13430886E+00</totfact>
</mgrwt>
</event>
<event>
 6      1 +5.6466785e-02 6.43894900e+02 7.81860800e-03 9.81830300e-02
        1 -1    0    0  502    0 +0.0000000000e+00 +0.0000000000e+00 +1.0369794762e+02 1.0369794762e+02 0.0000000000e+00 0.0000e+00 1.0000e+00
       13 -1    0    0    0    0 -0.0000000000e+00 -0.0000000000e+00 -1.0000000000e+03 1.0000000000e+03 0.0000000000e+00 0.0000e+00 1.0000e+00
  9000005  2    1    2  501    0 -4.7788935602e-02 +7.0520299404e-03 -8.9633599839e+02 1.1036389066e+03 6.4389487632e+02 0.0000e+00 0.0000e+00
       13  1    3    3    0    0 +2.2122058477e+02 +2.3379955204e+02 -4.3724734514e+02 5.4294200288e+02 0.0000000000e+00 0.0000e+00 1.0000e+00
        3  1    3    3  501    0 -2.2126837371e+02 -2.3379250001e+02 -4.5908865326e+02 5.6069690369e+02 0.0000000000e+00 0.0000e+00 1.0000e+00
       21  1    1    2  502  501 +4.7788935602e-02 -7.0520299404e-03 +3.3946007405e-02 5.9041044291e-02 0.0000000000e+00 0.0000e+00 1.0000e+00
<mgrwt>
<rscale>  1 0.64389488E+03</rscale>
<asrwt>0</asrwt>
<pdfrwt beam="1">  1        1 0.37708424E+00 0.64389488E+03</pdfrwt>
<pdfrwt beam="2">0</pdfrwt>
<totfact> 0.16921712E+00</totfact>
</mgrwt>
</event>
<event>
 6      1 +5.6466785e-02 6.51263500e+02 7.81860800e-03 9.80441100e-02
        1 -1    0    0  502    0 +0.0000000000e+00 +0.0000000000e+00 +1.0607576277e+02 1.0607576277e+02 0.0000000000e+00 0.0000e+00 1.0000e+00
       13 -1    0    0    0    0 -0.0000000000e+00 -0.0000000000e+00 -1.0000000000e+03 1.0000000000e+03 0.0000000000e+00 0.0000e+00 1.0000e+00
  9000005  2    1    2  501    0 -9.3549581530e-03 -2.3119413677e-03 -8.9396331537e+02 1.1060355140e+03 6.5126350193e+02 0.0000e+00 0.0000e+00
       13  1    3    3    0    0 -2.0446247764e+02 +2.5280243133e+02 -4.7752498887e+02 5.7770588455e+02 0.0000000000e+00 0.0000e+00 1.0000e+00
        1  1    3    3  501    0 +2.0445312269e+02 -2.5280474327e+02 -4.1643832651e+02 5.2832962947e+02 0.0000000000e+00 0.0000e+00 1.0000e+00
       21  1    1    2  502  501 +9.3549581530e-03 +2.3119413677e-03 +3.9078141446e-02 4.0248744748e-02 0.0000000000e+00 0.0000e+00 -1.0000e+00
<mgrwt>
<rscale>  1 0.65126350E+03</rscale>
<asrwt>0</asrwt>
<pdfrwt beam="1">  1        1 0.38573086E+00 0.65126350E+03</pdfrwt>
<pdfrwt beam="2">0</pdfrwt>
<totfact> 0.15476670E+00</totfact>
</mgrwt>
</event>
<event>
 6      1 +5.6466785e-02 6.46363800e+02 7.81860800e-03 9.81362600e-02
        1 -1    0    0  502    0 +0.0000000000e+00 +0.0000000000e+00 +1.2875048811e+02 1.2875048811e+02 0.0000000000e+00 0.0000e+00 1.0000e+00
       13 -1    0    0    0    0 -0.0000000000e+00 -0.0000000000e+00 -1.0000000000e+03 1.0000000000e+03 0.0000000000e+00 0.0000e+00 1.0000e+00
  9000005  2    1    2  501    0 +1.2480615205e-01 +3.7342146418e-01 -8.9555168777e+02 1.1044451230e+03 6.4636371281e+02 0.0000e+00 0.0000e+00
       13  1    3    3    0    0 +1.9074394092e+02 -1.0682470327e+02 -4.1099483720e+01 2.2244985006e+02 0.0000000000e+00 0.0000e+00 1.0000e+00
        1  1    3    3  501    0 -1.9061913477e+02 +1.0719812474e+02 -8.5445220405e+02 8.8199527295e+02 0.0000000000e+00 0.0000e+00 1.0000e+00
       21  1    1    2  502  501 -1.2480615205e-01 -3.7342146418e-01 +2.4302175881e+01 2.4305365101e+01 0.0000000000e+00 0.0000e+00 1.0000e+00
<mgrwt>
<rscale>  1 0.64636383E+03</rscale>
<asrwt>0</asrwt>
<pdfrwt beam="1">  1        1 0.46818458E+00 0.64636383E+03</pdfrwt>
<pdfrwt beam="2">0</pdfrwt>
<totfact> 0.65476405E-01</totfact>
</mgrwt>
</event>
<event>
 6      1 +5.6466785e-02 6.46928700e+02 7.81860800e-03 9.81255900e-02
        1 -1    0    0  502    0 +0.0000000000e+00 +0.0000000000e+00 +1.0462983119e+02 1.0462983119e+02 0.0000000000e+00 0.0000e+00 1.0000e+00
       13 -1    0    0    0    0 -0.0000000000e+00 -0.0000000000e+00 -1.0000000000e+03 1.0000000000e+03 0.0000000000e+00 0.0000e+00 1.0000e+00
  9000005  2    1    2  501    0 +1.4498585938e-04 -7.9535085675e-05 -8.9537081685e+02 1.1046291624e+03 6.4692865661e+02 0.0000e+00 0.0000e+00
       13  1    3    3    0    0 -2.9636808086e+02 -9.7841136480e+01 -5.9279459940e+02 6.6993459712e+02 0.0000000000e+00 0.0000e+00 1.0000e+00
        3  1    3    3  501    0 +2.9636822584e+02 +9.7841056945e+01 -3.0257621745e+02 4.3469456527e+02 0.0000000000e+00 0.0000e+00 1.0000e+00
       21  1    1    2  502  501 -1.4498585939e-04 +7.9535085673e-05 +6.4803263968e-04 6.6879969450e-04 0.0000000000e+00 0.0000e+00 1.0000e+00
<mgrwt>
<rscale>  1 0.64692866E+03</rscale>
<asrwt>0</asrwt>
<pdfrwt beam="1">  1        1 0.38047292E+00 0.64692866E+03</pdfrwt>
<pdfrwt beam="2">0</pdfrwt>
<totfact> 0.16340283E+00</totfact>
</mgrwt>
</event>
<event>
 6      1 +5.6466785e-02 5.86224100e+02 7.81860800e-03 9.93440600e-02
        1 -1    0    0  502    0 +0.0000000000e+00 +0.0000000000e+00 +8.6029957365e+01 8.6029957365e+01 0.0000000000e+00 0.0000e+00 1.0000e+00
       13 -1    0    0    0    0 -0.0000000000e+00 -0.0000000000e+00 -1.0000000000e+03 1.0000000000e+03 0.0000000000e+00 0.0000e+00 1.0000e+00
  9000005  2    1    2  501    0 +1.3854283146e-01 -8.2187336807e-02 -9.1402141874e+02 1.0858608764e+03 5.8622407235e+02 0.0000e+00 0.0000e+00
       13  1    3    3    0    0 +1.4841246925e+02 +2.4634578370e+02 -5.6183362927e+02 6.3116521859e+02 0.0000000000e+00 0.0000e+00 1.0000e+00
        1  1    3    3  501    0 -1.4827392642e+02 -2.4642797104e+02 -3.5218778947e+02 4.5469565780e+02 0.0000000000e+00 0.0000e+00 1.0000e+00
       21  1    1    2  502  501 -1.3854283146e-01 +8.2187336807e-02 +5.1376102907e-02 1.6908098187e-01 0.0000000000e+00 0.0000e+00 1.0000e+00
<mgrwt>
<rscale>  1 0.58622409E+03</rscale>
<asrwt>0</asrwt>
<pdfrwt beam="1">  1        1 0.31283687E+00 0.58622409E+03</pdfrwt>
<pdfrwt beam="2">0</pdfrwt>
<totfact> 0.32558634E+00</totfact>
</mgrwt>
</event>
<event>
 6      1 +5.6466785e-02 6.57325900e+02 7.81860800e-03 9.79312900e-02
        1 -1    0    0  502    0 +0.0000000000e+00 +0.0000000000e+00 +1.0801944790e+02 1.0801944790e+02 0.0000000000e+00 0.0000e+00 1.0000e+00
       13 -1    0    0    0    0 -0.0000000000e+00 -0.0000000000e+00 -1.0000000000e+03 1.0000000000e+03 0.0000000000e+00 0.0000e+00 1.0000e+00
  9000005  2    1    2  501    0 +8.0703273795e-05 -4.9928555953e-05 -8.9198063011e+02 1.1080193250e+03 6.5732593147e+02 0.0000e+00 0.0000e+00
       13  1    3    3    0    0 +3.7258181895e+01 +7.0435737983e+01 +9.1490463753e+01 1.2132547243e+02 0.0000000000e+00 0.0000e+00 1.0000e+00
        1  1    3    3  501    0 -3.7258101192e+01 -7.0435787911e+01 -9.8347109387e+02 9.8669385262e+02 0.0000000000e+00 0.0000e+00 1.0000e+00
       21  1    1    2  502  501 -8.0703273799e-05 +4.9928555965e-05 +7.8009039915e-05 1.2284660928e-04 0.0000000000e+00 0.0000e+00 -1.0000e+00
<mgrwt>
<rscale>  1 0.65732593E+03</rscale>
<asrwt>0</asrwt>
<pdfrwt beam="1">  1        1 0.39279882E+00 0.65732593E+03</pdfrwt>
<pdfrwt beam="2">0</pdfrwt>
<totfact> 0.14383237E+00</totfact>
</mgrwt>
</event>
<event>
 6      1 +5.6466785e-02 6.39326300e+02 7.81860800e-03 9.82701600e-02
        1 -1    0    0  502    0 +0.0000000000e+00 +0.0000000000e+00 +1.0221797034e+02 1.0221797034e+02 0.0000000000e+00 0.0000e+00 1.0000e+00
       13 -1    0    0    0    0 -0.0000000000e+00 -0.0000000000e+00 -1.0000000000e+03 1.0000000000e+03 0.0000000000e+00 0.0000e+00 1.0000e+00
  9000005  2    1    2  501    0 -3.9894941597e-03 +9.3877731510e-04 -8.9781531926e+02 1.1021844294e+03 6.3932633991e+02 0.0000e+00 0.0000e+00
       13  1    3    3    0    0 -2.1495104456e+02 -1.7876747569e+00 -8.5679792173e+02 8.8335147366e+02 0.0000000000e+00 0.0000e+00 1.0000e+00
        3  1    3    3  501    0 +2.1494705506e+02 +1.7886135342e+00 -4.1017397531e+01 2.1883295574e+02 0.0000000000e+00 0.0000e+00 1.0000e+00
       21  1    1    2  502  501 +3.9894941597e-03 -9.3877731510e-04 +3.3289592964e-02 3.3540935678e-02 0.0000000000e+00 0.0000e+00 1.0000e+00
<mgrwt>
<rscale>  1 0.63932634E+03</rscale>
<asrwt>0</asrwt>
<pdfrwt beam="1">  1        1 0.37170249E+00 0.63932634E+03</pdfrwt>
<pdfrwt beam="2">0</pdfrwt>
<totfact> 0.17885042E+00</totfact>
</mgrwt>
</event>
<event>
 6      1 +5.6466785e-02 6.31817700e+02 7.81860800e-03 9.84150800e-02
        1 -1    0    0  502    0 +0.0000000000e+00 +0.0000000000e+00 +9.9807424448e+01 9.9807424448e+01 0.0000000000e+00 0.0000e+00 1.0000e+00
       13 -1    0    0    0    0 -0.0000000000e+00 -0.0000000000e+00 -1.0000000000e+03 1.0000000000e+03 0.0000000000e+00 0.0000e+00 1.0000e+00
  9000005  2    1    2  501    0 -6.4702607870e-04 -7.0509655163e-04 -9.0020157768e+02 1.0997983716e+03 6.3181767760e+02 0.0000e+00 0.0000e+00
       13  1    3    3    0    0 -2.6483052909e+02 +1.6974140475e+02 -3.9931892016e+02 5.0833350630e+02 0.0000000000e+00 0.0000e+00 1.0000e+00
        3  1    3    3  501    0 +2.6482988207e+02 -1.6974210984e+02 -5.0088265751e+02 5.9146486530e+02 0.0000000000e+00 0.0000e+00 1.0000e+00
       21  1    1    2  502  501 +6.4702607869e-04 +7.0509655162e-04 +9.0021247087e-03 9.0528477931e-03 0.0000000000e+00 0.0000e+00 -1.0000e+00
<mgrwt>
<rscale>  1 0.63181768E+03</rscale>
<asrwt>0</asrwt>
<pdfrwt beam="1">  1        1 0.36293685E+00 0.63181768E+03</pdfrwt>
<pdfrwt beam="2">0</pdfrwt>
<totfact> 0.19567496E+00</totfact>
</mgrwt>
</event>
<event>
 6      1 +5.6466785e-02 4.76230900e+02 7.81860800e-03 1.02017600e-01
        1 -1    0    0  502    0 +0.0000000000e+00 +0.0000000000e+00 +5.7861529363e+01 5.7861529363e+01 0.0000000000e+00 0.0000e+00 1.0000e+00
       13 -1    0    0    0    0 -0.0000000000e+00 -0.0000000000e+00 -1.0000000000e+03 1.0000000000e+03 0.0000000000e+00 0.0000e+00 1.0000e+00
  9000005  2    1    2  501    0 -8.8643885654e-03 -3.0436094793e-02 -9.4330081262e+02 1.0566987552e+03 4.7623086321e+02 0.0000e+00 0.0000e+00
       13  1    3    3    0    0 +1.0492600961e+01 -1.9857809553e+02 -7.6235302920e+02 7.8786134302e+02 0.0000000000e+00 0.0000e+00 1.0000e+00
        3  1    3    3  501    0 -1.0501465349e+01 +1.9854765944e+02 -1.8094778343e+02 2.6883741215e+02 0.0000000000e+00 0.0000e+00 1.0000e+00
       21  1    1    2  502  501 +8.8643885654e-03 +3.0436094793e-02 +1.1623419863e+00 1.1627741941e+00 0.0000000000e+00 0.0000e+00 -1.0000e+00
<mgrwt>
<rscale>  1 0.47623086E+03</rscale>
<asrwt>0</asrwt>
<pdfrwt beam="1">  1        1 0.21040601E+00 0.47623086E+03</pdfrwt>
<pdfrwt beam="2">0</pdfrwt>
<totfact> 0.92632677E+00</totfact>
</mgrwt>
</event>
<event>
 6      1 +5.6466785e-02 6.12852600e+02 7.81860800e-03 9.87909400e-02
        1 -1    0    0  502    0 +0.0000000000e+00 +0.0000000000e+00 +9.3897232314e+01 9.3897232314e+01 0.0000000000e+00 0.0000e+00 1.0000e+00
       13 -1    0    0    0    0 -0.0000000000e+00 -0.0000000000e+00 -1.0000000000e+03 1.0000000000e+03 0.0000000000e+00 0.0000e+00 1.0000e+00
  9000005  2    1    2  501    0 +2.2086792285e-05 +5.2846940235e-05 -9.0610291915e+02 1.0938970704e+03 6.1285259281e+02 0.0000e+00 0.0000e+00
       13  1    3    3    0    0 -2.3651785726e+02 -1.1114288295e+02 -7.3865996384e+02 7.8352535340e+02 0.0000000000e+00 0.0000e+00 1.0000e+00
        3  1    3    3  501    0 +2.3651787935e+02 +1.1114293579e+02 -1.6744295530e+02 3.1037171699e+02 0.0000000000e+00 0.0000e+00 1.0000e+00
       21  1    1    2  502  501 -2.2086792300e-05 -5.2846940238e-05 +1.5145879870e-04 1.6192712309e-04 0.0000000000e+00 0.0000e+00 -1.0000e+00
<mgrwt>
<rscale>  1 0.61285259E+03</rscale>
<asrwt>0</asrwt>
<pdfrwt beam="1">  1        1 0.34144520E+00 0.61285259E+03</pdfrwt>
<pdfrwt beam="2">0</pdfrwt>
<totfact> 0.24363428E+00</totfact>
</mgrwt>
</event>
<event>
 6      1 +5.6466785e-02 6.56754600e+02 7.81860800e-03 9.79418700e-02
        1 -1    0    0  502    0 +0.0000000000e+00 +0.0000000000e+00 +1.0785857884e+02 1.0785857884e+02 0.0000000000e+00 0.0000e+00 1.0000e+00
       13 -1    0    0    0    0 -0.0000000000e+00 -0.0000000000e+00 -1.0000000000e+03 1.0000000000e+03 0.0000000000e+00 0.0000e+00 1.0000e+00
  9000005  2    1    2  501    0 +8.1183672365e-04 -1.6970563615e-04 -8.9216834258e+02 1.1078316446e+03 6.5675459752e+02 0.0000e+00 0.0000e+00
       13  1    3    3    0    0 -2.7325437325e+01 +2.7542386633e+02 -7.4416411635e+02 7.9396802059e+02 0.0000000000e+00 0.0000e+00 1.0000e+00
        1  1    3    3  501    0 +2.7326249162e+01 -2.7542403603e+02 -1.4800422624e+02 3.1386362405e+02 0.0000000000e+00 0.0000e+00 1.0000e+00
       21  1    1    2  502  501 -8.1183672365e-04 +1.6970563614e-04 +2.6921419632e-02 2.6934192281e-02 0.0000000000e+00 0.0000e+00 -1.0000e+00
<mgrwt>
<rscale>  1 0.65675460E+03</rscale>
<asrwt>0</asrwt>
<pdfrwt beam="1">  1        1 0.39221384E+00 0.65675460E+03</pdfrwt>
<pdfrwt beam="2">0</pdfrwt>
<totfact> 0.14471065E+00</totfact>
</mgrwt>
</event>
<event>
 6      1 +5.6466785e-02 6.54453800e+02 7.81860800e-03 9.79845800e-02
        1 -1    0    0  502    0 +0.0000000000e+00 +0.0000000000e+00 +1.1065524973e+02 1.1065524973e+02 0.0000000000e+00 0.0000e+00 1.0000e+00
       13 -1    0    0    0    0 -0.0000000000e+00 -0.0000000000e+00 -1.0000000000e+03 1.0000000000e+03 0.0000000000e+00 0.0000e+00 1.0000e+00
  9000005  2    1    2  501    0 +7.4714730330e-02 -1.4022992589e-02 -8.9292210557e+02 1.1070770868e+03 6.5445380565e+02 0.0000e+00 0.0000e+00
       13  1    3    3    0    0 +2.7386817013e+02 +8.0201184918e+01 -7.1747919734e+02 7.7214791542e+02 0.0000000000e+00 0.0000e+00 1.0000e+00
        1  1    3    3  501    0 -2.7379345539e+02 -8.0215207910e+01 -1.7544290823e+02 3.3492917139e+02 0.0000000000e+00 0.0000e+00 1.0000e+00
       21  1    1    2  502  501 -7.4714730330e-02 +1.4022992589e-02 +3.5773553007e+00 3.5781629201e+00 0.0000000000e+00 0.0000e+00 1.0000e+00
<mgrwt>
<rscale>  1 0.65445381E+03</rscale>
<asrwt>0</asrwt>
<pdfrwt beam="1">  1        1 0.40238357E+00 0.65445381E+03</pdfrwt>
<pdfrwt beam="2">0</pdfrwt>
<totfact> 0.13044127E+00</totfact>
</mgrwt>
</event>
<event>
 6      1 +5.6466785e-02 6.50548300e+02 7.81860800e-03 9.80575100e-02
        1 -1    0    0  502    0 +0.0000000000e+00 +0.0000000000e+00 +1.0580908794e+02 1.0580908794e+02 0.0000000000e+00 0.0000e+00 1.0000e+00
       13 -1    0    0    0    0 -0.0000000000e+00 -0.0000000000e+00 -1.0000000000e+03 1.0000000000e+03 0.0000000000e+00 0.0000e+00 1.0000e+00
  9000005  2    1    2  501    0 +2.0094612320e-03 +1.1578670227e-02 -8.9418919708e+02 1.1057972117e+03 6.5054834803e+02 0.0000e+00 0.0000e+00
       13  1    3    3    0    0 +2.1559215285e+02 +1.1860987215e+02 -8.5490512402e+01 2.6049358121e+02 0.0000000000e+00 0.0000e+00 1.0000e+00
        1  1    3    3  501    0 -2.1559014339e+02 -1.1859829348e+02 -8.0869868468e+02 8.4530363050e+02 0.0000000000e+00 0.0000e+00 1.0000e+00
       21  1    1    2  502  501 -2.0094612320e-03 -1.1578670227e-02 -1.7149824732e-03 1.1876224297e-02 0.0000000000e+00 0.0000e+00 -1.0000e+00
<mgrwt>
<rscale>  1 0.65054835E+03</rscale>
<asrwt>0</asrwt>
<pdfrwt beam="1">  1        1 0.38476113E+00 0.65054835E+03</pdfrwt>
<pdfrwt beam="2">0</pdfrwt>
<totfact> 0.15632368E+00</totfact>
</mgrwt>
</event>
<event>
 6      1 +5.6466785e-02 5.92773900e+02 7.81860800e-03 9.92051200e-02
        1 -1    0    0  502    0 +0.0000000000e+00 +0.0000000000e+00 +8.7845277417e+01 8.7845277417e+01 0.0000000000e+00 0.0000e+00 1.0000e+00
       13 -1    0    0    0    0 -0.0000000000e+00 -0.0000000000e+00 -1.0000000000e+03 1.0000000000e+03 0.0000000000e+00 0.0000e+00 1.0000e+00
  9000005  2    1    2  501    0 +6.8699768192e-05 -7.8649855567e-05 -9.1215471242e+02 1.0878451725e+03 5.9277390287e+02 0.0000e+00 0.0000e+00
       13  1    3    3    0    0 -1.2648895971e+02 +2.4538004322e+02 -6.5402456068e+02 7.0990066102e+02 0.0000000000e+00 0.0000e+00 1.0000e+00
        3  1    3    3  501    0 +1.2648902841e+02 -2.4538012187e+02 -2.5813015174e+02 3.7794451148e+02 0.0000000000e+00 0.0000e+00 1.0000e+00
       21  1    1    2  502  501 -6.8699768201e-05 +7.8649855552e-05 -1.0160055301e-05 1.0492227911e-04 0.0000000000e+00 0.0000e+00 -1.0000e+00
<mgrwt>
<rscale>  1 0.59277390E+03</rscale>
<asrwt>0</asrwt>
<pdfrwt beam="1">  1        1 0.31943805E+00 0.59277390E+03</pdfrwt>
<pdfrwt beam="2">0</pdfrwt>
<totfact> 0.30453363E+00</totfact>
</mgrwt>
</event>
<event>
 6      1 +5.6466785e-02 6.42152800e+02 7.81860800e-03 9.82161600e-02
        1 -1    0    0  502    0 +0.0000000000e+00 +0.0000000000e+00 +1.0309258666e+02 1.0309258666e+02 0.0000000000e+00 0.0000e+00 1.0000e+00
       13 -1    0    0    0    0 -0.0000000000e+00 -0.0000000000e+00 -1.0000000000e+03 1.0000000000e+03 0.0000000000e+00 0.0000e+00 1.0000e+00
  9000005  2    1    2  501    0 +9.2532388751e-04 -4.7956989646e-04 -8.9690982886e+02 1.1030899559e+03 6.4215279308e+02 0.0000e+00 0.0000e+00
       13  1    3    3    0    0 -2.3094802674e+02 -1.2924254095e+01 -6.5936976793e+01 2.4052382898e+02 0.0000000000e+00 0.0000e+00 1.0000e+00
        3  1    3    3  501    0 +2.3094895206e+02 +1.2923774525e+01 -8.3097285207e+02 8.6256612691e+02 0.0000000000e+00 0.0000e+00 1.0000e+00
       21  1    1    2  502  501 -9.2532388752e-04 +4.7956989646e-04 +2.4155259255e-03 2.6307749959e-03 0.0000000000e+00 0.0000e+00 1.0000e+00
<mgrwt>
<rscale>  1 0.64215279E+03</rscale>
<asrwt>0</asrwt>
<pdfrwt beam="1">  1        1 0.37488292E+00 0.64215279E+03</pdfrwt>
<pdfrwt beam="2">0</pdfrwt>
<totfact> 0.17309200E+00</totfact>
</mgrwt>
</event>
<event>
 6      1 +5.6466785e-02 6.52727400e+02 7.81860800e-03 9.80167500e-02
        1 -1    0    0  502    0 +0.0000000000e+00 +0.0000000000e+00 +1.0651327224e+02 1.0651327224e+02 0.0000000000e+00 0.0000e+00 1.0000e+00
       13 -1    0    0    0    0 -0.0000000000e+00 -0.0000000000e+00 -1.0000000000e+03 1.0000000000e+03 0.0000000000e+00 0.0000e+00 1.0000e+00
  9000005  2    1    2  501    0 -2.9014307344e-05 +1.7635687600e-05 -8.9348670202e+02 1.1065132296e+03 6.5272738619e+02 0.0000e+00 0.0000e+00
       13  1    3    3    0    0 +4.3006448639e+01 +8.6345834555e+00 -9.9498002977e+02 9.9594646960e+02 0.0000000000e+00 0.0000e+00 1.0000e+00
        1  1    3    3  501    0 -4.3006477654e+01 -8.6345658198e+00 +1.0149332776e+02 1.1056676004e+02 0.0000000000e+00 0.0000e+00 1.0000e+00
       21  1    1    2  502  501 +2.9014307339e-05 -1.7635687599e-05 -2.5740364270e-05 4.2607673725e-05 0.0000000000e+00 0.0000e+00 1.0000e+00
<mgrwt>
<rscale>  1 0.65272739E+03</rscale>
<asrwt>0</asrwt>
<pdfrwt beam="1">  1        1 0.38732181E+00 0.65272739E+03</pdfrwt>
<pdfrwt beam="2">0</pdfrwt>
<totfact> 0.15223598E+00</totfact>
</mgrwt>
</event>
<event>
 6      1 +5.6466785e-02 6.51362800e+02 7.81860800e-03 9.80422500e-02
        1 -1    0    0  502    0 +0.0000000000e+00 +0.0000000000e+00 +1.0877722781e+02 1.0877722781e+02 0.0000000000e+00 0.0000e+00 1.0000e+00
       13 -1    0    0    0    0 -0.0000000000e+00 -0.0000000000e+00 -1.0000000000e+03 1.0000000000e+03 0.0000000000e+00 0.0000e+00 1.0000e+00
  9000005  2    1    2  501    0 -4.2420372421e-03 -4.7792211563e-02 -8.9393139226e+02 1.1060681828e+03 6.5136279345e+02 0.0000e+00 0.0000e+00
       13  1    3    3    0    0 -7.3455850973e+01 +1.3847582309e+02 -9.3169714840e+02 9.4479145422e+02 0.0000000000e+00 0.0000e+00 1.0000e+00
        1  1    3    3  501    0 +7.3451608936e+01 -1.3852361531e+02 +3.7765756145e+01 1.6127672861e+02 0.0000000000e+00 0.0000e+00 1.0000e+00
       21  1    1    2  502  501 +4.2420372421e-03 +4.7792211563e-02 +2.7086200631e+00 2.7090449861e+00 0.0000000000e+00 0.0000e+00 1.0000e+00
<mgrwt>
<rscale>  1 0.65136280E+03</rscale>
<asrwt>0</asrwt>
<pdfrwt beam="1">  1        1 0.39555439E+00 0.65136280E+03</pdfrwt>
<pdfrwt beam="2">0</pdfrwt>
<totfact> 0.13998930E+00</totfact>
</mgrwt>
</event>
<event>
 6      1 +5.6466785e-02 6.55304800e+02 7.81860800e-03 9.79687600e-02
        1 -1    0    0  502    0 +0.0000000000e+00 +0.0000000000e+00 +1.0735613361e+02 1.0735613361e+02 0.0000000000e+00 0.0000e+00 1.0000e+00
       13 -1    0    0    0    0 -0.0000000000e+00 -0.0000000000e+00 -1.0000000000e+03 1.0000000000e+03 0.0000000000e+00 0.0000e+00 1.0000e+00
  9000005  2    1    2  501    0 -3.2888849887e-05 +4.9616494010e-05 -8.9264387600e+02 1.1073560733e+03 6.5530480217e+02 0.0000e+00 0.0000e+00
       13  1    3    3    0    0 -2.6175748668e+02 -1.6977838282e+02 -6.1542704945e+02 6.8999430020e+02 0.0000000000e+00 0.0000e+00 1.0000e+00
        3  1    3    3  501    0 +2.6175745379e+02 +1.6977843244e+02 -2.7721682654e+02 4.1736177311e+02 0.0000000000e+00 0.0000e+00 1.0000e+00
       21  1    1    2  502  501 +3.2888849906e-05 -4.9616494012e-05 +9.6014484752e-06 6.0296440517e-05 0.0000000000e+00 0.0000e+00 1.0000e+00
<mgrwt>
<rscale>  1 0.65530480E+03</rscale>
<asrwt>0</asrwt>
<pdfrwt beam="1">  1        1 0.39038676E+00 0.65530480E+03</pdfrwt>
<pdfrwt beam="2">0</pdfrwt>
<totfact> 0.14747749E+00</totfact>
</mgrwt>
</event>
<event>
 6      1 +5.6466785e-02 6.41900700e+02 7.81860800e-03 9.82209700e-02
        1 -1    0    0  502    0 +0.0000000000e+00 +0.0000000000e+00 +1.0301758255e+02 1.0301758255e+02 0.0000000000e+00 0.0000e+00 1.0000e+00
       13 -1    0    0    0    0 -0.0000000000e+00 -0.0000000000e+00 -1.0000000000e+03 1.0000000000e+03 0.0000000000e+00 0.0000e+00 1.0000e+00
  9000005  2    1    2  501    0 +2.3812576637e-03 -1.6105091412e-03 -8.9699061430e+02 1.1030088962e+03 6.4190066442e+02 0.0000e+00 0.0000e+00
       13  1    3    3    0    0 +1.3946348633e+02 -2.8906481383e+02 -4.4647641660e+02 5.4986336593e+02 0.0000000000e+00 0.0000e+00 1.0000e+00
        3  1    3    3  501    0 -1.3946110507e+02 +2.8906320332e+02 -4.5051419770e+02 5.5314553028e+02 0.0000000000e+00 0.0000e+00 1.0000e+00
       21  1    1    2  502  501 -2.3812576637e-03 +1.6105091413e-03 +8.1968490415e-03 8.6863376612e-03 0.0000000000e+00 0.0000e+00 -1.0000e+00
<mgrwt>
<rscale>  1 0.64190066E+03</rscale>
<asrwt>0</asrwt>
<pdfrwt beam="1">  1        1 0.37461018E+00 0.64190066E+03</pdfrwt>
<pdfrwt beam="2">0</pdfrwt>
<totfact> 0.17357911E+00</totfact>
</mgrwt>
</event>
<event>
 6      1 +5.6466785e-02 6.45083500e+02 7.81860800e-03 9.81604900e-02
        3 -1    0    0  502    0 +0.0000000000e+00 +0.0000000000e+00 +1.0403345044e+02 1.0403345044e+02 0.0000000000e+00 0.0000e+00 1.0000e+00
       13 -1    0    0    0    0 -0.0000000000e+00 -0.0000000000e+00 -1.0000000000e+03 1.0000000000e+03 0.0000000000e+00 0.0000e+00 1.0000e+00
  9000005  2    1    2  501    0 +2.9254446636e-05 +4.0789487002e-05 -8.9596682431e+02 1.1040331711e+03 6.4508347733e+02 0.0000e+00 0.0000e+00
       13  1    3    3    0    0 -1.2344134201e+01 +3.1993135644e+02 -5.1481220576e+02 6.0625082077e+02 0.0000000000e+00 0.0000e+00 1.0000e+00
        1  1    3    3  501    0 +1.2344163456e+01 -3.1993131565e+02 -3.8115461855e+02 4.9778235038e+02 0.0000000000e+00 0.0000e+00 1.0000e+00
       21  1    1    2  502  501 -2.9254446635e-05 -4.0789486992e-05 +2.7474935052e-04 2.7929699338e-04 0.0000000000e+00 0.0000e+00 -1.0000e+00
<mgrwt>
<rscale>  1 0.64508348E+03</rscale>
<asrwt>0</asrwt>
<pdfrwt beam="1">  1        3 0.37830425E+00 0.64508348E+03</pdfrwt>
<pdfrwt beam="2">0</pdfrwt>
<totfact> 0.77115168E-02</totfact>
</mgrwt>
</event>
<event>
 6      1 +5.6466785e-02 6.51424300e+02 7.81860800e-03 9.80411000e-02
        1 -1    0    0  502    0 +0.0000000000e+00 +0.0000000000e+00 +1.0721543513e+02 1.0721543513e+02 0.0000000000e+00 0.0000e+00 1.0000e+00
       13 -1    0    0    0    0 -0.0000000000e+00 -0.0000000000e+00 -1.0000000000e+03 1.0000000000e+03 0.0000000000e+00 0.0000e+00 1.0000e+00
  9000005  2    1    2  501    0 -5.4974673174e-01 +1.7407311886e+00 -8.9302735133e+02 1.1053738837e+03 6.5142170681e+02 0.0000e+00 0.0000e+00
       13  1    3    3    0    0 -1.0599474971e+02 -1.1534858711e+02 +3.7926821360e+01 1.6117886739e+02 0.0000000000e+00 0.0000e+00 1.0000e+00
        3  1    3    3  501    0 +1.0544500298e+02 +1.1708931830e+02 -9.3095417269e+02 9.4419501628e+02 0.0000000000e+00 0.0000e+00 1.0000e+00
       21  1    1    2  502  501 +5.4974673174e-01 -1.7407311886e+00 +2.4278646634e-01 1.8415514677e+00 0.0000000000e+00 0.0000e+00 1.0000e+00
<mgrwt>
<rscale>  1 0.65142426E+03</rscale>
<asrwt>0</asrwt>
<pdfrwt beam="1">  1        1 0.38987513E+00 0.65142426E+03</pdfrwt>
<pdfrwt beam="2">0</pdfrwt>
<totfact> 0.14835695E+00</totfact>
</mgrwt>
</event>
<event>
 6      1 +5.6466785e-02 6.33479200e+02 7.81860800e-03 9.83828300e-02
        1 -1    0    0  502    0 +0.0000000000e+00 +0.0000000000e+00 +1.0033455102e+02 1.0033455102e+02 0.0000000000e+00 0.0000e+00 1.0000e+00
       13 -1    0    0    0    0 -0.0000000000e+00 -0.0000000000e+00 -1.0000000000e+03 1.0000000000e+03 0.0000000000e+00 0.0000e+00 1.0000e+00
  9000005  2    1    2  501    0 +6.0519963492e-04 +2.6268197632e-03 -8.9967584975e+02 1.1003238066e+03 6.3347915889e+02 0.0000e+00 0.0000e+00
       13  1    3    3    0    0 +2.3538140811e+02 +6.7704266899e+01 -7.9868534929e+02 8.3539605111e+02 0.0000000000e+00 0.0000e+00 1.0000e+00
        1  1    3    3  501    0 -2.3538080291e+02 -6.7701640079e+01 -1.0099050046e+02 2.6492775549e+02 0.0000000000e+00 0.0000e+00 1.0000e+00
       21  1    1    2  502  501 -6.0519963491e-04 -2.6268197631e-03 +1.0400772376e-02 1.0744417838e-02 0.0000000000e+00 0.0000e+00 1.0000e+00
<mgrwt>
<rscale>  1 0.63347916E+03</rscale>
<asrwt>0</asrwt>
<pdfrwt beam="1">  1        1 0.36485368E+00 0.63347916E+03</pdfrwt>
<pdfrwt beam="2">0</pdfrwt>
<totfact> 0.19187048E+00</totfact>
</mgrwt>
</event>
<event>
 6      1 +5.6466785e-02 6.48790700e+02 7.81860800e-03 9.80905100e-02
        1 -1    0    0  502    0 +0.0000000000e+00 +0.0000000000e+00 +1.0523484622e+02 1.0523484622e+02 0.0000000000e+00 0.0000e+00 1.0000e+00
       13 -1    0    0    0    0 -0.0000000000e+00 -0.0000000000e+00 -1.0000000000e+03 1.0000000000e+03 0.0000000000e+00 0.0000e+00 1.0000e+00
  9000005  2    1    2  501    0 -1.0317651973e-04 -4.2333152436e-05 -8.9476765316e+02 1.1052323443e+03 6.4879070727e+02 0.0000e+00 0.0000e+00
       13  1    3    3    0    0 -1.4581393777e+02 -2.2303351407e+02 -7.6254423854e+02 8.0776195044e+02 0.0000000000e+00 0.0000e+00 1.0000e+00
        3  1    3    3  501    0 +1.4581383460e+02 +2.2303347174e+02 -1.3222341462e+02 2.9747039390e+02 0.0000000000e+00 0.0000e+00 1.0000e+00
       21  1    1    2  502  501 +1.0317651974e-04 +4.2333152452e-05 +2.4993803897e-03 2.5018672672e-03 0.0000000000e+00 0.0000e+00 1.0000e+00
<mgrwt>
<rscale>  1 0.64879071E+03</rscale>
<asrwt>0</asrwt>
<pdfrwt beam="1">  1        1 0.38267298E+00 0.64879071E+03</pdfrwt>
<pdfrwt beam="2">0</pdfrwt>
<totfact> 0.15973350E+00</totfact>
</mgrwt>
</event>
<event>
 6      1 +5.6466785e-02 6.48587500e+02 7.81860800e-03 9.80943300e-02
        1 -1    0    0  502    0 +0.0000000000e+00 +0.0000000000e+00 +1.0516652890e+02 1.0516652890e+02 0.0000000000e+00 0.0000e+00 1.0000e+00
       13 -1    0    0    0    0 -0.0000000000e+00 -0.0000000000e+00 -1.0000000000e+03 1.0000000000e+03 0.0000000000e+00 0.0000e+00 1.0000e+00
  9000005  2    1    2  501    0 +7.0311556613e-06 -6.1327398203e-05 -8.9483354998e+02 1.1051664287e+03 6.4858750609e+02 0.0000e+00 0.0000e+00
       13  1    3    3    0    0 +1.6083499141e+02 +1.9212930162e+01 -9.2613341715e+02 9.4019154299e+02 0.0000000000e+00 0.0000e+00 1.0000e+00
        3  1    3    3  501    0 -1.6083498438e+02 -1.9212991489e+01 +3.1299867178e+01 1.6497488575e+02 0.0000000000e+00 0.0000e+00 1.0000e+00
       21  1    1    2  502  501 -7.0311556386e-06 +6.1327398202e-05 +7.8874655228e-05 1.0015836539e-04 0.0000000000e+00 0.0000e+00 -1.0000e+00
<mgrwt>
<rscale>  1 0.64858751E+03</rscale>
<asrwt>0</asrwt>
<pdfrwt beam="1">  1        1 0.38242455E+00 0.64858751E+03</pdfrwt>
<pdfrwt beam="2">0</pdfrwt>
<totfact> 0.16014367E+00</totfact>
</mgrwt>
</event>
<event>
 6      1 +5.6466785e-02 6.92907500e+02 7.81860800e-03 9.72943900e-02
        1 -1    0    0  502    0 +0.0000000000e+00 +0.0000000000e+00 +1.2003356904e+02 1.2003356904e+02 0.0000000000e+00 0.0000e+00 1.0000e+00
       13 -1    0    0    0    0 -0.0000000000e+00 -0.0000000000e+00 -1.0000000000e+03 1.0000000000e+03 0.0000000000e+00 0.0000e+00 1.0000e+00
  9000005  2    1    2  501    0 +2.2970979508e-04 +2.2181363437e-04 -8.7996980593e+02 1.1200301790e+03 6.9290745594e+02 0.0000e+00 0.0000e+00
       13  1    3    3    0    0 +1.4051663523e+01 -2.0803678451e+02 -8.8722077140e+02 9.1139313700e+02 0.0000000000e+00 0.0000e+00 1.0000e+00
        1  1    3    3  501    0 -1.4051433813e+01 +2.0803700632e+02 +7.2509654692e+00 2.0863704199e+02 0.0000000000e+00 0.0000e+00 1.0000e+00
       21  1    1    2  502  501 -2.2970979508e-04 -2.2181363437e-04 +3.3749731102e-03 3.3900459249e-03 0.0000000000e+00 0.0000e+00 1.0000e+00
<mgrwt>
<rscale>  1 0.69290746E+03</rscale>
<asrwt>0</asrwt>
<pdfrwt beam="1">  1        1 0.43648663E+00 0.69290746E+03</pdfrwt>
<pdfrwt beam="2">0</pdfrwt>
<totfact> 0.90846464E-01</totfact>
</mgrwt>
</event>
<event>
 6      1 +5.6466785e-02 6.67684800e+02 7.81860800e-03 9.77414900e-02
        1 -1    0    0  502    0 +0.0000000000e+00 +0.0000000000e+00 +1.1145114138e+02 1.1145114138e+02 0.0000000000e+00 0.0000e+00 1.0000e+00
       13 -1    0    0    0    0 -0.0000000000e+00 -0.0000000000e+00 -1.0000000000e+03 1.0000000000e+03 0.0000000000e+00 0.0000e+00 1.0000e+00
  9000005  2    1    2  501    0 +5.6252799715e-04 +3.3796887482e-04 -8.8854893674e+02 1.1114504805e+03 6.6768477413e+02 0.0000e+00 0.0000e+00
       13  1    3    3    0    0 +7.6140105575e+01 +3.2238672922e+02 -5.1331939514e+02 6.1092333421e+02 0.0000000000e+00 0.0000e+00 1.0000e+00
        1  1    3    3  501    0 -7.6139543047e+01 -3.2238639125e+02 -3.7522954160e+02 5.0052714629e+02 0.0000000000e+00 0.0000e+00 1.0000e+00
       21  1    1    2  502  501 -5.6252799714e-04 -3.3796887477e-04 +7.8115009025e-05 6.6088021798e-04 0.0000000000e+00 0.0000e+00 1.0000e+00
<mgrwt>
<rscale>  1 0.66768477E+03</rscale>
<asrwt>0</asrwt>
<pdfrwt beam="1">  1        1 0.40527773E+00 0.66768477E+03</pdfrwt>
<pdfrwt beam="2">0</pdfrwt>
<totfact> 0.12629815E+00</totfact>
</mgrwt>
</event>
<event>
 6      1 +5.6466785e-02 6.58974100e+02 7.81860800e-03 9.79008400e-02
        1 -1    0    0  502    0 +0.0000000000e+00 +0.0000000000e+00 +1.0885314205e+02 1.0885314205e+02 0.0000000000e+00 0.0000e+00 1.0000e+00
       13 -1    0    0    0    0 -0.0000000000e+00 -0.0000000000e+00 -1.0000000000e+03 1.0000000000e+03 0.0000000000e+00 0.0000e+00 1.0000e+00
  9000005  2    1    2  501    0 +5.2051945579e-03 -6.0014059647e-02 -8.9143481477e+02 1.1085589518e+03 6.5897413982e+02 0.0000e+00 0.0000e+00
       13  1    3    3    0    0 -2.8853748445e+02 -1.4625622471e+02 -5.5111477754e+02 6.3904010925e+02 0.0000000000e+00 0.0000e+00 1.0000e+00
        3  1    3    3  501    0 +2.8854268964e+02 +1.4619621065e+02 -3.4032003723e+02 4.6951884253e+02 0.0000000000e+00 0.0000e+00 1.0000e+00
       21  1    1    2  502  501 -5.2051945579e-03 +6.0014059647e-02 +2.8795682714e-01 2.9419027126e-01 0.0000000000e+00 0.0000e+00 1.0000e+00
<mgrwt>
<rscale>  1 0.65897414E+03</rscale>
<asrwt>0</asrwt>
<pdfrwt beam="1">  1        1 0.39583044E+00 0.65897414E+03</pdfrwt>
<pdfrwt beam="2">0</pdfrwt>
<totfact> 0.13939510E+00</totfact>
</mgrwt>
</event>
<event>
 6      1 +5.6466785e-02 6.95380000e+02 7.81860800e-03 9.72516600e-02
        1 -1    0    0  502    0 +0.0000000000e+00 +0.0000000000e+00 +1.2183573240e+02 1.2183573240e+02 0.0000000000e+00 0.0000e+00 1.0000e+00
       13 -1    0    0    0    0 -0.0000000000e+00 -0.0000000000e+00 -1.0000000000e+03 1.0000000000e+03 0.0000000000e+00 0.0000e+00 1.0000e+00
  9000005  2    1    2  501    0 +1.3426581894e+00 +3.6461233251e-02 -8.7854092549e+02 1.1204407659e+03 6.9537870834e+02 0.0000e+00 0.0000e+00
       13  1    3    3    0    0 +2.6586756758e+02 -1.7933064286e+02 -6.5842685885e+02 7.3237351906e+02 0.0000000000e+00 0.0000e+00 1.0000e+00
        3  1    3    3  501    0 -2.6452490939e+02 +1.7936710409e+02 -2.2011406664e+02 3.8806724682e+02 0.0000000000e+00 0.0000e+00 1.0000e+00
       21  1    1    2  502  501 -1.3426581894e+00 -3.6461233251e-02 +3.7665789325e-01 1.3949665242e+00 0.0000000000e+00 0.0000e+00 1.0000e+00
<mgrwt>
<rscale>  1 0.69538001E+03</rscale>
<asrwt>0</asrwt>
<pdfrwt beam="1">  1        1 0.44303996E+00 0.69538001E+03</pdfrwt>
<pdfrwt beam="2">0</pdfrwt>
<totfact> 0.84743084E-01</totfact>
</mgrwt>
</event>
<event>
 6      1 +5.6466785e-02 6.64943000e+02 7.81860800e-03 9.77913700e-02
        1 -1    0    0  502    0 +0.0000000000e+00 +0.0000000000e+00 +1.1053748530e+02 1.1053748530e+02 0.0000000000e+00 0.0000e+00 1.0000e+00
       13 -1    0    0    0    0 -0.0000000000e+00 -0.0000000000e+00 -1.0000000000e+03 1.0000000000e+03 0.0000000000e+00 0.0000e+00 1.0000e+00
  9000005  2    1    2  501    0 +8.9167747078e-05 +3.3813057598e-06 -8.8946269588e+02 1.1105372833e+03 6.6494298276e+02 0.0000e+00 0.0000e+00
       13  1    3    3    0    0 +3.6366306751e+01 +1.7935808909e+02 +1.8846064004e+01 1.8397555956e+02 0.0000000000e+00 0.0000e+00 1.0000e+00
        3  1    3    3  501    0 -3.6366217583e+01 -1.7935808571e+02 -9.0830875988e+02 9.2656172378e+02 0.0000000000e+00 0.0000e+00 1.0000e+00
       21  1    1    2  502  501 -8.9167747078e-05 -3.3813057640e-06 +1.8118032332e-04 2.0196195163e-04 0.0000000000e+00 0.0000e+00 -1.0000e+00
<mgrwt>
<rscale>  1 0.66494298E+03</rscale>
<asrwt>0</asrwt>
<pdfrwt beam="1">  1        1 0.40195534E+00 0.66494298E+03</pdfrwt>
<pdfrwt beam="2">0</pdfrwt>
<totfact> 0.13075771E+00</totfact>
</mgrwt>
</event>
<event>
 6      1 +5.6466785e-02 6.51124000e+02 7.81860800e-03 9.80467200e-02
        3 -1    0    0  502    0 +0.0000000000e+00 +0.0000000000e+00 +1.0599070746e+02 1.0599070746e+02 0.0000000000e+00 0.0000e+00 1.0000e+00
       13 -1    0    0    0    0 -0.0000000000e+00 -0.0000000000e+00 -1.0000000000e+03 1.0000000000e+03 0.0000000000e+00 0.0000e+00 1.0000e+00
  9000005  2    1    2  501    0 -1.1428924452e-04 -3.2485612167e-05 -8.9400931580e+02 1.1059905864e+03 6.5112404382e+02 0.0000e+00 0.0000e+00
       13  1    3    3    0    0 -2.4486546788e+02 -1.1717334729e+02 -1.4172201318e+02 3.0622511278e+02 0.0000000000e+00 0.0000e+00 1.0000e+00
        3  1    3    3  501    0 +2.4486535359e+02 +1.1717331480e+02 -7.5228730262e+02 7.9976547361e+02 0.0000000000e+00 0.0000e+00 1.0000e+00
       21  1    1    2  502  501 +1.1428924450e-04 +3.2485612168e-05 +2.3259848699e-05 1.2107174306e-04 0.0000000000e+00 0.0000e+00 -1.0000e+00
<mgrwt>
<rscale>  1 0.65112404E+03</rscale>
<asrwt>0</asrwt>
<pdfrwt beam="1">  1        3 0.38542157E+00 0.65112404E+03</pdfrwt>
<pdfrwt beam="2">0</pdfrwt>
<totfact> 0.70654031E-02</totfact>
</mgrwt>
</event>
<event>
 6      1 +5.6466785e-02 5.96829800e+02 7.81860800e-03 9.91200500e-02
        1 -1    0    0  502    0 +0.0000000000e+00 +0.0000000000e+00 +8.9051462846e+01 8.9051462846e+01 0.0000000000e+00 0.0000e+00 1.0000e+00
       13 -1    0    0    0    0 -0.0000000000e+00 -0.0000000000e+00 -1.0000000000e+03 1.0000000000e+03 0.0000000000e+00 0.0000e+00 1.0000e+00
  9000005  2    1    2  501    0 -2.2383392739e-06 +4.5394889980e-06 -9.1094855356e+02 1.0890514457e+03 5.9682977817e+02 0.0000e+00 0.0000e+00
       13  1    3    3    0    0 -8.3731459287e+00 -9.6629884797e+01 -9.7043540424e+02 9.7527038200e+02 0.0000000000e+00 0.0000e+00 1.0000e+00
        3  1    3    3  501    0 +8.3731436903e+00 +9.6629889337e+01 +5.9486850679e+01 1.1378106368e+02 0.0000000000e+00 0.0000e+00 1.0000e+00
       21  1    1    2  502  501 +2.2383392738e-06 -4.5394890082e-06 +1.6403237240e-05 1.7166342508e-05 0.0000000000e+00 0.0000e+00 -1.0000e+00
<mgrwt>
<rscale>  1 0.59682978E+03</rscale>
<asrwt>0</asrwt>
<pdfrwt beam="1">  1        1 0.32382418E+00 0.59682978E+03</pdfrwt>
<pdfrwt beam="2">0</pdfrwt>
<totfact> 0.29130722E+00</totfact>
</mgrwt>
</event>
<event>
 6      1 +5.6466785e-02 6.46219600e+02 7.81860800e-03 9.81389900e-02
        1 -1    0    0  502    0 +0.0000000000e+00 +0.0000000000e+00 +1.0449995813e+02 1.0449995813e+02 0.0000000000e+00 0.0000e+00 1.0000e+00
       13 -1    0    0    0    0 -0.0000000000e+00 -0.0000000000e+00 -1.0000000000e+03 1.0000000000e+03 0.0000000000e+00 0.0000e+00 1.0000e+00
  9000005  2    1    2  501    0 -4.8195955705e-04 +1.3402218965e-03 -8.9560004503e+02 1.1043999448e+03 6.4621962015e+02 0.0000e+00 0.0000e+00
       13  1    3    3    0    0 -1.3342327109e+02 -2.9102939124e+02 -3.7330996931e+02 4.9179285173e+02 0.0000000000e+00 0.0000e+00 1.0000e+00
        1  1    3    3  501    0 +1.3342278913e+02 +2.9103073146e+02 -5.2229007572e+02 6.1260709309e+02 0.0000000000e+00 0.0000e+00 1.0000e+00
       21  1    1    2  502  501 +4.8195955706e-04 -1.3402218965e-03 +1.0000315818e-01 1.0001329974e-01 0.0000000000e+00 0.0000e+00 1.0000e+00
<mgrwt>
<rscale>  1 0.64621962E+03</rscale>
<asrwt>0</asrwt>
<pdfrwt beam="1">  1        1 0.38000065E+00 0.64621962E+03</pdfrwt>
<pdfrwt beam="2">0</pdfrwt>
<totfact> 0.16421021E+00</totfact>
</mgrwt>
</event>
<event>
 6      1 +5.6466785e-02 6.65545800e+02 7.81860800e-03 9.77803800e-02
        1 -1    0    0  502    0 +0.0000000000e+00 +0.0000000000e+00 +1.1073781888e+02 1.1073781888e+02 0.0000000000e+00 0.0000e+00 1.0000e+00
       13 -1    0    0    0    0 -0.0000000000e+00 -0.0000000000e+00 -1.0000000000e+03 1.0000000000e+03 0.0000000000e+00 0.0000e+00 1.0000e+00
  9000005  2    1    2  501    0 -7.3919132433e-06 -1.9627021572e-06 -8.8926218594e+02 1.1107378098e+03 6.6554582626e+02 0.0000e+00 0.0000e+00
       13  1    3    3    0    0 +1.5721126029e+02 +2.0489127766e+02 -7.9487216604e+02 8.3577363943e+02 0.0000000000e+00 0.0000e+00 1.0000e+00
        1  1    3    3  501    0 -1.5721126768e+02 -2.0489127962e+02 -9.4390019905e+01 2.7496417041e+02 0.0000000000e+00 0.0000e+00 1.0000e+00
       21  1    1    2  502  501 +7.3919132518e-06 +1.9627021491e-06 +4.8272015134e-06 9.0440287317e-06 0.0000000000e+00 0.0000e+00 1.0000e+00
<mgrwt>
<rscale>  1 0.66554583E+03</rscale>
<asrwt>0</asrwt>
<pdfrwt beam="1">  1        1 0.40268383E+00 0.66554583E+03</pdfrwt>
<pdfrwt beam="2">0</pdfrwt>
<totfact> 0.12976731E+00</totfact>
</mgrwt>
</event>
<event>
 6      1 +5.6466785e-02 6.51372000e+02 7.81860800e-03 9.80420800e-02
        1 -1    0    0  502    0 +0.0000000000e+00 +0.0000000000e+00 +1.0625184273e+02 1.0625184273e+02 0.0000000000e+00 0.0000e+00 1.0000e+00
       13 -1    0    0    0    0 -0.0000000000e+00 -0.0000000000e+00 -1.0000000000e+03 1.0000000000e+03 0.0000000000e+00 0.0000e+00 1.0000e+00
  9000005  2    1    2  501    0 -1.6946407804e-03 +1.4672961645e-01 -8.9389503583e+02 1.1060442235e+03 6.5137198868e+02 0.0000e+00 0.0000e+00
       13  1    3    3    0    0 -2.4247736848e+00 +4.6087860267e+00 +1.0600422570e+02 1.0613207009e+02 0.0000000000e+00 0.0000e+00 1.0000e+00
        3  1    3    3  501    0 +2.4230790440e+00 -4.4620564102e+00 -9.9989926152e+02 9.9991215337e+02 0.0000000000e+00 0.0000e+00 1.0000e+00
       21  1    1    2  502  501 +1.6946407804e-03 -1.4672961645e-01 +1.4687855419e-01 2.0761927134e-01 0.0000000000e+00 0.0000e+00 1.0000e+00
<mgrwt>
<rscale>  1 0.65137201E+03</rscale>
<asrwt>0</asrwt>
<pdfrwt beam="1">  1        1 0.38637115E+00 0.65137201E+03</pdfrwt>
<pdfrwt beam="2">0</pdfrwt>
<totfact> 0.15375708E+00</totfact>
</mgrwt>
</event>
<event>
 6      1 +5.6466785e-02 6.22689500e+02 7.81860800e-03 9.85941900e-02
        1 -1    0    0  502    0 +0.0000000000e+00 +0.0000000000e+00 +9.6935639310e+01 9.6935639310e+01 0.0000000000e+00 0.0000e+00 1.0000e+00
       13 -1    0    0    0    0 -0.0000000000e+00 -0.0000000000e+00 -1.0000000000e+03 1.0000000000e+03 0.0000000000e+00 0.0000e+00 1.0000e+00
  9000005  2    1    2  501    0 +9.3468984019e-06 -1.7438174318e-06 -9.0306444714e+02 1.0969355523e+03 6.2268949751e+02 0.0000e+00 0.0000e+00
       13  1    3    3    0    0 +3.4387415148e+01 -3.5966354292e+00 -9.9660759867e+02 9.9720716796e+02 0.0000000000e+00 0.0000e+00 1.0000e+00
        3  1    3    3  501    0 -3.4387405801e+01 +3.5966336854e+00 +9.3543151535e+01 9.9728384379e+01 0.0000000000e+00 0.0000e+00 1.0000e+00
       21  1    1    2  502  501 -9.3468984056e-06 +1.7438174317e-06 +8.6446794482e-05 8.6968118786e-05 0.0000000000e+00 0.0000e+00 -1.0000e+00
<mgrwt>
<rscale>  1 0.62268950E+03</rscale>
<asrwt>0</asrwt>
<pdfrwt beam="1">  1        1 0.35249398E+00 0.62268950E+03</pdfrwt>
<pdfrwt beam="2">0</pdfrwt>
<totfact> 0.21771156E+00</totfact>
</mgrwt>
</event>
<event>
 6      1 +5.6466785e-02 6.35628700e+02 7.81860800e-03 9.83412600e-02
        1 -1    0    0  502    0 +0.0000000000e+00 +0.0000000000e+00 +1.0101023533e+02 1.0101023533e+02 0.0000000000e+00 0.0000e+00 1.0000e+00
       13 -1    0    0    0    0 -0.0000000000e+00 -0.0000000000e+00 -1.0000000000e+03 1.0000000000e+03 0.0000000000e+00 0.0000e+00 1.0000e+00
  9000005  2    1    2  501    0 +3.6261845338e-04 +1.0187568181e-03 -8.9899395562e+02 1.1010059071e+03 6.3562872439e+02 0.0000e+00 0.0000e+00
       13  1    3    3    0    0 +2.8135353622e+02 -6.6007927657e+01 -6.7856821782e+02 7.3754436144e+02 0.0000000000e+00 0.0000e+00 1.0000e+00
        3  1    3    3  501    0 -2.8135317360e+02 +6.6008946414e+01 -2.2042573780e+02 3.6346154568e+02 0.0000000000e+00 0.0000e+00 1.0000e+00
       21  1    1    2  502  501 -3.6261845335e-04 -1.0187568181e-03 +4.1909467885e-03 4.3282089346e-03 0.0000000000e+00 0.0000e+00 -1.0000e+00
<mgrwt>
<rscale>  1 0.63562872E+03</rscale>
<asrwt>0</asrwt>
<pdfrwt beam="1">  1        1 0.36731072E+00 0.63562872E+03</pdfrwt>
<pdfrwt beam="2">0</pdfrwt>
<totfact> 0.18709671E+00</totfact>
</mgrwt>
</event>
<event>
 6      1 +5.6466785e-02 6.50974200e+02 7.81860800e-03 9.80495300e-02
        1 -1    0    0  502    0 +0.0000000000e+00 +0.0000000000e+00 +1.0601411416e+02 1.0601411416e+02 0.0000000000e+00 0.0000e+00 1.0000e+00
       13 -1    0    0    0    0 -0.0000000000e+00 -0.0000000000e+00 -1.0000000000e+03 1.0000000000e+03 0.0000000000e+00 0.0000e+00 1.0000e+00
  9000005  2    1    2  501    0 +1.5380705440e-02 -1.7789039571e-02 -8.9405601445e+02 1.1059401477e+03 6.5097423355e+02 0.0000e+00 0.0000e+00
       13  1    3    3    0    0 -4.1812706667e+01 -3.2146821917e+02 -3.9730937625e+02 5.1278149229e+02 0.0000000000e+00 0.0000e+00 1.0000e+00
        1  1    3    3  501    0 +4.1828087372e+01 +3.2145043013e+02 -4.9674663820e+02 5.9315865541e+02 0.0000000000e+00 0.0000e+00 1.0000e+00
       21  1    1    2  502  501 -1.5380705440e-02 +1.7789039571e-02 +7.0128611190e-02 7.3966466294e-02 0.0000000000e+00 0.0000e+00 1.0000e+00
<mgrwt>
<rscale>  1 0.65097423E+03</rscale>
<asrwt>0</asrwt>
<pdfrwt beam="1">  1        1 0.38550668E+00 0.65097423E+03</pdfrwt>
<pdfrwt beam="2">0</pdfrwt>
<totfact> 0.15512887E+00</totfact>
</mgrwt>
</event>
<event>
 6      1 +5.6466785e-02 6.28116300e+02 7.81860800e-03 9.84873200e-02
        1 -1    0    0  502    0 +0.0000000000e+00 +0.0000000000e+00 +9.9381075111e+01 9.9381075111e+01 0.0000000000e+00 0.0000e+00 1.0000e+00
       13 -1    0    0    0    0 -0.0000000000e+00 -0.0000000000e+00 -1.0000000000e+03 1.0000000000e+03 0.0000000000e+00 0.0000e+00 1.0000e+00
  9000005  2    1    2  501    0 +1.3828326091e+00 -2.7798606373e-01 -9.0055899348e+02 1.0979693053e+03 6.2811472289e+02 0.0000e+00 0.0000e+00
       13  1    3    3    0    0 -2.6170086542e+02 +7.1547850547e+01 -7.2381768255e+02 7.7299319237e+02 0.0000000000e+00 0.0000e+00 1.0000e+00
        1  1    3    3  501    0 +2.6308369803e+02 -7.1825836611e+01 -1.7674131093e+02 3.2497611291e+02 0.0000000000e+00 0.0000e+00 1.0000e+00
       21  1    1    2  502  501 -1.3828326091e+00 +2.7798606373e-01 -5.9931410231e-02 1.4117698291e+00 0.0000000000e+00 0.0000e+00 -1.0000e+00
<mgrwt>
<rscale>  1 0.62811631E+03</rscale>
<asrwt>0</asrwt>
<pdfrwt beam="1">  1        1 0.36138649E+00 0.62811631E+03</pdfrwt>
<pdfrwt beam="2">0</pdfrwt>
<totfact> 0.19888975E+00</totfact>
</mgrwt>
</event>
<event>
 6      1 +5.6466785e-02 6.51411200e+02 7.81860800e-03 9.80413500e-02
        1 -1    0    0  502    0 +0.0000000000e+00 +0.0000000000e+00 +1.0622127543e+02 1.0622127543e+02 0.0000000000e+00 0.0000e+00 1.0000e+00
       13 -1    0    0    0    0 -0.0000000000e+00 -0.0000000000e+00 -1.0000000000e+03 1.0000000000e+03 0.0000000000e+00 0.0000e+00 1.0000e+00
  9000005  2    1    2  501    0 -3.6542905703e-03 -1.3278446317e-01 -8.9387936272e+02 1.1060546228e+03 6.5141115729e+02 0.0000e+00 0.0000e+00
       13  1    3    3    0    0 +1.5333075954e+02 -2.8109210819e+02 -5.4886203429e+02 6.3543105668e+02 0.0000000000e+00 0.0000e+00 1.0000e+00
        1  1    3    3  501    0 -1.5333441384e+02 +2.8095932373e+02 -3.4501732843e+02 4.7062356610e+02 0.0000000000e+00 0.0000e+00 1.0000e+00
       21  1    1    2  502  501 +3.6542905703e-03 +1.3278446317e-01 +1.0063815394e-01 1.6665264933e-01 0.0000000000e+00 0.0000e+00 -1.0000e+00
<mgrwt>
<rscale>  1 0.65141117E+03</rscale>
<asrwt>0</asrwt>
<pdfrwt beam="1">  1        1 0.38626000E+00 0.65141117E+03</pdfrwt>
<pdfrwt beam="2">0</pdfrwt>
<totfact> 0.15393025E+00</totfact>
</mgrwt>
</event>
<event>
 6      1 +5.6466785e-02 6.56081000e+02 7.81860800e-03 9.79543500e-02
        1 -1    0    0  502    0 +0.0000000000e+00 +0.0000000000e+00 +1.0761057684e+02 1.0761057684e+02 0.0000000000e+00 0.0000e+00 1.0000e+00
       13 -1    0    0    0    0 -0.0000000000e+00 -0.0000000000e+00 -1.0000000000e+03 1.0000000000e+03 0.0000000000e+00 0.0000e+00 1.0000e+00
  9000005  2    1    2  501    0 -5.8654310351e-06 -5.5866736943e-06 -8.9238943435e+02 1.1076105630e+03 6.5608098339e+02 0.0000e+00 0.0000e+00
       13  1    3    3    0    0 +1.4404401092e+02 -2.7643031454e+02 -6.1875853367e+02 6.9283801778e+02 0.0000000000e+00 0.0000e+00 1.0000e+00
        3  1    3    3  501    0 -1.4404401679e+02 +2.7643030896e+02 -2.7363090068e+02 4.1477254525e+02 0.0000000000e+00 0.0000e+00 1.0000e+00
       21  1    1    2  502  501 +5.8654310533e-06 +5.5866736786e-06 +1.1196578299e-05 1.3819463442e-05 0.0000000000e+00 0.0000e+00 1.0000e+00
<mgrwt>
<rscale>  1 0.65608098E+03</rscale>
<asrwt>0</asrwt>
<pdfrwt beam="1">  1        1 0.39131201E+00 0.65608098E+03</pdfrwt>
<pdfrwt beam="2">0</pdfrwt>
<totfact> 0.14606899E+00</totfact>
</mgrwt>
</event>
<event>
 6      1 +5.6466785e-02 6.50765300e+02 7.81860800e-03 9.80534400e-02
        1 -1    0    0  502    0 +0.0000000000e+00 +0.0000000000e+00 +1.0587401059e+02 1.0587401059e+02 0.0000000000e+00 0.0000e+00 1.0000e+00
       13 -1    0    0    0    0 -0.0000000000e+00 -0.0000000000e+00 -1.0000000000e+03 1.0000000000e+03 0.0000000000e+00 0.0000e+00 1.0000e+00
  9000005  2    1    2  501    0 -2.0017855093e-05 -2.0854261159e-05 -8.9412611412e+02 1.1058738826e+03 6.5076534649e+02 0.0000e+00 0.0000e+00
       13  1    3    3    0    0 +3.1590159806e+02 -2.6883615805e+01 -5.7144442619e+02 6.5350231880e+02 0.0000000000e+00 0.0000e+00 1.0000e+00
        3  1    3    3  501    0 -3.1590161808e+02 +2.6883594951e+01 -3.2268168794e+02 4.5237156377e+02 0.0000000000e+00 0.0000e+00 1.0000e+00
       21  1    1    2  502  501 +2.0017855087e-05 +2.0854261158e-05 +1.2470938289e-04 1.2801579946e-04 0.0000000000e+00 0.0000e+00 -1.0000e+00
<mgrwt>
<rscale>  1 0.65076535E+03</rscale>
<asrwt>0</asrwt>
<pdfrwt beam="1">  1        1 0.38499721E+00 0.65076535E+03</pdfrwt>
<pdfrwt beam="2">0</pdfrwt>
<totfact> 0.15594203E+00</totfact>
</mgrwt>
</event>
<event>
 6      1 +5.6466785e-02 5.60262700e+02 7.81860800e-03 9.99146000e-02
        1 -1    0    0  502    0 +0.0000000000e+00 +0.0000000000e+00 +7.8564748112e+01 7.8564748112e+01 0.0000000000e+00 0.0000e+00 1.0000e+00
       13 -1    0    0    0    0 -0.0000000000e+00 -0.0000000000e+00 -1.0000000000e+03 1.0000000000e+03 0.0000000000e+00 0.0000e+00 1.0000e+00
  9000005  2    1    2  501    0 +3.1298595585e-03 -6.0047560345e-02 -9.2151564245e+02 1.0784643581e+03 5.6026269630e+02 0.0000e+00 0.0000e+00
       13  1    3    3    0    0 +7.2657832418e+01 -2.3247637401e+02 -7.2727026256e+02 7.6697226800e+02 0.0000000000e+00 0.0000e+00 1.0000e+00
        3  1    3    3  501    0 -7.2654702558e+01 +2.3241632645e+02 -1.9424537989e+02 3.1149209013e+02 0.0000000000e+00 0.0000e+00 1.0000e+00
       21  1    1    2  502  501 -3.1298595585e-03 +6.0047560345e-02 +8.0390561022e-02 1.0038997871e-01 0.0000000000e+00 0.0000e+00 1.0000e+00
<mgrwt>
<rscale>  1 0.56026270E+03</rscale>
<asrwt>0</asrwt>
<pdfrwt beam="1">  1        1 0.28569060E+00 0.56026270E+03</pdfrwt>
<pdfrwt beam="2">0</pdfrwt>
<totfact> 0.42832648E+00</totfact>
</mgrwt>
</event>
<event>
 6      1 +5.6466785e-02 6.27735100e+02 7.81860800e-03 9.84947900e-02
        1 -1    0    0  502    0 +0.0000000000e+00 +0.0000000000e+00 +9.8591963037e+01 9.8591963037e+01 0.0000000000e+00 0.0000e+00 1.0000e+00
       13 -1    0    0    0    0 -0.0000000000e+00 -0.0000000000e+00 -1.0000000000e+03 1.0000000000e+03 0.0000000000e+00 0.0000e+00 1.0000e+00
  9000005  2    1    2  501    0 +7.1855172766e-02 -2.3473241376e-01 -9.0094664468e+02 1.0980693300e+03 6.2773508475e+02 0.0000e+00 0.0000e+00
       13  1    3    3    0    0 -1.7579287876e+02 +4.2710177690e+01 -8.9900536680e+02 9.1702668720e+02 0.0000000000e+00 0.0000e+00 1.0000e+00
        3  1    3    3  501    0 +1.7586473393e+02 -4.2944910104e+01 -1.9412778752e+00 1.8104264278e+02 0.0000000000e+00 0.0000e+00 1.0000e+00
       21  1    1    2  502  501 -7.1855172766e-02 +2.3473241376e-01 -4.6139228662e-01 5.2263305873e-01 0.0000000000e+00 0.0000e+00 -1.0000e+00
<mgrwt>
<rscale>  1 0.62773513E+03</rscale>
<asrwt>0</asrwt>
<pdfrwt beam="1">  1        1 0.35851699E+00 0.62773513E+03</pdfrwt>
<pdfrwt beam="2">0</pdfrwt>
<totfact> 0.20473454E+00</totfact>
</mgrwt>
</event>
<event>
 6      1 +5.6466785e-02 6.49039700e+02 7.81860800e-03 9.80858300e-02
        1 -1    0    0  502    0 +0.0000000000e+00 +0.0000000000e+00 +1.0532115154e+02 1.0532115154e+02 0.0000000000e+00 0.0000e+00 1.0000e+00
       13 -1    0    0    0    0 -0.0000000000e+00 -0.0000000000e+00 -1.0000000000e+03 1.0000000000e+03 0.0000000000e+00 0.0000e+00 1.0000e+00
  9000005  2    1    2  501    0 +6.7088092811e-03 +2.2763147603e-02 -8.9463339788e+02 1.1052698785e+03 6.4903974237e+02 0.0000e+00 0.0000e+00
       13  1    3    3    0    0 -9.6824932818e+01 -1.8484148492e+02 -2.4078023193e+01 2.1005045433e+02 0.0000000000e+00 0.0000e+00 1.0000e+00
        1  1    3    3  501    0 +9.6831641627e+01 +1.8486424807e+02 -8.7055537469e+02 8.9521942418e+02 0.0000000000e+00 0.0000e+00 1.0000e+00
       21  1    1    2  502  501 -6.7088092811e-03 -2.2763147603e-02 -4.5450574654e-02 5.1273031383e-02 0.0000000000e+00 0.0000e+00 -1.0000e+00
<mgrwt>
<rscale>  1 0.64903974E+03</rscale>
<asrwt>0</asrwt>
<pdfrwt beam="1">  1        1 0.38298681E+00 0.64903974E+03</pdfrwt>
<pdfrwt beam="2">0</pdfrwt>
<totfact> 0.15921699E+00</totfact>
</mgrwt>
</event>
<event>
 6      1 +5.6466785e-02 6.45444100e+02 7.81860800e-03 9.81536600e-02
        1 -1    0    0  502    0 +0.0000000000e+00 +0.0000000000e+00 +1.0421703678e+02 1.0421703678e+02 0.0000000000e+00 0.0000e+00 1.0000e+00
       13 -1    0    0    0    0 -0.0000000000e+00 -0.0000000000e+00 -1.0000000000e+03 1.0000000000e+03 0.0000000000e+00 0.0000e+00 1.0000e+00
  9000005  2    1    2  501    0 +1.7747656642e-02 +1.2247299301e-02 -8.9584858620e+02 1.1041479618e+03 6.4544405776e+02 0.0000e+00 0.0000e+00
       13  1    3    3    0    0 +1.2713699656e+01 -3.1455415485e+02 -5.6936181022e+02 6.5059882064e+02 0.0000000000e+00 0.0000e+00 1.0000e+00
        1  1    3    3  501    0 -1.2695952000e+01 +3.1456640215e+02 -3.2648677599e+02 4.5354914117e+02 0.0000000000e+00 0.0000e+00 1.0000e+00
       21  1    1    2  502  501 -1.7747656642e-02 -1.2247299301e-02 +6.5622986389e-02 6.9074973753e-02 0.0000000000e+00 0.0000e+00 -1.0000e+00
<mgrwt>
<rscale>  1 0.64544406E+03</rscale>
<asrwt>0</asrwt>
<pdfrwt beam="1">  1        1 0.37897184E+00 0.64544406E+03</pdfrwt>
<pdfrwt beam="2">0</pdfrwt>
<totfact> 0.16595878E+00</totfact>
</mgrwt>
</event>
<event>
 6      1 +5.6466785e-02 6.44418600e+02 7.81860800e-03 9.81730900e-02
        1 -1    0    0  502    0 +0.0000000000e+00 +0.0000000000e+00 +1.0858413851e+02 1.0858413851e+02 0.0000000000e+00 0.0000e+00 1.0000e+00
       13 -1    0    0    0    0 -0.0000000000e+00 -0.0000000000e+00 -1.0000000000e+03 1.0000000000e+03 0.0000000000e+00 0.0000e+00 1.0000e+00
  9000005  2    1    2  501    0 -1.4285792286e-01 +1.7067809256e+00 -8.9601069922e+02 1.1036804620e+03 6.4441636818e+02 0.0000e+00 0.0000e+00
       13  1    3    3    0    0 -9.1069840033e+01 -2.8937311174e+02 -6.2907726813e+02 6.9840441210e+02 0.0000000000e+00 0.0000e+00 1.0000e+00
        3  1    3    3  501    0 +9.0926982110e+01 +2.9107989267e+02 -2.6693343109e+02 4.0527604990e+02 0.0000000000e+00 0.0000e+00 1.0000e+00
       21  1    1    2  502  501 +1.4285792286e-01 -1.7067809256e+00 +4.5948377316e+00 4.9036765079e+00 0.0000000000e+00 0.0000e+00 -1.0000e+00
<mgrwt>
<rscale>  1 0.64441864E+03</rscale>
<asrwt>0</asrwt>
<pdfrwt beam="1">  1        1 0.39485225E+00 0.64441864E+03</pdfrwt>
<pdfrwt beam="2">0</pdfrwt>
<totfact> 0.14118432E+00</totfact>
</mgrwt>
</event>
<event>
 6      1 +5.6466785e-02 6.39520000e+02 7.81860800e-03 9.82664500e-02
        1 -1    0    0  502    0 +0.0000000000e+00 +0.0000000000e+00 +1.0224649178e+02 1.0224649178e+02 0.0000000000e+00 0.0000e+00 1.0000e+00
       13 -1    0    0    0    0 -0.0000000000e+00 -0.0000000000e+00 -1.0000000000e+03 1.0000000000e+03 0.0000000000e+00 0.0000e+00 1.0000e+00
  9000005  2    1    2  501    0 +1.0615906746e-05 +8.9802383059e-06 -8.9775352566e+02 1.1022464695e+03 6.3952004398e+02 0.0000e+00 0.0000e+00
       13  1    3    3    0    0 -2.6767002874e+01 -2.5602753927e+02 -7.7580655515e+02 8.1739977020e+02 0.0000000000e+00 0.0000e+00 1.0000e+00
        3  1    3    3  501    0 +2.6767013490e+01 +2.5602754825e+02 -1.2194697051e+02 2.8484669928e+02 0.0000000000e+00 0.0000e+00 1.0000e+00
       21  1    1    2  502  501 -1.0615906745e-05 -8.9802383322e-06 +1.7441675300e-05 2.2305922841e-05 0.0000000000e+00 0.0000e+00 -1.0000e+00
<mgrwt>
<rscale>  1 0.63952004E+03</rscale>
<asrwt>0</asrwt>
<pdfrwt beam="1">  1        1 0.37180621E+00 0.63952004E+03</pdfrwt>
<pdfrwt beam="2">0</pdfrwt>
<totfact> 0.17865647E+00</totfact>
</mgrwt>
</event>
<event>
 6      1 +5.6466785e-02 7.23051400e+02 7.81860800e-03 9.67860400e-02
        1 -1    0    0  502    0 +0.0000000000e+00 +0.0000000000e+00 +1.3070484986e+02 1.3070484986e+02 0.0000000000e+00 0.0000e+00 1.0000e+00
       13 -1    0    0    0    0 -0.0000000000e+00 -0.0000000000e+00 -1.0000000000e+03 1.0000000000e+03 0.0000000000e+00 0.0000e+00 1.0000e+00
  9000005  2    1    2  501    0 +5.6590078038e-03 +3.9030998645e-03 -8.6929548314e+02 1.1306979673e+03 7.2305135103e+02 0.0000e+00 0.0000e+00
       13  1    3    3    0    0 +1.3734203929e+02 -3.2057728858e+02 -2.8573615492e+02 4.5086337613e+02 0.0000000000e+00 0.0000e+00 1.0000e+00
        1  1    3    3  501    0 -1.3733638028e+02 +3.2058119168e+02 -5.8355932823e+02 6.7983459118e+02 0.0000000000e+00 0.0000e+00 1.0000e+00
       21  1    1    2  502  501 -5.6590078038e-03 -3.9030998645e-03 +3.3300647257e-04 6.8825468532e-03 0.0000000000e+00 0.0000e+00 -1.0000e+00
<mgrwt>
<rscale>  1 0.72305135E+03</rscale>
<asrwt>0</asrwt>
<pdfrwt beam="1">  1        1 0.47529137E+00 0.72305135E+03</pdfrwt>
<pdfrwt beam="2">0</pdfrwt>
<totfact> 0.59683135E-01</totfact>
</mgrwt>
</event>
<event>
 6      1 +5.6466785e-02 6.54233700e+02 7.81860800e-03 9.79886700e-02
        1 -1    0    0  502    0 +0.0000000000e+00 +0.0000000000e+00 +1.0700544070e+02 1.0700544070e+02 0.0000000000e+00 0.0000e+00 1.0000e+00
       13 -1    0    0    0    0 -0.0000000000e+00 -0.0000000000e+00 -1.0000000000e+03 1.0000000000e+03 0.0000000000e+00 0.0000e+00 1.0000e+00
  9000005  2    1    2  501    0 +6.5843251491e-06 -2.0767254085e-06 -8.9299456016e+02 1.1070054337e+03 6.5423370889e+02 0.0000e+00 0.0000e+00
       13  1    3    3    0    0 -2.8258893100e+02 +1.2017312284e+02 -2.5575614699e+02 3.9963644741e+02 0.0000000000e+00 0.0000e+00 1.0000e+00
        3  1    3    3  501    0 +2.8258893758e+02 -1.2017312491e+02 -6.3723841318e+02 7.0736898633e+02 0.0000000000e+00 0.0000e+00 1.0000e+00
       21  1    1    2  502  501 -6.5843251364e-06 +2.0767254066e-06 +8.6217576943e-07 6.9576916412e-06 0.0000000000e+00 0.0000e+00 1.0000e+00
<mgrwt>
<rscale>  1 0.65423371E+03</rscale>
<asrwt>0</asrwt>
<pdfrwt beam="1">  1        1 0.38911151E+00 0.65423371E+03</pdfrwt>
<pdfrwt beam="2">0</pdfrwt>
<totfact> 0.14943994E+00</totfact>
</mgrwt>
</event>
<event>
 6      1 +5.6466785e-02 5.82870500e+02 7.81860800e-03 9.94159600e-02
        1 -1    0    0  502    0 +0.0000000000e+00 +0.0000000000e+00 +8.5929407908e+01 8.5929407908e+01 0.0000000000e+00 0.0000e+00 1.0000e+00
       13 -1    0    0    0    0 -0.0000000000e+00 -0.0000000000e+00 -1.0000000000e+03 1.0000000000e+03 0.0000000000e+00 0.0000e+00 1.0000e+00
  9000005  2    1    2  501    0 -1.1252327172e-01 +9.3694523419e-02 -9.1505964006e+02 1.0849295799e+03 5.8287050624e+02 0.0000e+00 0.0000e+00
       13  1    3    3    0    0 -2.7756922915e+02 -8.0318555082e+01 -3.8641135566e+02 4.8250335029e+02 0.0000000000e+00 0.0000e+00 1.0000e+00
        1  1    3    3  501    0 +2.7745670588e+02 +8.0412249605e+01 -5.2864828441e+02 6.0242622961e+02 0.0000000000e+00 0.0000e+00 1.0000e+00
       21  1    1    2  502  501 +1.1252327172e-01 -9.3694523419e-02 +9.8904797017e-01 9.9982800406e-01 0.0000000000e+00 0.0000e+00 1.0000e+00
<mgrwt>
<rscale>  1 0.58287052E+03</rscale>
<asrwt>0</asrwt>
<pdfrwt beam="1">  1        1 0.31247123E+00 0.58287052E+03</pdfrwt>
<pdfrwt beam="2">0</pdfrwt>
<totfact> 0.32696850E+00</totfact>
</mgrwt>
</event>
<event>
 6      1 +5.6466785e-02 6.53479500e+02 7.81860800e-03 9.80027200e-02
        3 -1    0    0  502    0 +0.0000000000e+00 +0.0000000000e+00 +1.2763608479e+02 1.2763608479e+02 0.0000000000e+00 0.0000e+00 1.0000e+00
       13 -1    0    0    0    0 -0.0000000000e+00 -0.0000000000e+00 -1.0000000000e+03 1.0000000000e+03 0.0000000000e+00 0.0000e+00 1.0000e+00
  9000005  2    1    2  501    0 -4.3262687965e+01 +4.0620553782e+01 -8.1960533264e+02 1.0482310623e+03 6.5077935519e+02 0.0000e+00 0.0000e+00
       13  1    3    3    0    0 -3.3504808778e+02 -4.6545953597e+01 -3.3634209575e+02 4.7702175243e+02 0.0000000000e+00 0.0000e+00 1.0000e+00
        1  1    3    3  501    0 +2.9178539982e+02 +8.7166507379e+01 -4.8326323689e+02 5.7120930987e+02 0.0000000000e+00 0.0000e+00 1.0000e+00
       21  1    1    2  502  501 +4.3262687965e+01 -4.0620553782e+01 -5.2758582575e+01 7.9405022479e+01 0.0000000000e+00 0.0000e+00 1.0000e+00
<mgrwt>
<rscale>  1 0.65347950E+03</rscale>
<asrwt>0</asrwt>
<pdfrwt beam="1">  1        3 0.46413220E+00 0.65347950E+03</pdfrwt>
<pdfrwt beam="2">0</pdfrwt>
<totfact> 0.27730084E-02</totfact>
</mgrwt>
</event>
<event>
 6      1 +5.6466785e-02 6.54410800e+02 7.81860800e-03 9.79853800e-02
        1 -1    0    0  502    0 +0.0000000000e+00 +0.0000000000e+00 +1.0766627252e+02 1.0766627252e+02 0.0000000000e+00 0.0000e+00 1.0000e+00
       13 -1    0    0    0    0 -0.0000000000e+00 -0.0000000000e+00 -1.0000000000e+03 1.0000000000e+03 0.0000000000e+00 0.0000e+00 1.0000e+00
  9000005  2    1    2  501    0 +1.5215366008e+00 -4.9919694502e-01 -8.9136020870e+02 1.1057922368e+03 6.5440880567e+02 0.0000e+00 0.0000e+00
       13  1    3    3    0    0 -2.7235384674e+02 +2.0216457223e+00 -1.4034597447e+02 3.0639467592e+02 0.0000000000e+00 0.0000e+00 1.0000e+00
        1  1    3    3  501    0 +2.7387538334e+02 -2.5208426673e+00 -7.5101423423e+02 7.9939756083e+02 0.0000000000e+00 0.0000e+00 1.0000e+00
       21  1    1    2  502  501 -1.5215366008e+00 +4.9919694502e-01 -9.7351878655e-01 1.8740357641e+00 0.0000000000e+00 0.0000e+00 -1.0000e+00
<mgrwt>
<rscale>  1 0.65441076E+03</rscale>
<asrwt>0</asrwt>
<pdfrwt beam="1">  1        1 0.39151454E+00 0.65441076E+03</pdfrwt>
<pdfrwt beam="2">0</pdfrwt>
<totfact> 0.14581224E+00</totfact>
</mgrwt>
</event>
<event>
 6      1 +5.6466785e-02 6.43662600e+02 7.81860800e-03 9.81874400e-02
        1 -1    0    0  502    0 +0.0000000000e+00 +0.0000000000e+00 +1.0358236082e+02 1.0358236082e+02 0.0000000000e+00 0.0000e+00 1.0000e+00
       13 -1    0    0    0    0 -0.0000000000e+00 -0.0000000000e+00 -1.0000000000e+03 1.0000000000e+03 0.0000000000e+00 0.0000e+00 1.0000e+00
  9000005  2    1    2  501    0 +1.6134496421e-04 +8.3841273107e-04 -8.9642457476e+02 1.1035753729e+03 6.4366263321e+02 0.0000e+00 0.0000e+00
       13  1    3    3    0    0 -1.1575330946e+02 -1.4442192260e+02 +3.1957752278e+00 1.8511275850e+02 0.0000000000e+00 0.0000e+00 1.0000e+00
        1  1    3    3  501    0 +1.1575347081e+02 +1.4442276101e+02 -8.9962034999e+02 9.1846261438e+02 0.0000000000e+00 0.0000e+00 1.0000e+00
       21  1    1    2  502  501 -1.6134496421e-04 -8.3841273107e-04 +6.9355791121e-03 6.9879342960e-03 0.0000000000e+00 0.0000e+00 1.0000e+00
<mgrwt>
<rscale>  1 0.64366263E+03</rscale>
<asrwt>0</asrwt>
<pdfrwt beam="1">  1        1 0.37666392E+00 0.64366263E+03</pdfrwt>
<pdfrwt beam="2">0</pdfrwt>
<totfact> 0.16994740E+00</totfact>
</mgrwt>
</event>
<event>
 6      1 +5.6466785e-02 6.52596400e+02 7.81860800e-03 9.80191900e-02
        1 -1    0    0  502    0 +0.0000000000e+00 +0.0000000000e+00 +1.0647201826e+02 1.0647201826e+02 0.0000000000e+00 0.0000e+00 1.0000e+00
       13 -1    0    0    0    0 -0.0000000000e+00 -0.0000000000e+00 -1.0000000000e+03 1.0000000000e+03 0.0000000000e+00 0.0000e+00 1.0000e+00
  9000005  2    1    2  501    0 +4.2733126568e-03 -1.1640816170e-03 -8.9352400672e+02 1.1064660670e+03 6.5259635832e+02 0.0000e+00 0.0000e+00
       13  1    3    3    0    0 -1.7278916590e+02 +2.5961499954e+02 -6.0950338475e+02 6.8465350350e+02 0.0000000000e+00 0.0000e+00 1.0000e+00
        1  1    3    3  501    0 +1.7279343921e+02 -2.5961616362e+02 -2.8402062197e+02 4.2181256353e+02 0.0000000000e+00 0.0000e+00 1.0000e+00
       21  1    1    2  502  501 -4.2733126568e-03 +1.1640816170e-03 -3.9750209888e-03 5.9512249946e-03 0.0000000000e+00 0.0000e+00 1.0000e+00
<mgrwt>
<rscale>  1 0.65259636E+03</rscale>
<asrwt>0</asrwt>
<pdfrwt beam="1">  1        1 0.38717179E+00 0.65259636E+03</pdfrwt>
<pdfrwt beam="2">0</pdfrwt>
<totfact> 0.15247273E+00</totfact>
</mgrwt>
</event>
<event>
 6      1 +5.6466785e-02 6.42337600e+02 7.81860800e-03 9.82126400e-02
        1 -1    0    0  502    0 +0.0000000000e+00 +0.0000000000e+00 +1.0315015440e+02 1.0315015440e+02 0.0000000000e+00 0.0000e+00 1.0000e+00
       13 -1    0    0    0    0 -0.0000000000e+00 -0.0000000000e+00 -1.0000000000e+03 1.0000000000e+03 0.0000000000e+00 0.0000e+00 1.0000e+00
  9000005  2    1    2  501    0 +1.3838356048e-04 +2.9070734323e-04 -8.9685055183e+02 1.1031493782e+03 6.4233763582e+02 0.0000e+00 0.0000e+00
       13  1    3    3    0    0 +2.2302225454e+02 -2.2684735562e+02 -5.2427755362e+02 6.1324187888e+02 0.0000000000e+00 0.0000e+00 1.0000e+00
        3  1    3    3  501    0 -2.2302211616e+02 +2.2684764633e+02 -3.7257299821e+02 4.8990749936e+02 0.0000000000e+00 0.0000e+00 1.0000e+00
       21  1    1    2  502  501 -1.3838356046e-04 -2.9070734322e-04 +7.0622715615e-04 7.7615563213e-04 0.0000000000e+00 0.0000e+00 -1.0000e+00
<mgrwt>
<rscale>  1 0.64233764E+03</rscale>
<asrwt>0</asrwt>
<pdfrwt beam="1">  1        1 0.37509226E+00 0.64233764E+03</pdfrwt>
<pdfrwt beam="2">0</pdfrwt>
<totfact> 0.17271929E+00</totfact>
</mgrwt>
</event>
<event>
 6      1 +5.6466785e-02 6.05835100e+02 7.81860800e-03 9.89337300e-02
        3 -1    0    0  502    0 +0.0000000000e+00 +0.0000000000e+00 +9.2025056081e+01 9.2025056081e+01 0.0000000000e+00 0.0000e+00 1.0000e+00
       13 -1    0    0    0    0 -0.0000000000e+00 -0.0000000000e+00 -1.0000000000e+03 1.0000000000e+03 0.0000000000e+00 0.0000e+00 1.0000e+00
  9000005  2    1    2  501    0 -1.6907055255e-02 +8.8609630756e-03 -9.0824057198e+02 1.0917587430e+03 6.0583513935e+02 0.0000e+00 0.0000e+00
       13  1    3    3    0    0 +3.0097939349e+02 -2.9116440892e+01 -4.8620949003e+02 5.7256967317e+02 0.0000000000e+00 0.0000e+00 1.0000e+00
        3  1    3    3  501    0 -3.0099630055e+02 +2.9125301855e+01 -4.2203108194e+02 5.1918906988e+02 0.0000000000e+00 0.0000e+00 1.0000e+00
       21  1    1    2  502  501 +1.6907055255e-02 -8.8609630756e-03 +2.6562805908e-01 2.6631303189e-01 0.0000000000e+00 0.0000e+00 -1.0000e+00
<mgrwt>
<rscale>  1 0.60583514E+03</rscale>
<asrwt>0</asrwt>
<pdfrwt beam="1">  1        3 0.33463727E+00 0.60583514E+03</pdfrwt>
<pdfrwt beam="2">0</pdfrwt>
<totfact> 0.13244026E-01</totfact>
</mgrwt>
</event>
<event>
 6      1 +5.6466785e-02 6.47888500e+02 7.81860800e-03 9.81074900e-02
        1 -1    0    0  502    0 +0.0000000000e+00 +0.0000000000e+00 +1.0498677985e+02 1.0498677985e+02 0.0000000000e+00 0.0000e+00 1.0000e+00
       13 -1    0    0    0    0 -0.0000000000e+00 -0.0000000000e+00 -1.0000000000e+03 1.0000000000e+03 0.0000000000e+00 0.0000e+00 1.0000e+00
  9000005  2    1    2  501    0 +2.6706939599e-03 -3.7950050368e-03 -8.9505999150e+02 1.1049397789e+03 6.4788851393e+02 0.0000e+00 0.0000e+00
       13  1    3    3    0    0 +5.7647315299e+01 -9.0465459068e+01 -9.6883242135e+02 9.7475303174e+02 0.0000000000e+00 0.0000e+00 1.0000e+00
        3  1    3    3  501    0 -5.7644644605e+01 +9.0461664063e+01 +7.3772429845e+01 1.3018674711e+02 0.0000000000e+00 0.0000e+00 1.0000e+00
       21  1    1    2  502  501 -2.6706939599e-03 +3.7950050369e-03 +4.6771347924e-02 4.7000996331e-02 0.0000000000e+00 0.0000e+00 1.0000e+00
<mgrwt>
<rscale>  1 0.64788851E+03</rscale>
<asrwt>0</asrwt>
<pdfrwt beam="1">  1        1 0.38177091E+00 0.64788851E+03</pdfrwt>
<pdfrwt beam="2">0</pdfrwt>
<totfact> 0.16123252E+00</totfact>
</mgrwt>
</event>
<event>
 6      1 +5.6466785e-02 6.49991500e+02 7.81860800e-03 9.80679500e-02
        1 -1    0    0  502    0 +0.0000000000e+00 +0.0000000000e+00 +1.0562232508e+02 1.0562232508e+02 0.0000000000e+00 0.0000e+00 1.0000e+00
       13 -1    0    0    0    0 -0.0000000000e+00 -0.0000000000e+00 -1.0000000000e+03 1.0000000000e+03 0.0000000000e+00 0.0000e+00 1.0000e+00
  9000005  2    1    2  501    0 +1.7320971722e-05 -6.0595930051e-06 -8.9437776218e+02 1.1056222359e+03 6.4999149768e+02 0.0000e+00 0.0000e+00
       13  1    3    3    0    0 -2.6548332565e+02 -1.6917210371e+02 -3.0982346664e+02 4.4169126927e+02 0.0000000000e+00 0.0000e+00 1.0000e+00
        3  1    3    3  501    0 +2.6548334297e+02 +1.6917209765e+02 -5.8455429554e+02 6.6393096664e+02 0.0000000000e+00 0.0000e+00 1.0000e+00
       21  1    1    2  502  501 -1.7320971733e-05 +6.0595929932e-06 +8.7259262275e-05 8.9167895465e-05 0.0000000000e+00 0.0000e+00 1.0000e+00
<mgrwt>
<rscale>  1 0.64999150E+03</rscale>
<asrwt>0</asrwt>
<pdfrwt beam="1">  1        1 0.38408199E+00 0.64999150E+03</pdfrwt>
<pdfrwt beam="2">0</pdfrwt>
<totfact> 0.15742458E+00</totfact>
</mgrwt>
</event>
<event>
 6      1 +5.6466785e-02 6.56089900e+02 7.81860800e-03 9.79541900e-02
        1 -1    0    0  502    0 +0.0000000000e+00 +0.0000000000e+00 +1.0761348594e+02 1.0761348594e+02 0.0000000000e+00 0.0000e+00 1.0000e+00
       13 -1    0    0    0    0 -0.0000000000e+00 -0.0000000000e+00 -1.0000000000e+03 1.0000000000e+03 0.0000000000e+00 0.0000e+00 1.0000e+00
  9000005  2    1    2  501    0 -1.4077694459e-06 +1.1872340338e-06 -8.9238651581e+02 1.1076134834e+03 6.5608988333e+02 0.0000e+00 0.0000e+00
       13  1    3    3    0    0 +1.9897030116e+02 -1.9651575649e+02 -1.5669774506e+02 3.2056482433e+02 0.0000000000e+00 0.0000e+00 1.0000e+00
        3  1    3    3  501    0 -1.9897030257e+02 +1.9651575768e+02 -7.3568877076e+02 7.8704865906e+02 0.0000000000e+00 0.0000e+00 1.0000e+00
       21  1    1    2  502  501 +1.4077694603e-06 -1.1872340308e-06 +1.7474538138e-06 2.5386875209e-06 0.0000000000e+00 0.0000e+00 -1.0000e+00
<mgrwt>
<rscale>  1 0.65608988E+03</rscale>
<asrwt>0</asrwt>
<pdfrwt beam="1">  1        1 0.39132259E+00 0.65608988E+03</pdfrwt>
<pdfrwt beam="2">0</pdfrwt>
<totfact> 0.14605296E+00</totfact>
</mgrwt>
</event>
<event>
 6      1 +5.6466785e-02 6.26700200e+02 7.81860800e-03 9.85150900e-02
        1 -1    0    0  502    0 +0.0000000000e+00 +0.0000000000e+00 +9.8866791719e+01 9.8866791719e+01 0.0000000000e+00 0.0000e+00 1.0000e+00
       13 -1    0    0    0    0 -0.0000000000e+00 -0.0000000000e+00 -1.0000000000e+03 1.0000000000e+03 0.0000000000e+00 0.0000e+00 1.0000e+00
  9000005  2    1    2  501    0 -8.1355421748e-02 +1.0171069699e-01 -9.0180484533e+02 1.0981826425e+03 6.2670018379e+02 0.0000e+00 0.0000e+00
       13  1    3    3    0    0 +1.8884826201e+02 +1.0201830958e+02 -8.5091227539e+02 8.7756657979e+02 0.0000000000e+00 0.0000e+00 1.0000e+00
        3  1    3    3  501    0 -1.8892961743e+02 -1.0191659889e+02 -5.0892569943e+01 2.2061606276e+02 0.0000000000e+00 0.0000e+00 1.0000e+00
       21  1    1    2  502  501 +8.1355421748e-02 -1.0171069699e-01 +6.7163704808e-01 6.8414917590e-01 0.0000000000e+00 0.0000e+00 1.0000e+00
<mgrwt>
<rscale>  1 0.62670020E+03</rscale>
<asrwt>0</asrwt>
<pdfrwt beam="1">  1        1 0.35951636E+00 0.62670020E+03</pdfrwt>
<pdfrwt beam="2">0</pdfrwt>
<totfact> 0.20272320E+00</totfact>
</mgrwt>
</event>
<event>
 6      1 +5.6466785e-02 6.45923800e+02 7.81860800e-03 9.81445800e-02
        1 -1    0    0  502    0 +0.0000000000e+00 +0.0000000000e+00 +1.0711567724e+02 1.0711567724e+02 0.0000000000e+00 0.0000e+00 1.0000e+00
       13 -1    0    0    0    0 -0.0000000000e+00 -0.0000000000e+00 -1.0000000000e+03 1.0000000000e+03 0.0000000000e+00 0.0000e+00 1.0000e+00
  9000005  2    1    2  501    0 +2.5273225798e-01 +1.5141700023e-01 -8.9568706848e+02 1.1042974891e+03 6.4592378267e+02 0.0000e+00 0.0000e+00
       13  1    3    3    0    0 +2.9930482391e+02 -6.9510912804e+01 -2.7740990852e+02 4.1397029116e+02 0.0000000000e+00 0.0000e+00 1.0000e+00
        1  1    3    3  501    0 -2.9905209165e+02 +6.9662329804e+01 -6.1827715996e+02 6.9032719796e+02 0.0000000000e+00 0.0000e+00 1.0000e+00
       21  1    1    2  502  501 -2.5273225798e-01 -1.5141700023e-01 +2.8027457219e+00 2.8181881207e+00 0.0000000000e+00 0.0000e+00 -1.0000e+00
<mgrwt>
<rscale>  1 0.64592385E+03</rscale>
<asrwt>0</asrwt>
<pdfrwt beam="1">  1        1 0.38951237E+00 0.64592385E+03</pdfrwt>
<pdfrwt beam="2">0</pdfrwt>
<totfact> 0.14906041E+00</totfact>
</mgrwt>
</event>
<event>
 6      1 +5.6466785e-02 6.52040300e+02 7.81860800e-03 9.80295800e-02
        1 -1    0    0  502    0 +0.0000000000e+00 +0.0000000000e+00 +1.0708617531e+02 1.0708617531e+02 0.0000000000e+00 0.0000e+00 1.0000e+00
       13 -1    0    0    0    0 -0.0000000000e+00 -0.0000000000e+00 -1.0000000000e+03 1.0000000000e+03 0.0000000000e+00 0.0000e+00 1.0000e+00
  9000005  2    1    2  501    0 -1.0001598937e-01 +2.3885530371e-01 -8.9368754161e+02 1.1062702752e+03 6.5204020794e+02 0.0000e+00 0.0000e+00
       13  1    3    3    0    0 +2.8829182764e+01 +1.9056572495e+02 -6.6733320343e-01 1.9273521379e+02 0.0000000000e+00 0.0000e+00 1.0000e+00
        3  1    3    3  501    0 -2.8929198754e+01 -1.9032686964e+02 -8.9302020841e+02 9.1353506144e+02 0.0000000000e+00 0.0000e+00 1.0000e+00
       21  1    1    2  502  501 +1.0001598937e-01 -2.3885530371e-01 +7.7371692093e-01 8.1590007229e-01 0.0000000000e+00 0.0000e+00 -1.0000e+00
<mgrwt>
<rscale>  1 0.65204026E+03</rscale>
<asrwt>0</asrwt>
<pdfrwt beam="1">  1        1 0.38940509E+00 0.65204026E+03</pdfrwt>
<pdfrwt beam="2">0</pdfrwt>
<totfact> 0.14905345E+00</totfact>
</mgrwt>
</event>
<event>
 6      1 +5.6466785e-02 7.85332900e+02 7.81860800e-03 9.58149300e-02
        1 -1    0    0  502    0 +0.0000000000e+00 +0.0000000000e+00 +1.5421033577e+02 1.5421033577e+02 0.0000000000e+00 0.0000e+00 1.0000e+00
       13 -1    0    0    0    0 -0.0000000000e+00 -0.0000000000e+00 -1.0000000000e+03 1.0000000000e+03 0.0000000000e+00 0.0000e+00 1.0000e+00
  9000005  2    1    2  501    0 +2.0563955336e-03 -2.7585060723e-03 -8.4581292886e+02 1.1541868181e+03 7.8533285963e+02 0.0000e+00 0.0000e+00
       13  1    3    3    0    0 -1.4663016475e+02 +3.5366635937e+02 -2.9473603195e+02 4.8316625244e+02 0.0000000000e+00 0.0000e+00 1.0000e+00
        1  1    3    3  501    0 +1.4663222114e+02 -3.5366911788e+02 -5.5107689691e+02 6.7102056565e+02 0.0000000000e+00 0.0000e+00 1.0000e+00
       21  1    1    2  502  501 -2.0563955336e-03 +2.7585060722e-03 +2.3264635892e-02 2.3517682741e-02 0.0000000000e+00 0.0000e+00 -1.0000e+00
<mgrwt>
<rscale>  1 0.78533286E+03</rscale>
<asrwt>0</asrwt>
<pdfrwt beam="1">  1        1 0.56076604E+00 0.78533286E+03</pdfrwt>
<pdfrwt beam="2">0</pdfrwt>
<totfact> 0.22370153E-01</totfact>
</mgrwt>
</event>
<event>
 6      1 +5.6466785e-02 6.57226900e+02 7.81860800e-03 9.79331200e-02
        1 -1    0    0  502    0 +0.0000000000e+00 +0.0000000000e+00 +1.0800843925e+02 1.0800843925e+02 0.0000000000e+00 0.0000e+00 1.0000e+00
       13 -1    0    0    0    0 -0.0000000000e+00 -0.0000000000e+00 -1.0000000000e+03 1.0000000000e+03 0.0000000000e+00 0.0000e+00 1.0000e+00
  9000005  2    1    2  501    0 +1.6911745194e-02 -1.1666106014e-02 -8.9200767632e+02 1.1079823276e+03 6.5722685831e+02 0.0000e+00 0.0000e+00
       13  1    3    3    0    0 -2.6825739936e+02 +5.6456337911e+01 -1.4052365584e+02 3.0805234661e+02 0.0000000000e+00 0.0000e+00 1.0000e+00
        3  1    3    3  501    0 +2.6827431111e+02 -5.6468004017e+01 -7.5148402049e+02 7.9992998101e+02 0.0000000000e+00 0.0000e+00 1.0000e+00
       21  1    1    2  502  501 -1.6911745194e-02 +1.1666106014e-02 +1.6115569796e-02 2.6111620878e-02 0.0000000000e+00 0.0000e+00 -1.0000e+00
<mgrwt>
<rscale>  1 0.65722686E+03</rscale>
<asrwt>0</asrwt>
<pdfrwt beam="1">  1        1 0.39275879E+00 0.65722686E+03</pdfrwt>
<pdfrwt beam="2">0</pdfrwt>
<totfact> 0.14389392E+00</totfact>
</mgrwt>
</event>
<event>
 6      1 +5.6466785e-02 6.49796400e+02 7.81860800e-03 9.80716100e-02
        1 -1    0    0  502    0 +0.0000000000e+00 +0.0000000000e+00 +1.1108431256e+02 1.1108431256e+02 0.0000000000e+00 0.0000e+00 1.0000e+00
       13 -1    0    0    0    0 -0.0000000000e+00 -0.0000000000e+00 -1.0000000000e+03 1.0000000000e+03 0.0000000000e+00 0.0000e+00 1.0000e+00
  9000005  2    1    2  501    0 -1.0523794928e+00 +1.8274736238e+00 -8.9421783942e+02 1.1053781774e+03 6.4979298521e+02 0.0000e+00 0.0000e+00
       13  1    3    3    0    0 -1.7919389886e+02 +4.8569873269e+01 +6.7469760997e+00 1.8578215109e+02 0.0000000000e+00 0.0000e+00 1.0000e+00
        1  1    3    3  501    0 +1.7814151937e+02 -4.6742399645e+01 -9.0096481552e+02 9.1959602634e+02 0.0000000000e+00 0.0000e+00 1.0000e+00
       21  1    1    2  502  501 +1.0523794928e+00 -1.8274736238e+00 +5.3021519791e+00 5.7061351239e+00 0.0000000000e+00 0.0000e+00 1.0000e+00
<mgrwt>
<rscale>  1 0.64979641E+03</rscale>
<asrwt>0</asrwt>
<pdfrwt beam="1">  1        1 0.40394381E+00 0.64979641E+03</pdfrwt>
<pdfrwt beam="2">0</pdfrwt>
<totfact> 0.12847960E+00</totfact>
</mgrwt>
</event>
<event>
 6      1 +5.6466785e-02 6.42270500e+02 7.81860800e-03 9.82139200e-02
        1 -1    0    0  502    0 +0.0000000000e+00 +0.0000000000e+00 +1.0366047892e+02 1.0366047892e+02 0.0000000000e+00 0.0000e+00 1.0000e+00
       13 -1    0    0    0    0 -0.0000000000e+00 -0.0000000000e+00 -1.0000000000e+03 1.0000000000e+03 0.0000000000e+00 0.0000e+00 1.0000e+00
  9000005  2    1    2  501    0 -2.1355260752e-03 +9.4219535649e-03 -8.9687209003e+02 1.1031278223e+03 6.4227053993e+02 0.0000e+00 0.0000e+00
       13  1    3    3    0    0 -6.8924960547e+01 -1.2243391001e+02 -9.4440313812e+02 9.5479736060e+02 0.0000000000e+00 0.0000e+00 1.0000e+00
        1  1    3    3  501    0 +6.8922825021e+01 +1.2244333196e+02 +4.7531048086e+01 1.4833046175e+02 0.0000000000e+00 0.0000e+00 1.0000e+00
       21  1    1    2  502  501 +2.1355260752e-03 -9.4219535649e-03 +5.3256895142e-01 5.3265657013e-01 0.0000000000e+00 0.0000e+00 1.0000e+00
<mgrwt>
<rscale>  1 0.64227054E+03</rscale>
<asrwt>0</asrwt>
<pdfrwt beam="1">  1        1 0.37694799E+00 0.64227054E+03</pdfrwt>
<pdfrwt beam="2">0</pdfrwt>
<totfact> 0.16950169E+00</totfact>
</mgrwt>
</event>
<event>
 6      1 +5.6466785e-02 5.79480600e+02 7.81860800e-03 9.94891600e-02
        1 -1    0    0  502    0 +0.0000000000e+00 +0.0000000000e+00 +8.3949547767e+01 8.3949547767e+01 0.0000000000e+00 0.0000e+00 1.0000e+00
       13 -1    0    0    0    0 -0.0000000000e+00 -0.0000000000e+00 -1.0000000000e+03 1.0000000000e+03 0.0000000000e+00 0.0000e+00 1.0000e+00
  9000005  2    1    2  501    0 +2.0243343130e-05 -2.0277527142e-06 -9.1605054290e+02 1.0839494548e+03 5.7948064982e+02 0.0000e+00 0.0000e+00
       13  1    3    3    0    0 -4.8285269619e+01 -2.5451117705e+02 -7.0077991868e+02 7.4712776748e+02 0.0000000000e+00 0.0000e+00 1.0000e+00
        1  1    3    3  501    0 +4.8285289863e+01 +2.5451117503e+02 -2.1527062422e+02 3.3682168737e+02 0.0000000000e+00 0.0000e+00 1.0000e+00
       21  1    1    2  502  501 -2.0243343127e-05 +2.0277527140e-06 +9.0667125632e-05 9.2921646522e-05 0.0000000000e+00 0.0000e+00 -1.0000e+00
<mgrwt>
<rscale>  1 0.57948065E+03</rscale>
<asrwt>0</asrwt>
<pdfrwt beam="1">  1        1 0.30527173E+00 0.57948065E+03</pdfrwt>
<pdfrwt beam="2">0</pdfrwt>
<totfact> 0.35143308E+00</totfact>
</mgrwt>
</event>
<event>
 6      1 +5.6466785e-02 6.51703600e+02 7.81860800e-03 9.80358800e-02
        1 -1    0    0  502    0 +0.0000000000e+00 +0.0000000000e+00 +1.0640352263e+02 1.0640352263e+02 0.0000000000e+00 0.0000e+00 1.0000e+00
       13 -1    0    0    0    0 -0.0000000000e+00 -0.0000000000e+00 -1.0000000000e+03 1.0000000000e+03 0.0000000000e+00 0.0000e+00 1.0000e+00
  9000005  2    1    2  501    0 +1.3876390754e-02 -1.6754642305e-03 -8.9382037568e+02 1.1061791885e+03 6.5170356209e+02 0.0000e+00 0.0000e+00
       13  1    3    3    0    0 -9.8141641135e+01 +1.8885939656e+02 -2.8107535734e+01 2.1468508788e+02 0.0000000000e+00 0.0000e+00 1.0000e+00
        1  1    3    3  501    0 +9.8155517526e+01 -1.8886107202e+02 -8.6571283994e+02 8.9149410059e+02 0.0000000000e+00 0.0000e+00 1.0000e+00
       21  1    1    2  502  501 -1.3876390754e-02 +1.6754642305e-03 +2.2389831121e-01 2.2433415960e-01 0.0000000000e+00 0.0000e+00 1.0000e+00
<mgrwt>
<rscale>  1 0.65170356E+03</rscale>
<asrwt>0</asrwt>
<pdfrwt beam="1">  1        1 0.38692272E+00 0.65170356E+03</pdfrwt>
<pdfrwt beam="2">0</pdfrwt>
<totfact> 0.15288566E+00</totfact>
</mgrwt>
</event>
<event>
 6      1 +5.6466785e-02 6.23449200e+02 7.81860800e-03 9.85791600e-02
        3 -1    0    0  502    0 +0.0000000000e+00 +0.0000000000e+00 +9.7975952933e+01 9.7975952933e+01 0.0000000000e+00 0.0000e+00 1.0000e+00
       13 -1    0    0    0    0 -0.0000000000e+00 -0.0000000000e+00 -1.0000000000e+03 1.0000000000e+03 0.0000000000e+00 0.0000e+00 1.0000e+00
  9000005  2    1    2  501    0 +8.0684242638e-02 -5.6293973601e-01 -9.0271602239e+02 1.0970802739e+03 6.2344894488e+02 0.0000e+00 0.0000e+00
       13  1    3    3    0    0 -2.2871605004e+02 +2.1146745170e+02 -4.5501331658e+02 5.5142237254e+02 0.0000000000e+00 0.0000e+00 1.0000e+00
        3  1    3    3  501    0 +2.2879673429e+02 -2.1203039144e+02 -4.4770270581e+02 5.4565790135e+02 0.0000000000e+00 0.0000e+00 1.0000e+00
       21  1    1    2  502  501 -8.0684242638e-02 +5.6293973601e-01 +6.9197532493e-01 8.9567904057e-01 0.0000000000e+00 0.0000e+00 -1.0000e+00
<mgrwt>
<rscale>  1 0.62344920E+03</rscale>
<asrwt>0</asrwt>
<pdfrwt beam="1">  1        3 0.35627694E+00 0.62344920E+03</pdfrwt>
<pdfrwt beam="2">0</pdfrwt>
<totfact> 0.10126299E-01</totfact>
</mgrwt>
</event>
<event>
 6      1 +5.6466785e-02 6.44873500e+02 7.81860800e-03 9.81644600e-02
        1 -1    0    0  502    0 +0.0000000000e+00 +0.0000000000e+00 +1.0396563095e+02 1.0396563095e+02 0.0000000000e+00 0.0000e+00 1.0000e+00
       13 -1    0    0    0    0 -0.0000000000e+00 -0.0000000000e+00 -1.0000000000e+03 1.0000000000e+03 0.0000000000e+00 0.0000e+00 1.0000e+00
  9000005  2    1    2  501    0 -8.0450416249e-06 -2.4335475928e-06 -8.9603453700e+02 1.1039654628e+03 6.4487351592e+02 0.0000e+00 0.0000e+00
       13  1    3    3    0    0 -1.5493798500e+02 -2.7564025631e+02 -5.5604591521e+02 6.3966427907e+02 0.0000000000e+00 0.0000e+00 1.0000e+00
        1  1    3    3  501    0 +1.5493797695e+02 +2.7564025387e+02 -3.3998862179e+02 4.6430118372e+02 0.0000000000e+00 0.0000e+00 1.0000e+00
       21  1    1    2  502  501 +8.0450416305e-06 +2.4335476129e-06 +1.6794673542e-04 1.6815692310e-04 0.0000000000e+00 0.0000e+00 1.0000e+00
<mgrwt>
<rscale>  1 0.64487352E+03</rscale>
<asrwt>0</asrwt>
<pdfrwt beam="1">  1        1 0.37805764E+00 0.64487352E+03</pdfrwt>
<pdfrwt beam="2">0</pdfrwt>
<totfact> 0.16752380E+00</totfact>
</mgrwt>
</event>
<event>
 6      1 +5.6466785e-02 6.42867200e+02 7.81860800e-03 9.82025600e-02
        1 -1    0    0  502    0 +0.0000000000e+00 +0.0000000000e+00 +1.0488487503e+02 1.0488487503e+02 0.0000000000e+00 0.0000e+00 1.0000e+00
       13 -1    0    0    0    0 -0.0000000000e+00 -0.0000000000e+00 -1.0000000000e+03 1.0000000000e+03 0.0000000000e+00 0.0000e+00 1.0000e+00
  9000005  2    1    2  501    0 -2.8072537917e-01 +1.8827593975e-01 -8.9666029544e+02 1.1033031651e+03 6.4286707368e+02 0.0000e+00 0.0000e+00
       13  1    3    3    0    0 +3.1187567081e+02 +7.7141321031e+01 -4.5745473584e+02 5.5900094168e+02 0.0000000000e+00 0.0000e+00 1.0000e+00
        1  1    3    3  501    0 -3.1215639619e+02 -7.6953045091e+01 -4.3920555959e+02 5.4430222341e+02 0.0000000000e+00 0.0000e+00 1.0000e+00
       21  1    1    2  502  501 +2.8072537917e-01 -1.8827593975e-01 +1.5451704640e+00 1.5817099389e+00 0.0000000000e+00 0.0000e+00 -1.0000e+00
<mgrwt>
<rscale>  1 0.64286716E+03</rscale>
<asrwt>0</asrwt>
<pdfrwt beam="1">  1        1 0.38140035E+00 0.64286716E+03</pdfrwt>
<pdfrwt beam="2">0</pdfrwt>
<totfact> 0.16199120E+00</totfact>
</mgrwt>
</event>
<event>
 6      1 +5.6466785e-02 6.54353200e+02 7.81860800e-03 9.79864500e-02
        1 -1    0    0  502    0 +0.0000000000e+00 +0.0000000000e+00 +1.0739676916e+02 1.0739676916e+02 0.0000000000e+00 0.0000e+00 1.0000e+00
       13 -1    0    0    0    0 -0.0000000000e+00 -0.0000000000e+00 -1.0000000000e+03 1.0000000000e+03 0.0000000000e+00 0.0000e+00 1.0000e+00
  9000005  2    1    2  501    0 +3.5774692791e-03 -3.5463801391e-03 -8.9295543937e+02 1.1070445246e+03 6.5435324003e+02 0.0000e+00 0.0000e+00
       13  1    3    3    0    0 +3.5599578664e+01 +1.1596917272e+02 +6.7589875127e+01 1.3886889587e+02 0.0000000000e+00 0.0000e+00 1.0000e+00
        3  1    3    3  501    0 -3.5596001194e+01 -1.1597271910e+02 -9.6054531450e+02 9.6817562874e+02 0.0000000000e+00 0.0000e+00 1.0000e+00
       21  1    1    2  502  501 -3.5774692791e-03 +3.5463801391e-03 +3.5220852760e-01 3.5224454859e-01 0.0000000000e+00 0.0000e+00 -1.0000e+00
<mgrwt>
<rscale>  1 0.65435324E+03</rscale>
<asrwt>0</asrwt>
<pdfrwt beam="1">  1        1 0.39053453E+00 0.65435324E+03</pdfrwt>
<pdfrwt beam="2">0</pdfrwt>
<totfact> 0.14728108E+00</totfact>
</mgrwt>
</event>
<event>
 6      1 +5.6466785e-02 6.53047300e+02 7.81860800e-03 9.80107800e-02
        1 -1    0    0  502    0 +0.0000000000e+00 +0.0000000000e+00 +1.0991500733e+02 1.0991500733e+02 0.0000000000e+00 0.0000e+00 1.0000e+00
       13 -1    0    0    0    0 -0.0000000000e+00 -0.0000000000e+00 -1.0000000000e+03 1.0000000000e+03 0.0000000000e+00 0.0000e+00 1.0000e+00
  9000005  2    1    2  501    0 -5.9794374555e-01 +1.7639034996e-01 -8.9334966835e+02 1.1065913410e+03 6.5304699486e+02 0.0000e+00 0.0000e+00
       13  1    3    3    0    0 -1.3790790340e+02 -2.1453605332e+02 -7.9245426697e+02 8.3248307685e+02 0.0000000000e+00 0.0000e+00 1.0000e+00
        3  1    3    3  501    0 +1.3730995966e+02 +2.1471244367e+02 -1.0089540137e+02 2.7410826420e+02 0.0000000000e+00 0.0000e+00 1.0000e+00
       21  1    1    2  502  501 +5.9794374555e-01 -1.7639034996e-01 +3.2646756794e+00 3.3236662844e+00 0.0000000000e+00 0.0000e+00 -1.0000e+00
<mgrwt>
<rscale>  1 0.65304729E+03</rscale>
<asrwt>0</asrwt>
<pdfrwt beam="1">  1        1 0.39969178E+00 0.65304729E+03</pdfrwt>
<pdfrwt beam="2">0</pdfrwt>
<totfact> 0.13413354E+00</totfact>
</mgrwt>
</event>
<event>
 6      1 +5.6466785e-02 6.52103100e+02 7.81860800e-03 9.80284100e-02
        1 -1    0    0  502    0 +0.0000000000e+00 +0.0000000000e+00 +1.0631248023e+02 1.0631248023e+02 0.0000000000e+00 0.0000e+00 1.0000e+00
       13 -1    0    0    0    0 -0.0000000000e+00 -0.0000000000e+00 -1.0000000000e+03 1.0000000000e+03 0.0000000000e+00 0.0000e+00 1.0000e+00
  9000005  2    1    2  501    0 -8.1398333108e-04 -3.8501139707e-03 -8.9368879666e+02 1.1063083430e+03 6.5210312419e+02 0.0000e+00 0.0000e+00
       13  1    3    3    0    0 +1.7956671997e+02 +1.1222478761e+02 -2.6220157561e+01 2.1336847597e+02 0.0000000000e+00 0.0000e+00 1.0000e+00
        3  1    3    3  501    0 -1.7956753395e+02 -1.1222863772e+02 -8.6746863910e+02 8.9293986707e+02 0.0000000000e+00 0.0000e+00 1.0000e+00
       21  1    1    2  502  501 +8.1398333109e-04 +3.8501139707e-03 +1.2768947805e-03 4.1371979324e-03 0.0000000000e+00 0.0000e+00 1.0000e+00
<mgrwt>
<rscale>  1 0.65210312E+03</rscale>
<asrwt>0</asrwt>
<pdfrwt beam="1">  1        1 0.38659165E+00 0.65210312E+03</pdfrwt>
<pdfrwt beam="2">0</pdfrwt>
<totfact> 0.15339117E+00</totfact>
</mgrwt>
</event>
<event>
 6      1 +5.6466785e-02 6.30395800e+02 7.81860800e-03 9.84427700e-02
        3 -1    0    0  502    0 +0.0000000000e+00 +0.0000000000e+00 +1.0191419240e+02 1.0191419240e+02 0.0000000000e+00 0.0000e+00 1.0000e+00
       13 -1    0    0    0    0 -0.0000000000e+00 -0.0000000000e+00 -1.0000000000e+03 1.0000000000e+03 0.0000000000e+00 0.0000e+00 1.0000e+00
  9000005  2    1    2  501    0 -3.4203872872e+00 +4.9704225786e+00 -8.7751913201e+02 1.0804807537e+03 6.3036689944e+02 0.0000e+00 0.0000e+00
       13  1    3    3    0    0 +5.3106673964e+01 +5.1020223990e+01 -9.6431644125e+02 9.6712438752e+02 0.0000000000e+00 0.0000e+00 1.0000e+00
        3  1    3    3  501    0 -5.6527061252e+01 -4.6049801412e+01 +8.6797309232e+01 1.1335636618e+02 0.0000000000e+00 0.0000e+00 1.0000e+00
       21  1    1    2  502  501 +3.4203872872e+00 -4.9704225786e+00 -2.0566675587e+01 2.1433438700e+01 0.0000000000e+00 0.0000e+00 1.0000e+00
<mgrwt>
<rscale>  1 0.63039577E+03</rscale>
<asrwt>0</asrwt>
<pdfrwt beam="1">  1        3 0.37059784E+00 0.63039577E+03</pdfrwt>
<pdfrwt beam="2">0</pdfrwt>
<totfact> 0.84910074E-02</totfact>
</mgrwt>
</event>
<event>
 6      1 +5.6466785e-02 7.15327300e+02 7.81860800e-03 9.69137400e-02
        1 -1    0    0  502    0 +0.0000000000e+00 +0.0000000000e+00 +1.2792386676e+02 1.2792386676e+02 0.0000000000e+00 0.0000e+00 1.0000e+00
       13 -1    0    0    0    0 -0.0000000000e+00 -0.0000000000e+00 -1.0000000000e+03 1.0000000000e+03 0.0000000000e+00 0.0000e+00 1.0000e+00
  9000005  2    1    2  501    0 -1.3827285059e-05 -4.7950148314e-06 -8.7207671808e+02 1.1279232817e+03 7.1532728683e+02 0.0000e+00 0.0000e+00
       13  1    3    3    0    0 +1.0937602515e+02 -3.2589172851e+02 -5.9177213115e+02 6.8437035938e+02 0.0000000000e+00 0.0000e+00 1.0000e+00
        1  1    3    3  501    0 -1.0937603898e+02 +3.2589172371e+02 -2.8030458692e+02 4.4355292236e+02 0.0000000000e+00 0.0000e+00 1.0000e+00
       21  1    1    2  502  501 +1.3827285054e-05 +4.7950148641e-06 +5.8483925975e-04 5.8502234635e-04 0.0000000000e+00 0.0000e+00 -1.0000e+00
<mgrwt>
<rscale>  1 0.71532729E+03</rscale>
<asrwt>0</asrwt>
<pdfrwt beam="1">  1        1 0.46517868E+00 0.71532729E+03</pdfrwt>
<pdfrwt beam="2">0</pdfrwt>
<totfact> 0.66671655E-01</totfact>
</mgrwt>
</event>
<event>
 6      1 +5.6466785e-02 6.60746600e+02 7.81860800e-03 9.78682000e-02
        1 -1    0    0  502    0 +0.0000000000e+00 +0.0000000000e+00 +1.0915752001e+02 1.0915752001e+02 0.0000000000e+00 0.0000e+00 1.0000e+00
       13 -1    0    0    0    0 -0.0000000000e+00 -0.0000000000e+00 -1.0000000000e+03 1.0000000000e+03 0.0000000000e+00 0.0000e+00 1.0000e+00
  9000005  2    1    2  501    0 -2.1878775001e-03 -1.1618550022e-04 -8.9085334539e+02 1.1091464359e+03 6.6074664835e+02 0.0000e+00 0.0000e+00
       13  1    3    3    0    0 -1.1698187779e+02 -2.5019125693e+02 -1.4110763992e+02 3.1014801437e+02 0.0000000000e+00 0.0000e+00 1.0000e+00
        1  1    3    3  501    0 +1.1697968991e+02 +2.5019114074e+02 -7.4974570547e+02 7.9899842154e+02 0.0000000000e+00 0.0000e+00 1.0000e+00
       21  1    1    2  502  501 +2.1878775001e-03 +1.1618550022e-04 +1.0865400158e-02 1.1084097961e-02 0.0000000000e+00 0.0000e+00 1.0000e+00
<mgrwt>
<rscale>  1 0.66074665E+03</rscale>
<asrwt>0</asrwt>
<pdfrwt beam="1">  1        1 0.39693727E+00 0.66074665E+03</pdfrwt>
<pdfrwt beam="2">0</pdfrwt>
<totfact> 0.13777751E+00</totfact>
</mgrwt>
</event>
<event>
 6      1 +5.6466785e-02 6.52857900e+02 7.81860800e-03 9.80143100e-02
        1 -1    0    0  502    0 +0.0000000000e+00 +0.0000000000e+00 +1.0655618639e+02 1.0655618639e+02 0.0000000000e+00 0.0000e+00 1.0000e+00
       13 -1    0    0    0    0 -0.0000000000e+00 -0.0000000000e+00 -1.0000000000e+03 1.0000000000e+03 0.0000000000e+00 0.0000e+00 1.0000e+00
  9000005  2    1    2  501    0 +6.2104359120e-05 +9.3319899634e-05 -8.9344412225e+02 1.1065558580e+03 6.5285792279e+02 0.0000e+00 0.0000e+00
       13  1    3    3    0    0 -1.4385760357e+01 -2.1852636631e+02 -8.5700678714e+02 8.8454584736e+02 0.0000000000e+00 0.0000e+00 1.0000e+00
        3  1    3    3  501    0 +1.4385822462e+01 +2.1852645963e+02 -3.6437335106e+01 2.2201001066e+02 0.0000000000e+00 0.0000e+00 1.0000e+00
       21  1    1    2  502  501 -6.2104359120e-05 -9.3319899637e-05 +3.0863659915e-04 3.2836276498e-04 0.0000000000e+00 0.0000e+00 1.0000e+00
<mgrwt>
<rscale>  1 0.65285792E+03</rscale>
<asrwt>0</asrwt>
<pdfrwt beam="1">  1        1 0.38747786E+00 0.65285792E+03</pdfrwt>
<pdfrwt beam="2">0</pdfrwt>
<totfact> 0.15199024E+00</totfact>
</mgrwt>
</event>
<event>
 6      1 +5.6466785e-02 6.48468100e+02 7.81860800e-03 9.80965800e-02
        1 -1    0    0  502    0 +0.0000000000e+00 +0.0000000000e+00 +1.0646431563e+02 1.0646431563e+02 0.0000000000e+00 0.0000e+00 1.0000e+00
       13 -1    0    0    0    0 -0.0000000000e+00 -0.0000000000e+00 -1.0000000000e+03 1.0000000000e+03 0.0000000000e+00 0.0000e+00 1.0000e+00
  9000005  2    1    2  501    0 +1.3199097825e-01 +5.9676175230e-02 -8.9486795719e+02 1.1051241911e+03 6.4846803774e+02 0.0000e+00 0.0000e+00
       13  1    3    3    0    0 +3.0192323022e+01 +7.9727892900e+01 -9.8059539364e+02 9.8429438651e+02 0.0000000000e+00 0.0000e+00 1.0000e+00
        3  1    3    3  501    0 -3.0060332043e+01 -7.9668216725e+01 +8.5727436451e+01 1.2082980460e+02 0.0000000000e+00 0.0000e+00 1.0000e+00
       21  1    1    2  502  501 -1.3199097825e-01 -5.9676175230e-02 +1.3322728254e+00 1.3401245262e+00 0.0000000000e+00 0.0000e+00 -1.0000e+00
<mgrwt>
<rscale>  1 0.64846805E+03</rscale>
<asrwt>0</asrwt>
<pdfrwt beam="1">  1        1 0.38714378E+00 0.64846805E+03</pdfrwt>
<pdfrwt beam="2">0</pdfrwt>
<totfact> 0.15263306E+00</totfact>
</mgrwt>
</event>
<event>
 6      1 +5.6466785e-02 5.72946400e+02 7.81860800e-03 9.96318000e-02
        1 -1    0    0  502    0 +0.0000000000e+00 +0.0000000000e+00 +8.2888815022e+01 8.2888815022e+01 0.0000000000e+00 0.0000e+00 1.0000e+00
       13 -1    0    0    0    0 -0.0000000000e+00 -0.0000000000e+00 -1.0000000000e+03 1.0000000000e+03 0.0000000000e+00 0.0000e+00 1.0000e+00
  9000005  2    1    2  501    0 +7.2081939864e-01 +3.8703426888e-01 -9.1770812308e+02 1.0818760410e+03 5.7294580855e+02 0.0000e+00 0.0000e+00
       13  1    3    3    0    0 +2.0892371737e+01 +2.5659740757e+02 -2.2105456351e+02 3.3932851459e+02 0.0000000000e+00 0.0000e+00 1.0000e+00
        3  1    3    3  501    0 -2.0171552338e+01 -2.5621037330e+02 -6.9665355957e+02 7.4254752641e+02 0.0000000000e+00 0.0000e+00 1.0000e+00
       21  1    1    2  502  501 -7.2081939864e-01 -3.8703426888e-01 +5.9693810120e-01 1.0127740258e+00 0.0000000000e+00 0.0000e+00 -1.0000e+00
<mgrwt>
<rscale>  1 0.57294639E+03</rscale>
<asrwt>0</asrwt>
<pdfrwt beam="1">  1        1 0.30141451E+00 0.57294639E+03</pdfrwt>
<pdfrwt beam="2">0</pdfrwt>
<totfact> 0.36558298E+00</totfact>
</mgrwt>
</event>
<event>
 6      1 +5.6466785e-02 6.97161100e+02 7.81860800e-03 9.72209900e-02
        1 -1    0    0  502    0 +0.0000000000e+00 +0.0000000000e+00 +1.2158526181e+02 1.2158526181e+02 0.0000000000e+00 0.0000e+00 1.0000e+00
       13 -1    0    0    0    0 -0.0000000000e+00 -0.0000000000e+00 -1.0000000000e+03 1.0000000000e+03 0.0000000000e+00 0.0000e+00 1.0000e+00
  9000005  2    1    2  501    0 -9.2941884727e-02 -1.0735082636e-02 -8.7845810265e+02 1.1214821409e+03 6.9716106144e+02 0.0000e+00 0.0000e+00
       13  1    3    3    0    0 +1.0657951733e+02 +3.3040012584e+02 -3.8906527568e+02 5.2143573468e+02 0.0000000000e+00 0.0000e+00 1.0000e+00
        3  1    3    3  501    0 -1.0667245921e+02 -3.3041086092e+02 -4.8939282698e+02 6.0004640626e+02 0.0000000000e+00 0.0000e+00 1.0000e+00
       21  1    1    2  502  501 +9.2941884727e-02 +1.0735082636e-02 +4.3364461563e-02 1.0312086337e-01 0.0000000000e+00 0.0000e+00 -1.0000e+00
<mgrwt>
<rscale>  1 0.69716107E+03</rscale>
<asrwt>0</asrwt>
<pdfrwt beam="1">  1        1 0.44212916E+00 0.69716107E+03</pdfrwt>
<pdfrwt beam="2">0</pdfrwt>
<totfact> 0.85532623E-01</totfact>
</mgrwt>
</event>
<event>
 6      1 +5.6466785e-02 6.52346300e+02 7.81860800e-03 9.80238600e-02
        1 -1    0    0  502    0 +0.0000000000e+00 +0.0000000000e+00 +1.0639418045e+02 1.0639418045e+02 0.0000000000e+00 0.0000e+00 1.0000e+00
       13 -1    0    0    0    0 -0.0000000000e+00 -0.0000000000e+00 -1.0000000000e+03 1.0000000000e+03 0.0000000000e+00 0.0000e+00 1.0000e+00
  9000005  2    1    2  501    0 +1.4928451939e-03 -1.2025399877e-03 -8.9361087689e+02 1.1063887720e+03 6.5234631561e+02 0.0000e+00 0.0000e+00
       13  1    3    3    0    0 +2.8658455650e+02 -1.4678201667e+02 -3.5845323002e+02 4.8183439744e+02 0.0000000000e+00 0.0000e+00 1.0000e+00
        1  1    3    3  501    0 -2.8658306366e+02 +1.4678081413e+02 -5.3515764687e+02 6.2455437456e+02 0.0000000000e+00 0.0000e+00 1.0000e+00
       21  1    1    2  502  501 -1.4928451939e-03 +1.2025399877e-03 +5.0573414345e-03 5.4084555633e-03 0.0000000000e+00 0.0000e+00 1.0000e+00
<mgrwt>
<rscale>  1 0.65234632E+03</rscale>
<asrwt>0</asrwt>
<pdfrwt beam="1">  1        1 0.38688874E+00 0.65234632E+03</pdfrwt>
<pdfrwt beam="2">0</pdfrwt>
<totfact> 0.15292044E+00</totfact>
</mgrwt>
</event>
<event>
 6      1 +5.6466785e-02 6.49971300e+02 7.81860800e-03 9.80683300e-02
        1 -1    0    0  502    0 +0.0000000000e+00 +0.0000000000e+00 +1.0561569327e+02 1.0561569327e+02 0.0000000000e+00 0.0000e+00 1.0000e+00
       13 -1    0    0    0    0 -0.0000000000e+00 -0.0000000000e+00 -1.0000000000e+03 1.0000000000e+03 0.0000000000e+00 0.0000e+00 1.0000e+00
  9000005  2    1    2  501    0 +4.4167708921e-06 -6.1823641033e-06 -8.9438430898e+02 1.1056156853e+03 6.4997134670e+02 0.0000e+00 0.0000e+00
       13  1    3    3    0    0 +8.5726339853e+01 -6.5946317296e+01 +7.4103202037e+01 1.3110761481e+02 0.0000000000e+00 0.0000e+00 1.0000e+00
        3  1    3    3  501    0 -8.5726335436e+01 +6.5946311114e+01 -9.6848751102e+02 9.7450807053e+02 0.0000000000e+00 0.0000e+00 1.0000e+00
       21  1    1    2  502  501 -4.4167708893e-06 +6.1823641008e-06 +2.2513271948e-06 7.9245167109e-06 0.0000000000e+00 0.0000e+00 1.0000e+00
<mgrwt>
<rscale>  1 0.64997135E+03</rscale>
<asrwt>0</asrwt>
<pdfrwt beam="1">  1        1 0.38405788E+00 0.64997135E+03</pdfrwt>
<pdfrwt beam="2">0</pdfrwt>
<totfact> 0.15746381E+00</totfact>
</mgrwt>
</event>
<event>
 6      1 +5.6466785e-02 6.45887800e+02 7.81860800e-03 9.81452600e-02
        1 -1    0    0  502    0 +0.0000000000e+00 +0.0000000000e+00 +1.0430312309e+02 1.0430312309e+02 0.0000000000e+00 0.0000e+00 1.0000e+00
       13 -1    0    0    0    0 -0.0000000000e+00 -0.0000000000e+00 -1.0000000000e+03 1.0000000000e+03 0.0000000000e+00 0.0000e+00 1.0000e+00
  9000005  2    1    2  501    0 -8.3465845350e-04 -7.3523476213e-03 -8.9570575480e+02 1.1042915658e+03 6.4588780998e+02 0.0000e+00 0.0000e+00
       13  1    3    3    0    0 -5.1990136337e+01 +3.0115759921e+02 -6.2628111198e+02 6.9686936011e+02 0.0000000000e+00 0.0000e+00 1.0000e+00
        1  1    3    3  501    0 +5.1989301678e+01 -3.0116495156e+02 -2.6942464282e+02 4.0742220570e+02 0.0000000000e+00 0.0000e+00 1.0000e+00
       21  1    1    2  502  501 +8.3465845350e-04 +7.3523476214e-03 +8.8778898440e-03 1.1557274694e-02 0.0000000000e+00 0.0000e+00 1.0000e+00
<mgrwt>
<rscale>  1 0.64588781E+03</rscale>
<asrwt>0</asrwt>
<pdfrwt beam="1">  1        1 0.37928488E+00 0.64588781E+03</pdfrwt>
<pdfrwt beam="2">0</pdfrwt>
<totfact> 0.16541855E+00</totfact>
</mgrwt>
</event>
<event>
 6      1 +5.6466785e-02 6.29699700e+02 7.81860800e-03 9.84563500e-02
        1 -1    0    0  502    0 +0.0000000000e+00 +0.0000000000e+00 +9.9164213054e+01 9.9164213054e+01 0.0000000000e+00 0.0000e+00 1.0000e+00
       13 -1    0    0    0    0 -0.0000000000e+00 -0.0000000000e+00 -1.0000000000e+03 1.0000000000e+03 0.0000000000e+00 0.0000e+00 1.0000e+00
  9000005  2    1    2  501    0 +1.0760247482e-02 -2.8829685452e-02 -9.0086168868e+02 1.0991239908e+03 6.2969974113e+02 0.0000e+00 0.0000e+00
       13  1    3    3    0    0 +2.5979048959e+02 +1.0346265696e+02 -7.0297953386e+02 7.5655524907e+02 0.0000000000e+00 0.0000e+00 1.0000e+00
        3  1    3    3  501    0 -2.5977972934e+02 -1.0349148665e+02 -1.9788215481e+02 3.4256874168e+02 0.0000000000e+00 0.0000e+00 1.0000e+00
       21  1    1    2  502  501 -1.0760247482e-02 +2.8829685452e-02 +2.5901731682e-02 4.0222299702e-02 0.0000000000e+00 0.0000e+00 -1.0000e+00
<mgrwt>
<rscale>  1 0.62969974E+03</rscale>
<asrwt>0</asrwt>
<pdfrwt beam="1">  1        1 0.36059790E+00 0.62969974E+03</pdfrwt>
<pdfrwt beam="2">0</pdfrwt>
<totfact> 0.20041861E+00</totfact>
</mgrwt>
</event>
<event>
 6      1 +5.6466785e-02 6.51697700e+02 7.81860800e-03 9.80359900e-02
        1 -1    0    0  502    0 +0.0000000000e+00 +0.0000000000e+00 +1.0617955781e+02 1.0617955781e+02 0.0000000000e+00 0.0000e+00 1.0000e+00
       13 -1    0    0    0    0 -0.0000000000e+00 -0.0000000000e+00 -1.0000000000e+03 1.0000000000e+03 0.0000000000e+00 0.0000e+00 1.0000e+00
  9000005  2    1    2  501    0 -2.2852615885e-04 +1.8280628566e-05 -8.9382251334e+02 1.1061774740e+03 6.5169772031e+02 0.0000e+00 0.0000e+00
       13  1    3    3    0    0 +6.5128948441e+01 +4.6945220424e+01 +8.9126684930e+01 1.1995498994e+02 0.0000000000e+00 0.0000e+00 1.0000e+00
        3  1    3    3  501    0 -6.5129176967e+01 -4.6945202143e+01 -9.8294919827e+02 9.8622248407e+02 0.0000000000e+00 0.0000e+00 1.0000e+00
       21  1    1    2  502  501 +2.2852615886e-04 -1.8280628569e-05 +2.0711527795e-03 2.0838023473e-03 0.0000000000e+00 0.0000e+00 1.0000e+00
<mgrwt>
<rscale>  1 0.65169772E+03</rscale>
<asrwt>0</asrwt>
<pdfrwt beam="1">  1        1 0.38610830E+00 0.65169772E+03</pdfrwt>
<pdfrwt beam="2">0</pdfrwt>
<totfact> 0.15416025E+00</totfact>
</mgrwt>
</event>
<event>
 6      1 +5.6466785e-02 6.37204700e+02 7.81860800e-03 9.83108900e-02
        1 -1    0    0  502    0 +0.0000000000e+00 +0.0000000000e+00 +1.0150776566e+02 1.0150776566e+02 0.0000000000e+00 0.0000e+00 1.0000e+00
       13 -1    0    0    0    0 -0.0000000000e+00 -0.0000000000e+00 -1.0000000000e+03 1.0000000000e+03 0.0000000000e+00 0.0000e+00 1.0000e+00
  9000005  2    1    2  501    0 -5.7225441026e-05 -6.9476959169e-05 -8.9849254828e+02 1.1015074391e+03 6.3720466023e+02 0.0000e+00 0.0000e+00
       13  1    3    3    0    0 -2.2083930390e+01 +2.0966336724e+02 -3.6314572181e+01 2.1392796848e+02 0.0000000000e+00 0.0000e+00 1.0000e+00
        1  1    3    3  501    0 +2.2083873164e+01 -2.0966343672e+02 -8.6217797610e+02 8.8757947059e+02 0.0000000000e+00 0.0000e+00 1.0000e+00
       21  1    1    2  502  501 +5.7225441023e-05 +6.9476959154e-05 +3.1393610773e-04 3.2658487211e-04 0.0000000000e+00 0.0000e+00 -1.0000e+00
<mgrwt>
<rscale>  1 0.63720466E+03</rscale>
<asrwt>0</asrwt>
<pdfrwt beam="1">  1        1 0.36911993E+00 0.63720466E+03</pdfrwt>
<pdfrwt beam="2">0</pdfrwt>
<totfact> 0.18365475E+00</totfact>
</mgrwt>
</event>
<event>
 6      1 +5.6466785e-02 5.84648100e+02 7.81860800e-03 9.93777800e-02
        1 -1    0    0  502    0 +0.0000000000e+00 +0.0000000000e+00 +9.2762758741e+01 9.2762758741e+01 0.0000000000e+00 0.0000e+00 1.0000e+00
       13 -1    0    0    0    0 -0.0000000000e+00 -0.0000000000e+00 -1.0000000000e+03 1.0000000000e+03 0.0000000000e+00 0.0000e+00 1.0000e+00
  9000005  2    1    2  501    0 -1.7812632952e-01 -2.0129723818e-01 -9.1454397331e+02 1.0854510843e+03 5.8464801811e+02 0.0000e+00 0.0000e+00
       13  1    3    3    0    0 +1.5893147362e+02 +1.6595995554e+02 -7.9226954700e+02 8.2491996900e+02 0.0000000000e+00 0.0000e+00 1.0000e+00
        1  1    3    3  501    0 -1.5910959995e+02 -1.6616125277e+02 -1.2227442631e+02 2.6053111532e+02 0.0000000000e+00 0.0000e+00 1.0000e+00
       21  1    1    2  502  501 +1.7812632952e-01 +2.0129723818e-01 +7.3067320538e+00 7.3116744234e+00 0.0000000000e+00 0.0000e+00 -1.0000e+00
<mgrwt>
<rscale>  1 0.58464808E+03</rscale>
<asrwt>0</asrwt>
<pdfrwt beam="1">  1        1 0.33731983E+00 0.58464808E+03</pdfrwt>
<pdfrwt beam="2">0</pdfrwt>
<totfact> 0.25520434E+00</totfact>
</mgrwt>
</event>
<event>
 6      1 +5.6466785e-02 6.46028000e+02 7.81860800e-03 9.81426100e-02
        1 -1    0    0  502    0 +0.0000000000e+00 +0.0000000000e+00 +1.0433825943e+02 1.0433825943e+02 0.0000000000e+00 0.0000e+00 1.0000e+00
       13 -1    0    0    0    0 -0.0000000000e+00 -0.0000000000e+00 -1.0000000000e+03 1.0000000000e+03 0.0000000000e+00 0.0000e+00 1.0000e+00
  9000005  2    1    2  501    0 +3.9572643946e-04 +3.6493282880e-04 -8.9566155466e+02 1.1043376899e+03 6.4602795055e+02 0.0000e+00 0.0000e+00
       13  1    3    3    0    0 +6.4939391732e+01 -2.4819957960e+02 -1.1233925889e+02 2.8007189255e+02 0.0000000000e+00 0.0000e+00 1.0000e+00
        1  1    3    3  501    0 -6.4938996005e+01 +2.4819994453e+02 -7.8332229577e+02 8.2426579737e+02 0.0000000000e+00 0.0000e+00 1.0000e+00
       21  1    1    2  502  501 -3.9572643947e-04 -3.6493282881e-04 -1.8590533736e-04 5.6950520533e-04 0.0000000000e+00 0.0000e+00 1.0000e+00
<mgrwt>
<rscale>  1 0.64602795E+03</rscale>
<asrwt>0</asrwt>
<pdfrwt beam="1">  1        1 0.37941265E+00 0.64602795E+03</pdfrwt>
<pdfrwt beam="2">0</pdfrwt>
<totfact> 0.16519978E+00</totfact>
</mgrwt>
</event>
<event>
 6      1 +5.6466785e-02 6.28299100e+02 7.81860800e-03 9.84837400e-02
        1 -1    0    0  502    0 +0.0000000000e+00 +0.0000000000e+00 +9.8690161599e+01 9.8690161599e+01 0.0000000000e+00 0.0000e+00 1.0000e+00
       13 -1    0    0    0    0 -0.0000000000e+00 -0.0000000000e+00 -1.0000000000e+03 1.0000000000e+03 0.0000000000e+00 0.0000e+00 1.0000e+00
  9000005  2    1    2  501    0 -1.1518253615e-05 +2.9526632090e-06 -9.0131005191e+02 1.0986899478e+03 6.2829912592e+02 0.0000e+00 0.0000e+00
       13  1    3    3    0    0 -8.6981096420e+01 -2.1208629504e+02 -7.5021261520e+01 2.4119389992e+02 0.0000000000e+00 0.0000e+00 1.0000e+00
        1  1    3    3  501    0 +8.6981084902e+01 +2.1208629800e+02 -8.2628879039e+02 8.5749604784e+02 0.0000000000e+00 0.0000e+00 1.0000e+00
       21  1    1    2  502  501 +1.1518253613e-05 -2.9526632181e-06 +2.1350978534e-04 2.1384063417e-04 0.0000000000e+00 0.0000e+00 1.0000e+00
<mgrwt>
<rscale>  1 0.62829913E+03</rscale>
<asrwt>0</asrwt>
<pdfrwt beam="1">  1        1 0.35887407E+00 0.62829913E+03</pdfrwt>
<pdfrwt beam="2">0</pdfrwt>
<totfact> 0.20397928E+00</totfact>
</mgrwt>
</event>
<event>
 6      1 +5.6466785e-02 6.39204800e+02 7.81860800e-03 9.82724900e-02
        1 -1    0    0  502    0 +0.0000000000e+00 +0.0000000000e+00 +1.0323145762e+02 1.0323145762e+02 0.0000000000e+00 0.0000e+00 1.0000e+00
       13 -1    0    0    0    0 -0.0000000000e+00 -0.0000000000e+00 -1.0000000000e+03 1.0000000000e+03 0.0000000000e+00 0.0000e+00 1.0000e+00
  9000005  2    1    2  501    0 +3.3068128553e-01 -3.6358503423e-01 -8.9779268038e+02 1.1020954986e+03 6.3920462266e+02 0.0000e+00 0.0000e+00
       13  1    3    3    0    0 -1.0069874297e+02 +3.0005851032e+02 -3.7486857800e+02 4.9061369449e+02 0.0000000000e+00 0.0000e+00 1.0000e+00
        1  1    3    3  501    0 +1.0102942426e+02 -3.0042209536e+02 -5.2292410238e+02 6.1148180414e+02 0.0000000000e+00 0.0000e+00 1.0000e+00
       21  1    1    2  502  501 -3.3068128553e-01 +3.6358503423e-01 +1.0241379960e+00 1.1359589890e+00 0.0000000000e+00 0.0000e+00 1.0000e+00
<mgrwt>
<rscale>  1 0.63920481E+03</rscale>
<asrwt>0</asrwt>
<pdfrwt beam="1">  1        1 0.37538791E+00 0.63920481E+03</pdfrwt>
<pdfrwt beam="2">0</pdfrwt>
<totfact> 0.17230144E+00</totfact>
</mgrwt>
</event>
<event>
 6      1 +5.6466785e-02 6.69495600e+02 7.81860800e-03 9.77086900e-02
        1 -1    0    0  502    0 +0.0000000000e+00 +0.0000000000e+00 +1.3588061356e+02 1.3588061356e+02 0.0000000000e+00 0.0000e+00 1.0000e+00
       13 -1    0    0    0    0 -0.0000000000e+00 -0.0000000000e+00 -1.0000000000e+03 1.0000000000e+03 0.0000000000e+00 0.0000e+00 1.0000e+00
  9000005  2    1    2  501    0 -2.5383437286e+01 -2.8205259547e+01 -8.6968208363e+02 1.0975296142e+03 6.6841938319e+02 0.0000e+00 0.0000e+00
       13  1    3    3    0    0 -2.3637084432e+02 -8.7588172549e+01 -8.3919220307e+02 8.7623422537e+02 0.0000000000e+00 0.0000e+00 1.0000e+00
        3  1    3    3  501    0 +2.1098740704e+02 +5.9382913002e+01 -3.0489880560e+01 2.2129538879e+02 0.0000000000e+00 0.0000e+00 1.0000e+00
       21  1    1    2  502  501 +2.5383437286e+01 +2.8205259547e+01 +5.5626971932e+00 3.8350999395e+01 0.0000000000e+00 0.0000e+00 1.0000e+00
<mgrwt>
<rscale>  1 0.66949558E+03</rscale>
<asrwt>0</asrwt>
<pdfrwt beam="1">  1        1 0.49411236E+00 0.66949558E+03</pdfrwt>
<pdfrwt beam="2">0</pdfrwt>
<totfact> 0.49129374E-01</totfact>
</mgrwt>
</event>
<event>
 6      1 +5.6466785e-02 6.52736800e+02 7.81860800e-03 9.80165700e-02
        1 -1    0    0  502    0 +0.0000000000e+00 +0.0000000000e+00 +1.0781222018e+02 1.0781222018e+02 0.0000000000e+00 0.0000e+00 1.0000e+00
       13 -1    0    0    0    0 -0.0000000000e+00 -0.0000000000e+00 -1.0000000000e+03 1.0000000000e+03 0.0000000000e+00 0.0000e+00 1.0000e+00
  9000005  2    1    2  501    0 -4.2871501138e-01 +4.6680575015e-03 -8.9344429962e+02 1.1064845680e+03 6.5273669947e+02 0.0000e+00 0.0000e+00
       13  1    3    3    0    0 -9.2572397206e+01 +2.6928469781e+02 -7.1735927543e+02 7.7180841356e+02 0.0000000000e+00 0.0000e+00 1.0000e+00
        1  1    3    3  501    0 +9.2143682195e+01 -2.6928002975e+02 -1.7608502419e+02 3.3467615442e+02 0.0000000000e+00 0.0000e+00 1.0000e+00
       21  1    1    2  502  501 +4.2871501138e-01 -4.6680575014e-03 +1.2565197990e+00 1.3276521973e+00 0.0000000000e+00 0.0000e+00 1.0000e+00
<mgrwt>
<rscale>  1 0.65273684E+03</rscale>
<asrwt>0</asrwt>
<pdfrwt beam="1">  1        1 0.39204526E+00 0.65273684E+03</pdfrwt>
<pdfrwt beam="2">0</pdfrwt>
<totfact> 0.14506873E+00</totfact>
</mgrwt>
</event>
<event>
 6      1 +5.6466785e-02 6.50850000e+02 7.81860800e-03 9.80518600e-02
        1 -1    0    0  502    0 +0.0000000000e+00 +0.0000000000e+00 +1.0590152720e+02 1.0590152720e+02 0.0000000000e+00 0.0000e+00 1.0000e+00
       13 -1    0    0    0    0 -0.0000000000e+00 -0.0000000000e+00 -1.0000000000e+03 1.0000000000e+03 0.0000000000e+00 0.0000e+00 1.0000e+00
  9000005  2    1    2  501    0 -4.0509804336e-05 -2.3494174948e-04 -8.9409841159e+02 1.1059012811e+03 6.5084996261e+02 0.0000e+00 0.0000e+00
       13  1    3    3    0    0 +1.6363239713e+02 -2.4014165684e+02 -6.9595166232e+02 7.5418319593e+02 0.0000000000e+00 0.0000e+00 1.0000e+00
        1  1    3    3  501    0 -1.6363243764e+02 +2.4014142189e+02 -1.9814674927e+02 3.5171808513e+02 0.0000000000e+00 0.0000e+00 1.0000e+00
       21  1    1    2  502  501 +4.0509804346e-05 +2.3494174948e-04 -6.1212183471e-05 2.4614142541e-04 0.0000000000e+00 0.0000e+00 -1.0000e+00
<mgrwt>
<rscale>  1 0.65084996E+03</rscale>
<asrwt>0</asrwt>
<pdfrwt beam="1">  1        1 0.38509727E+00 0.65084996E+03</pdfrwt>
<pdfrwt beam="2">0</pdfrwt>
<totfact> 0.15578075E+00</totfact>
</mgrwt>
</event>
<event>
 6      1 +5.6466785e-02 6.50552300e+02 7.81860800e-03 9.80574300e-02
        1 -1    0    0  502    0 +0.0000000000e+00 +0.0000000000e+00 +1.0580465113e+02 1.0580465113e+02 0.0000000000e+00 0.0000e+00 1.0000e+00
       13 -1    0    0    0    0 -0.0000000000e+00 -0.0000000000e+00 -1.0000000000e+03 1.0000000000e+03 0.0000000000e+00 0.0000e+00 1.0000e+00
  9000005  2    1    2  501    0 -6.3399632353e-06 -4.5526229002e-05 -8.9419542772e+02 1.1058045599e+03 6.5055227434e+02 0.0000e+00 0.0000e+00
       13  1    3    3    0    0 -1.0686616814e+02 +1.8379701901e+02 -2.8648586477e+01 2.1452846803e+02 0.0000000000e+00 0.0000e+00 1.0000e+00
        1  1    3    3  501    0 +1.0686616180e+02 -1.8379706453e+02 -8.6554684125e+02 8.9127609183e+02 0.0000000000e+00 0.0000e+00 1.0000e+00
       21  1    1    2  502  501 +6.3399632305e-06 +4.5526229021e-05 +7.8857345150e-05 9.1276029420e-05 0.0000000000e+00 0.0000e+00 1.0000e+00
<mgrwt>
<rscale>  1 0.65055227E+03</rscale>
<asrwt>0</asrwt>
<pdfrwt beam="1">  1        1 0.38474500E+00 0.65055227E+03</pdfrwt>
<pdfrwt beam="2">0</pdfrwt>
<totfact> 0.15634926E+00</totfact>
</mgrwt>
</event>
<event>
 6      1 +5.6466785e-02 6.27284100e+02 7.81860800e-03 9.85036300e-02
        1 -1    0    0  502    0 +0.0000000000e+00 +0.0000000000e+00 +9.8371337674e+01 9.8371337674e+01 0.0000000000e+00 0.0000e+00 1.0000e+00
       13 -1    0    0    0    0 -0.0000000000e+00 -0.0000000000e+00 -1.0000000000e+03 1.0000000000e+03 0.0000000000e+00 0.0000e+00 1.0000e+00
  9000005  2    1    2  501    0 +2.5817944675e-05 +8.8342138440e-06 -9.0162864866e+02 1.0983713072e+03 6.2728407305e+02 0.0000e+00 0.0000e+00
       13  1    3    3    0    0 +2.6049596093e+02 -1.6039366291e+02 -3.2966547512e+02 4.4973725468e+02 0.0000000000e+00 0.0000e+00 1.0000e+00
        1  1    3    3  501    0 -2.6049593511e+02 +1.6039367175e+02 -5.7196317354e+02 6.4863405247e+02 0.0000000000e+00 0.0000e+00 1.0000e+00
       21  1    1    2  502  501 -2.5817944651e-05 -8.8342138468e-06 -1.3666625212e-05 3.0518621283e-05 0.0000000000e+00 0.0000e+00 1.0000e+00
<mgrwt>
<rscale>  1 0.62728407E+03</rscale>
<asrwt>0</asrwt>
<pdfrwt beam="1">  1        1 0.35771471E+00 0.62728407E+03</pdfrwt>
<pdfrwt beam="2">0</pdfrwt>
<totfact> 0.20641085E+00</totfact>
</mgrwt>
</event>
<event>
 6      1 +5.6466785e-02 6.48492300e+02 7.81860800e-03 9.80961200e-02
        1 -1    0    0  502    0 +0.0000000000e+00 +0.0000000000e+00 +1.0513556471e+02 1.0513556471e+02 0.0000000000e+00 0.0000e+00 1.0000e+00
       13 -1    0    0    0    0 -0.0000000000e+00 -0.0000000000e+00 -1.0000000000e+03 1.0000000000e+03 0.0000000000e+00 0.0000e+00 1.0000e+00
  9000005  2    1    2  501    0 -9.9048726838e-06 -1.1315297911e-05 -8.9486439688e+02 1.1051355235e+03 6.4849227938e+02 0.0000e+00 0.0000e+00
       13  1    3    3    0    0 +2.3021369568e+02 -1.3227291771e+02 -7.6461270472e+02 8.0939919611e+02 0.0000000000e+00 0.0000e+00 1.0000e+00
        3  1    3    3  501    0 -2.3021370559e+02 +1.3227290640e+02 -1.3025169216e+02 2.9573632736e+02 0.0000000000e+00 0.0000e+00 1.0000e+00
       21  1    1    2  502  501 +9.9048726620e-06 +1.1315297893e-05 -3.8404168404e-05 4.1243455477e-05 0.0000000000e+00 0.0000e+00 1.0000e+00
<mgrwt>
<rscale>  1 0.64849228E+03</rscale>
<asrwt>0</asrwt>
<pdfrwt beam="1">  1        1 0.38231195E+00 0.64849228E+03</pdfrwt>
<pdfrwt beam="2">0</pdfrwt>
<totfact> 0.16032999E+00</totfact>
</mgrwt>
</event>
<event>
 6      1 +5.6466785e-02 6.56027200e+02 7.81860800e-03 9.79553500e-02
        1 -1    0    0  502    0 +0.0000000000e+00 +0.0000000000e+00 +1.1823000165e+02 1.1823000165e+02 0.0000000000e+00 0.0000e+00 1.0000e+00
       13 -1    0    0    0    0 -0.0000000000e+00 -0.0000000000e+00 -1.0000000000e+03 1.0000000000e+03 0.0000000000e+00 0.0000e+00 1.0000e+00
  9000005  2    1    2  501    0 +6.7656369203e+00 +2.5000492567e+01 -8.7041265505e+02 1.0899494833e+03 6.5551574168e+02 0.0000e+00 0.0000e+00
       13  1    3    3    0    0 +2.7284409162e+02 +9.1421771934e+01 -1.6180724672e+02 3.3012637551e+02 0.0000000000e+00 0.0000e+00 1.0000e+00
        3  1    3    3  501    0 -2.6607845470e+02 -6.6421279368e+01 -7.0860540833e+02 7.5982310779e+02 0.0000000000e+00 0.0000e+00 1.0000e+00
       21  1    1    2  502  501 -6.7656369203e+00 -2.5000492567e+01 -1.1357343297e+01 2.8280518353e+01 0.0000000000e+00 0.0000e+00 1.0000e+00
<mgrwt>
<rscale>  1 0.65602720E+03</rscale>
<asrwt>0</asrwt>
<pdfrwt beam="1">  1        1 0.42992819E+00 0.65602720E+03</pdfrwt>
<pdfrwt beam="2">0</pdfrwt>
<totfact> 0.98019459E-01</totfact>
</mgrwt>
</event>
<event>
 6      1 +5.6466785e-02 6.66121300e+02 7.81860800e-03 9.77699000e-02
        1 -1    0    0  502    0 +0.0000000000e+00 +0.0000000000e+00 +1.1093285085e+02 1.1093285085e+02 0.0000000000e+00 0.0000e+00 1.0000e+00
       13 -1    0    0    0    0 -0.0000000000e+00 -0.0000000000e+00 -1.0000000000e+03 1.0000000000e+03 0.0000000000e+00 0.0000e+00 1.0000e+00
  9000005  2    1    2  501    0 +1.4692449230e-04 +6.2983441550e-05 -8.8907058683e+02 1.1109294095e+03 6.6612134363e+02 0.0000e+00 0.0000e+00
       13  1    3    3    0    0 +3.3227921524e+02 -9.5414005219e+00 -4.7907627627e+02 5.8310770334e+02 0.0000000000e+00 0.0000e+00 1.0000e+00
        1  1    3    3  501    0 -3.3227906831e+02 +9.5414635054e+00 -4.0999431055e+02 5.2782170612e+02 0.0000000000e+00 0.0000e+00 1.0000e+00
       21  1    1    2  502  501 -1.4692449229e-04 -6.2983441551e-05 +3.4376806038e-03 3.4413953063e-03 0.0000000000e+00 0.0000e+00 1.0000e+00
<mgrwt>
<rscale>  1 0.66612134E+03</rscale>
<asrwt>0</asrwt>
<pdfrwt beam="1">  1        1 0.40339304E+00 0.66612134E+03</pdfrwt>
<pdfrwt beam="2">0</pdfrwt>
<totfact> 0.12881019E+00</totfact>
</mgrwt>
</event>
<event>
 6      1 +5.6466785e-02 6.50912300e+02 7.81860800e-03 9.80506900e-02
        1 -1    0    0  502    0 +0.0000000000e+00 +0.0000000000e+00 +1.0592172424e+02 1.0592172424e+02 0.0000000000e+00 0.0000e+00 1.0000e+00
       13 -1    0    0    0    0 -0.0000000000e+00 -0.0000000000e+00 -1.0000000000e+03 1.0000000000e+03 0.0000000000e+00 0.0000e+00 1.0000e+00
  9000005  2    1    2  501    0 -1.2677210975e-05 +3.7382391497e-05 -8.9407829606e+02 1.1059216798e+03 6.5091225405e+02 0.0000e+00 0.0000e+00
       13  1    3    3    0    0 +1.1668595415e+02 +3.0331718116e+02 -4.7670062342e+02 5.7694055903e+02 0.0000000000e+00 0.0000e+00 1.0000e+00
        3  1    3    3  501    0 -1.1668596683e+02 -3.0331714378e+02 -4.1737767264e+02 5.2898112082e+02 0.0000000000e+00 0.0000e+00 1.0000e+00
       21  1    1    2  502  501 +1.2677210965e-05 -3.7382391458e-05 +2.0302170030e-05 4.4388432918e-05 0.0000000000e+00 0.0000e+00 1.0000e+00
<mgrwt>
<rscale>  1 0.65091225E+03</rscale>
<asrwt>0</asrwt>
<pdfrwt beam="1">  1        1 0.38517072E+00 0.65091225E+03</pdfrwt>
<pdfrwt beam="2">0</pdfrwt>
<totfact> 0.15566247E+00</totfact>
</mgrwt>
</event>
<event>
 6      1 +5.6466785e-02 6.09098300e+02 7.81860800e-03 9.88670800e-02
        1 -1    0    0  502    0 +0.0000000000e+00 +0.0000000000e+00 +1.0575841354e+02 1.0575841354e+02 0.0000000000e+00 0.0000e+00 1.0000e+00
       13 -1    0    0    0    0 -0.0000000000e+00 -0.0000000000e+00 -1.0000000000e+03 1.0000000000e+03 0.0000000000e+00 0.0000e+00 1.0000e+00
  9000005  2    1    2  501    0 -1.1166862511e-01 +4.4453840815e-01 -9.0724539215e+02 1.0927465326e+03 6.0909816348e+02 0.0000e+00 0.0000e+00
       13  1    3    3    0    0 -1.5126609734e+02 -1.8864995736e+02 -1.2162004999e+02 2.7066894018e+02 0.0000000000e+00 0.0000e+00 1.0000e+00
        1  1    3    3  501    0 +1.5115442871e+02 +1.8909449577e+02 -7.8562534216e+02 8.2207759238e+02 0.0000000000e+00 0.0000e+00 1.0000e+00
       21  1    1    2  502  501 +1.1166862511e-01 -4.4453840815e-01 +1.3003805694e+01 1.3011880986e+01 0.0000000000e+00 0.0000e+00 -1.0000e+00
<mgrwt>
<rscale>  1 0.60909834E+03</rscale>
<asrwt>0</asrwt>
<pdfrwt beam="1">  1        1 0.38457686E+00 0.60909834E+03</pdfrwt>
<pdfrwt beam="2">0</pdfrwt>
<totfact> 0.15785457E+00</totfact>
</mgrwt>
</event>
<event>
 6      1 +5.6466785e-02 6.52869400e+02 7.81860800e-03 9.80141000e-02
        3 -1    0    0  502    0 +0.0000000000e+00 +0.0000000000e+00 +1.0746249548e+02 1.0746249548e+02 0.0000000000e+00 0.0000e+00 1.0000e+00
       13 -1    0    0    0    0 -0.0000000000e+00 -0.0000000000e+00 -1.0000000000e+03 1.0000000000e+03 0.0000000000e+00 0.0000e+00 1.0000e+00
  9000005  2    1    2  501    0 +8.5874965661e-02 +9.9897006876e-02 -8.9343505898e+02 1.1065553252e+03 6.5286940941e+02 0.0000e+00 0.0000e+00
       13  1    3    3    0    0 +1.0872035401e+02 +2.8734046689e+02 -6.3410593948e+02 7.0460982236e+02 0.0000000000e+00 0.0000e+00 1.0000e+00
        1  1    3    3  501    0 -1.0863447904e+02 -2.8724056988e+02 -2.5932911950e+02 4.0194550283e+02 0.0000000000e+00 0.0000e+00 1.0000e+00
       21  1    1    2  502  501 -8.5874965661e-02 -9.9897006876e-02 +8.9755446315e-01 9.0717029054e-01 0.0000000000e+00 0.0000e+00 1.0000e+00
<mgrwt>
<rscale>  1 0.65286942E+03</rscale>
<asrwt>0</asrwt>
<pdfrwt beam="1">  1        3 0.39077353E+00 0.65286942E+03</pdfrwt>
<pdfrwt beam="2">0</pdfrwt>
<totfact> 0.66195645E-02</totfact>
</mgrwt>
</event>
<event>
 6      1 +5.6466785e-02 6.33078700e+02 7.81860800e-03 9.83905900e-02
        1 -1    0    0  502    0 +0.0000000000e+00 +0.0000000000e+00 +1.0019762347e+02 1.0019762347e+02 0.0000000000e+00 0.0000e+00 1.0000e+00
       13 -1    0    0    0    0 -0.0000000000e+00 -0.0000000000e+00 -1.0000000000e+03 1.0000000000e+03 0.0000000000e+00 0.0000e+00 1.0000e+00
  9000005  2    1    2  501    0 +1.6473256358e-04 +1.1711936145e-04 -8.9980280772e+02 1.1001971473e+03 6.3307872343e+02 0.0000e+00 0.0000e+00
       13  1    3    3    0    0 +2.1503617194e+00 +1.5803264760e+02 -9.2652378515e+02 9.3990705190e+02 0.0000000000e+00 0.0000e+00 1.0000e+00
        1  1    3    3  501    0 -2.1501969868e+00 -1.5803253048e+02 +2.6720977427e+01 1.6029009536e+02 0.0000000000e+00 0.0000e+00 1.0000e+00
       21  1    1    2  502  501 -1.6473256358e-04 -1.1711936143e-04 +4.3119103658e-04 4.7621368350e-04 0.0000000000e+00 0.0000e+00 1.0000e+00
<mgrwt>
<rscale>  1 0.63307872E+03</rscale>
<asrwt>0</asrwt>
<pdfrwt beam="1">  1        1 0.36435576E+00 0.63307872E+03</pdfrwt>
<pdfrwt beam="2">0</pdfrwt>
<totfact> 0.19285078E+00</totfact>
</mgrwt>
</event>
<event>
 6      1 +5.6466785e-02 6.64237900e+02 7.81860800e-03 9.78042400e-02
        1 -1    0    0  502    0 +0.0000000000e+00 +0.0000000000e+00 +1.1045033304e+02 1.1045033304e+02 0.0000000000e+00 0.0000e+00 1.0000e+00
       13 -1    0    0    0    0 -0.0000000000e+00 -0.0000000000e+00 -1.0000000000e+03 1.0000000000e+03 0.0000000000e+00 0.0000e+00 1.0000e+00
  9000005  2    1    2  501    0 +1.9045948760e-01 -2.1389018589e-01 -8.8952178943e+02 1.1101625814e+03 6.6423780480e+02 0.0000e+00 0.0000e+00
       13  1    3    3    0    0 +5.1564046864e+01 +2.4009733514e+02 -8.1823337350e+02 8.5429001795e+02 0.0000000000e+00 0.0000e+00 1.0000e+00
        1  1    3    3  501    0 -5.1373587376e+01 -2.4031122533e+02 -7.1288415934e+01 2.5587256348e+02 0.0000000000e+00 0.0000e+00 1.0000e+00
       21  1    1    2  502  501 -1.9045948760e-01 +2.1389018589e-01 -2.7877528108e-02 2.8775160227e-01 0.0000000000e+00 0.0000e+00 1.0000e+00
<mgrwt>
<rscale>  1 0.66423787E+03</rscale>
<asrwt>0</asrwt>
<pdfrwt beam="1">  1        1 0.40163842E+00 0.66423787E+03</pdfrwt>
<pdfrwt beam="2">0</pdfrwt>
<totfact> 0.13120167E+00</totfact>
</mgrwt>
</event>
<event>
 6      1 +5.6466785e-02 6.25695900e+02 7.81860800e-03 9.85348400e-02
        3 -1    0    0  502    0 +0.0000000000e+00 +0.0000000000e+00 +9.7882132715e+01 9.7882132715e+01 0.0000000000e+00 0.0000e+00 1.0000e+00
       13 -1    0    0    0    0 -0.0000000000e+00 -0.0000000000e+00 -1.0000000000e+03 1.0000000000e+03 0.0000000000e+00 0.0000e+00 1.0000e+00
  9000005  2    1    2  501    0 +9.4151265620e-04 +1.7380891504e-03 -9.0212601589e+02 1.0978737478e+03 6.2569594655e+02 0.0000e+00 0.0000e+00
       13  1    3    3    0    0 +1.3771704217e+02 +6.5386943612e+01 -9.3041444297e+02 9.4282154822e+02 0.0000000000e+00 0.0000e+00 1.0000e+00
        1  1    3    3  501    0 -1.3771610066e+02 -6.5385205523e+01 +2.8288427085e+01 1.5505219956e+02 0.0000000000e+00 0.0000e+00 1.0000e+00
       21  1    1    2  502  501 -9.4151265620e-04 -1.7380891504e-03 +8.1486015787e-03 8.3849333728e-03 0.0000000000e+00 0.0000e+00 1.0000e+00
<mgrwt>
<rscale>  1 0.62569595E+03</rscale>
<asrwt>0</asrwt>
<pdfrwt beam="1">  1        3 0.35593578E+00 0.62569595E+03</pdfrwt>
<pdfrwt beam="2">0</pdfrwt>
<totfact> 0.10165021E-01</totfact>
</mgrwt>
</event>
<event>
 6      1 +5.6466785e-02 6.52962800e+02 7.81860800e-03 9.80123500e-02
        1 -1    0    0  502    0 +0.0000000000e+00 +0.0000000000e+00 +1.1917557575e+02 1.1917557575e+02 0.0000000000e+00 0.0000e+00 1.0000e+00
       13 -1    0    0    0    0 -0.0000000000e+00 -0.0000000000e+00 -1.0000000000e+03 1.0000000000e+03 0.0000000000e+00 0.0000e+00 1.0000e+00
  9000005  2    1    2  501    0 +1.0495177914e+00 +2.8457555806e-01 -8.9338389196e+02 1.1065691211e+03 6.5296191221e+02 0.0000e+00 0.0000e+00
       13  1    3    3    0    0 -2.2964522956e+01 +1.2669045515e+02 -9.5518928716e+02 9.6382800076e+02 0.0000000000e+00 0.0000e+00 1.0000e+00
        3  1    3    3  501    0 +2.4014040748e+01 -1.2640587959e+02 +6.1805395203e+01 1.4274112030e+02 0.0000000000e+00 0.0000e+00 1.0000e+00
       21  1    1    2  502  501 -1.0495177914e+00 -2.8457555806e-01 +1.2559467712e+01 1.2606454698e+01 0.0000000000e+00 0.0000e+00 1.0000e+00
<mgrwt>
<rscale>  1 0.65296282E+03</rscale>
<asrwt>0</asrwt>
<pdfrwt beam="1">  1        1 0.43336664E+00 0.65296282E+03</pdfrwt>
<pdfrwt beam="2">0</pdfrwt>
<totfact> 0.94612945E-01</totfact>
</mgrwt>
</event>
<event>
 6      1 +5.6466785e-02 7.11695100e+02 7.81860800e-03 9.69743900e-02
        1 -1    0    0  502    0 +0.0000000000e+00 +0.0000000000e+00 +1.2956662131e+02 1.2956662131e+02 0.0000000000e+00 0.0000e+00 1.0000e+00
       13 -1    0    0    0    0 -0.0000000000e+00 -0.0000000000e+00 -1.0000000000e+03 1.0000000000e+03 0.0000000000e+00 0.0000e+00 1.0000e+00
  9000005  2    1    2  501    0 -9.5792337393e-02 +9.6819267424e-02 -8.7337075879e+02 1.1266260853e+03 7.1169504371e+02 0.0000e+00 0.0000e+00
       13  1    3    3    0    0 -2.5989880436e+01 +2.9035960356e+02 -1.1357794642e+02 3.1286438464e+02 0.0000000000e+00 0.0000e+00 1.0000e+00
        1  1    3    3  501    0 +2.5894088099e+01 -2.9026278429e+02 -7.5979281237e+02 8.1376170067e+02 0.0000000000e+00 0.0000e+00 1.0000e+00
       21  1    1    2  502  501 +9.5792337393e-02 -9.6819267424e-02 +2.9373800977e+00 2.9405360023e+00 0.0000000000e+00 0.0000e+00 1.0000e+00
<mgrwt>
<rscale>  1 0.71169506E+03</rscale>
<asrwt>0</asrwt>
<pdfrwt beam="1">  1        1 0.47115234E+00 0.71169506E+03</pdfrwt>
<pdfrwt beam="2">0</pdfrwt>
<totfact> 0.62558556E-01</totfact>
</mgrwt>
</event>
<event>
 6      1 +5.6466785e-02 6.64485700e+02 7.81860800e-03 9.77997100e-02
        1 -1    0    0  502    0 +0.0000000000e+00 +0.0000000000e+00 +1.1038578071e+02 1.1038578071e+02 0.0000000000e+00 0.0000e+00 1.0000e+00
       13 -1    0    0    0    0 -0.0000000000e+00 -0.0000000000e+00 -1.0000000000e+03 1.0000000000e+03 0.0000000000e+00 0.0000e+00 1.0000e+00
  9000005  2    1    2  501    0 -3.9361204927e-05 -8.6200218181e-05 -8.8961468495e+02 1.1103853055e+03 6.6448569510e+02 0.0000e+00 0.0000e+00
       13  1    3    3    0    0 +3.1467036041e+02 +2.0839694353e+01 -6.1953792867e+02 6.9518269084e+02 0.0000000000e+00 0.0000e+00 1.0000e+00
        3  1    3    3  501    0 -3.1467039977e+02 -2.0839780553e+01 -2.7007675628e+02 4.1520261467e+02 0.0000000000e+00 0.0000e+00 1.0000e+00
       21  1    1    2  502  501 +3.9361204965e-05 +8.6200218183e-05 +4.6566018685e-04 4.7520436833e-04 0.0000000000e+00 0.0000e+00 1.0000e+00
<mgrwt>
<rscale>  1 0.66448570E+03</rscale>
<asrwt>0</asrwt>
<pdfrwt beam="1">  1        1 0.40140369E+00 0.66448570E+03</pdfrwt>
<pdfrwt beam="2">0</pdfrwt>
<totfact> 0.13151246E+00</totfact>
</mgrwt>
</event>
<event>
 6      1 +5.6466785e-02 6.59398300e+02 7.81860800e-03 9.78930200e-02
        1 -1    0    0  502    0 +0.0000000000e+00 +0.0000000000e+00 +1.0870154552e+02 1.0870154552e+02 0.0000000000e+00 0.0000e+00 1.0000e+00
       13 -1    0    0    0    0 -0.0000000000e+00 -0.0000000000e+00 -1.0000000000e+03 1.0000000000e+03 0.0000000000e+00 0.0000e+00 1.0000e+00
  9000005  2    1    2  501    0 +3.7627155400e-06 +5.0362068009e-06 -8.9129846788e+02 1.1087015307e+03 6.5939830556e+02 0.0000e+00 0.0000e+00
       13  1    3    3    0    0 +1.4956900053e+01 -3.2916606837e+02 -4.2666222361e+02 5.3908687841e+02 0.0000000000e+00 0.0000e+00 1.0000e+00
        1  1    3    3  501    0 -1.4956896291e+01 +3.2916607341e+02 -4.6463624427e+02 5.6961465230e+02 0.0000000000e+00 0.0000e+00 1.0000e+00
       21  1    1    2  502  501 -3.7627155394e-06 -5.0362067876e-06 +1.3394694790e-05 1.4796596080e-05 0.0000000000e+00 0.0000e+00 1.0000e+00
<mgrwt>
<rscale>  1 0.65939831E+03</rscale>
<asrwt>0</asrwt>
<pdfrwt beam="1">  1        1 0.39527918E+00 0.65939831E+03</pdfrwt>
<pdfrwt beam="2">0</pdfrwt>
<totfact> 0.14017329E+00</totfact>
</mgrwt>
</event>
<event>
 6      1 +5.6466785e-02 6.51810500e+02 7.81860800e-03 9.80338800e-02
        1 -1    0    0  502    0 +0.0000000000e+00 +0.0000000000e+00 +1.0621422751e+02 1.0621422751e+02 0.0000000000e+00 0.0000e+00 1.0000e+00
       13 -1    0    0    0    0 -0.0000000000e+00 -0.0000000000e+00 -1.0000000000e+03 1.0000000000e+03 0.0000000000e+00 0.0000e+00 1.0000e+00
  9000005  2    1    2  501    0 -2.9229817073e-06 +3.0756930869e-07 -8.9378577758e+02 1.1062142216e+03 6.5181046933e+02 0.0000e+00 0.0000e+00
       13  1    3    3    0    0 -2.9476548797e+02 +7.6538166342e+01 -6.4385952345e+02 7.1224986468e+02 0.0000000000e+00 0.0000e+00 1.0000e+00
        3  1    3    3  501    0 +2.9476548505e+02 -7.6538166034e+01 -2.4992625414e+02 3.9396435695e+02 0.0000000000e+00 0.0000e+00 1.0000e+00
       21  1    1    2  502  501 +2.9229817051e-06 -3.0756930285e-07 +5.0985880056e-06 5.8850675931e-06 0.0000000000e+00 0.0000e+00 1.0000e+00
<mgrwt>
<rscale>  1 0.65181047E+03</rscale>
<asrwt>0</asrwt>
<pdfrwt beam="1">  1        1 0.38623437E+00 0.65181047E+03</pdfrwt>
<pdfrwt beam="2">0</pdfrwt>
<totfact> 0.15395910E+00</totfact>
</mgrwt>
</event>
<event>
 6      1 +5.6466785e-02 6.55978400e+02 7.81860800e-03 9.79562500e-02
        1 -1    0    0  502    0 +0.0000000000e+00 +0.0000000000e+00 +1.0757692182e+02 1.0757692182e+02 0.0000000000e+00 0.0000e+00 1.0000e+00
       13 -1    0    0    0    0 -0.0000000000e+00 -0.0000000000e+00 -1.0000000000e+03 1.0000000000e+03 0.0000000000e+00 0.0000e+00 1.0000e+00
  9000005  2    1    2  501    0 -1.5955253048e-05 -4.1459178135e-06 -8.9242307979e+02 1.1075769053e+03 6.5597838966e+02 0.0000e+00 0.0000e+00
       13  1    3    3    0    0 -2.7766580775e+02 +6.6973723365e+01 -1.7399551860e+02 3.3445212050e+02 0.0000000000e+00 0.0000e+00 1.0000e+00
        3  1    3    3  501    0 +2.7766579180e+02 -6.6973727511e+01 -7.1842756119e+02 7.7312478475e+02 0.0000000000e+00 0.0000e+00 1.0000e+00
       21  1    1    2  502  501 +1.5955253078e-05 +4.1459178066e-06 +1.6130625326e-06 1.6563837296e-05 0.0000000000e+00 0.0000e+00 -1.0000e+00
<mgrwt>
<rscale>  1 0.65597839E+03</rscale>
<asrwt>0</asrwt>
<pdfrwt beam="1">  1        1 0.39118963E+00 0.65597839E+03</pdfrwt>
<pdfrwt beam="2">0</pdfrwt>
<totfact> 0.14625455E+00</totfact>
</mgrwt>
</event>
<event>
 6      1 +5.6466785e-02 6.50765800e+02 7.81860800e-03 9.80534300e-02
        1 -1    0    0  502    0 +0.0000000000e+00 +0.0000000000e+00 +1.0599132326e+02 1.0599132326e+02 0.0000000000e+00 0.0000e+00 1.0000e+00
       13 -1    0    0    0    0 -0.0000000000e+00 -0.0000000000e+00 -1.0000000000e+03 1.0000000000e+03 0.0000000000e+00 0.0000e+00 1.0000e+00
  9000005  2    1    2  501    0 -5.1744407553e-02 +4.8569913117e-02 -8.9411399236e+02 1.1058643276e+03 6.5076576021e+02 0.0000e+00 0.0000e+00
       13  1    3    3    0    0 +2.5554129008e+02 -1.2259635808e+02 -1.7552995625e+02 3.3337963869e+02 0.0000000000e+00 0.0000e+00 1.0000e+00
        3  1    3    3  501    0 -2.5559303449e+02 +1.2264492800e+02 -7.1858403611e+02 7.7248468890e+02 0.0000000000e+00 0.0000e+00 1.0000e+00
       21  1    1    2  502  501 +5.1744407554e-02 -4.8569913117e-02 +1.0531562360e-01 1.2699567216e-01 0.0000000000e+00 0.0000e+00 1.0000e+00
<mgrwt>
<rscale>  1 0.65076576E+03</rscale>
<asrwt>0</asrwt>
<pdfrwt beam="1">  1        1 0.38542381E+00 0.65076576E+03</pdfrwt>
<pdfrwt beam="2">0</pdfrwt>
<totfact> 0.15526588E+00</totfact>
</mgrwt>
</event>
<event>
 6      1 +5.6466785e-02 6.71032800e+02 7.81860800e-03 9.76809400e-02
        1 -1    0    0  502    0 +0.0000000000e+00 +0.0000000000e+00 +1.1270685611e+02 1.1270685611e+02 0.0000000000e+00 0.0000e+00 1.0000e+00
       13 -1    0    0    0    0 -0.0000000000e+00 -0.0000000000e+00 -1.0000000000e+03 1.0000000000e+03 0.0000000000e+00 0.0000e+00 1.0000e+00
  9000005  2    1    2  501    0 -2.5025855286e-01 -3.6139055797e-02 -8.8623723705e+02 1.1116210962e+03 6.7103275420e+02 0.0000e+00 0.0000e+00
       13  1    3    3    0    0 -1.5939589990e+02 -2.9493245460e+02 -4.1811811143e+02 5.3592439839e+02 0.0000000000e+00 0.0000e+00 1.0000e+00
        3  1    3    3  501    0 +1.5914564135e+02 +2.9489631555e+02 -4.6811912562e+02 5.7569669780e+02 0.0000000000e+00 0.0000e+00 1.0000e+00
       21  1    1    2  502  501 +2.5025855286e-01 +3.6139055797e-02 -1.0559068371e+00 1.0857599290e+00 0.0000000000e+00 0.0000e+00 -1.0000e+00
<mgrwt>
<rscale>  1 0.67103280E+03</rscale>
<asrwt>0</asrwt>
<pdfrwt beam="1">  1        1 0.40984398E+00 0.67103280E+03</pdfrwt>
<pdfrwt beam="2">0</pdfrwt>
<totfact> 0.12041203E+00</totfact>
</mgrwt>
</event>
<event>
 6      1 +5.6466785e-02 5.90535300e+02 7.81860800e-03 9.92523900e-02
        1 -1    0    0  502    0 +0.0000000000e+00 +0.0000000000e+00 +8.7597996129e+01 8.7597996129e+01 0.0000000000e+00 0.0000e+00 1.0000e+00
       13 -1    0    0    0    0 -0.0000000000e+00 -0.0000000000e+00 -1.0000000000e+03 1.0000000000e+03 0.0000000000e+00 0.0000e+00 1.0000e+00
  9000005  2    1    2  501    0 -2.3528270093e-01 +3.8974615761e-03 -9.1278049591e+02 1.0871523176e+03 5.9053524243e+02 0.0000e+00 0.0000e+00
       13  1    3    3    0    0 -1.3800564838e+01 +3.3789520334e+01 -9.9581669853e+02 9.9648536585e+02 0.0000000000e+00 0.0000e+00 1.0000e+00
        3  1    3    3  501    0 +1.3565282137e+01 -3.3785622872e+01 +8.3036202620e+01 9.0666951741e+01 0.0000000000e+00 0.0000e+00 1.0000e+00
       21  1    1    2  502  501 +2.3528270093e-01 -3.8974615761e-03 +3.7849203837e-01 4.4567854186e-01 0.0000000000e+00 0.0000e+00 1.0000e+00
<mgrwt>
<rscale>  1 0.59053529E+03</rscale>
<asrwt>0</asrwt>
<pdfrwt beam="1">  1        1 0.31853884E+00 0.59053529E+03</pdfrwt>
<pdfrwt beam="2">0</pdfrwt>
<totfact> 0.30739521E+00</totfact>
</mgrwt>
</event>
<event>
 6      1 +5.6466785e-02 6.48178500e+02 7.81860800e-03 9.81020300e-02
        1 -1    0    0  502    0 +0.0000000000e+00 +0.0000000000e+00 +1.0555151801e+02 1.0555151801e+02 0.0000000000e+00 0.0000e+00 1.0000e+00
       13 -1    0    0    0    0 -0.0000000000e+00 -0.0000000000e+00 -1.0000000000e+03 1.0000000000e+03 0.0000000000e+00 0.0000e+00 1.0000e+00
  9000005  2    1    2  501    0 +8.2156607491e-02 +2.3045856824e-01 -8.9493402547e+02 1.1050078147e+03 6.4817844817e+02 0.0000e+00 0.0000e+00
       13  1    3    3    0    0 -1.8517957172e+02 -2.6227948876e+02 -5.2114819608e+02 6.1210901503e+02 0.0000000000e+00 0.0000e+00 1.0000e+00
        1  1    3    3  501    0 +1.8526172833e+02 +2.6250994733e+02 -3.7378582939e+02 4.9289879964e+02 0.0000000000e+00 0.0000e+00 1.0000e+00
       21  1    1    2  502  501 -8.2156607491e-02 -2.3045856824e-01 +4.8554347190e-01 5.4370334093e-01 0.0000000000e+00 0.0000e+00 1.0000e+00
<mgrwt>
<rscale>  1 0.64817849E+03</rscale>
<asrwt>0</asrwt>
<pdfrwt beam="1">  1        1 0.38382451E+00 0.64817849E+03</pdfrwt>
<pdfrwt beam="2">0</pdfrwt>
<totfact> 0.15789055E+00</totfact>
</mgrwt>
</event>
<event>
 6      1 +5.6466785e-02 6.48072200e+02 7.81860800e-03 9.81040300e-02
        1 -1    0    0  502    0 +0.0000000000e+00 +0.0000000000e+00 +1.0499941444e+02 1.0499941444e+02 0.0000000000e+00 0.0000e+00 1.0000e+00
       13 -1    0    0    0    0 -0.0000000000e+00 -0.0000000000e+00 -1.0000000000e+03 1.0000000000e+03 0.0000000000e+00 0.0000e+00 1.0000e+00
  9000005  2    1    2  501    0 -2.3267326867e-05 -1.6467662363e-05 -8.9500059467e+02 1.1049993845e+03 6.4807219915e+02 0.0000e+00 0.0000e+00
       13  1    3    3    0    0 -1.9129913913e+02 +1.8113048355e+02 -1.2581003631e+02 2.9194482002e+02 0.0000000000e+00 0.0000e+00 1.0000e+00
        1  1    3    3  501    0 +1.9129911586e+02 -1.8113050002e+02 -7.6919055836e+02 8.1305456449e+02 0.0000000000e+00 0.0000e+00 1.0000e+00
       21  1    1    2  502  501 +2.3267326867e-05 +1.6467662372e-05 +9.1126677536e-06 2.9926461821e-05 0.0000000000e+00 0.0000e+00 -1.0000e+00
<mgrwt>
<rscale>  1 0.64807220E+03</rscale>
<asrwt>0</asrwt>
<pdfrwt beam="1">  1        1 0.38181686E+00 0.64807220E+03</pdfrwt>
<pdfrwt beam="2">0</pdfrwt>
<totfact> 0.16115176E+00</totfact>
</mgrwt>
</event>
<event>
 6      1 +5.6466785e-02 5.79008700e+02 7.81860800e-03 9.94993900e-02
        3 -1    0    0  502    0 +0.0000000000e+00 +0.0000000000e+00 +8.4587430950e+01 8.4587430950e+01 0.0000000000e+00 0.0000e+00 1.0000e+00
       13 -1    0    0    0    0 -0.0000000000e+00 -0.0000000000e+00 -1.0000000000e+03 1.0000000000e+03 0.0000000000e+00 0.0000e+00 1.0000e+00
  9000005  2    1    2  501    0 -4.1632156737e-01 +1.5496124985e+00 -9.1518660195e+02 1.0829670348e+03 5.7900648309e+02 0.0000e+00 0.0000e+00
       13  1    3    3    0    0 +7.9451298571e+00 -1.3560136409e+02 +2.0388505809e+01 1.3735554666e+02 0.0000000000e+00 0.0000e+00 1.0000e+00
        1  1    3    3  501    0 -8.3614514245e+00 +1.3715097658e+02 -9.3557510776e+02 9.4561148814e+02 0.0000000000e+00 0.0000e+00 1.0000e+00
       21  1    1    2  502  501 +4.1632156737e-01 -1.5496124985e+00 -2.2596710398e-01 1.6203961476e+00 0.0000000000e+00 0.0000e+00 -1.0000e+00
<mgrwt>
<rscale>  1 0.57900871E+03</rscale>
<asrwt>0</asrwt>
<pdfrwt beam="1">  1        3 0.30759131E+00 0.57900871E+03</pdfrwt>
<pdfrwt beam="2">0</pdfrwt>
<totfact> 0.18576146E-01</totfact>
</mgrwt>
</event>
<event>
 6      1 +5.6466785e-02 6.38255100e+02 7.81860800e-03 9.82907100e-02
        1 -1    0    0  502    0 +0.0000000000e+00 +0.0000000000e+00 +1.0291636907e+02 1.0291636907e+02 0.0000000000e+00 0.0000e+00 1.0000e+00
       13 -1    0    0    0    0 -0.0000000000e+00 -0.0000000000e+00 -1.0000000000e+03 1.0000000000e+03 0.0000000000e+00 0.0000e+00 1.0000e+00
  9000005  2    1    2  501    0 +9.5850897146e-02 +1.8588999668e+00 -8.9718790371e+02 1.1010520812e+03 6.3825236877e+02 0.0000e+00 0.0000e+00
       13  1    3    3    0    0 -2.7756435030e+02 +2.6432341235e+01 -7.1657212559e+02 7.6890587747e+02 0.0000000000e+00 0.0000e+00 1.0000e+00
        3  1    3    3  501    0 +2.7766020120e+02 -2.4573441268e+01 -1.8061577812e+02 3.3214620373e+02 0.0000000000e+00 0.0000e+00 1.0000e+00
       21  1    1    2  502  501 -9.5850897146e-02 -1.8588999668e+00 +1.0427278579e-01 1.8642878788e+00 0.0000000000e+00 0.0000e+00 1.0000e+00
<mgrwt>
<rscale>  1 0.63825508E+03</rscale>
<asrwt>0</asrwt>
<pdfrwt beam="1">  1        1 0.37424213E+00 0.63825508E+03</pdfrwt>
<pdfrwt beam="2">0</pdfrwt>
<totfact> 0.17434407E+00</totfact>
</mgrwt>
</event>
<event>
 6      1 +5.6466785e-02 6.32771700e+02 7.81860800e-03 9.83965500e-02
        1 -1    0    0  502    0 +0.0000000000e+00 +0.0000000000e+00 +1.0010302315e+02 1.0010302315e+02 0.0000000000e+00 0.0000e+00 1.0000e+00
       13 -1    0    0    0    0 -0.0000000000e+00 -0.0000000000e+00 -1.0000000000e+03 1.0000000000e+03 0.0000000000e+00 0.0000e+00 1.0000e+00
  9000005  2    1    2  501    0 +7.5491883053e-03 +3.1986243985e-03 -8.9989190147e+02 1.1000933805e+03 6.3277168980e+02 0.0000e+00 0.0000e+00
       13  1    3    3    0    0 +9.5843561482e+01 +2.9956720985e+02 -5.0954822326e+02 5.9880371853e+02 0.0000000000e+00 0.0000e+00 1.0000e+00
        3  1    3    3  501    0 -9.5836012294e+01 -2.9956401123e+02 -3.9034367821e+02 5.0128966197e+02 0.0000000000e+00 0.0000e+00 1.0000e+00
       21  1    1    2  502  501 -7.5491883053e-03 -3.1986243985e-03 -5.0753750469e-03 9.6426590720e-03 0.0000000000e+00 0.0000e+00 1.0000e+00
<mgrwt>
<rscale>  1 0.63277169E+03</rscale>
<asrwt>0</asrwt>
<pdfrwt beam="1">  1        1 0.36401176E+00 0.63277169E+03</pdfrwt>
<pdfrwt beam="2">0</pdfrwt>
<totfact> 0.19353191E+00</totfact>
</mgrwt>
</event>
<event>
 6      1 +5.6466785e-02 6.42876500e+02 7.81860800e-03 9.82023900e-02
        1 -1    0    0  502    0 +0.0000000000e+00 +0.0000000000e+00 +1.0464746837e+02 1.0464746837e+02 0.0000000000e+00 0.0000e+00 1.0000e+00
       13 -1    0    0    0    0 -0.0000000000e+00 -0.0000000000e+00 -1.0000000000e+03 1.0000000000e+03 0.0000000000e+00 0.0000e+00 1.0000e+00
  9000005  2    1    2  501    0 +2.7712098428e+00 -5.7859948658e-01 -8.9474410366e+02 1.1017518569e+03 6.4287022695e+02 0.0000e+00 0.0000e+00
       13  1    3    3    0    0 -2.7624993158e+01 +1.9414597758e+02 -1.1120661834e+01 1.9641657256e+02 0.0000000000e+00 0.0000e+00 1.0000e+00
        1  1    3    3  501    0 +3.0396203001e+01 -1.9472457707e+02 -8.8362344182e+02 9.0533528430e+02 0.0000000000e+00 0.0000e+00 1.0000e+00
       21  1    1    2  502  501 -2.7712098428e+00 +5.7859948658e-01 -6.0842797817e-01 2.8956115008e+00 0.0000000000e+00 0.0000e+00 1.0000e+00
<mgrwt>
<rscale>  1 0.64287646E+03</rscale>
<asrwt>0</asrwt>
<pdfrwt beam="1">  1        1 0.38053705E+00 0.64287646E+03</pdfrwt>
<pdfrwt beam="2">0</pdfrwt>
<totfact> 0.16341840E+00</totfact>
</mgrwt>
</event>
<event>
 6      1 +5.6466785e-02 6.54410400e+02 7.81860800e-03 9.79853800e-02
        1 -1    0    0  502    0 +0.0000000000e+00 +0.0000000000e+00 +1.0791480563e+02 1.0791480563e+02 0.0000000000e+00 0.0000e+00 1.0000e+00
       13 -1    0    0    0    0 -0.0000000000e+00 -0.0000000000e+00 -1.0000000000e+03 1.0000000000e+03 0.0000000000e+00 0.0000e+00 1.0000e+00
  9000005  2    1    2  501    0 +8.7587259686e-03 -4.8637868618e-02 -8.9293596948e+02 1.1070625964e+03 6.5441037906e+02 0.0000e+00 0.0000e+00
       13  1    3    3    0    0 -2.6955740505e+02 -1.8001737435e+02 -5.2217743491e+02 6.1460289880e+02 0.0000000000e+00 0.0000e+00 1.0000e+00
        1  1    3    3  501    0 +2.6956616377e+02 +1.7996873648e+02 -3.7075853457e+02 4.9245969756e+02 0.0000000000e+00 0.0000e+00 1.0000e+00
       21  1    1    2  502  501 -8.7587259686e-03 +4.8637868618e-02 +8.5077511011e-01 8.5220927332e-01 0.0000000000e+00 0.0000e+00 -1.0000e+00
<mgrwt>
<rscale>  1 0.65441038E+03</rscale>
<asrwt>0</asrwt>
<pdfrwt beam="1">  1        1 0.39241830E+00 0.65441038E+03</pdfrwt>
<pdfrwt beam="2">0</pdfrwt>
<totfact> 0.14447147E+00</totfact>
</mgrwt>
</event>
<event>
 6      1 +5.6466785e-02 5.95802300e+02 7.81860800e-03 9.91415300e-02
        1 -1    0    0  502    0 +0.0000000000e+00 +0.0000000000e+00 +8.8745549016e+01 8.8745549016e+01 0.0000000000e+00 0.0000e+00 1.0000e+00
       13 -1    0    0    0    0 -0.0000000000e+00 -0.0000000000e+00 -1.0000000000e+03 1.0000000000e+03 0.0000000000e+00 0.0000e+00 1.0000e+00
  9000005  2    1    2  501    0 -2.4958278050e-04 -4.8251913714e-04 -9.1125472802e+02 1.0887449392e+03 5.9580228543e+02 0.0000e+00 0.0000e+00
       13  1    3    3    0    0 +2.3907420270e+02 +1.4017731242e+02 -6.5529321701e+02 7.1148812609e+02 0.0000000000e+00 0.0000e+00 1.0000e+00
        1  1    3    3  501    0 -2.3907445228e+02 -1.4017779494e+02 -2.5596151101e+02 3.7725681312e+02 0.0000000000e+00 0.0000e+00 1.0000e+00
       21  1    1    2  502  501 +2.4958278047e-04 +4.8251913715e-04 +2.7703136272e-04 6.0980542631e-04 0.0000000000e+00 0.0000e+00 -1.0000e+00
<mgrwt>
<rscale>  1 0.59580229E+03</rscale>
<asrwt>0</asrwt>
<pdfrwt beam="1">  1        1 0.32271177E+00 0.59580229E+03</pdfrwt>
<pdfrwt beam="2">0</pdfrwt>
<totfact> 0.29460666E+00</totfact>
</mgrwt>
</event>
<event>
 6      1 +5.6466785e-02 6.57845300e+02 7.81860800e-03 9.79216800e-02
        1 -1    0    0  502    0 +0.0000000000e+00 +0.0000000000e+00 +1.0824542631e+02 1.0824542631e+02 0.0000000000e+00 0.0000e+00 1.0000e+00
       13 -1    0    0    0    0 -0.0000000000e+00 -0.0000000000e+00 -1.0000000000e+03 1.0000000000e+03 0.0000000000e+00 0.0000e+00 1.0000e+00
  9000005  2    1    2  501    0 +2.1007291068e-03 -5.9588751747e-03 -8.9180970557e+02 1.1081899336e+03 6.5784525373e+02 0.0000e+00 0.0000e+00
       13  1    3    3    0    0 +7.0777395844e+00 +1.9947473676e+02 -8.8631068170e+02 9.0850805692e+02 0.0000000000e+00 0.0000e+00 1.0000e+00
        3  1    3    3  501    0 -7.0756388553e+00 -1.9948069563e+02 -5.4990238699e+00 1.9968187664e+02 0.0000000000e+00 0.0000e+00 1.0000e+00
       21  1    1    2  502  501 -2.1007291068e-03 +5.9588751747e-03 +5.5131881034e-02 5.5492752342e-02 0.0000000000e+00 0.0000e+00 1.0000e+00
<mgrwt>
<rscale>  1 0.65784525E+03</rscale>
<asrwt>0</asrwt>
<pdfrwt beam="1">  1        1 0.39362056E+00 0.65784525E+03</pdfrwt>
<pdfrwt beam="2">0</pdfrwt>
<totfact> 0.14261466E+00</totfact>
</mgrwt>
</event>
<event>
 6      1 +5.6466785e-02 6.53564000e+02 7.81860800e-03 9.80011500e-02
        1 -1    0    0  502    0 +0.0000000000e+00 +0.0000000000e+00 +1.0678653240e+02 1.0678653240e+02 0.0000000000e+00 0.0000e+00 1.0000e+00
       13 -1    0    0    0    0 -0.0000000000e+00 -0.0000000000e+00 -1.0000000000e+03 1.0000000000e+03 0.0000000000e+00 0.0000e+00 1.0000e+00
  9000005  2    1    2  501    0 -5.6597484559e-05 -8.9411115411e-05 -8.9321347672e+02 1.1067864262e+03 6.5356398171e+02 0.0000e+00 0.0000e+00
       13  1    3    3    0    0 +1.0259865244e+02 +6.8272784725e+01 -9.5913826851e+02 9.6702320279e+02 0.0000000000e+00 0.0000e+00 1.0000e+00
        3  1    3    3  501    0 -1.0259870904e+02 -6.8272874136e+01 +6.5924791791e+01 1.3976322339e+02 0.0000000000e+00 0.0000e+00 1.0000e+00
       21  1    1    2  502  501 +5.6597484552e-05 +8.9411115404e-05 +9.1158821099e-06 1.0621074391e-04 0.0000000000e+00 0.0000e+00 1.0000e+00
<mgrwt>
<rscale>  1 0.65356398E+03</rscale>
<asrwt>0</asrwt>
<pdfrwt beam="1">  1        1 0.38831548E+00 0.65356398E+03</pdfrwt>
<pdfrwt beam="2">0</pdfrwt>
<totfact> 0.15067749E+00</totfact>
</mgrwt>
</event>
<event>
 6      1 +5.6466785e-02 6.62722000e+02 7.81860800e-03 9.78319600e-02
        1 -1    0    0  502    0 +0.0000000000e+00 +0.0000000000e+00 +1.0980122536e+02 1.0980122536e+02 0.0000000000e+00 0.0000e+00 1.0000e+00
       13 -1    0    0    0    0 -0.0000000000e+00 -0.0000000000e+00 -1.0000000000e+03 1.0000000000e+03 0.0000000000e+00 0.0000e+00 1.0000e+00
  9000005  2    1    2  501    0 +6.6551638113e-05 +4.6765450949e-05 -8.9019987670e+02 1.1098001203e+03 6.6272202812e+02 0.0000e+00 0.0000e+00
       13  1    3    3    0    0 +9.8445747094e+01 +3.1161348821e+00 -9.7491941920e+02 9.7988221198e+02 0.0000000000e+00 0.0000e+00 1.0000e+00
        3  1    3    3  501    0 -9.8445680543e+01 -3.1160881167e+00 +8.4719542501e+01 1.2991790833e+02 0.0000000000e+00 0.0000e+00 1.0000e+00
       21  1    1    2  502  501 -6.6551638103e-05 -4.6765450948e-05 +1.1020595943e-03 1.1050572281e-03 0.0000000000e+00 0.0000e+00 -1.0000e+00
<mgrwt>
<rscale>  1 0.66272203E+03</rscale>
<asrwt>0</asrwt>
<pdfrwt beam="1">  1        1 0.39927803E+00 0.66272203E+03</pdfrwt>
<pdfrwt beam="2">0</pdfrwt>
<totfact> 0.13445939E+00</totfact>
</mgrwt>
</event>
<event>
 6      1 +5.6466785e-02 6.50035300e+02 7.81860800e-03 9.80671300e-02
        1 -1    0    0  502    0 +0.0000000000e+00 +0.0000000000e+00 +1.0577489585e+02 1.0577489585e+02 0.0000000000e+00 0.0000e+00 1.0000e+00
       13 -1    0    0    0    0 -0.0000000000e+00 -0.0000000000e+00 -1.0000000000e+03 1.0000000000e+03 0.0000000000e+00 0.0000e+00 1.0000e+00
  9000005  2    1    2  501    0 +3.9138006508e-02 +3.3811362016e-01 -8.9407448649e+02 1.1054026885e+03 6.5003523027e+02 0.0000e+00 0.0000e+00
       13  1    3    3    0    0 +1.7445540216e+02 -1.9588242723e+02 -1.2081605823e+02 2.8879254243e+02 0.0000000000e+00 0.0000e+00 1.0000e+00
        1  1    3    3  501    0 -1.7441626415e+02 +1.9622054085e+02 -7.7325842826e+02 8.1661014610e+02 0.0000000000e+00 0.0000e+00 1.0000e+00
       21  1    1    2  502  501 -3.9138006508e-02 -3.3811362016e-01 -1.5061766214e-01 3.7220731298e-01 0.0000000000e+00 0.0000e+00 1.0000e+00
<mgrwt>
<rscale>  1 0.65003532E+03</rscale>
<asrwt>0</asrwt>
<pdfrwt beam="1">  1        1 0.38463680E+00 0.65003532E+03</pdfrwt>
<pdfrwt beam="2">0</pdfrwt>
<totfact> 0.15653656E+00</totfact>
</mgrwt>
</event>
<event>
 6      1 +5.6466785e-02 5.24789700e+02 7.81860800e-03 1.00750400e-01
        1 -1    0    0  502    0 +0.0000000000e+00 +0.0000000000e+00 +6.8857408291e+01 6.8857408291e+01 0.0000000000e+00 0.0000e+00 1.0000e+00
       13 -1    0    0    0    0 -0.0000000000e+00 -0.0000000000e+00 -1.0000000000e+03 1.0000000000e+03 0.0000000000e+00 0.0000e+00 1.0000e+00
  9000005  2    1    2  501    0 -6.0206413201e-03 +5.6450709908e-03 -9.3114600267e+02 1.0688484780e+03 5.2478966322e+02 0.0000e+00 0.0000e+00
       13  1    3    3    0    0 -1.9505027530e+02 -1.1526289038e+02 -7.3517211863e+02 7.6929070436e+02 0.0000000000e+00 0.0000e+00 1.0000e+00
        1  1    3    3  501    0 +1.9504425466e+02 +1.1526853545e+02 -1.9597388404e+02 2.9955777367e+02 0.0000000000e+00 0.0000e+00 1.0000e+00
       21  1    1    2  502  501 +6.0206413201e-03 -5.6450709908e-03 +3.4109627457e-03 8.9302640078e-03 0.0000000000e+00 0.0000e+00 1.0000e+00
<mgrwt>
<rscale>  1 0.52478966E+03</rscale>
<asrwt>0</asrwt>
<pdfrwt beam="1">  1        1 0.25039110E+00 0.52478966E+03</pdfrwt>
<pdfrwt beam="2">0</pdfrwt>
<totfact> 0.61261768E+00</totfact>
</mgrwt>
</event>
<event>
 6      1 +5.6466785e-02 6.51965600e+02 7.81860800e-03 9.80309800e-02
        1 -1    0    0  502    0 +0.0000000000e+00 +0.0000000000e+00 +1.0626477668e+02 1.0626477668e+02 0.0000000000e+00 0.0000e+00 1.0000e+00
       13 -1    0    0    0    0 -0.0000000000e+00 -0.0000000000e+00 -1.0000000000e+03 1.0000000000e+03 0.0000000000e+00 0.0000e+00 1.0000e+00
  9000005  2    1    2  501    0 +1.7673290245e-06 +1.8639084260e-05 -8.9373520851e+02 1.1062647528e+03 6.5196555153e+02 0.0000e+00 0.0000e+00
       13  1    3    3    0    0 +1.6677931936e+02 -1.6508355599e+02 -8.3080111566e+02 8.6330667529e+02 0.0000000000e+00 0.0000e+00 1.0000e+00
        3  1    3    3  501    0 -1.6677931759e+02 +1.6508357463e+02 -6.2934092854e+01 2.4295807752e+02 0.0000000000e+00 0.0000e+00 1.0000e+00
       21  1    1    2  502  501 -1.7673290038e-06 -1.8639084262e-05 -1.4804640886e-05 2.3868730710e-05 0.0000000000e+00 0.0000e+00 1.0000e+00
<mgrwt>
<rscale>  1 0.65196555E+03</rscale>
<asrwt>0</asrwt>
<pdfrwt beam="1">  1        1 0.38641818E+00 0.65196555E+03</pdfrwt>
<pdfrwt beam="2">0</pdfrwt>
<totfact> 0.15366654E+00</totfact>
</mgrwt>
</event>
<event>
 6      1 +5.6466785e-02 6.71303000e+02 7.81860800e-03 9.76760700e-02
        1 -1    0    0  502    0 +0.0000000000e+00 +0.0000000000e+00 +1.1266980685e+02 1.1266980685e+02 0.0000000000e+00 0.0000e+00 1.0000e+00
       13 -1    0    0    0    0 -0.0000000000e+00 -0.0000000000e+00 -1.0000000000e+03 1.0000000000e+03 0.0000000000e+00 0.0000e+00 1.0000e+00
  9000005  2    1    2  501    0 -4.7753892323e-04 +9.2184250974e-05 -8.8733807543e+02 1.1126619096e+03 6.7130296060e+02 0.0000e+00 0.0000e+00
       13  1    3    3    0    0 -2.2635880069e+02 -2.4215978665e+02 -3.5624147350e+02 4.8660831925e+02 0.0000000000e+00 0.0000e+00 1.0000e+00
        1  1    3    3  501    0 +2.2635832315e+02 +2.4215987884e+02 -5.3109660194e+02 6.2605359033e+02 0.0000000000e+00 0.0000e+00 1.0000e+00
       21  1    1    2  502  501 +4.7753892324e-04 -9.2184250961e-05 +7.8822855164e-03 7.8972758798e-03 0.0000000000e+00 0.0000e+00 -1.0000e+00
<mgrwt>
<rscale>  1 0.67130296E+03</rscale>
<asrwt>0</asrwt>
<pdfrwt beam="1">  1        1 0.40970925E+00 0.67130296E+03</pdfrwt>
<pdfrwt beam="2">0</pdfrwt>
<totfact> 0.12057355E+00</totfact>
</mgrwt>
</event>
<event>
 6      1 +5.6466785e-02 6.09667300e+02 7.81860800e-03 9.88555000e-02
        1 -1    0    0  502    0 +0.0000000000e+00 +0.0000000000e+00 +9.2940174858e+01 9.2940174858e+01 0.0000000000e+00 0.0000e+00 1.0000e+00
       13 -1    0    0    0    0 -0.0000000000e+00 -0.0000000000e+00 -1.0000000000e+03 1.0000000000e+03 0.0000000000e+00 0.0000e+00 1.0000e+00
  9000005  2    1    2  501    0 -1.2641944281e-02 -1.3698294867e-02 -9.0707056615e+02 1.0929186613e+03 6.0966727646e+02 0.0000e+00 0.0000e+00
       13  1    3    3    0    0 +1.8009852603e+02 -1.6071504541e+02 -7.8726942820e+02 8.2344274694e+02 0.0000000000e+00 0.0000e+00 1.0000e+00
        1  1    3    3  501    0 -1.8011116797e+02 +1.6070134711e+02 -1.1980113795e+02 2.6947591441e+02 0.0000000000e+00 0.0000e+00 1.0000e+00
       21  1    1    2  502  501 +1.2641944281e-02 +1.3698294867e-02 +1.0741009077e-02 2.1513514670e-02 0.0000000000e+00 0.0000e+00 1.0000e+00
<mgrwt>
<rscale>  1 0.60966728E+03</rscale>
<asrwt>0</asrwt>
<pdfrwt beam="1">  1        1 0.33796498E+00 0.60966728E+03</pdfrwt>
<pdfrwt beam="2">0</pdfrwt>
<totfact> 0.25240512E+00</totfact>
</mgrwt>
</event>
<event>
 6      1 +5.6466785e-02 6.27561400e+02 7.81860800e-03 9.84981900e-02
        1 -1    0    0  502    0 +0.0000000000e+00 +0.0000000000e+00 +1.0185996422e+02 1.0185996422e+02 0.0000000000e+00 0.0000e+00 1.0000e+00
       13 -1    0    0    0    0 -0.0000000000e+00 -0.0000000000e+00 -1.0000000000e+03 1.0000000000e+03 0.0000000000e+00 0.0000e+00 1.0000e+00
  9000005  2    1    2  501    0 +8.6941285773e+00 +4.0421204414e+00 -8.9135865256e+02 1.0901162950e+03 6.2748813728e+02 0.0000e+00 0.0000e+00
       13  1    3    3    0    0 +2.9011566843e+02 -6.7999359533e+01 -2.6132084745e+02 3.9633268762e+02 0.0000000000e+00 0.0000e+00 1.0000e+00
        1  1    3    3  501    0 -2.8142153986e+02 +7.2041479975e+01 -6.3003780512e+02 6.9378360734e+02 0.0000000000e+00 0.0000e+00 1.0000e+00
       21  1    1    2  502  501 -8.6941285773e+00 -4.0421204414e+00 -6.7813832173e+00 1.1743669261e+01 0.0000000000e+00 0.0000e+00 1.0000e+00
<mgrwt>
<rscale>  1 0.62756138E+03</rscale>
<asrwt>0</asrwt>
<pdfrwt beam="1">  1        1 0.37040065E+00 0.62756138E+03</pdfrwt>
<pdfrwt beam="2">0</pdfrwt>
<totfact> 0.18161320E+00</totfact>
</mgrwt>
</event>
<event>
 6      1 +5.6466785e-02 6.47672600e+02 7.81860800e-03 9.81115600e-02
        1 -1    0    0  502    0 +0.0000000000e+00 +0.0000000000e+00 +1.0487003504e+02 1.0487003504e+02 0.0000000000e+00 0.0000e+00 1.0000e+00
       13 -1    0    0    0    0 -0.0000000000e+00 -0.0000000000e+00 -1.0000000000e+03 1.0000000000e+03 0.0000000000e+00 0.0000e+00 1.0000e+00
  9000005  2    1    2  501    0 -4.5945401297e-05 +8.0894645862e-06 -8.9513002761e+02 1.1048699569e+03 6.4767264524e+02 0.0000e+00 0.0000e+00
       13  1    3    3    0    0 -9.0279320274e+01 -2.3472925397e+02 -9.9535584815e+01 2.7047275460e+02 0.0000000000e+00 0.0000e+00 1.0000e+00
        3  1    3    3  501    0 +9.0279274328e+01 +2.3472926206e+02 -7.9559444280e+02 8.3439720232e+02 0.0000000000e+00 0.0000e+00 1.0000e+00
       21  1    1    2  502  501 +4.5945401291e-05 -8.0894645902e-06 +6.2646888185e-05 7.8109230802e-05 0.0000000000e+00 0.0000e+00 1.0000e+00
<mgrwt>
<rscale>  1 0.64767265E+03</rscale>
<asrwt>0</asrwt>
<pdfrwt beam="1">  1        1 0.38134639E+00 0.64767265E+03</pdfrwt>
<pdfrwt beam="2">0</pdfrwt>
<totfact> 0.16193639E+00</totfact>
</mgrwt>
</event>
<event>
 6      1 +5.6466785e-02 6.46249100e+02 7.81860800e-03 9.81384300e-02
        1 -1    0    0  502    0 +0.0000000000e+00 +0.0000000000e+00 +1.0595261992e+02 1.0595261992e+02 0.0000000000e+00 0.0000e+00 1.0000e+00
       13 -1    0    0    0    0 -0.0000000000e+00 -0.0000000000e+00 -1.0000000000e+03 1.0000000000e+03 0.0000000000e+00 0.0000e+00 1.0000e+00
  9000005  2    1    2  501    0 +9.1108633262e-02 -4.2894960727e+00 -8.9099942677e+02 1.1006897218e+03 6.4623484668e+02 0.0000e+00 0.0000e+00
       13  1    3    3    0    0 -3.1773893142e+02 -5.4243938146e+01 -4.0073486715e+02 5.1428481128e+02 0.0000000000e+00 0.0000e+00 1.0000e+00
        3  1    3    3  501    0 +3.1783004006e+02 +4.9954442073e+01 -4.9026455963e+02 5.8640491051e+02 0.0000000000e+00 0.0000e+00 1.0000e+00
       21  1    1    2  502  501 -9.1108633262e-02 +4.2894960727e+00 -3.0479533084e+00 5.2628981285e+00 0.0000000000e+00 0.0000e+00 1.0000e+00
<mgrwt>
<rscale>  1 0.64624909E+03</rscale>
<asrwt>0</asrwt>
<pdfrwt beam="1">  1        1 0.38528307E+00 0.64624909E+03</pdfrwt>
<pdfrwt beam="2">0</pdfrwt>
<totfact> 0.15561878E+00</totfact>
</mgrwt>
</event>
<event>
 6      1 +5.6466785e-02 6.51293300e+02 7.81860800e-03 9.80435500e-02
        1 -1    0    0  502    0 +0.0000000000e+00 +0.0000000000e+00 +1.0637754124e+02 1.0637754124e+02 0.0000000000e+00 0.0000e+00 1.0000e+00
       13 -1    0    0    0    0 -0.0000000000e+00 -0.0000000000e+00 -1.0000000000e+03 1.0000000000e+03 0.0000000000e+00 0.0000e+00 1.0000e+00
  9000005  2    1    2  501    0 +2.8798431681e-01 +2.6395341818e-01 -8.9382204272e+02 1.1059388613e+03 6.5129315071e+02 0.0000e+00 0.0000e+00
       13  1    3    3    0    0 -1.2414701236e+02 -2.9923823955e+02 -4.9968962810e+02 5.9552139266e+02 0.0000000000e+00 0.0000e+00 1.0000e+00
        3  1    3    3  501    0 +1.2443499668e+02 +2.9950219296e+02 -3.9413241463e+02 5.1041746860e+02 0.0000000000e+00 0.0000e+00 1.0000e+00
       21  1    1    2  502  501 -2.8798431681e-01 -2.6395341818e-01 +1.9958396289e-01 4.3867998808e-01 0.0000000000e+00 0.0000e+00 1.0000e+00
<mgrwt>
<rscale>  1 0.65129327E+03</rscale>
<asrwt>0</asrwt>
<pdfrwt beam="1">  1        1 0.38682824E+00 0.65129327E+03</pdfrwt>
<pdfrwt beam="2">0</pdfrwt>
<totfact> 0.15304461E+00</totfact>
</mgrwt>
</event>
<event>
 6      1 +5.6466785e-02 6.52356500e+02 7.81860800e-03 9.80236700e-02
        1 -1    0    0  502    0 +0.0000000000e+00 +0.0000000000e+00 +1.0639268933e+02 1.0639268933e+02 0.0000000000e+00 0.0000e+00 1.0000e+00
       13 -1    0    0    0    0 -0.0000000000e+00 -0.0000000000e+00 -1.0000000000e+03 1.0000000000e+03 0.0000000000e+00 0.0000e+00 1.0000e+00
  9000005  2    1    2  501    0 -1.0105191117e-04 +2.0928727284e-04 -8.9360770764e+02 1.1063922293e+03 6.5235652060e+02 0.0000e+00 0.0000e+00
       13  1    3    3    0    0 -1.9816161532e+02 -2.0578637966e+02 -1.7984685307e+02 3.3758102790e+02 0.0000000000e+00 0.0000e+00 1.0000e+00
        3  1    3    3  501    0 +1.9816151427e+02 +2.0578658895e+02 -7.1376085457e+02 7.6881120143e+02 0.0000000000e+00 0.0000e+00 1.0000e+00
       21  1    1    2  502  501 +1.0105191119e-04 -2.0928727284e-04 +3.9697146394e-04 4.5999890707e-04 0.0000000000e+00 0.0000e+00 -1.0000e+00
<mgrwt>
<rscale>  1 0.65235652E+03</rscale>
<asrwt>0</asrwt>
<pdfrwt beam="1">  1        1 0.38688332E+00 0.65235652E+03</pdfrwt>
<pdfrwt beam="2">0</pdfrwt>
<totfact> 0.15292861E+00</totfact>
</mgrwt>
</event>
<event>
 6      1 +5.6466785e-02 5.80347700e+02 7.81860800e-03 9.94703800e-02
        1 -1    0    0  502    0 +0.0000000000e+00 +0.0000000000e+00 +8.4698076345e+01 8.4698076345e+01 0.0000000000e+00 0.0000e+00 1.0000e+00
       13 -1    0    0    0    0 -0.0000000000e+00 -0.0000000000e+00 -1.0000000000e+03 1.0000000000e+03 0.0000000000e+00 0.0000e+00 1.0000e+00
  9000005  2    1    2  501    0 -2.7667309996e-01 -5.3095406092e-02 -9.1575556418e+02 1.0841640756e+03 5.8034766307e+02 0.0000e+00 0.0000e+00
       13  1    3    3    0    0 +1.3403043055e+02 -2.5663820827e+02 -4.2286183210e+02 5.1248361467e+02 0.0000000000e+00 0.0000e+00 1.0000e+00
        1  1    3    3  501    0 -1.3430710365e+02 +2.5658511286e+02 -4.9289373208e+02 5.7168046088e+02 0.0000000000e+00 0.0000e+00 1.0000e+00
       21  1    1    2  502  501 +2.7667309996e-01 +5.3095406092e-02 +4.5364052024e-01 5.3400079400e-01 0.0000000000e+00 0.0000e+00 -1.0000e+00
<mgrwt>
<rscale>  1 0.58034773E+03</rscale>
<asrwt>0</asrwt>
<pdfrwt beam="1">  1        1 0.30799365E+00 0.58034773E+03</pdfrwt>
<pdfrwt beam="2">0</pdfrwt>
<totfact> 0.34200287E+00</totfact>
</mgrwt>
</event>
<event>
 6      1 +5.6466785e-02 6.50462000e+02 7.81860800e-03 9.80591300e-02
        1 -1    0    0  502    0 +0.0000000000e+00 +0.0000000000e+00 +1.0837818304e+02 1.0837818304e+02 0.0000000000e+00 0.0000e+00 1.0000e+00
       13 -1    0    0    0    0 -0.0000000000e+00 -0.0000000000e+00 -1.0000000000e+03 1.0000000000e+03 0.0000000000e+00 0.0000e+00 1.0000e+00
  9000005  2    1    2  501    0 -4.3859181075e-02 -1.7242700850e+00 -8.9390508189e+02 1.1055166573e+03 6.5045969056e+02 0.0000e+00 0.0000e+00
       13  1    3    3    0    0 +1.8452965283e+02 +2.4797079695e+02 -2.7779741333e+02 4.1558646726e+02 0.0000000000e+00 0.0000e+00 1.0000e+00
        3  1    3    3  501    0 -1.8457351201e+02 -2.4969506703e+02 -6.1610766856e+02 6.8993019002e+02 0.0000000000e+00 0.0000e+00 1.0000e+00
       21  1    1    2  502  501 +4.3859181075e-02 +1.7242700850e+00 +2.2832649388e+00 2.8615257703e+00 0.0000000000e+00 0.0000e+00 -1.0000e+00
<mgrwt>
<rscale>  1 0.65046198E+03</rscale>
<asrwt>0</asrwt>
<pdfrwt beam="1">  1        1 0.39410331E+00 0.65046198E+03</pdfrwt>
<pdfrwt beam="2">0</pdfrwt>
<totfact> 0.14210805E+00</totfact>
</mgrwt>
</event>
<event>
 6      1 +5.6466785e-02 6.49234600e+02 7.81860800e-03 9.80821600e-02
        1 -1    0    0  502    0 +0.0000000000e+00 +0.0000000000e+00 +1.0537703221e+02 1.0537703221e+02 0.0000000000e+00 0.0000e+00 1.0000e+00
       13 -1    0    0    0    0 -0.0000000000e+00 -0.0000000000e+00 -1.0000000000e+03 1.0000000000e+03 0.0000000000e+00 0.0000e+00 1.0000e+00
  9000005  2    1    2  501    0 +6.9906144660e-05 +2.1784910302e-06 -8.9462361303e+02 1.1053763832e+03 6.4923457975e+02 0.0000e+00 0.0000e+00
       13  1    3    3    0    0 -1.4225148262e+02 +1.2093413937e+02 +4.8062510108e+00 1.8677165315e+02 0.0000000000e+00 0.0000e+00 1.0000e+00
        3  1    3    3  501    0 +1.4225155252e+02 -1.2093413719e+02 -8.9942986404e+02 9.1860473004e+02 0.0000000000e+00 0.0000e+00 1.0000e+00
       21  1    1    2  502  501 -6.9906144651e-05 -2.1784910336e-06 +6.4523747957e-04 6.4901696428e-04 0.0000000000e+00 0.0000e+00 1.0000e+00
<mgrwt>
<rscale>  1 0.64923458E+03</rscale>
<asrwt>0</asrwt>
<pdfrwt beam="1">  1        1 0.38319002E+00 0.64923458E+03</pdfrwt>
<pdfrwt beam="2">0</pdfrwt>
<totfact> 0.15888243E+00</totfact>
</mgrwt>
</event>
<event>
 6      1 +5.6466785e-02 6.60873200e+02 7.81860800e-03 9.78658800e-02
        1 -1    0    0  502    0 +0.0000000000e+00 +0.0000000000e+00 +1.0918907986e+02 1.0918907986e+02 0.0000000000e+00 0.0000e+00 1.0000e+00
       13 -1    0    0    0    0 -0.0000000000e+00 -0.0000000000e+00 -1.0000000000e+03 1.0000000000e+03 0.0000000000e+00 0.0000e+00 1.0000e+00
  9000005  2    1    2  501    0 +1.2929697783e-04 +6.3940408818e-05 -8.9081164493e+02 1.1091883409e+03 6.6087320170e+02 0.0000e+00 0.0000e+00
       13  1    3    3    0    0 -3.1124901616e+02 -1.9322922501e+01 -6.2879367791e+02 7.0187663786e+02 0.0000000000e+00 0.0000e+00 1.0000e+00
        1  1    3    3  501    0 +3.1124914545e+02 +1.9322986441e+01 -2.6201796702e+02 4.0731170299e+02 0.0000000000e+00 0.0000e+00 1.0000e+00
       21  1    1    2  502  501 -1.2929697781e-04 -6.3940408817e-05 +7.2479565734e-04 7.3900935667e-04 0.0000000000e+00 0.0000e+00 -1.0000e+00
<mgrwt>
<rscale>  1 0.66087320E+03</rscale>
<asrwt>0</asrwt>
<pdfrwt beam="1">  1        1 0.39705204E+00 0.66087320E+03</pdfrwt>
<pdfrwt beam="2">0</pdfrwt>
<totfact> 0.13761228E+00</totfact>
</mgrwt>
</event>
<event>
 6      1 +5.6466785e-02 6.11667700e+02 7.81860800e-03 9.88149100e-02
        1 -1    0    0  502    0 +0.0000000000e+00 +0.0000000000e+00 +9.3543157118e+01 9.3543157118e+01 0.0000000000e+00 0.0000e+00 1.0000e+00
       13 -1    0    0    0    0 -0.0000000000e+00 -0.0000000000e+00 -1.0000000000e+03 1.0000000000e+03 0.0000000000e+00 0.0000e+00 1.0000e+00
  9000005  2    1    2  501    0 -8.4498902546e-03 -4.9088134113e-03 -9.0646262282e+02 1.0935318035e+03 6.1166765371e+02 0.0000e+00 0.0000e+00
       13  1    3    3    0    0 -2.8871592258e+02 +1.0083508785e+02 -4.5934475962e+02 5.5183530793e+02 0.0000000000e+00 0.0000e+00 1.0000e+00
        3  1    3    3  501    0 +2.8870747269e+02 -1.0083999666e+02 -4.4711786320e+02 5.4169649556e+02 0.0000000000e+00 0.0000e+00 1.0000e+00
       21  1    1    2  502  501 +8.4498902546e-03 +4.9088134113e-03 +5.7799348986e-03 1.1353622411e-02 0.0000000000e+00 0.0000e+00 1.0000e+00
<mgrwt>
<rscale>  1 0.61166765E+03</rscale>
<asrwt>0</asrwt>
<pdfrwt beam="1">  1        1 0.34015765E+00 0.61166765E+03</pdfrwt>
<pdfrwt beam="2">0</pdfrwt>
<totfact> 0.24684439E+00</totfact>
</mgrwt>
</event>
<event>
 6      1 +5.6466785e-02 6.46795300e+02 7.81860800e-03 9.81281100e-02
        1 -1    0    0  502    0 +0.0000000000e+00 +0.0000000000e+00 +1.1175255932e+02 1.1175255932e+02 0.0000000000e+00 0.0000e+00 1.0000e+00
       13 -1    0    0    0    0 -0.0000000000e+00 -0.0000000000e+00 -1.0000000000e+03 1.0000000000e+03 0.0000000000e+00 0.0000e+00 1.0000e+00
  9000005  2    1    2  501    0 -6.3495083048e-01 -7.9710554985e-01 -8.9537390593e+02 1.1045535978e+03 6.4679454270e+02 0.0000e+00 0.0000e+00
       13  1    3    3    0    0 -3.1034558807e+02 -7.0490924648e+01 -3.4639804416e+02 4.7039872395e+02 0.0000000000e+00 0.0000e+00 1.0000e+00
        3  1    3    3  501    0 +3.0971063724e+02 +6.9693819098e+01 -5.4897586177e+02 6.3415487386e+02 0.0000000000e+00 0.0000e+00 1.0000e+00
       21  1    1    2  502  501 +6.3495083048e-01 +7.9710554985e-01 +7.1264652579e+00 7.1989615144e+00 0.0000000000e+00 0.0000e+00 1.0000e+00
<mgrwt>
<rscale>  1 0.64679535E+03</rscale>
<asrwt>0</asrwt>
<pdfrwt beam="1">  1        1 0.40637380E+00 0.64679535E+03</pdfrwt>
<pdfrwt beam="2">0</pdfrwt>
<totfact> 0.12537869E+00</totfact>
</mgrwt>
</event>
<event>
 6      1 +5.6466785e-02 6.48771900e+02 7.81860800e-03 9.80908600e-02
        1 -1    0    0  502    0 +0.0000000000e+00 +0.0000000000e+00 +1.0522624733e+02 1.0522624733e+02 0.0000000000e+00 0.0000e+00 1.0000e+00
       13 -1    0    0    0    0 -0.0000000000e+00 -0.0000000000e+00 -1.0000000000e+03 1.0000000000e+03 0.0000000000e+00 0.0000e+00 1.0000e+00
  9000005  2    1    2  501    0 -1.9857749294e-06 -2.5899290534e-06 -8.9477376113e+02 1.1052262383e+03 6.4877188143e+02 0.0000e+00 0.0000e+00
       13  1    3    3    0    0 -2.6145351073e+02 -1.0133940194e+02 -1.6955071790e+02 3.2768133697e+02 0.0000000000e+00 0.0000e+00 1.0000e+00
        3  1    3    3  501    0 +2.6145350874e+02 +1.0133939935e+02 -7.2522304323e+02 7.7754490129e+02 0.0000000000e+00 0.0000e+00 1.0000e+00
       21  1    1    2  502  501 +1.9857749060e-06 +2.5899290506e-06 +8.4577885771e-06 9.0656065478e-06 0.0000000000e+00 0.0000e+00 -1.0000e+00
<mgrwt>
<rscale>  1 0.64877188E+03</rscale>
<asrwt>0</asrwt>
<pdfrwt beam="1">  1        1 0.38264171E+00 0.64877188E+03</pdfrwt>
<pdfrwt beam="2">0</pdfrwt>
<totfact> 0.15978487E+00</totfact>
</mgrwt>
</event>
<event>
 6      1 +5.6466785e-02 6.38646200e+02 7.81860800e-03 9.82832000e-02
        1 -1    0    0  502    0 +0.0000000000e+00 +0.0000000000e+00 +1.0215660099e+02 1.0215660099e+02 0.0000000000e+00 0.0000e+00 1.0000e+00
       13 -1    0    0    0    0 -0.0000000000e+00 -0.0000000000e+00 -1.0000000000e+03 1.0000000000e+03 0.0000000000e+00 0.0000e+00 1.0000e+00
  9000005  2    1    2  501    0 -2.2503706771e-01 -3.1602521746e-01 -8.9778338680e+02 1.1017640260e+03 6.3864607489e+02 0.0000e+00 0.0000e+00
       13  1    3    3    0    0 -2.8701921943e+02 -9.0473803832e+01 -6.3405733894e+02 7.0185058992e+02 0.0000000000e+00 0.0000e+00 1.0000e+00
        1  1    3    3  501    0 +2.8679418236e+02 +9.0157778614e+01 -2.6372604786e+02 3.9991343613e+02 0.0000000000e+00 0.0000e+00 1.0000e+00
       21  1    1    2  502  501 +2.2503706771e-01 +3.1602521746e-01 -6.0012206820e-02 3.9257494174e-01 0.0000000000e+00 0.0000e+00 1.0000e+00
<mgrwt>
<rscale>  1 0.63864619E+03</rscale>
<asrwt>0</asrwt>
<pdfrwt beam="1">  1        1 0.37147933E+00 0.63864619E+03</pdfrwt>
<pdfrwt beam="2">0</pdfrwt>
<totfact> 0.17927702E+00</totfact>
</mgrwt>
</event>
<event>
 6      1 +5.6466785e-02 6.39244700e+02 7.81860800e-03 9.82717300e-02
        1 -1    0    0  502    0 +0.0000000000e+00 +0.0000000000e+00 +1.0348501985e+02 1.0348501985e+02 0.0000000000e+00 0.0000e+00 1.0000e+00
       13 -1    0    0    0    0 -0.0000000000e+00 -0.0000000000e+00 -1.0000000000e+03 1.0000000000e+03 0.0000000000e+00 0.0000e+00 1.0000e+00
  9000005  2    1    2  501    0 +2.6234976744e+00 -8.1323418368e-01 -8.9604964040e+02 1.1006992289e+03 6.3923883677e+02 0.0000e+00 0.0000e+00
       13  1    3    3    0    0 -3.0540058217e+02 +6.2037223527e+00 -6.0066173177e+02 6.7387129170e+02 0.0000000000e+00 0.0000e+00 1.0000e+00
        3  1    3    3  501    0 +3.0802407985e+02 -7.0169565364e+00 -2.9538790863e+02 4.2682793724e+02 0.0000000000e+00 0.0000e+00 1.0000e+00
       21  1    1    2  502  501 -2.6234976744e+00 +8.1323418368e-01 -4.6533975808e-01 2.7857909067e+00 0.0000000000e+00 0.0000e+00 -1.0000e+00
<mgrwt>
<rscale>  1 0.63924474E+03</rscale>
<asrwt>0</asrwt>
<pdfrwt beam="1">  1        1 0.37630996E+00 0.63924474E+03</pdfrwt>
<pdfrwt beam="2">0</pdfrwt>
<totfact> 0.17069706E+00</totfact>
</mgrwt>
</event>
<event>
 6      1 +5.6466785e-02 6.51685500e+02 7.81860800e-03 9.80362200e-02
        1 -1    0    0  502    0 +0.0000000000e+00 +0.0000000000e+00 +1.0617875375e+02 1.0617875375e+02 0.0000000000e+00 0.0000e+00 1.0000e+00
       13 -1    0    0    0    0 -0.0000000000e+00 -0.0000000000e+00 -1.0000000000e+03 1.0000000000e+03 0.0000000000e+00 0.0000e+00 1.0000e+00
  9000005  2    1    2  501    0 +3.7280786792e-03 +2.1406321418e-03 -8.9382549894e+02 1.1061727067e+03 6.5168553349e+02 0.0000e+00 0.0000e+00
       13  1    3    3    0    0 +2.8315830351e+02 +7.0372245697e+01 -6.9314889351e+02 7.5205469641e+02 0.0000000000e+00 0.0000e+00 1.0000e+00
        1  1    3    3  501    0 -2.8315457544e+02 -7.0370105064e+01 -2.0067660543e+02 3.5411801034e+02 0.0000000000e+00 0.0000e+00 1.0000e+00
       21  1    1    2  502  501 -3.7280786792e-03 -2.1406321418e-03 +4.2526914479e-03 6.0470043126e-03 0.0000000000e+00 0.0000e+00 1.0000e+00
<mgrwt>
<rscale>  1 0.65168553E+03</rscale>
<asrwt>0</asrwt>
<pdfrwt beam="1">  1        1 0.38610537E+00 0.65168553E+03</pdfrwt>
<pdfrwt beam="2">0</pdfrwt>
<totfact> 0.15416519E+00</totfact>
</mgrwt>
</event>
<event>
 6      1 +5.6466785e-02 4.60403000e+02 7.81860800e-03 1.02466400e-01
        1 -1    0    0  502    0 +0.0000000000e+00 +0.0000000000e+00 +6.9816500989e+01 6.9816500989e+01 0.0000000000e+00 0.0000e+00 1.0000e+00
       13 -1    0    0    0    0 -0.0000000000e+00 -0.0000000000e+00 -1.0000000000e+03 1.0000000000e+03 0.0000000000e+00 0.0000e+00 1.0000e+00
  9000005  2    1    2  501    0 -2.1966109740e+00 -6.6310731826e+00 -9.4624195428e+02 1.0523044989e+03 4.6035000396e+02 0.0000e+00 0.0000e+00
       13  1    3    3    0    0 -1.6735255131e+02 -8.8831578320e+01 -1.7036968289e+02 2.5480140225e+02 0.0000000000e+00 0.0000e+00 1.0000e+00
        1  1    3    3  501    0 +1.6515594034e+02 +8.2200505137e+01 -7.7587227139e+02 7.9750309666e+02 0.0000000000e+00 0.0000e+00 1.0000e+00
       21  1    1    2  502  501 +2.1966109740e+00 +6.6310731826e+00 +1.6058455270e+01 1.7512002084e+01 0.0000000000e+00 0.0000e+00 1.0000e+00
<mgrwt>
<rscale>  1 0.46040300E+03</rscale>
<asrwt>0</asrwt>
<pdfrwt beam="1">  1        1 0.25387872E+00 0.46040300E+03</pdfrwt>
<pdfrwt beam="2">0</pdfrwt>
<totfact> 0.59849370E+00</totfact>
</mgrwt>
</event>
<event>
 6      1 +5.6466785e-02 6.46675100e+02 7.81860800e-03 9.81303800e-02
        3 -1    0    0  502    0 +0.0000000000e+00 +0.0000000000e+00 +1.0846703451e+02 1.0846703451e+02 0.0000000000e+00 0.0000e+00 1.0000e+00
       13 -1    0    0    0    0 -0.0000000000e+00 -0.0000000000e+00 -1.0000000000e+03 1.0000000000e+03 0.0000000000e+00 0.0000e+00 1.0000e+00
  9000005  2    1    2  501    0 +3.9737339917e-02 +6.7488122944e-02 -8.9545239104e+02 1.1045468266e+03 6.4667511266e+02 0.0000e+00 0.0000e+00
       13  1    3    3    0    0 +2.1094691964e+02 -2.1402719565e+02 -6.5149938227e+02 7.1746615842e+02 0.0000000000e+00 0.0000e+00 1.0000e+00
        3  1    3    3  501    0 -2.1090718230e+02 +2.1409468377e+02 -2.4395300877e+02 3.8708066814e+02 0.0000000000e+00 0.0000e+00 1.0000e+00
       21  1    1    2  502  501 -3.9737339917e-02 -6.7488122944e-02 +3.9194255472e+00 3.9202079438e+00 0.0000000000e+00 0.0000e+00 1.0000e+00
<mgrwt>
<rscale>  1 0.64667512E+03</rscale>
<asrwt>0</asrwt>
<pdfrwt beam="1">  1        3 0.39442641E+00 0.64667512E+03</pdfrwt>
<pdfrwt beam="2">0</pdfrwt>
<totfact> 0.63399983E-02</totfact>
</mgrwt>
</event>
<event>
 6      1 +5.6466785e-02 6.46426200e+02 7.81860800e-03 9.81350800e-02
        1 -1    0    0  502    0 +0.0000000000e+00 +0.0000000000e+00 +1.0446703082e+02 1.0446703082e+02 0.0000000000e+00 0.0000e+00 1.0000e+00
       13 -1    0    0    0    0 -0.0000000000e+00 -0.0000000000e+00 -1.0000000000e+03 1.0000000000e+03 0.0000000000e+00 0.0000e+00 1.0000e+00
  9000005  2    1    2  501    0 +6.0657299158e-04 -9.9633934553e-05 -8.9553291390e+02 1.1044664136e+03 6.4642622083e+02 0.0000e+00 0.0000e+00
       13  1    3    3    0    0 -3.0298377802e+01 -2.6990534824e+02 -7.4713184953e+02 7.9496722529e+02 0.0000000000e+00 0.0000e+00 1.0000e+00
        1  1    3    3  501    0 +3.0298984375e+01 +2.6990524861e+02 -1.4840106437e+02 3.0949918834e+02 0.0000000000e+00 0.0000e+00 1.0000e+00
       21  1    1    2  502  501 -6.0657299158e-04 +9.9633934590e-05 -5.5282974136e-05 6.1718224397e-04 0.0000000000e+00 0.0000e+00 -1.0000e+00
<mgrwt>
<rscale>  1 0.64642622E+03</rscale>
<asrwt>0</asrwt>
<pdfrwt beam="1">  1        1 0.37988091E+00 0.64642622E+03</pdfrwt>
<pdfrwt beam="2">0</pdfrwt>
<totfact> 0.16440384E+00</totfact>
</mgrwt>
</event>
<event>
 6      1 +5.6466785e-02 4.65880400e+02 7.81860800e-03 1.02308900e-01
        3 -1    0    0  502    0 +0.0000000000e+00 +0.0000000000e+00 +5.4521029774e+01 5.4521029774e+01 0.0000000000e+00 0.0000e+00 1.0000e+00
       13 -1    0    0    0    0 -0.0000000000e+00 -0.0000000000e+00 -1.0000000000e+03 1.0000000000e+03 0.0000000000e+00 0.0000e+00 1.0000e+00
  9000005  2    1    2  501    0 +9.0776895550e-01 -4.2959714463e-03 -9.4468147574e+02 1.0533127002e+03 4.6587952274e+02 0.0000e+00 0.0000e+00
       13  1    3    3    0    0 +2.1226744858e+02 -3.9493729316e+01 -2.7303332014e+02 3.4808679706e+02 0.0000000000e+00 0.0000e+00 1.0000e+00
        3  1    3    3  501    0 -2.1135967963e+02 +3.9489433345e+01 -6.7164815560e+02 7.0522590313e+02 0.0000000000e+00 0.0000e+00 1.0000e+00
       21  1    1    2  502  501 -9.0776895550e-01 +4.2959714463e-03 -7.9749448695e-01 1.2083295861e+00 0.0000000000e+00 0.0000e+00 1.0000e+00
<mgrwt>
<rscale>  1 0.46588041E+03</rscale>
<asrwt>0</asrwt>
<pdfrwt beam="1">  1        3 0.19825871E+00 0.46588041E+03</pdfrwt>
<pdfrwt beam="2">0</pdfrwt>
<totfact> 0.78696254E-01</totfact>
</mgrwt>
</event>
<event>
 6      1 +5.6466785e-02 6.32148900e+02 7.81860800e-03 9.84086400e-02
        1 -1    0    0  502    0 +0.0000000000e+00 +0.0000000000e+00 +9.9903060565e+01 9.9903060565e+01 0.0000000000e+00 0.0000e+00 1.0000e+00
       13 -1    0    0    0    0 -0.0000000000e+00 -0.0000000000e+00 -1.0000000000e+03 1.0000000000e+03 0.0000000000e+00 0.0000e+00 1.0000e+00
  9000005  2    1    2  501    0 -1.8165571220e-05 +1.1267128855e-05 -9.0009693882e+02 1.0999030392e+03 6.3214887196e+02 0.0000e+00 0.0000e+00
       13  1    3    3    0    0 +8.8097549511e+01 +1.8213511395e+02 -8.7256694860e+02 8.9571617031e+02 0.0000000000e+00 0.0000e+00 1.0000e+00
        3  1    3    3  501    0 -8.8097567677e+01 -1.8213510268e+02 -2.7529990223e+01 2.0418686887e+02 0.0000000000e+00 0.0000e+00 1.0000e+00
       21  1    1    2  502  501 +1.8165571223e-05 -1.1267128837e-05 -6.1340382399e-07 2.1384864609e-05 0.0000000000e+00 0.0000e+00 1.0000e+00
<mgrwt>
<rscale>  1 0.63214887E+03</rscale>
<asrwt>0</asrwt>
<pdfrwt beam="1">  1        1 0.36328462E+00 0.63214887E+03</pdfrwt>
<pdfrwt beam="2">0</pdfrwt>
<totfact> 0.19497834E+00</totfact>
</mgrwt>
</event>
<event>
 6      1 +5.6466785e-02 6.53610100e+02 7.81860800e-03 9.80002900e-02
        1 -1    0    0  502    0 +0.0000000000e+00 +0.0000000000e+00 +1.1070310676e+02 1.1070310676e+02 0.0000000000e+00 0.0000e+00 1.0000e+00
       13 -1    0    0    0    0 -0.0000000000e+00 -0.0000000000e+00 -1.0000000000e+03 1.0000000000e+03 0.0000000000e+00 0.0000e+00 1.0000e+00
  9000005  2    1    2  501    0 +1.5257711669e-01 +4.8764809702e-03 -8.9319681182e+02 1.1068002016e+03 6.5361006600e+02 0.0000e+00 0.0000e+00
       13  1    3    3    0    0 +9.7128570248e+01 -1.8128039266e+02 -1.6503167330e+01 2.0632230721e+02 0.0000000000e+00 0.0000e+00 1.0000e+00
        3  1    3    3  501    0 -9.6975993132e+01 +1.8128526914e+02 -8.7669364449e+02 9.0047789442e+02 0.0000000000e+00 0.0000e+00 1.0000e+00
       21  1    1    2  502  501 -1.5257711669e-01 -4.8764809702e-03 +3.8999185821e+00 3.9029051364e+00 0.0000000000e+00 0.0000e+00 1.0000e+00
<mgrwt>
<rscale>  1 0.65361008E+03</rscale>
<asrwt>0</asrwt>
<pdfrwt beam="1">  1        1 0.40255760E+00 0.65361008E+03</pdfrwt>
<pdfrwt beam="2">0</pdfrwt>
<totfact> 0.13022904E+00</totfact>
</mgrwt>
</event>
<event>
 6      1 +5.6466785e-02 6.49113000e+02 7.81860800e-03 9.80844500e-02
        1 -1    0    0  502    0 +0.0000000000e+00 +0.0000000000e+00 +1.0589852733e+02 1.0589852733e+02 0.0000000000e+00 0.0000e+00 1.0000e+00
       13 -1    0    0    0    0 -0.0000000000e+00 -0.0000000000e+00 -1.0000000000e+03 1.0000000000e+03 0.0000000000e+00 0.0000e+00 1.0000e+00
  9000005  2    1    2  501    0 -1.4498974116e-02 +2.3796154612e-02 -8.9466269923e+02 1.1053366094e+03 6.4911299016e+02 0.0000e+00 0.0000e+00
       13  1    3    3    0    0 -2.7109606269e+02 -1.5654471306e+02 -3.0146472522e+02 4.3460361589e+02 0.0000000000e+00 0.0000e+00 1.0000e+00
        1  1    3    3  501    0 +2.7108156372e+02 +1.5656850921e+02 -5.9319797401e+02 6.7073299354e+02 0.0000000000e+00 0.0000e+00 1.0000e+00
       21  1    1    2  502  501 +1.4498974116e-02 -2.3796154612e-02 +5.6122655506e-01 5.6191789732e-01 0.0000000000e+00 0.0000e+00 -1.0000e+00
<mgrwt>
<rscale>  1 0.64911299E+03</rscale>
<asrwt>0</asrwt>
<pdfrwt beam="1">  1        1 0.38508637E+00 0.64911299E+03</pdfrwt>
<pdfrwt beam="2">0</pdfrwt>
<totfact> 0.15584808E+00</totfact>
</mgrwt>
</event>
<event>
 6      1 +5.6466785e-02 6.16866200e+02 7.81860800e-03 9.87101900e-02
        1 -1    0    0  502    0 +0.0000000000e+00 +0.0000000000e+00 +9.5130970473e+01 9.5130970473e+01 0.0000000000e+00 0.0000e+00 1.0000e+00
       13 -1    0    0    0    0 -0.0000000000e+00 -0.0000000000e+00 -1.0000000000e+03 1.0000000000e+03 0.0000000000e+00 0.0000e+00 1.0000e+00
  9000005  2    1    2  501    0 -5.2721874226e-06 -1.3957515499e-06 -9.0486903457e+02 1.0951309630e+03 6.1686615768e+02 0.0000e+00 0.0000e+00
       13  1    3    3    0    0 -7.3544683073e+01 -2.1829216953e+01 -9.8279186805e+02 9.8578151283e+02 0.0000000000e+00 0.0000e+00 1.0000e+00
        1  1    3    3  501    0 +7.3544677801e+01 +2.1829215557e+01 +7.7922833480e+01 1.0934945021e+02 0.0000000000e+00 0.0000e+00 1.0000e+00
       21  1    1    2  502  501 +5.2721874247e-06 +1.3957515486e-06 +5.0466740458e-06 7.4305451719e-06 0.0000000000e+00 0.0000e+00 1.0000e+00
<mgrwt>
<rscale>  1 0.61686616E+03</rscale>
<asrwt>0</asrwt>
<pdfrwt beam="1">  1        1 0.34593153E+00 0.61686616E+03</pdfrwt>
<pdfrwt beam="2">0</pdfrwt>
<totfact> 0.23276665E+00</totfact>
</mgrwt>
</event>
<event>
 6      1 +5.6466785e-02 6.43655400e+02 7.81860800e-03 9.81875800e-02
        1 -1    0    0  502    0 +0.0000000000e+00 +0.0000000000e+00 +1.0357332998e+02 1.0357332998e+02 0.0000000000e+00 0.0000e+00 1.0000e+00
       13 -1    0    0    0    0 -0.0000000000e+00 -0.0000000000e+00 -1.0000000000e+03 1.0000000000e+03 0.0000000000e+00 0.0000e+00 1.0000e+00
  9000005  2    1    2  501    0 +1.4083687269e-05 -1.0642461802e-05 -8.9642692919e+02 1.1035730702e+03 6.4365540619e+02 0.0000e+00 0.0000e+00
       13  1    3    3    0    0 -1.9413437886e+01 +2.7386037145e+02 -1.6031013232e+02 3.1792408393e+02 0.0000000000e+00 0.0000e+00 1.0000e+00
        3  1    3    3  501    0 +1.9413451970e+01 -2.7386038209e+02 -7.3611679687e+02 7.8564898628e+02 0.0000000000e+00 0.0000e+00 1.0000e+00
       21  1    1    2  502  501 -1.4083687270e-05 +1.0642461801e-05 +2.5917008996e-04 2.5977056756e-04 0.0000000000e+00 0.0000e+00 -1.0000e+00
<mgrwt>
<rscale>  1 0.64365541E+03</rscale>
<asrwt>0</asrwt>
<pdfrwt beam="1">  1        1 0.37663109E+00 0.64365541E+03</pdfrwt>
<pdfrwt beam="2">0</pdfrwt>
<totfact> 0.17000425E+00</totfact>
</mgrwt>
</event>
<event>
 6      1 +5.6466785e-02 6.53302200e+02 7.81860800e-03 9.80060200e-02
        1 -1    0    0  502    0 +0.0000000000e+00 +0.0000000000e+00 +1.1729167803e+02 1.1729167803e+02 0.0000000000e+00 0.0000e+00 1.0000e+00
       13 -1    0    0    0    0 -0.0000000000e+00 -0.0000000000e+00 -1.0000000000e+03 1.0000000000e+03 0.0000000000e+00 0.0000e+00 1.0000e+00
  9000005  2    1    2  501    0 +2.4237476797e+00 -2.2886449483e-01 -8.9314399920e+02 1.1065757884e+03 6.5329766965e+02 0.0000e+00 0.0000e+00
       13  1    3    3    0    0 -3.2256054687e+02 +2.4487138567e+01 -3.8462408963e+02 5.0257399124e+02 0.0000000000e+00 0.0000e+00 1.0000e+00
        3  1    3    3  501    0 +3.2498429455e+02 -2.4716003062e+01 -5.0851990957e+02 6.0400179713e+02 0.0000000000e+00 0.0000e+00 1.0000e+00
       21  1    1    2  502  501 -2.4237476797e+00 +2.2886449483e-01 +1.0435677229e+01 1.0715889651e+01 0.0000000000e+00 0.0000e+00 -1.0000e+00
<mgrwt>
<rscale>  1 0.65330221E+03</rscale>
<asrwt>0</asrwt>
<pdfrwt beam="1">  1        1 0.42651609E+00 0.65330221E+03</pdfrwt>
<pdfrwt beam="2">0</pdfrwt>
<totfact> 0.10162987E+00</totfact>
</mgrwt>
</event>
<event>
 6      1 +5.6466785e-02 6.44486500e+02 7.81860800e-03 9.81718000e-02
        1 -1    0    0  502    0 +0.0000000000e+00 +0.0000000000e+00 +1.0385937993e+02 1.0385937993e+02 0.0000000000e+00 0.0000e+00 1.0000e+00
       13 -1    0    0    0    0 -0.0000000000e+00 -0.0000000000e+00 -1.0000000000e+03 1.0000000000e+03 0.0000000000e+00 0.0000e+00 1.0000e+00
  9000005  2    1    2  501    0 -1.6625651739e-02 +6.0979162342e-03 -8.9615453705e+02 1.1038368571e+03 6.4448650291e+02 0.0000e+00 0.0000e+00
       13  1    3    3    0    0 -2.5745412623e+02 -1.0922427877e+02 -7.2229315021e+02 7.7454500517e+02 0.0000000000e+00 0.0000e+00 1.0000e+00
        1  1    3    3  501    0 +2.5743750058e+02 +1.0923037669e+02 -1.7386138684e+02 3.2929185190e+02 0.0000000000e+00 0.0000e+00 1.0000e+00
       21  1    1    2  502  501 +1.6625651739e-02 -6.0979162342e-03 +1.3916986530e-02 2.2522863766e-02 0.0000000000e+00 0.0000e+00 -1.0000e+00
<mgrwt>
<rscale>  1 0.64448650E+03</rscale>
<asrwt>0</asrwt>
<pdfrwt beam="1">  1        1 0.37767127E+00 0.64448650E+03</pdfrwt>
<pdfrwt beam="2">0</pdfrwt>
<totfact> 0.16819394E+00</totfact>
</mgrwt>
</event>
<event>
 6      1 +5.6466785e-02 6.34907600e+02 7.81860800e-03 9.83551900e-02
        1 -1    0    0  502    0 +0.0000000000e+00 +0.0000000000e+00 +1.0077692940e+02 1.0077692940e+02 0.0000000000e+00 0.0000e+00 1.0000e+00
       13 -1    0    0    0    0 -0.0000000000e+00 -0.0000000000e+00 -1.0000000000e+03 1.0000000000e+03 0.0000000000e+00 0.0000e+00 1.0000e+00
  9000005  2    1    2  501    0 -6.7951379634e-06 -2.7397277336e-07 -8.9922308874e+02 1.1007769100e+03 6.3490758565e+02 0.0000e+00 0.0000e+00
       13  1    3    3    0    0 -8.9243849831e+01 +3.0402155033e+02 -4.1566600437e+02 5.2265839224e+02 0.0000000000e+00 0.0000e+00 1.0000e+00
        3  1    3    3  501    0 +8.9243843036e+01 -3.0402155060e+02 -4.8355708438e+02 5.7811851778e+02 0.0000000000e+00 0.0000e+00 1.0000e+00
       21  1    1    2  502  501 +6.7951379702e-06 +2.7397281783e-07 +1.8143140434e-05 1.9375822716e-05 0.0000000000e+00 0.0000e+00 1.0000e+00
<mgrwt>
<rscale>  1 0.63490759E+03</rscale>
<asrwt>0</asrwt>
<pdfrwt beam="1">  1        1 0.36646233E+00 0.63490759E+03</pdfrwt>
<pdfrwt beam="2">0</pdfrwt>
<totfact> 0.18873131E+00</totfact>
</mgrwt>
</event>
<event>
 6      1 +5.6466785e-02 6.66487400e+02 7.81860800e-03 9.77632400e-02
        1 -1    0    0  502    0 +0.0000000000e+00 +0.0000000000e+00 +1.1571440485e+02 1.1571440485e+02 0.0000000000e+00 0.0000e+00 1.0000e+00
       13 -1    0    0    0    0 -0.0000000000e+00 -0.0000000000e+00 -1.0000000000e+03 1.0000000000e+03 0.0000000000e+00 0.0000e+00 1.0000e+00
  9000005  2    1    2  501    0 -7.9917868702e-02 -4.5591541607e-01 -8.8893587813e+02 1.1110411429e+03 6.6648721781e+02 0.0000e+00 0.0000e+00
       13  1    3    3    0    0 -5.5477305034e+01 +1.4534514503e+02 +4.6749593860e+01 1.6244527412e+02 0.0000000000e+00 0.0000e+00 1.0000e+00
        1  1    3    3  501    0 +5.5397387165e+01 -1.4580106045e+02 -9.3568547199e+02 9.4859586875e+02 0.0000000000e+00 0.0000e+00 1.0000e+00
       21  1    1    2  502  501 +7.9917868702e-02 +4.5591541607e-01 +4.6502829705e+00 4.6732619698e+00 0.0000000000e+00 0.0000e+00 -1.0000e+00
<mgrwt>
<rscale>  1 0.66648738E+03</rscale>
<asrwt>0</asrwt>
<pdfrwt beam="1">  1        1 0.42078054E+00 0.66648738E+03</pdfrwt>
<pdfrwt beam="2">0</pdfrwt>
<totfact> 0.10760517E+00</totfact>
</mgrwt>
</event>
<event>
 6      1 +5.6466785e-02 6.54816900e+02 7.81860800e-03 9.79778200e-02
        1 -1    0    0  502    0 +0.0000000000e+00 +0.0000000000e+00 +1.0792084190e+02 1.0792084190e+02 0.0000000000e+00 0.0000e+00 1.0000e+00
       13 -1    0    0    0    0 -0.0000000000e+00 -0.0000000000e+00 -1.0000000000e+03 1.0000000000e+03 0.0000000000e+00 0.0000e+00 1.0000e+00
  9000005  2    1    2  501    0 -2.7300904976e-02 +1.0476946471e-01 -8.9279922017e+02 1.1071926858e+03 6.5481690888e+02 0.0000e+00 0.0000e+00
       13  1    3    3    0    0 -1.5310039578e+02 -1.2187368071e+02 -2.5723384129e+00 1.9570268819e+02 0.0000000000e+00 0.0000e+00 1.0000e+00
        3  1    3    3  501    0 +1.5307309488e+02 +1.2197845018e+02 -8.9022688175e+02 9.1148999758e+02 0.0000000000e+00 0.0000e+00 1.0000e+00
       21  1    1    2  502  501 +2.7300904976e-02 -1.0476946471e-01 +7.2006206463e-01 7.2815613509e-01 0.0000000000e+00 0.0000e+00 1.0000e+00
<mgrwt>
<rscale>  1 0.65481692E+03</rscale>
<asrwt>0</asrwt>
<pdfrwt beam="1">  1        1 0.39244025E+00 0.65481692E+03</pdfrwt>
<pdfrwt beam="2">0</pdfrwt>
<totfact> 0.14442811E+00</totfact>
</mgrwt>
</event>
<event>
 6      1 +5.6466785e-02 6.46523100e+02 7.81860800e-03 9.81332500e-02
        1 -1    0    0  502    0 +0.0000000000e+00 +0.0000000000e+00 +1.0656435987e+02 1.0656435987e+02 0.0000000000e+00 0.0000e+00 1.0000e+00
       13 -1    0    0    0    0 -0.0000000000e+00 -0.0000000000e+00 -1.0000000000e+03 1.0000000000e+03 0.0000000000e+00 0.0000e+00 1.0000e+00
  9000005  2    1    2  501    0 -9.3721351813e-02 -3.7696148811e-02 -8.9550060952e+02 1.1044969211e+03 6.4652308293e+02 0.0000e+00 0.0000e+00
       13  1    3    3    0    0 +1.6720400221e+02 -1.4498652859e+02 -4.5229896841e+01 2.2588496053e+02 0.0000000000e+00 0.0000e+00 1.0000e+00
        3  1    3    3  501    0 -1.6729772356e+02 +1.4494883244e+02 -8.5027071268e+02 8.7861196052e+02 0.0000000000e+00 0.0000e+00 1.0000e+00
       21  1    1    2  502  501 +9.3721351813e-02 +3.7696148811e-02 +2.0649693915e+00 2.0674388212e+00 0.0000000000e+00 0.0000e+00 1.0000e+00
<mgrwt>
<rscale>  1 0.64652309E+03</rscale>
<asrwt>0</asrwt>
<pdfrwt beam="1">  1        1 0.38750758E+00 0.64652309E+03</pdfrwt>
<pdfrwt beam="2">0</pdfrwt>
<totfact> 0.15212309E+00</totfact>
</mgrwt>
</event>
<event>
 6      1 +5.6466785e-02 6.45395700e+02 7.81860800e-03 9.81545700e-02
        1 -1    0    0  502    0 +0.0000000000e+00 +0.0000000000e+00 +1.0432332494e+02 1.0432332494e+02 0.0000000000e+00 0.0000e+00 1.0000e+00
       13 -1    0    0    0    0 -0.0000000000e+00 -0.0000000000e+00 -1.0000000000e+03 1.0000000000e+03 0.0000000000e+00 0.0000e+00 1.0000e+00
  9000005  2    1    2  501    0 +1.8285695793e-03 +2.9748994082e-03 -8.9586606456e+02 1.1041339032e+03 6.4539574732e+02 0.0000e+00 0.0000e+00
       13  1    3    3    0    0 +2.6626155154e+01 -3.2155269227e+02 -4.3889079094e+02 5.4472948554e+02 0.0000000000e+00 0.0000e+00 1.0000e+00
        1  1    3    3  501    0 -2.6624326585e+01 +3.2155566717e+02 -4.5697527362e+02 5.5940441771e+02 0.0000000000e+00 0.0000e+00 1.0000e+00
       21  1    1    2  502  501 -1.8285695793e-03 -2.9748994082e-03 +1.8938949932e-01 1.8942168869e-01 0.0000000000e+00 0.0000e+00 1.0000e+00
<mgrwt>
<rscale>  1 0.64539575E+03</rscale>
<asrwt>0</asrwt>
<pdfrwt beam="1">  1        1 0.37935835E+00 0.64539575E+03</pdfrwt>
<pdfrwt beam="2">0</pdfrwt>
<totfact> 0.16531013E+00</totfact>
</mgrwt>
</event>
<event>
 6      1 +5.6466785e-02 6.59363000e+02 7.81860800e-03 9.78936700e-02
        1 -1    0    0  502    0 +0.0000000000e+00 +0.0000000000e+00 +1.0887587100e+02 1.0887587100e+02 0.0000000000e+00 0.0000e+00 1.0000e+00
       13 -1    0    0    0    0 -0.0000000000e+00 -0.0000000000e+00 -1.0000000000e+03 1.0000000000e+03 0.0000000000e+00 0.0000e+00 1.0000e+00
  9000005  2    1    2  501    0 +9.5987476355e-03 +1.1033162433e-02 -8.9130978583e+02 1.1086896391e+03 6.5936301178e+02 0.0000e+00 0.0000e+00
       13  1    3    3    0    0 +1.8903909467e+02 +2.3510721531e+02 -6.6926036700e+02 7.3411213097e+02 0.0000000000e+00 0.0000e+00 1.0000e+00
        3  1    3    3  501    0 -1.8902949593e+02 -2.3509618214e+02 -2.2204941883e+02 3.7457750812e+02 0.0000000000e+00 0.0000e+00 1.0000e+00
       21  1    1    2  502  501 -9.5987476355e-03 -1.1033162433e-02 +1.8565682724e-01 1.8623190954e-01 0.0000000000e+00 0.0000e+00 1.0000e+00
<mgrwt>
<rscale>  1 0.65936301E+03</rscale>
<asrwt>0</asrwt>
<pdfrwt beam="1">  1        1 0.39591309E+00 0.65936301E+03</pdfrwt>
<pdfrwt beam="2">0</pdfrwt>
<totfact> 0.13926703E+00</totfact>
</mgrwt>
</event>
<event>
 6      1 +5.6466785e-02 6.63768100e+02 7.81860800e-03 9.78128200e-02
        1 -1    0    0  502    0 +0.0000000000e+00 +0.0000000000e+00 +1.1014784200e+02 1.1014784200e+02 0.0000000000e+00 0.0000e+00 1.0000e+00
       13 -1    0    0    0    0 -0.0000000000e+00 -0.0000000000e+00 -1.0000000000e+03 1.0000000000e+03 0.0000000000e+00 0.0000e+00 1.0000e+00
  9000005  2    1    2  501    0 +9.0811526377e-05 +2.0473980908e-04 -8.8985295424e+02 1.1101470149e+03 6.6376811797e+02 0.0000e+00 0.0000e+00
       13  1    3    3    0    0 +4.6495944087e+01 -1.7322154001e+02 +2.2113625623e+01 1.8071133661e+02 0.0000000000e+00 0.0000e+00 1.0000e+00
        1  1    3    3  501    0 -4.6495853275e+01 +1.7322174475e+02 -9.1196657986e+02 9.2943567825e+02 0.0000000000e+00 0.0000e+00 1.0000e+00
       21  1    1    2  502  501 -9.0811526376e-05 -2.0473980907e-04 +7.9623401643e-04 8.2713586046e-04 0.0000000000e+00 0.0000e+00 -1.0000e+00
<mgrwt>
<rscale>  1 0.66376812E+03</rscale>
<asrwt>0</asrwt>
<pdfrwt beam="1">  1        1 0.40053845E+00 0.66376812E+03</pdfrwt>
<pdfrwt beam="2">0</pdfrwt>
<totfact> 0.13270454E+00</totfact>
</mgrwt>
</event>
<event>
 6      1 +5.6466785e-02 6.43388300e+02 7.81860800e-03 9.81926500e-02
        1 -1    0    0  502    0 +0.0000000000e+00 +0.0000000000e+00 +1.0401518380e+02 1.0401518380e+02 0.0000000000e+00 0.0000e+00 1.0000e+00
       13 -1    0    0    0    0 -0.0000000000e+00 -0.0000000000e+00 -1.0000000000e+03 1.0000000000e+03 0.0000000000e+00 0.0000e+00 1.0000e+00
  9000005  2    1    2  501    0 +3.9926870146e-01 -2.9692560033e-01 -8.9638042469e+02 1.1033795059e+03 6.4338807938e+02 0.0000e+00 0.0000e+00
       13  1    3    3    0    0 +1.2136805090e+02 +8.8688602982e+01 -9.3606008426e+02 9.4805292754e+02 0.0000000000e+00 0.0000e+00 1.0000e+00
        1  1    3    3  501    0 -1.2096878220e+02 -8.8985528582e+01 +3.9679659565e+01 1.5532657836e+02 0.0000000000e+00 0.0000e+00 1.0000e+00
       21  1    1    2  502  501 -3.9926870146e-01 +2.9692560033e-01 +3.9560849639e-01 6.3567789840e-01 0.0000000000e+00 0.0000e+00 1.0000e+00
<mgrwt>
<rscale>  1 0.64338827E+03</rscale>
<asrwt>0</asrwt>
<pdfrwt beam="1">  1        1 0.37823783E+00 0.64338827E+03</pdfrwt>
<pdfrwt beam="2">0</pdfrwt>
<totfact> 0.16726330E+00</totfact>
</mgrwt>
</event>
<event>
 6      1 +5.6466785e-02 6.47878800e+02 7.81860800e-03 9.81076800e-02
        1 -1    0    0  502    0 +0.0000000000e+00 +0.0000000000e+00 +1.0494593946e+02 1.0494593946e+02 0.0000000000e+00 0.0000e+00 1.0000e+00
       13 -1    0    0    0    0 -0.0000000000e+00 -0.0000000000e+00 -1.0000000000e+03 1.0000000000e+03 0.0000000000e+00 0.0000e+00 1.0000e+00
  9000005  2    1    2  501    0 -2.0942414695e-03 -2.6535619555e-03 -8.9506291834e+02 1.1049364585e+03 6.4787880780e+02 0.0000e+00 0.0000e+00
       13  1    3    3    0    0 -2.9346537425e+01 -2.8161364537e+02 -7.1594847179e+02 7.6990238263e+02 0.0000000000e+00 0.0000e+00 1.0000e+00
        3  1    3    3  501    0 +2.9344443183e+01 +2.8161099181e+02 -1.7911444655e+02 3.3503407590e+02 0.0000000000e+00 0.0000e+00 1.0000e+00
       21  1    1    2  502  501 +2.0942414695e-03 +2.6535619555e-03 +8.8578027625e-03 9.4809233814e-03 0.0000000000e+00 0.0000e+00 1.0000e+00
<mgrwt>
<rscale>  1 0.64787881E+03</rscale>
<asrwt>0</asrwt>
<pdfrwt beam="1">  1        1 0.38162240E+00 0.64787881E+03</pdfrwt>
<pdfrwt beam="2">0</pdfrwt>
<totfact> 0.16147646E+00</totfact>
</mgrwt>
</event>
<event>
 6      1 +5.6466785e-02 6.44152300e+02 7.81860800e-03 9.81781400e-02
        1 -1    0    0  502    0 +0.0000000000e+00 +0.0000000000e+00 +1.0598575276e+02 1.0598575276e+02 0.0000000000e+00 0.0000e+00 1.0000e+00
       13 -1    0    0    0    0 -0.0000000000e+00 -0.0000000000e+00 -1.0000000000e+03 1.0000000000e+03 0.0000000000e+00 0.0000e+00 1.0000e+00
  9000005  2    1    2  501    0 +4.1683918042e-01 -1.4434472600e-02 -8.9624563109e+02 1.1037157226e+03 6.4415214895e+02 0.0000e+00 0.0000e+00
       13  1    3    3    0    0 +3.1989953390e+02 -2.4132933646e+01 -3.9563909455e+02 5.0936077922e+02 0.0000000000e+00 0.0000e+00 1.0000e+00
        1  1    3    3  501    0 -3.1948269472e+02 +2.4118499174e+01 -5.0060653654e+02 5.9435494333e+02 0.0000000000e+00 0.0000e+00 1.0000e+00
       21  1    1    2  502  501 -4.1683918042e-01 +1.4434472600e-02 +2.2313838482e+00 2.2700302056e+00 0.0000000000e+00 0.0000e+00 1.0000e+00
<mgrwt>
<rscale>  1 0.64415228E+03</rscale>
<asrwt>0</asrwt>
<pdfrwt beam="1">  1        1 0.38540355E+00 0.64415228E+03</pdfrwt>
<pdfrwt beam="2">0</pdfrwt>
<totfact> 0.15548860E+00</totfact>
</mgrwt>
</event>
<event>
 6      1 +5.6466785e-02 6.84151100e+02 7.81860800e-03 9.74472600e-02
        1 -1    0    0  502    0 +0.0000000000e+00 +0.0000000000e+00 +1.1710852106e+02 1.1710852106e+02 0.0000000000e+00 0.0000e+00 1.0000e+00
       13 -1    0    0    0    0 -0.0000000000e+00 -0.0000000000e+00 -1.0000000000e+03 1.0000000000e+03 0.0000000000e+00 0.0000e+00 1.0000e+00
  9000005  2    1    2  501    0 +4.7435468722e-03 +1.4612655694e-03 -8.8298423026e+02 1.1170156370e+03 6.8415114005e+02 0.0000e+00 0.0000e+00
       13  1    3    3    0    0 -2.5061529446e+02 +2.1974480483e+02 -5.6710278913e+02 6.5780040933e+02 0.0000000000e+00 0.0000e+00 1.0000e+00
        3  1    3    3  501    0 +2.5062003801e+02 -2.1974334357e+02 -3.1588144113e+02 4.5921522769e+02 0.0000000000e+00 0.0000e+00 1.0000e+00
       21  1    1    2  502  501 -4.7435468722e-03 -1.4612655694e-03 +9.2751326131e-02 9.2884040788e-02 0.0000000000e+00 0.0000e+00 -1.0000e+00
<mgrwt>
<rscale>  1 0.68415114E+03</rscale>
<asrwt>0</asrwt>
<pdfrwt beam="1">  1        1 0.42585007E+00 0.68415114E+03</pdfrwt>
<pdfrwt beam="2">0</pdfrwt>
<totfact> 0.10172444E+00</totfact>
</mgrwt>
</event>
<event>
 6      1 +5.6466785e-02 6.17763000e+02 7.81860800e-03 9.86922400e-02
        1 -1    0    0  502    0 +0.0000000000e+00 +0.0000000000e+00 +9.5408223684e+01 9.5408223684e+01 0.0000000000e+00 0.0000e+00 1.0000e+00
       13 -1    0    0    0    0 -0.0000000000e+00 -0.0000000000e+00 -1.0000000000e+03 1.0000000000e+03 0.0000000000e+00 0.0000e+00 1.0000e+00
  9000005  2    1    2  501    0 -6.4128840171e-04 +7.3311200226e-04 -9.0459154188e+02 1.0954072219e+03 6.1776299990e+02 0.0000e+00 0.0000e+00
       13  1    3    3    0    0 +2.5693563038e+02 +2.6955303944e+00 -1.4833822878e+02 2.9669414244e+02 0.0000000000e+00 0.0000e+00 1.0000e+00
        1  1    3    3  501    0 -2.5693627167e+02 -2.6947972824e+00 -7.5625331311e+02 7.9871307941e+02 0.0000000000e+00 0.0000e+00 1.0000e+00
       21  1    1    2  502  501 +6.4128840174e-04 -7.3311200226e-04 -2.3443152082e-04 1.0018294066e-03 0.0000000000e+00 0.0000e+00 1.0000e+00
<mgrwt>
<rscale>  1 0.61776300E+03</rscale>
<asrwt>0</asrwt>
<pdfrwt beam="1">  1        1 0.34693973E+00 0.61776300E+03</pdfrwt>
<pdfrwt beam="2">0</pdfrwt>
<totfact> 0.23038997E+00</totfact>
</mgrwt>
</event>
<event>
 6      1 +5.6466785e-02 6.58998700e+02 7.81860800e-03 9.79003900e-02
        1 -1    0    0  502    0 +0.0000000000e+00 +0.0000000000e+00 +1.0973825933e+02 1.0973825933e+02 0.0000000000e+00 0.0000e+00 1.0000e+00
       13 -1    0    0    0    0 -0.0000000000e+00 -0.0000000000e+00 -1.0000000000e+03 1.0000000000e+03 0.0000000000e+00 0.0000e+00 1.0000e+00
  9000005  2    1    2  501    0 -2.9424315761e-01 -3.2256032185e-01 -8.9138480538e+02 1.1085333118e+03 6.5899851402e+02 0.0000e+00 0.0000e+00
       13  1    3    3    0    0 -6.0963595637e+01 +7.2963865548e+01 -9.7635465492e+02 9.8097334207e+02 0.0000000000e+00 0.0000e+00 1.0000e+00
        3  1    3    3  501    0 +6.0669352479e+01 -7.3286425870e+01 +8.4969849537e+01 1.2755996973e+02 0.0000000000e+00 0.0000e+00 1.0000e+00
       21  1    1    2  502  501 +2.9424315761e-01 +3.2256032185e-01 +1.1230647191e+00 1.2049475342e+00 0.0000000000e+00 0.0000e+00 -1.0000e+00
<mgrwt>
<rscale>  1 0.65899866E+03</rscale>
<asrwt>0</asrwt>
<pdfrwt beam="1">  1        1 0.39904906E+00 0.65899866E+03</pdfrwt>
<pdfrwt beam="2">0</pdfrwt>
<totfact> 0.13486972E+00</totfact>
</mgrwt>
</event>
<event>
 6      1 +5.6466785e-02 6.63768500e+02 7.81860800e-03 9.78128100e-02
        1 -1    0    0  502    0 +0.0000000000e+00 +0.0000000000e+00 +1.1042463811e+02 1.1042463811e+02 0.0000000000e+00 0.0000e+00 1.0000e+00
       13 -1    0    0    0    0 -0.0000000000e+00 -0.0000000000e+00 -1.0000000000e+03 1.0000000000e+03 0.0000000000e+00 0.0000e+00 1.0000e+00
  9000005  2    1    2  501    0 +5.4737145493e-02 -4.6893009569e-02 -8.8984762464e+02 1.1101429963e+03 6.6376853794e+02 0.0000e+00 0.0000e+00
       13  1    3    3    0    0 -1.8022697263e+02 -1.8532119815e+02 -9.6818324132e+01 2.7604256200e+02 0.0000000000e+00 0.0000e+00 1.0000e+00
        1  1    3    3  501    0 +1.8028170978e+02 +1.8527430514e+02 -7.9302930050e+02 8.3410043429e+02 0.0000000000e+00 0.0000e+00 1.0000e+00
       21  1    1    2  502  501 -5.4737145493e-02 +4.6893009569e-02 +2.7226274263e-01 2.8164181236e-01 0.0000000000e+00 0.0000e+00 1.0000e+00
<mgrwt>
<rscale>  1 0.66376854E+03</rscale>
<asrwt>0</asrwt>
<pdfrwt beam="1">  1        1 0.40154499E+00 0.66376854E+03</pdfrwt>
<pdfrwt beam="2">0</pdfrwt>
<totfact> 0.13133927E+00</totfact>
</mgrwt>
</event>
<event>
 6      1 +5.6466785e-02 6.54801700e+02 7.81860800e-03 9.79781100e-02
        1 -1    0    0  502    0 +0.0000000000e+00 +0.0000000000e+00 +1.0719177079e+02 1.0719177079e+02 0.0000000000e+00 0.0000e+00 1.0000e+00
       13 -1    0    0    0    0 -0.0000000000e+00 -0.0000000000e+00 -1.0000000000e+03 1.0000000000e+03 0.0000000000e+00 0.0000e+00 1.0000e+00
  9000005  2    1    2  501    0 -1.0607200030e-03 +3.1371274073e-04 -8.9280781359e+02 1.1071905891e+03 6.5480165599e+02 0.0000e+00 0.0000e+00
       13  1    3    3    0    0 +1.8301072317e+02 +2.0186513569e+02 -7.5332834018e+02 8.0109053541e+02 0.0000000000e+00 0.0000e+00 1.0000e+00
        3  1    3    3  501    0 -1.8301178389e+02 -2.0186482198e+02 -1.3947947340e+02 3.0610005374e+02 0.0000000000e+00 0.0000e+00 1.0000e+00
       21  1    1    2  502  501 +1.0607200030e-03 -3.1371274074e-04 -4.1562250691e-04 1.1816449030e-03 0.0000000000e+00 0.0000e+00 1.0000e+00
<mgrwt>
<rscale>  1 0.65480166E+03</rscale>
<asrwt>0</asrwt>
<pdfrwt beam="1">  1        1 0.38978908E+00 0.65480166E+03</pdfrwt>
<pdfrwt beam="2">0</pdfrwt>
<totfact> 0.14839422E+00</totfact>
</mgrwt>
</event>
<event>
 6      1 +5.6466785e-02 6.79227600e+02 7.81860800e-03 9.75343000e-02
        1 -1    0    0  502    0 +0.0000000000e+00 +0.0000000000e+00 +1.1713771085e+02 1.1713771085e+02 0.0000000000e+00 0.0000e+00 1.0000e+00
       13 -1    0    0    0    0 -0.0000000000e+00 -0.0000000000e+00 -1.0000000000e+03 1.0000000000e+03 0.0000000000e+00 0.0000e+00 1.0000e+00
  9000005  2    1    2  501    0 -9.8776682215e-02 -5.3403539441e-02 -8.8466050116e+02 1.1153359963e+03 6.7922762738e+02 0.0000e+00 0.0000e+00
       13  1    3    3    0    0 -7.4955771114e+01 -3.0997033926e+02 -6.3430485382e+02 7.0995959493e+02 0.0000000000e+00 0.0000e+00 1.0000e+00
        1  1    3    3  501    0 +7.4856994432e+01 +3.0991693572e+02 -2.5035564733e+02 4.0537640141e+02 0.0000000000e+00 0.0000e+00 1.0000e+00
       21  1    1    2  502  501 +9.8776682215e-02 +5.3403539441e-02 +1.7982120099e+00 1.8017145177e+00 0.0000000000e+00 0.0000e+00 -1.0000e+00
<mgrwt>
<rscale>  1 0.67922764E+03</rscale>
<asrwt>0</asrwt>
<pdfrwt beam="1">  1        1 0.42595621E+00 0.67922764E+03</pdfrwt>
<pdfrwt beam="2">0</pdfrwt>
<totfact> 0.10170779E+00</totfact>
</mgrwt>
</event>
<event>
 6      1 +5.6466785e-02 6.52320200e+02 7.81860800e-03 9.80243500e-02
        3 -1    0    0  502    0 +0.0000000000e+00 +0.0000000000e+00 +1.0638684548e+02 1.0638684548e+02 0.0000000000e+00 0.0000e+00 1.0000e+00
       13 -1    0    0    0    0 -0.0000000000e+00 -0.0000000000e+00 -1.0000000000e+03 1.0000000000e+03 0.0000000000e+00 0.0000e+00 1.0000e+00
  9000005  2    1    2  501    0 -1.3022251514e-03 -2.3458862020e-04 -8.9361953006e+02 1.1063803341e+03 6.5232015079e+02 0.0000e+00 0.0000e+00
       13  1    3    3    0    0 +2.2095718522e+02 +2.1131983338e+02 -6.3945976935e+02 7.0879259752e+02 0.0000000000e+00 0.0000e+00 1.0000e+00
        1  1    3    3  501    0 -2.2095848744e+02 -2.1132006797e+02 -2.5415976071e+02 3.9758773656e+02 0.0000000000e+00 0.0000e+00 1.0000e+00
       21  1    1    2  502  501 +1.3022251514e-03 +2.3458862019e-04 +6.3755441159e-03 6.5114042218e-03 0.0000000000e+00 0.0000e+00 -1.0000e+00
<mgrwt>
<rscale>  1 0.65232015E+03</rscale>
<asrwt>0</asrwt>
<pdfrwt beam="1">  1        3 0.38686207E+00 0.65232015E+03</pdfrwt>
<pdfrwt beam="2">0</pdfrwt>
<totfact> 0.69415934E-02</totfact>
</mgrwt>
</event>
<event>
 6      1 +5.6466785e-02 6.31445400e+02 7.81860800e-03 9.84223200e-02
        1 -1    0    0  502    0 +0.0000000000e+00 +0.0000000000e+00 +9.9680844070e+01 9.9680844070e+01 0.0000000000e+00 0.0000e+00 1.0000e+00
       13 -1    0    0    0    0 -0.0000000000e+00 -0.0000000000e+00 -1.0000000000e+03 1.0000000000e+03 0.0000000000e+00 0.0000e+00 1.0000e+00
  9000005  2    1    2  501    0 +1.9788993200e-06 -1.0323204179e-05 -9.0031915990e+02 1.0996808328e+03 6.3144544057e+02 0.0000e+00 0.0000e+00
       13  1    3    3    0    0 +2.5324169144e+02 +1.8599636941e+02 -5.0397342780e+02 5.9389832433e+02 0.0000000000e+00 0.0000e+00 1.0000e+00
        3  1    3    3  501    0 -2.5324168946e+02 -1.8599637973e+02 -3.9634573210e+02 5.0578250850e+02 0.0000000000e+00 0.0000e+00 1.0000e+00
       21  1    1    2  502  501 -1.9788993432e-06 +1.0323204172e-05 +3.9709902466e-06 1.1236251623e-05 0.0000000000e+00 0.0000e+00 -1.0000e+00
<mgrwt>
<rscale>  1 0.63144544E+03</rscale>
<asrwt>0</asrwt>
<pdfrwt beam="1">  1        1 0.36247656E+00 0.63144544E+03</pdfrwt>
<pdfrwt beam="2">0</pdfrwt>
<totfact> 0.19659830E+00</totfact>
</mgrwt>
</event>
<event>
 6      1 +5.6466785e-02 6.57638400e+02 7.81860800e-03 9.79255100e-02
        1 -1    0    0  502    0 +0.0000000000e+00 +0.0000000000e+00 +1.0814653248e+02 1.0814653248e+02 0.0000000000e+00 0.0000e+00 1.0000e+00
       13 -1    0    0    0    0 -0.0000000000e+00 -0.0000000000e+00 -1.0000000000e+03 1.0000000000e+03 0.0000000000e+00 0.0000e+00 1.0000e+00
  9000005  2    1    2  501    0 -4.8651294298e-04 +6.1714224401e-04 -8.9187792245e+02 1.1081220649e+03 6.5763841299e+02 0.0000e+00 0.0000e+00
       13  1    3    3    0    0 -2.7912415603e+02 -1.2425590849e+02 -6.5073653752e+02 7.1889350152e+02 0.0000000000e+00 0.0000e+00 1.0000e+00
        3  1    3    3  501    0 +2.7912366952e+02 +1.2425652563e+02 -2.4114138493e+02 3.8922856341e+02 0.0000000000e+00 0.0000e+00 1.0000e+00
       21  1    1    2  502  501 +4.8651294298e-04 -6.1714224402e-04 +2.4454925119e-02 2.4467548344e-02 0.0000000000e+00 0.0000e+00 1.0000e+00
<mgrwt>
<rscale>  1 0.65763841E+03</rscale>
<asrwt>0</asrwt>
<pdfrwt beam="1">  1        1 0.39326095E+00 0.65763841E+03</pdfrwt>
<pdfrwt beam="2">0</pdfrwt>
<totfact> 0.14314581E+00</totfact>
</mgrwt>
</event>
<event>
 6      1 +5.6466785e-02 6.54067000e+02 7.81860800e-03 9.79917800e-02
        1 -1    0    0  502    0 +0.0000000000e+00 +0.0000000000e+00 +1.0695097058e+02 1.0695097058e+02 0.0000000000e+00 0.0000e+00 1.0000e+00
       13 -1    0    0    0    0 -0.0000000000e+00 -0.0000000000e+00 -1.0000000000e+03 1.0000000000e+03 0.0000000000e+00 0.0000e+00 1.0000e+00
  9000005  2    1    2  501    0 -1.4871170180e-05 +1.0413699044e-05 -8.9304908317e+02 1.1069509138e+03 6.5406701545e+02 0.0000e+00 0.0000e+00
       13  1    3    3    0    0 -1.3464473428e+02 -2.4341721286e+02 -7.3754940316e+02 7.8826408397e+02 0.0000000000e+00 0.0000e+00 1.0000e+00
        1  1    3    3  501    0 +1.3464471940e+02 +2.4341722327e+02 -1.5549968001e+02 3.1868682987e+02 0.0000000000e+00 0.0000e+00 1.0000e+00
       21  1    1    2  502  501 +1.4871170176e-05 -1.0413699033e-05 +5.3754202188e-05 5.6737210742e-05 0.0000000000e+00 0.0000e+00 1.0000e+00
<mgrwt>
<rscale>  1 0.65406702E+03</rscale>
<asrwt>0</asrwt>
<pdfrwt beam="1">  1        1 0.38891344E+00 0.65406702E+03</pdfrwt>
<pdfrwt beam="2">0</pdfrwt>
<totfact> 0.14974697E+00</totfact>
</mgrwt>
</event>
<event>
 6      1 +5.6466785e-02 6.41164000e+02 7.81860800e-03 9.82350200e-02
        1 -1    0    0  502    0 +0.0000000000e+00 +0.0000000000e+00 +1.0277294967e+02 1.0277294967e+02 0.0000000000e+00 0.0000e+00 1.0000e+00
       13 -1    0    0    0    0 -0.0000000000e+00 -0.0000000000e+00 -1.0000000000e+03 1.0000000000e+03 0.0000000000e+00 0.0000e+00 1.0000e+00
  9000005  2    1    2  501    0 +1.2696974812e-04 -1.6511917750e-05 -8.9722714292e+02 1.1027727917e+03 6.4116400712e+02 0.0000e+00 0.0000e+00
       13  1    3    3    0    0 -1.9788980420e+02 -4.3375492947e+01 -8.7594857690e+02 8.9907047409e+02 0.0000000000e+00 0.0000e+00 1.0000e+00
        3  1    3    3  501    0 +1.9788993117e+02 +4.3375476435e+01 -2.1278566020e+01 2.0370231757e+02 0.0000000000e+00 0.0000e+00 1.0000e+00
       21  1    1    2  502  501 -1.2696974810e-04 +1.6511917750e-05 +9.2596230843e-05 1.5801272837e-04 0.0000000000e+00 0.0000e+00 -1.0000e+00
<mgrwt>
<rscale>  1 0.64116401E+03</rscale>
<asrwt>0</asrwt>
<pdfrwt beam="1">  1        1 0.37372061E+00 0.64116401E+03</pdfrwt>
<pdfrwt beam="2">0</pdfrwt>
<totfact> 0.17517422E+00</totfact>
</mgrwt>
</event>
<event>
 6      1 +5.6466785e-02 6.05485500e+02 7.81860800e-03 9.89409000e-02
        1 -1    0    0  502    0 +0.0000000000e+00 +0.0000000000e+00 +9.1653447291e+01 9.1653447291e+01 0.0000000000e+00 0.0000e+00 1.0000e+00
       13 -1    0    0    0    0 -0.0000000000e+00 -0.0000000000e+00 -1.0000000000e+03 1.0000000000e+03 0.0000000000e+00 0.0000e+00 1.0000e+00
  9000005  2    1    2  501    0 +3.0374616827e-05 -9.0278987194e-05 -9.0834680553e+02 1.0916531771e+03 6.0548554071e+02 0.0000e+00 0.0000e+00
       13  1    3    3    0    0 +7.7822358111e+01 -5.5971245424e+01 +6.3568521752e+01 1.1502198352e+02 0.0000000000e+00 0.0000e+00 1.0000e+00
        1  1    3    3  501    0 -7.7822327736e+01 +5.5971155145e+01 -9.7191532728e+02 9.7663119360e+02 0.0000000000e+00 0.0000e+00 1.0000e+00
       21  1    1    2  502  501 -3.0374616832e-05 +9.0278987191e-05 +2.5282089577e-04 2.7016905488e-04 0.0000000000e+00 0.0000e+00 -1.0000e+00
<mgrwt>
<rscale>  1 0.60548554E+03</rscale>
<asrwt>0</asrwt>
<pdfrwt beam="1">  1        1 0.33328597E+00 0.60548554E+03</pdfrwt>
<pdfrwt beam="2">0</pdfrwt>
<totfact> 0.26467760E+00</totfact>
</mgrwt>
</event>
<event>
 6      1 +5.6466785e-02 6.69208400e+02 7.81860800e-03 9.77138900e-02
        1 -1    0    0  502    0 +0.0000000000e+00 +0.0000000000e+00 +1.1256729447e+02 1.1256729447e+02 0.0000000000e+00 0.0000e+00 1.0000e+00
       13 -1    0    0    0    0 -0.0000000000e+00 -0.0000000000e+00 -1.0000000000e+03 1.0000000000e+03 0.0000000000e+00 0.0000e+00 1.0000e+00
  9000005  2    1    2  501    0 +2.7978365784e-01 -7.2334162834e-01 -8.8775080877e+02 1.1117290274e+03 6.6920798740e+02 0.0000e+00 0.0000e+00
       13  1    3    3    0    0 +2.4766106515e+02 +2.0925990413e+02 -5.8021785326e+02 6.6466417679e+02 0.0000000000e+00 0.0000e+00 1.0000e+00
        1  1    3    3  501    0 -2.4738128149e+02 -2.0998324576e+02 -3.0753295551e+02 4.4706485062e+02 0.0000000000e+00 0.0000e+00 1.0000e+00
       21  1    1    2  502  501 -2.7978365784e-01 +7.2334162834e-01 +3.1810323964e-01 8.3826706816e-01 0.0000000000e+00 0.0000e+00 1.0000e+00
<mgrwt>
<rscale>  1 0.66920844E+03</rscale>
<asrwt>0</asrwt>
<pdfrwt beam="1">  1        1 0.40933648E+00 0.66920844E+03</pdfrwt>
<pdfrwt beam="2">0</pdfrwt>
<totfact> 0.12108640E+00</totfact>
</mgrwt>
</event>
<event>
 6      1 +5.6466785e-02 6.55338100e+02 7.81860800e-03 9.79681400e-02
        1 -1    0    0  502    0 +0.0000000000e+00 +0.0000000000e+00 +1.0740486560e+02 1.0740486560e+02 0.0000000000e+00 0.0000e+00 1.0000e+00
       13 -1    0    0    0    0 -0.0000000000e+00 -0.0000000000e+00 -1.0000000000e+03 1.0000000000e+03 0.0000000000e+00 0.0000e+00 1.0000e+00
  9000005  2    1    2  501    0 +6.3968447921e-03 +4.1829841470e-03 -8.9263256415e+02 1.1073666635e+03 6.5533810564e+02 0.0000e+00 0.0000e+00
       13  1    3    3    0    0 -2.4269620455e+01 +2.2894731802e+02 -8.4029726787e+02 8.7126654205e+02 0.0000000000e+00 0.0000e+00 1.0000e+00
        3  1    3    3  501    0 +2.4276017300e+01 -2.2894313503e+02 -5.2335296284e+01 2.3610012142e+02 0.0000000000e+00 0.0000e+00 1.0000e+00
       21  1    1    2  502  501 -6.3968447921e-03 -4.1829841470e-03 +3.7429750466e-02 3.8202136061e-02 0.0000000000e+00 0.0000e+00 1.0000e+00
<mgrwt>
<rscale>  1 0.65533811E+03</rscale>
<asrwt>0</asrwt>
<pdfrwt beam="1">  1        1 0.39056397E+00 0.65533811E+03</pdfrwt>
<pdfrwt beam="2">0</pdfrwt>
<totfact> 0.14720988E+00</totfact>
</mgrwt>
</event>
<event>
 6      1 +5.6466785e-02 6.14297100e+02 7.81860800e-03 9.87618000e-02
        1 -1    0    0  502    0 +0.0000000000e+00 +0.0000000000e+00 +9.4419936739e+01 9.4419936739e+01 0.0000000000e+00 0.0000e+00 1.0000e+00
       13 -1    0    0    0    0 -0.0000000000e+00 -0.0000000000e+00 -1.0000000000e+03 1.0000000000e+03 0.0000000000e+00 0.0000e+00 1.0000e+00
  9000005  2    1    2  501    0 -1.6802668509e-03 -1.6032227748e-03 -9.0565975621e+02 1.0943402100e+03 6.1429707886e+02 0.0000e+00 0.0000e+00
       13  1    3    3    0    0 +1.6608440545e+02 -2.3441752968e+02 -6.4638388396e+02 7.0735262310e+02 0.0000000000e+00 0.0000e+00 1.0000e+00
        1  1    3    3  501    0 -1.6608608572e+02 +2.3441592646e+02 -2.5927587225e+02 3.8698758686e+02 0.0000000000e+00 0.0000e+00 1.0000e+00
       21  1    1    2  502  501 +1.6802668509e-03 +1.6032227748e-03 +7.9692952570e-02 7.9726785394e-02 0.0000000000e+00 0.0000e+00 1.0000e+00
<mgrwt>
<rscale>  1 0.61429708E+03</rscale>
<asrwt>0</asrwt>
<pdfrwt beam="1">  1        1 0.34334595E+00 0.61429708E+03</pdfrwt>
<pdfrwt beam="2">0</pdfrwt>
<totfact> 0.23898212E+00</totfact>
</mgrwt>
</event>
<event>
 6      1 +5.6466785e-02 6.48806600e+02 7.81860800e-03 9.80902100e-02
        1 -1    0    0  502    0 +0.0000000000e+00 +0.0000000000e+00 +1.0653005780e+02 1.0653005780e+02 0.0000000000e+00 0.0000e+00 1.0000e+00
       13 -1    0    0    0    0 -0.0000000000e+00 -0.0000000000e+00 -1.0000000000e+03 1.0000000000e+03 0.0000000000e+00 0.0000e+00 1.0000e+00
  9000005  2    1    2  501    0 -4.1176218373e-02 -1.0643256279e-01 -8.9475969987e+02 1.1052352612e+03 6.4880663457e+02 0.0000e+00 0.0000e+00
       13  1    3    3    0    0 +1.6096512080e+02 -4.0323220302e+01 +2.7466324594e+01 1.6819670388e+02 0.0000000000e+00 0.0000e+00 1.0000e+00
        3  1    3    3  501    0 -1.6100629702e+02 +4.0216787740e+01 -9.2222602447e+02 9.3703855732e+02 0.0000000000e+00 0.0000e+00 1.0000e+00
       21  1    1    2  502  501 +4.1176218373e-02 +1.0643256279e-01 +1.2897576766e+00 1.2947966002e+00 0.0000000000e+00 0.0000e+00 1.0000e+00
<mgrwt>
<rscale>  1 0.64880664E+03</rscale>
<asrwt>0</asrwt>
<pdfrwt beam="1">  1        1 0.38738285E+00 0.64880664E+03</pdfrwt>
<pdfrwt beam="2">0</pdfrwt>
<totfact> 0.15225191E+00</totfact>
</mgrwt>
</event>
<event>
 6      1 +5.6466785e-02 6.47419600e+02 7.81860800e-03 9.81163300e-02
        1 -1    0    0  502    0 +0.0000000000e+00 +0.0000000000e+00 +1.1635126631e+02 1.1635126631e+02 0.0000000000e+00 0.0000e+00 1.0000e+00
       13 -1    0    0    0    0 -0.0000000000e+00 -0.0000000000e+00 -1.0000000000e+03 1.0000000000e+03 0.0000000000e+00 0.0000e+00 1.0000e+00
  9000005  2    1    2  501    0 -3.3215284805e+01 -9.7967763809e+00 -8.4385440029e+02 1.0635988167e+03 6.4649281663e+02 0.0000e+00 0.0000e+00
       13  1    3    3    0    0 +2.1895813573e+02 +1.6539187360e+01 -4.3243434154e+01 2.2379947390e+02 0.0000000000e+00 0.0000e+00 1.0000e+00
        3  1    3    3  501    0 -2.5217342054e+02 -2.6335963741e+01 -8.0061096614e+02 8.3979934277e+02 0.0000000000e+00 0.0000e+00 1.0000e+00
       21  1    1    2  502  501 +3.3215284805e+01 +9.7967763809e+00 -3.9794333400e+01 5.2752449639e+01 0.0000000000e+00 0.0000e+00 1.0000e+00
<mgrwt>
<rscale>  1 0.64741964E+03</rscale>
<asrwt>0</asrwt>
<pdfrwt beam="1">  1        1 0.42309641E+00 0.64741964E+03</pdfrwt>
<pdfrwt beam="2">0</pdfrwt>
<totfact> 0.10543894E+00</totfact>
</mgrwt>
</event>
<event>
 6      1 +5.6466785e-02 6.66839800e+02 7.81860800e-03 9.77568400e-02
        1 -1    0    0  502    0 +0.0000000000e+00 +0.0000000000e+00 +1.1205935375e+02 1.1205935375e+02 0.0000000000e+00 0.0000e+00 1.0000e+00
       13 -1    0    0    0    0 -0.0000000000e+00 -0.0000000000e+00 -1.0000000000e+03 1.0000000000e+03 0.0000000000e+00 0.0000e+00 1.0000e+00
  9000005  2    1    2  501    0 -1.6799655628e-01 +3.0577300390e-01 -8.8879304231e+02 1.1111383223e+03 6.6683969393e+02 0.0000e+00 0.0000e+00
       13  1    3    3    0    0 -2.9196289842e+02 -8.0560260309e+01 -2.1199603727e+02 3.6969529266e+02 0.0000000000e+00 0.0000e+00 1.0000e+00
        1  1    3    3  501    0 +2.9179490187e+02 +8.0866033313e+01 -6.7679700504e+02 7.4144302959e+02 0.0000000000e+00 0.0000e+00 1.0000e+00
       21  1    1    2  502  501 +1.6799655628e-01 -3.0577300390e-01 +8.5239606630e-01 9.2103150146e-01 0.0000000000e+00 0.0000e+00 1.0000e+00
<mgrwt>
<rscale>  1 0.66683979E+03</rscale>
<asrwt>0</asrwt>
<pdfrwt beam="1">  1        1 0.40748942E+00 0.66683979E+03</pdfrwt>
<pdfrwt beam="2">0</pdfrwt>
<totfact> 0.12347152E+00</totfact>
</mgrwt>
</event>
<event>
 6      1 +5.6466785e-02 6.49546800e+02 7.81860800e-03 9.80763000e-02
        3 -1    0    0  502    0 +0.0000000000e+00 +0.0000000000e+00 +1.0547781478e+02 1.0547781478e+02 0.0000000000e+00 0.0000e+00 1.0000e+00
       13 -1    0    0    0    0 -0.0000000000e+00 -0.0000000000e+00 -1.0000000000e+03 1.0000000000e+03 0.0000000000e+00 0.0000e+00 1.0000e+00
  9000005  2    1    2  501    0 +1.5857119394e-05 -1.7307646544e-05 -8.9452223293e+02 1.1054777616e+03 6.4954680834e+02 0.0000e+00 0.0000e+00
       13  1    3    3    0    0 +1.2784591633e+02 -2.9092141959e+02 -3.3311914116e+02 4.6037833671e+02 0.0000000000e+00 0.0000e+00 1.0000e+00
        1  1    3    3  501    0 -1.2784590048e+02 +2.9092140228e+02 -5.6140309176e+02 6.4509942491e+02 0.0000000000e+00 0.0000e+00 1.0000e+00
       21  1    1    2  502  501 -1.5857119389e-05 +1.7307646531e-05 +4.7702671765e-05 5.3165287146e-05 0.0000000000e+00 0.0000e+00 1.0000e+00
<mgrwt>
<rscale>  1 0.64954681E+03</rscale>
<asrwt>0</asrwt>
<pdfrwt beam="1">  1        3 0.38355650E+00 0.64954681E+03</pdfrwt>
<pdfrwt beam="2">0</pdfrwt>
<totfact> 0.72291260E-02</totfact>
</mgrwt>
</event>
<event>
 6      1 +5.6466785e-02 6.51418500e+02 7.81860800e-03 9.80412100e-02
        1 -1    0    0  502    0 +0.0000000000e+00 +0.0000000000e+00 +1.1106400644e+02 1.1106400644e+02 0.0000000000e+00 0.0000e+00 1.0000e+00
       13 -1    0    0    0    0 -0.0000000000e+00 -0.0000000000e+00 -1.0000000000e+03 1.0000000000e+03 0.0000000000e+00 0.0000e+00 1.0000e+00
  9000005  2    1    2  501    0 -2.5555667399e+00 -4.2445036125e+00 -8.9251173181e+02 1.1049539626e+03 6.5139966321e+02 0.0000e+00 0.0000e+00
       13  1    3    3    0    0 -1.7041162365e+02 -2.5399205400e+02 -2.4841920080e+02 3.9403576525e+02 0.0000000000e+00 0.0000e+00 1.0000e+00
        1  1    3    3  501    0 +1.6785605691e+02 +2.4974755039e+02 -6.4409253100e+02 7.1091819731e+02 0.0000000000e+00 0.0000e+00 1.0000e+00
       21  1    1    2  502  501 +2.5555667399e+00 +4.2445036125e+00 +3.5757382492e+00 6.1100438874e+00 0.0000000000e+00 0.0000e+00 -1.0000e+00
<mgrwt>
<rscale>  1 0.65141850E+03</rscale>
<asrwt>0</asrwt>
<pdfrwt beam="1">  1        1 0.40386997E+00 0.65141850E+03</pdfrwt>
<pdfrwt beam="2">0</pdfrwt>
<totfact> 0.12853726E+00</totfact>
</mgrwt>
</event>
<event>
 6      1 +5.6466785e-02 6.46239600e+02 7.81860800e-03 9.81386100e-02
        1 -1    0    0  502    0 +0.0000000000e+00 +0.0000000000e+00 +1.0446428990e+02 1.0446428990e+02 0.0000000000e+00 0.0000e+00 1.0000e+00
       13 -1    0    0    0    0 -0.0000000000e+00 -0.0000000000e+00 -1.0000000000e+03 1.0000000000e+03 0.0000000000e+00 0.0000e+00 1.0000e+00
  9000005  2    1    2  501    0 +1.1700612294e-03 +9.1188190713e-05 -8.9559359873e+02 1.1044063894e+03 6.4623956764e+02 0.0000e+00 0.0000e+00
       13  1    3    3    0    0 +1.3758320747e+02 -2.7351726313e-01 -9.4744136637e+02 9.5737889913e+02 0.0000000000e+00 0.0000e+00 1.0000e+00
        1  1    3    3  501    0 -1.3758203741e+02 +2.7360845132e-01 +5.1847767632e+01 1.4702749024e+02 0.0000000000e+00 0.0000e+00 1.0000e+00
       21  1    1    2  502  501 -1.1700612294e-03 -9.1188190713e-05 +5.7888638401e-02 5.7900533801e-02 0.0000000000e+00 0.0000e+00 1.0000e+00
<mgrwt>
<rscale>  1 0.64623957E+03</rscale>
<asrwt>0</asrwt>
<pdfrwt beam="1">  1        1 0.37987095E+00 0.64623957E+03</pdfrwt>
<pdfrwt beam="2">0</pdfrwt>
<totfact> 0.16442613E+00</totfact>
</mgrwt>
</event>
<event>
 6      1 +5.6466785e-02 6.53955400e+02 7.81860800e-03 9.79938500e-02
        1 -1    0    0  502    0 +0.0000000000e+00 +0.0000000000e+00 +1.1526687638e+02 1.1526687638e+02 0.0000000000e+00 0.0000e+00 1.0000e+00
       13 -1    0    0    0    0 -0.0000000000e+00 -0.0000000000e+00 -1.0000000000e+03 1.0000000000e+03 0.0000000000e+00 0.0000e+00 1.0000e+00
  9000005  2    1    2  501    0 -4.7484366882e+00 -2.2167596260e+00 -8.9216588637e+02 1.1061725025e+03 6.5393438112e+02 0.0000e+00 0.0000e+00
       13  1    3    3    0    0 -1.6749102427e+02 -2.5796405014e+02 -6.4670061548e+02 7.1611478160e+02 0.0000000000e+00 0.0000e+00 1.0000e+00
        1  1    3    3  501    0 +1.6274258758e+02 +2.5574729051e+02 -2.4546527089e+02 3.9005772090e+02 0.0000000000e+00 0.0000e+00 1.0000e+00
       21  1    1    2  502  501 +4.7484366882e+00 +2.2167596260e+00 +7.4327627525e+00 9.0943738848e+00 0.0000000000e+00 0.0000e+00 -1.0000e+00
<mgrwt>
<rscale>  1 0.65395538E+03</rscale>
<asrwt>0</asrwt>
<pdfrwt beam="1">  1        1 0.41915316E+00 0.65395538E+03</pdfrwt>
<pdfrwt beam="2">0</pdfrwt>
<totfact> 0.10970751E+00</totfact>
</mgrwt>
</event>
<event>
 6      1 +5.6466785e-02 6.52597500e+02 7.81860800e-03 9.80191700e-02
        1 -1    0    0  502    0 +0.0000000000e+00 +0.0000000000e+00 +1.0659949291e+02 1.0659949291e+02 0.0000000000e+00 0.0000e+00 1.0000e+00
       13 -1    0    0    0    0 -0.0000000000e+00 -0.0000000000e+00 -1.0000000000e+03 1.0000000000e+03 0.0000000000e+00 0.0000e+00 1.0000e+00
  9000005  2    1    2  501    0 +8.4674363803e-02 -1.1844184309e-02 -8.9351322009e+02 1.1064580212e+03 6.5259747995e+02 0.0000e+00 0.0000e+00
       13  1    3    3    0    0 -2.6566459067e+02 -9.6221034137e+01 -1.7011998994e+02 3.2981354297e+02 0.0000000000e+00 0.0000e+00 1.0000e+00
        1  1    3    3  501    0 +2.6574926504e+02 +9.6209189952e+01 -7.2339323014e+02 7.7664447820e+02 0.0000000000e+00 0.0000e+00 1.0000e+00
       21  1    1    2  502  501 -8.4674363803e-02 +1.1844184309e-02 +1.1271299509e-01 1.4147173516e-01 0.0000000000e+00 0.0000e+00 -1.0000e+00
<mgrwt>
<rscale>  1 0.65259749E+03</rscale>
<asrwt>0</asrwt>
<pdfrwt beam="1">  1        1 0.38763534E+00 0.65259749E+03</pdfrwt>
<pdfrwt beam="2">0</pdfrwt>
<totfact> 0.15175365E+00</totfact>
</mgrwt>
</event>
<event>
 6      1 +5.6466785e-02 6.35117700e+02 7.81860800e-03 9.83511300e-02
        1 -1    0    0  502    0 +0.0000000000e+00 +0.0000000000e+00 +1.0084364842e+02 1.0084364842e+02 0.0000000000e+00 0.0000e+00 1.0000e+00
       13 -1    0    0    0    0 -0.0000000000e+00 -0.0000000000e+00 -1.0000000000e+03 1.0000000000e+03 0.0000000000e+00 0.0000e+00 1.0000e+00
  9000005  2    1    2  501    0 +2.2558590558e-05 +9.9121956509e-06 -8.9915635381e+02 1.1008436237e+03 6.3511773334e+02 0.0000e+00 0.0000e+00
       13  1    3    3    0    0 -1.7231915655e+02 +2.5103789533e+02 -6.0586021465e+02 6.7807117348e+02 0.0000000000e+00 0.0000e+00 1.0000e+00
        3  1    3    3  501    0 +1.7231917911e+02 -2.5103788542e+02 -2.9329613916e+02 4.2277245020e+02 0.0000000000e+00 0.0000e+00 1.0000e+00
       21  1    1    2  502  501 -2.2558590557e-05 -9.9121956608e-06 +2.2295969244e-06 2.4740912133e-05 0.0000000000e+00 0.0000e+00 -1.0000e+00
<mgrwt>
<rscale>  1 0.63511773E+03</rscale>
<asrwt>0</asrwt>
<pdfrwt beam="1">  1        1 0.36670495E+00 0.63511773E+03</pdfrwt>
<pdfrwt beam="2">0</pdfrwt>
<totfact> 0.18826233E+00</totfact>
</mgrwt>
</event>
<event>
 6      1 +5.6466785e-02 6.51632200e+02 7.81860800e-03 9.80372100e-02
        1 -1    0    0  502    0 +0.0000000000e+00 +0.0000000000e+00 +1.0650534127e+02 1.0650534127e+02 0.0000000000e+00 0.0000e+00 1.0000e+00
       13 -1    0    0    0    0 -0.0000000000e+00 -0.0000000000e+00 -1.0000000000e+03 1.0000000000e+03 0.0000000000e+00 0.0000e+00 1.0000e+00
  9000005  2    1    2  501    0 -9.6807619501e-01 +2.8782341424e-01 -8.9263197130e+02 1.1051770930e+03 6.5163145313e+02 0.0000e+00 0.0000e+00
       13  1    3    3    0    0 -1.4612635225e+02 -2.1234037937e+02 -1.0815293690e+02 2.7953247627e+02 0.0000000000e+00 0.0000e+00 1.0000e+00
        3  1    3    3  501    0 +1.4515827605e+02 +2.1262820279e+02 -7.8447903441e+02 8.2564461674e+02 0.0000000000e+00 0.0000e+00 1.0000e+00
       21  1    1    2  502  501 +9.6807619501e-01 -2.8782341424e-01 -8.6268742731e-01 1.3282482578e+00 0.0000000000e+00 0.0000e+00 -1.0000e+00
<mgrwt>
<rscale>  1 0.65163224E+03</rscale>
<asrwt>0</asrwt>
<pdfrwt beam="1">  1        1 0.38729297E+00 0.65163224E+03</pdfrwt>
<pdfrwt beam="2">0</pdfrwt>
<totfact> 0.15231162E+00</totfact>
</mgrwt>
</event>
<event>
 6      1 +5.6466785e-02 6.47136500e+02 7.81860800e-03 9.81216700e-02
        1 -1    0    0  502    0 +0.0000000000e+00 +0.0000000000e+00 +1.0530828685e+02 1.0530828685e+02 0.0000000000e+00 0.0000e+00 1.0000e+00
       13 -1    0    0    0    0 -0.0000000000e+00 -0.0000000000e+00 -1.0000000000e+03 1.0000000000e+03 0.0000000000e+00 0.0000e+00 1.0000e+00
  9000005  2    1    2  501    0 -2.8295321462e-02 +2.4136925816e-01 -8.9527682235e+02 1.1046747156e+03 6.4713644589e+02 0.0000e+00 0.0000e+00
       13  1    3    3    0    0 -2.5894280474e+02 -1.7373687072e+02 -5.9466448650e+02 6.7146238009e+02 0.0000000000e+00 0.0000e+00 1.0000e+00
        1  1    3    3  501    0 +2.5891450942e+02 +1.7397823998e+02 -3.0061233585e+02 4.3321233551e+02 0.0000000000e+00 0.0000e+00 1.0000e+00
       21  1    1    2  502  501 +2.8295321462e-02 -2.4136925816e-01 +5.8510919496e-01 6.3357123832e-01 0.0000000000e+00 0.0000e+00 -1.0000e+00
<mgrwt>
<rscale>  1 0.64713649E+03</rscale>
<asrwt>0</asrwt>
<pdfrwt beam="1">  1        1 0.38294003E+00 0.64713649E+03</pdfrwt>
<pdfrwt beam="2">0</pdfrwt>
<totfact> 0.15934872E+00</totfact>
</mgrwt>
</event>
<event>
 6      1 +5.6466785e-02 6.50193800e+02 7.81860800e-03 9.80641600e-02
        1 -1    0    0  502    0 +0.0000000000e+00 +0.0000000000e+00 +1.0582286744e+02 1.0582286744e+02 0.0000000000e+00 0.0000e+00 1.0000e+00
       13 -1    0    0    0    0 -0.0000000000e+00 -0.0000000000e+00 -1.0000000000e+03 1.0000000000e+03 0.0000000000e+00 0.0000e+00 1.0000e+00
  9000005  2    1    2  501    0 -9.9762851775e-04 +1.6853136568e-03 -8.9431201288e+02 1.1056879729e+03 6.5019375345e+02 0.0000e+00 0.0000e+00
       13  1    3    3    0    0 +7.7335685972e+01 +3.0929888383e+02 -3.3904391680e+02 4.6540024213e+02 0.0000000000e+00 0.0000e+00 1.0000e+00
        3  1    3    3  501    0 -7.7336683600e+01 -3.0929719851e+02 -5.5526809609e+02 6.4028773077e+02 0.0000000000e+00 0.0000e+00 1.0000e+00
       21  1    1    2  502  501 +9.9762851775e-04 -1.6853136569e-03 +1.3488032159e-01 1.3489453917e-01 0.0000000000e+00 0.0000e+00 -1.0000e+00
<mgrwt>
<rscale>  1 0.65019375E+03</rscale>
<asrwt>0</asrwt>
<pdfrwt beam="1">  1        1 0.38481124E+00 0.65019375E+03</pdfrwt>
<pdfrwt beam="2">0</pdfrwt>
<totfact> 0.15625416E+00</totfact>
</mgrwt>
</event>
<event>
 6      1 +5.6466785e-02 6.64226800e+02 7.81860800e-03 9.78044400e-02
        1 -1    0    0  502    0 +0.0000000000e+00 +0.0000000000e+00 +1.1125171978e+02 1.1125171978e+02 0.0000000000e+00 0.0000e+00 1.0000e+00
       13 -1    0    0    0    0 -0.0000000000e+00 -0.0000000000e+00 -1.0000000000e+03 1.0000000000e+03 0.0000000000e+00 0.0000e+00 1.0000e+00
  9000005  2    1    2  501    0 +2.4283448408e-02 -2.8852779985e-02 -8.8970027868e+02 1.1102989747e+03 6.6422678796e+02 0.0000e+00 0.0000e+00
       13  1    3    3    0    0 +2.0711832205e+02 -2.4752355400e+02 -3.1383446985e+02 4.5017550308e+02 0.0000000000e+00 0.0000e+00 1.0000e+00
        1  1    3    3  501    0 -2.0709403860e+02 +2.4749470122e+02 -5.7586580884e+02 6.6012347159e+02 0.0000000000e+00 0.0000e+00 1.0000e+00
       21  1    1    2  502  501 -2.4283448408e-02 +2.8852779985e-02 +9.5199846751e-01 9.5274511330e-01 0.0000000000e+00 0.0000e+00 1.0000e+00
<mgrwt>
<rscale>  1 0.66422679E+03</rscale>
<asrwt>0</asrwt>
<pdfrwt beam="1">  1        1 0.40455256E+00 0.66422679E+03</pdfrwt>
<pdfrwt beam="2">0</pdfrwt>
<totfact> 0.12732756E+00</totfact>
</mgrwt>
</event>
<event>
 6      1 +5.6466785e-02 5.04094600e+02 7.81860800e-03 1.01271600e-01
        1 -1    0    0  502    0 +0.0000000000e+00 +0.0000000000e+00 +6.3527924918e+01 6.3527924918e+01 0.0000000000e+00 0.0000e+00 1.0000e+00
       13 -1    0    0    0    0 -0.0000000000e+00 -0.0000000000e+00 -1.0000000000e+03 1.0000000000e+03 0.0000000000e+00 0.0000e+00 1.0000e+00
  9000005  2    1    2  501    0 -2.5068437760e-04 +2.2483747421e-04 -9.3647167356e+02 1.0635274009e+03 5.0409457153e+02 0.0000e+00 0.0000e+00
       13  1    3    3    0    0 +7.7291327215e+01 +2.3734156007e+02 -3.9445698294e+02 4.6679896828e+02 0.0000000000e+00 0.0000e+00 1.0000e+00
        1  1    3    3  501    0 -7.7291577900e+01 -2.3734133523e+02 -5.4201469062e+02 5.9672843260e+02 0.0000000000e+00 0.0000e+00 1.0000e+00
       21  1    1    2  502  501 +2.5068437761e-04 -2.2483747420e-04 -4.0151689322e-04 5.2403278764e-04 0.0000000000e+00 0.0000e+00 -1.0000e+00
<mgrwt>
<rscale>  1 0.50409457E+03</rscale>
<asrwt>0</asrwt>
<pdfrwt beam="1">  1        1 0.23101112E+00 0.50409457E+03</pdfrwt>
<pdfrwt beam="2">0</pdfrwt>
<totfact> 0.74716885E+00</totfact>
</mgrwt>
</event>
<event>
 6      1 +5.6466785e-02 6.53497400e+02 7.81860800e-03 9.80023900e-02
        1 -1    0    0  502    0 +0.0000000000e+00 +0.0000000000e+00 +1.1234396537e+02 1.1234396537e+02 0.0000000000e+00 0.0000e+00 1.0000e+00
       13 -1    0    0    0    0 -0.0000000000e+00 -0.0000000000e+00 -1.0000000000e+03 1.0000000000e+03 0.0000000000e+00 0.0000e+00 1.0000e+00
  9000005  2    1    2  501    0 +1.0006699127e-01 +7.5807342107e-02 -8.9323450365e+02 1.1067640839e+03 6.5349739344e+02 0.0000e+00 0.0000e+00
       13  1    3    3    0    0 +2.4313725019e+02 +1.0358699265e+01 -8.1604106878e+02 8.5155507808e+02 0.0000000000e+00 0.0000e+00 1.0000e+00
        1  1    3    3  501    0 -2.4303718320e+02 -1.0282891923e+01 -7.7193434873e+01 2.5520900586e+02 0.0000000000e+00 0.0000e+00 1.0000e+00
       21  1    1    2  502  501 -1.0006699127e-01 -7.5807342107e-02 +5.5784690173e+00 5.5798814264e+00 0.0000000000e+00 0.0000e+00 1.0000e+00
<mgrwt>
<rscale>  1 0.65349741E+03</rscale>
<asrwt>0</asrwt>
<pdfrwt beam="1">  1        1 0.40852437E+00 0.65349741E+03</pdfrwt>
<pdfrwt beam="2">0</pdfrwt>
<totfact> 0.12247180E+00</totfact>
</mgrwt>
</event>
<event>
 6      1 +5.6466785e-02 6.41403900e+02 7.81860800e-03 9.82304400e-02
        1 -1    0    0  502    0 +0.0000000000e+00 +0.0000000000e+00 +1.0285005299e+02 1.0285005299e+02 0.0000000000e+00 0.0000e+00 1.0000e+00
       13 -1    0    0    0    0 -0.0000000000e+00 -0.0000000000e+00 -1.0000000000e+03 1.0000000000e+03 0.0000000000e+00 0.0000e+00 1.0000e+00
  9000005  2    1    2  501    0 -2.7537499696e-04 -2.5565277133e-04 -8.9715010817e+02 1.1028496441e+03 6.4140394525e+02 0.0000e+00 0.0000e+00
       13  1    3    3    0    0 -1.7317684919e+02 +2.6984975147e+02 -4.3761581414e+02 5.4250964070e+02 0.0000000000e+00 0.0000e+00 1.0000e+00
        1  1    3    3  501    0 +1.7317657381e+02 -2.6985000713e+02 -4.5953429403e+02 5.6034000344e+02 0.0000000000e+00 0.0000e+00 1.0000e+00
       21  1    1    2  502  501 +2.7537499695e-04 +2.5565277134e-04 +1.6116260782e-04 4.0885586042e-04 0.0000000000e+00 0.0000e+00 -1.0000e+00
<mgrwt>
<rscale>  1 0.64140395E+03</rscale>
<asrwt>0</asrwt>
<pdfrwt beam="1">  1        1 0.37400098E+00 0.64140395E+03</pdfrwt>
<pdfrwt beam="2">0</pdfrwt>
<totfact> 0.17466972E+00</totfact>
</mgrwt>
</event>
<event>
 6      1 +5.6466785e-02 6.43460100e+02 7.81860800e-03 9.81912900e-02
        1 -1    0    0  502    0 +0.0000000000e+00 +0.0000000000e+00 +1.0366066828e+02 1.0366066828e+02 0.0000000000e+00 0.0000e+00 1.0000e+00
       13 -1    0    0    0    0 -0.0000000000e+00 -0.0000000000e+00 -1.0000000000e+03 1.0000000000e+03 0.0000000000e+00 0.0000e+00 1.0000e+00
  9000005  2    1    2  501    0 -8.3445238374e-02 +1.1531562447e-02 -8.9647666192e+02 1.1034995607e+03 6.4346007482e+02 0.0000e+00 0.0000e+00
       13  1    3    3    0    0 -8.5414330652e+01 -2.2811753540e+02 -8.7776707502e+01 2.5891691373e+02 0.0000000000e+00 0.0000e+00 1.0000e+00
        3  1    3    3  501    0 +8.5330885414e+01 +2.2812906696e+02 -8.0869995442e+02 8.4458264692e+02 0.0000000000e+00 0.0000e+00 1.0000e+00
       21  1    1    2  502  501 +8.3445238374e-02 -1.1531562447e-02 +1.3733019906e-01 1.6110762959e-01 0.0000000000e+00 0.0000e+00 1.0000e+00
<mgrwt>
<rscale>  1 0.64346008E+03</rscale>
<asrwt>0</asrwt>
<pdfrwt beam="1">  1        1 0.37694868E+00 0.64346008E+03</pdfrwt>
<pdfrwt beam="2">0</pdfrwt>
<totfact> 0.16946350E+00</totfact>
</mgrwt>
</event>
<event>
 6      1 +5.6466785e-02 6.52768900e+02 7.81860800e-03 9.80159700e-02
        1 -1    0    0  502    0 +0.0000000000e+00 +0.0000000000e+00 +1.0660354874e+02 1.0660354874e+02 0.0000000000e+00 0.0000e+00 1.0000e+00
       13 -1    0    0    0    0 -0.0000000000e+00 -0.0000000000e+00 -1.0000000000e+03 1.0000000000e+03 0.0000000000e+00 0.0000e+00 1.0000e+00
  9000005  2    1    2  501    0 +6.3570504482e-02 -6.0560942833e-02 -8.9344434803e+02 1.1065035341e+03 6.5276891787e+02 0.0000e+00 0.0000e+00
       13  1    3    3    0    0 +2.0075589567e+01 +3.2520800505e+02 -4.1519315907e+02 5.2777706959e+02 0.0000000000e+00 0.0000e+00 1.0000e+00
        3  1    3    3  501    0 -2.0012019063e+01 -3.2526856599e+02 -4.7825118896e+02 5.7872646447e+02 0.0000000000e+00 0.0000e+00 1.0000e+00
       21  1    1    2  502  501 -6.3570504482e-02 +6.0560942833e-02 +4.7896769135e-02 1.0001468557e-01 0.0000000000e+00 0.0000e+00 -1.0000e+00
<mgrwt>
<rscale>  1 0.65276892E+03</rscale>
<asrwt>0</asrwt>
<pdfrwt beam="1">  1        1 0.38765009E+00 0.65276892E+03</pdfrwt>
<pdfrwt beam="2">0</pdfrwt>
<totfact> 0.15172601E+00</totfact>
</mgrwt>
</event>
<event>
 6      1 +5.6466785e-02 6.50351300e+02 7.81860800e-03 9.80612000e-02
        1 -1    0    0  502    0 +0.0000000000e+00 +0.0000000000e+00 +1.0574005409e+02 1.0574005409e+02 0.0000000000e+00 0.0000e+00 1.0000e+00
       13 -1    0    0    0    0 -0.0000000000e+00 -0.0000000000e+00 -1.0000000000e+03 1.0000000000e+03 0.0000000000e+00 0.0000e+00 1.0000e+00
  9000005  2    1    2  501    0 -4.0461938994e-04 -1.7116124146e-05 -8.9426072831e+02 1.1057391731e+03 6.5035134250e+02 0.0000e+00 0.0000e+00
       13  1    3    3    0    0 -2.9258483112e+02 -3.0493400369e+00 -6.8832293055e+02 7.4793291049e+02 0.0000000000e+00 0.0000e+00 1.0000e+00
        3  1    3    3  501    0 +2.9258442650e+02 +3.0493229208e+00 -2.0593779776e+02 3.5780626259e+02 0.0000000000e+00 0.0000e+00 1.0000e+00
       21  1    1    2  502  501 +4.0461938992e-04 +1.7116124146e-05 +7.8240480979e-04 8.8100346128e-04 0.0000000000e+00 0.0000e+00 1.0000e+00
<mgrwt>
<rscale>  1 0.65035134E+03</rscale>
<asrwt>0</asrwt>
<pdfrwt beam="1">  1        1 0.38451010E+00 0.65035134E+03</pdfrwt>
<pdfrwt beam="2">0</pdfrwt>
<totfact> 0.15672950E+00</totfact>
</mgrwt>
</event>
<event>
 6      1 +5.6466785e-02 6.39070800e+02 7.81860800e-03 9.82750600e-02
        1 -1    0    0  502    0 +0.0000000000e+00 +0.0000000000e+00 +1.0229574314e+02 1.0229574314e+02 0.0000000000e+00 0.0000e+00 1.0000e+00
       13 -1    0    0    0    0 -0.0000000000e+00 -0.0000000000e+00 -1.0000000000e+03 1.0000000000e+03 0.0000000000e+00 0.0000e+00 1.0000e+00
  9000005  2    1    2  501    0 +4.8636300360e-02 -5.2168097540e-01 -8.9634269653e+02 1.1008368521e+03 6.3907063052e+02 0.0000e+00 0.0000e+00
       13  1    3    3    0    0 -2.6970269541e+02 -1.3573234599e+01 -7.4237226652e+02 7.8996225144e+02 0.0000000000e+00 0.0000e+00 1.0000e+00
        3  1    3    3  501    0 +2.6975133171e+02 +1.3051553623e+01 -1.5397043001e+02 3.1087460065e+02 0.0000000000e+00 0.0000e+00 1.0000e+00
       21  1    1    2  502  501 -4.8636300360e-02 +5.2168097540e-01 -1.3615603376e+00 1.4588910455e+00 0.0000000000e+00 0.0000e+00 1.0000e+00
<mgrwt>
<rscale>  1 0.63907085E+03</rscale>
<asrwt>0</asrwt>
<pdfrwt beam="1">  1        1 0.37198530E+00 0.63907085E+03</pdfrwt>
<pdfrwt beam="2">0</pdfrwt>
<totfact> 0.17834754E+00</totfact>
</mgrwt>
</event>
<event>
 6      1 +5.6466785e-02 6.47384000e+02 7.81860800e-03 9.81170000e-02
        1 -1    0    0  502    0 +0.0000000000e+00 +0.0000000000e+00 +1.0481383617e+02 1.0481383617e+02 0.0000000000e+00 0.0000e+00 1.0000e+00
       13 -1    0    0    0    0 -0.0000000000e+00 -0.0000000000e+00 -1.0000000000e+03 1.0000000000e+03 0.0000000000e+00 0.0000e+00 1.0000e+00
  9000005  2    1    2  501    0 +2.5096365666e-03 -7.3862364951e-03 -8.9522304469e+02 1.1047761393e+03 6.4738398050e+02 0.0000e+00 0.0000e+00
       13  1    3    3    0    0 -9.4467898245e+01 +1.3964980451e+02 -9.1914385064e+02 9.3447935765e+02 0.0000000000e+00 0.0000e+00 1.0000e+00
        3  1    3    3  501    0 +9.4470407882e+01 -1.3965719074e+02 +2.3920805952e+01 1.7029678168e+02 0.0000000000e+00 0.0000e+00 1.0000e+00
       21  1    1    2  502  501 -2.5096365666e-03 +7.3862364951e-03 +3.6880853825e-02 3.7696845281e-02 0.0000000000e+00 0.0000e+00 -1.0000e+00
<mgrwt>
<rscale>  1 0.64738398E+03</rscale>
<asrwt>0</asrwt>
<pdfrwt beam="1">  1        1 0.38114203E+00 0.64738398E+03</pdfrwt>
<pdfrwt beam="2">0</pdfrwt>
<totfact> 0.16228177E+00</totfact>
</mgrwt>
</event>
<event>
 6      1 +5.6466785e-02 6.51929200e+02 7.81860800e-03 9.80316600e-02
        1 -1    0    0  502    0 +0.0000000000e+00 +0.0000000000e+00 +1.0625530175e+02 1.0625530175e+02 0.0000000000e+00 0.0000e+00 1.0000e+00
       13 -1    0    0    0    0 -0.0000000000e+00 -0.0000000000e+00 -1.0000000000e+03 1.0000000000e+03 0.0000000000e+00 0.0000e+00 1.0000e+00
  9000005  2    1    2  501    0 +2.7216482105e-03 -5.4033205674e-04 -8.9374613283e+02 1.1062521781e+03 6.5192923814e+02 0.0000e+00 0.0000e+00
       13  1    3    3    0    0 -5.7540101204e+01 -2.7071279921e+02 -7.3909621622e+02 7.8921448272e+02 0.0000000000e+00 0.0000e+00 1.0000e+00
        1  1    3    3  501    0 +5.7542822853e+01 +2.7071225888e+02 -1.5464991661e+02 3.1703769535e+02 0.0000000000e+00 0.0000e+00 1.0000e+00
       21  1    1    2  502  501 -2.7216482105e-03 +5.4033205674e-04 +1.4345737670e-03 3.1236724550e-03 0.0000000000e+00 0.0000e+00 -1.0000e+00
<mgrwt>
<rscale>  1 0.65192924E+03</rscale>
<asrwt>0</asrwt>
<pdfrwt beam="1">  1        1 0.38638373E+00 0.65192924E+03</pdfrwt>
<pdfrwt beam="2">0</pdfrwt>
<totfact> 0.15372154E+00</totfact>
</mgrwt>
</event>
<event>
 6      1 +5.6466785e-02 6.61447600e+02 7.81860800e-03 9.78553300e-02
        1 -1    0    0  502    0 +0.0000000000e+00 +0.0000000000e+00 +1.0939226459e+02 1.0939226459e+02 0.0000000000e+00 0.0000e+00 1.0000e+00
       13 -1    0    0    0    0 -0.0000000000e+00 -0.0000000000e+00 -1.0000000000e+03 1.0000000000e+03 0.0000000000e+00 0.0000e+00 1.0000e+00
  9000005  2    1    2  501    0 -6.3205636106e-04 +2.3239819003e-03 -8.9062165196e+02 1.1093781412e+03 6.6144760425e+02 0.0000e+00 0.0000e+00
       13  1    3    3    0    0 -5.4745696172e+01 -2.9142212989e+01 -9.9015945039e+02 9.9209984226e+02 0.0000000000e+00 0.0000e+00 1.0000e+00
        3  1    3    3  501    0 +5.4745064116e+01 +2.9144536971e+01 +9.9537798426e+01 1.1727829891e+02 0.0000000000e+00 0.0000e+00 1.0000e+00
       21  1    1    2  502  501 +6.3205636106e-04 -2.3239819003e-03 +1.3916553613e-02 1.4123415011e-02 0.0000000000e+00 0.0000e+00 -1.0000e+00
<mgrwt>
<rscale>  1 0.66144760E+03</rscale>
<asrwt>0</asrwt>
<pdfrwt beam="1">  1        1 0.39779089E+00 0.66144760E+03</pdfrwt>
<pdfrwt beam="2">0</pdfrwt>
<totfact> 0.13655910E+00</totfact>
</mgrwt>
</event>
<event>
 6      1 +5.6466785e-02 6.43233500e+02 7.81860800e-03 9.81955900e-02
        1 -1    0    0  502    0 +0.0000000000e+00 +0.0000000000e+00 +1.4678017550e+02 1.4678017550e+02 0.0000000000e+00 0.0000e+00 1.0000e+00
       13 -1    0    0    0    0 -0.0000000000e+00 -0.0000000000e+00 -1.0000000000e+03 1.0000000000e+03 0.0000000000e+00 0.0000e+00 1.0000e+00
  9000005  2    1    2  501    0 +7.2586478460e-02 +1.2636384847e+00 -8.9655246215e+02 1.1034290563e+03 6.4323227750e+02 0.0000e+00 0.0000e+00
       13  1    3    3    0    0 +3.5612645317e+01 -3.1053379528e+02 -3.2198434942e+02 4.4874649836e+02 0.0000000000e+00 0.0000e+00 1.0000e+00
        3  1    3    3  501    0 -3.5540058838e+01 +3.1179743377e+02 -5.7456811273e+02 6.5468255793e+02 0.0000000000e+00 0.0000e+00 1.0000e+00
       21  1    1    2  502  501 -7.2586478460e-02 -1.2636384847e+00 +4.3332637649e+01 4.3351119208e+01 0.0000000000e+00 0.0000e+00 1.0000e+00
<mgrwt>
<rscale>  1 0.64323352E+03</rscale>
<asrwt>0</asrwt>
<pdfrwt beam="1">  1        1 0.53374722E+00 0.64323352E+03</pdfrwt>
<pdfrwt beam="2">0</pdfrwt>
<totfact> 0.31660882E-01</totfact>
</mgrwt>
</event>
<event>
 6      1 +5.6466785e-02 6.39076400e+02 7.81860800e-03 9.82749500e-02
        1 -1    0    0  502    0 +0.0000000000e+00 +0.0000000000e+00 +1.0304613623e+02 1.0304613623e+02 0.0000000000e+00 0.0000e+00 1.0000e+00
       13 -1    0    0    0    0 -0.0000000000e+00 -0.0000000000e+00 -1.0000000000e+03 1.0000000000e+03 0.0000000000e+00 0.0000e+00 1.0000e+00
  9000005  2    1    2  501    0 -2.5704095522e-01 +9.3014480583e-03 -8.9787595231e+02 1.1020888464e+03 6.3907631270e+02 0.0000e+00 0.0000e+00
       13  1    3    3    0    0 -2.4926547337e+02 +1.0217720667e+02 -7.4575640380e+02 7.9292248776e+02 0.0000000000e+00 0.0000e+00 1.0000e+00
        1  1    3    3  501    0 +2.4900843242e+02 -1.0216790522e+02 -1.5211954850e+02 3.0916635863e+02 0.0000000000e+00 0.0000e+00 1.0000e+00
       21  1    1    2  502  501 +2.5704095522e-01 -9.3014480583e-03 +9.2208853226e-01 9.5728983643e-01 0.0000000000e+00 0.0000e+00 -1.0000e+00
<mgrwt>
<rscale>  1 0.63907636E+03</rscale>
<asrwt>0</asrwt>
<pdfrwt beam="1">  1        1 0.37471401E+00 0.63907636E+03</pdfrwt>
<pdfrwt beam="2">0</pdfrwt>
<totfact> 0.17348633E+00</totfact>
</mgrwt>
</event>
<event>
 6      1 +5.6466785e-02 6.54043700e+02 7.81860800e-03 9.79922100e-02
        1 -1    0    0  502    0 +0.0000000000e+00 +0.0000000000e+00 +1.0695722572e+02 1.0695722572e+02 0.0000000000e+00 0.0000e+00 1.0000e+00
       13 -1    0    0    0    0 -0.0000000000e+00 -0.0000000000e+00 -1.0000000000e+03 1.0000000000e+03 0.0000000000e+00 0.0000e+00 1.0000e+00
  9000005  2    1    2  501    0 -1.8485688766e-02 +3.5157078585e-03 -8.9304927388e+02 1.1069373178e+03 6.5404374439e+02 0.0000e+00 0.0000e+00
       13  1    3    3    0    0 -2.9236073591e+02 +1.7785398160e+01 -2.0035763940e+02 3.5487223610e+02 0.0000000000e+00 0.0000e+00 1.0000e+00
        1  1    3    3  501    0 +2.9234225022e+02 -1.7781882452e+01 -6.9269163449e+02 7.5206508169e+02 0.0000000000e+00 0.0000e+00 1.0000e+00
       21  1    1    2  502  501 +1.8485688766e-02 -3.5157078585e-03 +6.4996079295e-03 1.9907932945e-02 0.0000000000e+00 0.0000e+00 1.0000e+00
<mgrwt>
<rscale>  1 0.65404374E+03</rscale>
<asrwt>0</asrwt>
<pdfrwt beam="1">  1        1 0.38893619E+00 0.65404374E+03</pdfrwt>
<pdfrwt beam="2">0</pdfrwt>
<totfact> 0.14971286E+00</totfact>
</mgrwt>
</event>
<event>
 6      1 +5.6466785e-02 6.57657000e+02 7.81860800e-03 9.79251700e-02
        1 -1    0    0  502    0 +0.0000000000e+00 +0.0000000000e+00 +1.2011828841e+02 1.2011828841e+02 0.0000000000e+00 0.0000e+00 1.0000e+00
       13 -1    0    0    0    0 -0.0000000000e+00 -0.0000000000e+00 -1.0000000000e+03 1.0000000000e+03 0.0000000000e+00 0.0000e+00 1.0000e+00
  9000005  2    1    2  501    0 +2.3459193492e-02 -3.2083984562e-01 -8.9186944024e+02 1.1081262441e+03 6.5765687933e+02 0.0000e+00 0.0000e+00
       13  1    3    3    0    0 -5.2915601287e+01 -1.7395469959e+02 -9.0786905354e+02 9.2589768157e+02 0.0000000000e+00 0.0000e+00 1.0000e+00
        1  1    3    3  501    0 +5.2939060480e+01 +1.7363385975e+02 +1.5999613295e+01 1.8222856253e+02 0.0000000000e+00 0.0000e+00 1.0000e+00
       21  1    1    2  502  501 -2.3459193492e-02 +3.2083984562e-01 +1.1987728646e+01 1.1992044306e+01 0.0000000000e+00 0.0000e+00 -1.0000e+00
<mgrwt>
<rscale>  1 0.65765696E+03</rscale>
<asrwt>0</asrwt>
<pdfrwt beam="1">  1        1 0.43679470E+00 0.65765696E+03</pdfrwt>
<pdfrwt beam="2">0</pdfrwt>
<totfact> 0.91184364E-01</totfact>
</mgrwt>
</event>
<event>
 6      1 +5.6466785e-02 6.41931700e+02 7.81860800e-03 9.82203800e-02
        1 -1    0    0  502    0 +0.0000000000e+00 +0.0000000000e+00 +1.0301909177e+02 1.0301909177e+02 0.0000000000e+00 0.0000e+00 1.0000e+00
       13 -1    0    0    0    0 -0.0000000000e+00 -0.0000000000e+00 -1.0000000000e+03 1.0000000000e+03 0.0000000000e+00 0.0000e+00 1.0000e+00
  9000005  2    1    2  501    0 +5.0833125698e-05 +7.3013906132e-05 -8.9698082585e+02 1.1030189705e+03 6.4193165321e+02 0.0000e+00 0.0000e+00
       13  1    3    3    0    0 +2.0846327759e+02 +9.7846217312e+01 -6.4316249776e+01 2.3909705211e+02 0.0000000000e+00 0.0000e+00 1.0000e+00
        3  1    3    3  501    0 -2.0846322675e+02 -9.7846144298e+01 -8.3266457608e+02 8.6392191842e+02 0.0000000000e+00 0.0000e+00 1.0000e+00
       21  1    1    2  502  501 -5.0833125706e-05 -7.3013906137e-05 -8.2371564312e-05 1.2124401744e-04 0.0000000000e+00 0.0000e+00 -1.0000e+00
<mgrwt>
<rscale>  1 0.64193165E+03</rscale>
<asrwt>0</asrwt>
<pdfrwt beam="1">  1        1 0.37461567E+00 0.64193165E+03</pdfrwt>
<pdfrwt beam="2">0</pdfrwt>
<totfact> 0.17356847E+00</totfact>
</mgrwt>
</event>
<event>
 6      1 +5.6466785e-02 6.29692900e+02 7.81860800e-03 9.84564800e-02
        1 -1    0    0  502    0 +0.0000000000e+00 +0.0000000000e+00 +9.9128337670e+01 9.9128337670e+01 0.0000000000e+00 0.0000e+00 1.0000e+00
       13 -1    0    0    0    0 -0.0000000000e+00 -0.0000000000e+00 -1.0000000000e+03 1.0000000000e+03 0.0000000000e+00 0.0000e+00 1.0000e+00
  9000005  2    1    2  501    0 -1.8105549827e-05 +4.7186596532e-06 -9.0087171971e+02 1.0991282773e+03 6.2969287325e+02 0.0000e+00 0.0000e+00
       13  1    3    3    0    0 -2.9520168666e+02 -7.9765133679e+01 -3.1956102360e+02 4.4229600966e+02 0.0000000000e+00 0.0000e+00 1.0000e+00
        3  1    3    3  501    0 +2.9520166855e+02 +7.9765138397e+01 -5.8131069611e+02 6.5683226765e+02 0.0000000000e+00 0.0000e+00 1.0000e+00
       21  1    1    2  502  501 +1.8105549834e-05 -4.7186596565e-06 +5.7381186898e-05 6.0354596292e-05 0.0000000000e+00 0.0000e+00 1.0000e+00
<mgrwt>
<rscale>  1 0.62969287E+03</rscale>
<asrwt>0</asrwt>
<pdfrwt beam="1">  1        1 0.36046744E+00 0.62969287E+03</pdfrwt>
<pdfrwt beam="2">0</pdfrwt>
<totfact> 0.20068238E+00</totfact>
</mgrwt>
</event>
<event>
 6      1 +5.6466785e-02 6.51936300e+02 7.81860800e-03 9.80315300e-02
        1 -1    0    0  502    0 +0.0000000000e+00 +0.0000000000e+00 +1.0917355714e+02 1.0917355714e+02 0.0000000000e+00 0.0000e+00 1.0000e+00
       13 -1    0    0    0    0 -0.0000000000e+00 -0.0000000000e+00 -1.0000000000e+03 1.0000000000e+03 0.0000000000e+00 0.0000e+00 1.0000e+00
  9000005  2    1    2  501    0 -2.6515728500e+00 -7.6176080269e-01 -8.9300541977e+02 1.1056580119e+03 6.5193047817e+02 0.0000e+00 0.0000e+00
       13  1    3    3    0    0 -1.1927164740e+02 +3.0344910450e+02 -4.5587975596e+02 5.6047608048e+02 0.0000000000e+00 0.0000e+00 1.0000e+00
        1  1    3    3  501    0 +1.1662007455e+02 -3.0421086531e+02 -4.3712566381e+02 5.4518193140e+02 0.0000000000e+00 0.0000e+00 1.0000e+00
       21  1    1    2  502  501 +2.6515728500e+00 +7.6176080269e-01 +2.1789769113e+00 3.5155452606e+00 0.0000000000e+00 0.0000e+00 -1.0000e+00
<mgrwt>
<rscale>  1 0.65193632E+03</rscale>
<asrwt>0</asrwt>
<pdfrwt beam="1">  1        1 0.39699559E+00 0.65193632E+03</pdfrwt>
<pdfrwt beam="2">0</pdfrwt>
<totfact> 0.13792295E+00</totfact>
</mgrwt>
</event>
<event>
 6      1 +5.6466785e-02 6.67676700e+02 7.81860800e-03 9.77416400e-02
        1 -1    0    0  502    0 +0.0000000000e+00 +0.0000000000e+00 +1.2138984146e+02 1.2138984146e+02 0.0000000000e+00 0.0000e+00 1.0000e+00
       13 -1    0    0    0    0 -0.0000000000e+00 -0.0000000000e+00 -1.0000000000e+03 1.0000000000e+03 0.0000000000e+00 0.0000e+00 1.0000e+00
  9000005  2    1    2  501    0 +9.8025318381e+00 -1.2128802714e+00 -8.8574488279e+02 1.1092052200e+03 6.6760367140e+02 0.0000e+00 0.0000e+00
       13  1    3    3    0    0 +1.1413946188e+02 -3.1295435169e+02 -3.7269035913e+02 4.9986632892e+02 0.0000000000e+00 0.0000e+00 1.0000e+00
        1  1    3    3  501    0 -1.0433693004e+02 +3.1174147142e+02 -5.1305452366e+02 6.0933889112e+02 0.0000000000e+00 0.0000e+00 1.0000e+00
       21  1    1    2  502  501 -9.8025318381e+00 +1.2128802714e+00 +7.1347242480e+00 1.2184621417e+01 0.0000000000e+00 0.0000e+00 -1.0000e+00
<mgrwt>
<rscale>  1 0.66767674E+03</rscale>
<asrwt>0</asrwt>
<pdfrwt beam="1">  1        1 0.44141854E+00 0.66767674E+03</pdfrwt>
<pdfrwt beam="2">0</pdfrwt>
<totfact> 0.86678746E-01</totfact>
</mgrwt>
</event>
<event>
 6      1 +5.6466785e-02 6.57663100e+02 7.81860800e-03 9.79250500e-02
        1 -1    0    0  502    0 +0.0000000000e+00 +0.0000000000e+00 +1.0813022117e+02 1.0813022117e+02 0.0000000000e+00 0.0000e+00 1.0000e+00
       13 -1    0    0    0    0 -0.0000000000e+00 -0.0000000000e+00 -1.0000000000e+03 1.0000000000e+03 0.0000000000e+00 0.0000e+00 1.0000e+00
  9000005  2    1    2  501    0 -1.0261931081e-05 +4.0582862738e-05 -8.9186976369e+02 1.1081301767e+03 6.5766314557e+02 0.0000e+00 0.0000e+00
       13  1    3    3    0    0 -7.3255930736e+01 -2.5363725993e+02 -7.7625360695e+02 8.1991947978e+02 0.0000000000e+00 0.0000e+00 1.0000e+00
        1  1    3    3  501    0 +7.3255920474e+01 +2.5363730052e+02 -1.1561615673e+02 2.8821069688e+02 0.0000000000e+00 0.0000e+00 1.0000e+00
       21  1    1    2  502  501 +1.0261931088e-05 -4.0582862750e-05 -1.5140496710e-05 4.4514162008e-05 0.0000000000e+00 0.0000e+00 -1.0000e+00
<mgrwt>
<rscale>  1 0.65766315E+03</rscale>
<asrwt>0</asrwt>
<pdfrwt beam="1">  1        1 0.39320163E+00 0.65766315E+03</pdfrwt>
<pdfrwt beam="2">0</pdfrwt>
<totfact> 0.14323203E+00</totfact>
</mgrwt>
</event>
<event>
 6      1 +5.6466785e-02 6.44380100e+02 7.81860800e-03 9.81738200e-02
        1 -1    0    0  502    0 +0.0000000000e+00 +0.0000000000e+00 +1.0380644563e+02 1.0380644563e+02 0.0000000000e+00 0.0000e+00 1.0000e+00
       13 -1    0    0    0    0 -0.0000000000e+00 -0.0000000000e+00 -1.0000000000e+03 1.0000000000e+03 0.0000000000e+00 0.0000e+00 1.0000e+00
  9000005  2    1    2  501    0 -2.4102144636e-06 -8.7603887069e-06 -8.9619356471e+02 1.1038064319e+03 6.4438011576e+02 0.0000e+00 0.0000e+00
       13  1    3    3    0    0 -6.7971842414e+01 -2.1439821249e+00 -9.8756577645e+02 9.8990450592e+02 0.0000000000e+00 0.0000e+00 1.0000e+00
        3  1    3    3  501    0 +6.7971840003e+01 +2.1439733645e+00 +9.1372211739e+01 1.1390192594e+02 0.0000000000e+00 0.0000e+00 1.0000e+00
       21  1    1    2  502  501 +2.4102144672e-06 +8.7603887068e-06 +1.0345748688e-05 1.3769098009e-05 0.0000000000e+00 0.0000e+00 1.0000e+00
<mgrwt>
<rscale>  1 0.64438012E+03</rscale>
<asrwt>0</asrwt>
<pdfrwt beam="1">  1        1 0.37747878E+00 0.64438012E+03</pdfrwt>
<pdfrwt beam="2">0</pdfrwt>
<totfact> 0.16852609E+00</totfact>
</mgrwt>
</event>
<event>
 6      1 +5.6466785e-02 6.31522100e+02 7.81860800e-03 9.84208300e-02
        1 -1    0    0  502    0 +0.0000000000e+00 +0.0000000000e+00 +9.9741921525e+01 9.9741921525e+01 0.0000000000e+00 0.0000e+00 1.0000e+00
       13 -1    0    0    0    0 -0.0000000000e+00 -0.0000000000e+00 -1.0000000000e+03 1.0000000000e+03 0.0000000000e+00 0.0000e+00 1.0000e+00
  9000005  2    1    2  501    0 -6.1378942082e-03 -8.1967418313e-03 -9.0029417257e+02 1.0997044029e+03 6.3152211093e+02 0.0000e+00 0.0000e+00
       13  1    3    3    0    0 -5.4840060982e+01 -9.0310863059e+00 +9.1120754343e+01 1.0673324075e+02 0.0000000000e+00 0.0000e+00 1.0000e+00
        3  1    3    3  501    0 +5.4833923088e+01 +9.0228895640e+00 -9.9141492691e+02 9.9297116220e+02 0.0000000000e+00 0.0000e+00 1.0000e+00
       21  1    1    2  502  501 +6.1378942082e-03 +8.1967418313e-03 +3.6094092756e-02 3.7518580115e-02 0.0000000000e+00 0.0000e+00 1.0000e+00
<mgrwt>
<rscale>  1 0.63152211E+03</rscale>
<asrwt>0</asrwt>
<pdfrwt beam="1">  1        1 0.36269866E+00 0.63152211E+03</pdfrwt>
<pdfrwt beam="2">0</pdfrwt>
<totfact> 0.19615590E+00</totfact>
</mgrwt>
</event>
<event>
 6      1 +5.6466785e-02 6.53308700e+02 7.81860800e-03 9.80059000e-02
        1 -1    0    0  502    0 +0.0000000000e+00 +0.0000000000e+00 +1.0670433536e+02 1.0670433536e+02 0.0000000000e+00 0.0000e+00 1.0000e+00
       13 -1    0    0    0    0 -0.0000000000e+00 -0.0000000000e+00 -1.0000000000e+03 1.0000000000e+03 0.0000000000e+00 0.0000e+00 1.0000e+00
  9000005  2    1    2  501    0 -1.4370059740e-03 -1.0088531518e-03 -8.9329623515e+02 1.1067024892e+03 6.5330868346e+02 0.0000e+00 0.0000e+00
       13  1    3    3    0    0 +2.8676532078e+02 +3.9393756485e+01 -7.0308704744e+02 7.6034045896e+02 0.0000000000e+00 0.0000e+00 1.0000e+00
        3  1    3    3  501    0 -2.8676675779e+02 -3.9394765338e+01 -1.9020918771e+02 3.4636203025e+02 0.0000000000e+00 0.0000e+00 1.0000e+00
       21  1    1    2  502  501 +1.4370059740e-03 +1.0088531518e-03 +5.7050992676e-04 1.8461452889e-03 0.0000000000e+00 0.0000e+00 1.0000e+00
<mgrwt>
<rscale>  1 0.65330868E+03</rscale>
<asrwt>0</asrwt>
<pdfrwt beam="1">  1        1 0.38801658E+00 0.65330868E+03</pdfrwt>
<pdfrwt beam="2">0</pdfrwt>
<totfact> 0.15114479E+00</totfact>
</mgrwt>
</event>
<event>
 6      1 +5.6466785e-02 6.52361000e+02 7.81860800e-03 9.80235900e-02
        1 -1    0    0  502    0 +0.0000000000e+00 +0.0000000000e+00 +1.0701732592e+02 1.0701732592e+02 0.0000000000e+00 0.0000e+00 1.0000e+00
       13 -1    0    0    0    0 -0.0000000000e+00 -0.0000000000e+00 -1.0000000000e+03 1.0000000000e+03 0.0000000000e+00 0.0000e+00 1.0000e+00
  9000005  2    1    2  501    0 -2.5116917535e-01 +5.5086653319e-01 -8.9343939936e+02 1.1062589475e+03 6.5236073762e+02 0.0000e+00 0.0000e+00
       13  1    3    3    0    0 -4.4847443648e+00 +3.1983309294e+02 -5.5774159383e+02 6.4295334649e+02 0.0000000000e+00 0.0000e+00 1.0000e+00
        3  1    3    3  501    0 +4.2335751894e+00 -3.1928222641e+02 -3.3569780553e+02 4.6330560098e+02 0.0000000000e+00 0.0000e+00 1.0000e+00
       21  1    1    2  502  501 +2.5116917535e-01 -5.5086653319e-01 +4.5672528239e-01 7.5837845144e-01 0.0000000000e+00 0.0000e+00 1.0000e+00
<mgrwt>
<rscale>  1 0.65236102E+03</rscale>
<asrwt>0</asrwt>
<pdfrwt beam="1">  1        1 0.38915473E+00 0.65236102E+03</pdfrwt>
<pdfrwt beam="2">0</pdfrwt>
<totfact> 0.14942592E+00</totfact>
</mgrwt>
</event>
<event>
 6      1 +5.6466785e-02 6.72337600e+02 7.81860800e-03 9.76574400e-02
        1 -1    0    0  502    0 +0.0000000000e+00 +0.0000000000e+00 +1.1300993568e+02 1.1300993568e+02 0.0000000000e+00 0.0000e+00 1.0000e+00
       13 -1    0    0    0    0 -0.0000000000e+00 -0.0000000000e+00 -1.0000000000e+03 1.0000000000e+03 0.0000000000e+00 0.0000e+00 1.0000e+00
  9000005  2    1    2  501    0 +1.2972119976e-05 +6.4944005885e-05 -8.8699052172e+02 1.1130094735e+03 6.7233764026e+02 0.0000e+00 0.0000e+00
       13  1    3    3    0    0 +1.6127941232e+02 -2.6550554966e+02 -6.5617296534e+02 7.2599394363e+02 0.0000000000e+00 0.0000e+00 1.0000e+00
        3  1    3    3  501    0 -1.6127939935e+02 +2.6550561460e+02 -2.3081755638e+02 3.8701552989e+02 0.0000000000e+00 0.0000e+00 1.0000e+00
       21  1    1    2  502  501 -1.2972119998e-05 -6.4944005853e-05 +4.5740080540e-04 4.6217041941e-04 0.0000000000e+00 0.0000e+00 1.0000e+00
<mgrwt>
<rscale>  1 0.67233764E+03</rscale>
<asrwt>0</asrwt>
<pdfrwt beam="1">  1        1 0.41094609E+00 0.67233764E+03</pdfrwt>
<pdfrwt beam="2">0</pdfrwt>
<totfact> 0.11901941E+00</totfact>
</mgrwt>
</event>
<event>
 6      1 +5.6466785e-02 6.54721400e+02 7.81860800e-03 9.79796000e-02
        1 -1    0    0  502    0 +0.0000000000e+00 +0.0000000000e+00 +1.0861889595e+02 1.0861889595e+02 0.0000000000e+00 0.0000e+00 1.0000e+00
       13 -1    0    0    0    0 -0.0000000000e+00 -0.0000000000e+00 -1.0000000000e+03 1.0000000000e+03 0.0000000000e+00 0.0000e+00 1.0000e+00
  9000005  2    1    2  501    0 -3.1214791295e-02 +4.3772874292e-03 -8.9283479312e+02 1.1071648652e+03 6.5472136815e+02 0.0000e+00 0.0000e+00
       13  1    3    3    0    0 +3.8873775190e+01 +3.0595955049e+02 -2.6084320648e+02 4.0393266184e+02 0.0000000000e+00 0.0000e+00 1.0000e+00
        1  1    3    3  501    0 -3.8904989981e+01 -3.0595517320e+02 -6.3199158664e+02 7.0323220335e+02 0.0000000000e+00 0.0000e+00 1.0000e+00
       21  1    1    2  502  501 +3.1214791295e-02 -4.3772874292e-03 +1.4536890708e+00 1.4540307556e+00 0.0000000000e+00 0.0000e+00 -1.0000e+00
<mgrwt>
<rscale>  1 0.65472137E+03</rscale>
<asrwt>0</asrwt>
<pdfrwt beam="1">  1        1 0.39497864E+00 0.65472137E+03</pdfrwt>
<pdfrwt beam="2">0</pdfrwt>
<totfact> 0.14072816E+00</totfact>
</mgrwt>
</event>
<event>
 6      1 +5.6466785e-02 6.44583500e+02 7.81860800e-03 9.81699600e-02
        1 -1    0    0  502    0 +0.0000000000e+00 +0.0000000000e+00 +1.0535646829e+02 1.0535646829e+02 0.0000000000e+00 0.0000e+00 1.0000e+00
       13 -1    0    0    0    0 -0.0000000000e+00 -0.0000000000e+00 -1.0000000000e+03 1.0000000000e+03 0.0000000000e+00 0.0000e+00 1.0000e+00
  9000005  2    1    2  501    0 +4.7775957216e-01 -1.2158899421e-01 -8.9608272885e+02 1.1038351772e+03 6.4458327506e+02 0.0000e+00 0.0000e+00
       13  1    3    3    0    0 -7.7846187181e+01 +2.2934448443e+02 -8.1176853535e+02 8.4712872480e+02 0.0000000000e+00 0.0000e+00 1.0000e+00
        1  1    3    3  501    0 +7.8323946754e+01 -2.2946607343e+02 -8.4314193510e+01 2.5670645243e+02 0.0000000000e+00 0.0000e+00 1.0000e+00
       21  1    1    2  502  501 -4.7775957216e-01 +1.2158899421e-01 +1.4391971423e+00 1.5212910657e+00 0.0000000000e+00 0.0000e+00 1.0000e+00
<mgrwt>
<rscale>  1 0.64458346E+03</rscale>
<asrwt>0</asrwt>
<pdfrwt beam="1">  1        1 0.38311524E+00 0.64458346E+03</pdfrwt>
<pdfrwt beam="2">0</pdfrwt>
<totfact> 0.15914011E+00</totfact>
</mgrwt>
</event>
<event>
 6      1 +5.6466785e-02 6.49241200e+02 7.81860800e-03 9.80820400e-02
        1 -1    0    0  502    0 +0.0000000000e+00 +0.0000000000e+00 +1.0538094468e+02 1.0538094468e+02 0.0000000000e+00 0.0000e+00 1.0000e+00
       13 -1    0    0    0    0 -0.0000000000e+00 -0.0000000000e+00 -1.0000000000e+03 1.0000000000e+03 0.0000000000e+00 0.0000e+00 1.0000e+00
  9000005  2    1    2  501    0 -2.2694030044e-04 -4.9484156962e-04 -8.9462142177e+02 1.1053785164e+03 6.4924123118e+02 0.0000e+00 0.0000e+00
       13  1    3    3    0    0 +7.1961911397e+01 -1.0719081945e+02 +5.9786965560e+01 1.4227743924e+02 0.0000000000e+00 0.0000e+00 1.0000e+00
        1  1    3    3  501    0 -7.1962138337e+01 +1.0719032461e+02 -9.5440838733e+02 9.6310107717e+02 0.0000000000e+00 0.0000e+00 1.0000e+00
       21  1    1    2  502  501 +2.2694030043e-04 +4.9484156962e-04 +2.3664527131e-03 2.4282645083e-03 0.0000000000e+00 0.0000e+00 1.0000e+00
<mgrwt>
<rscale>  1 0.64924123E+03</rscale>
<asrwt>0</asrwt>
<pdfrwt beam="1">  1        1 0.38320424E+00 0.64924123E+03</pdfrwt>
<pdfrwt beam="2">0</pdfrwt>
<totfact> 0.15885923E+00</totfact>
</mgrwt>
</event>
<event>
 6      1 +5.6466785e-02 5.42674400e+02 7.81860800e-03 1.00320400e-01
        3 -1    0    0  502    0 +0.0000000000e+00 +0.0000000000e+00 +7.3641509206e+01 7.3641509206e+01 0.0000000000e+00 0.0000e+00 1.0000e+00
       13 -1    0    0    0    0 -0.0000000000e+00 -0.0000000000e+00 -1.0000000000e+03 1.0000000000e+03 0.0000000000e+00 0.0000e+00 1.0000e+00
  9000005  2    1    2  501    0 -1.8439193738e-05 +2.5996411155e-04 -9.2637612150e+02 1.0736238766e+03 5.4267440503e+02 0.0000e+00 0.0000e+00
       13  1    3    3    0    0 +7.5870745496e+01 -7.2341341402e+01 +3.1941329824e+01 1.0958963568e+02 0.0000000000e+00 0.0000e+00 1.0000e+00
        3  1    3    3  501    0 -7.5870763935e+01 +7.2341601366e+01 -9.5831745132e+02 9.6403424089e+02 0.0000000000e+00 0.0000e+00 1.0000e+00
       21  1    1    2  502  501 +1.8439193726e-05 -2.5996411155e-04 +1.7630703296e-02 1.7632629414e-02 0.0000000000e+00 0.0000e+00 -1.0000e+00
<mgrwt>
<rscale>  1 0.54267441E+03</rscale>
<asrwt>0</asrwt>
<pdfrwt beam="1">  1        3 0.26778787E+00 0.54267441E+03</pdfrwt>
<pdfrwt beam="2">0</pdfrwt>
<totfact> 0.30775902E-01</totfact>
</mgrwt>
</event>
<event>
 6      1 +5.6466785e-02 6.60764000e+02 7.81860800e-03 9.78678800e-02
        1 -1    0    0  502    0 +0.0000000000e+00 +0.0000000000e+00 +1.0915257902e+02 1.0915257902e+02 0.0000000000e+00 0.0000e+00 1.0000e+00
       13 -1    0    0    0    0 -0.0000000000e+00 -0.0000000000e+00 -1.0000000000e+03 1.0000000000e+03 0.0000000000e+00 0.0000e+00 1.0000e+00
  9000005  2    1    2  501    0 -2.1426953361e-04 -4.4087440192e-04 -8.9084750342e+02 1.1091520820e+03 6.6076400217e+02 0.0000e+00 0.0000e+00
       13  1    3    3    0    0 +9.1825767962e+01 -8.1434552130e+01 +6.9465098485e+01 1.4102821650e+02 0.0000000000e+00 0.0000e+00 1.0000e+00
        3  1    3    3  501    0 -9.1825982232e+01 +8.1434111256e+01 -9.6031260190e+02 9.6812386545e+02 0.0000000000e+00 0.0000e+00 1.0000e+00
       21  1    1    2  502  501 +2.1426953361e-04 +4.4087440192e-04 +8.2441080822e-05 4.9706961596e-04 0.0000000000e+00 0.0000e+00 -1.0000e+00
<mgrwt>
<rscale>  1 0.66076400E+03</rscale>
<asrwt>0</asrwt>
<pdfrwt beam="1">  1        1 0.39691931E+00 0.66076400E+03</pdfrwt>
<pdfrwt beam="2">0</pdfrwt>
<totfact> 0.13780244E+00</totfact>
</mgrwt>
</event>
<event>
 6      1 +5.6466785e-02 6.46992700e+02 7.81860800e-03 9.81243900e-02
        1 -1    0    0  502    0 +0.0000000000e+00 +0.0000000000e+00 +1.0464991639e+02 1.0464991639e+02 0.0000000000e+00 0.0000e+00 1.0000e+00
       13 -1    0    0    0    0 -0.0000000000e+00 -0.0000000000e+00 -1.0000000000e+03 1.0000000000e+03 0.0000000000e+00 0.0000e+00 1.0000e+00
  9000005  2    1    2  501    0 -2.6550845575e-06 +1.2244712906e-05 -8.9535012243e+02 1.1046498756e+03 6.4699266296e+02 0.0000e+00 0.0000e+00
       13  1    3    3    0    0 -1.3410198661e+02 +2.2422815619e+02 -1.2198388538e+02 2.8834298523e+02 0.0000000000e+00 0.0000e+00 1.0000e+00
        1  1    3    3  501    0 +1.3410198396e+02 -2.2422814395e+02 -7.7336623705e+02 8.1630689036e+02 0.0000000000e+00 0.0000e+00 1.0000e+00
       21  1    1    2  502  501 +2.6550845469e-06 -1.2244712885e-05 +3.8815127109e-05 4.0787210742e-05 0.0000000000e+00 0.0000e+00 -1.0000e+00
<mgrwt>
<rscale>  1 0.64699266E+03</rscale>
<asrwt>0</asrwt>
<pdfrwt beam="1">  1        1 0.38054595E+00 0.64699266E+03</pdfrwt>
<pdfrwt beam="2">0</pdfrwt>
<totfact> 0.16327967E+00</totfact>
</mgrwt>
</event>
<event>
 6      1 +5.6466785e-02 6.44088000e+02 7.81860800e-03 9.81793600e-02
        1 -1    0    0  502    0 +0.0000000000e+00 +0.0000000000e+00 +1.0371383649e+02 1.0371383649e+02 0.0000000000e+00 0.0000e+00 1.0000e+00
       13 -1    0    0    0    0 -0.0000000000e+00 -0.0000000000e+00 -1.0000000000e+03 1.0000000000e+03 0.0000000000e+00 0.0000e+00 1.0000e+00
  9000005  2    1    2  501    0 +4.5343170750e-03 +1.1761509467e-03 -8.9627959858e+02 1.1037057717e+03 6.4408796878e+02 0.0000e+00 0.0000e+00
       13  1    3    3    0    0 +3.1376591155e+02 -2.8323565588e+01 -5.6261356922e+02 6.4481415919e+02 0.0000000000e+00 0.0000e+00 1.0000e+00
        3  1    3    3  501    0 -3.1376137724e+02 +2.8324741739e+01 -3.3366602936e+02 4.5889161246e+02 0.0000000000e+00 0.0000e+00 1.0000e+00
       21  1    1    2  502  501 -4.5343170750e-03 -1.1761509467e-03 -6.5649279843e-03 8.0648398512e-03 0.0000000000e+00 0.0000e+00 -1.0000e+00
<mgrwt>
<rscale>  1 0.64408797E+03</rscale>
<asrwt>0</asrwt>
<pdfrwt beam="1">  1        1 0.37714202E+00 0.64408797E+03</pdfrwt>
<pdfrwt beam="2">0</pdfrwt>
<totfact> 0.16911197E+00</totfact>
</mgrwt>
</event>
<event>
 6      1 +5.6466785e-02 6.57429500e+02 7.81860800e-03 9.79293700e-02
        1 -1    0    0  502    0 +0.0000000000e+00 +0.0000000000e+00 +1.0843974669e+02 1.0843974669e+02 0.0000000000e+00 0.0000e+00 1.0000e+00
       13 -1    0    0    0    0 -0.0000000000e+00 -0.0000000000e+00 -1.0000000000e+03 1.0000000000e+03 0.0000000000e+00 0.0000e+00 1.0000e+00
  9000005  2    1    2  501    0 -3.5808276550e-02 +1.5249257220e-02 -8.9194551851e+02 1.1080525206e+03 6.5742952389e+02 0.0000e+00 0.0000e+00
       13  1    3    3    0    0 -1.7425939651e+02 -2.6445692958e+02 -2.9758468423e+02 4.3458077404e+02 0.0000000000e+00 0.0000e+00 1.0000e+00
        3  1    3    3  501    0 +1.7422358824e+02 +2.6447217883e+02 -5.9436083429e+02 6.7347174656e+02 0.0000000000e+00 0.0000e+00 1.0000e+00
       21  1    1    2  502  501 +3.5808276550e-02 -1.5249257220e-02 +3.8526519984e-01 3.8722609251e-01 0.0000000000e+00 0.0000e+00 1.0000e+00
<mgrwt>
<rscale>  1 0.65742953E+03</rscale>
<asrwt>0</asrwt>
<pdfrwt beam="1">  1        1 0.39432718E+00 0.65742953E+03</pdfrwt>
<pdfrwt beam="2">0</pdfrwt>
<totfact> 0.14159809E+00</totfact>
</mgrwt>
</event>
<event>
 6      1 +5.6466785e-02 6.44074700e+02 7.81860800e-03 9.81796200e-02
        1 -1    0    0  502    0 +0.0000000000e+00 +0.0000000000e+00 +1.0383600290e+02 1.0383600290e+02 0.0000000000e+00 0.0000e+00 1.0000e+00
       13 -1    0    0    0    0 -0.0000000000e+00 -0.0000000000e+00 -1.0000000000e+03 1.0000000000e+03 0.0000000000e+00 0.0000e+00 1.0000e+00
  9000005  2    1    2  501    0 -3.5987218655e-04 +1.0382471410e-02 -8.9629172843e+02 1.1037078498e+03 6.4407465028e+02 0.0000e+00 0.0000e+00
       13  1    3    3    0    0 +1.7996175237e+02 -2.4347914435e+02 -2.6013101068e+02 3.9916972426e+02 0.0000000000e+00 0.0000e+00 1.0000e+00
        1  1    3    3  501    0 -1.7996211224e+02 +2.4348952682e+02 -6.3616071776e+02 7.0453812554e+02 0.0000000000e+00 0.0000e+00 1.0000e+00
       21  1    1    2  502  501 +3.5987218657e-04 -1.0382471410e-02 +1.2773132944e-01 1.2815310274e-01 0.0000000000e+00 0.0000e+00 -1.0000e+00
<mgrwt>
<rscale>  1 0.64407465E+03</rscale>
<asrwt>0</asrwt>
<pdfrwt beam="1">  1        1 0.37758626E+00 0.64407465E+03</pdfrwt>
<pdfrwt beam="2">0</pdfrwt>
<totfact> 0.16835181E+00</totfact>
</mgrwt>
</event>
<event>
 6      1 +5.6466785e-02 6.41805800e+02 7.81860800e-03 9.82227800e-02
        1 -1    0    0  502    0 +0.0000000000e+00 +0.0000000000e+00 +1.0567692330e+02 1.0567692330e+02 0.0000000000e+00 0.0000e+00 1.0000e+00
       13 -1    0    0    0    0 -0.0000000000e+00 -0.0000000000e+00 -1.0000000000e+03 1.0000000000e+03 0.0000000000e+00 0.0000e+00 1.0000e+00
  9000005  2    1    2  501    0 +8.7821447074e-02 -2.5800173926e-01 -8.9701374155e+02 1.1029724909e+03 6.4180572511e+02 0.0000e+00 0.0000e+00
       13  1    3    3    0    0 +2.1948860826e+02 -1.7178987978e+02 -7.2229486382e+02 7.7420726052e+02 0.0000000000e+00 0.0000e+00 1.0000e+00
        3  1    3    3  501    0 -2.1940078682e+02 +1.7153187804e+02 -1.7471887773e+02 3.2876523033e+02 0.0000000000e+00 0.0000e+00 1.0000e+00
       21  1    1    2  502  501 -8.7821447074e-02 +2.5800173926e-01 +2.6906648462e+00 2.7044324393e+00 0.0000000000e+00 0.0000e+00 -1.0000e+00
<mgrwt>
<rscale>  1 0.64180578E+03</rscale>
<asrwt>0</asrwt>
<pdfrwt beam="1">  1        1 0.38428053E+00 0.64180578E+03</pdfrwt>
<pdfrwt beam="2">0</pdfrwt>
<totfact> 0.15734545E+00</totfact>
</mgrwt>
</event>
<event>
 6      1 +5.6466785e-02 5.66916400e+02 7.81860800e-03 9.97652600e-02
        1 -1    0    0  502    0 +0.0000000000e+00 +0.0000000000e+00 +8.0348587457e+01 8.0348587457e+01 0.0000000000e+00 0.0000e+00 1.0000e+00
       13 -1    0    0    0    0 -0.0000000000e+00 -0.0000000000e+00 -1.0000000000e+03 1.0000000000e+03 0.0000000000e+00 0.0000e+00 1.0000e+00
  9000005  2    1    2  501    0 +1.9214407555e-05 +7.2013525028e-06 -9.1965145120e+02 1.0803485437e+03 5.6691638197e+02 0.0000e+00 0.0000e+00
       13  1    3    3    0    0 +3.1026010679e+01 -2.2772142821e+02 -7.7600920427e+02 8.0932684826e+02 0.0000000000e+00 0.0000e+00 1.0000e+00
        1  1    3    3  501    0 -3.1025991464e+01 +2.2772143541e+02 -1.4364224694e+02 2.7102169543e+02 0.0000000000e+00 0.0000e+00 1.0000e+00
       21  1    1    2  502  501 -1.9214407554e-05 -7.2013524773e-06 +3.8660534813e-05 4.3768594759e-05 0.0000000000e+00 0.0000e+00 -1.0000e+00
<mgrwt>
<rscale>  1 0.56691638E+03</rscale>
<asrwt>0</asrwt>
<pdfrwt beam="1">  1        1 0.29217730E+00 0.56691638E+03</pdfrwt>
<pdfrwt beam="2">0</pdfrwt>
<totfact> 0.40113394E+00</totfact>
</mgrwt>
</event>
<event>
 6      1 +5.6466785e-02 6.49422300e+02 7.81860800e-03 9.80786400e-02
        1 -1    0    0  502    0 +0.0000000000e+00 +0.0000000000e+00 +1.0576135023e+02 1.0576135023e+02 0.0000000000e+00 0.0000e+00 1.0000e+00
       13 -1    0    0    0    0 -0.0000000000e+00 -0.0000000000e+00 -1.0000000000e+03 1.0000000000e+03 0.0000000000e+00 0.0000e+00 1.0000e+00
  9000005  2    1    2  501    0 -2.8365586520e-01 -6.6933949046e-01 -8.9402754925e+02 1.1050043566e+03 6.4942192811e+02 0.0000e+00 0.0000e+00
       13  1    3    3    0    0 -2.0739796858e+02 -1.7772028214e+02 -7.4705321666e+02 7.9541619582e+02 0.0000000000e+00 0.0000e+00 1.0000e+00
        1  1    3    3  501    0 +2.0711431272e+02 +1.7705094265e+02 -1.4697433259e+02 3.0958816073e+02 0.0000000000e+00 0.0000e+00 1.0000e+00
       21  1    1    2  502  501 +2.8365586520e-01 +6.6933949046e-01 -2.1110051848e-01 7.5699368046e-01 0.0000000000e+00 0.0000e+00 1.0000e+00
<mgrwt>
<rscale>  1 0.64942233E+03</rscale>
<asrwt>0</asrwt>
<pdfrwt beam="1">  1        1 0.38458754E+00 0.64942233E+03</pdfrwt>
<pdfrwt beam="2">0</pdfrwt>
<totfact> 0.15663282E+00</totfact>
</mgrwt>
</event>
<event>
 6      1 +5.6466785e-02 6.43652400e+02 7.81860800e-03 9.81876300e-02
        1 -1    0    0  502    0 +0.0000000000e+00 +0.0000000000e+00 +1.0616724398e+02 1.0616724398e+02 0.0000000000e+00 0.0000e+00 1.0000e+00
       13 -1    0    0    0    0 -0.0000000000e+00 -0.0000000000e+00 -1.0000000000e+03 1.0000000000e+03 0.0000000000e+00 0.0000e+00 1.0000e+00
  9000005  2    1    2  501    0 +5.5201475534e-02 -7.3073150243e-02 -8.9642699525e+02 1.1035713888e+03 6.4365242483e+02 0.0000e+00 0.0000e+00
       13  1    3    3    0    0 +1.6212703642e+02 -1.4808656319e+02 -4.4783690572e+01 2.2409905193e+02 0.0000000000e+00 0.0000e+00 1.0000e+00
        3  1    3    3  501    0 -1.6207183495e+02 +1.4801349004e+02 -8.5164330468e+02 8.7947233687e+02 0.0000000000e+00 0.0000e+00 1.0000e+00
       21  1    1    2  502  501 -5.5201475534e-02 +7.3073150243e-02 +2.5942392331e+00 2.5958551745e+00 0.0000000000e+00 0.0000e+00 -1.0000e+00
<mgrwt>
<rscale>  1 0.64365243E+03</rscale>
<asrwt>0</asrwt>
<pdfrwt beam="1">  1        1 0.38606352E+00 0.64365243E+03</pdfrwt>
<pdfrwt beam="2">0</pdfrwt>
<totfact> 0.15446124E+00</totfact>
</mgrwt>
</event>
<event>
 6      1 +5.6466785e-02 6.69970600e+02 7.81860800e-03 9.77001100e-02
        1 -1    0    0  502    0 +0.0000000000e+00 +0.0000000000e+00 +1.1221515343e+02 1.1221515343e+02 0.0000000000e+00 0.0000e+00 1.0000e+00
       13 -1    0    0    0    0 -0.0000000000e+00 -0.0000000000e+00 -1.0000000000e+03 1.0000000000e+03 0.0000000000e+00 0.0000e+00 1.0000e+00
  9000005  2    1    2  501    0 +2.5886785835e-05 -2.0493586618e-05 -8.8778483856e+02 1.1122151195e+03 6.6997056082e+02 0.0000e+00 0.0000e+00
       13  1    3    3    0    0 -1.4930104194e+02 -2.5452485314e+02 -7.0711802367e+02 7.6621772453e+02 0.0000000000e+00 0.0000e+00 1.0000e+00
        3  1    3    3  501    0 +1.4930106783e+02 +2.5452483265e+02 -1.8066681489e+02 3.4599739492e+02 0.0000000000e+00 0.0000e+00 1.0000e+00
       21  1    1    2  502  501 -2.5886785846e-05 +2.0493586625e-05 -8.0117068063e-06 3.3974994042e-05 0.0000000000e+00 0.0000e+00 -1.0000e+00
<mgrwt>
<rscale>  1 0.66997056E+03</rscale>
<asrwt>0</asrwt>
<pdfrwt beam="1">  1        1 0.40805596E+00 0.66997056E+03</pdfrwt>
<pdfrwt beam="2">0</pdfrwt>
<totfact> 0.12267965E+00</totfact>
</mgrwt>
</event>
<event>
 6      1 +5.6466785e-02 6.39188300e+02 7.81860800e-03 9.82728100e-02
        1 -1    0    0  502    0 +0.0000000000e+00 +0.0000000000e+00 +1.0217046006e+02 1.0217046006e+02 0.0000000000e+00 0.0000e+00 1.0000e+00
       13 -1    0    0    0    0 -0.0000000000e+00 -0.0000000000e+00 -1.0000000000e+03 1.0000000000e+03 0.0000000000e+00 0.0000e+00 1.0000e+00
  9000005  2    1    2  501    0 +1.4214815320e-03 -2.0146864157e-03 -8.9785953497e+02 1.1021403639e+03 6.3918826421e+02 0.0000e+00 0.0000e+00
       13  1    3    3    0    0 -2.6279396052e+02 +2.7864664086e+00 -1.3535805855e+02 2.9561839269e+02 0.0000000000e+00 0.0000e+00 1.0000e+00
        1  1    3    3  501    0 +2.6279538200e+02 -2.7884810950e+00 -7.6250147642e+02 8.0652197117e+02 0.0000000000e+00 0.0000e+00 1.0000e+00
       21  1    1    2  502  501 -1.4214815320e-03 +2.0146864157e-03 +2.9995033862e-02 3.0096206197e-02 0.0000000000e+00 0.0000e+00 1.0000e+00
<mgrwt>
<rscale>  1 0.63918826E+03</rscale>
<asrwt>0</asrwt>
<pdfrwt beam="1">  1        1 0.37152973E+00 0.63918826E+03</pdfrwt>
<pdfrwt beam="2">0</pdfrwt>
<totfact> 0.17916790E+00</totfact>
</mgrwt>
</event>
<event>
 6      1 +5.6466785e-02 6.23524600e+02 7.81860800e-03 9.85776700e-02
        1 -1    0    0  502    0 +0.0000000000e+00 +0.0000000000e+00 +9.8117882892e+01 9.8117882892e+01 0.0000000000e+00 0.0000e+00 1.0000e+00
       13 -1    0    0    0    0 -0.0000000000e+00 -0.0000000000e+00 -1.0000000000e+03 1.0000000000e+03 0.0000000000e+00 0.0000e+00 1.0000e+00
  9000005  2    1    2  501    0 +1.0611285429e+00 +2.2284561015e+00 -9.0046522655e+02 1.0952719052e+03 6.2351971100e+02 0.0000e+00 0.0000e+00
       13  1    3    3    0    0 +1.3191740427e+02 +1.9353732390e+02 -8.1540239615e+02 8.4837489646e+02 0.0000000000e+00 0.0000e+00 1.0000e+00
        1  1    3    3  501    0 -1.3085627572e+02 -1.9130886779e+02 -8.5062830398e+01 2.4689700871e+02 0.0000000000e+00 0.0000e+00 1.0000e+00
       21  1    1    2  502  501 -1.0611285429e+00 -2.2284561015e+00 -1.4168905588e+00 2.8459777294e+00 0.0000000000e+00 0.0000e+00 -1.0000e+00
<mgrwt>
<rscale>  1 0.62352460E+03</rscale>
<asrwt>0</asrwt>
<pdfrwt beam="1">  1        1 0.35679305E+00 0.62352460E+03</pdfrwt>
<pdfrwt beam="2">0</pdfrwt>
<totfact> 0.20847469E+00</totfact>
</mgrwt>
</event>
<event>
 6      1 +5.6466785e-02 6.45722300e+02 7.81860800e-03 9.81483900e-02
        1 -1    0    0  502    0 +0.0000000000e+00 +0.0000000000e+00 +1.0423941330e+02 1.0423941330e+02 0.0000000000e+00 0.0000e+00 1.0000e+00
       13 -1    0    0    0    0 -0.0000000000e+00 -0.0000000000e+00 -1.0000000000e+03 1.0000000000e+03 0.0000000000e+00 0.0000e+00 1.0000e+00
  9000005  2    1    2  501    0 -8.2834750401e-06 +2.7927117387e-05 -8.9576067010e+02 1.1042393250e+03 6.4572231546e+02 0.0000e+00 0.0000e+00
       13  1    3    3    0    0 +7.7586116319e+01 -1.8611080291e+01 +8.7114561267e+01 1.1813096351e+02 0.0000000000e+00 0.0000e+00 1.0000e+00
        1  1    3    3  501    0 -7.7586124603e+01 +1.8611108218e+01 -9.8287523137e+02 9.8610836145e+02 0.0000000000e+00 0.0000e+00 1.0000e+00
       21  1    1    2  502  501 +8.2834750352e-06 -2.7927117386e-05 +8.3397287030e-05 8.8338255180e-05 0.0000000000e+00 0.0000e+00 -1.0000e+00
<mgrwt>
<rscale>  1 0.64572232E+03</rscale>
<asrwt>0</asrwt>
<pdfrwt beam="1">  1        1 0.37905321E+00 0.64572232E+03</pdfrwt>
<pdfrwt beam="2">0</pdfrwt>
<totfact> 0.16581324E+00</totfact>
</mgrwt>
</event>
<event>
 6      1 +5.6466785e-02 6.46284700e+02 7.81860800e-03 9.81377600e-02
        1 -1    0    0  502    0 +0.0000000000e+00 +0.0000000000e+00 +1.0442796782e+02 1.0442796782e+02 0.0000000000e+00 0.0000e+00 1.0000e+00
       13 -1    0    0    0    0 -0.0000000000e+00 -0.0000000000e+00 -1.0000000000e+03 1.0000000000e+03 0.0000000000e+00 0.0000e+00 1.0000e+00
  9000005  2    1    2  501    0 -7.3946611078e-03 +1.0617653644e-03 -8.9557673887e+02 1.1044191383e+03 6.4628471873e+02 0.0000e+00 0.0000e+00
       13  1    3    3    0    0 +1.2522890220e+02 +6.1240119810e+01 +5.0394919709e+01 1.4823048996e+02 0.0000000000e+00 0.0000e+00 1.0000e+00
        3  1    3    3  501    0 -1.2523629686e+02 -6.1239058045e+01 -9.4597165858e+02 9.5618864829e+02 0.0000000000e+00 0.0000e+00 1.0000e+00
       21  1    1    2  502  501 +7.3946611078e-03 -1.0617653644e-03 +4.7066989709e-03 8.8295738171e-03 0.0000000000e+00 0.0000e+00 1.0000e+00
<mgrwt>
<rscale>  1 0.64628472E+03</rscale>
<asrwt>0</asrwt>
<pdfrwt beam="1">  1        1 0.37973887E+00 0.64628472E+03</pdfrwt>
<pdfrwt beam="2">0</pdfrwt>
<totfact> 0.16464553E+00</totfact>
</mgrwt>
</event>
<event>
 6      1 +5.6466785e-02 6.41292300e+02 7.81860800e-03 9.82325700e-02
        1 -1    0    0  502    0 +0.0000000000e+00 +0.0000000000e+00 +1.0305510601e+02 1.0305510601e+02 0.0000000000e+00 0.0000e+00 1.0000e+00
       13 -1    0    0    0    0 -0.0000000000e+00 -0.0000000000e+00 -1.0000000000e+03 1.0000000000e+03 0.0000000000e+00 0.0000e+00 1.0000e+00
  9000005  2    1    2  501    0 +1.3032141364e-01 +1.8223088676e-01 -8.9712733956e+02 1.1027661802e+03 6.4129223800e+02 0.0000e+00 0.0000e+00
       13  1    3    3    0    0 -2.0519306266e+02 +2.1151094289e+02 -6.6599911632e+02 7.2828283988e+02 0.0000000000e+00 0.0000e+00 1.0000e+00
        3  1    3    3  501    0 +2.0532338407e+02 -2.1132871200e+02 -2.3112822323e+02 3.7448334027e+02 0.0000000000e+00 0.0000e+00 1.0000e+00
       21  1    1    2  502  501 -1.3032141364e-01 -1.8223088676e-01 +1.8244556448e-01 2.8892585717e-01 0.0000000000e+00 0.0000e+00 1.0000e+00
<mgrwt>
<rscale>  1 0.64129228E+03</rscale>
<asrwt>0</asrwt>
<pdfrwt beam="1">  1        1 0.37474663E+00 0.64129228E+03</pdfrwt>
<pdfrwt beam="2">0</pdfrwt>
<totfact> 0.17335855E+00</totfact>
</mgrwt>
</event>
<event>
 6      1 +5.6466785e-02 6.41958300e+02 7.81860800e-03 9.82198700e-02
        1 -1    0    0  502    0 +0.0000000000e+00 +0.0000000000e+00 +1.0302764461e+02 1.0302764461e+02 0.0000000000e+00 0.0000e+00 1.0000e+00
       13 -1    0    0    0    0 -0.0000000000e+00 -0.0000000000e+00 -1.0000000000e+03 1.0000000000e+03 0.0000000000e+00 0.0000e+00 1.0000e+00
  9000005  2    1    2  501    0 +7.0391111649e-05 +6.0562830583e-05 -8.9697228618e+02 1.1030275288e+03 6.4195829079e+02 0.0000e+00 0.0000e+00
       13  1    3    3    0    0 +1.4888988370e+02 +2.7113960409e+02 -3.0125186741e+02 4.3178417061e+02 0.0000000000e+00 0.0000e+00 1.0000e+00
        3  1    3    3  501    0 -1.4888981331e+02 -2.7113954352e+02 -5.9572041877e+02 6.7124335819e+02 0.0000000000e+00 0.0000e+00 1.0000e+00
       21  1    1    2  502  501 -7.0391111660e-05 -6.0562830554e-05 -6.9209240737e-05 1.1581314282e-04 0.0000000000e+00 0.0000e+00 1.0000e+00
<mgrwt>
<rscale>  1 0.64195829E+03</rscale>
<asrwt>0</asrwt>
<pdfrwt beam="1">  1        1 0.37464677E+00 0.64195829E+03</pdfrwt>
<pdfrwt beam="2">0</pdfrwt>
<totfact> 0.17351293E+00</totfact>
</mgrwt>
</event>
<event>
 6      1 +5.6466785e-02 6.21352000e+02 7.81860800e-03 9.86207200e-02
        1 -1    0    0  502    0 +0.0000000000e+00 +0.0000000000e+00 +9.6548433883e+01 9.6548433883e+01 0.0000000000e+00 0.0000e+00 1.0000e+00
       13 -1    0    0    0    0 -0.0000000000e+00 -0.0000000000e+00 -1.0000000000e+03 1.0000000000e+03 0.0000000000e+00 0.0000e+00 1.0000e+00
  9000005  2    1    2  501    0 -2.4188736615e-02 -1.8763872652e-02 -9.0347125780e+02 1.0965120342e+03 6.2135201490e+02 0.0000e+00 0.0000e+00
       13  1    3    3    0    0 +1.4829085552e+02 -2.0502307855e+00 +3.0017355381e+01 1.5131233559e+02 0.0000000000e+00 0.0000e+00 1.0000e+00
        3  1    3    3  501    0 -1.4831504426e+02 +2.0314669128e+00 -9.3348861318e+02 9.4519969856e+02 0.0000000000e+00 0.0000e+00 1.0000e+00
       21  1    1    2  502  501 +2.4188736615e-02 +1.8763872652e-02 +1.9691686630e-02 3.6399731019e-02 0.0000000000e+00 0.0000e+00 -1.0000e+00
<mgrwt>
<rscale>  1 0.62135202E+03</rscale>
<asrwt>0</asrwt>
<pdfrwt beam="1">  1        1 0.35108595E+00 0.62135202E+03</pdfrwt>
<pdfrwt beam="2">0</pdfrwt>
<totfact> 0.22086385E+00</totfact>
</mgrwt>
</event>
<event>
 6      1 +5.6466785e-02 6.48034800e+02 7.81860800e-03 9.81047400e-02
        1 -1    0    0  502    0 +0.0000000000e+00 +0.0000000000e+00 +1.0498759836e+02 1.0498759836e+02 0.0000000000e+00 0.0000e+00 1.0000e+00
       13 -1    0    0    0    0 -0.0000000000e+00 -0.0000000000e+00 -1.0000000000e+03 1.0000000000e+03 0.0000000000e+00 0.0000e+00 1.0000e+00
  9000005  2    1    2  501    0 -3.2269935105e-05 +1.3740125979e-05 -8.9501270933e+02 1.1049872887e+03 6.4803484340e+02 0.0000e+00 0.0000e+00
       13  1    3    3    0    0 +1.8487083938e+02 -1.7988602901e+02 -1.1314724106e+02 2.8167092297e+02 0.0000000000e+00 0.0000e+00 1.0000e+00
        1  1    3    3  501    0 -1.8487087165e+02 +1.7988604275e+02 -7.8186546827e+02 8.2331636571e+02 0.0000000000e+00 0.0000e+00 1.0000e+00
       21  1    1    2  502  501 +3.2269935105e-05 -1.3740125978e-05 +3.0769338297e-04 3.0968590168e-04 0.0000000000e+00 0.0000e+00 1.0000e+00
<mgrwt>
<rscale>  1 0.64803484E+03</rscale>
<asrwt>0</asrwt>
<pdfrwt beam="1">  1        1 0.38177389E+00 0.64803484E+03</pdfrwt>
<pdfrwt beam="2">0</pdfrwt>
<totfact> 0.16122330E+00</totfact>
</mgrwt>
</event>
<event>
 6      1 +5.6466785e-02 6.50369800e+02 7.81860800e-03 9.80608600e-02
        3 -1    0    0  502    0 +0.0000000000e+00 +0.0000000000e+00 +1.0912900024e+02 1.0912900024e+02 0.0000000000e+00 0.0000e+00 1.0000e+00
       13 -1    0    0    0    0 -0.0000000000e+00 -0.0000000000e+00 -1.0000000000e+03 1.0000000000e+03 0.0000000000e+00 0.0000e+00 1.0000e+00
  9000005  2    1    2  501    0 -3.8157971873e-01 -5.9089458277e-02 -8.9424260146e+02 1.1057353602e+03 6.5036966985e+02 0.0000e+00 0.0000e+00
       13  1    3    3    0    0 -1.9898836638e+02 +9.8371334998e+01 -4.2994885363e+01 2.2610141457e+02 0.0000000000e+00 0.0000e+00 1.0000e+00
        1  1    3    3  501    0 +1.9860678666e+02 -9.8430424456e+01 -8.5124771609e+02 8.7963394564e+02 0.0000000000e+00 0.0000e+00 1.0000e+00
       21  1    1    2  502  501 +3.8157971873e-01 +5.9089458277e-02 +3.3716016932e+00 3.3936400256e+00 0.0000000000e+00 0.0000e+00 -1.0000e+00
<mgrwt>
<rscale>  1 0.65036978E+03</rscale>
<asrwt>0</asrwt>
<pdfrwt beam="1">  1        3 0.39683356E+00 0.65036978E+03</pdfrwt>
<pdfrwt beam="2">0</pdfrwt>
<totfact> 0.61543114E-02</totfact>
</mgrwt>
</event>
<event>
 6      1 +5.6466785e-02 6.52645500e+02 7.81860800e-03 9.80182800e-02
        1 -1    0    0  502    0 +0.0000000000e+00 +0.0000000000e+00 +1.0664115607e+02 1.0664115607e+02 0.0000000000e+00 0.0000e+00 1.0000e+00
       13 -1    0    0    0    0 -0.0000000000e+00 -0.0000000000e+00 -1.0000000000e+03 1.0000000000e+03 0.0000000000e+00 0.0000e+00 1.0000e+00
  9000005  2    1    2  501    0 +1.5988121145e-02 +5.3428489746e-02 -8.9350787274e+02 1.1064820341e+03 6.5264551630e+02 0.0000e+00 0.0000e+00
       13  1    3    3    0    0 +2.3159865824e+02 -1.5700789599e+02 -7.3140861200e+02 7.8310151041e+02 0.0000000000e+00 0.0000e+00 1.0000e+00
        1  1    3    3  501    0 -2.3158267012e+02 +1.5706132448e+02 -1.6209926074e+02 3.2338052365e+02 0.0000000000e+00 0.0000e+00 1.0000e+00
       21  1    1    2  502  501 -1.5988121145e-02 -5.3428489746e-02 +1.4902881475e-01 1.5912200087e-01 0.0000000000e+00 0.0000e+00 1.0000e+00
<mgrwt>
<rscale>  1 0.65264552E+03</rscale>
<asrwt>0</asrwt>
<pdfrwt beam="1">  1        1 0.38778684E+00 0.65264552E+03</pdfrwt>
<pdfrwt beam="2">0</pdfrwt>
<totfact> 0.15151800E+00</totfact>
</mgrwt>
</event>
<event>
 6      1 +5.6466785e-02 6.55579500e+02 7.81860800e-03 9.79636600e-02
        1 -1    0    0  502    0 +0.0000000000e+00 +0.0000000000e+00 +1.0745519915e+02 1.0745519915e+02 0.0000000000e+00 0.0000e+00 1.0000e+00
       13 -1    0    0    0    0 -0.0000000000e+00 -0.0000000000e+00 -1.0000000000e+03 1.0000000000e+03 0.0000000000e+00 0.0000e+00 1.0000e+00
  9000005  2    1    2  501    0 -5.6144278184e-04 -6.8600830923e-04 -8.9255386810e+02 1.1074460887e+03 6.5557946265e+02 0.0000e+00 0.0000e+00
       13  1    3    3    0    0 -2.5021355508e+02 +1.6519857110e+02 -6.7005647741e+02 7.3407974632e+02 0.0000000000e+00 0.0000e+00 1.0000e+00
        1  1    3    3  501    0 +2.5021299364e+02 -1.6519925711e+02 -2.2249739069e+02 3.7336634235e+02 0.0000000000e+00 0.0000e+00 1.0000e+00
       21  1    1    2  502  501 +5.6144278184e-04 +6.8600830921e-04 +9.0672536848e-03 9.1104837842e-03 0.0000000000e+00 0.0000e+00 -1.0000e+00
<mgrwt>
<rscale>  1 0.65557946E+03</rscale>
<asrwt>0</asrwt>
<pdfrwt beam="1">  1        1 0.39074700E+00 0.65557946E+03</pdfrwt>
<pdfrwt beam="2">0</pdfrwt>
<totfact> 0.14692833E+00</totfact>
</mgrwt>
</event>
<event>
 6      1 +5.6466785e-02 6.51865700e+02 7.81860800e-03 9.80328500e-02
        1 -1    0    0  502    0 +0.0000000000e+00 +0.0000000000e+00 +1.0625437094e+02 1.0625437094e+02 0.0000000000e+00 0.0000e+00 1.0000e+00
       13 -1    0    0    0    0 -0.0000000000e+00 -0.0000000000e+00 -1.0000000000e+03 1.0000000000e+03 0.0000000000e+00 0.0000e+00 1.0000e+00
  9000005  2    1    2  501    0 -9.8723315579e-03 -5.0903639456e-03 -8.9376622264e+02 1.1062309729e+03 6.5186571046e+02 0.0000e+00 0.0000e+00
       13  1    3    3    0    0 -2.8945626330e+02 +1.4149062185e+02 -5.3053962612e+02 6.2070670958e+02 0.0000000000e+00 0.0000e+00 1.0000e+00
        1  1    3    3  501    0 +2.8944639097e+02 -1.4149571221e+02 -3.6322659652e+02 4.8552426328e+02 0.0000000000e+00 0.0000e+00 1.0000e+00
       21  1    1    2  502  501 +9.8723315579e-03 +5.0903639457e-03 +2.0593581346e-02 2.3398083857e-02 0.0000000000e+00 0.0000e+00 1.0000e+00
<mgrwt>
<rscale>  1 0.65186571E+03</rscale>
<asrwt>0</asrwt>
<pdfrwt beam="1">  1        1 0.38638035E+00 0.65186571E+03</pdfrwt>
<pdfrwt beam="2">0</pdfrwt>
<totfact> 0.15372865E+00</totfact>
</mgrwt>
</event>
<event>
 6      1 +5.6466785e-02 6.68422700e+02 7.81860800e-03 9.77281100e-02
        1 -1    0    0  502    0 +0.0000000000e+00 +0.0000000000e+00 +1.1172801294e+02 1.1172801294e+02 0.0000000000e+00 0.0000e+00 1.0000e+00
       13 -1    0    0    0    0 -0.0000000000e+00 -0.0000000000e+00 -1.0000000000e+03 1.0000000000e+03 0.0000000000e+00 0.0000e+00 1.0000e+00
  9000005  2    1    2  501    0 +3.9480205079e-03 +2.1879715073e-02 -8.8829822963e+02 1.1116936184e+03 6.6842273752e+02 0.0000e+00 0.0000e+00
       13  1    3    3    0    0 -2.0133282010e+02 +1.3341396914e+02 -5.9948479242e+01 2.4885339414e+02 0.0000000000e+00 0.0000e+00 1.0000e+00
        1  1    3    3  501    0 +2.0133676812e+02 -1.3339208942e+02 -8.2834975039e+02 8.6284022431e+02 0.0000000000e+00 0.0000e+00 1.0000e+00
       21  1    1    2  502  501 -3.9480205079e-03 -2.1879715073e-02 +2.6242575239e-02 3.4394498874e-02 0.0000000000e+00 0.0000e+00 -1.0000e+00
<mgrwt>
<rscale>  1 0.66842274E+03</rscale>
<asrwt>0</asrwt>
<pdfrwt beam="1">  1        1 0.40628454E+00 0.66842274E+03</pdfrwt>
<pdfrwt beam="2">0</pdfrwt>
<totfact> 0.12497750E+00</totfact>
</mgrwt>
</event>
<event>
 6      1 +5.6466785e-02 6.38762300e+02 7.81860800e-03 9.82809700e-02
        1 -1    0    0  502    0 +0.0000000000e+00 +0.0000000000e+00 +1.0202695590e+02 1.0202695590e+02 0.0000000000e+00 0.0000e+00 1.0000e+00
       13 -1    0    0    0    0 -0.0000000000e+00 -0.0000000000e+00 -1.0000000000e+03 1.0000000000e+03 0.0000000000e+00 0.0000e+00 1.0000e+00
  9000005  2    1    2  501    0 +5.6681537956e-05 +4.7400270504e-04 -8.9799568717e+02 1.1020043078e+03 6.3876227207e+02 0.0000e+00 0.0000e+00
       13  1    3    3    0    0 +2.2418674663e+02 -1.3368425193e+01 -5.7233109852e+01 2.3176289828e+02 0.0000000000e+00 0.0000e+00 1.0000e+00
        3  1    3    3  501    0 -2.2418668994e+02 +1.3368899196e+01 -8.4076257732e+02 8.7024140952e+02 0.0000000000e+00 0.0000e+00 1.0000e+00
       21  1    1    2  502  501 -5.6681537974e-05 -4.7400270504e-04 +2.2643071260e-02 2.2648102955e-02 0.0000000000e+00 0.0000e+00 -1.0000e+00
<mgrwt>
<rscale>  1 0.63876227E+03</rscale>
<asrwt>0</asrwt>
<pdfrwt beam="1">  1        1 0.37100789E+00 0.63876227E+03</pdfrwt>
<pdfrwt beam="2">0</pdfrwt>
<totfact> 0.18013041E+00</totfact>
</mgrwt>
</event>
<event>
 6      1 +5.6466785e-02 6.56358400e+02 7.81860800e-03 9.79492100e-02
        3 -1    0    0  502    0 +0.0000000000e+00 +0.0000000000e+00 +1.0793818259e+02 1.0793818259e+02 0.0000000000e+00 0.0000e+00 1.0000e+00
       13 -1    0    0    0    0 -0.0000000000e+00 -0.0000000000e+00 -1.0000000000e+03 1.0000000000e+03 0.0000000000e+00 0.0000e+00 1.0000e+00
  9000005  2    1    2  501    0 -6.6611377759e-01 -4.0306140078e-03 -8.9062086865e+02 1.1063507138e+03 6.5635807798e+02 0.0000e+00 0.0000e+00
       13  1    3    3    0    0 +1.8131305276e+02 +1.8199136708e+02 -1.0132824636e+02 2.7615701024e+02 0.0000000000e+00 0.0000e+00 1.0000e+00
        3  1    3    3  501    0 -1.8197916654e+02 -1.8199539770e+02 -7.8929262229e+02 8.3019370356e+02 0.0000000000e+00 0.0000e+00 1.0000e+00
       21  1    1    2  502  501 +6.6611377759e-01 +4.0306140078e-03 -1.4409487670e+00 1.5874687901e+00 0.0000000000e+00 0.0000e+00 -1.0000e+00
<mgrwt>
<rscale>  1 0.65635842E+03</rscale>
<asrwt>0</asrwt>
<pdfrwt beam="1">  1        3 0.39250331E+00 0.65635842E+03</pdfrwt>
<pdfrwt beam="2">0</pdfrwt>
<totfact> 0.64785873E-02</totfact>
</mgrwt>
</event>
<event>
 6      1 +5.6466785e-02 6.47833200e+02 7.81860800e-03 9.81085400e-02
        1 -1    0    0  502    0 +0.0000000000e+00 +0.0000000000e+00 +1.0492203381e+02 1.0492203381e+02 0.0000000000e+00 0.0000e+00 1.0000e+00
       13 -1    0    0    0    0 -0.0000000000e+00 -0.0000000000e+00 -1.0000000000e+03 1.0000000000e+03 0.0000000000e+00 0.0000e+00 1.0000e+00
  9000005  2    1    2  501    0 -8.0658870900e-05 +1.2294141594e-04 -8.9507793893e+02 1.1049218843e+03 6.4783319887e+02 0.0000e+00 0.0000e+00
       13  1    3    3    0    0 -2.5919827567e+02 -5.4481728387e+01 -1.2950719741e+02 2.9482896571e+02 0.0000000000e+00 0.0000e+00 1.0000e+00
        1  1    3    3  501    0 +2.5919819501e+02 +5.4481851328e+01 -7.6557074152e+02 8.1009291856e+02 0.0000000000e+00 0.0000e+00 1.0000e+00
       21  1    1    2  502  501 +8.0658870936e-05 -1.2294141594e-04 -2.7258292690e-05 1.4954417318e-04 0.0000000000e+00 0.0000e+00 1.0000e+00
<mgrwt>
<rscale>  1 0.64783320E+03</rscale>
<asrwt>0</asrwt>
<pdfrwt beam="1">  1        1 0.38153547E+00 0.64783320E+03</pdfrwt>
<pdfrwt beam="2">0</pdfrwt>
<totfact> 0.16162060E+00</totfact>
</mgrwt>
</event>
<event>
 6      1 +5.6466785e-02 6.49292000e+02 7.81860800e-03 9.80810900e-02
        1 -1    0    0  502    0 +0.0000000000e+00 +0.0000000000e+00 +1.1033664284e+02 1.1033664284e+02 0.0000000000e+00 0.0000e+00 1.0000e+00
       13 -1    0    0    0    0 -0.0000000000e+00 -0.0000000000e+00 -1.0000000000e+03 1.0000000000e+03 0.0000000000e+00 0.0000e+00 1.0000e+00
  9000005  2    1    2  501    0 +6.0907729862e-01 -1.0699600349e+00 -8.9452005367e+02 1.1053263244e+03 6.4929087570e+02 0.0000e+00 0.0000e+00
       13  1    3    3    0    0 +2.8260277708e+02 +4.9310127932e+00 -1.7484975782e+02 3.3235685988e+02 0.0000000000e+00 0.0000e+00 1.0000e+00
        1  1    3    3  501    0 -2.8199369978e+02 -6.0009728281e+00 -7.1967029585e+02 7.7296946455e+02 0.0000000000e+00 0.0000e+00 1.0000e+00
       21  1    1    2  502  501 -6.0907729862e-01 +1.0699600349e+00 +4.8566965040e+00 5.0103184095e+00 0.0000000000e+00 0.0000e+00 1.0000e+00
<mgrwt>
<rscale>  1 0.64929204E+03</rscale>
<asrwt>0</asrwt>
<pdfrwt beam="1">  1        1 0.40122500E+00 0.64929204E+03</pdfrwt>
<pdfrwt beam="2">0</pdfrwt>
<totfact> 0.13213308E+00</totfact>
</mgrwt>
</event>
<event>
 6      1 +5.6466785e-02 6.49907200e+02 7.81860800e-03 9.80695300e-02
        1 -1    0    0  502    0 +0.0000000000e+00 +0.0000000000e+00 +1.0559498750e+02 1.0559498750e+02 0.0000000000e+00 0.0000e+00 1.0000e+00
       13 -1    0    0    0    0 -0.0000000000e+00 -0.0000000000e+00 -1.0000000000e+03 1.0000000000e+03 0.0000000000e+00 0.0000e+00 1.0000e+00
  9000005  2    1    2  501    0 -5.2444897008e-05 -6.2344776666e-06 -8.9440515302e+02 1.1055948374e+03 6.4990719852e+02 0.0000e+00 0.0000e+00
       13  1    3    3    0    0 -8.2545789709e+01 -2.7652816345e+02 -7.0131491517e+02 7.5836946327e+02 0.0000000000e+00 0.0000e+00 1.0000e+00
        3  1    3    3  501    0 +8.2545737264e+01 +2.7652815721e+02 -1.9309023785e+02 3.4722537411e+02 0.0000000000e+00 0.0000e+00 1.0000e+00
       21  1    1    2  502  501 +5.2444897009e-05 +6.2344776687e-06 +1.4052547928e-04 1.5012243757e-04 0.0000000000e+00 0.0000e+00 1.0000e+00
<mgrwt>
<rscale>  1 0.64990720E+03</rscale>
<asrwt>0</asrwt>
<pdfrwt beam="1">  1        1 0.38398258E+00 0.64990720E+03</pdfrwt>
<pdfrwt beam="2">0</pdfrwt>
<totfact> 0.15758642E+00</totfact>
</mgrwt>
</event>
<event>
 6      1 +5.6466785e-02 6.44325700e+02 7.81860800e-03 9.81748500e-02
        1 -1    0    0  502    0 +0.0000000000e+00 +0.0000000000e+00 +1.0378893432e+02 1.0378893432e+02 0.0000000000e+00 0.0000e+00 1.0000e+00
       13 -1    0    0    0    0 -0.0000000000e+00 -0.0000000000e+00 -1.0000000000e+03 1.0000000000e+03 0.0000000000e+00 0.0000e+00 1.0000e+00
  9000005  2    1    2  501    0 -1.5645941623e-05 -4.6038705932e-06 -8.9621109868e+02 1.1037888975e+03 6.4432569161e+02 0.0000e+00 0.0000e+00
       13  1    3    3    0    0 -3.0028981747e+00 +3.1071964581e+02 -5.9380075625e+02 6.7019031164e+02 0.0000000000e+00 0.0000e+00 1.0000e+00
        1  1    3    3  501    0 +3.0028825287e+00 -3.1071965042e+02 -3.0241034243e+02 4.3359858587e+02 0.0000000000e+00 0.0000e+00 1.0000e+00
       21  1    1    2  502  501 +1.5645941623e-05 +4.6038705902e-06 +3.3005891764e-05 3.6815485938e-05 0.0000000000e+00 0.0000e+00 1.0000e+00
<mgrwt>
<rscale>  1 0.64432569E+03</rscale>
<asrwt>0</asrwt>
<pdfrwt beam="1">  1        1 0.37741510E+00 0.64432569E+03</pdfrwt>
<pdfrwt beam="2">0</pdfrwt>
<totfact> 0.16863670E+00</totfact>
</mgrwt>
</event>
<event>
 6      1 +5.6466785e-02 6.40843500e+02 7.81860800e-03 9.82411400e-02
        1 -1    0    0  502    0 +0.0000000000e+00 +0.0000000000e+00 +1.0267579585e+02 1.0267579585e+02 0.0000000000e+00 0.0000e+00 1.0000e+00
       13 -1    0    0    0    0 -0.0000000000e+00 -0.0000000000e+00 -1.0000000000e+03 1.0000000000e+03 0.0000000000e+00 0.0000e+00 1.0000e+00
  9000005  2    1    2  501    0 -9.6197602333e-03 -7.4789458530e-03 -8.9732156237e+02 1.1026633278e+03 6.4084352843e+02 0.0000e+00 0.0000e+00
       13  1    3    3    0    0 -2.2009899698e+02 -2.2585652793e+02 -5.4629456817e+02 6.3078720254e+02 0.0000000000e+00 0.0000e+00 1.0000e+00
        1  1    3    3  501    0 +2.2008937722e+02 +2.2584904898e+02 -3.5102699420e+02 4.7187612521e+02 0.0000000000e+00 0.0000e+00 1.0000e+00
       21  1    1    2  502  501 +9.6197602333e-03 +7.4789458530e-03 -2.6417793901e-03 1.2468095940e-02 0.0000000000e+00 0.0000e+00 -1.0000e+00
<mgrwt>
<rscale>  1 0.64084353E+03</rscale>
<asrwt>0</asrwt>
<pdfrwt beam="1">  1        1 0.37336732E+00 0.64084353E+03</pdfrwt>
<pdfrwt beam="2">0</pdfrwt>
<totfact> 0.17581248E+00</totfact>
</mgrwt>
</event>
<event>
 6      1 +5.6466785e-02 6.52231200e+02 7.81860800e-03 9.80260200e-02
        1 -1    0    0  502    0 +0.0000000000e+00 +0.0000000000e+00 +1.0635138503e+02 1.0635138503e+02 0.0000000000e+00 0.0000e+00 1.0000e+00
       13 -1    0    0    0    0 -0.0000000000e+00 -0.0000000000e+00 -1.0000000000e+03 1.0000000000e+03 0.0000000000e+00 0.0000e+00 1.0000e+00
  9000005  2    1    2  501    0 -4.5896329794e-06 +1.6919232905e-05 -8.9364861540e+02 1.1063513675e+03 6.5223117110e+02 0.0000e+00 0.0000e+00
       13  1    3    3    0    0 -6.4619757261e+01 -2.8989644391e+02 -6.7525727492e+02 7.3769102513e+02 0.0000000000e+00 0.0000e+00 1.0000e+00
        1  1    3    3  501    0 +6.4619752671e+01 +2.8989646083e+02 -2.1839134047e+02 3.6866034236e+02 0.0000000000e+00 0.0000e+00 1.0000e+00
       21  1    1    2  502  501 +4.5896329664e-06 -1.6919232910e-05 +4.3019060135e-07 1.7535969805e-05 0.0000000000e+00 0.0000e+00 -1.0000e+00
<mgrwt>
<rscale>  1 0.65223117E+03</rscale>
<asrwt>0</asrwt>
<pdfrwt beam="1">  1        1 0.38673312E+00 0.65223117E+03</pdfrwt>
<pdfrwt beam="2">0</pdfrwt>
<totfact> 0.15316650E+00</totfact>
</mgrwt>
</event>
<event>
 6      1 +5.6466785e-02 6.48177500e+02 7.81860800e-03 9.81020500e-02
        1 -1    0    0  502    0 +0.0000000000e+00 +0.0000000000e+00 +1.0505321276e+02 1.0505321276e+02 0.0000000000e+00 0.0000e+00 1.0000e+00
       13 -1    0    0    0    0 -0.0000000000e+00 -0.0000000000e+00 -1.0000000000e+03 1.0000000000e+03 0.0000000000e+00 0.0000e+00 1.0000e+00
  9000005  2    1    2  501    0 -1.9261326561e-03 -1.9868436194e-03 -8.9496636763e+02 1.1050334378e+03 6.4817752155e+02 0.0000e+00 0.0000e+00
       13  1    3    3    0    0 +1.3809964625e+02 +1.8392124397e+02 -5.8218534048e+01 2.3725078290e+02 0.0000000000e+00 0.0000e+00 1.0000e+00
        1  1    3    3  501    0 -1.3810157238e+02 -1.8392323081e+02 -8.3674783359e+02 8.6778265490e+02 0.0000000000e+00 0.0000e+00 1.0000e+00
       21  1    1    2  502  501 +1.9261326561e-03 +1.9868436194e-03 +1.9580391383e-02 1.9774965519e-02 0.0000000000e+00 0.0000e+00 1.0000e+00
<mgrwt>
<rscale>  1 0.64817752E+03</rscale>
<asrwt>0</asrwt>
<pdfrwt beam="1">  1        1 0.38201249E+00 0.64817752E+03</pdfrwt>
<pdfrwt beam="2">0</pdfrwt>
<totfact> 0.16082837E+00</totfact>
</mgrwt>
</event>
<event>
 6      1 +5.6466785e-02 6.51991600e+02 7.81860800e-03 9.80304900e-02
        1 -1    0    0  502    0 +0.0000000000e+00 +0.0000000000e+00 +1.0628860061e+02 1.0628860061e+02 0.0000000000e+00 0.0000e+00 1.0000e+00
       13 -1    0    0    0    0 -0.0000000000e+00 -0.0000000000e+00 -1.0000000000e+03 1.0000000000e+03 0.0000000000e+00 0.0000e+00 1.0000e+00
  9000005  2    1    2  501    0 -3.0329748654e-04 -3.3618260499e-04 -8.9372673834e+02 1.1062732550e+03 6.5199158880e+02 0.0000e+00 0.0000e+00
       13  1    3    3    0    0 -3.1915787339e+02 -6.2305395482e+01 -4.0781360532e+02 5.2158953894e+02 0.0000000000e+00 0.0000e+00 1.0000e+00
        3  1    3    3  501    0 +3.1915757009e+02 +6.2305059299e+01 -4.8591313302e+02 5.8468371604e+02 0.0000000000e+00 0.0000e+00 1.0000e+00
       21  1    1    2  502  501 +3.0329748658e-04 +3.3618260499e-04 +1.5338948754e-02 1.5345629899e-02 0.0000000000e+00 0.0000e+00 1.0000e+00
<mgrwt>
<rscale>  1 0.65199159E+03</rscale>
<asrwt>0</asrwt>
<pdfrwt beam="1">  1        1 0.38650482E+00 0.65199159E+03</pdfrwt>
<pdfrwt beam="2">0</pdfrwt>
<totfact> 0.15353017E+00</totfact>
</mgrwt>
</event>
<event>
 6      1 +5.6466785e-02 6.53857900e+02 7.81860800e-03 9.79956700e-02
        1 -1    0    0  502    0 +0.0000000000e+00 +0.0000000000e+00 +1.0689192439e+02 1.0689192439e+02 0.0000000000e+00 0.0000e+00 1.0000e+00
       13 -1    0    0    0    0 -0.0000000000e+00 -0.0000000000e+00 -1.0000000000e+03 1.0000000000e+03 0.0000000000e+00 0.0000e+00 1.0000e+00
  9000005  2    1    2  501    0 -2.4845951202e-05 -1.4773170136e-04 -8.9311746148e+02 1.1068825373e+03 6.5385789851e+02 0.0000e+00 0.0000e+00
       13  1    3    3    0    0 -2.6446059575e+02 -1.3058041525e+02 -2.0780161170e+02 3.6079379342e+02 0.0000000000e+00 0.0000e+00 1.0000e+00
        1  1    3    3  501    0 +2.6446057090e+02 +1.3058026751e+02 -6.8531584978e+02 7.4608874390e+02 0.0000000000e+00 0.0000e+00 1.0000e+00
       21  1    1    2  502  501 +2.4845951202e-05 +1.4773170136e-04 +9.3858702468e-03 9.3870656899e-03 0.0000000000e+00 0.0000e+00 1.0000e+00
<mgrwt>
<rscale>  1 0.65385790E+03</rscale>
<asrwt>0</asrwt>
<pdfrwt beam="1">  1        1 0.38869873E+00 0.65385790E+03</pdfrwt>
<pdfrwt beam="2">0</pdfrwt>
<totfact> 0.15008126E+00</totfact>
</mgrwt>
</event>
<event>
 6      1 +5.6466785e-02 6.52358500e+02 7.81860800e-03 9.80236400e-02
        1 -1    0    0  502    0 +0.0000000000e+00 +0.0000000000e+00 +1.0639289243e+02 1.0639289243e+02 0.0000000000e+00 0.0000e+00 1.0000e+00
       13 -1    0    0    0    0 -0.0000000000e+00 -0.0000000000e+00 -1.0000000000e+03 1.0000000000e+03 0.0000000000e+00 0.0000e+00 1.0000e+00
  9000005  2    1    2  501    0 +7.7044402360e-06 -1.1337815849e-05 -8.9360708804e+02 1.1063928686e+03 6.5235845347e+02 0.0000e+00 0.0000e+00
       13  1    3    3    0    0 -2.1042730486e+02 -1.0535338558e+02 -6.3743069756e+01 2.4380764021e+02 0.0000000000e+00 0.0000e+00 1.0000e+00
        1  1    3    3  501    0 +2.1042731256e+02 +1.0535337424e+02 -8.2986401828e+02 8.6258522835e+02 0.0000000000e+00 0.0000e+00 1.0000e+00
       21  1    1    2  502  501 -7.7044402414e-06 +1.1337815852e-05 -1.9536387213e-05 2.3865768227e-05 0.0000000000e+00 0.0000e+00 1.0000e+00
<mgrwt>
<rscale>  1 0.65235845E+03</rscale>
<asrwt>0</asrwt>
<pdfrwt beam="1">  1        1 0.38688406E+00 0.65235845E+03</pdfrwt>
<pdfrwt beam="2">0</pdfrwt>
<totfact> 0.15292740E+00</totfact>
</mgrwt>
</event>
<event>
 6      1 +5.6466785e-02 6.36621500e+02 7.81860800e-03 9.83221200e-02
        1 -1    0    0  502    0 +0.0000000000e+00 +0.0000000000e+00 +1.0132623639e+02 1.0132623639e+02 0.0000000000e+00 0.0000e+00 1.0000e+00
       13 -1    0    0    0    0 -0.0000000000e+00 -0.0000000000e+00 -1.0000000000e+03 1.0000000000e+03 0.0000000000e+00 0.0000e+00 1.0000e+00
  9000005  2    1    2  501    0 +4.6069423604e-05 -6.0523485871e-05 -8.9867825710e+02 1.1013217423e+03 6.3662152821e+02 0.0000e+00 0.0000e+00
       13  1    3    3    0    0 +1.8213254961e+02 -1.3512136568e+02 -6.2930295259e+01 2.3535137805e+02 0.0000000000e+00 0.0000e+00 1.0000e+00
        1  1    3    3  501    0 -1.8213250354e+02 +1.3512130516e+02 -8.3574796184e+02 8.6597036420e+02 0.0000000000e+00 0.0000e+00 1.0000e+00
       21  1    1    2  502  501 -4.6069423606e-05 +6.0523485891e-05 +4.4934892392e-03 4.4941329561e-03 0.0000000000e+00 0.0000e+00 -1.0000e+00
<mgrwt>
<rscale>  1 0.63662153E+03</rscale>
<asrwt>0</asrwt>
<pdfrwt beam="1">  1        1 0.36845982E+00 0.63662153E+03</pdfrwt>
<pdfrwt beam="2">0</pdfrwt>
<totfact> 0.18490378E+00</totfact>
</mgrwt>
</event>
<event>
 6      1 +5.6466785e-02 6.93485500e+02 7.81860800e-03 9.72843800e-02
        1 -1    0    0  502    0 +0.0000000000e+00 +0.0000000000e+00 +1.2068502652e+02 1.2068502652e+02 0.0000000000e+00 0.0000e+00 1.0000e+00
       13 -1    0    0    0    0 -0.0000000000e+00 -0.0000000000e+00 -1.0000000000e+03 1.0000000000e+03 0.0000000000e+00 0.0000e+00 1.0000e+00
  9000005  2    1    2  501    0 -8.6082418928e-01 -3.3293867871e-01 -8.7915542272e+02 1.1197483714e+03 6.9348489960e+02 0.0000e+00 0.0000e+00
       13  1    3    3    0    0 +3.4062702741e+02 +3.3795549827e+01 -5.2380073599e+02 6.2572847307e+02 0.0000000000e+00 0.0000e+00 1.0000e+00
        3  1    3    3  501    0 -3.4148785160e+02 -3.4128488506e+01 -3.5535468674e+02 4.9401989828e+02 0.0000000000e+00 0.0000e+00 1.0000e+00
       21  1    1    2  502  501 +8.6082418928e-01 +3.3293867871e-01 -1.5955076307e-01 9.3665516313e-01 0.0000000000e+00 0.0000e+00 -1.0000e+00
<mgrwt>
<rscale>  1 0.69348551E+03</rscale>
<asrwt>0</asrwt>
<pdfrwt beam="1">  1        1 0.43885557E+00 0.69348551E+03</pdfrwt>
<pdfrwt beam="2">0</pdfrwt>
<totfact> 0.88599823E-01</totfact>
</mgrwt>
</event>
<event>
 6      1 +5.6466785e-02 6.49645500e+02 7.81860800e-03 9.80744500e-02
        1 -1    0    0  502    0 +0.0000000000e+00 +0.0000000000e+00 +1.0550990674e+02 1.0550990674e+02 0.0000000000e+00 0.0000e+00 1.0000e+00
       13 -1    0    0    0    0 -0.0000000000e+00 -0.0000000000e+00 -1.0000000000e+03 1.0000000000e+03 0.0000000000e+00 0.0000e+00 1.0000e+00
  9000005  2    1    2  501    0 +2.7718845388e-06 +1.1988720729e-05 -8.9449018195e+02 1.1055098172e+03 6.4964549587e+02 0.0000e+00 0.0000e+00
       13  1    3    3    0    0 +3.9430712208e+01 -1.7094910564e+02 -9.1244308906e+02 9.2915594415e+02 0.0000000000e+00 0.0000e+00 1.0000e+00
        1  1    3    3  501    0 -3.9430709436e+01 +1.7094911762e+02 +1.7952907107e+01 1.7635387304e+02 0.0000000000e+00 0.0000e+00 1.0000e+00
       21  1    1    2  502  501 -2.7718845381e-06 -1.1988720716e-05 +8.8689012004e-05 8.9538559395e-05 0.0000000000e+00 0.0000e+00 1.0000e+00
<mgrwt>
<rscale>  1 0.64964550E+03</rscale>
<asrwt>0</asrwt>
<pdfrwt beam="1">  1        1 0.38367320E+00 0.64964550E+03</pdfrwt>
<pdfrwt beam="2">0</pdfrwt>
<totfact> 0.15809110E+00</totfact>
</mgrwt>
</event>
<event>
 6      1 +5.6466785e-02 6.48474700e+02 7.81860800e-03 9.80964600e-02
        1 -1    0    0  502    0 +0.0000000000e+00 +0.0000000000e+00 +1.0522003093e+02 1.0522003093e+02 0.0000000000e+00 0.0000e+00 1.0000e+00
       13 -1    0    0    0    0 -0.0000000000e+00 -0.0000000000e+00 -1.0000000000e+03 1.0000000000e+03 0.0000000000e+00 0.0000e+00 1.0000e+00
  9000005  2    1    2  501    0 +5.4133338409e-02 -1.7638449475e-01 -8.9404207723e+02 1.1044594218e+03 6.4847462901e+02 0.0000e+00 0.0000e+00
       13  1    3    3    0    0 -2.5196914833e+02 -1.7467888361e+02 -2.6724783110e+02 4.0672173204e+02 0.0000000000e+00 0.0000e+00 1.0000e+00
        1  1    3    3  501    0 +2.5202328167e+02 +1.7450249912e+02 -6.2679424613e+02 6.9773768974e+02 0.0000000000e+00 0.0000e+00 1.0000e+00
       21  1    1    2  502  501 -5.4133338409e-02 +1.7638449475e-01 -7.3789183656e-01 7.6060914455e-01 0.0000000000e+00 0.0000e+00 1.0000e+00
<mgrwt>
<rscale>  1 0.64847466E+03</rscale>
<asrwt>0</asrwt>
<pdfrwt beam="1">  1        1 0.38261910E+00 0.64847466E+03</pdfrwt>
<pdfrwt beam="2">0</pdfrwt>
<totfact> 0.15983037E+00</totfact>
</mgrwt>
</event>
<event>
 6      1 +5.6466785e-02 6.50177100e+02 7.81860800e-03 9.80644700e-02
        1 -1    0    0  502    0 +0.0000000000e+00 +0.0000000000e+00 +1.0579704237e+02 1.0579704237e+02 0.0000000000e+00 0.0000e+00 1.0000e+00
       13 -1    0    0    0    0 -0.0000000000e+00 -0.0000000000e+00 -1.0000000000e+03 1.0000000000e+03 0.0000000000e+00 0.0000e+00 1.0000e+00
  9000005  2    1    2  501    0 -3.1811772254e-02 +4.6981924620e-02 -8.9430961697e+02 1.1056762305e+03 6.5017707780e+02 0.0000e+00 0.0000e+00
       13  1    3    3    0    0 +1.0082842036e+02 -1.8730075421e+02 -8.6514842900e+02 8.9091511777e+02 0.0000000000e+00 0.0000e+00 1.0000e+00
        3  1    3    3  501    0 -1.0086023213e+02 +1.8734773613e+02 -2.9161187972e+01 2.1476111274e+02 0.0000000000e+00 0.0000e+00 1.0000e+00
       21  1    1    2  502  501 +3.1811772254e-02 -4.6981924620e-02 +1.0665933787e-01 1.2081185558e-01 0.0000000000e+00 0.0000e+00 -1.0000e+00
<mgrwt>
<rscale>  1 0.65017708E+03</rscale>
<asrwt>0</asrwt>
<pdfrwt beam="1">  1        1 0.38471733E+00 0.65017708E+03</pdfrwt>
<pdfrwt beam="2">0</pdfrwt>
<totfact> 0.15640415E+00</totfact>
</mgrwt>
</event>
<event>
 6      1 +5.6466785e-02 5.19945700e+02 7.81860800e-03 1.00870000e-01
        1 -1    0    0  502    0 +0.0000000000e+00 +0.0000000000e+00 +6.7669195044e+01 6.7669195044e+01 0.0000000000e+00 0.0000e+00 1.0000e+00
       13 -1    0    0    0    0 -0.0000000000e+00 -0.0000000000e+00 -1.0000000000e+03 1.0000000000e+03 0.0000000000e+00 0.0000e+00 1.0000e+00
  9000005  2    1    2  501    0 +1.4119533052e-03 +2.7600150255e-03 -9.3241409311e+02 1.0675858492e+03 5.1994567447e+02 0.0000e+00 0.0000e+00
       13  1    3    3    0    0 +7.3897107316e+01 +2.4266980861e+02 -3.4938580757e+02 4.3176366337e+02 0.0000000000e+00 0.0000e+00 1.0000e+00
        3  1    3    3  501    0 -7.3895695363e+01 -2.4266704859e+02 -5.8302828554e+02 6.3582218584e+02 0.0000000000e+00 0.0000e+00 1.0000e+00
       21  1    1    2  502  501 -1.4119533052e-03 -2.7600150255e-03 +8.3288151776e-02 8.3345830857e-02 0.0000000000e+00 0.0000e+00 -1.0000e+00
<mgrwt>
<rscale>  1 0.51994567E+03</rscale>
<asrwt>0</asrwt>
<pdfrwt beam="1">  1        1 0.24607032E+00 0.51994567E+03</pdfrwt>
<pdfrwt beam="2">0</pdfrwt>
<totfact> 0.64026285E+00</totfact>
</mgrwt>
</event>
<event>
 6      1 +5.6466785e-02 6.55764600e+02 7.81860800e-03 9.79602200e-02
        1 -1    0    0  502    0 +0.0000000000e+00 +0.0000000000e+00 +1.1276354979e+02 1.1276354979e+02 0.0000000000e+00 0.0000e+00 1.0000e+00
       13 -1    0    0    0    0 -0.0000000000e+00 -0.0000000000e+00 -1.0000000000e+03 1.0000000000e+03 0.0000000000e+00 0.0000e+00 1.0000e+00
  9000005  2    1    2  501    0 -3.3005065280e-01 +3.0845392094e-01 -8.9248244397e+02 1.1074981412e+03 6.5576445150e+02 0.0000e+00 0.0000e+00
       13  1    3    3    0    0 -2.0161044221e+02 -1.1187147205e+02 -8.4013099593e+02 8.7119577994e+02 0.0000000000e+00 0.0000e+00 1.0000e+00
        3  1    3    3  501    0 +2.0128039156e+02 +1.1217992598e+02 -5.2351448045e+01 2.3630236124e+02 0.0000000000e+00 0.0000e+00 1.0000e+00
       21  1    1    2  502  501 +3.3005065280e-01 -3.0845392094e-01 +5.2459937592e+00 5.2654086049e+00 0.0000000000e+00 0.0000e+00 -1.0000e+00
<mgrwt>
<rscale>  1 0.65576461E+03</rscale>
<asrwt>0</asrwt>
<pdfrwt beam="1">  1        1 0.41005014E+00 0.65576461E+03</pdfrwt>
<pdfrwt beam="2">0</pdfrwt>
<totfact> 0.12050607E+00</totfact>
</mgrwt>
</event>
<event>
 6      1 +5.6466785e-02 6.54561800e+02 7.81860800e-03 9.79825700e-02
        1 -1    0    0  502    0 +0.0000000000e+00 +0.0000000000e+00 +1.0711346441e+02 1.0711346441e+02 0.0000000000e+00 0.0000e+00 1.0000e+00
       13 -1    0    0    0    0 -0.0000000000e+00 -0.0000000000e+00 -1.0000000000e+03 1.0000000000e+03 0.0000000000e+00 0.0000e+00 1.0000e+00
  9000005  2    1    2  501    0 -3.8228908832e-04 -3.8010238342e-05 -8.9288716032e+02 1.1071127310e+03 6.5456177563e+02 0.0000e+00 0.0000e+00
       13  1    3    3    0    0 -2.5236163045e+02 +1.7742348496e+02 -2.6156901243e+02 4.0445498365e+02 0.0000000000e+00 0.0000e+00 1.0000e+00
        3  1    3    3  501    0 +2.5236124816e+02 -1.7742352297e+02 -6.3131814789e+02 7.0265774736e+02 0.0000000000e+00 0.0000e+00 1.0000e+00
       21  1    1    2  502  501 +3.8228908832e-04 +3.8010238348e-05 +6.2472558318e-04 7.3339742265e-04 0.0000000000e+00 0.0000e+00 1.0000e+00
<mgrwt>
<rscale>  1 0.65456178E+03</rscale>
<asrwt>0</asrwt>
<pdfrwt beam="1">  1        1 0.38950433E+00 0.65456178E+03</pdfrwt>
<pdfrwt beam="2">0</pdfrwt>
<totfact> 0.14883287E+00</totfact>
</mgrwt>
</event>
<event>
 6      1 +5.6466785e-02 6.46693400e+02 7.81860800e-03 9.81300400e-02
        1 -1    0    0  502    0 +0.0000000000e+00 +0.0000000000e+00 +1.0455314156e+02 1.0455314156e+02 0.0000000000e+00 0.0000e+00 1.0000e+00
       13 -1    0    0    0    0 -0.0000000000e+00 -0.0000000000e+00 -1.0000000000e+03 1.0000000000e+03 0.0000000000e+00 0.0000e+00 1.0000e+00
  9000005  2    1    2  501    0 -5.2106396140e-06 +1.1681762530e-05 -8.9544689610e+02 1.1045531018e+03 6.4669344432e+02 0.0000e+00 0.0000e+00
       13  1    3    3    0    0 -2.0031812127e+02 +9.7246422679e+01 -4.7275001097e+01 2.2763818256e+02 0.0000000000e+00 0.0000e+00 1.0000e+00
        3  1    3    3  501    0 +2.0031811606e+02 -9.7246410997e+01 -8.4817189501e+02 8.7691491922e+02 0.0000000000e+00 0.0000e+00 1.0000e+00
       21  1    1    2  502  501 +5.2106396289e-06 -1.1681762525e-05 +3.7665252615e-05 3.9777953638e-05 0.0000000000e+00 0.0000e+00 -1.0000e+00
<mgrwt>
<rscale>  1 0.64669344E+03</rscale>
<asrwt>0</asrwt>
<pdfrwt beam="1">  1        1 0.38019404E+00 0.64669344E+03</pdfrwt>
<pdfrwt beam="2">0</pdfrwt>
<totfact> 0.16387360E+00</totfact>
</mgrwt>
</event>
<event>
 6      1 +5.6466785e-02 6.42374400e+02 7.81860800e-03 9.82119400e-02
        1 -1    0    0  502    0 +0.0000000000e+00 +0.0000000000e+00 +1.0316125526e+02 1.0316125526e+02 0.0000000000e+00 0.0000e+00 1.0000e+00
       13 -1    0    0    0    0 -0.0000000000e+00 -0.0000000000e+00 -1.0000000000e+03 1.0000000000e+03 0.0000000000e+00 0.0000e+00 1.0000e+00
  9000005  2    1    2  501    0 +3.4750865829e-05 -1.6492891149e-05 -8.9683875331e+02 1.1031612159e+03 6.4237443810e+02 0.0000e+00 0.0000e+00
       13  1    3    3    0    0 -9.5097439582e+00 +2.0523435486e+02 -8.7239055573e+02 8.9625713797e+02 0.0000000000e+00 0.0000e+00 1.0000e+00
        1  1    3    3  501    0 +9.5097787091e+00 -2.0523437136e+02 -2.4448197578e+01 2.0690407788e+02 0.0000000000e+00 0.0000e+00 1.0000e+00
       21  1    1    2  502  501 -3.4750865829e-05 +1.6492891160e-05 +8.5639362459e-06 3.9407856307e-05 0.0000000000e+00 0.0000e+00 -1.0000e+00
<mgrwt>
<rscale>  1 0.64237444E+03</rscale>
<asrwt>0</asrwt>
<pdfrwt beam="1">  1        1 0.37513263E+00 0.64237444E+03</pdfrwt>
<pdfrwt beam="2">0</pdfrwt>
<totfact> 0.17264747E+00</totfact>
</mgrwt>
</event>
<event>
 6      1 +5.6466785e-02 6.53233900e+02 7.81860800e-03 9.80073000e-02
        1 -1    0    0  502    0 +0.0000000000e+00 +0.0000000000e+00 +1.0738154869e+02 1.0738154869e+02 0.0000000000e+00 0.0000e+00 1.0000e+00
       13 -1    0    0    0    0 -0.0000000000e+00 -0.0000000000e+00 -1.0000000000e+03 1.0000000000e+03 0.0000000000e+00 0.0000e+00 1.0000e+00
  9000005  2    1    2  501    0 -7.1867859387e-01 -7.5682821688e-01 -8.9286387768e+02 1.1063093911e+03 6.5323309424e+02 0.0000e+00 0.0000e+00
       13  1    3    3    0    0 -2.7526536953e+01 -2.2682786275e+02 -8.4278730773e+02 8.7321190763e+02 0.0000000000e+00 0.0000e+00 1.0000e+00
        1  1    3    3  501    0 +2.6807858359e+01 +2.2607103453e+02 -5.0076569946e+01 2.3309748343e+02 0.0000000000e+00 0.0000e+00 1.0000e+00
       21  1    1    2  502  501 +7.1867859387e-01 +7.5682821688e-01 +2.4542636752e-01 1.0721576251e+00 0.0000000000e+00 0.0000e+00 1.0000e+00
<mgrwt>
<rscale>  1 0.65323393E+03</rscale>
<asrwt>0</asrwt>
<pdfrwt beam="1">  1        1 0.39047918E+00 0.65323393E+03</pdfrwt>
<pdfrwt beam="2">0</pdfrwt>
<totfact> 0.14739502E+00</totfact>
</mgrwt>
</event>
<event>
 6      1 +5.6466785e-02 6.35523200e+02 7.81860800e-03 9.83432900e-02
        1 -1    0    0  502    0 +0.0000000000e+00 +0.0000000000e+00 +1.0098304505e+02 1.0098304505e+02 0.0000000000e+00 0.0000e+00 1.0000e+00
       13 -1    0    0    0    0 -0.0000000000e+00 -0.0000000000e+00 -1.0000000000e+03 1.0000000000e+03 0.0000000000e+00 0.0000e+00 1.0000e+00
  9000005  2    1    2  501    0 -6.0736537380e-03 -9.4043766951e-03 -8.9902419762e+02 1.1009697113e+03 6.3552324682e+02 0.0000e+00 0.0000e+00
       13  1    3    3    0    0 +3.0478392500e+02 -7.5591604252e+01 -5.3373932667e+02 6.1926165747e+02 0.0000000000e+00 0.0000e+00 1.0000e+00
        3  1    3    3  501    0 -3.0478999865e+02 +7.5582199875e+01 -3.6528487095e+02 4.8170805387e+02 0.0000000000e+00 0.0000e+00 1.0000e+00
       21  1    1    2  502  501 +6.0736537381e-03 +9.4043766951e-03 +7.2426786916e-03 1.3333715363e-02 0.0000000000e+00 0.0000e+00 -1.0000e+00
<mgrwt>
<rscale>  1 0.63552325E+03</rscale>
<asrwt>0</asrwt>
<pdfrwt beam="1">  1        1 0.36721185E+00 0.63552325E+03</pdfrwt>
<pdfrwt beam="2">0</pdfrwt>
<totfact> 0.18728724E+00</totfact>
</mgrwt>
</event>
<event>
 6      1 +5.6466785e-02 7.06255100e+02 7.81860800e-03 9.70659500e-02
        1 -1    0    0  502    0 +0.0000000000e+00 +0.0000000000e+00 +1.2482030653e+02 1.2482030653e+02 0.0000000000e+00 0.0000e+00 1.0000e+00
       13 -1    0    0    0    0 -0.0000000000e+00 -0.0000000000e+00 -1.0000000000e+03 1.0000000000e+03 0.0000000000e+00 0.0000e+00 1.0000e+00
  9000005  2    1    2  501    0 +3.9755153546e-02 -8.4454875947e-02 -8.7528033898e+02 1.1246830381e+03 7.0625509253e+02 0.0000e+00 0.0000e+00
       13  1    3    3    0    0 -3.1893788531e+01 +1.2255860658e+02 +8.7287571879e+01 1.5380814672e+02 0.0000000000e+00 0.0000e+00 1.0000e+00
        3  1    3    3  501    0 +3.1933543685e+01 -1.2264306145e+02 -9.6256791086e+02 9.7087489140e+02 0.0000000000e+00 0.0000e+00 1.0000e+00
       21  1    1    2  502  501 -3.9755153546e-02 +8.4454875947e-02 +1.0064550218e-01 1.3726840647e-01 0.0000000000e+00 0.0000e+00 -1.0000e+00
<mgrwt>
<rscale>  1 0.70625510E+03</rscale>
<asrwt>0</asrwt>
<pdfrwt beam="1">  1        1 0.45389298E+00 0.70625510E+03</pdfrwt>
<pdfrwt beam="2">0</pdfrwt>
<totfact> 0.75366429E-01</totfact>
</mgrwt>
</event>
<event>
 6      1 +5.6466785e-02 6.56726600e+02 7.81860800e-03 9.79423800e-02
        1 -1    0    0  502    0 +0.0000000000e+00 +0.0000000000e+00 +1.0783138312e+02 1.0783138312e+02 0.0000000000e+00 0.0000e+00 1.0000e+00
       13 -1    0    0    0    0 -0.0000000000e+00 -0.0000000000e+00 -1.0000000000e+03 1.0000000000e+03 0.0000000000e+00 0.0000e+00 1.0000e+00
  9000005  2    1    2  501    0 -1.2851511956e-04 +2.1354573107e-05 -8.9217754993e+02 1.1078224491e+03 6.5672657795e+02 0.0000e+00 0.0000e+00
       13  1    3    3    0    0 +9.8352671717e+01 -2.9976426230e+02 -5.9968397369e+02 6.7760809417e+02 0.0000000000e+00 0.0000e+00 1.0000e+00
        1  1    3    3  501    0 -9.8352800232e+01 +2.9976428365e+02 -2.9249357623e+02 4.3021435495e+02 0.0000000000e+00 0.0000e+00 1.0000e+00
       21  1    1    2  502  501 +1.2851511956e-04 -2.1354573158e-05 +8.9330451265e-03 8.9339950407e-03 0.0000000000e+00 0.0000e+00 -1.0000e+00
<mgrwt>
<rscale>  1 0.65672658E+03</rscale>
<asrwt>0</asrwt>
<pdfrwt beam="1">  1        1 0.39211495E+00 0.65672658E+03</pdfrwt>
<pdfrwt beam="2">0</pdfrwt>
<totfact> 0.14485779E+00</totfact>
</mgrwt>
</event>
<event>
 6      1 +5.6466785e-02 6.51346300e+02 7.81860800e-03 9.80425600e-02
        1 -1    0    0  502    0 +0.0000000000e+00 +0.0000000000e+00 +1.0606304693e+02 1.0606304693e+02 0.0000000000e+00 0.0000e+00 1.0000e+00
       13 -1    0    0    0    0 -0.0000000000e+00 -0.0000000000e+00 -1.0000000000e+03 1.0000000000e+03 0.0000000000e+00 0.0000e+00 1.0000e+00
  9000005  2    1    2  501    0 +3.2232323349e-05 -4.6176531185e-05 -8.9393696924e+02 1.1060629883e+03 6.5134632048e+02 0.0000e+00 0.0000e+00
       13  1    3    3    0    0 -2.5315807098e+02 +2.0412077400e+02 -4.7680368388e+02 5.7714474116e+02 0.0000000000e+00 0.0000e+00 1.0000e+00
        1  1    3    3  501    0 +2.5315810321e+02 -2.0412082018e+02 -4.1713328536e+02 5.2891824719e+02 0.0000000000e+00 0.0000e+00 1.0000e+00
       21  1    1    2  502  501 -3.2232323345e-05 +4.6176531185e-05 +1.6175545062e-05 5.8590468155e-05 0.0000000000e+00 0.0000e+00 -1.0000e+00
<mgrwt>
<rscale>  1 0.65134632E+03</rscale>
<asrwt>0</asrwt>
<pdfrwt beam="1">  1        1 0.38568462E+00 0.65134632E+03</pdfrwt>
<pdfrwt beam="2">0</pdfrwt>
<totfact> 0.15483726E+00</totfact>
</mgrwt>
</event>
<event>
 6      1 +5.6466785e-02 6.48803000e+02 7.81860800e-03 9.80902800e-02
        1 -1    0    0  502    0 +0.0000000000e+00 +0.0000000000e+00 +1.3496603330e+02 1.3496603330e+02 0.0000000000e+00 0.0000e+00 1.0000e+00
       13 -1    0    0    0    0 -0.0000000000e+00 -0.0000000000e+00 -1.0000000000e+03 1.0000000000e+03 0.0000000000e+00 0.0000e+00 1.0000e+00
  9000005  2    1    2  501    0 -1.2969137919e-01 -8.5110374130e-01 -8.9475676401e+02 1.1052307701e+03 6.4880247166e+02 0.0000e+00 0.0000e+00
       13  1    3    3    0    0 +5.7348949510e+01 +3.0342976285e+02 -2.7980169786e+02 4.1671034679e+02 0.0000000000e+00 0.0000e+00 1.0000e+00
        3  1    3    3  501    0 -5.7478640889e+01 -3.0428086659e+02 -6.1495506615e+02 6.8852042331e+02 0.0000000000e+00 0.0000e+00 1.0000e+00
       21  1    1    2  502  501 +1.2969137919e-01 +8.5110374130e-01 +2.9722797310e+01 2.9735263197e+01 0.0000000000e+00 0.0000e+00 1.0000e+00
<mgrwt>
<rscale>  1 0.64880304E+03</rscale>
<asrwt>0</asrwt>
<pdfrwt beam="1">  1        1 0.49078661E+00 0.64880304E+03</pdfrwt>
<pdfrwt beam="2">0</pdfrwt>
<totfact> 0.51193503E-01</totfact>
</mgrwt>
</event>
<event>
 6      1 +5.6466785e-02 6.61186600e+02 7.81860800e-03 9.78601200e-02
        1 -1    0    0  502    0 +0.0000000000e+00 +0.0000000000e+00 +1.0932094605e+02 1.0932094605e+02 0.0000000000e+00 0.0000e+00 1.0000e+00
       13 -1    0    0    0    0 -0.0000000000e+00 -0.0000000000e+00 -1.0000000000e+03 1.0000000000e+03 0.0000000000e+00 0.0000e+00 1.0000e+00
  9000005  2    1    2  501    0 +8.9468575391e-03 -2.4691314617e-02 -8.9070131635e+02 1.1092865175e+03 6.6118661691e+02 0.0000e+00 0.0000e+00
       13  1    3    3    0    0 +7.7615153712e+01 +2.2945303746e+02 -8.2278726945e+02 8.5770140449e+02 0.0000000000e+00 0.0000e+00 1.0000e+00
        3  1    3    3  501    0 -7.7606206855e+01 -2.2947772878e+02 -6.7914046895e+01 2.5158511306e+02 0.0000000000e+00 0.0000e+00 1.0000e+00
       21  1    1    2  502  501 -8.9468575391e-03 +2.4691314617e-02 +2.2262400711e-02 3.4428502186e-02 0.0000000000e+00 0.0000e+00 1.0000e+00
<mgrwt>
<rscale>  1 0.66118662E+03</rscale>
<asrwt>0</asrwt>
<pdfrwt beam="1">  1        1 0.39753155E+00 0.66118662E+03</pdfrwt>
<pdfrwt beam="2">0</pdfrwt>
<totfact> 0.13692941E+00</totfact>
</mgrwt>
</event>
<event>
 6      1 +5.6466785e-02 6.43688600e+02 7.81860800e-03 9.81869500e-02
        1 -1    0    0  502    0 +0.0000000000e+00 +0.0000000000e+00 +1.0358377292e+02 1.0358377292e+02 0.0000000000e+00 0.0000e+00 1.0000e+00
       13 -1    0    0    0    0 -0.0000000000e+00 -0.0000000000e+00 -1.0000000000e+03 1.0000000000e+03 0.0000000000e+00 0.0000e+00 1.0000e+00
  9000005  2    1    2  501    0 +8.7289217277e-06 +1.6790585585e-05 -8.9641622787e+02 1.1035837540e+03 6.4368862694e+02 0.0000e+00 0.0000e+00
       13  1    3    3    0    0 +2.6907362999e+02 -1.0088255704e+00 -1.4545938188e+02 3.0587590272e+02 0.0000000000e+00 0.0000e+00 1.0000e+00
        1  1    3    3  501    0 -2.6907362126e+02 +1.0088423610e+00 -7.5095684599e+02 7.9770785126e+02 0.0000000000e+00 0.0000e+00 1.0000e+00
       21  1    1    2  502  501 -8.7289217347e-06 -1.6790585585e-05 +7.8932059337e-07 1.8940455801e-05 0.0000000000e+00 0.0000e+00 1.0000e+00
<mgrwt>
<rscale>  1 0.64368863E+03</rscale>
<asrwt>0</asrwt>
<pdfrwt beam="1">  1        1 0.37666906E+00 0.64368863E+03</pdfrwt>
<pdfrwt beam="2">0</pdfrwt>
<totfact> 0.16993774E+00</totfact>
</mgrwt>
</event>
<event>
 6      1 +5.6466785e-02 6.52516500e+02 7.81860800e-03 9.80206900e-02
        1 -1    0    0  502    0 +0.0000000000e+00 +0.0000000000e+00 +1.2788576535e+02 1.2788576535e+02 0.0000000000e+00 0.0000e+00 1.0000e+00
       13 -1    0    0    0    0 -0.0000000000e+00 -0.0000000000e+00 -1.0000000000e+03 1.0000000000e+03 0.0000000000e+00 0.0000e+00 1.0000e+00
  9000005  2    1    2  501    0 +8.4806065785e+00 -2.2114130371e+00 -8.9256010632e+02 1.1056406602e+03 6.5245759635e+02 0.0000e+00 0.0000e+00
       13  1    3    3    0    0 -2.7146362714e+02 +4.5334339130e+01 -1.5626849252e+02 3.1649256693e+02 0.0000000000e+00 0.0000e+00 1.0000e+00
        1  1    3    3  501    0 +2.7994423372e+02 -4.7545752167e+01 -7.3629161380e+02 7.8914809326e+02 0.0000000000e+00 0.0000e+00 1.0000e+00
       21  1    1    2  502  501 -8.4806065785e+00 +2.2114130371e+00 +2.0445871663e+01 2.2245105161e+01 0.0000000000e+00 0.0000e+00 -1.0000e+00
<mgrwt>
<rscale>  1 0.65251646E+03</rscale>
<asrwt>0</asrwt>
<pdfrwt beam="1">  1        1 0.46504013E+00 0.65251646E+03</pdfrwt>
<pdfrwt beam="2">0</pdfrwt>
<totfact> 0.67636681E-01</totfact>
</mgrwt>
</event>
<event>
 6      1 +5.6466785e-02 6.43070800e+02 7.81860800e-03 9.81986900e-02
        1 -1    0    0  502    0 +0.0000000000e+00 +0.0000000000e+00 +1.0338504415e+02 1.0338504415e+02 0.0000000000e+00 0.0000e+00 1.0000e+00
       13 -1    0    0    0    0 -0.0000000000e+00 -0.0000000000e+00 -1.0000000000e+03 1.0000000000e+03 0.0000000000e+00 0.0000e+00 1.0000e+00
  9000005  2    1    2  501    0 +3.7730644294e-05 +1.3849467184e-05 -8.9661494799e+02 1.1033850032e+03 6.4307083616e+02 0.0000e+00 0.0000e+00
       13  1    3    3    0    0 -3.1414089479e+02 +2.8973193670e+01 -5.5492332271e+02 6.3832894483e+02 0.0000000000e+00 0.0000e+00 1.0000e+00
        3  1    3    3  501    0 +3.1414093252e+02 -2.8973179821e+01 -3.4169162528e+02 4.6505605836e+02 0.0000000000e+00 0.0000e+00 1.0000e+00
       21  1    1    2  502  501 -3.7730644348e-05 -1.3849467184e-05 -7.8633946319e-06 4.0954148011e-05 0.0000000000e+00 0.0000e+00 1.0000e+00
<mgrwt>
<rscale>  1 0.64307084E+03</rscale>
<asrwt>0</asrwt>
<pdfrwt beam="1">  1        1 0.37594641E+00 0.64307084E+03</pdfrwt>
<pdfrwt beam="2">0</pdfrwt>
<totfact> 0.17120714E+00</totfact>
</mgrwt>
</event>
<event>
 6      1 +5.6466785e-02 6.43795600e+02 7.81860800e-03 9.81849200e-02
        1 -1    0    0  502    0 +0.0000000000e+00 +0.0000000000e+00 +1.0494550690e+02 1.0494550690e+02 0.0000000000e+00 0.0000e+00 1.0000e+00
       13 -1    0    0    0    0 -0.0000000000e+00 -0.0000000000e+00 -1.0000000000e+03 1.0000000000e+03 0.0000000000e+00 0.0000e+00 1.0000e+00
  9000005  2    1    2  501    0 +7.7167113612e-02 +8.5721644943e-02 -8.9637905126e+02 1.1036159366e+03 6.4379555653e+02 0.0000e+00 0.0000e+00
       13  1    3    3    0    0 +1.0892044731e+02 -2.5662858679e+02 -7.2394766999e+02 7.7577195379e+02 0.0000000000e+00 0.0000e+00 1.0000e+00
        1  1    3    3  501    0 -1.0884328020e+02 +2.5671430844e+02 -1.7243138127e+02 3.2784398278e+02 0.0000000000e+00 0.0000e+00 1.0000e+00
       21  1    1    2  502  501 -7.7167113612e-02 -8.5721644943e-02 +1.3245581565e+00 1.3295703342e+00 0.0000000000e+00 0.0000e+00 -1.0000e+00
<mgrwt>
<rscale>  1 0.64379557E+03</rscale>
<asrwt>0</asrwt>
<pdfrwt beam="1">  1        1 0.38162083E+00 0.64379557E+03</pdfrwt>
<pdfrwt beam="2">0</pdfrwt>
<totfact> 0.16160076E+00</totfact>
</mgrwt>
</event>
<event>
 6      1 +5.6466785e-02 6.49491700e+02 7.81860800e-03 9.80773300e-02
        3 -1    0    0  502    0 +0.0000000000e+00 +0.0000000000e+00 +1.0546207351e+02 1.0546207351e+02 0.0000000000e+00 0.0000e+00 1.0000e+00
       13 -1    0    0    0    0 -0.0000000000e+00 -0.0000000000e+00 -1.0000000000e+03 1.0000000000e+03 0.0000000000e+00 0.0000e+00 1.0000e+00
  9000005  2    1    2  501    0 -4.1780922709e-04 -1.0010515162e-03 -8.9453999282e+02 1.1054597398e+03 6.4949167622e+02 0.0000e+00 0.0000e+00
       13  1    3    3    0    0 +1.9577297966e+02 +2.4638201937e+02 -5.8373384693e+02 6.6315636398e+02 0.0000000000e+00 0.0000e+00 1.0000e+00
        3  1    3    3  501    0 -1.9577339747e+02 -2.4638302042e+02 -3.1080614589e+02 4.4230337578e+02 0.0000000000e+00 0.0000e+00 1.0000e+00
       21  1    1    2  502  501 +4.1780922710e-04 +1.0010515162e-03 +2.0663234719e-03 2.3337440689e-03 0.0000000000e+00 0.0000e+00 1.0000e+00
<mgrwt>
<rscale>  1 0.64949168E+03</rscale>
<asrwt>0</asrwt>
<pdfrwt beam="1">  1        3 0.38349926E+00 0.64949168E+03</pdfrwt>
<pdfrwt beam="2">0</pdfrwt>
<totfact> 0.72342203E-02</totfact>
</mgrwt>
</event>
<event>
 6      1 +5.6466785e-02 6.44328300e+02 7.81860800e-03 9.81748000e-02
        1 -1    0    0  502    0 +0.0000000000e+00 +0.0000000000e+00 +1.0379253303e+02 1.0379253303e+02 0.0000000000e+00 0.0000e+00 1.0000e+00
       13 -1    0    0    0    0 -0.0000000000e+00 -0.0000000000e+00 -1.0000000000e+03 1.0000000000e+03 0.0000000000e+00 0.0000e+00 1.0000e+00
  9000005  2    1    2  501    0 -5.8360450836e-03 -6.2125384610e-03 -8.9619307755e+02 1.1037758085e+03 6.4432833482e+02 0.0000e+00 0.0000e+00
       13  1    3    3    0    0 +3.1385602544e+02 +5.9933826820e+01 -3.7767091303e+02 4.9470494929e+02 0.0000000000e+00 0.0000e+00 1.0000e+00
        1  1    3    3  501    0 -3.1386186148e+02 -5.9940039358e+01 -5.1852216452e+02 6.0907085919e+02 0.0000000000e+00 0.0000e+00 1.0000e+00
       21  1    1    2  502  501 +5.8360450836e-03 +6.2125384610e-03 -1.4389422134e-02 1.6724548595e-02 0.0000000000e+00 0.0000e+00 1.0000e+00
<mgrwt>
<rscale>  1 0.64432833E+03</rscale>
<asrwt>0</asrwt>
<pdfrwt beam="1">  1        1 0.37742819E+00 0.64432833E+03</pdfrwt>
<pdfrwt beam="2">0</pdfrwt>
<totfact> 0.16861422E+00</totfact>
</mgrwt>
</event>
<event>
 6      1 +5.6466785e-02 6.55473100e+02 7.81860800e-03 9.79656300e-02
        1 -1    0    0  502    0 +0.0000000000e+00 +0.0000000000e+00 +1.0859199730e+02 1.0859199730e+02 0.0000000000e+00 0.0000e+00 1.0000e+00
       13 -1    0    0    0    0 -0.0000000000e+00 -0.0000000000e+00 -1.0000000000e+03 1.0000000000e+03 0.0000000000e+00 0.0000e+00 1.0000e+00
  9000005  2    1    2  501    0 +1.3655376111e+00 -2.8898307240e+00 -8.8930420967e+02 1.1047655421e+03 6.5546526205e+02 0.0000e+00 0.0000e+00
       13  1    3    3    0    0 +1.6587840436e+02 +1.1492154150e+02 -9.5318901294e+00 2.0202342108e+02 0.0000000000e+00 0.0000e+00 1.0000e+00
        3  1    3    3  501    0 -1.6451286675e+02 -1.1781137223e+02 -8.7977231954e+02 9.0274212098e+02 0.0000000000e+00 0.0000e+00 1.0000e+00
       21  1    1    2  502  501 -1.3655376111e+00 +2.8898307240e+00 -2.1037930306e+00 3.8264552390e+00 0.0000000000e+00 0.0000e+00 1.0000e+00
<mgrwt>
<rscale>  1 0.65547305E+03</rscale>
<asrwt>0</asrwt>
<pdfrwt beam="1">  1        1 0.39488082E+00 0.65547305E+03</pdfrwt>
<pdfrwt beam="2">0</pdfrwt>
<totfact> 0.14084934E+00</totfact>
</mgrwt>
</event>
<event>
 6      1 +5.6466785e-02 6.50876500e+02 7.81860800e-03 9.80513600e-02
        1 -1    0    0  502    0 +0.0000000000e+00 +0.0000000000e+00 +1.0766552824e+02 1.0766552824e+02 0.0000000000e+00 0.0000e+00 1.0000e+00
       13 -1    0    0    0    0 -0.0000000000e+00 -0.0000000000e+00 -1.0000000000e+03 1.0000000000e+03 0.0000000000e+00 0.0000e+00 1.0000e+00
  9000005  2    1    2  501    0 -4.1444383842e+00 -1.5892080628e+00 -8.9012588120e+02 1.1027077239e+03 6.5086138155e+02 0.0000e+00 0.0000e+00
       13  1    3    3    0    0 -4.3164479289e+01 +6.6618567071e+01 -9.8006596127e+02 9.8327539082e+02 0.0000000000e+00 0.0000e+00 1.0000e+00
        3  1    3    3  501    0 +3.9020040905e+01 -6.8207775133e+01 +8.9940080066e+01 1.1943233307e+02 0.0000000000e+00 0.0000e+00 1.0000e+00
       21  1    1    2  502  501 +4.1444383842e+00 +1.5892080628e+00 -2.2085905543e+00 4.9578043551e+00 0.0000000000e+00 0.0000e+00 1.0000e+00
<mgrwt>
<rscale>  1 0.65087652E+03</rscale>
<asrwt>0</asrwt>
<pdfrwt beam="1">  1        1 0.39151184E+00 0.65087652E+03</pdfrwt>
<pdfrwt beam="2">0</pdfrwt>
<totfact> 0.14591242E+00</totfact>
</mgrwt>
</event>
<event>
 6      1 +5.6466785e-02 6.56949600e+02 7.81860800e-03 9.79382500e-02
        3 -1    0    0  502    0 +0.0000000000e+00 +0.0000000000e+00 +1.0789572669e+02 1.0789572669e+02 0.0000000000e+00 0.0000e+00 1.0000e+00
       13 -1    0    0    0    0 -0.0000000000e+00 -0.0000000000e+00 -1.0000000000e+03 1.0000000000e+03 0.0000000000e+00 0.0000e+00 1.0000e+00
  9000005  2    1    2  501    0 -1.3830560363e-05 -2.5535421983e-05 -8.9210427427e+02 1.1078956976e+03 6.5694964851e+02 0.0000e+00 0.0000e+00
       13  1    3    3    0    0 +3.0854004223e+02 +6.4095835146e+01 -2.8974626242e+02 4.2808659209e+02 0.0000000000e+00 0.0000e+00 1.0000e+00
        3  1    3    3  501    0 -3.0854005606e+02 -6.4095860681e+01 -6.0235801184e+02 6.7980910555e+02 0.0000000000e+00 0.0000e+00 1.0000e+00
       21  1    1    2  502  501 +1.3830560385e-05 +2.5535421983e-05 +9.6008237685e-07 2.9056220239e-05 0.0000000000e+00 0.0000e+00 1.0000e+00
<mgrwt>
<rscale>  1 0.65694965E+03</rscale>
<asrwt>0</asrwt>
<pdfrwt beam="1">  1        3 0.39234892E+00 0.65694965E+03</pdfrwt>
<pdfrwt beam="2">0</pdfrwt>
<totfact> 0.64900604E-02</totfact>
</mgrwt>
</event>
<event>
 6      1 +5.6466785e-02 6.55851800e+02 7.81860800e-03 9.79586000e-02
        1 -1    0    0  502    0 +0.0000000000e+00 +0.0000000000e+00 +1.0784808564e+02 1.0784808564e+02 0.0000000000e+00 0.0000e+00 1.0000e+00
       13 -1    0    0    0    0 -0.0000000000e+00 -0.0000000000e+00 -1.0000000000e+03 1.0000000000e+03 0.0000000000e+00 0.0000e+00 1.0000e+00
  9000005  2    1    2  501    0 -3.7531878074e-02 +5.7630109742e-02 -8.9246041269e+02 1.1075320143e+03 6.5585178948e+02 0.0000e+00 0.0000e+00
       13  1    3    3    0    0 +1.1197183365e+02 -2.4077187010e+02 -7.7105661917e+02 8.1549806556e+02 0.0000000000e+00 0.0000e+00 1.0000e+00
        1  1    3    3  501    0 -1.1200936553e+02 +2.4082950021e+02 -1.2140379351e+02 2.9203394874e+02 0.0000000000e+00 0.0000e+00 1.0000e+00
       21  1    1    2  502  501 +3.7531878074e-02 -5.7630109742e-02 +3.0849832835e-01 3.1607133691e-01 0.0000000000e+00 0.0000e+00 1.0000e+00
<mgrwt>
<rscale>  1 0.65585179E+03</rscale>
<asrwt>0</asrwt>
<pdfrwt beam="1">  1        1 0.39217568E+00 0.65585179E+03</pdfrwt>
<pdfrwt beam="2">0</pdfrwt>
<totfact> 0.14479141E+00</totfact>
</mgrwt>
</event>
<event>
 6      1 +5.6466785e-02 6.64561100e+02 7.81860800e-03 9.77983300e-02
        1 -1    0    0  502    0 +0.0000000000e+00 +0.0000000000e+00 +1.1215928242e+02 1.1215928242e+02 0.0000000000e+00 0.0000e+00 1.0000e+00
       13 -1    0    0    0    0 -0.0000000000e+00 -0.0000000000e+00 -1.0000000000e+03 1.0000000000e+03 0.0000000000e+00 0.0000e+00 1.0000e+00
  9000005  2    1    2  501    0 +2.6025881233e+00 -3.5556997931e+00 -8.8559755063e+02 1.1072147638e+03 6.6454653346e+02 0.0000e+00 0.0000e+00
       13  1    3    3    0    0 +1.0413480909e+02 +2.5112975277e+02 -1.2598871694e+02 2.9963872912e+02 0.0000000000e+00 0.0000e+00 1.0000e+00
        1  1    3    3  501    0 -1.0153222097e+02 -2.5468545257e+02 -7.5960883369e+02 8.0757603473e+02 0.0000000000e+00 0.0000e+00 1.0000e+00
       21  1    1    2  502  501 -2.6025881233e+00 +3.5556997931e+00 -2.2431669509e+00 4.9445185739e+00 0.0000000000e+00 0.0000e+00 1.0000e+00
<mgrwt>
<rscale>  1 0.66456114E+03</rscale>
<asrwt>0</asrwt>
<pdfrwt beam="1">  1        1 0.40785280E+00 0.66456114E+03</pdfrwt>
<pdfrwt beam="2">0</pdfrwt>
<totfact> 0.12306270E+00</totfact>
</mgrwt>
</event>
<event>
 6      1 +5.6466785e-02 6.50222100e+02 7.81860800e-03 9.80636300e-02
        1 -1    0    0  502    0 +0.0000000000e+00 +0.0000000000e+00 +1.0830949431e+02 1.0830949431e+02 0.0000000000e+00 0.0000e+00 1.0000e+00
       13 -1    0    0    0    0 -0.0000000000e+00 -0.0000000000e+00 -1.0000000000e+03 1.0000000000e+03 0.0000000000e+00 0.0000e+00 1.0000e+00
  9000005  2    1    2  501    0 +2.8880858428e+00 -1.5416432748e+00 -8.9311710321e+02 1.1047383762e+03 6.5021381266e+02 0.0000e+00 0.0000e+00
       13  1    3    3    0    0 +2.9312630482e+02 -3.1065946041e+00 -6.9227268682e+02 7.5178065579e+02 0.0000000000e+00 0.0000e+00 1.0000e+00
        3  1    3    3  501    0 -2.9023821897e+02 +1.5649513293e+00 -2.0084441639e+02 3.5295772045e+02 0.0000000000e+00 0.0000e+00 1.0000e+00
       21  1    1    2  502  501 -2.8880858428e+00 +1.5416432748e+00 +1.4265975216e+00 3.5711180757e+00 0.0000000000e+00 0.0000e+00 -1.0000e+00
<mgrwt>
<rscale>  1 0.65022205E+03</rscale>
<asrwt>0</asrwt>
<pdfrwt beam="1">  1        1 0.39385354E+00 0.65022205E+03</pdfrwt>
<pdfrwt beam="2">0</pdfrwt>
<totfact> 0.14247808E+00</totfact>
</mgrwt>
</event>
<event>
 6      1 +5.6466785e-02 6.46637100e+02 7.81860800e-03 9.81311000e-02
        1 -1    0    0  502    0 +0.0000000000e+00 +0.0000000000e+00 +1.0453542493e+02 1.0453542493e+02 0.0000000000e+00 0.0000e+00 1.0000e+00
       13 -1    0    0    0    0 -0.0000000000e+00 -0.0000000000e+00 -1.0000000000e+03 1.0000000000e+03 0.0000000000e+00 0.0000e+00 1.0000e+00
  9000005  2    1    2  501    0 -4.3115447433e-05 +1.8415928082e-05 -8.9546510818e+02 1.1045348898e+03 6.4663711829e+02 0.0000e+00 0.0000e+00
       13  1    3    3    0    0 +6.0524570249e+01 -2.9569570080e+02 -2.4973985226e+02 3.9175140699e+02 0.0000000000e+00 0.0000e+00 1.0000e+00
        3  1    3    3  501    0 -6.0524613364e+01 +2.9569571921e+02 -6.4572525592e+02 7.1278348278e+02 0.0000000000e+00 0.0000e+00 1.0000e+00
       21  1    1    2  502  501 +4.3115447430e-05 -1.8415928107e-05 +5.3310559491e-04 5.3516321206e-04 0.0000000000e+00 0.0000e+00 1.0000e+00
<mgrwt>
<rscale>  1 0.64663712E+03</rscale>
<asrwt>0</asrwt>
<pdfrwt beam="1">  1        1 0.38012962E+00 0.64663712E+03</pdfrwt>
<pdfrwt beam="2">0</pdfrwt>
<totfact> 0.16398260E+00</totfact>
</mgrwt>
</event>
<event>
 6      1 +5.6466785e-02 6.52768100e+02 7.81860800e-03 9.80159900e-02
        1 -1    0    0  502    0 +0.0000000000e+00 +0.0000000000e+00 +1.0807283081e+02 1.0807283081e+02 0.0000000000e+00 0.0000e+00 1.0000e+00
       13 -1    0    0    0    0 -0.0000000000e+00 -0.0000000000e+00 -1.0000000000e+03 1.0000000000e+03 0.0000000000e+00 0.0000e+00 1.0000e+00
  9000005  2    1    2  501    0 -2.3179314769e+00 -3.0251008355e+00 -8.9020918907e+02 1.1038924604e+03 6.5275695302e+02 0.0000e+00 0.0000e+00
       13  1    3    3    0    0 +3.1302572627e+02 -2.2610992582e+01 -2.9856992077e+02 4.3317474521e+02 0.0000000000e+00 0.0000e+00 1.0000e+00
        1  1    3    3  501    0 -3.1534365775e+02 +1.9585891747e+01 -5.9163926829e+02 6.7071771516e+02 0.0000000000e+00 0.0000e+00 1.0000e+00
       21  1    1    2  502  501 +2.3179314769e+00 +3.0251008355e+00 -1.7179801203e+00 4.1803704489e+00 0.0000000000e+00 0.0000e+00 -1.0000e+00
<mgrwt>
<rscale>  1 0.65276808E+03</rscale>
<asrwt>0</asrwt>
<pdfrwt beam="1">  1        1 0.39299294E+00 0.65276808E+03</pdfrwt>
<pdfrwt beam="2">0</pdfrwt>
<totfact> 0.14366914E+00</totfact>
</mgrwt>
</event>
<event>
 6      1 +5.6466785e-02 6.46919100e+02 7.81860800e-03 9.81257700e-02
        1 -1    0    0  502    0 +0.0000000000e+00 +0.0000000000e+00 +1.0468822253e+02 1.0468822253e+02 0.0000000000e+00 0.0000e+00 1.0000e+00
       13 -1    0    0    0    0 -0.0000000000e+00 -0.0000000000e+00 -1.0000000000e+03 1.0000000000e+03 0.0000000000e+00 0.0000e+00 1.0000e+00
  9000005  2    1    2  501    0 +2.1922311927e-03 +5.1490186645e-03 -8.9537377403e+02 1.1046259739e+03 6.4691911935e+02 0.0000e+00 0.0000e+00
       13  1    3    3    0    0 +1.7642970319e+02 +1.2262975998e+02 -3.4831128682e+01 2.1766650116e+02 0.0000000000e+00 0.0000e+00 1.0000e+00
        3  1    3    3  501    0 -1.7642751096e+02 -1.2262461096e+02 -8.6054264534e+02 8.8695947275e+02 0.0000000000e+00 0.0000e+00 1.0000e+00
       21  1    1    2  502  501 -2.1922311927e-03 -5.1490186644e-03 +6.1996554721e-02 6.2248623022e-02 0.0000000000e+00 0.0000e+00 -1.0000e+00
<mgrwt>
<rscale>  1 0.64691912E+03</rscale>
<asrwt>0</asrwt>
<pdfrwt beam="1">  1        1 0.38068525E+00 0.64691912E+03</pdfrwt>
<pdfrwt beam="2">0</pdfrwt>
<totfact> 0.16305090E+00</totfact>
</mgrwt>
</event>
<event>
 6      1 +5.6466785e-02 6.48725400e+02 7.81860800e-03 9.80917400e-02
        3 -1    0    0  502    0 +0.0000000000e+00 +0.0000000000e+00 +1.0521119836e+02 1.0521119836e+02 0.0000000000e+00 0.0000e+00 1.0000e+00
       13 -1    0    0    0    0 -0.0000000000e+00 -0.0000000000e+00 -1.0000000000e+03 1.0000000000e+03 0.0000000000e+00 0.0000e+00 1.0000e+00
  9000005  2    1    2  501    0 +4.3848808389e-06 +6.4785808718e-06 -8.9478882889e+02 1.1052111700e+03 6.4872542884e+02 0.0000e+00 0.0000e+00
       13  1    3    3    0    0 -1.2860802185e+02 +2.6198075547e+02 -6.8855326917e+02 7.4784994752e+02 0.0000000000e+00 0.0000e+00 1.0000e+00
        3  1    3    3  501    0 +1.2860802623e+02 -2.6198074899e+02 -2.0623555972e+02 3.5736122249e+02 0.0000000000e+00 0.0000e+00 1.0000e+00
       21  1    1    2  502  501 -4.3848808335e-06 -6.4785809032e-06 +2.7251609811e-05 2.8352238496e-05 0.0000000000e+00 0.0000e+00 -1.0000e+00
<mgrwt>
<rscale>  1 0.64872543E+03</rscale>
<asrwt>0</asrwt>
<pdfrwt beam="1">  1        3 0.38258698E+00 0.64872543E+03</pdfrwt>
<pdfrwt beam="2">0</pdfrwt>
<totfact> 0.73157738E-02</totfact>
</mgrwt>
</event>
<event>
 6      1 +5.6466785e-02 6.53066700e+02 7.81860800e-03 9.80104200e-02
        1 -1    0    0  502    0 +0.0000000000e+00 +0.0000000000e+00 +1.0680906291e+02 1.0680906291e+02 0.0000000000e+00 0.0000e+00 1.0000e+00
       13 -1    0    0    0    0 -0.0000000000e+00 -0.0000000000e+00 -1.0000000000e+03 1.0000000000e+03 0.0000000000e+00 0.0000e+00 1.0000e+00
  9000005  2    1    2  501    0 +3.5037737165e-03 -2.1341949656e-02 -8.9337527580e+02 1.1066234598e+03 6.5306668717e+02 0.0000e+00 0.0000e+00
       13  1    3    3    0    0 -3.9314082911e+01 +2.7747541173e+02 -7.3062310855e+02 7.8252688642e+02 0.0000000000e+00 0.0000e+00 1.0000e+00
        3  1    3    3  501    0 +3.9317586684e+01 -2.7749675368e+02 -1.6275216725e+02 3.2409657338e+02 0.0000000000e+00 0.0000e+00 1.0000e+00
       21  1    1    2  502  501 -3.5037737165e-03 +2.1341949656e-02 +1.8433871464e-01 1.8560311679e-01 0.0000000000e+00 0.0000e+00 1.0000e+00
<mgrwt>
<rscale>  1 0.65306669E+03</rscale>
<asrwt>0</asrwt>
<pdfrwt beam="1">  1        1 0.38839741E+00 0.65306669E+03</pdfrwt>
<pdfrwt beam="2">0</pdfrwt>
<totfact> 0.15056546E+00</totfact>
</mgrwt>
</event>
<event>
 6      1 +5.6466785e-02 6.43300500e+02 7.81860800e-03 9.81943200e-02
        1 -1    0    0  502    0 +0.0000000000e+00 +0.0000000000e+00 +1.1910777844e+02 1.1910777844e+02 0.0000000000e+00 0.0000e+00 1.0000e+00
       13 -1    0    0    0    0 -0.0000000000e+00 -0.0000000000e+00 -1.0000000000e+03 1.0000000000e+03 0.0000000000e+00 0.0000e+00 1.0000e+00
  9000005  2    1    2  501    0 +2.2196459136e+01 -1.8357299659e+01 -8.8029147966e+02 1.0902974654e+03 6.4265527351e+02 0.0000e+00 0.0000e+00
       13  1    3    3    0    0 -1.1377502519e+02 -9.0185151592e+01 +4.5247435511e+01 1.5207053740e+02 0.0000000000e+00 0.0000e+00 1.0000e+00
        3  1    3    3  501    0 +1.3597148433e+02 +7.1827851932e+01 -9.2553891517e+02 9.3822692796e+02 0.0000000000e+00 0.0000e+00 1.0000e+00
       21  1    1    2  502  501 -2.2196459136e+01 +1.8357299659e+01 -6.0074189902e-01 2.8810313080e+01 0.0000000000e+00 0.0000e+00 1.0000e+00
<mgrwt>
<rscale>  1 0.64330045E+03</rscale>
<asrwt>0</asrwt>
<pdfrwt beam="1">  1        1 0.43312011E+00 0.64330045E+03</pdfrwt>
<pdfrwt beam="2">0</pdfrwt>
<totfact> 0.95043868E-01</totfact>
</mgrwt>
</event>
<event>
 6      1 +5.6466785e-02 6.39480900e+02 7.81860800e-03 9.82672000e-02
        1 -1    0    0  502    0 +0.0000000000e+00 +0.0000000000e+00 +1.0223400720e+02 1.0223400720e+02 0.0000000000e+00 0.0000e+00 1.0000e+00
       13 -1    0    0    0    0 -0.0000000000e+00 -0.0000000000e+00 -1.0000000000e+03 1.0000000000e+03 0.0000000000e+00 0.0000e+00 1.0000e+00
  9000005  2    1    2  501    0 -1.0133904084e-05 -1.0733326050e-05 -8.9776603052e+02 1.1022339667e+03 6.3948093934e+02 0.0000e+00 0.0000e+00
       13  1    3    3    0    0 -2.6837401640e+02 -8.4741832674e+01 -1.8732020971e+02 3.3807492047e+02 0.0000000000e+00 0.0000e+00 1.0000e+00
        3  1    3    3  501    0 +2.6837400627e+02 +8.4741821941e+01 -7.1044582081e+02 7.6415904623e+02 0.0000000000e+00 0.0000e+00 1.0000e+00
       21  1    1    2  502  501 +1.0133904108e-05 +1.0733326042e-05 +3.7717843951e-05 4.0503531360e-05 0.0000000000e+00 0.0000e+00 1.0000e+00
<mgrwt>
<rscale>  1 0.63948094E+03</rscale>
<asrwt>0</asrwt>
<pdfrwt beam="1">  1        1 0.37176081E+00 0.63948094E+03</pdfrwt>
<pdfrwt beam="2">0</pdfrwt>
<totfact> 0.17873985E+00</totfact>
</mgrwt>
</event>
<event>
 6      1 +5.6466785e-02 6.58170600e+02 7.81860800e-03 9.79156700e-02
        1 -1    0    0  502    0 +0.0000000000e+00 +0.0000000000e+00 +1.0835192173e+02 1.0835192173e+02 0.0000000000e+00 0.0000e+00 1.0000e+00
       13 -1    0    0    0    0 -0.0000000000e+00 -0.0000000000e+00 -1.0000000000e+03 1.0000000000e+03 0.0000000000e+00 0.0000e+00 1.0000e+00
  9000005  2    1    2  501    0 +4.5495062312e-03 +3.9011815240e-03 -8.9170269496e+02 1.1082969772e+03 6.5817056562e+02 0.0000e+00 0.0000e+00
       13  1    3    3    0    0 +1.9579586961e+02 +4.0239960392e+01 -5.6389715601e+00 1.9996768481e+02 0.0000000000e+00 0.0000e+00 1.0000e+00
        3  1    3    3  501    0 -1.9579132010e+02 -4.0236059210e+01 -8.8606372340e+02 9.0832929240e+02 0.0000000000e+00 0.0000e+00 1.0000e+00
       21  1    1    2  502  501 -4.5495062312e-03 -3.9011815240e-03 +5.4616690116e-02 5.4944518047e-02 0.0000000000e+00 0.0000e+00 1.0000e+00
<mgrwt>
<rscale>  1 0.65817057E+03</rscale>
<asrwt>0</asrwt>
<pdfrwt beam="1">  1        1 0.39400782E+00 0.65817057E+03</pdfrwt>
<pdfrwt beam="2">0</pdfrwt>
<totfact> 0.14204205E+00</totfact>
</mgrwt>
</event>
<event>
 6      1 +5.6466785e-02 6.52853500e+02 7.81860800e-03 9.80144000e-02
        1 -1    0    0  502    0 +0.0000000000e+00 +0.0000000000e+00 +1.0657680254e+02 1.0657680254e+02 0.0000000000e+00 0.0000e+00 1.0000e+00
       13 -1    0    0    0    0 -0.0000000000e+00 -0.0000000000e+00 -1.0000000000e+03 1.0000000000e+03 0.0000000000e+00 0.0000e+00 1.0000e+00
  9000005  2    1    2  501    0 -2.9940176973e-03 -4.7341862330e-03 -8.9344520260e+02 1.1065540957e+03 6.5285345716e+02 0.0000e+00 0.0000e+00
       13  1    3    3    0    0 -1.0254811818e+02 +7.8393733117e+01 -9.5490418366e+02 9.6358896523e+02 0.0000000000e+00 0.0000e+00 1.0000e+00
        3  1    3    3  501    0 +1.0254512416e+02 -7.8398467303e+01 +6.1458981062e+01 1.4296513043e+02 0.0000000000e+00 0.0000e+00 1.0000e+00
       21  1    1    2  502  501 +2.9940176973e-03 +4.7341862330e-03 +2.2005141382e-02 2.2706891211e-02 0.0000000000e+00 0.0000e+00 -1.0000e+00
<mgrwt>
<rscale>  1 0.65285346E+03</rscale>
<asrwt>0</asrwt>
<pdfrwt beam="1">  1        1 0.38755283E+00 0.65285346E+03</pdfrwt>
<pdfrwt beam="2">0</pdfrwt>
<totfact> 0.15187421E+00</totfact>
</mgrwt>
</event>
<event>
 6      1 +5.6466785e-02 6.29434500e+02 7.81860800e-03 9.84615300e-02
        1 -1    0    0  502    0 +0.0000000000e+00 +0.0000000000e+00 +1.0055491556e+02 1.0055491556e+02 0.0000000000e+00 0.0000e+00 1.0000e+00
       13 -1    0    0    0    0 -0.0000000000e+00 -0.0000000000e+00 -1.0000000000e+03 1.0000000000e+03 0.0000000000e+00 0.0000e+00 1.0000e+00
  9000005  2    1    2  501    0 -7.5255685239e-01 -1.7544805647e-01 -9.0084352126e+02 1.0989571830e+03 6.2943406574e+02 0.0000e+00 0.0000e+00
       13  1    3    3    0    0 -7.5099056880e+01 -6.1345605813e+01 +7.2366787902e+01 1.2099629618e+02 0.0000000000e+00 0.0000e+00 1.0000e+00
        1  1    3    3  501    0 +7.4346500028e+01 +6.1170157756e+01 -9.7321030916e+02 9.7796088681e+02 0.0000000000e+00 0.0000e+00 1.0000e+00
       21  1    1    2  502  501 +7.5255685239e-01 +1.7544805647e-01 +1.3984368181e+00 1.5977325718e+00 0.0000000000e+00 0.0000e+00 1.0000e+00
<mgrwt>
<rscale>  1 0.62943454E+03</rscale>
<asrwt>0</asrwt>
<pdfrwt beam="1">  1        1 0.36565501E+00 0.62943454E+03</pdfrwt>
<pdfrwt beam="2">0</pdfrwt>
<totfact> 0.19046535E+00</totfact>
</mgrwt>
</event>
<event>
 6      1 +5.6466785e-02 6.37827200e+02 7.81860800e-03 9.82989300e-02
        1 -1    0    0  502    0 +0.0000000000e+00 +0.0000000000e+00 +1.1275928853e+02 1.1275928853e+02 0.0000000000e+00 0.0000e+00 1.0000e+00
       13 -1    0    0    0    0 -0.0000000000e+00 -0.0000000000e+00 -1.0000000000e+03 1.0000000000e+03 0.0000000000e+00 0.0000e+00 1.0000e+00
  9000005  2    1    2  501    0 +2.4479272430e-01 -7.8097901846e-01 -8.9827742716e+02 1.1016922679e+03 6.3782665923e+02 0.0000e+00 0.0000e+00
       13  1    3    3    0    0 -1.0802922966e+02 +2.0774806710e+02 -7.5508163387e+01 2.4603060091e+02 0.0000000000e+00 0.0000e+00 1.0000e+00
        3  1    3    3  501    0 +1.0827402238e+02 -2.0852904612e+02 -8.2276926377e+02 8.5566166702e+02 0.0000000000e+00 0.0000e+00 1.0000e+00
       21  1    1    2  502  501 -2.4479272430e-01 +7.8097901846e-01 +1.1036715687e+01 1.1067020596e+01 0.0000000000e+00 0.0000e+00 1.0000e+00
<mgrwt>
<rscale>  1 0.63782718E+03</rscale>
<asrwt>0</asrwt>
<pdfrwt beam="1">  1        1 0.41003464E+00 0.63782718E+03</pdfrwt>
<pdfrwt beam="2">0</pdfrwt>
<totfact> 0.12094737E+00</totfact>
</mgrwt>
</event>
<event>
 6      1 +5.6466785e-02 6.69570700e+02 7.81860800e-03 9.77073400e-02
        1 -1    0    0  502    0 +0.0000000000e+00 +0.0000000000e+00 +1.1208300433e+02 1.1208300433e+02 0.0000000000e+00 0.0000e+00 1.0000e+00
       13 -1    0    0    0    0 -0.0000000000e+00 -0.0000000000e+00 -1.0000000000e+03 1.0000000000e+03 0.0000000000e+00 0.0000e+00 1.0000e+00
  9000005  2    1    2  501    0 -1.0340644565e-05 +1.1522167847e-04 -8.8791876512e+02 1.1120812311e+03 6.6957070658e+02 0.0000e+00 0.0000e+00
       13  1    3    3    0    0 -1.6974450688e+02 +2.7992540016e+02 -3.2758069290e+02 4.6312043534e+02 0.0000000000e+00 0.0000e+00 1.0000e+00
        1  1    3    3  501    0 +1.6974449654e+02 -2.7992528494e+02 -5.6033807222e+02 6.4896079576e+02 0.0000000000e+00 0.0000e+00 1.0000e+00
       21  1    1    2  502  501 +1.0340644564e-05 -1.1522167845e-04 +1.7694562476e-03 1.7732338752e-03 0.0000000000e+00 0.0000e+00 -1.0000e+00
<mgrwt>
<rscale>  1 0.66957071E+03</rscale>
<asrwt>0</asrwt>
<pdfrwt beam="1">  1        1 0.40757542E+00 0.66957071E+03</pdfrwt>
<pdfrwt beam="2">0</pdfrwt>
<totfact> 0.12329857E+00</totfact>
</mgrwt>
</event>
<event>
 6      1 +5.6466785e-02 6.51263600e+02 7.81860800e-03 9.80441100e-02
        1 -1    0    0  502    0 +0.0000000000e+00 +0.0000000000e+00 +1.0603610713e+02 1.0603610713e+02 0.0000000000e+00 0.0000e+00 1.0000e+00
       13 -1    0    0    0    0 -0.0000000000e+00 -0.0000000000e+00 -1.0000000000e+03 1.0000000000e+03 0.0000000000e+00 0.0000e+00 1.0000e+00
  9000005  2    1    2  501    0 -7.0019332554e-07 -4.8347220627e-06 -8.9396392798e+02 1.1060360717e+03 6.5126360817e+02 0.0000e+00 0.0000e+00
       13  1    3    3    0    0 +7.8791251629e+01 +1.5090516093e+02 -9.1840923346e+02 9.3405350437e+02 0.0000000000e+00 0.0000e+00 1.0000e+00
        3  1    3    3  501    0 -7.8791252329e+01 -1.5090516577e+02 +2.4445305475e+01 1.7198256731e+02 0.0000000000e+00 0.0000e+00 1.0000e+00
       21  1    1    2  502  501 +7.0019333251e-07 +4.8347220545e-06 +3.5109827842e-05 3.5448058045e-05 0.0000000000e+00 0.0000e+00 -1.0000e+00
<mgrwt>
<rscale>  1 0.65126361E+03</rscale>
<asrwt>0</asrwt>
<pdfrwt beam="1">  1        1 0.38558666E+00 0.65126361E+03</pdfrwt>
<pdfrwt beam="2">0</pdfrwt>
<totfact> 0.15499425E+00</totfact>
</mgrwt>
</event>
<event>
 6      1 +5.6466785e-02 6.47085800e+02 7.81860800e-03 9.81226300e-02
        1 -1    0    0  502    0 +0.0000000000e+00 +0.0000000000e+00 +1.0483198290e+02 1.0483198290e+02 0.0000000000e+00 0.0000e+00 1.0000e+00
       13 -1    0    0    0    0 -0.0000000000e+00 -0.0000000000e+00 -1.0000000000e+03 1.0000000000e+03 0.0000000000e+00 0.0000e+00 1.0000e+00
  9000005  2    1    2  501    0 -7.8612948890e-02 -2.7390539756e-01 -8.9515553181e+02 1.1045467461e+03 6.4708578019e+02 0.0000e+00 0.0000e+00
       13  1    3    3    0    0 -7.0998625097e+01 +3.0820906705e+02 -5.6277109085e+02 6.4555784750e+02 0.0000000000e+00 0.0000e+00 1.0000e+00
        1  1    3    3  501    0 +7.0920012148e+01 -3.0848297245e+02 -3.3238444097e+02 4.5898889857e+02 0.0000000000e+00 0.0000e+00 1.0000e+00
       21  1    1    2  502  501 +7.8612948890e-02 +2.7390539756e-01 -1.2485289529e-02 2.8523682266e-01 0.0000000000e+00 0.0000e+00 -1.0000e+00
<mgrwt>
<rscale>  1 0.64708584E+03</rscale>
<asrwt>0</asrwt>
<pdfrwt beam="1">  1        1 0.38120801E+00 0.64708584E+03</pdfrwt>
<pdfrwt beam="2">0</pdfrwt>
<totfact> 0.16218185E+00</totfact>
</mgrwt>
</event>
<event>
 6      1 +5.6466785e-02 6.46452700e+02 7.81860800e-03 9.81345800e-02
        1 -1    0    0  502    0 +0.0000000000e+00 +0.0000000000e+00 +1.0527150642e+02 1.0527150642e+02 0.0000000000e+00 0.0000e+00 1.0000e+00
       13 -1    0    0    0    0 -0.0000000000e+00 -0.0000000000e+00 -1.0000000000e+03 1.0000000000e+03 0.0000000000e+00 0.0000e+00 1.0000e+00
  9000005  2    1    2  501    0 -4.6652932653e-02 +4.0284248250e-02 -8.9552342176e+02 1.1044741921e+03 6.4645265744e+02 0.0000e+00 0.0000e+00
       13  1    3    3    0    0 -1.7261418606e+02 +1.9477294624e+02 -7.7536319221e+02 8.1787544141e+02 0.0000000000e+00 0.0000e+00 1.0000e+00
        3  1    3    3  501    0 +1.7256753313e+02 -1.9473266199e+02 -1.2016022954e+02 2.8659875070e+02 0.0000000000e+00 0.0000e+00 1.0000e+00
       21  1    1    2  502  501 +4.6652932653e-02 -4.0284248250e-02 +7.9492817256e-01 7.9731431463e-01 0.0000000000e+00 0.0000e+00 -1.0000e+00
<mgrwt>
<rscale>  1 0.64645266E+03</rscale>
<asrwt>0</asrwt>
<pdfrwt beam="1">  1        1 0.38280629E+00 0.64645266E+03</pdfrwt>
<pdfrwt beam="2">0</pdfrwt>
<totfact> 0.15958585E+00</totfact>
</mgrwt>
</event>
<event>
 6      1 +5.6466785e-02 6.37358600e+02 7.81860800e-03 9.83079300e-02
        1 -1    0    0  502    0 +0.0000000000e+00 +0.0000000000e+00 +1.0163861785e+02 1.0163861785e+02 0.0000000000e+00 0.0000e+00 1.0000e+00
       13 -1    0    0    0    0 -0.0000000000e+00 -0.0000000000e+00 -1.0000000000e+03 1.0000000000e+03 0.0000000000e+00 0.0000e+00 1.0000e+00
  9000005  2    1    2  501    0 +1.2642734680e-03 -2.4897360611e-03 -8.9844348620e+02 1.1015564663e+03 6.3735857302e+02 0.0000e+00 0.0000e+00
       13  1    3    3    0    0 +1.6621205158e+02 +2.7181742722e+02 -4.6079670758e+02 5.6021849804e+02 0.0000000000e+00 0.0000e+00 1.0000e+00
        3  1    3    3  501    0 -1.6621078731e+02 -2.7181991696e+02 -4.3764677863e+02 5.4133796829e+02 0.0000000000e+00 0.0000e+00 1.0000e+00
       21  1    1    2  502  501 -1.2642734680e-03 +2.4897360611e-03 +8.2104050107e-02 8.2151519871e-02 0.0000000000e+00 0.0000e+00 1.0000e+00
<mgrwt>
<rscale>  1 0.63735857E+03</rscale>
<asrwt>0</asrwt>
<pdfrwt beam="1">  1        1 0.36959575E+00 0.63735857E+03</pdfrwt>
<pdfrwt beam="2">0</pdfrwt>
<totfact> 0.18276828E+00</totfact>
</mgrwt>
</event>
<event>
 6      1 +5.6466785e-02 5.90907200e+02 7.81860800e-03 9.92445200e-02
        1 -1    0    0  502    0 +0.0000000000e+00 +0.0000000000e+00 +8.7292983186e+01 8.7292983186e+01 0.0000000000e+00 0.0000e+00 1.0000e+00
       13 -1    0    0    0    0 -0.0000000000e+00 -0.0000000000e+00 -1.0000000000e+03 1.0000000000e+03 0.0000000000e+00 0.0000e+00 1.0000e+00
  9000005  2    1    2  501    0 -2.4088568029e-04 -1.4154291102e-04 -9.1270702679e+02 1.0872927036e+03 5.9090718948e+02 0.0000e+00 0.0000e+00
       13  1    3    3    0    0 +5.3279940108e+01 -2.7002370173e+02 -6.5402986649e+02 7.0958200215e+02 0.0000000000e+00 0.0000e+00 1.0000e+00
        1  1    3    3  501    0 -5.3280180994e+01 +2.7002356019e+02 -2.5867716030e+02 3.7771070147e+02 0.0000000000e+00 0.0000e+00 1.0000e+00
       21  1    1    2  502  501 +2.4088568030e-04 +1.4154291098e-04 +9.9765054911e-06 2.7957080907e-04 0.0000000000e+00 0.0000e+00 -1.0000e+00
<mgrwt>
<rscale>  1 0.59090719E+03</rscale>
<asrwt>0</asrwt>
<pdfrwt beam="1">  1        1 0.31742970E+00 0.59090719E+03</pdfrwt>
<pdfrwt beam="2">0</pdfrwt>
<totfact> 0.31078594E+00</totfact>
</mgrwt>
</event>
<event>
 6      1 +5.6466785e-02 5.83429000e+02 7.81860800e-03 9.94039500e-02
        1 -1    0    0  502    0 +0.0000000000e+00 +0.0000000000e+00 +8.5100183100e+01 8.5100183100e+01 0.0000000000e+00 0.0000e+00 1.0000e+00
       13 -1    0    0    0    0 -0.0000000000e+00 -0.0000000000e+00 -1.0000000000e+03 1.0000000000e+03 0.0000000000e+00 0.0000e+00 1.0000e+00
  9000005  2    1    2  501    0 +3.9125840078e-04 -3.5996181163e-04 -9.1490262556e+02 1.0850973246e+03 5.8342899270e+02 0.0000e+00 0.0000e+00
       13  1    3    3    0    0 -2.1786664088e+02 +6.7156473530e+01 -7.9593245117e+02 8.2793981180e+02 0.0000000000e+00 0.0000e+00 1.0000e+00
        3  1    3    3  501    0 +2.1786703213e+02 -6.7156833492e+01 -1.1897017439e+02 2.5715751276e+02 0.0000000000e+00 0.0000e+00 1.0000e+00
       21  1    1    2  502  501 -3.9125840077e-04 +3.5996181164e-04 +2.8086603304e-03 2.8585360753e-03 0.0000000000e+00 0.0000e+00 1.0000e+00
<mgrwt>
<rscale>  1 0.58342899E+03</rscale>
<asrwt>0</asrwt>
<pdfrwt beam="1">  1        1 0.30945586E+00 0.58342899E+03</pdfrwt>
<pdfrwt beam="2">0</pdfrwt>
<totfact> 0.33688391E+00</totfact>
</mgrwt>
</event>
<event>
 6      1 +5.6466785e-02 6.96768100e+02 7.81860800e-03 9.72277500e-02
        1 -1    0    0  502    0 +0.0000000000e+00 +0.0000000000e+00 +1.2137162727e+02 1.2137162727e+02 0.0000000000e+00 0.0000e+00 1.0000e+00
       13 -1    0    0    0    0 -0.0000000000e+00 -0.0000000000e+00 -1.0000000000e+03 1.0000000000e+03 0.0000000000e+00 0.0000e+00 1.0000e+00
  9000005  2    1    2  501    0 +7.9558066091e-07 -1.5424751777e-04 -8.7862853435e+02 1.1213714039e+03 6.9676805611e+02 0.0000e+00 0.0000e+00
       13  1    3    3    0    0 -3.4085598618e+02 +3.0590844104e+01 -5.4426847608e+02 6.4292050606e+02 0.0000000000e+00 0.0000e+00 1.0000e+00
        3  1    3    3  501    0 +3.4085598698e+02 -3.0590998351e+01 -3.3436005827e+02 4.7845089780e+02 0.0000000000e+00 0.0000e+00 1.0000e+00
       21  1    1    2  502  501 -7.9558063073e-07 +1.5424751777e-04 +1.6162271832e-04 2.2341627685e-04 0.0000000000e+00 0.0000e+00 -1.0000e+00
<mgrwt>
<rscale>  1 0.69676806E+03</rscale>
<asrwt>0</asrwt>
<pdfrwt beam="1">  1        1 0.44135230E+00 0.69676806E+03</pdfrwt>
<pdfrwt beam="2">0</pdfrwt>
<totfact> 0.86243420E-01</totfact>
</mgrwt>
</event>
<event>
 6      1 +5.6466785e-02 6.49404600e+02 7.81860800e-03 9.80789700e-02
        1 -1    0    0  502    0 +0.0000000000e+00 +0.0000000000e+00 +1.0552210727e+02 1.0552210727e+02 0.0000000000e+00 0.0000e+00 1.0000e+00
       13 -1    0    0    0    0 -0.0000000000e+00 -0.0000000000e+00 -1.0000000000e+03 1.0000000000e+03 0.0000000000e+00 0.0000e+00 1.0000e+00
  9000005  2    1    2  501    0 +2.7869171668e-03 +2.4589419999e-04 -8.9456840416e+02 1.1054315526e+03 6.4940456402e+02 0.0000e+00 0.0000e+00
       13  1    3    3    0    0 +2.4257791720e+02 -7.5519983357e+01 -7.9147545773e+02 8.3125249713e+02 0.0000000000e+00 0.0000e+00 1.0000e+00
        3  1    3    3  501    0 -2.4257513028e+02 +7.5520229251e+01 -1.0309294644e+02 2.7417905548e+02 0.0000000000e+00 0.0000e+00 1.0000e+00
       21  1    1    2  502  501 -2.7869171668e-03 -2.4589419999e-04 +9.0511431427e-02 9.0554660787e-02 0.0000000000e+00 0.0000e+00 -1.0000e+00
<mgrwt>
<rscale>  1 0.64940456E+03</rscale>
<asrwt>0</asrwt>
<pdfrwt beam="1">  1        1 0.38371756E+00 0.64940456E+03</pdfrwt>
<pdfrwt beam="2">0</pdfrwt>
<totfact> 0.15802675E+00</totfact>
</mgrwt>
</event>
<event>
 6      1 +5.6466785e-02 6.43077900e+02 7.81860800e-03 9.81985500e-02
        1 -1    0    0  502    0 +0.0000000000e+00 +0.0000000000e+00 +1.1147631727e+02 1.1147631727e+02 0.0000000000e+00 0.0000e+00 1.0000e+00
       13 -1    0    0    0    0 -0.0000000000e+00 -0.0000000000e+00 -1.0000000000e+03 1.0000000000e+03 0.0000000000e+00 0.0000e+00 1.0000e+00
  9000005  2    1    2  501    0 +7.4318359847e-02 -8.3304142531e-02 -8.9661226325e+02 1.1033869664e+03 6.4307793815e+02 0.0000e+00 0.0000e+00
       13  1    3    3    0    0 -1.2007715372e+02 -8.7568105475e+01 +4.0920318868e+01 1.5414658101e+02 0.0000000000e+00 0.0000e+00 1.0000e+00
        1  1    3    3  501    0 +1.2015147208e+02 +8.7484801333e+01 -9.3753258212e+02 9.4924038538e+02 0.0000000000e+00 0.0000e+00 1.0000e+00
       21  1    1    2  502  501 -7.4318359847e-02 +8.3304142531e-02 +8.0885805208e+00 8.0893508788e+00 0.0000000000e+00 0.0000e+00 -1.0000e+00
<mgrwt>
<rscale>  1 0.64307795E+03</rscale>
<asrwt>0</asrwt>
<pdfrwt beam="1">  1        1 0.40536928E+00 0.64307795E+03</pdfrwt>
<pdfrwt beam="2">0</pdfrwt>
<totfact> 0.12677332E+00</totfact>
</mgrwt>
</event>
<event>
 6      1 +5.6466785e-02 6.37919900e+02 7.81860800e-03 9.82971400e-02
        1 -1    0    0  502    0 +0.0000000000e+00 +0.0000000000e+00 +1.0173549156e+02 1.0173549156e+02 0.0000000000e+00 0.0000e+00 1.0000e+00
       13 -1    0    0    0    0 -0.0000000000e+00 -0.0000000000e+00 -1.0000000000e+03 1.0000000000e+03 0.0000000000e+00 0.0000e+00 1.0000e+00
  9000005  2    1    2  501    0 +3.1383181465e-05 +6.6895870532e-07 -8.9826455186e+02 1.1017354380e+03 6.3791987754e+02 0.0000e+00 0.0000e+00
       13  1    3    3    0    0 -1.0255141761e+02 +3.0199777958e+02 -4.4222669032e+02 5.4523746914e+02 0.0000000000e+00 0.0000e+00 1.0000e+00
        3  1    3    3  501    0 +1.0255144900e+02 -3.0199777891e+02 -4.5603786155e+02 5.5649796884e+02 0.0000000000e+00 0.0000e+00 1.0000e+00
       21  1    1    2  502  501 -3.1383181464e-05 -6.6895866614e-07 +4.3422561465e-05 5.3580504185e-05 0.0000000000e+00 0.0000e+00 -1.0000e+00
<mgrwt>
<rscale>  1 0.63791988E+03</rscale>
<asrwt>0</asrwt>
<pdfrwt beam="1">  1        1 0.36994802E+00 0.63791988E+03</pdfrwt>
<pdfrwt beam="2">0</pdfrwt>
<totfact> 0.18209981E+00</totfact>
</mgrwt>
</event>
<event>
 6      1 +5.6466785e-02 6.63499800e+02 7.81860800e-03 9.78177200e-02
        1 -1    0    0  502    0 +0.0000000000e+00 +0.0000000000e+00 +1.1006185964e+02 1.1006185964e+02 0.0000000000e+00 0.0000e+00 1.0000e+00
       13 -1    0    0    0    0 -0.0000000000e+00 -0.0000000000e+00 -1.0000000000e+03 1.0000000000e+03 0.0000000000e+00 0.0000e+00 1.0000e+00
  9000005  2    1    2  501    0 -7.5043479152e-04 -2.0578719961e-03 -8.8994166441e+02 1.1100577103e+03 6.6349977707e+02 0.0000e+00 0.0000e+00
       13  1    3    3    0    0 -4.6117724185e+01 -1.0247371374e+02 -9.6718988915e+02 9.7369604506e+02 0.0000000000e+00 0.0000e+00 1.0000e+00
        3  1    3    3  501    0 +4.6116973750e+01 +1.0247165586e+02 +7.7248224745e+01 1.3636166525e+02 0.0000000000e+00 0.0000e+00 1.0000e+00
       21  1    1    2  502  501 +7.5043479153e-04 +2.0578719962e-03 +3.5240456688e-03 4.1493237286e-03 0.0000000000e+00 0.0000e+00 1.0000e+00
<mgrwt>
<rscale>  1 0.66349978E+03</rscale>
<asrwt>0</asrwt>
<pdfrwt beam="1">  1        1 0.40022579E+00 0.66349978E+03</pdfrwt>
<pdfrwt beam="2">0</pdfrwt>
<totfact> 0.13313804E+00</totfact>
</mgrwt>
</event>
<event>
 6      1 +5.6466785e-02 6.66111800e+02 7.81860800e-03 9.77700800e-02
        1 -1    0    0  502    0 +0.0000000000e+00 +0.0000000000e+00 +1.1092661587e+02 1.1092661587e+02 0.0000000000e+00 0.0000e+00 1.0000e+00
       13 -1    0    0    0    0 -0.0000000000e+00 -0.0000000000e+00 -1.0000000000e+03 1.0000000000e+03 0.0000000000e+00 0.0000e+00 1.0000e+00
  9000005  2    1    2  501    0 -2.1167082792e-05 -1.4419268837e-06 -8.8907377546e+02 1.1109262240e+03 6.6611177508e+02 0.0000e+00 0.0000e+00
       13  1    3    3    0    0 -7.7452125485e+01 -2.7186140375e+02 -7.3826831238e+02 7.9053624563e+02 0.0000000000e+00 0.0000e+00 1.0000e+00
        1  1    3    3  501    0 +7.7452104317e+01 +2.7186140230e+02 -1.5080546307e+02 3.2038997834e+02 0.0000000000e+00 0.0000e+00 1.0000e+00
       21  1    1    2  502  501 +2.1167082794e-05 +1.4419268654e-06 +3.9132952641e-04 3.9190422655e-04 0.0000000000e+00 0.0000e+00 1.0000e+00
<mgrwt>
<rscale>  1 0.66611178E+03</rscale>
<asrwt>0</asrwt>
<pdfrwt beam="1">  1        1 0.40337036E+00 0.66611178E+03</pdfrwt>
<pdfrwt beam="2">0</pdfrwt>
<totfact> 0.12884047E+00</totfact>
</mgrwt>
</event>
<event>
 6      1 +5.6466785e-02 6.31632000e+02 7.81860800e-03 9.84186900e-02
        1 -1    0    0  502    0 +0.0000000000e+00 +0.0000000000e+00 +9.9741453137e+01 9.9741453137e+01 0.0000000000e+00 0.0000e+00 1.0000e+00
       13 -1    0    0    0    0 -0.0000000000e+00 -0.0000000000e+00 -1.0000000000e+03 1.0000000000e+03 0.0000000000e+00 0.0000e+00 1.0000e+00
  9000005  2    1    2  501    0 +6.0057790844e-04 -6.5004028997e-04 -9.0026011065e+02 1.0997396563e+03 6.3163204857e+02 0.0000e+00 0.0000e+00
       13  1    3    3    0    0 +1.9706360594e+02 +1.3200534015e+02 -8.7075406808e+01 2.5266895552e+02 0.0000000000e+00 0.0000e+00 1.0000e+00
        1  1    3    3  501    0 -1.9706300537e+02 -1.3200599019e+02 -8.1318470384e+02 8.4707070076e+02 0.0000000000e+00 0.0000e+00 1.0000e+00
       21  1    1    2  502  501 -6.0057790843e-04 +6.5004028996e-04 +1.5637855734e-03 1.7968504451e-03 0.0000000000e+00 0.0000e+00 1.0000e+00
<mgrwt>
<rscale>  1 0.63163205E+03</rscale>
<asrwt>0</asrwt>
<pdfrwt beam="1">  1        1 0.36269696E+00 0.63163205E+03</pdfrwt>
<pdfrwt beam="2">0</pdfrwt>
<totfact> 0.19615537E+00</totfact>
</mgrwt>
</event>
<event>
 6      1 +5.6466785e-02 6.51803900e+02 7.81860800e-03 9.80340000e-02
        1 -1    0    0  502    0 +0.0000000000e+00 +0.0000000000e+00 +1.0621208495e+02 1.0621208495e+02 0.0000000000e+00 0.0000e+00 1.0000e+00
       13 -1    0    0    0    0 -0.0000000000e+00 -0.0000000000e+00 -1.0000000000e+03 1.0000000000e+03 0.0000000000e+00 0.0000e+00 1.0000e+00
  9000005  2    1    2  501    0 +4.7707582880e-06 -2.1868117983e-06 -8.9378792612e+02 1.1062120727e+03 6.5180387611e+02 0.0000e+00 0.0000e+00
       13  1    3    3    0    0 -1.9431688909e+01 +1.7210055275e+02 -9.1543128834e+02 9.3167088312e+02 0.0000000000e+00 0.0000e+00 1.0000e+00
        1  1    3    3  501    0 +1.9431693679e+01 -1.7210055494e+02 +2.1643362218e+01 1.7454118958e+02 0.0000000000e+00 0.0000e+00 1.0000e+00
       21  1    1    2  502  501 -4.7707582873e-06 +2.1868117912e-06 +1.1071270368e-05 1.2252155239e-05 0.0000000000e+00 0.0000e+00 1.0000e+00
<mgrwt>
<rscale>  1 0.65180388E+03</rscale>
<asrwt>0</asrwt>
<pdfrwt beam="1">  1        1 0.38622658E+00 0.65180388E+03</pdfrwt>
<pdfrwt beam="2">0</pdfrwt>
<totfact> 0.15397151E+00</totfact>
</mgrwt>
</event>
<event>
 6      1 +5.6466785e-02 6.54363300e+02 7.81860800e-03 9.79862600e-02
        1 -1    0    0  502    0 +0.0000000000e+00 +0.0000000000e+00 +1.0705147818e+02 1.0705147818e+02 0.0000000000e+00 0.0000e+00 1.0000e+00
       13 -1    0    0    0    0 -0.0000000000e+00 -0.0000000000e+00 -1.0000000000e+03 1.0000000000e+03 0.0000000000e+00 0.0000e+00 1.0000e+00
  9000005  2    1    2  501    0 -7.2386009127e-03 -3.7375807995e-03 -8.9294615637e+02 1.1070429951e+03 6.5436332020e+02 0.0000e+00 0.0000e+00
       13  1    3    3    0    0 -3.8574525741e+01 -2.3991697792e+02 -7.5820354097e+01 2.5455230587e+02 0.0000000000e+00 0.0000e+00 1.0000e+00
        1  1    3    3  501    0 +3.8567287140e+01 +2.3991324034e+02 -8.1712580228e+02 8.5249068926e+02 0.0000000000e+00 0.0000e+00 1.0000e+00
       21  1    1    2  502  501 +7.2386009127e-03 +3.7375807995e-03 -2.3654453497e-03 8.4830528177e-03 0.0000000000e+00 0.0000e+00 -1.0000e+00
<mgrwt>
<rscale>  1 0.65436332E+03</rscale>
<asrwt>0</asrwt>
<pdfrwt beam="1">  1        1 0.38927892E+00 0.65436332E+03</pdfrwt>
<pdfrwt beam="2">0</pdfrwt>
<totfact> 0.14918121E+00</totfact>
</mgrwt>
</event>
<event>
 6      1 +5.6466785e-02 6.56726900e+02 7.81860800e-03 9.79423800e-02
        1 -1    0    0  502    0 +0.0000000000e+00 +0.0000000000e+00 +1.1395304563e+02 1.1395304563e+02 0.0000000000e+00 0.0000e+00 1.0000e+00
       13 -1    0    0    0    0 -0.0000000000e+00 -0.0000000000e+00 -1.0000000000e+03 1.0000000000e+03 0.0000000000e+00 0.0000e+00 1.0000e+00
  9000005  2    1    2  501    0 +8.0524470614e-01 +2.6371060818e-01 -8.9214500377e+02 1.1077964095e+03 6.5672631980e+02 0.0000e+00 0.0000e+00
       13  1    3    3    0    0 +2.5848322748e+02 +1.6666610266e+02 -6.4246532943e+02 7.1228706867e+02 0.0000000000e+00 0.0000e+00 1.0000e+00
        1  1    3    3  501    0 -2.5767798277e+02 -1.6640239206e+02 -2.4967967434e+02 3.9550934081e+02 0.0000000000e+00 0.0000e+00 1.0000e+00
       21  1    1    2  502  501 -8.0524470614e-01 -2.6371060818e-01 +6.0980494001e+00 6.1566361601e+00 0.0000000000e+00 0.0000e+00 1.0000e+00
<mgrwt>
<rscale>  1 0.65672687E+03</rscale>
<asrwt>0</asrwt>
<pdfrwt beam="1">  1        1 0.41437559E+00 0.65672687E+03</pdfrwt>
<pdfrwt beam="2">0</pdfrwt>
<totfact> 0.11521504E+00</totfact>
</mgrwt>
</event>
<event>
 6      1 +5.6466785e-02 6.53828700e+02 7.81860800e-03 9.79962100e-02
        1 -1    0    0  502    0 +0.0000000000e+00 +0.0000000000e+00 +1.0687301090e+02 1.0687301090e+02 0.0000000000e+00 0.0000e+00 1.0000e+00
       13 -1    0    0    0    0 -0.0000000000e+00 -0.0000000000e+00 -1.0000000000e+03 1.0000000000e+03 0.0000000000e+00 0.0000e+00 1.0000e+00
  9000005  2    1    2  501    0 -1.7188047451e-05 -7.6416996251e-06 -8.9312699268e+02 1.1068729918e+03 6.5382871979e+02 0.0000e+00 0.0000e+00
       13  1    3    3    0    0 -1.0867168635e+02 +1.4602763438e+02 +1.3146108855e+01 1.8250048108e+02 0.0000000000e+00 0.0000e+00 1.0000e+00
        1  1    3    3  501    0 +1.0867166917e+02 -1.4602764202e+02 -9.0627310153e+02 9.2437251067e+02 0.0000000000e+00 0.0000e+00 1.0000e+00
       21  1    1    2  502  501 +1.7188047440e-05 +7.6416996179e-06 +3.5782977875e-06 1.9147552400e-05 0.0000000000e+00 0.0000e+00 1.0000e+00
<mgrwt>
<rscale>  1 0.65382872E+03</rscale>
<asrwt>0</asrwt>
<pdfrwt beam="1">  1        1 0.38862995E+00 0.65382872E+03</pdfrwt>
<pdfrwt beam="2">0</pdfrwt>
<totfact> 0.15018744E+00</totfact>
</mgrwt>
</event>
<event>
 6      1 +5.6466785e-02 6.30028100e+02 7.81860800e-03 9.84499400e-02
        1 -1    0    0  502    0 +0.0000000000e+00 +0.0000000000e+00 +1.0021646861e+02 1.0021646861e+02 0.0000000000e+00 0.0000e+00 1.0000e+00
       13 -1    0    0    0    0 -0.0000000000e+00 -0.0000000000e+00 -1.0000000000e+03 1.0000000000e+03 0.0000000000e+00 0.0000e+00 1.0000e+00
  9000005  2    1    2  501    0 -1.6896403482e-01 -1.7616143854e-01 -9.0074944612e+02 1.0992201890e+03 6.3002809440e+02 0.0000e+00 0.0000e+00
       13  1    3    3    0    0 +1.9308354936e+02 +2.0065539880e+02 -1.9366984947e+02 3.3919294906e+02 0.0000000000e+00 0.0000e+00 1.0000e+00
        1  1    3    3  501    0 -1.9325251339e+02 -2.0083156023e+02 -7.0707959666e+02 7.6002723999e+02 0.0000000000e+00 0.0000e+00 1.0000e+00
       21  1    1    2  502  501 +1.6896403482e-01 +1.7616143854e-01 +9.6591472804e-01 9.9627955883e-01 0.0000000000e+00 0.0000e+00 -1.0000e+00
<mgrwt>
<rscale>  1 0.63002814E+03</rscale>
<asrwt>0</asrwt>
<pdfrwt beam="1">  1        1 0.36442429E+00 0.63002814E+03</pdfrwt>
<pdfrwt beam="2">0</pdfrwt>
<totfact> 0.19282429E+00</totfact>
</mgrwt>
</event>
<event>
 6      1 +5.6466785e-02 6.59687300e+02 7.81860800e-03 9.78876900e-02
        1 -1    0    0  502    0 +0.0000000000e+00 +0.0000000000e+00 +1.0944511897e+02 1.0944511897e+02 0.0000000000e+00 0.0000e+00 1.0000e+00
       13 -1    0    0    0    0 -0.0000000000e+00 -0.0000000000e+00 -1.0000000000e+03 1.0000000000e+03 0.0000000000e+00 0.0000e+00 1.0000e+00
  9000005  2    1    2  501    0 +5.3531200487e-01 +5.3272494940e-01 -8.9094952967e+02 1.1085930026e+03 6.5968690344e+02 0.0000e+00 0.0000e+00
       13  1    3    3    0    0 -2.5372684284e+02 -1.5071715203e+02 -6.9136767144e+02 7.5171951405e+02 0.0000000000e+00 0.0000e+00 1.0000e+00
        3  1    3    3  501    0 +2.5426215484e+02 +1.5124987698e+02 -1.9958185823e+02 3.5687348852e+02 0.0000000000e+00 0.0000e+00 1.0000e+00
       21  1    1    2  502  501 -5.3531200487e-01 -5.3272494940e-01 +3.9464864154e-01 8.5211640316e-01 0.0000000000e+00 0.0000e+00 -1.0000e+00
<mgrwt>
<rscale>  1 0.65968734E+03</rscale>
<asrwt>0</asrwt>
<pdfrwt beam="1">  1        1 0.39798309E+00 0.65968734E+03</pdfrwt>
<pdfrwt beam="2">0</pdfrwt>
<totfact> 0.13633503E+00</totfact>
</mgrwt>
</event>
<event>
 6      1 +5.6466785e-02 6.48507800e+02 7.81860800e-03 9.80958300e-02
        1 -1    0    0  502    0 +0.0000000000e+00 +0.0000000000e+00 +1.0514517041e+02 1.0514517041e+02 0.0000000000e+00 0.0000e+00 1.0000e+00
       13 -1    0    0    0    0 -0.0000000000e+00 -0.0000000000e+00 -1.0000000000e+03 1.0000000000e+03 0.0000000000e+00 0.0000e+00 1.0000e+00
  9000005  2    1    2  501    0 -1.0517299720e-02 -2.3809837442e-03 -8.9485087253e+02 1.1051336839e+03 6.4850780643e+02 0.0000e+00 0.0000e+00
       13  1    3    3    0    0 +2.8842648715e+02 -1.2388880979e+02 -5.8585838263e+02 6.6465654302e+02 0.0000000000e+00 0.0000e+00 1.0000e+00
        1  1    3    3  501    0 -2.8843700445e+02 +1.2388642880e+02 -3.0899248990e+02 4.4047714083e+02 0.0000000000e+00 0.0000e+00 1.0000e+00
       21  1    1    2  502  501 +1.0517299720e-02 +2.3809837442e-03 -3.9570585684e-03 1.1486556904e-02 0.0000000000e+00 0.0000e+00 1.0000e+00
<mgrwt>
<rscale>  1 0.64850781E+03</rscale>
<asrwt>0</asrwt>
<pdfrwt beam="1">  1        1 0.38234688E+00 0.64850781E+03</pdfrwt>
<pdfrwt beam="2">0</pdfrwt>
<totfact> 0.16027258E+00</totfact>
</mgrwt>
</event>
<event>
 6      1 +5.6466785e-02 6.53997800e+02 7.81860800e-03 9.79930600e-02
        1 -1    0    0  502    0 +0.0000000000e+00 +0.0000000000e+00 +1.0702306362e+02 1.0702306362e+02 0.0000000000e+00 0.0000e+00 1.0000e+00
       13 -1    0    0    0    0 -0.0000000000e+00 -0.0000000000e+00 -1.0000000000e+03 1.0000000000e+03 0.0000000000e+00 0.0000e+00 1.0000e+00
  9000005  2    1    2  501    0 +4.3093003490e-02 +8.6598797958e-04 -8.9306627760e+02 1.1069238688e+03 6.5399776245e+02 0.0000e+00 0.0000e+00
       13  1    3    3    0    0 -7.0844640651e+01 +2.2575640127e+02 -6.4518634184e+01 2.4525001525e+02 0.0000000000e+00 0.0000e+00 1.0000e+00
        1  1    3    3  501    0 +7.0887733654e+01 -2.2575553528e+02 -8.2854764342e+02 8.6167385356e+02 0.0000000000e+00 0.0000e+00 1.0000e+00
       21  1    1    2  502  501 -4.3093003490e-02 -8.6598797960e-04 +8.9341219744e-02 9.9194810501e-02 0.0000000000e+00 0.0000e+00 1.0000e+00
<mgrwt>
<rscale>  1 0.65399776E+03</rscale>
<asrwt>0</asrwt>
<pdfrwt beam="1">  1        1 0.38917560E+00 0.65399776E+03</pdfrwt>
<pdfrwt beam="2">0</pdfrwt>
<totfact> 0.14934875E+00</totfact>
</mgrwt>
</event>
<event>
 6      1 +5.6466785e-02 6.43678000e+02 7.81860800e-03 9.81871500e-02
        1 -1    0    0  502    0 +0.0000000000e+00 +0.0000000000e+00 +1.0359023957e+02 1.0359023957e+02 0.0000000000e+00 0.0000e+00 1.0000e+00
       13 -1    0    0    0    0 -0.0000000000e+00 -0.0000000000e+00 -1.0000000000e+03 1.0000000000e+03 0.0000000000e+00 0.0000e+00 1.0000e+00
  9000005  2    1    2  501    0 +1.7315009194e-04 +5.8631781059e-05 -8.9641965052e+02 1.1035803478e+03 6.4367802060e+02 0.0000e+00 0.0000e+00
       13  1    3    3    0    0 -2.7809598055e+02 -4.8372869371e+01 -1.8313922473e+02 3.3647776230e+02 0.0000000000e+00 0.0000e+00 1.0000e+00
        1  1    3    3  501    0 +2.7809615370e+02 +4.8372928002e+01 -7.1328042579e+02 7.6710258550e+02 0.0000000000e+00 0.0000e+00 1.0000e+00
       21  1    1    2  502  501 -1.7315009194e-04 -5.8631781058e-05 +9.8900869823e-03 9.8917763398e-03 0.0000000000e+00 0.0000e+00 1.0000e+00
<mgrwt>
<rscale>  1 0.64367802E+03</rscale>
<asrwt>0</asrwt>
<pdfrwt beam="1">  1        1 0.37669257E+00 0.64367802E+03</pdfrwt>
<pdfrwt beam="2">0</pdfrwt>
<totfact> 0.16989754E+00</totfact>
</mgrwt>
</event>
<event>
 6      1 +5.6466785e-02 6.54436100e+02 7.81860800e-03 9.79849100e-02
        1 -1    0    0  502    0 +0.0000000000e+00 +0.0000000000e+00 +1.0708639069e+02 1.0708639069e+02 0.0000000000e+00 0.0000e+00 1.0000e+00
       13 -1    0    0    0    0 -0.0000000000e+00 -0.0000000000e+00 -1.0000000000e+03 1.0000000000e+03 0.0000000000e+00 0.0000e+00 1.0000e+00
  9000005  2    1    2  501    0 +6.2100702797e-04 -1.7676713290e-04 -8.9292833623e+02 1.1070716496e+03 6.5443611128e+02 0.0000e+00 0.0000e+00
       13  1    3    3    0    0 +3.1074328118e+02 +1.0242906682e+02 -4.5378570464e+02 5.5944129832e+02 0.0000000000e+00 0.0000e+00 1.0000e+00
        1  1    3    3  501    0 -3.1074266017e+02 -1.0242924358e+02 -4.3914263159e+02 5.4763035131e+02 0.0000000000e+00 0.0000e+00 1.0000e+00
       21  1    1    2  502  501 -6.2100702800e-04 +1.7676713291e-04 +1.4726921193e-02 1.4741068624e-02 0.0000000000e+00 0.0000e+00 -1.0000e+00
<mgrwt>
<rscale>  1 0.65443611E+03</rscale>
<asrwt>0</asrwt>
<pdfrwt beam="1">  1        1 0.38940588E+00 0.65443611E+03</pdfrwt>
<pdfrwt beam="2">0</pdfrwt>
<totfact> 0.14898600E+00</totfact>
</mgrwt>
</event>
<event>
 6      1 +5.6466785e-02 6.52593400e+02 7.81860800e-03 9.80192500e-02
        1 -1    0    0  502    0 +0.0000000000e+00 +0.0000000000e+00 +1.0646958908e+02 1.0646958908e+02 0.0000000000e+00 0.0000e+00 1.0000e+00
       13 -1    0    0    0    0 -0.0000000000e+00 -0.0000000000e+00 -1.0000000000e+03 1.0000000000e+03 0.0000000000e+00 0.0000e+00 1.0000e+00
  9000005  2    1    2  501    0 -6.2793198708e-05 +2.2788415009e-05 -8.9353044019e+02 1.1064695161e+03 6.5259339763e+02 0.0000e+00 0.0000e+00
       13  1    3    3    0    0 +2.2282841644e+02 -9.4740212937e+01 -7.5915170349e+01 2.5375445653e+02 0.0000000000e+00 0.0000e+00 1.0000e+00
        3  1    3    3  501    0 -2.2282847923e+02 +9.4740235725e+01 -8.1761526984e+02 8.5271505962e+02 0.0000000000e+00 0.0000e+00 1.0000e+00
       21  1    1    2  502  501 +6.2793198722e-05 -2.2788415009e-05 +2.9266866119e-05 7.2930426550e-05 0.0000000000e+00 0.0000e+00 1.0000e+00
<mgrwt>
<rscale>  1 0.65259340E+03</rscale>
<asrwt>0</asrwt>
<pdfrwt beam="1">  1        1 0.38716296E+00 0.65259340E+03</pdfrwt>
<pdfrwt beam="2">0</pdfrwt>
<totfact> 0.15248654E+00</totfact>
</mgrwt>
</event>
<event>
 6      1 +5.6466785e-02 6.21106900e+02 7.81860800e-03 9.86255800e-02
        1 -1    0    0  502    0 +0.0000000000e+00 +0.0000000000e+00 +1.0302279365e+02 1.0302279365e+02 0.0000000000e+00 0.0000e+00 1.0000e+00
       13 -1    0    0    0    0 -0.0000000000e+00 -0.0000000000e+00 -1.0000000000e+03 1.0000000000e+03 0.0000000000e+00 0.0000e+00 1.0000e+00
  9000005  2    1    2  501    0 +1.7460684101e+00 +2.2301313781e+00 -9.0322082547e+02 1.0961667729e+03 6.2110040428e+02 0.0000e+00 0.0000e+00
       13  1    3    3    0    0 +2.1350540873e+01 +2.6587059083e+02 -1.6889772070e+02 3.1570469861e+02 0.0000000000e+00 0.0000e+00 1.0000e+00
        1  1    3    3  501    0 -1.9604472463e+01 -2.6364045945e+02 -7.3432310477e+02 7.8046207429e+02 0.0000000000e+00 0.0000e+00 1.0000e+00
       21  1    1    2  502  501 -1.7460684101e+00 -2.2301313781e+00 +6.2436191163e+00 6.8560207501e+00 0.0000000000e+00 0.0000e+00 1.0000e+00
<mgrwt>
<rscale>  1 0.62110686E+03</rscale>
<asrwt>0</asrwt>
<pdfrwt beam="1">  1        1 0.37462913E+00 0.62110686E+03</pdfrwt>
<pdfrwt beam="2">0</pdfrwt>
<totfact> 0.17421666E+00</totfact>
</mgrwt>
</event>
<event>
 6      1 +5.6466785e-02 6.36476800e+02 7.81860800e-03 9.83249100e-02
        1 -1    0    0  502    0 +0.0000000000e+00 +0.0000000000e+00 +1.0552257224e+02 1.0552257224e+02 0.0000000000e+00 0.0000e+00 1.0000e+00
       13 -1    0    0    0    0 -0.0000000000e+00 -0.0000000000e+00 -1.0000000000e+03 1.0000000000e+03 0.0000000000e+00 0.0000e+00 1.0000e+00
  9000005  2    1    2  501    0 -5.6841406343e+00 +3.3589476348e+00 -8.9569891250e+02 1.0988081096e+03 6.3644255658e+02 0.0000e+00 0.0000e+00
       13  1    3    3    0    0 +3.1263214392e+02 +2.4308854488e+01 -5.0474687406e+02 5.9422149464e+02 0.0000000000e+00 0.0000e+00 1.0000e+00
        3  1    3    3  501    0 -3.1831628455e+02 -2.0949906853e+01 -3.9095203844e+02 5.0458661493e+02 0.0000000000e+00 0.0000e+00 1.0000e+00
       21  1    1    2  502  501 +5.6841406343e+00 -3.3589476348e+00 +1.2214847375e+00 6.7144626685e+00 0.0000000000e+00 0.0000e+00 -1.0000e+00
<mgrwt>
<rscale>  1 0.63647680E+03</rscale>
<asrwt>0</asrwt>
<pdfrwt beam="1">  1        1 0.38371925E+00 0.63647680E+03</pdfrwt>
<pdfrwt beam="2">0</pdfrwt>
<totfact> 0.15840458E+00</totfact>
</mgrwt>
</event>
<event>
 6      1 +5.6466785e-02 6.48218900e+02 7.81860800e-03 9.81012700e-02
        1 -1    0    0  502    0 +0.0000000000e+00 +0.0000000000e+00 +1.0970760896e+02 1.0970760896e+02 0.0000000000e+00 0.0000e+00 1.0000e+00
       13 -1    0    0    0    0 -0.0000000000e+00 -0.0000000000e+00 -1.0000000000e+03 1.0000000000e+03 0.0000000000e+00 0.0000e+00 1.0000e+00
  9000005  2    1    2  501    0 -5.7042622469e+00 -9.7497506812e+00 -8.8557656651e+02 1.0974668881e+03 6.4812045105e+02 0.0000e+00 0.0000e+00
       13  1    3    3    0    0 -7.8923100334e+01 -1.3859393581e+02 +3.6453590843e+01 1.6360317569e+02 0.0000000000e+00 0.0000e+00 1.0000e+00
        1  1    3    3  501    0 +7.3218838087e+01 +1.2884418513e+02 -9.2203015735e+02 9.3386371241e+02 0.0000000000e+00 0.0000e+00 1.0000e+00
       21  1    1    2  502  501 +5.7042622469e+00 +9.7497506812e+00 -4.7158245368e+00 1.2240720861e+01 0.0000000000e+00 0.0000e+00 -1.0000e+00
<mgrwt>
<rscale>  1 0.64821888E+03</rscale>
<asrwt>0</asrwt>
<pdfrwt beam="1">  1        1 0.39893760E+00 0.64821888E+03</pdfrwt>
<pdfrwt beam="2">0</pdfrwt>
<totfact> 0.13529943E+00</totfact>
</mgrwt>
</event>
<event>
 6      1 +5.6466785e-02 6.51680600e+02 7.81860800e-03 9.80363100e-02
        1 -1    0    0  502    0 +0.0000000000e+00 +0.0000000000e+00 +1.0617343492e+02 1.0617343492e+02 0.0000000000e+00 0.0000e+00 1.0000e+00
       13 -1    0    0    0    0 -0.0000000000e+00 -0.0000000000e+00 -1.0000000000e+03 1.0000000000e+03 0.0000000000e+00 0.0000e+00 1.0000e+00
  9000005  2    1    2  501    0 -8.0498466440e-04 +3.8427261633e-04 -8.9382795384e+02 1.1061717844e+03 6.5168060081e+02 0.0000e+00 0.0000e+00
       13  1    3    3    0    0 +3.0558372066e+02 -2.5000240936e+01 -6.3413153644e+02 7.0436441413e+02 0.0000000000e+00 0.0000e+00 1.0000e+00
        3  1    3    3  501    0 -3.0558452564e+02 +2.5000625209e+01 -2.5969641740e+02 4.0180737024e+02 0.0000000000e+00 0.0000e+00 1.0000e+00
       21  1    1    2  502  501 +8.0498466444e-04 -3.8427261633e-04 +1.3887596451e-03 1.6505511520e-03 0.0000000000e+00 0.0000e+00 1.0000e+00
<mgrwt>
<rscale>  1 0.65168060E+03</rscale>
<asrwt>0</asrwt>
<pdfrwt beam="1">  1        1 0.38608603E+00 0.65168060E+03</pdfrwt>
<pdfrwt beam="2">0</pdfrwt>
<totfact> 0.15419572E+00</totfact>
</mgrwt>
</event>
<event>
 6      1 +5.6466785e-02 6.59746600e+02 7.81860800e-03 9.78866000e-02
        1 -1    0    0  502    0 +0.0000000000e+00 +0.0000000000e+00 +1.1065868451e+02 1.1065868451e+02 0.0000000000e+00 0.0000e+00 1.0000e+00
       13 -1    0    0    0    0 -0.0000000000e+00 -0.0000000000e+00 -1.0000000000e+03 1.0000000000e+03 0.0000000000e+00 0.0000e+00 1.0000e+00
  9000005  2    1    2  501    0 +1.2386435455e-01 -7.1303512856e-01 -8.9110446089e+02 1.1087527876e+03 6.5974620874e+02 0.0000e+00 0.0000e+00
       13  1    3    3    0    0 -3.7347605571e+01 -1.9615939514e+02 -8.8752882332e+02 9.0971466085e+02 0.0000000000e+00 0.0000e+00 1.0000e+00
        1  1    3    3  501    0 +3.7471469926e+01 +1.9544636001e+02 -3.5756375685e+00 1.9903812671e+02 0.0000000000e+00 0.0000e+00 1.0000e+00
       21  1    1    2  502  501 -1.2386435455e-01 +7.1303512856e-01 +1.7631454031e+00 1.9058969503e+00 0.0000000000e+00 0.0000e+00 1.0000e+00
<mgrwt>
<rscale>  1 0.65974661E+03</rscale>
<asrwt>0</asrwt>
<pdfrwt beam="1">  1        1 0.40239606E+00 0.65974661E+03</pdfrwt>
<pdfrwt beam="2">0</pdfrwt>
<totfact> 0.13029385E+00</totfact>
</mgrwt>
</event>
<event>
 6      1 +5.6466785e-02 6.51574000e+02 7.81860800e-03 9.80383000e-02
        1 -1    0    0  502    0 +0.0000000000e+00 +0.0000000000e+00 +1.0614990631e+02 1.0614990631e+02 0.0000000000e+00 0.0000e+00 1.0000e+00
       13 -1    0    0    0    0 -0.0000000000e+00 -0.0000000000e+00 -1.0000000000e+03 1.0000000000e+03 0.0000000000e+00 0.0000e+00 1.0000e+00
  9000005  2    1    2  501    0 -1.6335749265e-04 +4.4128735198e-04 -8.9386283952e+02 1.1061371518e+03 6.5157395797e+02 0.0000e+00 0.0000e+00
       13  1    3    3    0    0 -1.3927951088e+02 +1.4002881194e+02 -7.0813450216e+00 1.9762842855e+02 0.0000000000e+00 0.0000e+00 1.0000e+00
        3  1    3    3  501    0 +1.3927934752e+02 -1.4002837065e+02 -8.8678149450e+02 9.0850872325e+02 0.0000000000e+00 0.0000e+00 1.0000e+00
       21  1    1    2  502  501 +1.6335749266e-04 -4.4128735199e-04 +1.2745832065e-02 1.2754515092e-02 0.0000000000e+00 0.0000e+00 1.0000e+00
<mgrwt>
<rscale>  1 0.65157396E+03</rscale>
<asrwt>0</asrwt>
<pdfrwt beam="1">  1        1 0.38600047E+00 0.65157396E+03</pdfrwt>
<pdfrwt beam="2">0</pdfrwt>
<totfact> 0.15433326E+00</totfact>
</mgrwt>
</event>
<event>
 6      1 +5.6466785e-02 6.56522700e+02 7.81860800e-03 9.79461600e-02
        1 -1    0    0  502    0 +0.0000000000e+00 +0.0000000000e+00 +1.5694211045e+02 1.5694211045e+02 0.0000000000e+00 0.0000e+00 1.0000e+00
       13 -1    0    0    0    0 -0.0000000000e+00 -0.0000000000e+00 -1.0000000000e+03 1.0000000000e+03 0.0000000000e+00 0.0000e+00 1.0000e+00
  9000005  2    1    2  501    0 -7.6023740275e+00 -1.1111305742e+01 -8.9122179425e+02 1.1069319223e+03 6.5638459517e+02 0.0000e+00 0.0000e+00
       13  1    3    3    0    0 +2.0196988990e+02 +5.8224835445e+01 -2.3421366488e+01 2.1149592974e+02 0.0000000000e+00 0.0000e+00 1.0000e+00
        3  1    3    3  501    0 -2.0957226393e+02 -6.9336141187e+01 -8.6780042776e+02 8.9543599253e+02 0.0000000000e+00 0.0000e+00 1.0000e+00
       21  1    1    2  502  501 +7.6023740275e+00 +1.1111305742e+01 +4.8163904698e+01 5.0010188181e+01 0.0000000000e+00 0.0000e+00 1.0000e+00
<mgrwt>
<rscale>  1 0.65652265E+03</rscale>
<asrwt>0</asrwt>
<pdfrwt beam="1">  1        1 0.57069979E+00 0.65652265E+03</pdfrwt>
<pdfrwt beam="2">0</pdfrwt>
<totfact> 0.20448590E-01</totfact>
</mgrwt>
</event>
<event>
 6      1 +5.6466785e-02 6.54672200e+02 7.81860800e-03 9.79805100e-02
        1 -1    0    0  502    0 +0.0000000000e+00 +0.0000000000e+00 +1.0720373396e+02 1.0720373396e+02 0.0000000000e+00 0.0000e+00 1.0000e+00
       13 -1    0    0    0    0 -0.0000000000e+00 -0.0000000000e+00 -1.0000000000e+03 1.0000000000e+03 0.0000000000e+00 0.0000e+00 1.0000e+00
  9000005  2    1    2  501    0 +1.7158053659e-03 +2.6032268328e-03 -8.9285101480e+02 1.1071488965e+03 6.5467224194e+02 0.0000e+00 0.0000e+00
       13  1    3    3    0    0 +1.8675120463e+02 -2.2331984216e+02 -6.9953825038e+02 7.5769487795e+02 0.0000000000e+00 0.0000e+00 1.0000e+00
        1  1    3    3  501    0 -1.8674948882e+02 +2.2332244538e+02 -1.9331276442e+02 3.4945401854e+02 0.0000000000e+00 0.0000e+00 1.0000e+00
       21  1    1    2  502  501 -1.7158053659e-03 -2.6032268328e-03 +5.4748762877e-02 5.4837467252e-02 0.0000000000e+00 0.0000e+00 1.0000e+00
<mgrwt>
<rscale>  1 0.65467224E+03</rscale>
<asrwt>0</asrwt>
<pdfrwt beam="1">  1        1 0.38983258E+00 0.65467224E+03</pdfrwt>
<pdfrwt beam="2">0</pdfrwt>
<totfact> 0.14833188E+00</totfact>
</mgrwt>
</event>
<event>
 6      1 +5.6466785e-02 6.62147600e+02 7.81860800e-03 9.78424800e-02
        1 -1    0    0  502    0 +0.0000000000e+00 +0.0000000000e+00 +1.0961034290e+02 1.0961034290e+02 0.0000000000e+00 0.0000e+00 1.0000e+00
       13 -1    0    0    0    0 -0.0000000000e+00 -0.0000000000e+00 -1.0000000000e+03 1.0000000000e+03 0.0000000000e+00 0.0000e+00 1.0000e+00
  9000005  2    1    2  501    0 -4.4914830227e-05 +5.1471767790e-05 -8.9039012203e+02 1.1096098730e+03 6.6214764275e+02 0.0000e+00 0.0000e+00
       13  1    3    3    0    0 -2.1076508487e+02 +1.5508692183e+02 -1.0531432025e+02 2.8207265087e+02 0.0000000000e+00 0.0000e+00 1.0000e+00
        3  1    3    3  501    0 +2.1076503995e+02 -1.5508687036e+02 -7.8507580178e+02 8.2753722210e+02 0.0000000000e+00 0.0000e+00 1.0000e+00
       21  1    1    2  502  501 +4.4914830214e-05 -5.1471767803e-05 +4.6492842241e-04 4.6992033667e-04 0.0000000000e+00 0.0000e+00 1.0000e+00
<mgrwt>
<rscale>  1 0.66214764E+03</rscale>
<asrwt>0</asrwt>
<pdfrwt beam="1">  1        1 0.39858391E+00 0.66214764E+03</pdfrwt>
<pdfrwt beam="2">0</pdfrwt>
<totfact> 0.13543508E+00</totfact>
</mgrwt>
</event>
<event>
 6      1 +5.6466785e-02 6.52767800e+02 7.81860800e-03 9.80159900e-02
        1 -1    0    0  502    0 +0.0000000000e+00 +0.0000000000e+00 +1.0652662423e+02 1.0652662423e+02 0.0000000000e+00 0.0000e+00 1.0000e+00
       13 -1    0    0    0    0 -0.0000000000e+00 -0.0000000000e+00 -1.0000000000e+03 1.0000000000e+03 0.0000000000e+00 0.0000e+00 1.0000e+00
  9000005  2    1    2  501    0 -2.2242754443e-04 -4.4558292044e-04 -8.9347301931e+02 1.1065260118e+03 6.5276778301e+02 0.0000e+00 0.0000e+00
       13  1    3    3    0    0 +3.2462171665e+02 +3.3596068258e+01 -4.3946448994e+02 5.4739107834e+02 0.0000000000e+00 0.0000e+00 1.0000e+00
        1  1    3    3  501    0 -3.2462193907e+02 -3.3596513841e+01 -4.5400852937e+02 5.5913493345e+02 0.0000000000e+00 0.0000e+00 1.0000e+00
       21  1    1    2  502  501 +2.2242754443e-04 +4.4558292044e-04 -3.5645994553e-04 6.1243925762e-04 0.0000000000e+00 0.0000e+00 1.0000e+00
<mgrwt>
<rscale>  1 0.65276778E+03</rscale>
<asrwt>0</asrwt>
<pdfrwt beam="1">  1        1 0.38737036E+00 0.65276778E+03</pdfrwt>
<pdfrwt beam="2">0</pdfrwt>
<totfact> 0.15215949E+00</totfact>
</mgrwt>
</event>
<event>
 6      1 +5.6466785e-02 6.19418100e+02 7.81860800e-03 9.86591900e-02
        1 -1    0    0  502    0 +0.0000000000e+00 +0.0000000000e+00 +9.6136533575e+01 9.6136533575e+01 0.0000000000e+00 0.0000e+00 1.0000e+00
       13 -1    0    0    0    0 -0.0000000000e+00 -0.0000000000e+00 -1.0000000000e+03 1.0000000000e+03 0.0000000000e+00 0.0000e+00 1.0000e+00
  9000005  2    1    2  501    0 -2.9905029454e-03 +1.9861104782e-02 -9.0407980899e+02 1.0959192607e+03 6.1941805310e+02 0.0000e+00 0.0000e+00
       13  1    3    3    0    0 +2.3734218682e+02 +9.5771103769e+01 -7.6061444738e+02 8.0251962937e+02 0.0000000000e+00 0.0000e+00 1.0000e+00
        3  1    3    3  501    0 -2.3734517733e+02 -9.5751242664e+01 -1.4346536161e+02 2.9339963131e+02 0.0000000000e+00 0.0000e+00 1.0000e+00
       21  1    1    2  502  501 +2.9905029454e-03 -1.9861104782e-02 +2.1634256128e-01 2.1727289387e-01 0.0000000000e+00 0.0000e+00 1.0000e+00
<mgrwt>
<rscale>  1 0.61941805E+03</rscale>
<asrwt>0</asrwt>
<pdfrwt beam="1">  1        1 0.34958813E+00 0.61941805E+03</pdfrwt>
<pdfrwt beam="2">0</pdfrwt>
<totfact> 0.22428599E+00</totfact>
</mgrwt>
</event>
<event>
 6      1 +5.6466785e-02 6.83518000e+02 7.81860800e-03 9.74584100e-02
        1 -1    0    0  502    0 +0.0000000000e+00 +0.0000000000e+00 +1.1900720426e+02 1.1900720426e+02 0.0000000000e+00 0.0000e+00 1.0000e+00
       13 -1    0    0    0    0 -0.0000000000e+00 -0.0000000000e+00 -1.0000000000e+03 1.0000000000e+03 0.0000000000e+00 0.0000e+00 1.0000e+00
  9000005  2    1    2  501    0 -1.8081487069e-01 -4.5979457670e-01 -8.8316987420e+02 1.1167747671e+03 6.8351781954e+02 0.0000e+00 0.0000e+00
       13  1    3    3    0    0 +3.0312632998e+01 -3.2729855968e+02 -2.8771233680e+02 4.3683130798e+02 0.0000000000e+00 0.0000e+00 1.0000e+00
        3  1    3    3  501    0 -3.0493447868e+01 +3.2683876511e+02 -5.9545753740e+02 6.7994345911e+02 0.0000000000e+00 0.0000e+00 1.0000e+00
       21  1    1    2  502  501 +1.8081487069e-01 +4.5979457670e-01 +2.1770784633e+00 2.2324371672e+00 0.0000000000e+00 0.0000e+00 1.0000e+00
<mgrwt>
<rscale>  1 0.68351800E+03</rscale>
<asrwt>0</asrwt>
<pdfrwt beam="1">  1        1 0.43275438E+00 0.68351800E+03</pdfrwt>
<pdfrwt beam="2">0</pdfrwt>
<totfact> 0.94648631E-01</totfact>
</mgrwt>
</event>
<event>
 6      1 +5.6466785e-02 6.53060000e+02 7.81860800e-03 9.80105400e-02
        1 -1    0    0  502    0 +0.0000000000e+00 +0.0000000000e+00 +1.0668217538e+02 1.0668217538e+02 0.0000000000e+00 0.0000e+00 1.0000e+00
       13 -1    0    0    0    0 -0.0000000000e+00 -0.0000000000e+00 -1.0000000000e+03 1.0000000000e+03 0.0000000000e+00 0.0000e+00 1.0000e+00
  9000005  2    1    2  501    0 -1.0632526674e-03 +4.9976108017e-03 -8.9337804312e+02 1.1066217405e+03 6.5305998851e+02 0.0000e+00 0.0000e+00
       13  1    3    3    0    0 +3.0275418909e+02 +1.1469923603e+02 -5.1870305750e+02 6.1144817901e+02 0.0000000000e+00 0.0000e+00 1.0000e+00
        1  1    3    3  501    0 -3.0275525234e+02 -1.1469423842e+02 -3.7467498562e+02 4.9517356149e+02 0.0000000000e+00 0.0000e+00 1.0000e+00
       21  1    1    2  502  501 +1.0632526674e-03 -4.9976108017e-03 +6.0218501189e-02 6.0434878220e-02 0.0000000000e+00 0.0000e+00 1.0000e+00
<mgrwt>
<rscale>  1 0.65305999E+03</rscale>
<asrwt>0</asrwt>
<pdfrwt beam="1">  1        1 0.38793600E+00 0.65305999E+03</pdfrwt>
<pdfrwt beam="2">0</pdfrwt>
<totfact> 0.15127604E+00</totfact>
</mgrwt>
</event>
<event>
 6      1 +5.6466785e-02 6.41600800e+02 7.81860800e-03 9.82266900e-02
        1 -1    0    0  502    0 +0.0000000000e+00 +0.0000000000e+00 +1.0291655055e+02 1.0291655055e+02 0.0000000000e+00 0.0000e+00 1.0000e+00
       13 -1    0    0    0    0 -0.0000000000e+00 -0.0000000000e+00 -1.0000000000e+03 1.0000000000e+03 0.0000000000e+00 0.0000e+00 1.0000e+00
  9000005  2    1    2  501    0 -1.1362862076e-03 -8.6511384548e-04 -8.9708695161e+02 1.1029127684e+03 6.4160079172e+02 0.0000e+00 0.0000e+00
       13  1    3    3    0    0 +3.1060051286e+02 +7.9957949480e+01 -4.3681805742e+02 5.4191878318e+02 0.0000000000e+00 0.0000e+00 1.0000e+00
        1  1    3    3  501    0 -3.1060164915e+02 -7.9958814594e+01 -4.6026889419e+02 5.6099398521e+02 0.0000000000e+00 0.0000e+00 1.0000e+00
       21  1    1    2  502  501 +1.1362862076e-03 +8.6511384547e-04 +3.5021665208e-03 3.7821605797e-03 0.0000000000e+00 0.0000e+00 1.0000e+00
<mgrwt>
<rscale>  1 0.64160079E+03</rscale>
<asrwt>0</asrwt>
<pdfrwt beam="1">  1        1 0.37424279E+00 0.64160079E+03</pdfrwt>
<pdfrwt beam="2">0</pdfrwt>
<totfact> 0.17423606E+00</totfact>
</mgrwt>
</event>
<event>
 6      1 +5.6466785e-02 6.67783700e+02 7.81860800e-03 9.77397000e-02
        1 -1    0    0  502    0 +0.0000000000e+00 +0.0000000000e+00 +1.1148380682e+02 1.1148380682e+02 0.0000000000e+00 0.0000e+00 1.0000e+00
       13 -1    0    0    0    0 -0.0000000000e+00 -0.0000000000e+00 -1.0000000000e+03 1.0000000000e+03 0.0000000000e+00 0.0000e+00 1.0000e+00
  9000005  2    1    2  501    0 -1.3459400350e-06 -2.3521569233e-05 -8.8851620881e+02 1.1114837785e+03 6.6778374992e+02 0.0000e+00 0.0000e+00
       13  1    3    3    0    0 +1.7219441185e+02 +2.0788781237e+02 -1.1718243014e+02 2.9427874530e+02 0.0000000000e+00 0.0000e+00 1.0000e+00
        1  1    3    3  501    0 -1.7219441320e+02 -2.0788783589e+02 -7.7133377867e+02 8.1720503325e+02 0.0000000000e+00 0.0000e+00 1.0000e+00
       21  1    1    2  502  501 +1.3459400383e-06 +2.3521569239e-05 +1.5634204829e-05 2.8275504146e-05 0.0000000000e+00 0.0000e+00 -1.0000e+00
<mgrwt>
<rscale>  1 0.66778375E+03</rscale>
<asrwt>0</asrwt>
<pdfrwt beam="1">  1        1 0.40539652E+00 0.66778375E+03</pdfrwt>
<pdfrwt beam="2">0</pdfrwt>
<totfact> 0.12614137E+00</totfact>
</mgrwt>
</event>
<event>
 6      1 +5.6466785e-02 5.64903200e+02 7.81860800e-03 9.98102100e-02
        1 -1    0    0  502    0 +0.0000000000e+00 +0.0000000000e+00 +7.9778912317e+01 7.9778912317e+01 0.0000000000e+00 0.0000e+00 1.0000e+00
       13 -1    0    0    0    0 -0.0000000000e+00 -0.0000000000e+00 -1.0000000000e+03 1.0000000000e+03 0.0000000000e+00 0.0000e+00 1.0000e+00
  9000005  2    1    2  501    0 +2.7431016747e-06 +5.2944030244e-06 -9.2022109978e+02 1.0797788988e+03 5.6490317567e+02 0.0000e+00 0.0000e+00
       13  1    3    3    0    0 -8.9143945755e+01 -2.6735448696e+02 -4.2415548526e+02 5.0924742556e+02 0.0000000000e+00 0.0000e+00 1.0000e+00
        1  1    3    3  501    0 +8.9143948498e+01 +2.6735449226e+02 -4.9606561452e+02 5.7053147327e+02 0.0000000000e+00 0.0000e+00 1.0000e+00
       21  1    1    2  502  501 -2.7431016753e-06 -5.2944029837e-06 +1.2096777090e-05 1.3486560930e-05 0.0000000000e+00 0.0000e+00 -1.0000e+00
<mgrwt>
<rscale>  1 0.56490318E+03</rscale>
<asrwt>0</asrwt>
<pdfrwt beam="1">  1        1 0.29010575E+00 0.56490318E+03</pdfrwt>
<pdfrwt beam="2">0</pdfrwt>
<totfact> 0.40961660E+00</totfact>
</mgrwt>
</event>
<event>
 6      1 +5.6466785e-02 6.35125000e+02 7.81860800e-03 9.83509800e-02
        1 -1    0    0  502    0 +0.0000000000e+00 +0.0000000000e+00 +1.1698836525e+02 1.1698836525e+02 0.0000000000e+00 0.0000e+00 1.0000e+00
       13 -1    0    0    0    0 -0.0000000000e+00 -0.0000000000e+00 -1.0000000000e+03 1.0000000000e+03 0.0000000000e+00 0.0000e+00 1.0000e+00
  9000005  2    1    2  501    0 -6.9802543472e-01 -3.3210706822e-01 -8.9914385664e+02 1.1008376341e+03 6.3512457369e+02 0.0000e+00 0.0000e+00
       13  1    3    3    0    0 -1.7322072940e+02 -2.0983672892e+02 -1.6519500314e+02 3.1831786466e+02 0.0000000000e+00 0.0000e+00 1.0000e+00
        1  1    3    3  501    0 +1.7252270397e+02 +2.0950462185e+02 -7.3394885350e+02 7.8251976941e+02 0.0000000000e+00 0.0000e+00 1.0000e+00
       21  1    1    2  502  501 +6.9802543472e-01 +3.3210706822e-01 +1.6132221888e+01 1.6150731180e+01 0.0000000000e+00 0.0000e+00 1.0000e+00
<mgrwt>
<rscale>  1 0.63512504E+03</rscale>
<asrwt>0</asrwt>
<pdfrwt beam="1">  1        1 0.42541313E+00 0.63512504E+03</pdfrwt>
<pdfrwt beam="2">0</pdfrwt>
<totfact> 0.10318198E+00</totfact>
</mgrwt>
</event>
<event>
 6      1 +5.6466785e-02 6.45303600e+02 7.81860800e-03 9.81563200e-02
        1 -1    0    0  502    0 +0.0000000000e+00 +0.0000000000e+00 +1.0410424738e+02 1.0410424738e+02 0.0000000000e+00 0.0000e+00 1.0000e+00
       13 -1    0    0    0    0 -0.0000000000e+00 -0.0000000000e+00 -1.0000000000e+03 1.0000000000e+03 0.0000000000e+00 0.0000e+00 1.0000e+00
  9000005  2    1    2  501    0 -9.7089587712e-06 +1.0066724940e-05 -8.9589581889e+02 1.1041041797e+03 6.4530358842e+02 0.0000e+00 0.0000e+00
       13  1    3    3    0    0 -2.9082171168e+02 +1.3501284113e+02 -5.0960152142e+02 6.0207926877e+02 0.0000000000e+00 0.0000e+00 1.0000e+00
        1  1    3    3  501    0 +2.9082170197e+02 -1.3501283106e+02 -3.8629429747e+02 5.0202491088e+02 0.0000000000e+00 0.0000e+00 1.0000e+00
       21  1    1    2  502  501 +9.7089587664e-06 -1.0066724931e-05 +6.6267057331e-05 6.7726846364e-05 0.0000000000e+00 0.0000e+00 1.0000e+00
<mgrwt>
<rscale>  1 0.64530359E+03</rscale>
<asrwt>0</asrwt>
<pdfrwt beam="1">  1        1 0.37856170E+00 0.64530359E+03</pdfrwt>
<pdfrwt beam="2">0</pdfrwt>
<totfact> 0.16665564E+00</totfact>
</mgrwt>
</event>
<event>
 6      1 +5.6466785e-02 6.43576100e+02 7.81860800e-03 9.81890800e-02
        1 -1    0    0  502    0 +0.0000000000e+00 +0.0000000000e+00 +1.0354878357e+02 1.0354878357e+02 0.0000000000e+00 0.0000e+00 1.0000e+00
       13 -1    0    0    0    0 -0.0000000000e+00 -0.0000000000e+00 -1.0000000000e+03 1.0000000000e+03 0.0000000000e+00 0.0000e+00 1.0000e+00
  9000005  2    1    2  501    0 +5.7474585091e-05 -1.7965829898e-05 -8.9645246434e+02 1.1035475342e+03 6.4357605566e+02 0.0000e+00 0.0000e+00
       13  1    3    3    0    0 -7.7690454508e+01 -7.9180163562e+00 -9.8350487659e+02 9.8660039731e+02 0.0000000000e+00 0.0000e+00 1.0000e+00
        3  1    3    3  501    0 +7.7690511982e+01 +7.9179983904e+00 +8.7052412243e+01 1.1694713689e+02 0.0000000000e+00 0.0000e+00 1.0000e+00
       21  1    1    2  502  501 -5.7474585085e-05 +1.7965829897e-05 +1.2479087351e-03 1.2493607606e-03 0.0000000000e+00 0.0000e+00 -1.0000e+00
<mgrwt>
<rscale>  1 0.64357606E+03</rscale>
<asrwt>0</asrwt>
<pdfrwt beam="1">  1        1 0.37654183E+00 0.64357606E+03</pdfrwt>
<pdfrwt beam="2">0</pdfrwt>
<totfact> 0.17016071E+00</totfact>
</mgrwt>
</event>
<event>
 6      1 +5.6466785e-02 6.42950200e+02 7.81860800e-03 9.82009800e-02
        1 -1    0    0  502    0 +0.0000000000e+00 +0.0000000000e+00 +1.0334624952e+02 1.0334624952e+02 0.0000000000e+00 0.0000e+00 1.0000e+00
       13 -1    0    0    0    0 -0.0000000000e+00 -0.0000000000e+00 -1.0000000000e+03 1.0000000000e+03 0.0000000000e+00 0.0000e+00 1.0000e+00
  9000005  2    1    2  501    0 -2.1459702779e-05 -1.9830591583e-05 -8.9665375454e+02 1.1033462200e+03 6.4295017358e+02 0.0000e+00 0.0000e+00
       13  1    3    3    0    0 +8.8415762309e+01 +1.4650802675e+02 +1.8696800092e+01 1.7213808196e+02 0.0000000000e+00 0.0000e+00 1.0000e+00
        3  1    3    3  501    0 -8.8415783769e+01 -1.4650804658e+02 -9.1535055463e+02 9.3120813806e+02 0.0000000000e+00 0.0000e+00 1.0000e+00
       21  1    1    2  502  501 +2.1459702781e-05 +1.9830591566e-05 +4.0652295179e-06 2.9500801622e-05 0.0000000000e+00 0.0000e+00 -1.0000e+00
<mgrwt>
<rscale>  1 0.64295017E+03</rscale>
<asrwt>0</asrwt>
<pdfrwt beam="1">  1        1 0.37580534E+00 0.64295017E+03</pdfrwt>
<pdfrwt beam="2">0</pdfrwt>
<totfact> 0.17145600E+00</totfact>
</mgrwt>
</event>
<event>
 6      1 +5.6466785e-02 6.29507700e+02 7.81860800e-03 9.84601000e-02
        1 -1    0    0  502    0 +0.0000000000e+00 +0.0000000000e+00 +9.9069997510e+01 9.9069997510e+01 0.0000000000e+00 0.0000e+00 1.0000e+00
       13 -1    0    0    0    0 -0.0000000000e+00 -0.0000000000e+00 -1.0000000000e+03 1.0000000000e+03 0.0000000000e+00 0.0000e+00 1.0000e+00
  9000005  2    1    2  501    0 +5.9510471715e-06 -4.9315910019e-05 -9.0092999795e+02 1.0990699476e+03 6.2950765570e+02 0.0000e+00 0.0000e+00
       13  1    3    3    0    0 +2.1649693861e+02 +1.2964398944e+02 -7.7891831826e+02 8.1877483776e+02 0.0000000000e+00 0.0000e+00 1.0000e+00
        3  1    3    3  501    0 -2.1649693266e+02 -1.2964403875e+02 -1.2201167968e+02 2.8029510987e+02 0.0000000000e+00 0.0000e+00 1.0000e+00
       21  1    1    2  502  501 -5.9510471827e-06 +4.9315910017e-05 -4.5452638089e-06 4.9881192513e-05 0.0000000000e+00 0.0000e+00 -1.0000e+00
<mgrwt>
<rscale>  1 0.62950766E+03</rscale>
<asrwt>0</asrwt>
<pdfrwt beam="1">  1        1 0.36025530E+00 0.62950766E+03</pdfrwt>
<pdfrwt beam="2">0</pdfrwt>
<totfact> 0.20111836E+00</totfact>
</mgrwt>
</event>
<event>
 6      1 +5.6466785e-02 6.53398000e+02 7.81860800e-03 9.80042400e-02
        1 -1    0    0  502    0 +0.0000000000e+00 +0.0000000000e+00 +1.0686550986e+02 1.0686550986e+02 0.0000000000e+00 0.0000e+00 1.0000e+00
       13 -1    0    0    0    0 -0.0000000000e+00 -0.0000000000e+00 -1.0000000000e+03 1.0000000000e+03 0.0000000000e+00 0.0000e+00 1.0000e+00
  9000005  2    1    2  501    0 +2.1247515173e-03 -5.7615346848e-03 -8.9326768512e+02 1.1067321734e+03 6.5339799994e+02 0.0000e+00 0.0000e+00
       13  1    3    3    0    0 -3.0595271638e+01 +4.6733507491e+01 -9.9185011550e+02 9.9342173471e+02 0.0000000000e+00 0.0000e+00 1.0000e+00
        1  1    3    3  501    0 +3.0597396389e+01 -4.6739269026e+01 +9.8582430388e+01 1.1331043869e+02 0.0000000000e+00 0.0000e+00 1.0000e+00
       21  1    1    2  502  501 -2.1247515173e-03 +5.7615346848e-03 +1.3319497891e-01 1.3333646260e-01 0.0000000000e+00 0.0000e+00 -1.0000e+00
<mgrwt>
<rscale>  1 0.65339800E+03</rscale>
<asrwt>0</asrwt>
<pdfrwt beam="1">  1        1 0.38860267E+00 0.65339800E+03</pdfrwt>
<pdfrwt beam="2">0</pdfrwt>
<totfact> 0.15024123E+00</totfact>
</mgrwt>
</event>
<event>
 6      1 +5.6466785e-02 6.50137500e+02 7.81860800e-03 9.80652100e-02
        1 -1    0    0  502    0 +0.0000000000e+00 +0.0000000000e+00 +1.2777245569e+02 1.2777245569e+02 0.0000000000e+00 0.0000e+00 1.0000e+00
       13 -1    0    0    0    0 -0.0000000000e+00 -0.0000000000e+00 -1.0000000000e+03 1.0000000000e+03 0.0000000000e+00 0.0000e+00 1.0000e+00
  9000005  2    1    2  501    0 +1.3455447734e+00 +1.5642982683e+00 -8.9427705595e+02 1.1056266100e+03 6.5013420948e+02 0.0000e+00 0.0000e+00
       13  1    3    3    0    0 -1.8061254493e+02 +2.0428776656e+02 -7.4859455474e+02 7.9671085742e+02 0.0000000000e+00 0.0000e+00 1.0000e+00
        3  1    3    3  501    0 +1.8195808970e+02 -2.0272346830e+02 -1.4568250121e+02 3.0891575253e+02 0.0000000000e+00 0.0000e+00 1.0000e+00
       21  1    1    2  502  501 -1.3455447734e+00 -1.5642982683e+00 +2.2049511632e+01 2.2145845728e+01 0.0000000000e+00 0.0000e+00 1.0000e+00
<mgrwt>
<rscale>  1 0.65013748E+03</rscale>
<asrwt>0</asrwt>
<pdfrwt beam="1">  1        1 0.46462809E+00 0.65013748E+03</pdfrwt>
<pdfrwt beam="2">0</pdfrwt>
<totfact> 0.67970869E-01</totfact>
</mgrwt>
</event>
<event>
 6      1 +5.6466785e-02 6.57251000e+02 7.81860800e-03 9.79326800e-02
        1 -1    0    0  502    0 +0.0000000000e+00 +0.0000000000e+00 +1.0869695308e+02 1.0869695308e+02 0.0000000000e+00 0.0000e+00 1.0000e+00
       13 -1    0    0    0    0 -0.0000000000e+00 -0.0000000000e+00 -1.0000000000e+03 1.0000000000e+03 0.0000000000e+00 0.0000e+00 1.0000e+00
  9000005  2    1    2  501    0 -3.3325941657e-02 -1.2104667221e-01 -8.9199906587e+02 1.1079897011e+03 6.5725096315e+02 0.0000e+00 0.0000e+00
       13  1    3    3    0    0 -2.1944922869e+02 +1.5761957489e+02 -7.6127296456e+02 8.0779850268e+02 0.0000000000e+00 0.0000e+00 1.0000e+00
        3  1    3    3  501    0 +2.1941590275e+02 -1.5774062157e+02 -1.3072610132e+02 3.0019119847e+02 0.0000000000e+00 0.0000e+00 1.0000e+00
       21  1    1    2  502  501 +3.3325941657e-02 +1.2104667221e-01 +6.9601895584e-01 7.0725193681e-01 0.0000000000e+00 0.0000e+00 -1.0000e+00
<mgrwt>
<rscale>  1 0.65725098E+03</rscale>
<asrwt>0</asrwt>
<pdfrwt beam="1">  1        1 0.39526248E+00 0.65725098E+03</pdfrwt>
<pdfrwt beam="2">0</pdfrwt>
<totfact> 0.14025341E+00</totfact>
</mgrwt>
</event>
<event>
 6      1 +5.6466785e-02 5.43476400e+02 7.81860800e-03 1.00301500e-01
        1 -1    0    0  502    0 +0.0000000000e+00 +0.0000000000e+00 +7.4177162943e+01 7.4177162943e+01 0.0000000000e+00 0.0000e+00 1.0000e+00
       13 -1    0    0    0    0 -0.0000000000e+00 -0.0000000000e+00 -1.0000000000e+03 1.0000000000e+03 0.0000000000e+00 0.0000e+00 1.0000e+00
  9000005  2    1    2  501    0 +1.5882640777e-01 +6.2064837459e-01 -9.2580420209e+02 1.0735362437e+03 5.4347606707e+02 0.0000e+00 0.0000e+00
       13  1    3    3    0    0 -2.7585769934e+01 -2.0678730132e+02 -1.1928745336e+02 2.4031533288e+02 0.0000000000e+00 0.0000e+00 1.0000e+00
        1  1    3    3  501    0 +2.7744596342e+01 +2.0740794969e+02 -8.0651674873e+02 8.3322091081e+02 0.0000000000e+00 0.0000e+00 1.0000e+00
       21  1    1    2  502  501 -1.5882640777e-01 -6.2064837459e-01 -1.8634970770e-02 6.4091925765e-01 0.0000000000e+00 0.0000e+00 1.0000e+00
<mgrwt>
<rscale>  1 0.54347644E+03</rscale>
<asrwt>0</asrwt>
<pdfrwt beam="1">  1        1 0.26973571E+00 0.54347644E+03</pdfrwt>
<pdfrwt beam="2">0</pdfrwt>
<totfact> 0.50342367E+00</totfact>
</mgrwt>
</event>
<event>
 6      1 +5.6466785e-02 6.55741500e+02 7.81860800e-03 9.79606500e-02
        1 -1    0    0  502    0 +0.0000000000e+00 +0.0000000000e+00 +1.2537521260e+02 1.2537521260e+02 0.0000000000e+00 0.0000e+00 1.0000e+00
       13 -1    0    0    0    0 -0.0000000000e+00 -0.0000000000e+00 -1.0000000000e+03 1.0000000000e+03 0.0000000000e+00 0.0000e+00 1.0000e+00
  9000005  2    1    2  501    0 -3.0587964019e-01 +7.7447978061e-01 -8.9249003533e+02 1.1074905693e+03 6.5574095848e+02 0.0000e+00 0.0000e+00
       13  1    3    3    0    0 -3.4497904046e+01 +2.1582104385e+02 -3.3233428319e+01 2.2107304021e+02 0.0000000000e+00 0.0000e+00 1.0000e+00
        3  1    3    3  501    0 +3.4192024406e+01 -2.1504656407e+02 -8.5925660701e+02 8.8641752912e+02 0.0000000000e+00 0.0000e+00 1.0000e+00
       21  1    1    2  502  501 +3.0587964019e-01 -7.7447978061e-01 +1.7865247925e+01 1.7884643265e+01 0.0000000000e+00 0.0000e+00 -1.0000e+00
<mgrwt>
<rscale>  1 0.65574149E+03</rscale>
<asrwt>0</asrwt>
<pdfrwt beam="1">  1        1 0.45591083E+00 0.65574149E+03</pdfrwt>
<pdfrwt beam="2">0</pdfrwt>
<totfact> 0.74520741E-01</totfact>
</mgrwt>
</event>
<event>
 6      1 +5.6466785e-02 6.57942700e+02 7.81860800e-03 9.79198800e-02
        1 -1    0    0  502    0 +0.0000000000e+00 +0.0000000000e+00 +1.0871500478e+02 1.0871500478e+02 0.0000000000e+00 0.0000e+00 1.0000e+00
       13 -1    0    0    0    0 -0.0000000000e+00 -0.0000000000e+00 -1.0000000000e+03 1.0000000000e+03 0.0000000000e+00 0.0000e+00 1.0000e+00
  9000005  2    1    2  501    0 -2.2899028180e-01 -6.5801269244e-01 -8.9148835379e+02 1.1079892142e+03 6.5794234432e+02 0.0000e+00 0.0000e+00
       13  1    3    3    0    0 -2.7843663897e+02 +1.0519310545e+02 -2.0982582102e+02 3.6416950246e+02 0.0000000000e+00 0.0000e+00 1.0000e+00
        1  1    3    3  501    0 +2.7820764869e+02 -1.0585111814e+02 -6.8166253277e+02 7.4381971175e+02 0.0000000000e+00 0.0000e+00 1.0000e+00
       21  1    1    2  502  501 +2.2899028180e-01 +6.5801269244e-01 +2.0335856796e-01 7.2579057567e-01 0.0000000000e+00 0.0000e+00 1.0000e+00
<mgrwt>
<rscale>  1 0.65794271E+03</rscale>
<asrwt>0</asrwt>
<pdfrwt beam="1">  1        1 0.39532812E+00 0.65794271E+03</pdfrwt>
<pdfrwt beam="2">0</pdfrwt>
<totfact> 0.14014107E+00</totfact>
</mgrwt>
</event>
<event>
 6      1 +5.6466785e-02 6.49249200e+02 7.81860800e-03 9.80818900e-02
        1 -1    0    0  502    0 +0.0000000000e+00 +0.0000000000e+00 +1.0539945158e+02 1.0539945158e+02 0.0000000000e+00 0.0000e+00 1.0000e+00
       13 -1    0    0    0    0 -0.0000000000e+00 -0.0000000000e+00 -1.0000000000e+03 1.0000000000e+03 0.0000000000e+00 0.0000e+00 1.0000e+00
  9000005  2    1    2  501    0 -2.8007228779e-03 +1.7461813525e-02 -8.9461404942e+02 1.1053772022e+03 6.4924915198e+02 0.0000e+00 0.0000e+00
       13  1    3    3    0    0 -1.1264815683e+02 -1.4258077642e+02 +1.0679748084e+01 1.8202456444e+02 0.0000000000e+00 0.0000e+00 1.0000e+00
        3  1    3    3  501    0 +1.1264535611e+02 +1.4259823824e+02 -9.0529379751e+02 9.2335263773e+02 0.0000000000e+00 0.0000e+00 1.0000e+00
       21  1    1    2  502  501 +2.8007228779e-03 -1.7461813525e-02 +1.3500997797e-02 2.2249402728e-02 0.0000000000e+00 0.0000e+00 -1.0000e+00
<mgrwt>
<rscale>  1 0.64924915E+03</rscale>
<asrwt>0</asrwt>
<pdfrwt beam="1">  1        1 0.38327154E+00 0.64924915E+03</pdfrwt>
<pdfrwt beam="2">0</pdfrwt>
<totfact> 0.15875025E+00</totfact>
</mgrwt>
</event>
<event>
 6      1 +5.6466785e-02 6.55746000e+02 7.81860800e-03 9.79605700e-02
        1 -1    0    0  502    0 +0.0000000000e+00 +0.0000000000e+00 +1.0750339672e+02 1.0750339672e+02 0.0000000000e+00 0.0000e+00 1.0000e+00
       13 -1    0    0    0    0 -0.0000000000e+00 -0.0000000000e+00 -1.0000000000e+03 1.0000000000e+03 0.0000000000e+00 0.0000e+00 1.0000e+00
  9000005  2    1    2  501    0 +1.7390008591e-03 +1.0140770273e-03 -8.9249888554e+02 1.1075003535e+03 6.5574596630e+02 0.0000e+00 0.0000e+00
       13  1    3    3    0    0 -2.6114355535e+02 -1.9043966541e+02 -5.3931987459e+02 6.2875205748e+02 0.0000000000e+00 0.0000e+00 1.0000e+00
        1  1    3    3  501    0 +2.6114529435e+02 +1.9044067949e+02 -3.5317901095e+02 4.7874829602e+02 0.0000000000e+00 0.0000e+00 1.0000e+00
       21  1    1    2  502  501 -1.7390008590e-03 -1.0140770273e-03 +2.2822597504e-03 3.0432196393e-03 0.0000000000e+00 0.0000e+00 1.0000e+00
<mgrwt>
<rscale>  1 0.65574597E+03</rscale>
<asrwt>0</asrwt>
<pdfrwt beam="1">  1        1 0.39092227E+00 0.65574597E+03</pdfrwt>
<pdfrwt beam="2">0</pdfrwt>
<totfact> 0.14666095E+00</totfact>
</mgrwt>
</event>
<event>
 6      1 +5.6466785e-02 6.20708100e+02 7.81860800e-03 9.86335100e-02
        1 -1    0    0  502    0 +0.0000000000e+00 +0.0000000000e+00 +9.6319836800e+01 9.6319836800e+01 0.0000000000e+00 0.0000e+00 1.0000e+00
       13 -1    0    0    0    0 -0.0000000000e+00 -0.0000000000e+00 -1.0000000000e+03 1.0000000000e+03 0.0000000000e+00 0.0000e+00 1.0000e+00
  9000005  2    1    2  501    0 -1.9901761988e-05 -1.9221380505e-06 -9.0368034895e+02 1.0963196500e+03 6.2070814546e+02 0.0000e+00 0.0000e+00
       13  1    3    3    0    0 -1.2469461488e+02 +1.4975645961e+01 -9.5311219242e+02 9.6135106402e+02 0.0000000000e+00 0.0000e+00 1.0000e+00
        1  1    3    3  501    0 +1.2469459498e+02 -1.4975647883e+01 +4.9431843467e+01 1.3496858596e+02 0.0000000000e+00 0.0000e+00 1.0000e+00
       21  1    1    2  502  501 +1.9901761982e-05 +1.9221380510e-06 +1.8575267805e-04 1.8682567314e-04 0.0000000000e+00 0.0000e+00 -1.0000e+00
<mgrwt>
<rscale>  1 0.62070815E+03</rscale>
<asrwt>0</asrwt>
<pdfrwt beam="1">  1        1 0.35025469E+00 0.62070815E+03</pdfrwt>
<pdfrwt beam="2">0</pdfrwt>
<totfact> 0.22273970E+00</totfact>
</mgrwt>
</event>
<event>
 6      1 +5.6466785e-02 6.47537000e+02 7.81860800e-03 9.81141200e-02
        3 -1    0    0  502    0 +0.0000000000e+00 +0.0000000000e+00 +1.0482605324e+02 1.0482605324e+02 0.0000000000e+00 0.0000e+00 1.0000e+00
       13 -1    0    0    0    0 -0.0000000000e+00 -0.0000000000e+00 -1.0000000000e+03 1.0000000000e+03 0.0000000000e+00 0.0000e+00 1.0000e+00
  9000005  2    1    2  501    0 +5.8498303019e-06 +3.1797574422e-06 -8.9517396862e+02 1.1048260304e+03 6.4753696678e+02 0.0000e+00 0.0000e+00
       13  1    3    3    0    0 +1.9703160184e+02 +2.0758869042e+02 -7.0584645246e+02 7.6166510420e+02 0.0000000000e+00 0.0000e+00 1.0000e+00
        3  1    3    3  501    0 -1.9703159599e+02 -2.0758868724e+02 -1.8932751616e+02 3.4316092619e+02 0.0000000000e+00 0.0000e+00 1.0000e+00
       21  1    1    2  502  501 -5.8498303206e-06 -3.1797574301e-06 +2.1854175137e-05 2.2845926179e-05 0.0000000000e+00 0.0000e+00 1.0000e+00
<mgrwt>
<rscale>  1 0.64753697E+03</rscale>
<asrwt>0</asrwt>
<pdfrwt beam="1">  1        3 0.38118645E+00 0.64753697E+03</pdfrwt>
<pdfrwt beam="2">0</pdfrwt>
<totfact> 0.74428355E-02</totfact>
</mgrwt>
</event>
<event>
 6      1 +5.6466785e-02 6.55443300e+02 7.81860800e-03 9.79661800e-02
        1 -1    0    0  502    0 +0.0000000000e+00 +0.0000000000e+00 +1.0740453087e+02 1.0740453087e+02 0.0000000000e+00 0.0000e+00 1.0000e+00
       13 -1    0    0    0    0 -0.0000000000e+00 -0.0000000000e+00 -1.0000000000e+03 1.0000000000e+03 0.0000000000e+00 0.0000e+00 1.0000e+00
  9000005  2    1    2  501    0 -3.7874195868e-07 +6.0654836489e-05 -8.9259851138e+02 1.1074014880e+03 6.5544332566e+02 0.0000e+00 0.0000e+00
       13  1    3    3    0    0 -2.1843302147e+02 +3.1327992809e+01 -3.6930090553e+01 2.2373703223e+02 0.0000000000e+00 0.0000e+00 1.0000e+00
        1  1    3    3  501    0 +2.1843302109e+02 -3.1327932154e+01 -8.5566842082e+02 8.8366445579e+02 0.0000000000e+00 0.0000e+00 1.0000e+00
       21  1    1    2  502  501 +3.7874196077e-07 -6.0654836487e-05 +3.0422427885e-03 3.0428474061e-03 0.0000000000e+00 0.0000e+00 1.0000e+00
<mgrwt>
<rscale>  1 0.65544333E+03</rscale>
<asrwt>0</asrwt>
<pdfrwt beam="1">  1        1 0.39056275E+00 0.65544333E+03</pdfrwt>
<pdfrwt beam="2">0</pdfrwt>
<totfact> 0.14720884E+00</totfact>
</mgrwt>
</event>
<event>
 6      1 +5.6466785e-02 6.45153500e+02 7.81860800e-03 9.81591600e-02
        1 -1    0    0  502    0 +0.0000000000e+00 +0.0000000000e+00 +1.0414707073e+02 1.0414707073e+02 0.0000000000e+00 0.0000e+00 1.0000e+00
       13 -1    0    0    0    0 -0.0000000000e+00 -0.0000000000e+00 -1.0000000000e+03 1.0000000000e+03 0.0000000000e+00 0.0000e+00 1.0000e+00
  9000005  2    1    2  501    0 -6.1176583305e-03 -1.2315955678e-03 -8.9594413518e+02 1.1040556516e+03 6.4515346112e+02 0.0000e+00 0.0000e+00
       13  1    3    3    0    0 -1.9968422090e+02 +2.3610208693e+02 -2.9076935786e+02 4.2445824648e+02 0.0000000000e+00 0.0000e+00 1.0000e+00
        3  1    3    3  501    0 +1.9967810324e+02 -2.3610331853e+02 -6.0517477731e+02 6.7959740511e+02 0.0000000000e+00 0.0000e+00 1.0000e+00
       21  1    1    2  502  501 +6.1176583305e-03 +1.2315955678e-03 +9.1205907486e-02 9.1419145322e-02 0.0000000000e+00 0.0000e+00 -1.0000e+00
<mgrwt>
<rscale>  1 0.64515346E+03</rscale>
<asrwt>0</asrwt>
<pdfrwt beam="1">  1        1 0.37871742E+00 0.64515346E+03</pdfrwt>
<pdfrwt beam="2">0</pdfrwt>
<totfact> 0.16639695E+00</totfact>
</mgrwt>
</event>
<event>
 6      1 +5.6466785e-02 6.58830900e+02 7.81860800e-03 9.79034800e-02
        1 -1    0    0  502    0 +0.0000000000e+00 +0.0000000000e+00 +1.0854239436e+02 1.0854239436e+02 0.0000000000e+00 0.0000e+00 1.0000e+00
       13 -1    0    0    0    0 -0.0000000000e+00 -0.0000000000e+00 -1.0000000000e+03 1.0000000000e+03 0.0000000000e+00 0.0000e+00 1.0000e+00
  9000005  2    1    2  501    0 +1.1105083872e-03 +8.1277737530e-04 -8.9148545282e+02 1.1085145132e+03 6.5883086856e+02 0.0000e+00 0.0000e+00
       13  1    3    3    0    0 -1.8425398308e+02 +2.7298542454e+02 -4.3458538701e+02 5.4528435783e+02 0.0000000000e+00 0.0000e+00 1.0000e+00
        1  1    3    3  501    0 +1.8425509359e+02 -2.7298461176e+02 -4.5690006581e+02 5.6323015536e+02 0.0000000000e+00 0.0000e+00 1.0000e+00
       21  1    1    2  502  501 -1.1105083872e-03 -8.1277737533e-04 +2.7847185471e-02 2.7881168817e-02 0.0000000000e+00 0.0000e+00 1.0000e+00
<mgrwt>
<rscale>  1 0.65883087E+03</rscale>
<asrwt>0</asrwt>
<pdfrwt beam="1">  1        1 0.39470045E+00 0.65883087E+03</pdfrwt>
<pdfrwt beam="2">0</pdfrwt>
<totfact> 0.14102129E+00</totfact>
</mgrwt>
</event>
<event>
 6      1 +5.6466785e-02 6.58462100e+02 7.81860800e-03 9.79102900e-02
        1 -1    0    0  502    0 +0.0000000000e+00 +0.0000000000e+00 +1.0840972993e+02 1.0840972993e+02 0.0000000000e+00 0.0000e+00 1.0000e+00
       13 -1    0    0    0    0 -0.0000000000e+00 -0.0000000000e+00 -1.0000000000e+03 1.0000000000e+03 0.0000000000e+00 0.0000e+00 1.0000e+00
  9000005  2    1    2  501    0 -9.8972818634e-04 -9.8541099956e-04 -8.9160689911e+02 1.1083930423e+03 6.5846205189e+02 0.0000e+00 0.0000e+00
       13  1    3    3    0    0 +2.3106584956e+02 +2.3113241237e+02 -3.7891374901e+02 5.0038909668e+02 0.0000000000e+00 0.0000e+00 1.0000e+00
        1  1    3    3  501    0 -2.3106683929e+02 -2.3113339778e+02 -5.1269315010e+02 6.0800394567e+02 0.0000000000e+00 0.0000e+00 1.0000e+00
       21  1    1    2  502  501 +9.8972818635e-04 +9.8541099957e-04 +1.6629034211e-02 1.6687581476e-02 0.0000000000e+00 0.0000e+00 -1.0000e+00
<mgrwt>
<rscale>  1 0.65846205E+03</rscale>
<asrwt>0</asrwt>
<pdfrwt beam="1">  1        1 0.39421803E+00 0.65846205E+03</pdfrwt>
<pdfrwt beam="2">0</pdfrwt>
<totfact> 0.14172911E+00</totfact>
</mgrwt>
</event>
<event>
 6      1 +5.6466785e-02 6.48314600e+02 7.81860800e-03 9.80994700e-02
        1 -1    0    0  502    0 +0.0000000000e+00 +0.0000000000e+00 +1.0507834202e+02 1.0507834202e+02 0.0000000000e+00 0.0000e+00 1.0000e+00
       13 -1    0    0    0    0 -0.0000000000e+00 -0.0000000000e+00 -1.0000000000e+03 1.0000000000e+03 0.0000000000e+00 0.0000e+00 1.0000e+00
  9000005  2    1    2  501    0 +2.8310598350e-04 +2.7395180968e-04 -8.9492194373e+02 1.1050778553e+03 6.4831456949e+02 0.0000e+00 0.0000e+00
       13  1    3    3    0    0 +3.2245873759e+02 +1.0787415412e+00 -3.9099906243e+02 5.0681462879e+02 0.0000000000e+00 0.0000e+00 1.0000e+00
        1  1    3    3  501    0 -3.2245845448e+02 -1.0784675894e+00 -5.0392288129e+02 5.9826322656e+02 0.0000000000e+00 0.0000e+00 1.0000e+00
       21  1    1    2  502  501 -2.8310598347e-04 -2.7395180968e-04 +2.8574996120e-04 4.8667405132e-04 0.0000000000e+00 0.0000e+00 -1.0000e+00
<mgrwt>
<rscale>  1 0.64831457E+03</rscale>
<asrwt>0</asrwt>
<pdfrwt beam="1">  1        1 0.38210387E+00 0.64831457E+03</pdfrwt>
<pdfrwt beam="2">0</pdfrwt>
<totfact> 0.16067492E+00</totfact>
</mgrwt>
</event>
<event>
 6      1 +5.6466785e-02 6.60617700e+02 7.81860800e-03 9.78705700e-02
        1 -1    0    0  502    0 +0.0000000000e+00 +0.0000000000e+00 +1.0910393436e+02 1.0910393436e+02 0.0000000000e+00 0.0000e+00 1.0000e+00
       13 -1    0    0    0    0 -0.0000000000e+00 -0.0000000000e+00 -1.0000000000e+03 1.0000000000e+03 0.0000000000e+00 0.0000e+00 1.0000e+00
  9000005  2    1    2  501    0 -2.9130928851e-06 +4.4923723408e-07 -8.9089606956e+02 1.1091039295e+03 6.6061768033e+02 0.0000e+00 0.0000e+00
       13  1    3    3    0    0 +1.1017985742e+02 +1.5003333812e+02 -9.0355513120e+02 9.2252993374e+02 0.0000000000e+00 0.0000e+00 1.0000e+00
        1  1    3    3  501    0 -1.1017986033e+02 -1.5003333767e+02 +1.2659061636e+01 1.8657399571e+02 0.0000000000e+00 0.0000e+00 1.0000e+00
       21  1    1    2  502  501 +2.9130928905e-06 -4.4923721159e-07 +3.9211960542e-06 4.9054768124e-06 0.0000000000e+00 0.0000e+00 1.0000e+00
<mgrwt>
<rscale>  1 0.66061768E+03</rscale>
<asrwt>0</asrwt>
<pdfrwt beam="1">  1        1 0.39674242E+00 0.66061768E+03</pdfrwt>
<pdfrwt beam="2">0</pdfrwt>
<totfact> 0.13805628E+00</totfact>
</mgrwt>
</event>
<event>
 6      1 +5.6466785e-02 6.52032100e+02 7.81860800e-03 9.80297400e-02
        1 -1    0    0  502    0 +0.0000000000e+00 +0.0000000000e+00 +1.0631561407e+02 1.0631561407e+02 0.0000000000e+00 0.0000e+00 1.0000e+00
       13 -1    0    0    0    0 -0.0000000000e+00 -0.0000000000e+00 -1.0000000000e+03 1.0000000000e+03 0.0000000000e+00 0.0000e+00 1.0000e+00
  9000005  2    1    2  501    0 -5.6743333820e-04 -3.9806755050e-04 -8.9371353174e+02 1.1062864600e+03 6.5203209644e+02 0.0000e+00 0.0000e+00
       13  1    3    3    0    0 +2.2098920379e+02 +1.3177262065e+01 -8.5291323185e+02 8.8117583347e+02 0.0000000000e+00 0.0000e+00 1.0000e+00
        3  1    3    3  501    0 -2.2098977122e+02 -1.3177660133e+01 -4.0800299896e+01 2.2511062655e+02 0.0000000000e+00 0.0000e+00 1.0000e+00
       21  1    1    2  502  501 +5.6743333820e-04 +3.9806755050e-04 +2.9145817866e-02 2.9154058679e-02 0.0000000000e+00 0.0000e+00 -1.0000e+00
<mgrwt>
<rscale>  1 0.65203210E+03</rscale>
<asrwt>0</asrwt>
<pdfrwt beam="1">  1        1 0.38660305E+00 0.65203210E+03</pdfrwt>
<pdfrwt beam="2">0</pdfrwt>
<totfact> 0.15337537E+00</totfact>
</mgrwt>
</event>
<event>
 6      1 +5.6466785e-02 6.59978300e+02 7.81860800e-03 9.78823400e-02
        1 -1    0    0  502    0 +0.0000000000e+00 +0.0000000000e+00 +1.0889699656e+02 1.0889699656e+02 0.0000000000e+00 0.0000e+00 1.0000e+00
       13 -1    0    0    0    0 -0.0000000000e+00 -0.0000000000e+00 -1.0000000000e+03 1.0000000000e+03 0.0000000000e+00 0.0000e+00 1.0000e+00
  9000005  2    1    2  501    0 -3.3473963279e-04 -4.9606605359e-05 -8.9110715008e+02 1.1088928361e+03 6.5997830959e+02 0.0000e+00 0.0000e+00
       13  1    3    3    0    0 -2.5553077912e+02 +1.9228093324e+02 -5.8231158027e+02 6.6434532653e+02 0.0000000000e+00 0.0000e+00 1.0000e+00
        1  1    3    3  501    0 +2.5553044438e+02 -1.9228098285e+02 -3.0879556981e+02 4.4454750961e+02 0.0000000000e+00 0.0000e+00 1.0000e+00
       21  1    1    2  502  501 +3.3473963278e-04 +4.9606605380e-05 +4.1466373720e-03 4.1604222060e-03 0.0000000000e+00 0.0000e+00 -1.0000e+00
<mgrwt>
<rscale>  1 0.65997831E+03</rscale>
<asrwt>0</asrwt>
<pdfrwt beam="1">  1        1 0.39598991E+00 0.65997831E+03</pdfrwt>
<pdfrwt beam="2">0</pdfrwt>
<totfact> 0.13914151E+00</totfact>
</mgrwt>
</event>
<event>
 6      1 +5.6466785e-02 6.54878100e+02 7.81860800e-03 9.79766900e-02
        1 -1    0    0  502    0 +0.0000000000e+00 +0.0000000000e+00 +1.0722488095e+02 1.0722488095e+02 0.0000000000e+00 0.0000e+00 1.0000e+00
       13 -1    0    0    0    0 -0.0000000000e+00 -0.0000000000e+00 -1.0000000000e+03 1.0000000000e+03 0.0000000000e+00 0.0000e+00 1.0000e+00
  9000005  2    1    2  501    0 +6.9591134121e-05 -2.6123685416e-04 -8.9278366366e+02 1.1072163321e+03 6.5487810765e+02 0.0000e+00 0.0000e+00
       13  1    3    3    0    0 +1.9176374358e+02 -2.5885004865e+02 -3.4723247619e+02 4.7365290409e+02 0.0000000000e+00 0.0000e+00 1.0000e+00
        3  1    3    3  501    0 -1.9176367399e+02 +2.5884978741e+02 -5.4555118747e+02 6.3356342797e+02 0.0000000000e+00 0.0000e+00 1.0000e+00
       21  1    1    2  502  501 -6.9591134142e-05 +2.6123685417e-04 +8.5446141227e-03 8.5488898768e-03 0.0000000000e+00 0.0000e+00 -1.0000e+00
<mgrwt>
<rscale>  1 0.65487811E+03</rscale>
<asrwt>0</asrwt>
<pdfrwt beam="1">  1        1 0.38990948E+00 0.65487811E+03</pdfrwt>
<pdfrwt beam="2">0</pdfrwt>
<totfact> 0.14820980E+00</totfact>
</mgrwt>
</event>
<event>
 6      1 +5.6466785e-02 6.59051100e+02 7.81860800e-03 9.78994200e-02
        1 -1    0    0  502    0 +0.0000000000e+00 +0.0000000000e+00 +1.0858719131e+02 1.0858719131e+02 0.0000000000e+00 0.0000e+00 1.0000e+00
       13 -1    0    0    0    0 -0.0000000000e+00 -0.0000000000e+00 -1.0000000000e+03 1.0000000000e+03 0.0000000000e+00 0.0000e+00 1.0000e+00
  9000005  2    1    2  501    0 +9.3026056902e-07 +4.3331146571e-05 -8.9141291543e+02 1.1085870761e+03 6.5905107504e+02 0.0000e+00 0.0000e+00
       13  1    3    3    0    0 -2.0696828542e+02 -1.2786533628e+02 -7.1835683021e+01 2.5366470142e+02 0.0000000000e+00 0.0000e+00 1.0000e+00
        1  1    3    3  501    0 +2.0696828635e+02 +1.2786537961e+02 -8.1957723241e+02 8.5492237469e+02 0.0000000000e+00 0.0000e+00 1.0000e+00
       21  1    1    2  502  501 -9.3026055858e-07 -4.3331146580e-05 +1.0673908792e-04 1.1520280612e-04 0.0000000000e+00 0.0000e+00 1.0000e+00
<mgrwt>
<rscale>  1 0.65905108E+03</rscale>
<asrwt>0</asrwt>
<pdfrwt beam="1">  1        1 0.39486335E+00 0.65905108E+03</pdfrwt>
<pdfrwt beam="2">0</pdfrwt>
<totfact> 0.14078052E+00</totfact>
</mgrwt>
</event>
<event>
 6      1 +5.6466785e-02 6.26599600e+02 7.81860800e-03 9.85170700e-02
        1 -1    0    0  502    0 +0.0000000000e+00 +0.0000000000e+00 +9.9172889193e+01 9.9172889193e+01 0.0000000000e+00 0.0000e+00 1.0000e+00
       13 -1    0    0    0    0 -0.0000000000e+00 -0.0000000000e+00 -1.0000000000e+03 1.0000000000e+03 0.0000000000e+00 0.0000e+00 1.0000e+00
  9000005  2    1    2  501    0 -3.9098532638e-02 +6.2504061847e-02 -9.0184175442e+02 1.0981555706e+03 6.2659963437e+02 0.0000e+00 0.0000e+00
       13  1    3    3    0    0 +4.8735182307e+00 -1.5477950294e+02 +2.6386490608e+01 1.5708816823e+02 0.0000000000e+00 0.0000e+00 1.0000e+00
        3  1    3    3  501    0 -4.9126167633e+00 +1.5484200701e+02 -9.2822824503e+02 9.4106740237e+02 0.0000000000e+00 0.0000e+00 1.0000e+00
       21  1    1    2  502  501 +3.9098532638e-02 -6.2504061847e-02 +1.0146436130e+00 1.0173185904e+00 0.0000000000e+00 0.0000e+00 1.0000e+00
<mgrwt>
<rscale>  1 0.62659964E+03</rscale>
<asrwt>0</asrwt>
<pdfrwt beam="1">  1        1 0.36062945E+00 0.62659964E+03</pdfrwt>
<pdfrwt beam="2">0</pdfrwt>
<totfact> 0.20046738E+00</totfact>
</mgrwt>
</event>
<event>
 6      1 +5.6466785e-02 6.56808200e+02 7.81860800e-03 9.79408700e-02
        1 -1    0    0  502    0 +0.0000000000e+00 +0.0000000000e+00 +1.3689428166e+02 1.3689428166e+02 0.0000000000e+00 0.0000e+00 1.0000e+00
       13 -1    0    0    0    0 -0.0000000000e+00 -0.0000000000e+00 -1.0000000000e+03 1.0000000000e+03 0.0000000000e+00 0.0000e+00 1.0000e+00
  9000005  2    1    2  501    0 +1.5384008474e+00 +4.8942419815e+00 -8.9189954887e+02 1.1076469748e+03 6.5678816619e+02 0.0000e+00 0.0000e+00
       13  1    3    3    0    0 -2.1060418017e+02 -1.7155312455e+02 -1.3767143172e+02 3.0452917489e+02 0.0000000000e+00 0.0000e+00 1.0000e+00
        1  1    3    3  501    0 +2.1214258102e+02 +1.7644736653e+02 -7.5422811715e+02 8.0311779991e+02 0.0000000000e+00 0.0000e+00 1.0000e+00
       21  1    1    2  502  501 -1.5384008474e+00 -4.8942419815e+00 +2.8793830529e+01 2.9247306855e+01 0.0000000000e+00 0.0000e+00 -1.0000e+00
<mgrwt>
<rscale>  1 0.65680820E+03</rscale>
<asrwt>0</asrwt>
<pdfrwt beam="1">  1        1 0.49779844E+00 0.65680820E+03</pdfrwt>
<pdfrwt beam="2">0</pdfrwt>
<totfact> 0.47303985E-01</totfact>
</mgrwt>
</event>
<event>
 6      1 +5.6466785e-02 5.87637500e+02 7.81860800e-03 9.93139100e-02
        1 -1    0    0  502    0 +0.0000000000e+00 +0.0000000000e+00 +8.6343869330e+01 8.6343869330e+01 0.0000000000e+00 0.0000e+00 1.0000e+00
       13 -1    0    0    0    0 -0.0000000000e+00 -0.0000000000e+00 -1.0000000000e+03 1.0000000000e+03 0.0000000000e+00 0.0000e+00 1.0000e+00
  9000005  2    1    2  501    0 -3.7958383038e-04 +1.7568042949e-06 -9.1367053498e+02 1.0863294600e+03 5.8763751516e+02 0.0000e+00 0.0000e+00
       13  1    3    3    0    0 +2.1150170592e+02 +1.4250493173e+02 -7.2656376653e+02 7.7002307368e+02 0.0000000000e+00 0.0000e+00 1.0000e+00
        1  1    3    3  501    0 -2.1150208551e+02 -1.4250492997e+02 -1.8710676845e+02 3.1630638634e+02 0.0000000000e+00 0.0000e+00 1.0000e+00
       21  1    1    2  502  501 +3.7958383039e-04 -1.7568043152e-06 +1.4404306684e-02 1.4409307340e-02 0.0000000000e+00 0.0000e+00 -1.0000e+00
<mgrwt>
<rscale>  1 0.58763752E+03</rscale>
<asrwt>0</asrwt>
<pdfrwt beam="1">  1        1 0.31397837E+00 0.58763752E+03</pdfrwt>
<pdfrwt beam="2">0</pdfrwt>
<totfact> 0.32182999E+00</totfact>
</mgrwt>
</event>
<event>
 6      1 +5.6466785e-02 5.14832400e+02 7.81860800e-03 1.00997800e-01
        1 -1    0    0  502    0 +0.0000000000e+00 +0.0000000000e+00 +6.6263190175e+01 6.6263190175e+01 0.0000000000e+00 0.0000e+00 1.0000e+00
       13 -1    0    0    0    0 -0.0000000000e+00 -0.0000000000e+00 -1.0000000000e+03 1.0000000000e+03 0.0000000000e+00 0.0000e+00 1.0000e+00
  9000005  2    1    2  501    0 -3.8635713707e-05 -1.2614818388e-05 -9.3373690565e+02 1.0662630861e+03 5.1483236087e+02 0.0000e+00 0.0000e+00
       13  1    3    3    0    0 +2.2142104004e+01 +2.4877923996e+02 -5.9590408031e+02 6.4612928732e+02 0.0000000000e+00 0.0000e+00 1.0000e+00
        1  1    3    3  501    0 -2.2142142640e+01 -2.4877925258e+02 -3.3783282533e+02 4.2013379877e+02 0.0000000000e+00 0.0000e+00 1.0000e+00
       21  1    1    2  502  501 +3.8635713707e-05 +1.2614818396e-05 +9.5821446401e-05 1.0408458871e-04 0.0000000000e+00 0.0000e+00 1.0000e+00
<mgrwt>
<rscale>  1 0.51483236E+03</rscale>
<asrwt>0</asrwt>
<pdfrwt beam="1">  1        1 0.24095756E+00 0.51483236E+03</pdfrwt>
<pdfrwt beam="2">0</pdfrwt>
<totfact> 0.67460003E+00</totfact>
</mgrwt>
</event>
<event>
 6      1 +5.6466785e-02 6.47769500e+02 7.81860800e-03 9.81097400e-02
        1 -1    0    0  502    0 +0.0000000000e+00 +0.0000000000e+00 +1.0869530123e+02 1.0869530123e+02 0.0000000000e+00 0.0000e+00 1.0000e+00
       13 -1    0    0    0    0 -0.0000000000e+00 -0.0000000000e+00 -1.0000000000e+03 1.0000000000e+03 0.0000000000e+00 0.0000e+00 1.0000e+00
  9000005  2    1    2  501    0 -4.6838427538e+00 -9.5904024789e+00 -8.8324714607e+02 1.0953222553e+03 6.4768156346e+02 0.0000e+00 0.0000e+00
       13  1    3    3    0    0 +6.9994789243e+01 +2.7960865871e+02 -2.0346386907e+02 3.5281414167e+02 0.0000000000e+00 0.0000e+00 1.0000e+00
        3  1    3    3  501    0 -7.4678631996e+01 -2.8919906119e+02 -6.7978327701e+02 7.4250811360e+02 0.0000000000e+00 0.0000e+00 1.0000e+00
       21  1    1    2  502  501 +4.6838427538e+00 +9.5904024789e+00 -8.0575526976e+00 1.3373045955e+01 0.0000000000e+00 0.0000e+00 -1.0000e+00
<mgrwt>
<rscale>  1 0.64776950E+03</rscale>
<asrwt>0</asrwt>
<pdfrwt beam="1">  1        1 0.39525647E+00 0.64776950E+03</pdfrwt>
<pdfrwt beam="2">0</pdfrwt>
<totfact> 0.14051218E+00</totfact>
</mgrwt>
</event>
<event>
 6      1 +5.6466785e-02 6.61045400e+02 7.81860800e-03 9.78627100e-02
        1 -1    0    0  502    0 +0.0000000000e+00 +0.0000000000e+00 +1.1662444957e+02 1.1662444957e+02 0.0000000000e+00 0.0000e+00 1.0000e+00
       13 -1    0    0    0    0 -0.0000000000e+00 -0.0000000000e+00 -1.0000000000e+03 1.0000000000e+03 0.0000000000e+00 0.0000e+00 1.0000e+00
  9000005  2    1    2  501    0 -1.2014067716e-01 +3.3617338142e-01 -8.9074996427e+02 1.1092413997e+03 6.6104527565e+02 0.0000e+00 0.0000e+00
       13  1    3    3    0    0 +7.3172268541e+01 -2.2560989383e+02 -8.3116878257e+02 8.6434689228e+02 0.0000000000e+00 0.0000e+00 1.0000e+00
        3  1    3    3  501    0 -7.3292409219e+01 +2.2594606721e+02 -5.9581181695e+01 2.4489450739e+02 0.0000000000e+00 0.0000e+00 1.0000e+00
       21  1    1    2  502  501 +1.2014067716e-01 -3.3617338142e-01 +7.3744138380e+00 7.3830498968e+00 0.0000000000e+00 0.0000e+00 1.0000e+00
<mgrwt>
<rscale>  1 0.66104537E+03</rscale>
<asrwt>0</asrwt>
<pdfrwt beam="1">  1        1 0.42408980E+00 0.66104537E+03</pdfrwt>
<pdfrwt beam="2">0</pdfrwt>
<totfact> 0.10407321E+00</totfact>
</mgrwt>
</event>
<event>
 6      1 +5.6466785e-02 6.48559900e+02 7.81860800e-03 9.80948500e-02
        1 -1    0    0  502    0 +0.0000000000e+00 +0.0000000000e+00 +1.0517916900e+02 1.0517916900e+02 0.0000000000e+00 0.0000e+00 1.0000e+00
       13 -1    0    0    0    0 -0.0000000000e+00 -0.0000000000e+00 -1.0000000000e+03 1.0000000000e+03 0.0000000000e+00 0.0000e+00 1.0000e+00
  9000005  2    1    2  501    0 -5.6074392787e-03 -8.4969185827e-03 -8.9484117319e+02 1.1051564216e+03 6.4855993617e+02 0.0000e+00 0.0000e+00
       13  1    3    3    0    0 -3.1585415047e+02 -2.6738114518e+01 -5.6400648599e+02 6.4697920166e+02 0.0000000000e+00 0.0000e+00 1.0000e+00
        1  1    3    3  501    0 +3.1584854303e+02 +2.6729617599e+01 -3.3083468720e+02 4.5817721991e+02 0.0000000000e+00 0.0000e+00 1.0000e+00
       21  1    1    2  502  501 +5.6074392787e-03 +8.4969185827e-03 +2.0342182436e-02 2.2747425940e-02 0.0000000000e+00 0.0000e+00 1.0000e+00
<mgrwt>
<rscale>  1 0.64855994E+03</rscale>
<asrwt>0</asrwt>
<pdfrwt beam="1">  1        1 0.38247051E+00 0.64855994E+03</pdfrwt>
<pdfrwt beam="2">0</pdfrwt>
<totfact> 0.16006962E+00</totfact>
</mgrwt>
</event>
<event>
 6      1 +5.6466785e-02 5.81495500e+02 7.81860800e-03 9.94455800e-02
        1 -1    0    0  502    0 +0.0000000000e+00 +0.0000000000e+00 +8.4535768186e+01 8.4535768186e+01 0.0000000000e+00 0.0000e+00 1.0000e+00
       13 -1    0    0    0    0 -0.0000000000e+00 -0.0000000000e+00 -1.0000000000e+03 1.0000000000e+03 0.0000000000e+00 0.0000e+00 1.0000e+00
  9000005  2    1    2  501    0 +9.5415543115e-05 +3.3427181961e-05 -9.1546572968e+02 1.0845342669e+03 5.8149554931e+02 0.0000e+00 0.0000e+00
       13  1    3    3    0    0 +2.5042903374e+02 +1.2802702318e+02 -3.2031485798e+02 4.2627130779e+02 0.0000000000e+00 0.0000e+00 1.0000e+00
        1  1    3    3  501    0 -2.5042893832e+02 -1.2802698975e+02 -5.9515087170e+02 6.5826295912e+02 0.0000000000e+00 0.0000e+00 1.0000e+00
       21  1    1    2  502  501 -9.5415543108e-05 -3.3427181969e-05 +1.4978692511e-03 1.5012773880e-03 0.0000000000e+00 0.0000e+00 -1.0000e+00
<mgrwt>
<rscale>  1 0.58149555E+03</rscale>
<asrwt>0</asrwt>
<pdfrwt beam="1">  1        1 0.30740344E+00 0.58149555E+03</pdfrwt>
<pdfrwt beam="2">0</pdfrwt>
<totfact> 0.34394444E+00</totfact>
</mgrwt>
</event>
<event>
 6      1 +5.6466785e-02 6.22327700e+02 7.81860800e-03 9.86013600e-02
        1 -1    0    0  502    0 +0.0000000000e+00 +0.0000000000e+00 +9.6823712205e+01 9.6823712205e+01 0.0000000000e+00 0.0000e+00 1.0000e+00
       13 -1    0    0    0    0 -0.0000000000e+00 -0.0000000000e+00 -1.0000000000e+03 1.0000000000e+03 0.0000000000e+00 0.0000e+00 1.0000e+00
  9000005  2    1    2  501    0 -1.5240409401e-03 +4.0473548151e-04 -9.0317603369e+02 1.0968221150e+03 6.2232773046e+02 0.0000e+00 0.0000e+00
       13  1    3    3    0    0 -1.6437324986e+01 -2.2512479512e+02 -7.4112475935e+01 2.3757949852e+02 0.0000000000e+00 0.0000e+00 1.0000e+00
        3  1    3    3  501    0 +1.6435800946e+01 +2.2512519985e+02 -8.2906355776e+02 8.5924261647e+02 0.0000000000e+00 0.0000e+00 1.0000e+00
       21  1    1    2  502  501 +1.5240409401e-03 -4.0473548152e-04 -2.5410126675e-04 1.5972097704e-03 0.0000000000e+00 0.0000e+00 -1.0000e+00
<mgrwt>
<rscale>  1 0.62232773E+03</rscale>
<asrwt>0</asrwt>
<pdfrwt beam="1">  1        1 0.35208697E+00 0.62232773E+03</pdfrwt>
<pdfrwt beam="2">0</pdfrwt>
<totfact> 0.21861731E+00</totfact>
</mgrwt>
</event>
<event>
 6      1 +5.6466785e-02 6.60698700e+02 7.81860800e-03 9.78690800e-02
        1 -1    0    0  502    0 +0.0000000000e+00 +0.0000000000e+00 +1.0960832472e+02 1.0960832472e+02 0.0000000000e+00 0.0000e+00 1.0000e+00
       13 -1    0    0    0    0 -0.0000000000e+00 -0.0000000000e+00 -1.0000000000e+03 1.0000000000e+03 0.0000000000e+00 0.0000e+00 1.0000e+00
  9000005  2    1    2  501    0 -6.2860738873e-03 -4.3412151768e-03 -8.9086928051e+02 1.1091306584e+03 6.6069867745e+02 0.0000e+00 0.0000e+00
       13  1    3    3    0    0 +1.8480211376e+02 -6.3664133734e+01 +1.6402334829e+00 1.9546773018e+02 0.0000000000e+00 0.0000e+00 1.0000e+00
        3  1    3    3  501    0 -1.8480839983e+02 +6.3659792519e+01 -8.9250951399e+02 9.1366292822e+02 0.0000000000e+00 0.0000e+00 1.0000e+00
       21  1    1    2  502  501 +6.2860738873e-03 +4.3412151768e-03 +4.7760523220e-01 4.7766632569e-01 0.0000000000e+00 0.0000e+00 -1.0000e+00
<mgrwt>
<rscale>  1 0.66069868E+03</rscale>
<asrwt>0</asrwt>
<pdfrwt beam="1">  1        1 0.39857657E+00 0.66069868E+03</pdfrwt>
<pdfrwt beam="2">0</pdfrwt>
<totfact> 0.13548197E+00</totfact>
</mgrwt>
</event>
<event>
 6      1 +5.6466785e-02 6.63067200e+02 7.81860800e-03 9.78256400e-02
        1 -1    0    0  502    0 +0.0000000000e+00 +0.0000000000e+00 +1.4158062347e+02 1.4158062347e+02 0.0000000000e+00 0.0000e+00 1.0000e+00
       13 -1    0    0    0    0 -0.0000000000e+00 -0.0000000000e+00 -1.0000000000e+03 1.0000000000e+03 0.0000000000e+00 0.0000e+00 1.0000e+00
  9000005  2    1    2  501    0 +2.6739176020e+00 +8.8977782570e+00 -8.8932723714e+02 1.1093065450e+03 6.6300207828e+02 0.0000e+00 0.0000e+00
       13  1    3    3    0    0 +2.4031733539e+02 +2.2914901619e+02 -5.3035636765e+02 6.2573122826e+02 0.0000000000e+00 0.0000e+00 1.0000e+00
        1  1    3    3  501    0 -2.3764341779e+02 -2.2025123794e+02 -3.5897086949e+02 4.8357531675e+02 0.0000000000e+00 0.0000e+00 1.0000e+00
       21  1    1    2  502  501 -2.6739176020e+00 -8.8977782570e+00 +3.0907860609e+01 3.2274078464e+01 0.0000000000e+00 0.0000e+00 1.0000e+00
<mgrwt>
<rscale>  1 0.66306717E+03</rscale>
<asrwt>0</asrwt>
<pdfrwt beam="1">  1        1 0.51483972E+00 0.66306717E+03</pdfrwt>
<pdfrwt beam="2">0</pdfrwt>
<totfact> 0.39064062E-01</totfact>
</mgrwt>
</event>
<event>
 6      1 +5.6466785e-02 6.56647400e+02 7.81860800e-03 9.79438500e-02
        1 -1    0    0  502    0 +0.0000000000e+00 +0.0000000000e+00 +1.1529324952e+02 1.1529324952e+02 0.0000000000e+00 0.0000e+00 1.0000e+00
       13 -1    0    0    0    0 -0.0000000000e+00 -0.0000000000e+00 -1.0000000000e+03 1.0000000000e+03 0.0000000000e+00 0.0000e+00 1.0000e+00
  9000005  2    1    2  501    0 +1.3229814248e+01 +5.4837999347e+00 -8.8366885469e+02 1.1009343751e+03 6.5649124404e+02 0.0000e+00 0.0000e+00
       13  1    3    3    0    0 +3.3244171748e+02 -3.4667667359e+01 -4.7521160195e+02 5.8098658273e+02 0.0000000000e+00 0.0000e+00 1.0000e+00
        1  1    3    3  501    0 -3.1921190323e+02 +4.0151467294e+01 -4.0845725273e+02 5.1994779238e+02 0.0000000000e+00 0.0000e+00 1.0000e+00
       21  1    1    2  502  501 -1.3229814248e+01 -5.4837999347e+00 -1.0378957874e+00 1.4358874413e+01 0.0000000000e+00 0.0000e+00 1.0000e+00
<mgrwt>
<rscale>  1 0.65664743E+03</rscale>
<asrwt>0</asrwt>
<pdfrwt beam="1">  1        1 0.41924906E+00 0.65664743E+03</pdfrwt>
<pdfrwt beam="2">0</pdfrwt>
<totfact> 0.10954053E+00</totfact>
</mgrwt>
</event>
<event>
 6      1 +5.6466785e-02 6.33109800e+02 7.81860800e-03 9.83899900e-02
        1 -1    0    0  502    0 +0.0000000000e+00 +0.0000000000e+00 +1.0075561591e+02 1.0075561591e+02 0.0000000000e+00 0.0000e+00 1.0000e+00
       13 -1    0    0    0    0 -0.0000000000e+00 -0.0000000000e+00 -1.0000000000e+03 1.0000000000e+03 0.0000000000e+00 0.0000e+00 1.0000e+00
  9000005  2    1    2  501    0 +5.2637742513e-03 +2.1103420090e-02 -8.9979276200e+02 1.1002068068e+03 6.3310978731e+02 0.0000e+00 0.0000e+00
       13  1    3    3    0    0 -2.0069118122e+02 +4.1359812451e+01 -8.6919951774e+02 8.9302597159e+02 0.0000000000e+00 0.0000e+00 1.0000e+00
        1  1    3    3  501    0 +2.0069644499e+02 -4.1338709031e+01 -3.0593244267e+01 2.0718083524e+02 0.0000000000e+00 0.0000e+00 1.0000e+00
       21  1    1    2  502  501 -5.2637742513e-03 -2.1103420090e-02 +5.4837791650e-01 5.4880907515e-01 0.0000000000e+00 0.0000e+00 1.0000e+00
<mgrwt>
<rscale>  1 0.63310979E+03</rscale>
<asrwt>0</asrwt>
<pdfrwt beam="1">  1        1 0.36638483E+00 0.63310979E+03</pdfrwt>
<pdfrwt beam="2">0</pdfrwt>
<totfact> 0.18894078E+00</totfact>
</mgrwt>
</event>
<event>
 6      1 +5.6466785e-02 6.54747000e+02 7.81860800e-03 9.79791200e-02
        1 -1    0    0  502    0 +0.0000000000e+00 +0.0000000000e+00 +1.0718941056e+02 1.0718941056e+02 0.0000000000e+00 0.0000e+00 1.0000e+00
       13 -1    0    0    0    0 -0.0000000000e+00 -0.0000000000e+00 -1.0000000000e+03 1.0000000000e+03 0.0000000000e+00 0.0000e+00 1.0000e+00
  9000005  2    1    2  501    0 +1.6067240733e-04 -3.4275428992e-04 -8.9282658742e+02 1.1071734081e+03 6.5474700487e+02 0.0000e+00 0.0000e+00
       13  1    3    3    0    0 +1.9910018625e+02 +1.1541874840e+02 -8.4013190225e+02 8.7108207698e+02 0.0000000000e+00 0.0000e+00 1.0000e+00
        3  1    3    3  501    0 -1.9910002557e+02 -1.1541909115e+02 -5.2694685170e+01 2.3609133112e+02 0.0000000000e+00 0.0000e+00 1.0000e+00
       21  1    1    2  502  501 -1.6067240732e-04 +3.4275428992e-04 +1.5997985016e-02 1.6002462958e-02 0.0000000000e+00 0.0000e+00 -1.0000e+00
<mgrwt>
<rscale>  1 0.65474700E+03</rscale>
<asrwt>0</asrwt>
<pdfrwt beam="1">  1        1 0.38978050E+00 0.65474700E+03</pdfrwt>
<pdfrwt beam="2">0</pdfrwt>
<totfact> 0.14840873E+00</totfact>
</mgrwt>
</event>
<event>
 6      1 +5.6466785e-02 6.90151400e+02 7.81860800e-03 9.73422400e-02
        1 -1    0    0  502    0 +0.0000000000e+00 +0.0000000000e+00 +1.1907865152e+02 1.1907865152e+02 0.0000000000e+00 0.0000e+00 1.0000e+00
       13 -1    0    0    0    0 -0.0000000000e+00 -0.0000000000e+00 -1.0000000000e+03 1.0000000000e+03 0.0000000000e+00 0.0000e+00 1.0000e+00
  9000005  2    1    2  501    0 -1.8855697917e-04 -5.6367592214e-04 -8.8092267761e+02 1.1190771955e+03 6.9015143677e+02 0.0000e+00 0.0000e+00
       13  1    3    3    0    0 +2.3296369417e+02 -1.8024293639e+02 -1.4896320323e+02 3.3007519573e+02 0.0000000000e+00 0.0000e+00 1.0000e+00
        1  1    3    3  501    0 -2.3296388273e+02 +1.8024237272e+02 -7.3195947437e+02 7.8900199981e+02 0.0000000000e+00 0.0000e+00 1.0000e+00
       21  1    1    2  502  501 +1.8855697918e-04 +5.6367592213e-04 +1.3291230308e-03 1.4559712602e-03 0.0000000000e+00 0.0000e+00 1.0000e+00
<mgrwt>
<rscale>  1 0.69015144E+03</rscale>
<asrwt>0</asrwt>
<pdfrwt beam="1">  1        1 0.43301419E+00 0.69015144E+03</pdfrwt>
<pdfrwt beam="2">0</pdfrwt>
<totfact> 0.94270388E-01</totfact>
</mgrwt>
</event>
<event>
 6      1 +5.6466785e-02 6.22877800e+02 7.81860800e-03 9.85904700e-02
        1 -1    0    0  502    0 +0.0000000000e+00 +0.0000000000e+00 +9.7000578231e+01 9.7000578231e+01 0.0000000000e+00 0.0000e+00 1.0000e+00
       13 -1    0    0    0    0 -0.0000000000e+00 -0.0000000000e+00 -1.0000000000e+03 1.0000000000e+03 0.0000000000e+00 0.0000e+00 1.0000e+00
  9000005  2    1    2  501    0 -4.8986706801e-05 +1.5381466358e-04 -9.0300581529e+02 1.0969941827e+03 6.2287778445e+02 0.0000e+00 0.0000e+00
       13  1    3    3    0    0 +1.2507885086e+02 +3.8012614786e+01 +4.6334031210e+01 1.3869578315e+02 0.0000000000e+00 0.0000e+00 1.0000e+00
        1  1    3    3  501    0 -1.2507889984e+02 -3.8012460971e+01 -9.4933984650e+02 9.5829839952e+02 0.0000000000e+00 0.0000e+00 1.0000e+00
       21  1    1    2  502  501 +4.8986706805e-05 -1.5381466359e-04 +6.3935224480e-03 6.3955600178e-03 0.0000000000e+00 0.0000e+00 -1.0000e+00
<mgrwt>
<rscale>  1 0.62287778E+03</rscale>
<asrwt>0</asrwt>
<pdfrwt beam="1">  1        1 0.35273012E+00 0.62287778E+03</pdfrwt>
<pdfrwt beam="2">0</pdfrwt>
<totfact> 0.21718855E+00</totfact>
</mgrwt>
</event>
<event>
 6      1 +5.6466785e-02 6.33939700e+02 7.81860800e-03 9.83739100e-02
        1 -1    0    0  502    0 +0.0000000000e+00 +0.0000000000e+00 +1.0047129543e+02 1.0047129543e+02 0.0000000000e+00 0.0000e+00 1.0000e+00
       13 -1    0    0    0    0 -0.0000000000e+00 -0.0000000000e+00 -1.0000000000e+03 1.0000000000e+03 0.0000000000e+00 0.0000e+00 1.0000e+00
  9000005  2    1    2  501    0 +1.3763960621e-03 -1.8738754244e-04 -8.9952973101e+02 1.1004695682e+03 6.3393969246e+02 0.0000e+00 0.0000e+00
       13  1    3    3    0    0 -1.3115460878e+01 +3.0627296727e+02 -3.0986770498e+02 4.3588202577e+02 0.0000000000e+00 0.0000e+00 1.0000e+00
        1  1    3    3  501    0 +1.3116837274e+01 -3.0627315466e+02 -5.8966202602e+02 6.6458754248e+02 0.0000000000e+00 0.0000e+00 1.0000e+00
       21  1    1    2  502  501 -1.3763960621e-03 +1.8738754247e-04 +1.0264332865e-03 1.7271784802e-03 0.0000000000e+00 0.0000e+00 -1.0000e+00
<mgrwt>
<rscale>  1 0.63393969E+03</rscale>
<asrwt>0</asrwt>
<pdfrwt beam="1">  1        1 0.36535094E+00 0.63393969E+03</pdfrwt>
<pdfrwt beam="2">0</pdfrwt>
<totfact> 0.19089417E+00</totfact>
</mgrwt>
</event>
<event>
 6      1 +5.6466785e-02 6.50346000e+02 7.81860800e-03 9.80613000e-02
        1 -1    0    0  502    0 +0.0000000000e+00 +0.0000000000e+00 +1.0574806532e+02 1.0574806532e+02 0.0000000000e+00 0.0000e+00 1.0000e+00
       13 -1    0    0    0    0 -0.0000000000e+00 -0.0000000000e+00 -1.0000000000e+03 1.0000000000e+03 0.0000000000e+00 0.0000e+00 1.0000e+00
  9000005  2    1    2  501    0 +1.6212033670e-02 -1.4540504906e-03 -8.9425508839e+02 1.1057314855e+03 6.5034602688e+02 0.0000e+00 0.0000e+00
       13  1    3    3    0    0 +3.0831761888e+02 -6.1968143580e+01 -5.8778230907e+02 6.6662421782e+02 0.0000000000e+00 0.0000e+00 1.0000e+00
        3  1    3    3  501    0 -3.0830140685e+02 +6.1966689529e+01 -3.0647277931e+02 4.3910726769e+02 0.0000000000e+00 0.0000e+00 1.0000e+00
       21  1    1    2  502  501 -1.6212033670e-02 +1.4540504906e-03 +3.1537097677e-03 1.6579812539e-02 0.0000000000e+00 0.0000e+00 -1.0000e+00
<mgrwt>
<rscale>  1 0.65034603E+03</rscale>
<asrwt>0</asrwt>
<pdfrwt beam="1">  1        1 0.38453923E+00 0.65034603E+03</pdfrwt>
<pdfrwt beam="2">0</pdfrwt>
<totfact> 0.15668317E+00</totfact>
</mgrwt>
</event>
<event>
 6      1 +5.6466785e-02 5.95673500e+02 7.81860800e-03 9.91442300e-02
        1 -1    0    0  502    0 +0.0000000000e+00 +0.0000000000e+00 +9.9398821545e+01 9.9398821545e+01 0.0000000000e+00 0.0000e+00 1.0000e+00
       13 -1    0    0    0    0 -0.0000000000e+00 -0.0000000000e+00 -1.0000000000e+03 1.0000000000e+03 0.0000000000e+00 0.0000e+00 1.0000e+00
  9000005  2    1    2  501    0 -1.2417129145e-01 +2.6617618220e-01 -9.1129108576e+02 1.0887048800e+03 5.9567338905e+02 0.0000e+00 0.0000e+00
       13  1    3    3    0    0 -9.0012127795e+01 +1.7003555154e+02 -8.7155952679e+02 8.9254147281e+02 0.0000000000e+00 0.0000e+00 1.0000e+00
        3  1    3    3  501    0 +8.9887956504e+01 -1.6976937535e+02 -3.9731558964e+01 1.9616340716e+02 0.0000000000e+00 0.0000e+00 1.0000e+00
       21  1    1    2  502  501 +1.2417129145e-01 -2.6617618220e-01 +1.0689907303e+01 1.0693941575e+01 0.0000000000e+00 0.0000e+00 -1.0000e+00
<mgrwt>
<rscale>  1 0.59567346E+03</rscale>
<asrwt>0</asrwt>
<pdfrwt beam="1">  1        1 0.36145102E+00 0.59567346E+03</pdfrwt>
<pdfrwt beam="2">0</pdfrwt>
<totfact> 0.19996202E+00</totfact>
</mgrwt>
</event>
<event>
 6      1 +5.6466785e-02 6.53569900e+02 7.81860800e-03 9.80010300e-02
        1 -1    0    0  502    0 +0.0000000000e+00 +0.0000000000e+00 +1.0679016730e+02 1.0679016730e+02 0.0000000000e+00 0.0000e+00 1.0000e+00
       13 -1    0    0    0    0 -0.0000000000e+00 -0.0000000000e+00 -1.0000000000e+03 1.0000000000e+03 0.0000000000e+00 0.0000e+00 1.0000e+00
  9000005  2    1    2  501    0 -2.1388479139e-03 +2.8895881397e-03 -8.9320924744e+02 1.1067865249e+03 6.5356992894e+02 0.0000e+00 0.0000e+00
       13  1    3    3    0    0 -2.3008858990e+02 -8.3117173664e+01 -8.1349927646e+02 8.4948825570e+02 0.0000000000e+00 0.0000e+00 1.0000e+00
        1  1    3    3  501    0 +2.3008645105e+02 +8.3120063252e+01 -7.9709970974e+01 2.5729826922e+02 0.0000000000e+00 0.0000e+00 1.0000e+00
       21  1    1    2  502  501 +2.1388479139e-03 -2.8895881397e-03 -5.8526739006e-04 3.6423794330e-03 0.0000000000e+00 0.0000e+00 -1.0000e+00
<mgrwt>
<rscale>  1 0.65356993E+03</rscale>
<asrwt>0</asrwt>
<pdfrwt beam="1">  1        1 0.38832870E+00 0.65356993E+03</pdfrwt>
<pdfrwt beam="2">0</pdfrwt>
<totfact> 0.15065701E+00</totfact>
</mgrwt>
</event>
<event>
 6      1 +5.6466785e-02 6.44855200e+02 7.81860800e-03 9.81648100e-02
        1 -1    0    0  502    0 +0.0000000000e+00 +0.0000000000e+00 +1.0413718195e+02 1.0413718195e+02 0.0000000000e+00 0.0000e+00 1.0000e+00
       13 -1    0    0    0    0 -0.0000000000e+00 -0.0000000000e+00 -1.0000000000e+03 1.0000000000e+03 0.0000000000e+00 0.0000e+00 1.0000e+00
  9000005  2    1    2  501    0 +1.9482907931e-01 +2.7961145893e-01 -8.9583829192e+02 1.1037955060e+03 6.4485514466e+02 0.0000e+00 0.0000e+00
       13  1    3    3    0    0 -2.5361532465e+02 -1.6255401602e+02 -6.4377755484e+02 7.1077006208e+02 0.0000000000e+00 0.0000e+00 1.0000e+00
        3  1    3    3  501    0 +2.5381015373e+02 +1.6283362748e+02 -2.5206073708e+02 3.9302544390e+02 0.0000000000e+00 0.0000e+00 1.0000e+00
       21  1    1    2  502  501 -1.9482907931e-01 -2.7961145893e-01 -2.4526128232e-02 3.4167597088e-01 0.0000000000e+00 0.0000e+00 1.0000e+00
<mgrwt>
<rscale>  1 0.64485523E+03</rscale>
<asrwt>0</asrwt>
<pdfrwt beam="1">  1        1 0.37868146E+00 0.64485523E+03</pdfrwt>
<pdfrwt beam="2">0</pdfrwt>
<totfact> 0.16646683E+00</totfact>
</mgrwt>
</event>
<event>
 6      1 +5.6466785e-02 6.52600200e+02 7.81860800e-03 9.80191200e-02
       21 -1    0    0  501  502 +0.0000000000e+00 +0.0000000000e+00 +1.3016705572e+02 1.3016705572e+02 0.0000000000e+00 0.0000e+00 1.0000e+00
       13 -1    0    0    0    0 -0.0000000000e+00 -0.0000000000e+00 -1.0000000000e+03 1.0000000000e+03 0.0000000000e+00 0.0000e+00 1.0000e+00
  9000005  2    1    2  501    0 +2.1869356753e+01 +5.2415268158e+00 -8.8747138049e+02 1.1015863489e+03 6.5221261151e+02 0.0000e+00 0.0000e+00
       13  1    3    3    0    0 +9.2148546730e+01 -4.1842067152e+01 +8.0877015623e+01 1.2955000928e+02 0.0000000000e+00 0.0000e+00 1.0000e+00
        3  1    3    3  501    0 -7.0279189977e+01 +4.7083593968e+01 -9.6834839611e+02 9.7203633966e+02 0.0000000000e+00 0.0000e+00 1.0000e+00
       -3  1    1    2    0  502 -2.1869356753e+01 -5.2415268158e+00 +1.7638436212e+01 2.8580706782e+01 0.0000000000e+00 0.0000e+00 -1.0000e+00
<mgrwt>
<rscale>  1 0.65260021E+03</rscale>
<asrwt>0</asrwt>
<pdfrwt beam="1">  1       21 0.47333575E+00 0.65260021E+03</pdfrwt>
<pdfrwt beam="2">0</pdfrwt>
<totfact> 0.19524671E-01</totfact>
</mgrwt>
</event>
<event>
 6      1 +5.6466785e-02 6.65551600e+02 7.81860800e-03 9.77802700e-02
        1 -1    0    0  502    0 +0.0000000000e+00 +0.0000000000e+00 +1.1073982002e+02 1.1073982002e+02 0.0000000000e+00 0.0000e+00 1.0000e+00
       13 -1    0    0    0    0 -0.0000000000e+00 -0.0000000000e+00 -1.0000000000e+03 1.0000000000e+03 0.0000000000e+00 0.0000e+00 1.0000e+00
  9000005  2    1    2  501    0 -3.6437533851e-05 -3.6650319316e-05 -8.8926024082e+02 1.1107397402e+03 6.6555164678e+02 0.0000e+00 0.0000e+00
       13  1    3    3    0    0 +1.5860564192e+02 -2.7087740689e+02 -2.6022274507e+02 4.0773299629e+02 0.0000000000e+00 0.0000e+00 1.0000e+00
        3  1    3    3  501    0 -1.5860567835e+02 +2.7087737023e+02 -6.2903749575e+02 7.0300674390e+02 0.0000000000e+00 0.0000e+00 1.0000e+00
       21  1    1    2  502  501 +3.6437533837e-05 +3.6650319327e-05 +6.0848335024e-05 7.9833950511e-05 0.0000000000e+00 0.0000e+00 -1.0000e+00
<mgrwt>
<rscale>  1 0.66555165E+03</rscale>
<asrwt>0</asrwt>
<pdfrwt beam="1">  1        1 0.40269110E+00 0.66555165E+03</pdfrwt>
<pdfrwt beam="2">0</pdfrwt>
<totfact> 0.12975745E+00</totfact>
</mgrwt>
</event>
<event>
 6      1 +5.6466785e-02 6.53491100e+02 7.81860800e-03 9.80025000e-02
        1 -1    0    0  502    0 +0.0000000000e+00 +0.0000000000e+00 +1.0676265138e+02 1.0676265138e+02 0.0000000000e+00 0.0000e+00 1.0000e+00
       13 -1    0    0    0    0 -0.0000000000e+00 -0.0000000000e+00 -1.0000000000e+03 1.0000000000e+03 0.0000000000e+00 0.0000e+00 1.0000e+00
  9000005  2    1    2  501    0 +1.9808194622e-06 -4.5693515176e-06 -8.9323735845e+02 1.1067626404e+03 6.5349105852e+02 0.0000e+00 0.0000e+00
       13  1    3    3    0    0 +2.4755214607e+02 -2.0041709845e+02 -5.7007342978e+02 6.5301821851e+02 0.0000000000e+00 0.0000e+00 1.0000e+00
        1  1    3    3  501    0 -2.4755214409e+02 +2.0041709388e+02 -3.2316392868e+02 4.5374442185e+02 0.0000000000e+00 0.0000e+00 1.0000e+00
       21  1    1    2  502  501 -1.9808194479e-06 +4.5693515195e-06 +9.8285090571e-06 1.1018267072e-05 0.0000000000e+00 0.0000e+00 1.0000e+00
<mgrwt>
<rscale>  1 0.65349106E+03</rscale>
<asrwt>0</asrwt>
<pdfrwt beam="1">  1        1 0.38822864E+00 0.65349106E+03</pdfrwt>
<pdfrwt beam="2">0</pdfrwt>
<totfact> 0.15081308E+00</totfact>
</mgrwt>
</event>
<event>
 6      1 +5.6466785e-02 4.70631900e+02 7.81860800e-03 1.02174200e-01
        1 -1    0    0  502    0 +0.0000000000e+00 +0.0000000000e+00 +9.2431742769e+01 9.2431742769e+01 0.0000000000e+00 0.0000e+00 1.0000e+00
       13 -1    0    0    0    0 -0.0000000000e+00 -0.0000000000e+00 -1.0000000000e+03 1.0000000000e+03 0.0000000000e+00 0.0000e+00 1.0000e+00
  9000005  2    1    2  501    0 -3.2999719079e+00 +1.8034522212e+00 -9.4452570322e+02 1.0552834579e+03 4.7061686138e+02 0.0000e+00 0.0000e+00
       13  1    3    3    0    0 +2.1824239756e+02 -3.2397305411e+01 -2.9651471052e+02 3.6959478222e+02 0.0000000000e+00 0.0000e+00 1.0000e+00
        3  1    3    3  501    0 -2.2154236947e+02 +3.4200757632e+01 -6.4801099271e+02 6.8568867568e+02 0.0000000000e+00 0.0000e+00 1.0000e+00
       21  1    1    2  502  501 +3.2999719079e+00 -1.8034522212e+00 +3.6957445991e+01 3.7148284869e+01 0.0000000000e+00 0.0000e+00 1.0000e+00
<mgrwt>
<rscale>  1 0.47063189E+03</rscale>
<asrwt>0</asrwt>
<pdfrwt beam="1">  1        1 0.33611614E+00 0.47063189E+03</pdfrwt>
<pdfrwt beam="2">0</pdfrwt>
<totfact> 0.26456218E+00</totfact>
</mgrwt>
</event>
<event>
 6      1 +5.6466785e-02 6.23999800e+02 7.81860800e-03 9.85682800e-02
        1 -1    0    0  502    0 +0.0000000000e+00 +0.0000000000e+00 +9.7344298399e+01 9.7344298399e+01 0.0000000000e+00 0.0000e+00 1.0000e+00
       13 -1    0    0    0    0 -0.0000000000e+00 -0.0000000000e+00 -1.0000000000e+03 1.0000000000e+03 0.0000000000e+00 0.0000e+00 1.0000e+00
  9000005  2    1    2  501    0 +4.2896377479e-05 -8.9921784451e-05 -9.0265604843e+02 1.0973439375e+03 6.2399982011e+02 0.0000e+00 0.0000e+00
       13  1    3    3    0    0 +1.0453663441e+02 -2.3918122821e+02 -7.5187494990e+02 7.9589666926e+02 0.0000000000e+00 0.0000e+00 1.0000e+00
        3  1    3    3  501    0 -1.0453659151e+02 +2.3918113829e+02 -1.5078109853e+02 3.0144726828e+02 0.0000000000e+00 0.0000e+00 1.0000e+00
       21  1    1    2  502  501 -4.2896377480e-05 +8.9921784471e-05 +3.4682862877e-04 3.6085471351e-04 0.0000000000e+00 0.0000e+00 1.0000e+00
<mgrwt>
<rscale>  1 0.62399982E+03</rscale>
<asrwt>0</asrwt>
<pdfrwt beam="1">  1        1 0.35398001E+00 0.62399982E+03</pdfrwt>
<pdfrwt beam="2">0</pdfrwt>
<totfact> 0.21443554E+00</totfact>
</mgrwt>
</event>
<event>
 6      1 +5.6466785e-02 6.51382700e+02 7.81860800e-03 9.80418800e-02
        1 -1    0    0  502    0 +0.0000000000e+00 +0.0000000000e+00 +1.0607489615e+02 1.0607489615e+02 0.0000000000e+00 0.0000e+00 1.0000e+00
       13 -1    0    0    0    0 -0.0000000000e+00 -0.0000000000e+00 -1.0000000000e+03 1.0000000000e+03 0.0000000000e+00 0.0000e+00 1.0000e+00
  9000005  2    1    2  501    0 -2.8686329756e-06 -4.4191060775e-06 -8.9392512898e+02 1.1060748705e+03 6.5138274683e+02 0.0000e+00 0.0000e+00
       13  1    3    3    0    0 -3.2078291601e+02 +4.5851009723e+00 -5.4229771311e+02 6.3008690829e+02 0.0000000000e+00 0.0000e+00 1.0000e+00
        3  1    3    3  501    0 +3.2078291314e+02 -4.5851053914e+00 -3.5162741587e+02 4.7598796219e+02 0.0000000000e+00 0.0000e+00 1.0000e+00
       21  1    1    2  502  501 +2.8686329790e-06 +4.4191060777e-06 +2.5127919347e-05 2.5674303971e-05 0.0000000000e+00 0.0000e+00 -1.0000e+00
<mgrwt>
<rscale>  1 0.65138275E+03</rscale>
<asrwt>0</asrwt>
<pdfrwt beam="1">  1        1 0.38572771E+00 0.65138275E+03</pdfrwt>
<pdfrwt beam="2">0</pdfrwt>
<totfact> 0.15476826E+00</totfact>
</mgrwt>
</event>
<event>
 6      1 +5.6466785e-02 6.57831600e+02 7.81860800e-03 9.79219400e-02
        1 -1    0    0  502    0 +0.0000000000e+00 +0.0000000000e+00 +1.0825859387e+02 1.0825859387e+02 0.0000000000e+00 0.0000e+00 1.0000e+00
       13 -1    0    0    0    0 -0.0000000000e+00 -0.0000000000e+00 -1.0000000000e+03 1.0000000000e+03 0.0000000000e+00 0.0000e+00 1.0000e+00
  9000005  2    1    2  501    0 -6.8924166947e-03 +2.3138088238e-05 -8.9181422409e+02 1.1081854504e+03 6.5783157588e+02 0.0000e+00 0.0000e+00
       13  1    3    3    0    0 -2.6198197901e+02 +1.9330498206e+02 -3.6714715945e+02 4.9071214587e+02 0.0000000000e+00 0.0000e+00 1.0000e+00
        3  1    3    3  501    0 +2.6197508659e+02 -1.9330495892e+02 -5.2466706464e+02 6.1747330457e+02 0.0000000000e+00 0.0000e+00 1.0000e+00
       21  1    1    2  502  501 +6.8924166947e-03 -2.3138088226e-05 +7.2817960235e-02 7.3143429480e-02 0.0000000000e+00 0.0000e+00 -1.0000e+00
<mgrwt>
<rscale>  1 0.65783158E+03</rscale>
<asrwt>0</asrwt>
<pdfrwt beam="1">  1        1 0.39366844E+00 0.65783158E+03</pdfrwt>
<pdfrwt beam="2">0</pdfrwt>
<totfact> 0.14254517E+00</totfact>
</mgrwt>
</event>
<event>
 6      1 +5.6466785e-02 6.59021600e+02 7.81860800e-03 9.78999700e-02
        1 -1    0    0  502    0 +0.0000000000e+00 +0.0000000000e+00 +1.0857762463e+02 1.0857762463e+02 0.0000000000e+00 0.0000e+00 1.0000e+00
       13 -1    0    0    0    0 -0.0000000000e+00 -0.0000000000e+00 -1.0000000000e+03 1.0000000000e+03 0.0000000000e+00 0.0000e+00 1.0000e+00
  9000005  2    1    2  501    0 +1.7068789759e-05 -2.6701941351e-06 -8.9142263117e+02 1.1085773682e+03 6.5902160360e+02 0.0000e+00 0.0000e+00
       13  1    3    3    0    0 -3.2541408703e+02 -4.9190287679e+01 -4.7300947507e+02 5.7623951266e+02 0.0000000000e+00 0.0000e+00 1.0000e+00
        1  1    3    3  501    0 +3.2541410410e+02 +4.9190285009e+01 -4.1841315611e+02 5.3233785559e+02 0.0000000000e+00 0.0000e+00 1.0000e+00
       21  1    1    2  502  501 -1.7068789736e-05 +2.6701941303e-06 +2.5580462498e-04 2.5638736256e-04 0.0000000000e+00 0.0000e+00 -1.0000e+00
<mgrwt>
<rscale>  1 0.65902160E+03</rscale>
<asrwt>0</asrwt>
<pdfrwt beam="1">  1        1 0.39482856E+00 0.65902160E+03</pdfrwt>
<pdfrwt beam="2">0</pdfrwt>
<totfact> 0.14083145E+00</totfact>
</mgrwt>
</event>
<event>
 6      1 +5.6466785e-02 6.48691000e+02 7.81860800e-03 9.80923900e-02
        3 -1    0    0  502    0 +0.0000000000e+00 +0.0000000000e+00 +1.0521889448e+02 1.0521889448e+02 0.0000000000e+00 0.0000e+00 1.0000e+00
       13 -1    0    0    0    0 -0.0000000000e+00 -0.0000000000e+00 -1.0000000000e+03 1.0000000000e+03 0.0000000000e+00 0.0000e+00 1.0000e+00
  9000005  2    1    2  501    0 -4.0862584649e-03 +5.0853892172e-03 -8.9479937642e+02 1.1051994938e+03 6.4869098737e+02 0.0000e+00 0.0000e+00
       13  1    3    3    0    0 +1.9210769506e+02 -2.3005322733e+02 -6.5860538708e+02 7.2359581936e+02 0.0000000000e+00 0.0000e+00 1.0000e+00
        3  1    3    3  501    0 -1.9211178132e+02 +2.3005831272e+02 -2.3619398934e+02 3.8160367448e+02 0.0000000000e+00 0.0000e+00 1.0000e+00
       21  1    1    2  502  501 +4.0862584649e-03 -5.0853892171e-03 +1.8270900547e-02 1.9400631395e-02 0.0000000000e+00 0.0000e+00 1.0000e+00
<mgrwt>
<rscale>  1 0.64869099E+03</rscale>
<asrwt>0</asrwt>
<pdfrwt beam="1">  1        3 0.38261497E+00 0.64869099E+03</pdfrwt>
<pdfrwt beam="2">0</pdfrwt>
<totfact> 0.73133282E-02</totfact>
</mgrwt>
</event>
<event>
 6      1 +5.6466785e-02 6.33060400e+02 7.81860800e-03 9.83909500e-02
        1 -1    0    0  502    0 +0.0000000000e+00 +0.0000000000e+00 +1.0054306182e+02 1.0054306182e+02 0.0000000000e+00 0.0000e+00 1.0000e+00
       13 -1    0    0    0    0 -0.0000000000e+00 -0.0000000000e+00 -1.0000000000e+03 1.0000000000e+03 0.0000000000e+00 0.0000e+00 1.0000e+00
  9000005  2    1    2  501    0 -1.5464096335e-02 -4.6587589058e-02 -8.9980674325e+02 1.1001898294e+03 6.3306041035e+02 0.0000e+00 0.0000e+00
       13  1    3    3    0    0 -2.5567031745e+02 +1.6078381287e+02 -6.1448283556e+02 6.8469548042e+02 0.0000000000e+00 0.0000e+00 1.0000e+00
        1  1    3    3  501    0 +2.5565485335e+02 -1.6083040046e+02 -2.8532390769e+02 4.1549434900e+02 0.0000000000e+00 0.0000e+00 1.0000e+00
       21  1    1    2  502  501 +1.5464096335e-02 +4.6587589058e-02 +3.4980506764e-01 3.5323239812e-01 0.0000000000e+00 0.0000e+00 1.0000e+00
<mgrwt>
<rscale>  1 0.63306041E+03</rscale>
<asrwt>0</asrwt>
<pdfrwt beam="1">  1        1 0.36561190E+00 0.63306041E+03</pdfrwt>
<pdfrwt beam="2">0</pdfrwt>
<totfact> 0.19042243E+00</totfact>
</mgrwt>
</event>
<event>
 6      1 +5.6466785e-02 5.94755500e+02 7.81860800e-03 9.91634700e-02
        1 -1    0    0  502    0 +0.0000000000e+00 +0.0000000000e+00 +8.8433807938e+01 8.8433807938e+01 0.0000000000e+00 0.0000e+00 1.0000e+00
       13 -1    0    0    0    0 -0.0000000000e+00 -0.0000000000e+00 -1.0000000000e+03 1.0000000000e+03 0.0000000000e+00 0.0000e+00 1.0000e+00
  9000005  2    1    2  501    0 -4.6300171448e-05 +5.8140274930e-05 -9.1156647862e+02 1.0884335119e+03 5.9475546647e+02 0.0000e+00 0.0000e+00
       13  1    3    3    0    0 -2.7944137799e+02 -1.0171525214e+02 -4.5538653703e+02 5.4388452300e+02 0.0000000000e+00 0.0000e+00 1.0000e+00
        1  1    3    3  501    0 +2.7944133169e+02 +1.0171531028e+02 -4.5617994159e+02 5.4454898890e+02 0.0000000000e+00 0.0000e+00 1.0000e+00
       21  1    1    2  502  501 +4.6300171428e-05 -5.8140274920e-05 +2.8655490140e-04 2.9603666827e-04 0.0000000000e+00 0.0000e+00 1.0000e+00
<mgrwt>
<rscale>  1 0.59475547E+03</rscale>
<asrwt>0</asrwt>
<pdfrwt beam="1">  1        1 0.32157816E+00 0.59475547E+03</pdfrwt>
<pdfrwt beam="2">0</pdfrwt>
<totfact> 0.29800752E+00</totfact>
</mgrwt>
</event>
<event>
 6      1 +5.6466785e-02 6.46496200e+02 7.81860800e-03 9.81337600e-02
        1 -1    0    0  502    0 +0.0000000000e+00 +0.0000000000e+00 +1.0448944261e+02 1.0448944261e+02 0.0000000000e+00 0.0000e+00 1.0000e+00
       13 -1    0    0    0    0 -0.0000000000e+00 -0.0000000000e+00 -1.0000000000e+03 1.0000000000e+03 0.0000000000e+00 0.0000e+00 1.0000e+00
  9000005  2    1    2  501    0 -6.6369771048e-06 -4.1346490889e-06 -8.9551065622e+02 1.1044893435e+03 6.4649622926e+02 0.0000e+00 0.0000e+00
       13  1    3    3    0    0 +5.2626999542e+01 +3.1692608824e+02 -3.8669034520e+02 5.0273369646e+02 0.0000000000e+00 0.0000e+00 1.0000e+00
        1  1    3    3  501    0 -5.2627006179e+01 -3.1692609238e+02 -5.0882031102e+02 6.0175564701e+02 0.0000000000e+00 0.0000e+00 1.0000e+00
       21  1    1    2  502  501 +6.6369771090e-06 +4.1346491346e-06 +9.8823263820e-05 9.9132145446e-05 0.0000000000e+00 0.0000e+00 1.0000e+00
<mgrwt>
<rscale>  1 0.64649623E+03</rscale>
<asrwt>0</asrwt>
<pdfrwt beam="1">  1        1 0.37996241E+00 0.64649623E+03</pdfrwt>
<pdfrwt beam="2">0</pdfrwt>
<totfact> 0.16426567E+00</totfact>
</mgrwt>
</event>
<event>
 6      1 +5.6466785e-02 6.48071600e+02 7.81860800e-03 9.81040400e-02
        1 -1    0    0  502    0 +0.0000000000e+00 +0.0000000000e+00 +1.0499926035e+02 1.0499926035e+02 0.0000000000e+00 0.0000e+00 1.0000e+00
       13 -1    0    0    0    0 -0.0000000000e+00 -0.0000000000e+00 -1.0000000000e+03 1.0000000000e+03 0.0000000000e+00 0.0000e+00 1.0000e+00
  9000005  2    1    2  501    0 -1.1899776098e-05 +5.8395017604e-06 -8.9500078503e+02 1.1049992131e+03 6.4807164394e+02 0.0000e+00 0.0000e+00
       13  1    3    3    0    0 +3.1802214939e+02 +4.5813002559e+01 -3.7592266722e+02 4.9452479253e+02 0.0000000000e+00 0.0000e+00 1.0000e+00
        3  1    3    3  501    0 -3.1802216128e+02 -4.5812996719e+01 -5.1907811781e+02 6.1047442054e+02 0.0000000000e+00 0.0000e+00 1.0000e+00
       21  1    1    2  502  501 +1.1899776110e-05 -5.8395017581e-06 +4.5381496099e-05 4.7277739375e-05 0.0000000000e+00 0.0000e+00 -1.0000e+00
<mgrwt>
<rscale>  1 0.64807164E+03</rscale>
<asrwt>0</asrwt>
<pdfrwt beam="1">  1        1 0.38181630E+00 0.64807164E+03</pdfrwt>
<pdfrwt beam="2">0</pdfrwt>
<totfact> 0.16115270E+00</totfact>
</mgrwt>
</event>
<event>
 6      1 +5.6466785e-02 6.22863500e+02 7.81860800e-03 9.85907500e-02
        1 -1    0    0  502    0 +0.0000000000e+00 +0.0000000000e+00 +9.8413118840e+01 9.8413118840e+01 0.0000000000e+00 0.0000e+00 1.0000e+00
       13 -1    0    0    0    0 -0.0000000000e+00 -0.0000000000e+00 -1.0000000000e+03 1.0000000000e+03 0.0000000000e+00 0.0000e+00 1.0000e+00
  9000005  2    1    2  501    0 -6.9890190141e-02 +9.6322939805e-02 -9.0300754427e+02 1.0969874799e+03 6.2286346166e+02 0.0000e+00 0.0000e+00
       13  1    3    3    0    0 -4.7218726785e+01 +1.8662987630e+02 -2.0326364369e+01 1.9358068079e+02 0.0000000000e+00 0.0000e+00 1.0000e+00
        3  1    3    3  501    0 +4.7148836594e+01 -1.8653355336e+02 -8.8268117990e+02 9.0340679910e+02 0.0000000000e+00 0.0000e+00 1.0000e+00
       21  1    1    2  502  501 +6.9890190141e-02 -9.6322939805e-02 +1.4206631083e+00 1.4256389497e+00 0.0000000000e+00 0.0000e+00 1.0000e+00
<mgrwt>
<rscale>  1 0.62286347E+03</rscale>
<asrwt>0</asrwt>
<pdfrwt beam="1">  1        1 0.35786664E+00 0.62286347E+03</pdfrwt>
<pdfrwt beam="2">0</pdfrwt>
<totfact> 0.20626025E+00</totfact>
</mgrwt>
</event>
<event>
 6      1 +5.6466785e-02 6.33246900e+02 7.81860800e-03 9.83873300e-02
        1 -1    0    0  502    0 +0.0000000000e+00 +0.0000000000e+00 +1.0025040437e+02 1.0025040437e+02 0.0000000000e+00 0.0000e+00 1.0000e+00
       13 -1    0    0    0    0 -0.0000000000e+00 -0.0000000000e+00 -1.0000000000e+03 1.0000000000e+03 0.0000000000e+00 0.0000e+00 1.0000e+00
  9000005  2    1    2  501    0 -1.9191276692e-06 -2.9130058010e-07 -8.9974959721e+02 1.1002504019e+03 6.3324687850e+02 0.0000e+00 0.0000e+00
       13  1    3    3    0    0 -1.4890862224e+02 +2.6919627010e+02 -3.1973814600e+02 4.4370360785e+02 0.0000000000e+00 0.0000e+00 1.0000e+00
        3  1    3    3  501    0 +1.4890862032e+02 -2.6919627039e+02 -5.8001145121e+02 6.5654679402e+02 0.0000000000e+00 0.0000e+00 1.0000e+00
       21  1    1    2  502  501 +1.9191276455e-06 +2.9130059138e-07 +1.5822891861e-06 2.5043054971e-06 0.0000000000e+00 0.0000e+00 1.0000e+00
<mgrwt>
<rscale>  1 0.63324688E+03</rscale>
<asrwt>0</asrwt>
<pdfrwt beam="1">  1        1 0.36454769E+00 0.63324688E+03</pdfrwt>
<pdfrwt beam="2">0</pdfrwt>
<totfact> 0.19247186E+00</totfact>
</mgrwt>
</event>
<event>
 6      1 +5.6466785e-02 4.91582900e+02 7.81860800e-03 1.01600000e-01
        1 -1    0    0  502    0 +0.0000000000e+00 +0.0000000000e+00 +6.0908396568e+01 6.0908396568e+01 0.0000000000e+00 0.0000e+00 1.0000e+00
       13 -1    0    0    0    0 -0.0000000000e+00 -0.0000000000e+00 -1.0000000000e+03 1.0000000000e+03 0.0000000000e+00 0.0000e+00 1.0000e+00
  9000005  2    1    2  501    0 +2.7464428062e-01 +3.1017644984e-01 -9.3949363064e+02 1.0603311057e+03 4.9158274990e+02 0.0000e+00 0.0000e+00
       13  1    3    3    0    0 -2.0913545026e+02 +1.2906487804e+02 -4.7131312020e+02 5.3153686285e+02 0.0000000000e+00 0.0000e+00 1.0000e+00
        1  1    3    3  501    0 +2.0941009454e+02 -1.2875470159e+02 -4.6818051044e+02 5.2879424281e+02 0.0000000000e+00 0.0000e+00 1.0000e+00
       21  1    1    2  502  501 -2.7464428062e-01 -3.1017644984e-01 +4.0202720588e-01 5.7729090170e-01 0.0000000000e+00 0.0000e+00 1.0000e+00
<mgrwt>
<rscale>  1 0.49158292E+03</rscale>
<asrwt>0</asrwt>
<pdfrwt beam="1">  1        1 0.22148555E+00 0.49158292E+03</pdfrwt>
<pdfrwt beam="2">0</pdfrwt>
<totfact> 0.82479168E+00</totfact>
</mgrwt>
</event>
<event>
 6      1 +5.6466785e-02 6.67812400e+02 7.81860800e-03 9.77391800e-02
        1 -1    0    0  502    0 +0.0000000000e+00 +0.0000000000e+00 +1.1195129814e+02 1.1195129814e+02 0.0000000000e+00 0.0000e+00 1.0000e+00
       13 -1    0    0    0    0 -0.0000000000e+00 -0.0000000000e+00 -1.0000000000e+03 1.0000000000e+03 0.0000000000e+00 0.0000e+00 1.0000e+00
  9000005  2    1    2  501    0 -2.1245040176e-02 +4.2730205576e-02 -8.8850527919e+02 1.1114922338e+03 6.6781236312e+02 0.0000e+00 0.0000e+00
       13  1    3    3    0    0 -6.8093501671e+01 -3.0903640489e+02 -2.6697994534e+02 4.1402719201e+02 0.0000000000e+00 0.0000e+00 1.0000e+00
        1  1    3    3  501    0 +6.8072256631e+01 +3.0907913509e+02 -6.2152533385e+02 6.9746504177e+02 0.0000000000e+00 0.0000e+00 1.0000e+00
       21  1    1    2  502  501 +2.1245040176e-02 -4.2730205576e-02 +4.5657732658e-01 4.5906434990e-01 0.0000000000e+00 0.0000e+00 1.0000e+00
<mgrwt>
<rscale>  1 0.66781236E+03</rscale>
<asrwt>0</asrwt>
<pdfrwt beam="1">  1        1 0.40709649E+00 0.66781236E+03</pdfrwt>
<pdfrwt beam="2">0</pdfrwt>
<totfact> 0.12395007E+00</totfact>
</mgrwt>
</event>
<event>
 6      1 +5.6466785e-02 6.61163700e+02 7.81860800e-03 9.78605400e-02
        1 -1    0    0  502    0 +0.0000000000e+00 +0.0000000000e+00 +1.0938693304e+02 1.0938693304e+02 0.0000000000e+00 0.0000e+00 1.0000e+00
       13 -1    0    0    0    0 -0.0000000000e+00 -0.0000000000e+00 -1.0000000000e+03 1.0000000000e+03 0.0000000000e+00 0.0000e+00 1.0000e+00
  9000005  2    1    2  501    0 +1.5360203003e-01 +8.9194599656e-02 -8.9062191595e+02 1.1092090916e+03 6.6116365617e+02 0.0000e+00 0.0000e+00
       13  1    3    3    0    0 -1.2881396101e+02 +6.4649947115e+01 +5.3797837470e+01 1.5384037029e+02 0.0000000000e+00 0.0000e+00 1.0000e+00
        1  1    3    3  501    0 +1.2896756304e+02 -6.4560752516e+01 -9.4441975342e+02 9.5536872135e+02 0.0000000000e+00 0.0000e+00 1.0000e+00
       21  1    1    2  502  501 -1.5360203003e-01 -8.9194599656e-02 +8.8489834720e-03 1.7784140335e-01 0.0000000000e+00 0.0000e+00 -1.0000e+00
<mgrwt>
<rscale>  1 0.66116368E+03</rscale>
<asrwt>0</asrwt>
<pdfrwt beam="1">  1        1 0.39777150E+00 0.66116368E+03</pdfrwt>
<pdfrwt beam="2">0</pdfrwt>
<totfact> 0.13659349E+00</totfact>
</mgrwt>
</event>
<event>
 6      1 +5.6466785e-02 6.09268700e+02 7.81860800e-03 9.88636100e-02
        1 -1    0    0  502    0 +0.0000000000e+00 +0.0000000000e+00 +9.2939563430e+01 9.2939563430e+01 0.0000000000e+00 0.0000e+00 1.0000e+00
       13 -1    0    0    0    0 -0.0000000000e+00 -0.0000000000e+00 -1.0000000000e+03 1.0000000000e+03 0.0000000000e+00 0.0000e+00 1.0000e+00
  9000005  2    1    2  501    0 +3.5613082584e-01 +2.7494474455e-01 -9.0644841752e+02 1.0921799641e+03 6.0926852701e+02 0.0000e+00 0.0000e+00
       13  1    3    3    0    0 +2.6823619787e+02 +7.3254680593e+01 -2.2960412490e+02 3.6060360543e+02 0.0000000000e+00 0.0000e+00 1.0000e+00
        3  1    3    3  501    0 -2.6788006704e+02 -7.2979735849e+01 -6.7684429261e+02 7.3157635870e+02 0.0000000000e+00 0.0000e+00 1.0000e+00
       21  1    1    2  502  501 -3.5613082584e-01 -2.7494474455e-01 -6.1201905156e-01 7.5959930038e-01 0.0000000000e+00 0.0000e+00 -1.0000e+00
<mgrwt>
<rscale>  1 0.60926869E+03</rscale>
<asrwt>0</asrwt>
<pdfrwt beam="1">  1        1 0.33796276E+00 0.60926869E+03</pdfrwt>
<pdfrwt beam="2">0</pdfrwt>
<totfact> 0.25242852E+00</totfact>
</mgrwt>
</event>
<event>
 6      1 +5.6466785e-02 6.39186600e+02 7.81860800e-03 9.82728400e-02
        1 -1    0    0  502    0 +0.0000000000e+00 +0.0000000000e+00 +1.0214810692e+02 1.0214810692e+02 0.0000000000e+00 0.0000e+00 1.0000e+00
       13 -1    0    0    0    0 -0.0000000000e+00 -0.0000000000e+00 -1.0000000000e+03 1.0000000000e+03 0.0000000000e+00 0.0000e+00 1.0000e+00
  9000005  2    1    2  501    0 -1.5806929065e-04 -6.1865565101e-05 -8.9786010611e+02 1.1021398921e+03 6.3918664855e+02 0.0000e+00 0.0000e+00
       13  1    3    3    0    0 +1.8625828533e+02 +2.4855185686e+02 -3.1909606741e+02 4.4530043189e+02 0.0000000000e+00 0.0000e+00 1.0000e+00
        3  1    3    3  501    0 -1.8625844340e+02 -2.4855191873e+02 -5.7876403870e+02 6.5683946024e+02 0.0000000000e+00 0.0000e+00 1.0000e+00
       21  1    1    2  502  501 +1.5806929065e-04 +6.1865565098e-05 +8.2130302729e-03 8.2147842037e-03 0.0000000000e+00 0.0000e+00 -1.0000e+00
<mgrwt>
<rscale>  1 0.63918665E+03</rscale>
<asrwt>0</asrwt>
<pdfrwt beam="1">  1        1 0.37144844E+00 0.63918665E+03</pdfrwt>
<pdfrwt beam="2">0</pdfrwt>
<totfact> 0.17931538E+00</totfact>
</mgrwt>
</event>
<event>
 6      1 +5.6466785e-02 6.51839600e+02 7.81860800e-03 9.80333300e-02
        1 -1    0    0  502    0 +0.0000000000e+00 +0.0000000000e+00 +1.0861404865e+02 1.0861404865e+02 0.0000000000e+00 0.0000e+00 1.0000e+00
       13 -1    0    0    0    0 -0.0000000000e+00 -0.0000000000e+00 -1.0000000000e+03 1.0000000000e+03 0.0000000000e+00 0.0000e+00 1.0000e+00
  9000005  2    1    2  501    0 +6.5156509876e-01 -1.7362824797e+00 -8.9337178415e+02 1.1058969278e+03 6.5183696653e+02 0.0000e+00 0.0000e+00
       13  1    3    3    0    0 +1.4691500312e+02 +1.5857342219e+02 -3.3115817038e+01 2.1869203393e+02 0.0000000000e+00 0.0000e+00 1.0000e+00
        3  1    3    3  501    0 -1.4626343802e+02 -1.6030970467e+02 -8.6025596711e+02 8.8720489385e+02 0.0000000000e+00 0.0000e+00 1.0000e+00
       21  1    1    2  502  501 -6.5156509876e-01 +1.7362824797e+00 +1.9858328011e+00 2.7171208735e+00 0.0000000000e+00 0.0000e+00 -1.0000e+00
<mgrwt>
<rscale>  1 0.65183960E+03</rscale>
<asrwt>0</asrwt>
<pdfrwt beam="1">  1        1 0.39496101E+00 0.65183960E+03</pdfrwt>
<pdfrwt beam="2">0</pdfrwt>
<totfact> 0.14082968E+00</totfact>
</mgrwt>
</event>
<event>
 6      1 +5.6466785e-02 6.56448000e+02 7.81860800e-03 9.79475500e-02
        1 -1    0    0  502    0 +0.0000000000e+00 +0.0000000000e+00 +1.0773102162e+02 1.0773102162e+02 0.0000000000e+00 0.0000e+00 1.0000e+00
       13 -1    0    0    0    0 -0.0000000000e+00 -0.0000000000e+00 -1.0000000000e+03 1.0000000000e+03 0.0000000000e+00 0.0000e+00 1.0000e+00
  9000005  2    1    2  501    0 -1.4858094914e-05 -3.7916919098e-05 -8.9226897380e+02 1.1077309806e+03 6.5644802069e+02 0.0000e+00 0.0000e+00
       13  1    3    3    0    0 +2.8762205863e+02 +1.5644773874e+02 -4.8493314346e+02 5.8511750717e+02 0.0000000000e+00 0.0000e+00 1.0000e+00
        3  1    3    3  501    0 -2.8762207349e+02 -1.5644777666e+02 -4.0733583034e+02 5.2261347347e+02 0.0000000000e+00 0.0000e+00 1.0000e+00
       21  1    1    2  502  501 +1.4858094886e-05 +3.7916919090e-05 -4.5810380376e-06 4.0980991281e-05 0.0000000000e+00 0.0000e+00 -1.0000e+00
<mgrwt>
<rscale>  1 0.65644802E+03</rscale>
<asrwt>0</asrwt>
<pdfrwt beam="1">  1        1 0.39175000E+00 0.65644802E+03</pdfrwt>
<pdfrwt beam="2">0</pdfrwt>
<totfact> 0.14540672E+00</totfact>
</mgrwt>
</event>
<event>
 6      1 +5.6466785e-02 6.20449800e+02 7.81860800e-03 9.86386500e-02
        1 -1    0    0  502    0 +0.0000000000e+00 +0.0000000000e+00 +9.6240307859e+01 9.6240307859e+01 0.0000000000e+00 0.0000e+00 1.0000e+00
       13 -1    0    0    0    0 -0.0000000000e+00 -0.0000000000e+00 -1.0000000000e+03 1.0000000000e+03 0.0000000000e+00 0.0000e+00 1.0000e+00
  9000005  2    1    2  501    0 -6.0512309602e-05 -5.9422706443e-05 -9.0376050357e+02 1.0962394920e+03 6.2044981750e+02 0.0000e+00 0.0000e+00
       13  1    3    3    0    0 +6.9601682741e+01 +3.8684396268e+01 -9.8163549033e+02 9.8485994569e+02 0.0000000000e+00 0.0000e+00 1.0000e+00
        3  1    3    3  501    0 -6.9601743254e+01 -3.8684455690e+01 +7.7874986759e+01 1.1137954632e+02 0.0000000000e+00 0.0000e+00 1.0000e+00
       21  1    1    2  502  501 +6.0512309604e-05 +5.9422706446e-05 +8.1142762663e-04 8.1584777435e-04 0.0000000000e+00 0.0000e+00 1.0000e+00
<mgrwt>
<rscale>  1 0.62044982E+03</rscale>
<asrwt>0</asrwt>
<pdfrwt beam="1">  1        1 0.34996549E+00 0.62044982E+03</pdfrwt>
<pdfrwt beam="2">0</pdfrwt>
<totfact> 0.22339727E+00</totfact>
</mgrwt>
</event>
<event>
 6      1 +5.6466785e-02 6.40020200e+02 7.81860800e-03 9.82568800e-02
        1 -1    0    0  502    0 +0.0000000000e+00 +0.0000000000e+00 +1.0240646073e+02 1.0240646073e+02 0.0000000000e+00 0.0000e+00 1.0000e+00
       13 -1    0    0    0    0 -0.0000000000e+00 -0.0000000000e+00 -1.0000000000e+03 1.0000000000e+03 0.0000000000e+00 0.0000e+00 1.0000e+00
  9000005  2    1    2  501    0 +1.9022521656e-06 -6.1257262587e-06 -8.9759353932e+02 1.1024064543e+03 6.4002017833e+02 0.0000e+00 0.0000e+00
       13  1    3    3    0    0 +2.2027278344e+02 +1.8200119808e+02 -2.0060815604e+02 3.4912485946e+02 0.0000000000e+00 0.0000e+00 1.0000e+00
        1  1    3    3  501    0 -2.2027278154e+02 -1.8200120421e+02 -6.9698538329e+02 7.5328159485e+02 0.0000000000e+00 0.0000e+00 1.0000e+00
       21  1    1    2  502  501 -1.9022521557e-06 +6.1257262531e-06 +5.2097019063e-08 6.4144991614e-06 0.0000000000e+00 0.0000e+00 -1.0000e+00
<mgrwt>
<rscale>  1 0.64002018E+03</rscale>
<asrwt>0</asrwt>
<pdfrwt beam="1">  1        1 0.37238792E+00 0.64002018E+03</pdfrwt>
<pdfrwt beam="2">0</pdfrwt>
<totfact> 0.17759141E+00</totfact>
</mgrwt>
</event>
<event>
 6      1 +5.6466785e-02 6.29269000e+02 7.81860800e-03 9.84647600e-02
        1 -1    0    0  502    0 +0.0000000000e+00 +0.0000000000e+00 +9.9023747840e+01 9.9023747840e+01 0.0000000000e+00 0.0000e+00 1.0000e+00
       13 -1    0    0    0    0 -0.0000000000e+00 -0.0000000000e+00 -1.0000000000e+03 1.0000000000e+03 0.0000000000e+00 0.0000e+00 1.0000e+00
  9000005  2    1    2  501    0 +7.7519324743e-03 -8.6873399155e-03 -9.0100382741e+02 1.0989938153e+03 6.2926902746e+02 0.0000e+00 0.0000e+00
       13  1    3    3    0    0 +1.9669185830e+01 +3.0370352539e+02 -3.1111069046e+02 4.3521554422e+02 0.0000000000e+00 0.0000e+00 1.0000e+00
        3  1    3    3  501    0 -1.9661433897e+01 -3.0371221273e+02 -5.8989313695e+02 6.6377827109e+02 0.0000000000e+00 0.0000e+00 1.0000e+00
       21  1    1    2  502  501 -7.7519324743e-03 +8.6873399154e-03 +2.7575251620e-02 2.9932538044e-02 0.0000000000e+00 0.0000e+00 -1.0000e+00
<mgrwt>
<rscale>  1 0.62926903E+03</rscale>
<asrwt>0</asrwt>
<pdfrwt beam="1">  1        1 0.36008712E+00 0.62926903E+03</pdfrwt>
<pdfrwt beam="2">0</pdfrwt>
<totfact> 0.20146796E+00</totfact>
</mgrwt>
</event>
<event>
 6      1 +5.6466785e-02 6.43781100e+02 7.81860800e-03 9.81851900e-02
        3 -1    0    0  502    0 +0.0000000000e+00 +0.0000000000e+00 +1.0361352909e+02 1.0361352909e+02 0.0000000000e+00 0.0000e+00 1.0000e+00
       13 -1    0    0    0    0 -0.0000000000e+00 -0.0000000000e+00 -1.0000000000e+03 1.0000000000e+03 0.0000000000e+00 0.0000e+00 1.0000e+00
  9000005  2    1    2  501    0 +3.4000635196e-08 -1.9206995603e-06 -8.9638647452e+02 1.1036135250e+03 6.4378109700e+02 0.0000e+00 0.0000e+00
       13  1    3    3    0    0 -4.6548314535e+01 +2.6416895609e+02 -7.5322482938e+02 7.9956214676e+02 0.0000000000e+00 0.0000e+00 1.0000e+00
        1  1    3    3  501    0 +4.6548314569e+01 -2.6416895801e+02 -1.4316164515e+02 3.0405137823e+02 0.0000000000e+00 0.0000e+00 1.0000e+00
       21  1    1    2  502  501 -3.4000628467e-08 +1.9206995924e-06 +3.6106993137e-06 4.0899135077e-06 0.0000000000e+00 0.0000e+00 1.0000e+00
<mgrwt>
<rscale>  1 0.64378110E+03</rscale>
<asrwt>0</asrwt>
<pdfrwt beam="1">  1        3 0.37677726E+00 0.64378110E+03</pdfrwt>
<pdfrwt beam="2">0</pdfrwt>
<totfact> 0.78578831E-02</totfact>
</mgrwt>
</event>
<event>
 6      1 +5.6466785e-02 6.50015100e+02 7.81860800e-03 9.80675100e-02
        1 -1    0    0  502    0 +0.0000000000e+00 +0.0000000000e+00 +1.0577323543e+02 1.0577323543e+02 0.0000000000e+00 0.0000e+00 1.0000e+00
       13 -1    0    0    0    0 -0.0000000000e+00 -0.0000000000e+00 -1.0000000000e+03 1.0000000000e+03 0.0000000000e+00 0.0000e+00 1.0000e+00
  9000005  2    1    2  501    0 +3.1641158533e-01 -3.0371734191e-01 -8.9369611461e+02 1.1050847952e+03 6.5001497446e+02 0.0000e+00 0.0000e+00
       13  1    3    3    0    0 -3.0420721538e+02 +1.0905628458e+02 -5.0206018506e+02 5.9707598555e+02 0.0000000000e+00 0.0000e+00 1.0000e+00
        1  1    3    3  501    0 +3.0452362697e+02 -1.0936000192e+02 -3.9163592955e+02 5.0800880968e+02 0.0000000000e+00 0.0000e+00 1.0000e+00
       21  1    1    2  502  501 -3.1641158533e-01 +3.0371734191e-01 -5.3064996707e-01 6.8844019541e-01 0.0000000000e+00 0.0000e+00 -1.0000e+00
<mgrwt>
<rscale>  1 0.65001512E+03</rscale>
<asrwt>0</asrwt>
<pdfrwt beam="1">  1        1 0.38463076E+00 0.65001512E+03</pdfrwt>
<pdfrwt beam="2">0</pdfrwt>
<totfact> 0.15654677E+00</totfact>
</mgrwt>
</event>
<event>
 6      1 +5.6466785e-02 6.40441900e+02 7.81860800e-03 9.82488100e-02
        1 -1    0    0  502    0 +0.0000000000e+00 +0.0000000000e+00 +1.0259657220e+02 1.0259657220e+02 0.0000000000e+00 0.0000e+00 1.0000e+00
       13 -1    0    0    0    0 -0.0000000000e+00 -0.0000000000e+00 -1.0000000000e+03 1.0000000000e+03 0.0000000000e+00 0.0000e+00 1.0000e+00
  9000005  2    1    2  501    0 -1.6214598759e-03 +1.1621227080e-03 -8.9745852400e+02 1.1025414399e+03 6.4044189773e+02 0.0000e+00 0.0000e+00
       13  1    3    3    0    0 +8.1945641933e+01 +2.5559367201e+02 -7.4937446700e+02 7.9599328213e+02 0.0000000000e+00 0.0000e+00 1.0000e+00
        3  1    3    3  501    0 -8.1947263393e+01 -2.5559250989e+02 -1.4808405701e+02 3.0654815777e+02 0.0000000000e+00 0.0000e+00 1.0000e+00
       21  1    1    2  502  501 +1.6214598759e-03 -1.1621227080e-03 +5.5096204392e-02 5.5132308130e-02 0.0000000000e+00 0.0000e+00 -1.0000e+00
<mgrwt>
<rscale>  1 0.64044190E+03</rscale>
<asrwt>0</asrwt>
<pdfrwt beam="1">  1        1 0.37307923E+00 0.64044190E+03</pdfrwt>
<pdfrwt beam="2">0</pdfrwt>
<totfact> 0.17633910E+00</totfact>
</mgrwt>
</event>
<event>
 6      1 +5.6466785e-02 6.48255700e+02 7.81860800e-03 9.81005800e-02
        1 -1    0    0  502    0 +0.0000000000e+00 +0.0000000000e+00 +1.0615269165e+02 1.0615269165e+02 0.0000000000e+00 0.0000e+00 1.0000e+00
       13 -1    0    0    0    0 -0.0000000000e+00 -0.0000000000e+00 -1.0000000000e+03 1.0000000000e+03 0.0000000000e+00 0.0000e+00 1.0000e+00
  9000005  2    1    2  501    0 -5.0424970909e-02 +1.1433879503e-01 -8.9493720336e+02 1.1050556560e+03 6.4825565122e+02 0.0000e+00 0.0000e+00
       13  1    3    3    0    0 -1.3052981243e+02 +2.8568123058e+02 -3.1068698983e+02 4.4178977251e+02 0.0000000000e+00 0.0000e+00 1.0000e+00
        3  1    3    3  501    0 +1.3047938746e+02 -2.8556689179e+02 -5.8425021352e+02 6.6326588352e+02 0.0000000000e+00 0.0000e+00 1.0000e+00
       21  1    1    2  502  501 +5.0424970909e-02 -1.1433879503e-01 +1.0898950048e+00 1.0970356235e+00 0.0000000000e+00 0.0000e+00 1.0000e+00
<mgrwt>
<rscale>  1 0.64825566E+03</rscale>
<asrwt>0</asrwt>
<pdfrwt beam="1">  1        1 0.38601060E+00 0.64825566E+03</pdfrwt>
<pdfrwt beam="2">0</pdfrwt>
<totfact> 0.15441216E+00</totfact>
</mgrwt>
</event>
<event>
 6      1 +5.6466785e-02 6.34993500e+02 7.81860800e-03 9.83535300e-02
        1 -1    0    0  502    0 +0.0000000000e+00 +0.0000000000e+00 +1.0081858028e+02 1.0081858028e+02 0.0000000000e+00 0.0000e+00 1.0000e+00
       13 -1    0    0    0    0 -0.0000000000e+00 -0.0000000000e+00 -1.0000000000e+03 1.0000000000e+03 0.0000000000e+00 0.0000e+00 1.0000e+00
  9000005  2    1    2  501    0 -2.3277345989e-04 +2.0300753229e-04 -8.9919582067e+02 1.1008041760e+03 6.3499347243e+02 0.0000e+00 0.0000e+00
       13  1    3    3    0    0 +5.9218177498e+01 +2.1312748745e+02 -5.4762609291e+01 2.2787948971e+02 0.0000000000e+00 0.0000e+00 1.0000e+00
        3  1    3    3  501    0 -5.9218410271e+01 -2.1312728444e+02 -8.4443321138e+02 8.7292468631e+02 0.0000000000e+00 0.0000e+00 1.0000e+00
       21  1    1    2  502  501 +2.3277345989e-04 -2.0300753229e-04 +1.4400951356e-02 1.4404263102e-02 0.0000000000e+00 0.0000e+00 1.0000e+00
<mgrwt>
<rscale>  1 0.63499347E+03</rscale>
<asrwt>0</asrwt>
<pdfrwt beam="1">  1        1 0.36661379E+00 0.63499347E+03</pdfrwt>
<pdfrwt beam="2">0</pdfrwt>
<totfact> 0.18843996E+00</totfact>
</mgrwt>
</event>
<event>
 6      1 +5.6466785e-02 6.53719000e+02 7.81860800e-03 9.79982600e-02
        1 -1    0    0  502    0 +0.0000000000e+00 +0.0000000000e+00 +1.0683925419e+02 1.0683925419e+02 0.0000000000e+00 0.0000e+00 1.0000e+00
       13 -1    0    0    0    0 -0.0000000000e+00 -0.0000000000e+00 -1.0000000000e+03 1.0000000000e+03 0.0000000000e+00 0.0000e+00 1.0000e+00
  9000005  2    1    2  501    0 -3.7321858373e-04 +1.1519696046e-04 -8.9316286175e+02 1.1068371025e+03 6.5371895634e+02 0.0000e+00 0.0000e+00
       13  1    3    3    0    0 -7.4632025497e+01 -5.4120656282e+01 -9.7753151743e+02 9.8186906063e+02 0.0000000000e+00 0.0000e+00 1.0000e+00
        1  1    3    3  501    0 +7.4631652278e+01 +5.4120771479e+01 +8.4368655681e+01 1.2496804187e+02 0.0000000000e+00 0.0000e+00 1.0000e+00
       21  1    1    2  502  501 +3.7321858373e-04 -1.1519696046e-04 +2.1159349991e-03 2.1516838455e-03 0.0000000000e+00 0.0000e+00 1.0000e+00
<mgrwt>
<rscale>  1 0.65371896E+03</rscale>
<asrwt>0</asrwt>
<pdfrwt beam="1">  1        1 0.38850720E+00 0.65371896E+03</pdfrwt>
<pdfrwt beam="2">0</pdfrwt>
<totfact> 0.15037873E+00</totfact>
</mgrwt>
</event>
<event>
 6      1 +5.6466785e-02 6.57296000e+02 7.81860800e-03 9.79318400e-02
        1 -1    0    0  502    0 +0.0000000000e+00 +0.0000000000e+00 +1.1271118135e+02 1.1271118135e+02 0.0000000000e+00 0.0000e+00 1.0000e+00
       13 -1    0    0    0    0 -0.0000000000e+00 -0.0000000000e+00 -1.0000000000e+03 1.0000000000e+03 0.0000000000e+00 0.0000e+00 1.0000e+00
  9000005  2    1    2  501    0 +2.3434634965e+00 +1.2497397483e+01 -8.7881692416e+02 1.0974321185e+03 6.5717303032e+02 0.0000e+00 0.0000e+00
       13  1    3    3    0    0 +1.6508276576e+02 -3.2359378274e+01 +3.1883010736e+01 1.7121908564e+02 0.0000000000e+00 0.0000e+00 1.0000e+00
        1  1    3    3  501    0 -1.6273930227e+02 +4.4856775757e+01 -9.1069993490e+02 9.2621303287e+02 0.0000000000e+00 0.0000e+00 1.0000e+00
       21  1    1    2  502  501 -2.3434634965e+00 -1.2497397483e+01 -8.4718944899e+00 1.5279062840e+01 0.0000000000e+00 0.0000e+00 -1.0000e+00
<mgrwt>
<rscale>  1 0.65729603E+03</rscale>
<asrwt>0</asrwt>
<pdfrwt beam="1">  1        1 0.40985971E+00 0.65729603E+03</pdfrwt>
<pdfrwt beam="2">0</pdfrwt>
<totfact> 0.12070766E+00</totfact>
</mgrwt>
</event>
<event>
 6      1 +5.6466785e-02 6.88829300e+02 7.81860800e-03 9.73652800e-02
        3 -1    0    0  502    0 +0.0000000000e+00 +0.0000000000e+00 +1.2129722593e+02 1.2129722593e+02 0.0000000000e+00 0.0000e+00 1.0000e+00
       13 -1    0    0    0    0 -0.0000000000e+00 -0.0000000000e+00 -1.0000000000e+03 1.0000000000e+03 0.0000000000e+00 0.0000e+00 1.0000e+00
  9000005  2    1    2  501    0 +1.2611860754e-01 -7.3256898589e-01 -8.8132064873e+02 1.1185758603e+03 6.8882894594e+02 0.0000e+00 0.0000e+00
       13  1    3    3    0    0 -2.8458644525e+02 -7.7528955672e+01 -7.2955714302e+02 7.8692681281e+02 0.0000000000e+00 0.0000e+00 1.0000e+00
        3  1    3    3  501    0 +2.8471256386e+02 +7.6796386686e+01 -1.5176350571e+02 3.3164904748e+02 0.0000000000e+00 0.0000e+00 1.0000e+00
       21  1    1    2  502  501 -1.2611860754e-01 +7.3256898589e-01 +2.6178746624e+00 2.7213656443e+00 0.0000000000e+00 0.0000e+00 -1.0000e+00
<mgrwt>
<rscale>  1 0.68882935E+03</rscale>
<asrwt>0</asrwt>
<pdfrwt beam="1">  1        3 0.44108175E+00 0.68882935E+03</pdfrwt>
<pdfrwt beam="2">0</pdfrwt>
<totfact> 0.36045452E-02</totfact>
</mgrwt>
</event>
<event>
 6      1 +5.6466785e-02 6.54577000e+02 7.81860800e-03 9.79822800e-02
        1 -1    0    0  502    0 +0.0000000000e+00 +0.0000000000e+00 +1.0711798016e+02 1.0711798016e+02 0.0000000000e+00 0.0000e+00 1.0000e+00
       13 -1    0    0    0    0 -0.0000000000e+00 -0.0000000000e+00 -1.0000000000e+03 1.0000000000e+03 0.0000000000e+00 0.0000e+00 1.0000e+00
  9000005  2    1    2  501    0 -4.9755232251e-04 -8.9568097046e-05 -8.9288178467e+02 1.1071174226e+03 6.5457704359e+02 0.0000e+00 0.0000e+00
       13  1    3    3    0    0 +4.1841593860e+01 +4.4630925388e+01 +9.7361301579e+01 1.1498635364e+02 0.0000000000e+00 0.0000e+00 1.0000e+00
        1  1    3    3  501    0 -4.1842091412e+01 -4.4631014956e+01 -9.9024308625e+02 9.9213106895e+02 0.0000000000e+00 0.0000e+00 1.0000e+00
       21  1    1    2  502  501 +4.9755232252e-04 +8.9568097043e-05 -2.3516523639e-04 5.5756922984e-04 0.0000000000e+00 0.0000e+00 -1.0000e+00
<mgrwt>
<rscale>  1 0.65457704E+03</rscale>
<asrwt>0</asrwt>
<pdfrwt beam="1">  1        1 0.38952075E+00 0.65457704E+03</pdfrwt>
<pdfrwt beam="2">0</pdfrwt>
<totfact> 0.14880750E+00</totfact>
</mgrwt>
</event>
<event>
 6      1 +5.6466785e-02 6.50359400e+02 7.81860800e-03 9.80610500e-02
        1 -1    0    0  502    0 +0.0000000000e+00 +0.0000000000e+00 +1.0584457036e+02 1.0584457036e+02 0.0000000000e+00 0.0000e+00 1.0000e+00
       13 -1    0    0    0    0 -0.0000000000e+00 -0.0000000000e+00 -1.0000000000e+03 1.0000000000e+03 0.0000000000e+00 0.0000e+00 1.0000e+00
  9000005  2    1    2  501    0 +4.0016512207e-02 -8.4276282203e-02 -8.9423418883e+02 1.1057224769e+03 6.5035944112e+02 0.0000e+00 0.0000e+00
       13  1    3    3    0    0 +2.5938129857e+02 +1.9404119557e+02 -4.9534953688e+02 5.9186299708e+02 0.0000000000e+00 0.0000e+00 1.0000e+00
        1  1    3    3  501    0 -2.5934128205e+02 -1.9412547185e+02 -3.9888465195e+02 5.1385947978e+02 0.0000000000e+00 0.0000e+00 1.0000e+00
       21  1    1    2  502  501 -4.0016512207e-02 +8.4276282203e-02 +7.8759194311e-02 1.2209350384e-01 0.0000000000e+00 0.0000e+00 1.0000e+00
<mgrwt>
<rscale>  1 0.65035945E+03</rscale>
<asrwt>0</asrwt>
<pdfrwt beam="1">  1        1 0.38489016E+00 0.65035945E+03</pdfrwt>
<pdfrwt beam="2">0</pdfrwt>
<totfact> 0.15612385E+00</totfact>
</mgrwt>
</event>
<event>
 6      1 +5.6466785e-02 6.54884500e+02 7.81860800e-03 9.79765700e-02
        1 -1    0    0  502    0 +0.0000000000e+00 +0.0000000000e+00 +1.0746948812e+02 1.0746948812e+02 0.0000000000e+00 0.0000e+00 1.0000e+00
       13 -1    0    0    0    0 -0.0000000000e+00 -0.0000000000e+00 -1.0000000000e+03 1.0000000000e+03 0.0000000000e+00 0.0000e+00 1.0000e+00
  9000005  2    1    2  501    0 +6.7363038684e-02 +2.1950240315e-02 -8.9277603779e+02 1.1072139445e+03 6.5488446318e+02 0.0000e+00 0.0000e+00
       13  1    3    3    0    0 +2.5590901345e+01 +1.5965648957e+02 +3.5016362604e+01 1.6544254152e+02 0.0000000000e+00 0.0000e+00 1.0000e+00
        3  1    3    3  501    0 -2.5523538307e+01 -1.5963453933e+02 -9.2779240040e+02 9.4177140294e+02 0.0000000000e+00 0.0000e+00 1.0000e+00
       21  1    1    2  502  501 -6.7363038684e-02 -2.1950240315e-02 +2.4552590923e-01 2.5554366385e-01 0.0000000000e+00 0.0000e+00 1.0000e+00
<mgrwt>
<rscale>  1 0.65488447E+03</rscale>
<asrwt>0</asrwt>
<pdfrwt beam="1">  1        1 0.39079896E+00 0.65488447E+03</pdfrwt>
<pdfrwt beam="2">0</pdfrwt>
<totfact> 0.14686930E+00</totfact>
</mgrwt>
</event>
<event>
 6      1 +5.6466785e-02 6.44956000e+02 7.81860800e-03 9.81629000e-02
        1 -1    0    0  502    0 +0.0000000000e+00 +0.0000000000e+00 +1.0399380927e+02 1.0399380927e+02 0.0000000000e+00 0.0000e+00 1.0000e+00
       13 -1    0    0    0    0 -0.0000000000e+00 -0.0000000000e+00 -1.0000000000e+03 1.0000000000e+03 0.0000000000e+00 0.0000e+00 1.0000e+00
  9000005  2    1    2  501    0 -1.3827570347e-03 +1.4684872175e-03 -8.9600728775e+02 1.1039915132e+03 6.4495596867e+02 0.0000e+00 0.0000e+00
       13  1    3    3    0    0 +1.6258680230e+02 -6.5673957673e+01 +1.5254341193e+01 1.7601202210e+02 0.0000000000e+00 0.0000e+00 1.0000e+00
        3  1    3    3  501    0 -1.6258818506e+02 +6.5675426160e+01 -9.1126162894e+02 9.2797949110e+02 0.0000000000e+00 0.0000e+00 1.0000e+00
       21  1    1    2  502  501 +1.3827570347e-03 -1.4684872175e-03 +1.0970189266e-03 2.2960666912e-03 0.0000000000e+00 0.0000e+00 -1.0000e+00
<mgrwt>
<rscale>  1 0.64495597E+03</rscale>
<asrwt>0</asrwt>
<pdfrwt beam="1">  1        1 0.37816010E+00 0.64495597E+03</pdfrwt>
<pdfrwt beam="2">0</pdfrwt>
<totfact> 0.16734712E+00</totfact>
</mgrwt>
</event>
<event>
 6      1 +5.6466785e-02 6.46416300e+02 7.81860800e-03 9.81352700e-02
        1 -1    0    0  502    0 +0.0000000000e+00 +0.0000000000e+00 +1.0457288953e+02 1.0457288953e+02 0.0000000000e+00 0.0000e+00 1.0000e+00
       13 -1    0    0    0    0 -0.0000000000e+00 -0.0000000000e+00 -1.0000000000e+03 1.0000000000e+03 0.0000000000e+00 0.0000e+00 1.0000e+00
  9000005  2    1    2  501    0 +6.9446896187e-03 +2.2980496839e-03 -8.9553636477e+02 1.1044633906e+03 6.4641627497e+02 0.0000e+00 0.0000e+00
       13  1    3    3    0    0 +5.5410018039e+01 +1.5953733557e+02 +2.3076920638e+01 1.7045520176e+02 0.0000000000e+00 0.0000e+00 1.0000e+00
        1  1    3    3  501    0 -5.5403073349e+01 -1.5953503752e+02 -9.1861328541e+02 9.3400818886e+02 0.0000000000e+00 0.0000e+00 1.0000e+00
       21  1    1    2  502  501 -6.9446896187e-03 -2.2980496839e-03 +1.0925430154e-01 1.0949891393e-01 0.0000000000e+00 0.0000e+00 1.0000e+00
<mgrwt>
<rscale>  1 0.64641628E+03</rscale>
<asrwt>0</asrwt>
<pdfrwt beam="1">  1        1 0.38026585E+00 0.64641628E+03</pdfrwt>
<pdfrwt beam="2">0</pdfrwt>
<totfact> 0.16376242E+00</totfact>
</mgrwt>
</event>
<event>
 6      1 +5.6466785e-02 6.48628800e+02 7.81860800e-03 9.80935600e-02
        1 -1    0    0  502    0 +0.0000000000e+00 +0.0000000000e+00 +1.0653348259e+02 1.0653348259e+02 0.0000000000e+00 0.0000e+00 1.0000e+00
       13 -1    0    0    0    0 -0.0000000000e+00 -0.0000000000e+00 -1.0000000000e+03 1.0000000000e+03 0.0000000000e+00 0.0000e+00 1.0000e+00
  9000005  2    1    2  501    0 +3.1711548836e-01 +8.2033837649e-02 -8.9479824540e+02 1.1051620632e+03 6.4862869086e+02 0.0000e+00 0.0000e+00
       13  1    3    3    0    0 +2.9908970073e+02 -7.0265271806e+01 -2.6988965122e+02 4.0894043740e+02 0.0000000000e+00 0.0000e+00 1.0000e+00
        3  1    3    3  501    0 -2.9877258524e+02 +7.0347305643e+01 -6.2490859418e+02 6.9622162577e+02 0.0000000000e+00 0.0000e+00 1.0000e+00
       21  1    1    2  502  501 -3.1711548836e-01 -8.2033837649e-02 +1.3317279932e+00 1.3714194221e+00 0.0000000000e+00 0.0000e+00 1.0000e+00
<mgrwt>
<rscale>  1 0.64862877E+03</rscale>
<asrwt>0</asrwt>
<pdfrwt beam="1">  1        1 0.38739530E+00 0.64862877E+03</pdfrwt>
<pdfrwt beam="2">0</pdfrwt>
<totfact> 0.15223762E+00</totfact>
</mgrwt>
</event>
<event>
 6      1 +5.6466785e-02 6.52800700e+02 7.81860800e-03 9.80153800e-02
        1 -1    0    0  502    0 +0.0000000000e+00 +0.0000000000e+00 +1.1137065526e+02 1.1137065526e+02 0.0000000000e+00 0.0000e+00 1.0000e+00
       13 -1    0    0    0    0 -0.0000000000e+00 -0.0000000000e+00 -1.0000000000e+03 1.0000000000e+03 0.0000000000e+00 0.0000e+00 1.0000e+00
  9000005  2    1    2  501    0 +1.1714409461e+01 -6.3303411482e+00 -8.7920660129e+02 1.0950584297e+03 6.5266485743e+02 0.0000e+00 0.0000e+00
       13  1    3    3    0    0 -1.4694967923e+02 -1.6035671086e+02 -8.4346611750e+02 8.7105888108e+02 0.0000000000e+00 0.0000e+00 1.0000e+00
        1  1    3    3  501    0 +1.5866408869e+02 +1.5402636971e+02 -3.5740483795e+01 2.2399954864e+02 0.0000000000e+00 0.0000e+00 1.0000e+00
       21  1    1    2  502  501 -1.1714409461e+01 +6.3303411482e+00 -9.4227434466e+00 1.6312225542e+01 0.0000000000e+00 0.0000e+00 1.0000e+00
<mgrwt>
<rscale>  1 0.65280067E+03</rscale>
<asrwt>0</asrwt>
<pdfrwt beam="1">  1        1 0.40498505E+00 0.65280067E+03</pdfrwt>
<pdfrwt beam="2">0</pdfrwt>
<totfact> 0.12703732E+00</totfact>
</mgrwt>
</event>
<event>
 6      1 +5.6466785e-02 6.56889000e+02 7.81860800e-03 9.79393800e-02
        1 -1    0    0  502    0 +0.0000000000e+00 +0.0000000000e+00 +1.0840242754e+02 1.0840242754e+02 0.0000000000e+00 0.0000e+00 1.0000e+00
       13 -1    0    0    0    0 -0.0000000000e+00 -0.0000000000e+00 -1.0000000000e+03 1.0000000000e+03 0.0000000000e+00 0.0000e+00 1.0000e+00
  9000005  2    1    2  501    0 +1.7156372076e-03 +1.8499564375e-02 -8.9212402489e+02 1.1078756474e+03 6.5688901186e+02 0.0000e+00 0.0000e+00
       13  1    3    3    0    0 +3.0497607455e+02 +3.3617503881e+01 -2.4839681185e+02 3.9476767694e+02 0.0000000000e+00 0.0000e+00 1.0000e+00
        3  1    3    3  501    0 -3.0497435892e+02 -3.3599004317e+01 -6.4372721305e+02 7.1310797044e+02 0.0000000000e+00 0.0000e+00 1.0000e+00
       21  1    1    2  502  501 -1.7156372076e-03 -1.8499564375e-02 +5.2645243335e-01 5.2678016465e-01 0.0000000000e+00 0.0000e+00 1.0000e+00
<mgrwt>
<rscale>  1 0.65688901E+03</rscale>
<asrwt>0</asrwt>
<pdfrwt beam="1">  1        1 0.39419148E+00 0.65688901E+03</pdfrwt>
<pdfrwt beam="2">0</pdfrwt>
<totfact> 0.14180917E+00</totfact>
</mgrwt>
</event>
<event>
 6      1 +5.6466785e-02 6.54826400e+02 7.81860800e-03 9.79776500e-02
        1 -1    0    0  502    0 +0.0000000000e+00 +0.0000000000e+00 +1.0720131488e+02 1.0720131488e+02 0.0000000000e+00 0.0000e+00 1.0000e+00
       13 -1    0    0    0    0 -0.0000000000e+00 -0.0000000000e+00 -1.0000000000e+03 1.0000000000e+03 0.0000000000e+00 0.0000e+00 1.0000e+00
  9000005  2    1    2  501    0 +3.4620529988e-05 -2.6909391423e-05 -8.9280058604e+02 1.1071994135e+03 6.5482643099e+02 0.0000e+00 0.0000e+00
       13  1    3    3    0    0 -1.4156220059e+02 +7.0176996094e+01 -9.3127250358e+02 9.4458093531e+02 0.0000000000e+00 0.0000e+00 1.0000e+00
        3  1    3    3  501    0 +1.4156223521e+02 -7.0177023004e+01 +3.8471917545e+01 1.6261847815e+02 0.0000000000e+00 0.0000e+00 1.0000e+00
       21  1    1    2  502  501 -3.4620530011e-05 +2.6909391422e-05 +1.9009148674e-03 1.9014205294e-03 0.0000000000e+00 0.0000e+00 -1.0000e+00
<mgrwt>
<rscale>  1 0.65482643E+03</rscale>
<asrwt>0</asrwt>
<pdfrwt beam="1">  1        1 0.38982379E+00 0.65482643E+03</pdfrwt>
<pdfrwt beam="2">0</pdfrwt>
<totfact> 0.14834096E+00</totfact>
</mgrwt>
</event>
<event>
 6      1 +5.6466785e-02 6.54649200e+02 7.81860800e-03 9.79809400e-02
        1 -1    0    0  502    0 +0.0000000000e+00 +0.0000000000e+00 +1.0714140418e+02 1.0714140418e+02 0.0000000000e+00 0.0000e+00 1.0000e+00
       13 -1    0    0    0    0 -0.0000000000e+00 -0.0000000000e+00 -1.0000000000e+03 1.0000000000e+03 0.0000000000e+00 0.0000e+00 1.0000e+00
  9000005  2    1    2  501    0 -3.2634479652e-06 +1.0076737453e-06 -8.9285860157e+02 1.1071413975e+03 6.5464921267e+02 0.0000e+00 0.0000e+00
       13  1    3    3    0    0 -1.2469402427e+02 +2.1101601530e+02 -8.1332587629e+02 8.4945590789e+02 0.0000000000e+00 0.0000e+00 1.0000e+00
        1  1    3    3  501    0 +1.2469402100e+02 -2.1101601430e+02 -7.9532725277e+01 2.5768548961e+02 0.0000000000e+00 0.0000e+00 1.0000e+00
       21  1    1    2  502  501 +3.2634479640e-06 -1.0076737461e-06 +5.7493636073e-06 6.6873523072e-06 0.0000000000e+00 0.0000e+00 -1.0000e+00
<mgrwt>
<rscale>  1 0.65464921E+03</rscale>
<asrwt>0</asrwt>
<pdfrwt beam="1">  1        1 0.38960593E+00 0.65464921E+03</pdfrwt>
<pdfrwt beam="2">0</pdfrwt>
<totfact> 0.14867617E+00</totfact>
</mgrwt>
</event>
<event>
 6      1 +5.6466785e-02 6.08938800e+02 7.81860800e-03 9.88703300e-02
        1 -1    0    0  502    0 +0.0000000000e+00 +0.0000000000e+00 +9.2887304338e+01 9.2887304338e+01 0.0000000000e+00 0.0000e+00 1.0000e+00
       13 -1    0    0    0    0 -0.0000000000e+00 -0.0000000000e+00 -1.0000000000e+03 1.0000000000e+03 0.0000000000e+00 0.0000e+00 1.0000e+00
  9000005  2    1    2  501    0 -1.2827494022e-03 -1.0219335027e-02 -9.0729824265e+02 1.0927014717e+03 6.0893875312e+02 0.0000e+00 0.0000e+00
       13  1    3    3    0    0 -4.7740862736e+01 -1.1660098473e+02 +4.3726674209e+01 1.3336791837e+02 0.0000000000e+00 0.0000e+00 1.0000e+00
        1  1    3    3  501    0 +4.7739579986e+01 +1.1659076539e+02 -9.5102491686e+02 9.5933355334e+02 0.0000000000e+00 0.0000e+00 1.0000e+00
       21  1    1    2  502  501 +1.2827494022e-03 +1.0219335027e-02 +1.8554698855e-01 1.8583262688e-01 0.0000000000e+00 0.0000e+00 1.0000e+00
<mgrwt>
<rscale>  1 0.60893875E+03</rscale>
<asrwt>0</asrwt>
<pdfrwt beam="1">  1        1 0.33777273E+00 0.60893875E+03</pdfrwt>
<pdfrwt beam="2">0</pdfrwt>
<totfact> 0.25292319E+00</totfact>
</mgrwt>
</event>
<event>
 6      1 +5.6466785e-02 6.48065400e+02 7.81860800e-03 9.81041600e-02
        1 -1    0    0  502    0 +0.0000000000e+00 +0.0000000000e+00 +1.0509466396e+02 1.0509466396e+02 0.0000000000e+00 0.0000e+00 1.0000e+00
       13 -1    0    0    0    0 -0.0000000000e+00 -0.0000000000e+00 -1.0000000000e+03 1.0000000000e+03 0.0000000000e+00 0.0000e+00 1.0000e+00
  9000005  2    1    2  501    0 -2.0769399047e-02 +1.2864039046e-01 -8.9495217579e+02 1.1049561949e+03 6.4806541238e+02 0.0000e+00 0.0000e+00
       13  1    3    3    0    0 +1.9939767697e+02 +2.1363106393e+02 -2.0868559901e+02 3.5909238963e+02 0.0000000000e+00 0.0000e+00 1.0000e+00
        1  1    3    3  501    0 -1.9941844637e+02 -2.1350242354e+02 -6.8626657677e+02 7.4586380527e+02 0.0000000000e+00 0.0000e+00 1.0000e+00
       21  1    1    2  502  501 +2.0769399047e-02 -1.2864039046e-01 +4.6839743193e-02 1.3846905624e-01 0.0000000000e+00 0.0000e+00 -1.0000e+00
<mgrwt>
<rscale>  1 0.64806543E+03</rscale>
<asrwt>0</asrwt>
<pdfrwt beam="1">  1        1 0.38216322E+00 0.64806543E+03</pdfrwt>
<pdfrwt beam="2">0</pdfrwt>
<totfact> 0.16058533E+00</totfact>
</mgrwt>
</event>
<event>
 6      1 +5.6466785e-02 6.52166300e+02 7.81860800e-03 9.80272300e-02
        1 -1    0    0  502    0 +0.0000000000e+00 +0.0000000000e+00 +1.0633093024e+02 1.0633093024e+02 0.0000000000e+00 0.0000e+00 1.0000e+00
       13 -1    0    0    0    0 -0.0000000000e+00 -0.0000000000e+00 -1.0000000000e+03 1.0000000000e+03 0.0000000000e+00 0.0000e+00 1.0000e+00
  9000005  2    1    2  501    0 -2.0575435013e-05 +5.1613008623e-07 -8.9366977143e+02 1.1063302283e+03 6.5216632358e+02 0.0000e+00 0.0000e+00
       13  1    3    3    0    0 +1.5702168672e+01 -2.4917434047e+02 -9.1013449089e+01 2.6574020766e+02 0.0000000000e+00 0.0000e+00 1.0000e+00
        3  1    3    3  501    0 -1.5702189247e+01 +2.4917434099e+02 -8.0265632234e+02 8.4059002061e+02 0.0000000000e+00 0.0000e+00 1.0000e+00
       21  1    1    2  502  501 +2.0575435012e-05 -5.1613007706e-07 +7.0167004777e-04 7.0197184478e-04 0.0000000000e+00 0.0000e+00 -1.0000e+00
<mgrwt>
<rscale>  1 0.65216632E+03</rscale>
<asrwt>0</asrwt>
<pdfrwt beam="1">  1        1 0.38665874E+00 0.65216632E+03</pdfrwt>
<pdfrwt beam="2">0</pdfrwt>
<totfact> 0.15328451E+00</totfact>
</mgrwt>
</event>
<event>
 6      1 +5.6466785e-02 5.91739200e+02 7.81860800e-03 9.92269400e-02
        1 -1    0    0  502    0 +0.0000000000e+00 +0.0000000000e+00 +8.7538993328e+01 8.7538993328e+01 0.0000000000e+00 0.0000e+00 1.0000e+00
       13 -1    0    0    0    0 -0.0000000000e+00 -0.0000000000e+00 -1.0000000000e+03 1.0000000000e+03 0.0000000000e+00 0.0000e+00 1.0000e+00
  9000005  2    1    2  501    0 +7.5325188959e-05 -1.0061265939e-04 -9.1246114088e+02 1.0875388095e+03 5.9173924025e+02 0.0000e+00 0.0000e+00
       13  1    3    3    0    0 -9.5734518632e+01 +2.3934675771e+02 -1.8934800766e+02 3.1985095980e+02 0.0000000000e+00 0.0000e+00 1.0000e+00
        1  1    3    3  501    0 +9.5734593957e+01 -2.3934685832e+02 -7.2311313322e+02 7.6768784965e+02 0.0000000000e+00 0.0000e+00 1.0000e+00
       21  1    1    2  502  501 -7.5325188961e-05 +1.0061265938e-04 +1.3420957294e-04 1.8387224040e-04 0.0000000000e+00 0.0000e+00 -1.0000e+00
<mgrwt>
<rscale>  1 0.59173924E+03</rscale>
<asrwt>0</asrwt>
<pdfrwt beam="1">  1        1 0.31832428E+00 0.59173924E+03</pdfrwt>
<pdfrwt beam="2">0</pdfrwt>
<totfact> 0.30798551E+00</totfact>
</mgrwt>
</event>
<event>
 6      1 +5.6466785e-02 6.48630600e+02 7.81860800e-03 9.80935200e-02
        1 -1    0    0  502    0 +0.0000000000e+00 +0.0000000000e+00 +1.0519076730e+02 1.0519076730e+02 0.0000000000e+00 0.0000e+00 1.0000e+00
       13 -1    0    0    0    0 -0.0000000000e+00 -0.0000000000e+00 -1.0000000000e+03 1.0000000000e+03 0.0000000000e+00 0.0000e+00 1.0000e+00
  9000005  2    1    2  501    0 +8.2426430233e-03 +3.0834649022e-02 -8.9476446890e+02 1.1051357899e+03 6.4863060233e+02 0.0000e+00 0.0000e+00
       13  1    3    3    0    0 -2.4543250136e+02 +1.1497823712e+02 -1.4391401189e+02 3.0686862099e+02 0.0000000000e+00 0.0000e+00 1.0000e+00
        3  1    3    3  501    0 +2.4544074400e+02 -1.1494740247e+02 -7.5085045702e+02 7.9826716890e+02 0.0000000000e+00 0.0000e+00 1.0000e+00
       21  1    1    2  502  501 -8.2426430233e-03 -3.0834649022e-02 -4.4763800154e-02 5.4977400344e-02 0.0000000000e+00 0.0000e+00 -1.0000e+00
<mgrwt>
<rscale>  1 0.64863060E+03</rscale>
<asrwt>0</asrwt>
<pdfrwt beam="1">  1        1 0.38251269E+00 0.64863060E+03</pdfrwt>
<pdfrwt beam="2">0</pdfrwt>
<totfact> 0.15999888E+00</totfact>
</mgrwt>
</event>
<event>
 6      1 +5.6466785e-02 6.47027400e+02 7.81860800e-03 9.81237300e-02
        3 -1    0    0  502    0 +0.0000000000e+00 +0.0000000000e+00 +1.0501442294e+02 1.0501442294e+02 0.0000000000e+00 0.0000e+00 1.0000e+00
       13 -1    0    0    0    0 -0.0000000000e+00 -0.0000000000e+00 -1.0000000000e+03 1.0000000000e+03 0.0000000000e+00 0.0000e+00 1.0000e+00
  9000005  2    1    2  501    0 -3.7862801412e-01 -7.9877157900e-01 -8.9456907698e+02 1.1040372497e+03 6.4702676441e+02 0.0000e+00 0.0000e+00
       13  1    3    3    0    0 +2.1955930138e+02 +2.3031770518e+02 -5.4234694402e+02 6.2880262390e+02 0.0000000000e+00 0.0000e+00 1.0000e+00
        3  1    3    3  501    0 -2.1993792939e+02 -2.3111647676e+02 -3.5222213296e+02 4.7523462581e+02 0.0000000000e+00 0.0000e+00 1.0000e+00
       21  1    1    2  502  501 +3.7862801412e-01 +7.9877157900e-01 -4.1650007959e-01 9.7717323171e-01 0.0000000000e+00 0.0000e+00 1.0000e+00
<mgrwt>
<rscale>  1 0.64702737E+03</rscale>
<asrwt>0</asrwt>
<pdfrwt beam="1">  1        3 0.38187143E+00 0.64702737E+03</pdfrwt>
<pdfrwt beam="2">0</pdfrwt>
<totfact> 0.73817444E-02</totfact>
</mgrwt>
</event>
<event>
 6      1 +5.6466785e-02 6.50158200e+02 7.81860800e-03 9.80648200e-02
        1 -1    0    0  502    0 +0.0000000000e+00 +0.0000000000e+00 +1.0616042593e+02 1.0616042593e+02 0.0000000000e+00 0.0000e+00 1.0000e+00
       13 -1    0    0    0    0 -0.0000000000e+00 -0.0000000000e+00 -1.0000000000e+03 1.0000000000e+03 0.0000000000e+00 0.0000e+00 1.0000e+00
  9000005  2    1    2  501    0 +8.5790037192e-03 +2.9724225770e-02 -8.9432303969e+02 1.1056759715e+03 6.5015817582e+02 0.0000e+00 0.0000e+00
       13  1    3    3    0    0 +4.3726739530e+01 +9.7951587686e+01 -9.6905058458e+02 9.7496952606e+02 0.0000000000e+00 0.0000e+00 1.0000e+00
        1  1    3    3  501    0 -4.3718160526e+01 -9.7921863461e+01 +7.4727544888e+01 1.3070644540e+02 0.0000000000e+00 0.0000e+00 1.0000e+00
       21  1    1    2  502  501 -8.5790037192e-03 -2.9724225770e-02 +4.8346561448e-01 4.8445446565e-01 0.0000000000e+00 0.0000e+00 -1.0000e+00
<mgrwt>
<rscale>  1 0.65015818E+03</rscale>
<asrwt>0</asrwt>
<pdfrwt beam="1">  1        1 0.38603873E+00 0.65015818E+03</pdfrwt>
<pdfrwt beam="2">0</pdfrwt>
<totfact> 0.15431350E+00</totfact>
</mgrwt>
</event>
<event>
 6      1 +5.6466785e-02 6.67061300e+02 7.81860800e-03 9.77528100e-02
        1 -1    0    0  502    0 +0.0000000000e+00 +0.0000000000e+00 +1.1130335715e+02 1.1130335715e+02 0.0000000000e+00 0.0000e+00 1.0000e+00
       13 -1    0    0    0    0 -0.0000000000e+00 -0.0000000000e+00 -1.0000000000e+03 1.0000000000e+03 0.0000000000e+00 0.0000e+00 1.0000e+00
  9000005  2    1    2  501    0 -3.4455904824e-03 -9.5312057113e-03 -8.8875684675e+02 1.1112423061e+03 6.6706126421e+02 0.0000e+00 0.0000e+00
       13  1    3    3    0    0 -9.4104163530e+01 +2.9349117344e+02 -2.3203097425e+02 3.8578625623e+02 0.0000000000e+00 0.0000e+00 1.0000e+00
        3  1    3    3  501    0 +9.4100717940e+01 -2.9350070465e+02 -6.5672587250e+02 7.2545604991e+02 0.0000000000e+00 0.0000e+00 1.0000e+00
       21  1    1    2  502  501 +3.4455904824e-03 +9.5312057113e-03 +6.0203904390e-02 6.1051012112e-02 0.0000000000e+00 0.0000e+00 -1.0000e+00
<mgrwt>
<rscale>  1 0.66706126E+03</rscale>
<asrwt>0</asrwt>
<pdfrwt beam="1">  1        1 0.40474033E+00 0.66706126E+03</pdfrwt>
<pdfrwt beam="2">0</pdfrwt>
<totfact> 0.12701392E+00</totfact>
</mgrwt>
</event>
<event>
 6      1 +5.6466785e-02 6.33472600e+02 7.81860800e-03 9.83829600e-02
        1 -1    0    0  502    0 +0.0000000000e+00 +0.0000000000e+00 +1.0032295751e+02 1.0032295751e+02 0.0000000000e+00 0.0000e+00 1.0000e+00
       13 -1    0    0    0    0 -0.0000000000e+00 -0.0000000000e+00 -1.0000000000e+03 1.0000000000e+03 0.0000000000e+00 0.0000e+00 1.0000e+00
  9000005  2    1    2  501    0 +1.4409270989e-05 +2.1839743454e-05 -8.9967810670e+02 1.1003218930e+03 6.3347262963e+02 0.0000e+00 0.0000e+00
       13  1    3    3    0    0 -2.1642750591e+02 -5.4100537404e+01 -5.9294721443e+01 2.3083240122e+02 0.0000000000e+00 0.0000e+00 1.0000e+00
        1  1    3    3  501    0 +2.1642752032e+02 +5.4100559244e+01 -8.4038338526e+02 8.6948949176e+02 0.0000000000e+00 0.0000e+00 1.0000e+00
       21  1    1    2  502  501 -1.4409270998e-05 -2.1839743449e-05 +1.0642084304e-03 1.0645300301e-03 0.0000000000e+00 0.0000e+00 1.0000e+00
<mgrwt>
<rscale>  1 0.63347263E+03</rscale>
<asrwt>0</asrwt>
<pdfrwt beam="1">  1        1 0.36481152E+00 0.63347263E+03</pdfrwt>
<pdfrwt beam="2">0</pdfrwt>
<totfact> 0.19195235E+00</totfact>
</mgrwt>
</event>
<event>
 6      1 +5.6466785e-02 5.91777800e+02 7.81860800e-03 9.92261300e-02
        1 -1    0    0  502    0 +0.0000000000e+00 +0.0000000000e+00 +1.0043747619e+02 1.0043747619e+02 0.0000000000e+00 0.0000e+00 1.0000e+00
       13 -1    0    0    0    0 -0.0000000000e+00 -0.0000000000e+00 -1.0000000000e+03 1.0000000000e+03 0.0000000000e+00 0.0000e+00 1.0000e+00
  9000005  2    1    2  501    0 +4.6313431988e-01 +4.2780831352e-02 -9.1244519627e+02 1.0875464106e+03 5.9177761244e+02 0.0000e+00 0.0000e+00
       13  1    3    3    0    0 +7.0983290603e+01 -1.9480143425e+02 -6.8224977823e+01 2.1826789487e+02 0.0000000000e+00 0.0000e+00 1.0000e+00
        1  1    3    3  501    0 -7.0520156283e+01 +1.9484421509e+02 -8.4422021845e+02 8.6927851568e+02 0.0000000000e+00 0.0000e+00 1.0000e+00
       21  1    1    2  502  501 -4.6313431988e-01 -4.2780831352e-02 +1.2882672456e+01 1.2891065635e+01 0.0000000000e+00 0.0000e+00 -1.0000e+00
<mgrwt>
<rscale>  1 0.59177780E+03</rscale>
<asrwt>0</asrwt>
<pdfrwt beam="1">  1        1 0.36522796E+00 0.59177780E+03</pdfrwt>
<pdfrwt beam="2">0</pdfrwt>
<totfact> 0.19264998E+00</totfact>
</mgrwt>
</event>
<event>
 6      1 +5.6466785e-02 6.52868000e+02 7.81860800e-03 9.80141200e-02
        1 -1    0    0  502    0 +0.0000000000e+00 +0.0000000000e+00 +1.0656064826e+02 1.0656064826e+02 0.0000000000e+00 0.0000e+00 1.0000e+00
       13 -1    0    0    0    0 -0.0000000000e+00 -0.0000000000e+00 -1.0000000000e+03 1.0000000000e+03 0.0000000000e+00 0.0000e+00 1.0000e+00
  9000005  2    1    2  501    0 -2.1665601196e-05 +1.7934408687e-04 -8.9344083134e+02 1.1065591577e+03 6.5286801906e+02 0.0000e+00 0.0000e+00
       13  1    3    3    0    0 +2.7635894159e+02 -3.4524683397e+01 -1.5812106559e+02 3.2026315702e+02 0.0000000000e+00 0.0000e+00 1.0000e+00
        1  1    3    3  501    0 -2.7635896326e+02 +3.4524862741e+01 -7.3531976576e+02 7.8629600065e+02 0.0000000000e+00 0.0000e+00 1.0000e+00
       21  1    1    2  502  501 +2.1665601217e-05 -1.7934408687e-04 +1.4795992355e-03 1.4905863267e-03 0.0000000000e+00 0.0000e+00 1.0000e+00
<mgrwt>
<rscale>  1 0.65286802E+03</rscale>
<asrwt>0</asrwt>
<pdfrwt beam="1">  1        1 0.38749408E+00 0.65286802E+03</pdfrwt>
<pdfrwt beam="2">0</pdfrwt>
<totfact> 0.15196481E+00</totfact>
</mgrwt>
</event>
<event>
 6      1 +5.6466785e-02 6.49072700e+02 7.81860800e-03 9.80852100e-02
        1 -1    0    0  502    0 +0.0000000000e+00 +0.0000000000e+00 +1.0532385341e+02 1.0532385341e+02 0.0000000000e+00 0.0000e+00 1.0000e+00
       13 -1    0    0    0    0 -0.0000000000e+00 -0.0000000000e+00 -1.0000000000e+03 1.0000000000e+03 0.0000000000e+00 0.0000e+00 1.0000e+00
  9000005  2    1    2  501    0 -6.5134634042e-07 +4.7723846990e-06 -8.9467614755e+02 1.1053238485e+03 6.4907272403e+02 0.0000e+00 0.0000e+00
       13  1    3    3    0    0 +1.5442817674e+02 +1.3340475536e+02 -1.7609569195e+01 2.0482916650e+02 0.0000000000e+00 0.0000e+00 1.0000e+00
        3  1    3    3  501    0 -1.5442817739e+02 -1.3340475058e+02 -8.7706657835e+02 9.0049468200e+02 0.0000000000e+00 0.0000e+00 1.0000e+00
       21  1    1    2  502  501 +6.5134632759e-07 -4.7723847117e-06 +9.5933744884e-07 4.9112357117e-06 0.0000000000e+00 0.0000e+00 1.0000e+00
<mgrwt>
<rscale>  1 0.64907272E+03</rscale>
<asrwt>0</asrwt>
<pdfrwt beam="1">  1        1 0.38299664E+00 0.64907272E+03</pdfrwt>
<pdfrwt beam="2">0</pdfrwt>
<totfact> 0.15920011E+00</totfact>
</mgrwt>
</event>
<event>
 6      1 +5.6466785e-02 6.49649500e+02 7.81860800e-03 9.80743700e-02
        1 -1    0    0  502    0 +0.0000000000e+00 +0.0000000000e+00 +1.0562030078e+02 1.0562030078e+02 0.0000000000e+00 0.0000e+00 1.0000e+00
       13 -1    0    0    0    0 -0.0000000000e+00 -0.0000000000e+00 -1.0000000000e+03 1.0000000000e+03 0.0000000000e+00 0.0000e+00 1.0000e+00
  9000005  2    1    2  501    0 +8.7238491303e-02 +7.1573639436e-02 -8.9445570689e+02 1.1054842475e+03 6.4964944167e+02 0.0000e+00 0.0000e+00
       13  1    3    3    0    0 +1.9350575360e+02 +2.3634450598e+02 -6.3557515359e+02 7.0516592235e+02 0.0000000000e+00 0.0000e+00 1.0000e+00
        3  1    3    3  501    0 -1.9341851511e+02 -2.3627293234e+02 -2.5888055330e+02 4.0031832511e+02 0.0000000000e+00 0.0000e+00 1.0000e+00
       21  1    1    2  502  501 -8.7238491303e-02 -7.1573639436e-02 +7.6007663784e-02 1.3605331742e-01 0.0000000000e+00 0.0000e+00 -1.0000e+00
<mgrwt>
<rscale>  1 0.64964945E+03</rscale>
<asrwt>0</asrwt>
<pdfrwt beam="1">  1        1 0.38407463E+00 0.64964945E+03</pdfrwt>
<pdfrwt beam="2">0</pdfrwt>
<totfact> 0.15744631E+00</totfact>
</mgrwt>
</event>
<event>
 6      1 +5.6466785e-02 6.56912200e+02 7.81860800e-03 9.79389500e-02
        1 -1    0    0  502    0 +0.0000000000e+00 +0.0000000000e+00 +1.0805157764e+02 1.0805157764e+02 0.0000000000e+00 0.0000e+00 1.0000e+00
       13 -1    0    0    0    0 -0.0000000000e+00 -0.0000000000e+00 -1.0000000000e+03 1.0000000000e+03 0.0000000000e+00 0.0000e+00 1.0000e+00
  9000005  2    1    2  501    0 -9.3106282555e-02 +2.6627806922e-01 -8.9197372471e+02 1.1077683586e+03 6.5691211837e+02 0.0000e+00 0.0000e+00
       13  1    3    3    0    0 +2.4373717801e+02 +1.9819024239e+02 -2.8407152185e+02 4.2353726359e+02 0.0000000000e+00 0.0000e+00 1.0000e+00
        3  1    3    3  501    0 -2.4383028429e+02 -1.9792396432e+02 -6.0790220287e+02 6.8423109505e+02 0.0000000000e+00 0.0000e+00 1.0000e+00
       21  1    1    2  502  501 +9.3106282555e-02 -2.6627806922e-01 +2.5302351121e-02 2.8321899473e-01 0.0000000000e+00 0.0000e+00 -1.0000e+00
<mgrwt>
<rscale>  1 0.65691218E+03</rscale>
<asrwt>0</asrwt>
<pdfrwt beam="1">  1        1 0.39291566E+00 0.65691218E+03</pdfrwt>
<pdfrwt beam="2">0</pdfrwt>
<totfact> 0.14367166E+00</totfact>
</mgrwt>
</event>
<event>
 6      1 +5.6466785e-02 6.49398900e+02 7.81860800e-03 9.80790800e-02
        1 -1    0    0  502    0 +0.0000000000e+00 +0.0000000000e+00 +1.0550638638e+02 1.0550638638e+02 0.0000000000e+00 0.0000e+00 1.0000e+00
       13 -1    0    0    0    0 -0.0000000000e+00 -0.0000000000e+00 -1.0000000000e+03 1.0000000000e+03 0.0000000000e+00 0.0000e+00 1.0000e+00
  9000005  2    1    2  501    0 +1.2347238883e-02 -1.3943045099e-02 -8.9456901626e+02 1.1054287177e+03 6.4939889493e+02 0.0000e+00 0.0000e+00
       13  1    3    3    0    0 +2.2548767567e+02 -2.0184834422e+02 -6.4761019855e+02 7.1483313802e+02 0.0000000000e+00 0.0000e+00 1.0000e+00
        1  1    3    3  501    0 -2.2547532843e+02 +2.0183440118e+02 -2.4695881772e+02 3.9059557970e+02 0.0000000000e+00 0.0000e+00 1.0000e+00
       21  1    1    2  502  501 -1.2347238883e-02 +1.3943045099e-02 +7.5402642082e-02 7.7668663228e-02 0.0000000000e+00 0.0000e+00 -1.0000e+00
<mgrwt>
<rscale>  1 0.64939890E+03</rscale>
<asrwt>0</asrwt>
<pdfrwt beam="1">  1        1 0.38366040E+00 0.64939890E+03</pdfrwt>
<pdfrwt beam="2">0</pdfrwt>
<totfact> 0.15811889E+00</totfact>
</mgrwt>
</event>
<event>
 6      1 +5.6466785e-02 6.35591800e+02 7.81860800e-03 9.83419700e-02
        1 -1    0    0  502    0 +0.0000000000e+00 +0.0000000000e+00 +1.0103543347e+02 1.0103543347e+02 0.0000000000e+00 0.0000e+00 1.0000e+00
       13 -1    0    0    0    0 -0.0000000000e+00 -0.0000000000e+00 -1.0000000000e+03 1.0000000000e+03 0.0000000000e+00 0.0000e+00 1.0000e+00
  9000005  2    1    2  501    0 -5.6567280959e-03 +1.3601205351e-02 -8.9900431067e+02 1.1009930473e+03 6.3559180249e+02 0.0000e+00 0.0000e+00
       13  1    3    3    0    0 +2.2694367173e+02 -6.7261091430e+00 -8.3467926190e+02 8.6500759588e+02 0.0000000000e+00 0.0000e+00 1.0000e+00
        3  1    3    3  501    0 -2.2694932846e+02 +6.7397103484e+00 -6.4325048764e+01 2.3598545142e+02 0.0000000000e+00 0.0000e+00 1.0000e+00
       21  1    1    2  502  501 +5.6567280959e-03 -1.3601205351e-02 +3.9744139049e-02 4.2386176384e-02 0.0000000000e+00 0.0000e+00 -1.0000e+00
<mgrwt>
<rscale>  1 0.63559180E+03</rscale>
<asrwt>0</asrwt>
<pdfrwt beam="1">  1        1 0.36740235E+00 0.63559180E+03</pdfrwt>
<pdfrwt beam="2">0</pdfrwt>
<totfact> 0.18692487E+00</totfact>
</mgrwt>
</event>
<event>
 6      1 +5.6466785e-02 6.59932000e+02 7.81860800e-03 9.78831900e-02
        1 -1    0    0  502    0 +0.0000000000e+00 +0.0000000000e+00 +1.0961727149e+02 1.0961727149e+02 0.0000000000e+00 0.0000e+00 1.0000e+00
       13 -1    0    0    0    0 -0.0000000000e+00 -0.0000000000e+00 -1.0000000000e+03 1.0000000000e+03 0.0000000000e+00 0.0000e+00 1.0000e+00
  9000005  2    1    2  501    0 +3.3205317007e-02 +1.3240882752e-02 -8.9112196022e+02 1.1088771759e+03 6.5993199804e+02 0.0000e+00 0.0000e+00
       13  1    3    3    0    0 -1.9759933482e+02 -1.5492694083e+02 -8.0522392941e+02 8.4346513301e+02 0.0000000000e+00 0.0000e+00 1.0000e+00
        1  1    3    3  501    0 +1.9763254014e+02 +1.5494018172e+02 -8.5898030813e+01 2.6541204292e+02 0.0000000000e+00 0.0000e+00 1.0000e+00
       21  1    1    2  502  501 -3.3205317007e-02 -1.3240882752e-02 +7.3923171210e-01 7.4009556020e-01 0.0000000000e+00 0.0000e+00 1.0000e+00
<mgrwt>
<rscale>  1 0.65993200E+03</rscale>
<asrwt>0</asrwt>
<pdfrwt beam="1">  1        1 0.39860910E+00 0.65993200E+03</pdfrwt>
<pdfrwt beam="2">0</pdfrwt>
<totfact> 0.13545620E+00</totfact>
</mgrwt>
</event>
<event>
 6      1 +5.6466785e-02 6.41796700e+02 7.81860800e-03 9.82229500e-02
        1 -1    0    0  502    0 +0.0000000000e+00 +0.0000000000e+00 +1.0297576155e+02 1.0297576155e+02 0.0000000000e+00 0.0000e+00 1.0000e+00
       13 -1    0    0    0    0 -0.0000000000e+00 -0.0000000000e+00 -1.0000000000e+03 1.0000000000e+03 0.0000000000e+00 0.0000e+00 1.0000e+00
  9000005  2    1    2  501    0 +3.4238287441e-06 -8.3019399035e-06 -8.9702425519e+02 1.1029757426e+03 6.4179667673e+02 0.0000e+00 0.0000e+00
       13  1    3    3    0    0 +2.1695861474e+01 -2.6892591406e+01 +9.9769391253e+01 1.0558339504e+02 0.0000000000e+00 0.0000e+00 1.0000e+00
        1  1    3    3  501    0 -2.1695858051e+01 +2.6892583104e+01 -9.9679364644e+02 9.9739234751e+02 0.0000000000e+00 0.0000e+00 1.0000e+00
       21  1    1    2  502  501 -3.4238287449e-06 +8.3019399017e-06 +1.6744511149e-05 1.9000617438e-05 0.0000000000e+00 0.0000e+00 1.0000e+00
<mgrwt>
<rscale>  1 0.64179668E+03</rscale>
<asrwt>0</asrwt>
<pdfrwt beam="1">  1        1 0.37445810E+00 0.64179668E+03</pdfrwt>
<pdfrwt beam="2">0</pdfrwt>
<totfact> 0.17385012E+00</totfact>
</mgrwt>
</event>
<event>
 6      1 +5.6466785e-02 4.90100200e+02 7.81860800e-03 1.01639600e-01
        1 -1    0    0  502    0 +0.0000000000e+00 +0.0000000000e+00 +6.0049562761e+01 6.0049562761e+01 0.0000000000e+00 0.0000e+00 1.0000e+00
       13 -1    0    0    0    0 -0.0000000000e+00 -0.0000000000e+00 -1.0000000000e+03 1.0000000000e+03 0.0000000000e+00 0.0000e+00 1.0000e+00
  9000005  2    1    2  501    0 -2.3074888475e-05 -1.7474910937e-05 -9.3995044833e+02 1.0600495318e+03 4.9010015760e+02 0.0000e+00 0.0000e+00
       13  1    3    3    0    0 -1.4410637519e+02 -1.0008761950e+01 -8.9811801072e+02 9.0966080705e+02 0.0000000000e+00 0.0000e+00 1.0000e+00
        3  1    3    3  501    0 +1.4410635212e+02 +1.0008744475e+01 -4.1832437607e+01 1.5038872472e+02 0.0000000000e+00 0.0000e+00 1.0000e+00
       21  1    1    2  502  501 +2.3074888484e-05 +1.7474910937e-05 +1.1091982495e-05 3.0997662274e-05 0.0000000000e+00 0.0000e+00 1.0000e+00
<mgrwt>
<rscale>  1 0.49010016E+03</rscale>
<asrwt>0</asrwt>
<pdfrwt beam="1">  1        1 0.21836251E+00 0.49010016E+03</pdfrwt>
<pdfrwt beam="2">0</pdfrwt>
<totfact> 0.85174198E+00</totfact>
</mgrwt>
</event>
<event>
 6      1 +5.6466785e-02 6.59142000e+02 7.81860800e-03 9.78977500e-02
        1 -1    0    0  502    0 +0.0000000000e+00 +0.0000000000e+00 +1.0868817275e+02 1.0868817275e+02 0.0000000000e+00 0.0000e+00 1.0000e+00
       13 -1    0    0    0    0 -0.0000000000e+00 -0.0000000000e+00 -1.0000000000e+03 1.0000000000e+03 0.0000000000e+00 0.0000e+00 1.0000e+00
  9000005  2    1    2  501    0 +4.1871306894e-03 -4.7059519723e-03 -8.9138280612e+02 1.1086169149e+03 6.5914198544e+02 0.0000e+00 0.0000e+00
       13  1    3    3    0    0 +2.7356372180e+02 +1.2517757505e+02 -2.1934568951e+02 3.7231581579e+02 0.0000000000e+00 0.0000e+00 1.0000e+00
        3  1    3    3  501    0 -2.7355953467e+02 -1.2518228101e+02 -6.7203711661e+02 7.3630109913e+02 0.0000000000e+00 0.0000e+00 1.0000e+00
       21  1    1    2  502  501 -4.1871306894e-03 +4.7059519723e-03 +7.0978865411e-02 7.1257823307e-02 0.0000000000e+00 0.0000e+00 -1.0000e+00
<mgrwt>
<rscale>  1 0.65914199E+03</rscale>
<asrwt>0</asrwt>
<pdfrwt beam="1">  1        1 0.39523055E+00 0.65914199E+03</pdfrwt>
<pdfrwt beam="2">0</pdfrwt>
<totfact> 0.14024981E+00</totfact>
</mgrwt>
</event>
<event>
 6      1 +5.6466785e-02 6.50015300e+02 7.81860800e-03 9.80675000e-02
        1 -1    0    0  502    0 +0.0000000000e+00 +0.0000000000e+00 +1.0563828632e+02 1.0563828632e+02 0.0000000000e+00 0.0000e+00 1.0000e+00
       13 -1    0    0    0    0 -0.0000000000e+00 -0.0000000000e+00 -1.0000000000e+03 1.0000000000e+03 0.0000000000e+00 0.0000e+00 1.0000e+00
  9000005  2    1    2  501    0 +4.5785591739e-04 +1.4103911145e-04 -8.9437000696e+02 1.1056299792e+03 6.5001533950e+02 0.0000e+00 0.0000e+00
       13  1    3    3    0    0 +3.1437503415e+01 -1.0351215314e+02 +7.4107166502e+01 1.3112953365e+02 0.0000000000e+00 0.0000e+00 1.0000e+00
        1  1    3    3  501    0 -3.1437045559e+01 +1.0351229418e+02 -9.6847717346e+02 9.7450044556e+02 0.0000000000e+00 0.0000e+00 1.0000e+00
       21  1    1    2  502  501 -4.5785591739e-04 -1.4103911145e-04 +8.2932843889e-03 8.3071108110e-03 0.0000000000e+00 0.0000e+00 -1.0000e+00
<mgrwt>
<rscale>  1 0.65001534E+03</rscale>
<asrwt>0</asrwt>
<pdfrwt beam="1">  1        1 0.38414003E+00 0.65001534E+03</pdfrwt>
<pdfrwt beam="2">0</pdfrwt>
<totfact> 0.15733089E+00</totfact>
</mgrwt>
</event>
<event>
 6      1 +5.6466785e-02 6.68445200e+02 7.81860800e-03 9.77277100e-02
        1 -1    0    0  502    0 +0.0000000000e+00 +0.0000000000e+00 +1.1171090534e+02 1.1171090534e+02 0.0000000000e+00 0.0000e+00 1.0000e+00
       13 -1    0    0    0    0 -0.0000000000e+00 -0.0000000000e+00 -1.0000000000e+03 1.0000000000e+03 0.0000000000e+00 0.0000e+00 1.0000e+00
  9000005  2    1    2  501    0 -2.7206624359e-03 +2.4877221574e-03 -8.8829462897e+02 1.1117042556e+03 6.6844521392e+02 0.0000e+00 0.0000e+00
       13  1    3    3    0    0 -2.6945659346e+02 -1.9319511046e+02 -3.7410309529e+02 4.9988431899e+02 0.0000000000e+00 0.0000e+00 1.0000e+00
        1  1    3    3  501    0 +2.6945387280e+02 +1.9319759818e+02 -5.1419153367e+02 6.1181993659e+02 0.0000000000e+00 0.0000e+00 1.0000e+00
       21  1    1    2  502  501 +2.7206624359e-03 -2.4877221574e-03 +5.5343029086e-03 6.6497574622e-03 0.0000000000e+00 0.0000e+00 1.0000e+00
<mgrwt>
<rscale>  1 0.66844521E+03</rscale>
<asrwt>0</asrwt>
<pdfrwt beam="1">  1        1 0.40622233E+00 0.66844521E+03</pdfrwt>
<pdfrwt beam="2">0</pdfrwt>
<totfact> 0.12505712E+00</totfact>
</mgrwt>
</event>
<event>
 6      1 +5.6466785e-02 6.36402100e+02 7.81860800e-03 9.83263500e-02
        1 -1    0    0  502    0 +0.0000000000e+00 +0.0000000000e+00 +1.0125196049e+02 1.0125196049e+02 0.0000000000e+00 0.0000e+00 1.0000e+00
       13 -1    0    0    0    0 -0.0000000000e+00 -0.0000000000e+00 -1.0000000000e+03 1.0000000000e+03 0.0000000000e+00 0.0000e+00 1.0000e+00
  9000005  2    1    2  501    0 -3.5577281352e-05 -1.1491412043e-04 -8.9874797431e+02 1.1012518237e+03 6.3640211956e+02 0.0000e+00 0.0000e+00
       13  1    3    3    0    0 -2.5530654849e+02 -1.2219893293e+02 -1.9778819735e+02 3.4530303203e+02 0.0000000000e+00 0.0000e+00 1.0000e+00
        1  1    3    3  501    0 +2.5530651292e+02 +1.2219881802e+02 -7.0095977696e+02 7.5594879163e+02 0.0000000000e+00 0.0000e+00 1.0000e+00
       21  1    1    2  502  501 +3.5577281351e-05 +1.1491412044e-04 -6.5201239926e-05 1.3682908942e-04 0.0000000000e+00 0.0000e+00 1.0000e+00
<mgrwt>
<rscale>  1 0.63640212E+03</rscale>
<asrwt>0</asrwt>
<pdfrwt beam="1">  1        1 0.36818972E+00 0.63640212E+03</pdfrwt>
<pdfrwt beam="2">0</pdfrwt>
<totfact> 0.18541653E+00</totfact>
</mgrwt>
</event>
<event>
 6      1 +5.6466785e-02 6.31802900e+02 7.81860800e-03 9.84153700e-02
        1 -1    0    0  502    0 +0.0000000000e+00 +0.0000000000e+00 +1.0007511063e+02 1.0007511063e+02 0.0000000000e+00 0.0000e+00 1.0000e+00
       13 -1    0    0    0    0 -0.0000000000e+00 -0.0000000000e+00 -1.0000000000e+03 1.0000000000e+03 0.0000000000e+00 0.0000e+00 1.0000e+00
  9000005  2    1    2  501    0 -4.0160271748e-02 +1.0645418495e-02 -9.0020457385e+02 1.0997923571e+03 6.3180293773e+02 0.0000e+00 0.0000e+00
       13  1    3    3    0    0 -5.8809424472e+01 -7.8767641215e+01 +7.2494337828e+01 1.2214056953e+02 0.0000000000e+00 0.0000e+00 1.0000e+00
        3  1    3    3  501    0 +5.8769264200e+01 +7.8778286633e+01 -9.7269891168e+02 9.7765178752e+02 0.0000000000e+00 0.0000e+00 1.0000e+00
       21  1    1    2  502  501 +4.0160271748e-02 -1.0645418495e-02 +2.7968447945e-01 2.8275356833e-01 0.0000000000e+00 0.0000e+00 1.0000e+00
<mgrwt>
<rscale>  1 0.63180294E+03</rscale>
<asrwt>0</asrwt>
<pdfrwt beam="1">  1        1 0.36391026E+00 0.63180294E+03</pdfrwt>
<pdfrwt beam="2">0</pdfrwt>
<totfact> 0.19376416E+00</totfact>
</mgrwt>
</event>
<event>
 6      1 +5.6466785e-02 6.48585900e+02 7.81860800e-03 9.80943600e-02
        1 -1    0    0  502    0 +0.0000000000e+00 +0.0000000000e+00 +1.0516608100e+02 1.0516608100e+02 0.0000000000e+00 0.0000e+00 1.0000e+00
       13 -1    0    0    0    0 -0.0000000000e+00 -0.0000000000e+00 -1.0000000000e+03 1.0000000000e+03 0.0000000000e+00 0.0000e+00 1.0000e+00
  9000005  2    1    2  501    0 -1.6269915316e-05 +1.0811157580e-05 -8.9483407042e+02 1.1051659283e+03 6.4858593536e+02 0.0000e+00 0.0000e+00
       13  1    3    3    0    0 -7.2901249982e-01 -1.5912909373e+02 +3.4064101618e+01 1.6273586866e+02 0.0000000000e+00 0.0000e+00 1.0000e+00
        3  1    3    3  501    0 +7.2899622990e-01 +1.5912910454e+02 -9.2889817204e+02 9.4243005967e+02 0.0000000000e+00 0.0000e+00 1.0000e+00
       21  1    1    2  502  501 +1.6269915316e-05 -1.0811157587e-05 +1.5141554309e-04 1.5267042268e-04 0.0000000000e+00 0.0000e+00 -1.0000e+00
<mgrwt>
<rscale>  1 0.64858594E+03</rscale>
<asrwt>0</asrwt>
<pdfrwt beam="1">  1        1 0.38242292E+00 0.64858594E+03</pdfrwt>
<pdfrwt beam="2">0</pdfrwt>
<totfact> 0.16014637E+00</totfact>
</mgrwt>
</event>
<event>
 6      1 +5.6466785e-02 6.26921100e+02 7.81860800e-03 9.85107600e-02
        1 -1    0    0  502    0 +0.0000000000e+00 +0.0000000000e+00 +9.8260586767e+01 9.8260586767e+01 0.0000000000e+00 0.0000e+00 1.0000e+00
       13 -1    0    0    0    0 -0.0000000000e+00 -0.0000000000e+00 -1.0000000000e+03 1.0000000000e+03 0.0000000000e+00 0.0000e+00 1.0000e+00
  9000005  2    1    2  501    0 +3.3046140505e-04 +1.2128961521e-04 -9.0174248628e+02 1.0982574936e+03 6.2692105623e+02 0.0000e+00 0.0000e+00
       13  1    3    3    0    0 +4.5123418173e+01 -1.3551198792e+02 -9.3968407822e+02 9.5047661128e+02 0.0000000000e+00 0.0000e+00 1.0000e+00
        3  1    3    3  501    0 -4.5123087712e+01 +1.3551210921e+02 +3.7941591941e+01 1.4778088234e+02 0.0000000000e+00 0.0000e+00 1.0000e+00
       21  1    1    2  502  501 -3.3046140505e-04 -1.2128961522e-04 +3.0730454903e-03 3.0931415254e-03 0.0000000000e+00 0.0000e+00 1.0000e+00
<mgrwt>
<rscale>  1 0.62692106E+03</rscale>
<asrwt>0</asrwt>
<pdfrwt beam="1">  1        1 0.35731198E+00 0.62692106E+03</pdfrwt>
<pdfrwt beam="2">0</pdfrwt>
<totfact> 0.20726240E+00</totfact>
</mgrwt>
</event>
<event>
 6      1 +5.6466785e-02 6.45240100e+02 7.81860800e-03 9.81575200e-02
        1 -1    0    0  502    0 +0.0000000000e+00 +0.0000000000e+00 +1.0416801349e+02 1.0416801349e+02 0.0000000000e+00 0.0000e+00 1.0000e+00
       13 -1    0    0    0    0 -0.0000000000e+00 -0.0000000000e+00 -1.0000000000e+03 1.0000000000e+03 0.0000000000e+00 0.0000e+00 1.0000e+00
  9000005  2    1    2  501    0 -3.3830004585e-04 +1.1514004176e-03 -8.9591628796e+02 1.1040837035e+03 6.4524013306e+02 0.0000e+00 0.0000e+00
       13  1    3    3    0    0 +1.3426466032e+02 +2.7622981588e+02 -6.1695361423e+02 6.8917463121e+02 0.0000000000e+00 0.0000e+00 1.0000e+00
        3  1    3    3  501    0 -1.3426499862e+02 -2.7622866448e+02 -2.7896267372e+02 4.1490907229e+02 0.0000000000e+00 0.0000e+00 1.0000e+00
       21  1    1    2  502  501 +3.3830004584e-04 -1.1514004176e-03 +8.4301451998e-02 8.4309993350e-02 0.0000000000e+00 0.0000e+00 1.0000e+00
<mgrwt>
<rscale>  1 0.64524013E+03</rscale>
<asrwt>0</asrwt>
<pdfrwt beam="1">  1        1 0.37879358E+00 0.64524013E+03</pdfrwt>
<pdfrwt beam="2">0</pdfrwt>
<totfact> 0.16626569E+00</totfact>
</mgrwt>
</event>
<event>
 6      1 +5.6466785e-02 6.51841400e+02 7.81860800e-03 9.80333000e-02
        1 -1    0    0  502    0 +0.0000000000e+00 +0.0000000000e+00 +1.0623158373e+02 1.0623158373e+02 0.0000000000e+00 0.0000e+00 1.0000e+00
       13 -1    0    0    0    0 -0.0000000000e+00 -0.0000000000e+00 -1.0000000000e+03 1.0000000000e+03 0.0000000000e+00 0.0000e+00 1.0000e+00
  9000005  2    1    2  501    0 -1.9291931329e-04 -4.7298381867e-04 -8.9377568483e+02 1.1062242972e+03 6.5184140788e+02 0.0000e+00 0.0000e+00
       13  1    3    3    0    0 -1.6987170341e+02 -2.0828296363e+02 -1.3402608865e+02 3.0033511449e+02 0.0000000000e+00 0.0000e+00 1.0000e+00
        3  1    3    3  501    0 +1.6987151049e+02 +2.0828249065e+02 -7.5974959618e+02 8.0588918276e+02 0.0000000000e+00 0.0000e+00 1.0000e+00
       21  1    1    2  502  501 +1.9291931330e-04 +4.7298381867e-04 +7.2685585756e-03 7.2864858005e-03 0.0000000000e+00 0.0000e+00 1.0000e+00
<mgrwt>
<rscale>  1 0.65184141E+03</rscale>
<asrwt>0</asrwt>
<pdfrwt beam="1">  1        1 0.38629748E+00 0.65184141E+03</pdfrwt>
<pdfrwt beam="2">0</pdfrwt>
<totfact> 0.15385922E+00</totfact>
</mgrwt>
</event>
<event>
 6      1 +5.6466785e-02 6.47864000e+02 7.81860800e-03 9.81079500e-02
        1 -1    0    0  502    0 +0.0000000000e+00 +0.0000000000e+00 +1.0493285573e+02 1.0493285573e+02 0.0000000000e+00 0.0000e+00 1.0000e+00
       13 -1    0    0    0    0 -0.0000000000e+00 -0.0000000000e+00 -1.0000000000e+03 1.0000000000e+03 0.0000000000e+00 0.0000e+00 1.0000e+00
  9000005  2    1    2  501    0 -7.6591836446e-06 -1.1171752206e-03 -8.9506765999e+02 1.1049316252e+03 6.4786401390e+02 0.0000e+00 0.0000e+00
       13  1    3    3    0    0 -1.8702487080e+01 -2.6080107915e+02 -1.2140815071e+02 2.8828271708e+02 0.0000000000e+00 0.0000e+00 1.0000e+00
        1  1    3    3  501    0 +1.8702479421e+01 +2.6079996198e+02 -7.7365950927e+02 8.1664890816e+02 0.0000000000e+00 0.0000e+00 1.0000e+00
       21  1    1    2  502  501 +7.6591836467e-06 +1.1171752206e-03 +5.1571812820e-04 1.2304894654e-03 0.0000000000e+00 0.0000e+00 -1.0000e+00
<mgrwt>
<rscale>  1 0.64786401E+03</rscale>
<asrwt>0</asrwt>
<pdfrwt beam="1">  1        1 0.38157483E+00 0.64786401E+03</pdfrwt>
<pdfrwt beam="2">0</pdfrwt>
<totfact> 0.16155504E+00</totfact>
</mgrwt>
</event>
<event>
 6      1 +5.6466785e-02 6.64667200e+02 7.81860800e-03 9.77964000e-02
        1 -1    0    0  502    0 +0.0000000000e+00 +0.0000000000e+00 +1.1046428387e+02 1.1046428387e+02 0.0000000000e+00 0.0000e+00 1.0000e+00
       13 -1    0    0    0    0 -0.0000000000e+00 -0.0000000000e+00 -1.0000000000e+03 1.0000000000e+03 0.0000000000e+00 0.0000e+00 1.0000e+00
  9000005  2    1    2  501    0 -1.2290826425e-03 +1.3542742805e-02 -8.8955159167e+02 1.1104433805e+03 6.6466718511e+02 0.0000e+00 0.0000e+00
       13  1    3    3    0    0 +3.3276470012e+01 +1.8887259861e+02 +8.6713003406e+00 1.9197753361e+02 0.0000000000e+00 0.0000e+00 1.0000e+00
        3  1    3    3  501    0 -3.3277699095e+01 -1.8885905587e+02 -8.9822289201e+02 9.1846584693e+02 0.0000000000e+00 0.0000e+00 1.0000e+00
       21  1    1    2  502  501 +1.2290826425e-03 -1.3542742805e-02 +1.5875542277e-02 2.0903333930e-02 0.0000000000e+00 0.0000e+00 -1.0000e+00
<mgrwt>
<rscale>  1 0.66466719E+03</rscale>
<asrwt>0</asrwt>
<pdfrwt beam="1">  1        1 0.40168915E+00 0.66466719E+03</pdfrwt>
<pdfrwt beam="2">0</pdfrwt>
<totfact> 0.13112274E+00</totfact>
</mgrwt>
</event>
<event>
 6      1 +5.6466785e-02 6.53268100e+02 7.81860800e-03 9.80066600e-02
        1 -1    0    0  502    0 +0.0000000000e+00 +0.0000000000e+00 +1.0671866506e+02 1.0671866506e+02 0.0000000000e+00 0.0000e+00 1.0000e+00
       13 -1    0    0    0    0 -0.0000000000e+00 -0.0000000000e+00 -1.0000000000e+03 1.0000000000e+03 0.0000000000e+00 0.0000e+00 1.0000e+00
  9000005  2    1    2  501    0 +1.3272609028e-03 -1.9303736393e-03 -8.9331014714e+02 1.1066897578e+03 6.5326809272e+02 0.0000e+00 0.0000e+00
       13  1    3    3    0    0 +9.2967736275e+01 +1.1968826808e+02 -9.3683160473e+02 9.4901092571e+02 0.0000000000e+00 0.0000e+00 1.0000e+00
        1  1    3    3  501    0 -9.2966409014e+01 -1.1969019845e+02 +4.3521457583e+01 1.5767883206e+02 0.0000000000e+00 0.0000e+00 1.0000e+00
       21  1    1    2  502  501 -1.3272609028e-03 +1.9303736393e-03 +2.8812207232e-02 2.8907287134e-02 0.0000000000e+00 0.0000e+00 1.0000e+00
<mgrwt>
<rscale>  1 0.65326809E+03</rscale>
<asrwt>0</asrwt>
<pdfrwt beam="1">  1        1 0.38806869E+00 0.65326809E+03</pdfrwt>
<pdfrwt beam="2">0</pdfrwt>
<totfact> 0.15106561E+00</totfact>
</mgrwt>
</event>
<event>
 6      1 +5.6466785e-02 6.50855200e+02 7.81860800e-03 9.80517600e-02
        1 -1    0    0  502    0 +0.0000000000e+00 +0.0000000000e+00 +1.0590615825e+02 1.0590615825e+02 0.0000000000e+00 0.0000e+00 1.0000e+00
       13 -1    0    0    0    0 -0.0000000000e+00 -0.0000000000e+00 -1.0000000000e+03 1.0000000000e+03 0.0000000000e+00 0.0000e+00 1.0000e+00
  9000005  2    1    2  501    0 +5.5108851996e-05 +4.0987819943e-05 -8.9409687754e+02 1.1059031217e+03 6.5085519750e+02 0.0000e+00 0.0000e+00
       13  1    3    3    0    0 -1.9218311939e+02 +2.2544740449e+02 -2.1818409770e+02 3.6792007836e+02 0.0000000000e+00 0.0000e+00 1.0000e+00
        3  1    3    3  501    0 +1.9218317450e+02 -2.2544736351e+02 -6.7591277985e+02 7.3798304332e+02 0.0000000000e+00 0.0000e+00 1.0000e+00
       21  1    1    2  502  501 -5.5108851969e-05 -4.0987819935e-05 +3.0357903420e-03 3.0365671387e-03 0.0000000000e+00 0.0000e+00 -1.0000e+00
<mgrwt>
<rscale>  1 0.65085520E+03</rscale>
<asrwt>0</asrwt>
<pdfrwt beam="1">  1        1 0.38511411E+00 0.65085520E+03</pdfrwt>
<pdfrwt beam="2">0</pdfrwt>
<totfact> 0.15575389E+00</totfact>
</mgrwt>
</event>
<event>
 6      1 +5.6466785e-02 5.08848100e+02 7.81860800e-03 1.01149500e-01
        1 -1    0    0  502    0 +0.0000000000e+00 +0.0000000000e+00 +6.4733211700e+01 6.4733211700e+01 0.0000000000e+00 0.0000e+00 1.0000e+00
       13 -1    0    0    0    0 -0.0000000000e+00 -0.0000000000e+00 -1.0000000000e+03 1.0000000000e+03 0.0000000000e+00 0.0000e+00 1.0000e+00
  9000005  2    1    2  501    0 -8.3043164125e-05 +1.3981853840e-04 -9.3526840383e+02 1.0647315880e+03 5.0884807882e+02 0.0000e+00 0.0000e+00
       13  1    3    3    0    0 -1.8636821741e+02 +1.6429293988e+02 -5.8236291723e+02 6.3314441475e+02 0.0000000000e+00 0.0000e+00 1.0000e+00
        1  1    3    3  501    0 +1.8636813437e+02 -1.6429280006e+02 -3.5290548659e+02 4.3158717326e+02 0.0000000000e+00 0.0000e+00 1.0000e+00
       21  1    1    2  502  501 +8.3043164111e-05 -1.3981853840e-04 +1.6155253095e-03 1.6236894458e-03 0.0000000000e+00 0.0000e+00 1.0000e+00
<mgrwt>
<rscale>  1 0.50884808E+03</rscale>
<asrwt>0</asrwt>
<pdfrwt beam="1">  1        1 0.23539399E+00 0.50884808E+03</pdfrwt>
<pdfrwt beam="2">0</pdfrwt>
<totfact> 0.71422147E+00</totfact>
</mgrwt>
</event>
<event>
 6      1 +5.6466785e-02 6.48538900e+02 7.81860800e-03 9.80952500e-02
        1 -1    0    0  502    0 +0.0000000000e+00 +0.0000000000e+00 +1.0515069875e+02 1.0515069875e+02 0.0000000000e+00 0.0000e+00 1.0000e+00
       13 -1    0    0    0    0 -0.0000000000e+00 -0.0000000000e+00 -1.0000000000e+03 1.0000000000e+03 0.0000000000e+00 0.0000e+00 1.0000e+00
  9000005  2    1    2  501    0 +7.4766732041e-06 +1.0101386152e-05 -8.9484930452e+02 1.1051506858e+03 6.4853894289e+02 0.0000e+00 0.0000e+00
       13  1    3    3    0    0 -2.3587346669e+02 -4.0290539893e+01 -8.2034209216e+02 8.5452955950e+02 0.0000000000e+00 0.0000e+00 1.0000e+00
        3  1    3    3  501    0 +2.3587347417e+02 +4.0290549995e+01 -7.4507212364e+01 2.5062112626e+02 0.0000000000e+00 0.0000e+00 1.0000e+00
       21  1    1    2  502  501 -7.4766732235e-06 -1.0101386151e-05 +3.2747931369e-06 1.2987028711e-05 0.0000000000e+00 0.0000e+00 -1.0000e+00
<mgrwt>
<rscale>  1 0.64853894E+03</rscale>
<asrwt>0</asrwt>
<pdfrwt beam="1">  1        1 0.38236698E+00 0.64853894E+03</pdfrwt>
<pdfrwt beam="2">0</pdfrwt>
<totfact> 0.16023889E+00</totfact>
</mgrwt>
</event>
<event>
 6      1 +5.6466785e-02 6.48922000e+02 7.81860800e-03 9.80880400e-02
        1 -1    0    0  502    0 +0.0000000000e+00 +0.0000000000e+00 +1.0527742441e+02 1.0527742441e+02 0.0000000000e+00 0.0000e+00 1.0000e+00
       13 -1    0    0    0    0 -0.0000000000e+00 -0.0000000000e+00 -1.0000000000e+03 1.0000000000e+03 0.0000000000e+00 0.0000e+00 1.0000e+00
  9000005  2    1    2  501    0 -1.1541430280e-03 -7.5364577406e-03 -8.9471208092e+02 1.1052644526e+03 6.4892203103e+02 0.0000e+00 0.0000e+00
       13  1    3    3    0    0 +2.2223593615e+02 -2.1451934664e+02 -6.1656235359e+02 6.8960604497e+02 0.0000000000e+00 0.0000e+00 1.0000e+00
        3  1    3    3  501    0 -2.2223709029e+02 +2.1451181018e+02 -2.7814972733e+02 4.1565840761e+02 0.0000000000e+00 0.0000e+00 1.0000e+00
       21  1    1    2  502  501 +1.1541430280e-03 +7.5364577406e-03 -1.0494668901e-02 1.2971827810e-02 0.0000000000e+00 0.0000e+00 -1.0000e+00
<mgrwt>
<rscale>  1 0.64892203E+03</rscale>
<asrwt>0</asrwt>
<pdfrwt beam="1">  1        1 0.38282781E+00 0.64892203E+03</pdfrwt>
<pdfrwt beam="2">0</pdfrwt>
<totfact> 0.15947824E+00</totfact>
</mgrwt>
</event>
<event>
 6      1 +5.6466785e-02 6.54357700e+02 7.81860800e-03 9.79863600e-02
        1 -1    0    0  502    0 +0.0000000000e+00 +0.0000000000e+00 +1.0704601562e+02 1.0704601562e+02 0.0000000000e+00 0.0000e+00 1.0000e+00
       13 -1    0    0    0    0 -0.0000000000e+00 -0.0000000000e+00 -1.0000000000e+03 1.0000000000e+03 0.0000000000e+00 0.0000e+00 1.0000e+00
  9000005  2    1    2  501    0 +2.3640540974e-06 -7.0803585857e-06 -8.9295399004e+02 1.1070460062e+03 6.5435772450e+02 0.0000e+00 0.0000e+00
       13  1    3    3    0    0 +2.1470011410e+02 +7.3918980550e+01 -4.7964841844e+01 2.3207925529e+02 0.0000000000e+00 0.0000e+00 1.0000e+00
        3  1    3    3  501    0 -2.1470011174e+02 -7.3918987631e+01 -8.4498914820e+02 8.7496675096e+02 0.0000000000e+00 0.0000e+00 1.0000e+00
       21  1    1    2  502  501 -2.3640541198e-06 +7.0803585808e-06 +5.6653884273e-06 9.3710648033e-06 0.0000000000e+00 0.0000e+00 1.0000e+00
<mgrwt>
<rscale>  1 0.65435772E+03</rscale>
<asrwt>0</asrwt>
<pdfrwt beam="1">  1        1 0.38925906E+00 0.65435772E+03</pdfrwt>
<pdfrwt beam="2">0</pdfrwt>
<totfact> 0.14921162E+00</totfact>
</mgrwt>
</event>
<event>
 6      1 +5.6466785e-02 6.49832900e+02 7.81860800e-03 9.80709300e-02
        1 -1    0    0  502    0 +0.0000000000e+00 +0.0000000000e+00 +1.0557070298e+02 1.0557070298e+02 0.0000000000e+00 0.0000e+00 1.0000e+00
       13 -1    0    0    0    0 -0.0000000000e+00 -0.0000000000e+00 -1.0000000000e+03 1.0000000000e+03 0.0000000000e+00 0.0000e+00 1.0000e+00
  9000005  2    1    2  501    0 +1.8311837664e-06 -2.7796868931e-06 -8.9442931171e+02 1.1055706879e+03 6.4983286494e+02 0.0000e+00 0.0000e+00
       13  1    3    3    0    0 -1.6535661223e+02 -2.4491992282e+00 -9.2304153150e+02 9.3773902375e+02 0.0000000000e+00 0.0000e+00 1.0000e+00
        3  1    3    3  501    0 +1.6535661407e+02 +2.4491964485e+00 +2.8612219793e+01 1.6783166418e+02 0.0000000000e+00 0.0000e+00 1.0000e+00
       21  1    1    2  502  501 -1.8311837680e-06 +2.7796868928e-06 +1.4688579913e-05 1.5061018328e-05 0.0000000000e+00 0.0000e+00 -1.0000e+00
<mgrwt>
<rscale>  1 0.64983286E+03</rscale>
<asrwt>0</asrwt>
<pdfrwt beam="1">  1        1 0.38389427E+00 0.64983286E+03</pdfrwt>
<pdfrwt beam="2">0</pdfrwt>
<totfact> 0.15773030E+00</totfact>
</mgrwt>
</event>
<event>
 6      1 +5.6466785e-02 6.45503200e+02 7.81860800e-03 9.81525400e-02
        1 -1    0    0  502    0 +0.0000000000e+00 +0.0000000000e+00 +1.0417393869e+02 1.0417393869e+02 0.0000000000e+00 0.0000e+00 1.0000e+00
       13 -1    0    0    0    0 -0.0000000000e+00 -0.0000000000e+00 -1.0000000000e+03 1.0000000000e+03 0.0000000000e+00 0.0000e+00 1.0000e+00
  9000005  2    1    2  501    0 +1.6639678796e-03 -1.9856485553e-03 -8.9583107063e+02 1.1041682991e+03 6.4550315696e+02 0.0000e+00 0.0000e+00
       13  1    3    3    0    0 +1.9325819379e+02 +2.3716132770e+02 -2.7201725021e+02 4.0937465632e+02 0.0000000000e+00 0.0000e+00 1.0000e+00
        3  1    3    3  501    0 -1.9325652982e+02 -2.3716331335e+02 -6.2381382042e+02 6.9479364279e+02 0.0000000000e+00 0.0000e+00 1.0000e+00
       21  1    1    2  502  501 -1.6639678795e-03 +1.9856485554e-03 +5.0093174785e-03 5.6395789639e-03 0.0000000000e+00 0.0000e+00 1.0000e+00
<mgrwt>
<rscale>  1 0.64550316E+03</rscale>
<asrwt>0</asrwt>
<pdfrwt beam="1">  1        1 0.37881512E+00 0.64550316E+03</pdfrwt>
<pdfrwt beam="2">0</pdfrwt>
<totfact> 0.16622129E+00</totfact>
</mgrwt>
</event>
<event>
 6      1 +5.6466785e-02 6.60525900e+02 7.81860800e-03 9.78722600e-02
        1 -1    0    0  502    0 +0.0000000000e+00 +0.0000000000e+00 +1.0982897839e+02 1.0982897839e+02 0.0000000000e+00 0.0000e+00 1.0000e+00
       13 -1    0    0    0    0 -0.0000000000e+00 -0.0000000000e+00 -1.0000000000e+03 1.0000000000e+03 0.0000000000e+00 0.0000e+00 1.0000e+00
  9000005  2    1    2  501    0 -3.4738010237e-01 +5.6414124604e-01 -8.9076172627e+02 1.1089413635e+03 6.6052559047e+02 0.0000e+00 0.0000e+00
       13  1    3    3    0    0 +2.9013420839e+02 +1.1967579486e+02 -6.1767332020e+02 6.9283510682e+02 0.0000000000e+00 0.0000e+00 1.0000e+00
        3  1    3    3  501    0 -2.9048158849e+02 -1.1911165362e+02 -2.7308840607e+02 4.1610625664e+02 0.0000000000e+00 0.0000e+00 1.0000e+00
       21  1    1    2  502  501 +3.4738010237e-01 -5.6414124604e-01 +5.9070466419e-01 8.8761493977e-01 0.0000000000e+00 0.0000e+00 -1.0000e+00
<mgrwt>
<rscale>  1 0.66052592E+03</rscale>
<asrwt>0</asrwt>
<pdfrwt beam="1">  1        1 0.39937895E+00 0.66052592E+03</pdfrwt>
<pdfrwt beam="2">0</pdfrwt>
<totfact> 0.13437540E+00</totfact>
</mgrwt>
</event>
<event>
 6      1 +5.6466785e-02 6.60336000e+02 7.81860800e-03 9.78757500e-02
        1 -1    0    0  502    0 +0.0000000000e+00 +0.0000000000e+00 +1.1347446491e+02 1.1347446491e+02 0.0000000000e+00 0.0000e+00 1.0000e+00
       13 -1    0    0    0    0 -0.0000000000e+00 -0.0000000000e+00 -1.0000000000e+03 1.0000000000e+03 0.0000000000e+00 0.0000e+00 1.0000e+00
  9000005  2    1    2  501    0 +1.8874801308e+00 -3.6690167812e-01 -8.9075825087e+02 1.1088254778e+03 6.6033323525e+02 0.0000e+00 0.0000e+00
       13  1    3    3    0    0 -2.8338083836e+02 -1.6053557311e+02 -3.6116478218e+02 4.8632948674e+02 0.0000000000e+00 0.0000e+00 1.0000e+00
        1  1    3    3  501    0 +2.8526831849e+02 +1.6016867143e+02 -5.2959346869e+02 6.2249599108e+02 0.0000000000e+00 0.0000e+00 1.0000e+00
       21  1    1    2  502  501 -1.8874801308e+00 +3.6690167812e-01 +4.2327157841e+00 4.6489870934e+00 0.0000000000e+00 0.0000e+00 -1.0000e+00
<mgrwt>
<rscale>  1 0.66033603E+03</rscale>
<asrwt>0</asrwt>
<pdfrwt beam="1">  1        1 0.41263529E+00 0.66033603E+03</pdfrwt>
<pdfrwt beam="2">0</pdfrwt>
<totfact> 0.11722664E+00</totfact>
</mgrwt>
</event>
<event>
 6      1 +5.6466785e-02 6.67085400e+02 7.81860800e-03 9.77523800e-02
        1 -1    0    0  502    0 +0.0000000000e+00 +0.0000000000e+00 +1.1125139085e+02 1.1125139085e+02 0.0000000000e+00 0.0000e+00 1.0000e+00
       13 -1    0    0    0    0 -0.0000000000e+00 -0.0000000000e+00 -1.0000000000e+03 1.0000000000e+03 0.0000000000e+00 0.0000e+00 1.0000e+00
  9000005  2    1    2  501    0 -1.5825610413e-04 -5.5495926574e-05 -8.8874926348e+02 1.1112507154e+03 6.6708537616e+02 0.0000e+00 0.0000e+00
       13  1    3    3    0    0 +1.2156074793e+02 +1.7591962793e+02 -8.7079435762e+02 8.9666467768e+02 0.0000000000e+00 0.0000e+00 1.0000e+00
        1  1    3    3  501    0 -1.2156090619e+02 -1.7591968342e+02 -1.7954905854e+01 2.1458603770e+02 0.0000000000e+00 0.0000e+00 1.0000e+00
       21  1    1    2  502  501 +1.5825610413e-04 +5.5495926568e-05 +6.5432354071e-04 6.7547323284e-04 0.0000000000e+00 0.0000e+00 1.0000e+00
<mgrwt>
<rscale>  1 0.66708538E+03</rscale>
<asrwt>0</asrwt>
<pdfrwt beam="1">  1        1 0.40455137E+00 0.66708538E+03</pdfrwt>
<pdfrwt beam="2">0</pdfrwt>
<totfact> 0.12726070E+00</totfact>
</mgrwt>
</event>
<event>
 6      1 +5.6466785e-02 6.32078500e+02 7.81860800e-03 9.84100100e-02
        1 -1    0    0  502    0 +0.0000000000e+00 +0.0000000000e+00 +9.9894836842e+01 9.9894836842e+01 0.0000000000e+00 0.0000e+00 1.0000e+00
       13 -1    0    0    0    0 -0.0000000000e+00 -0.0000000000e+00 -1.0000000000e+03 1.0000000000e+03 0.0000000000e+00 0.0000e+00 1.0000e+00
  9000005  2    1    2  501    0 +7.7613645371e-04 +6.2616840269e-04 -9.0011916966e+02 1.0998807949e+03 6.3207851045e+02 0.0000e+00 0.0000e+00
       13  1    3    3    0    0 +2.4192455613e+02 +1.1762306359e+02 -7.3871987254e+02 7.8617410669e+02 0.0000000000e+00 0.0000e+00 1.0000e+00
        3  1    3    3  501    0 -2.4192377999e+02 -1.1762243742e+02 -1.6139929712e+02 3.1370668820e+02 0.0000000000e+00 0.0000e+00 1.0000e+00
       21  1    1    2  502  501 -7.7613645371e-04 -6.2616840269e-04 +1.4006500285e-02 1.4041955879e-02 0.0000000000e+00 0.0000e+00 -1.0000e+00
<mgrwt>
<rscale>  1 0.63207851E+03</rscale>
<asrwt>0</asrwt>
<pdfrwt beam="1">  1        1 0.36325472E+00 0.63207851E+03</pdfrwt>
<pdfrwt beam="2">0</pdfrwt>
<totfact> 0.19503962E+00</totfact>
</mgrwt>
</event>
<event>
 6      1 +5.6466785e-02 6.30803100e+02 7.81860800e-03 9.84348300e-02
        1 -1    0    0  502    0 +0.0000000000e+00 +0.0000000000e+00 +9.9489465911e+01 9.9489465911e+01 0.0000000000e+00 0.0000e+00 1.0000e+00
       13 -1    0    0    0    0 -0.0000000000e+00 -0.0000000000e+00 -1.0000000000e+03 1.0000000000e+03 0.0000000000e+00 0.0000e+00 1.0000e+00
  9000005  2    1    2  501    0 +9.8161873780e-04 -4.3204473278e-04 -9.0052184282e+02 1.0994781064e+03 6.3080307317e+02 0.0000e+00 0.0000e+00
       13  1    3    3    0    0 +1.6353867331e+02 +1.1493124977e+02 -2.5016004127e+01 2.0144450924e+02 0.0000000000e+00 0.0000e+00 1.0000e+00
        1  1    3    3  501    0 -1.6353769169e+02 -1.1493168181e+02 -8.7550583870e+02 8.9803359719e+02 0.0000000000e+00 0.0000e+00 1.0000e+00
       21  1    1    2  502  501 -9.8161873779e-04 +4.3204473279e-04 +1.1308735536e-02 1.1359477867e-02 0.0000000000e+00 0.0000e+00 1.0000e+00
<mgrwt>
<rscale>  1 0.63080307E+03</rscale>
<asrwt>0</asrwt>
<pdfrwt beam="1">  1        1 0.36178064E+00 0.63080307E+03</pdfrwt>
<pdfrwt beam="2">0</pdfrwt>
<totfact> 0.19800510E+00</totfact>
</mgrwt>
</event>
<event>
 6      1 +5.6466785e-02 6.43643000e+02 7.81860800e-03 9.81878100e-02
        1 -1    0    0  502    0 +0.0000000000e+00 +0.0000000000e+00 +1.0357991596e+02 1.0357991596e+02 0.0000000000e+00 0.0000e+00 1.0000e+00
       13 -1    0    0    0    0 -0.0000000000e+00 -0.0000000000e+00 -1.0000000000e+03 1.0000000000e+03 0.0000000000e+00 0.0000e+00 1.0000e+00
  9000005  2    1    2  501    0 +5.8448959440e-04 -3.9669681496e-04 -8.9643089856e+02 1.1035690784e+03 6.4364303376e+02 0.0000e+00 0.0000e+00
       13  1    3    3    0    0 -8.3276825633e+01 -2.9895476173e+02 -5.9430816957e+02 6.7045594909e+02 0.0000000000e+00 0.0000e+00 1.0000e+00
        3  1    3    3  501    0 +8.3277410122e+01 +2.9895436504e+02 -3.0212272898e+02 4.3311312931e+02 0.0000000000e+00 0.0000e+00 1.0000e+00
       21  1    1    2  502  501 -5.8448959440e-04 +3.9669681498e-04 +1.0814518261e-02 1.0837564378e-02 0.0000000000e+00 0.0000e+00 -1.0000e+00
<mgrwt>
<rscale>  1 0.64364303E+03</rscale>
<asrwt>0</asrwt>
<pdfrwt beam="1">  1        1 0.37665503E+00 0.64364303E+03</pdfrwt>
<pdfrwt beam="2">0</pdfrwt>
<totfact> 0.16996334E+00</totfact>
</mgrwt>
</event>
<event>
 6      1 +5.6466785e-02 6.49891800e+02 7.81860800e-03 9.80698200e-02
        1 -1    0    0  502    0 +0.0000000000e+00 +0.0000000000e+00 +1.0558988391e+02 1.0558988391e+02 0.0000000000e+00 0.0000e+00 1.0000e+00
       13 -1    0    0    0    0 -0.0000000000e+00 -0.0000000000e+00 -1.0000000000e+03 1.0000000000e+03 0.0000000000e+00 0.0000e+00 1.0000e+00
  9000005  2    1    2  501    0 +1.2483544930e-04 +1.8413689517e-05 -8.9441009591e+02 1.1055897561e+03 6.4989175188e+02 0.0000e+00 0.0000e+00
       13  1    3    3    0    0 -3.2276288656e+02 +1.4041027111e+01 -5.0654582015e+02 6.0080088157e+02 0.0000000000e+00 0.0000e+00 1.0000e+00
        1  1    3    3  501    0 +3.2276301140e+02 -1.4041008697e+01 -3.8786427577e+02 5.0478887455e+02 0.0000000000e+00 0.0000e+00 1.0000e+00
       21  1    1    2  502  501 -1.2483544932e-04 -1.8413689517e-05 -2.0178139568e-05 1.2778932148e-04 0.0000000000e+00 0.0000e+00 -1.0000e+00
<mgrwt>
<rscale>  1 0.64989175E+03</rscale>
<asrwt>0</asrwt>
<pdfrwt beam="1">  1        1 0.38396402E+00 0.64989175E+03</pdfrwt>
<pdfrwt beam="2">0</pdfrwt>
<totfact> 0.15761664E+00</totfact>
</mgrwt>
</event>
<event>
 6      1 +5.6466785e-02 6.50010400e+02 7.81860800e-03 9.80676000e-02
        1 -1    0    0  502    0 +0.0000000000e+00 +0.0000000000e+00 +1.0925132156e+02 1.0925132156e+02 0.0000000000e+00 0.0000e+00 1.0000e+00
       13 -1    0    0    0    0 -0.0000000000e+00 -0.0000000000e+00 -1.0000000000e+03 1.0000000000e+03 0.0000000000e+00 0.0000e+00 1.0000e+00
  9000005  2    1    2  501    0 -7.0003111847e+00 +8.4854614554e-01 -8.9009185066e+02 1.1021692449e+03 6.4997216663e+02 0.0000e+00 0.0000e+00
       13  1    3    3    0    0 -1.5935799826e+02 +1.3553089901e+02 -8.7343224893e+02 8.9813556308e+02 0.0000000000e+00 0.0000e+00 1.0000e+00
        1  1    3    3  501    0 +1.5235768708e+02 -1.3468235286e+02 -1.6659601726e+01 2.0403368181e+02 0.0000000000e+00 0.0000e+00 1.0000e+00
       21  1    1    2  502  501 +7.0003111847e+00 -8.4854614554e-01 -6.5682778007e-01 7.0820766712e+00 0.0000000000e+00 0.0000e+00 1.0000e+00
<mgrwt>
<rscale>  1 0.65001042E+03</rscale>
<asrwt>0</asrwt>
<pdfrwt beam="1">  1        1 0.39727837E+00 0.65001042E+03</pdfrwt>
<pdfrwt beam="2">0</pdfrwt>
<totfact> 0.13757391E+00</totfact>
</mgrwt>
</event>
<event>
 6      1 +5.6466785e-02 6.01042300e+02 7.81860800e-03 9.90324600e-02
        1 -1    0    0  502    0 +0.0000000000e+00 +0.0000000000e+00 +9.3582729122e+01 9.3582729122e+01 0.0000000000e+00 0.0000e+00 1.0000e+00
       13 -1    0    0    0    0 -0.0000000000e+00 -0.0000000000e+00 -1.0000000000e+03 1.0000000000e+03 0.0000000000e+00 0.0000e+00 1.0000e+00
  9000005  2    1    2  501    0 +1.2607040912e-02 +5.1816333192e-02 -9.0968681128e+02 1.0903127538e+03 6.0104226453e+02 0.0000e+00 0.0000e+00
       13  1    3    3    0    0 -1.4160308908e+01 +2.0438226383e+02 -8.5375455452e+02 8.7799172176e+02 0.0000000000e+00 0.0000e+00 1.0000e+00
        1  1    3    3  501    0 +1.4172915949e+01 -2.0433044750e+02 -5.5932256760e+01 2.1232103209e+02 0.0000000000e+00 0.0000e+00 1.0000e+00
       21  1    1    2  502  501 -1.2607040912e-02 -5.1816333192e-02 +3.2695403988e+00 3.2699752735e+00 0.0000000000e+00 0.0000e+00 -1.0000e+00
<mgrwt>
<rscale>  1 0.60104227E+03</rscale>
<asrwt>0</asrwt>
<pdfrwt beam="1">  1        1 0.34030155E+00 0.60104227E+03</pdfrwt>
<pdfrwt beam="2">0</pdfrwt>
<totfact> 0.24695743E+00</totfact>
</mgrwt>
</event>
<event>
 6      1 +5.6466785e-02 6.57676500e+02 7.81860800e-03 9.79248000e-02
        1 -1    0    0  502    0 +0.0000000000e+00 +0.0000000000e+00 +1.0813463002e+02 1.0813463002e+02 0.0000000000e+00 0.0000e+00 1.0000e+00
       13 -1    0    0    0    0 -0.0000000000e+00 -0.0000000000e+00 -1.0000000000e+03 1.0000000000e+03 0.0000000000e+00 0.0000e+00 1.0000e+00
  9000005  2    1    2  501    0 +3.8560795609e-05 +2.3626913674e-05 -8.9186539099e+02 1.1081345802e+03 6.5767649501e+02 0.0000e+00 0.0000e+00
       13  1    3    3    0    0 -6.2669546331e+01 -2.7627234301e+02 -1.6459230412e+02 3.2763471447e+02 0.0000000000e+00 0.0000e+00 1.0000e+00
        1  1    3    3  501    0 +6.2669584892e+01 +2.7627236664e+02 -7.2727308687e+02 7.8049986568e+02 0.0000000000e+00 0.0000e+00 1.0000e+00
       21  1    1    2  502  501 -3.8560795612e-05 -2.3626913719e-05 +2.1009314680e-05 4.9865391941e-05 0.0000000000e+00 0.0000e+00 -1.0000e+00
<mgrwt>
<rscale>  1 0.65767650E+03</rscale>
<asrwt>0</asrwt>
<pdfrwt beam="1">  1        1 0.39321767E+00 0.65767650E+03</pdfrwt>
<pdfrwt beam="2">0</pdfrwt>
<totfact> 0.14320819E+00</totfact>
</mgrwt>
</event>
<event>
 6      1 +5.6466785e-02 6.50230500e+02 7.81860800e-03 9.80634700e-02
        1 -1    0    0  502    0 +0.0000000000e+00 +0.0000000000e+00 +1.0570004970e+02 1.0570004970e+02 0.0000000000e+00 0.0000e+00 1.0000e+00
       13 -1    0    0    0    0 -0.0000000000e+00 -0.0000000000e+00 -1.0000000000e+03 1.0000000000e+03 0.0000000000e+00 0.0000e+00 1.0000e+00
  9000005  2    1    2  501    0 +4.5417285719e-06 +2.5001925650e-06 -8.9430007466e+02 1.1056999252e+03 6.5023049844e+02 0.0000e+00 0.0000e+00
       13  1    3    3    0    0 -2.8110552394e+02 +9.9232980056e+01 -2.2653084819e+02 3.7441117117e+02 0.0000000000e+00 0.0000e+00 1.0000e+00
        1  1    3    3  501    0 +2.8110552848e+02 -9.9232977556e+01 -6.6776922648e+02 7.3128875405e+02 0.0000000000e+00 0.0000e+00 1.0000e+00
       21  1    1    2  502  501 -4.5417285926e-06 -2.5001925570e-06 +1.2436603911e-04 1.2447405330e-04 0.0000000000e+00 0.0000e+00 1.0000e+00
<mgrwt>
<rscale>  1 0.65023050E+03</rscale>
<asrwt>0</asrwt>
<pdfrwt beam="1">  1        1 0.38436463E+00 0.65023050E+03</pdfrwt>
<pdfrwt beam="2">0</pdfrwt>
<totfact> 0.15696532E+00</totfact>
</mgrwt>
</event>
<event>
 6      1 +5.6466785e-02 6.45926600e+02 7.81860800e-03 9.81445300e-02
        1 -1    0    0  502    0 +0.0000000000e+00 +0.0000000000e+00 +1.1043753476e+02 1.1043753476e+02 0.0000000000e+00 0.0000e+00 1.0000e+00
       13 -1    0    0    0    0 -0.0000000000e+00 -0.0000000000e+00 -1.0000000000e+03 1.0000000000e+03 0.0000000000e+00 0.0000e+00 1.0000e+00
  9000005  2    1    2  501    0 +1.9375552952e-01 -3.8906740123e+00 -8.9500413885e+02 1.1037452484e+03 6.4591484721e+02 0.0000e+00 0.0000e+00
       13  1    3    3    0    0 -1.9146811203e+02 -1.6153373760e+02 -9.7989592304e+01 2.6898911968e+02 0.0000000000e+00 0.0000e+00 1.0000e+00
        1  1    3    3  501    0 +1.9166186756e+02 +1.5764306359e+02 -7.9701454655e+02 8.3475612869e+02 0.0000000000e+00 0.0000e+00 1.0000e+00
       21  1    1    2  502  501 -1.9375552952e-01 +3.8906740123e+00 +5.4416736146e+00 6.6922863958e+00 0.0000000000e+00 0.0000e+00 -1.0000e+00
<mgrwt>
<rscale>  1 0.64592659E+03</rscale>
<asrwt>0</asrwt>
<pdfrwt beam="1">  1        1 0.40159188E+00 0.64592659E+03</pdfrwt>
<pdfrwt beam="2">0</pdfrwt>
<totfact> 0.13172099E+00</totfact>
</mgrwt>
</event>
<event>
 6      1 +5.6466785e-02 6.44513000e+02 7.81860800e-03 9.81713000e-02
        1 -1    0    0  502    0 +0.0000000000e+00 +0.0000000000e+00 +1.0385848739e+02 1.0385848739e+02 0.0000000000e+00 0.0000e+00 1.0000e+00
       13 -1    0    0    0    0 -0.0000000000e+00 -0.0000000000e+00 -1.0000000000e+03 1.0000000000e+03 0.0000000000e+00 0.0000e+00 1.0000e+00
  9000005  2    1    2  501    0 -2.1945755173e-03 +6.4101467423e-06 -8.9615061182e+02 1.1038491273e+03 6.4451297637e+02 0.0000e+00 0.0000e+00
       13  1    3    3    0    0 -3.1648047773e+02 -2.8981405694e+01 -5.3951126730e+02 6.2615670738e+02 0.0000000000e+00 0.0000e+00 1.0000e+00
        1  1    3    3  501    0 +3.1647828316e+02 +2.8981412104e+01 -3.5663934452e+02 4.7769241989e+02 0.0000000000e+00 0.0000e+00 1.0000e+00
       21  1    1    2  502  501 +2.1945755173e-03 -6.4101467407e-06 +9.0992041137e-03 9.3601131561e-03 0.0000000000e+00 0.0000e+00 1.0000e+00
<mgrwt>
<rscale>  1 0.64451298E+03</rscale>
<asrwt>0</asrwt>
<pdfrwt beam="1">  1        1 0.37766802E+00 0.64451298E+03</pdfrwt>
<pdfrwt beam="2">0</pdfrwt>
<totfact> 0.16819866E+00</totfact>
</mgrwt>
</event>
<event>
 6      1 +5.6466785e-02 6.52633000e+02 7.81860800e-03 9.80185100e-02
        1 -1    0    0  502    0 +0.0000000000e+00 +0.0000000000e+00 +1.0852300806e+02 1.0852300806e+02 0.0000000000e+00 0.0000e+00 1.0000e+00
       13 -1    0    0    0    0 -0.0000000000e+00 -0.0000000000e+00 -1.0000000000e+03 1.0000000000e+03 0.0000000000e+00 0.0000e+00 1.0000e+00
  9000005  2    1    2  501    0 +3.0720234857e-02 +4.7545440899e-02 -8.9351710165e+02 1.1064821132e+03 6.5263301528e+02 0.0000e+00 0.0000e+00
       13  1    3    3    0    0 -6.9553898708e+01 +3.1800369366e+02 -4.0770471941e+02 5.2171566225e+02 0.0000000000e+00 0.0000e+00 1.0000e+00
        3  1    3    3  501    0 +6.9584618943e+01 -3.1795614822e+02 -4.8581238224e+02 5.8476645093e+02 0.0000000000e+00 0.0000e+00 1.0000e+00
       21  1    1    2  502  501 -3.0720234857e-02 -4.7545440899e-02 +2.0401097129e+00 2.0408948876e+00 0.0000000000e+00 0.0000e+00 1.0000e+00
<mgrwt>
<rscale>  1 0.65263302E+03</rscale>
<asrwt>0</asrwt>
<pdfrwt beam="1">  1        1 0.39462995E+00 0.65263302E+03</pdfrwt>
<pdfrwt beam="2">0</pdfrwt>
<totfact> 0.14128665E+00</totfact>
</mgrwt>
</event>
<event>
 6      1 +5.6466785e-02 6.84374300e+02 7.81860800e-03 9.74433400e-02
        1 -1    0    0  502    0 +0.0000000000e+00 +0.0000000000e+00 +1.1709218857e+02 1.1709218857e+02 0.0000000000e+00 0.0000e+00 1.0000e+00
       13 -1    0    0    0    0 -0.0000000000e+00 -0.0000000000e+00 -1.0000000000e+03 1.0000000000e+03 0.0000000000e+00 0.0000e+00 1.0000e+00
  9000005  2    1    2  501    0 -9.3381143884e-06 +4.8514405080e-06 -8.8290796433e+02 1.1170920353e+03 6.8437427031e+02 0.0000e+00 0.0000e+00
       13  1    3    3    0    0 -2.7372333259e+01 +3.3345176649e+02 -5.5862312023e+02 6.5115214479e+02 0.0000000000e+00 0.0000e+00 1.0000e+00
        1  1    3    3  501    0 +2.7372323921e+01 -3.3345176164e+02 -3.2428484410e+02 4.6593989052e+02 0.0000000000e+00 0.0000e+00 1.0000e+00
       21  1    1    2  502  501 +9.3381143878e-06 -4.8514405007e-06 +1.5290136611e-04 1.5326305691e-04 0.0000000000e+00 0.0000e+00 -1.0000e+00
<mgrwt>
<rscale>  1 0.68437427E+03</rscale>
<asrwt>0</asrwt>
<pdfrwt beam="1">  1        1 0.42579067E+00 0.68437427E+03</pdfrwt>
<pdfrwt beam="2">0</pdfrwt>
<totfact> 0.10178317E+00</totfact>
</mgrwt>
</event>
<event>
 6      1 +5.6466785e-02 6.54461600e+02 7.81860800e-03 9.79844300e-02
        1 -1    0    0  502    0 +0.0000000000e+00 +0.0000000000e+00 +1.0708001718e+02 1.0708001718e+02 0.0000000000e+00 0.0000e+00 1.0000e+00
       13 -1    0    0    0    0 -0.0000000000e+00 -0.0000000000e+00 -1.0000000000e+03 1.0000000000e+03 0.0000000000e+00 0.0000e+00 1.0000e+00
  9000005  2    1    2  501    0 +1.1138887089e-05 -3.5351735619e-06 -8.9291998056e+02 1.1070800053e+03 6.5446164625e+02 0.0000e+00 0.0000e+00
       13  1    3    3    0    0 -2.9700235778e+02 -1.1729682549e+02 -3.2552542669e+02 4.5599972502e+02 0.0000000000e+00 0.0000e+00 1.0000e+00
        1  1    3    3  501    0 +2.9700236892e+02 +1.1729682196e+02 -5.6739455388e+02 6.5108028027e+02 0.0000000000e+00 0.0000e+00 1.0000e+00
       21  1    1    2  502  501 -1.1138887077e-05 +3.5351735704e-06 -2.2506731838e-06 1.1901167475e-05 0.0000000000e+00 0.0000e+00 -1.0000e+00
<mgrwt>
<rscale>  1 0.65446165E+03</rscale>
<asrwt>0</asrwt>
<pdfrwt beam="1">  1        1 0.38938270E+00 0.65446165E+03</pdfrwt>
<pdfrwt beam="2">0</pdfrwt>
<totfact> 0.14902055E+00</totfact>
</mgrwt>
</event>
<event>
 6      1 +5.6466785e-02 6.88288900e+02 7.81860800e-03 9.73747200e-02
        1 -1    0    0  502    0 +0.0000000000e+00 +0.0000000000e+00 +1.1937009386e+02 1.1937009386e+02 0.0000000000e+00 0.0000e+00 1.0000e+00
       13 -1    0    0    0    0 -0.0000000000e+00 -0.0000000000e+00 -1.0000000000e+03 1.0000000000e+03 0.0000000000e+00 0.0000e+00 1.0000e+00
  9000005  2    1    2  501    0 -2.4028627005e-01 -2.3756398300e+00 -8.7925134462e+02 1.1166129515e+03 6.8828471947e+02 0.0000e+00 0.0000e+00
       13  1    3    3    0    0 -1.3477760398e+02 -2.3691154961e+02 -7.8385800342e+02 8.2989484538e+02 0.0000000000e+00 0.0000e+00 1.0000e+00
        3  1    3    3  501    0 +1.3453731771e+02 +2.3453590978e+02 -9.5393341204e+01 2.8671810612e+02 0.0000000000e+00 0.0000e+00 1.0000e+00
       21  1    1    2  502  501 +2.4028627005e-01 +2.3756398300e+00 -1.3785615178e+00 2.7571423525e+00 0.0000000000e+00 0.0000e+00 -1.0000e+00
<mgrwt>
<rscale>  1 0.68828886E+03</rscale>
<asrwt>0</asrwt>
<pdfrwt beam="1">  1        1 0.43407398E+00 0.68828886E+03</pdfrwt>
<pdfrwt beam="2">0</pdfrwt>
<totfact> 0.93261418E-01</totfact>
</mgrwt>
</event>
<event>
 6      1 +5.6466785e-02 6.62051200e+02 7.81860800e-03 9.78442500e-02
        1 -1    0    0  502    0 +0.0000000000e+00 +0.0000000000e+00 +1.1928999183e+02 1.1928999183e+02 0.0000000000e+00 0.0000e+00 1.0000e+00
       13 -1    0    0    0    0 -0.0000000000e+00 -0.0000000000e+00 -1.0000000000e+03 1.0000000000e+03 0.0000000000e+00 0.0000e+00 1.0000e+00
  9000005  2    1    2  501    0 -1.5832888952e-01 -3.7733685949e-01 -8.9041725779e+02 1.1095741210e+03 6.6205110795e+02 0.0000e+00 0.0000e+00
       13  1    3    3    0    0 +3.1490590655e+02 -1.7160915148e+01 -2.7690269955e+02 4.1968480078e+02 0.0000000000e+00 0.0000e+00 1.0000e+00
        3  1    3    3  501    0 -3.1506423544e+02 +1.6783578289e+01 -6.1351455824e+02 6.8988932020e+02 0.0000000000e+00 0.0000e+00 1.0000e+00
       21  1    1    2  502  501 +1.5832888952e-01 +3.7733685949e-01 +9.7072496170e+00 9.7158708447e+00 0.0000000000e+00 0.0000e+00 -1.0000e+00
<mgrwt>
<rscale>  1 0.66205123E+03</rscale>
<asrwt>0</asrwt>
<pdfrwt beam="1">  1        1 0.43378270E+00 0.66205123E+03</pdfrwt>
<pdfrwt beam="2">0</pdfrwt>
<totfact> 0.94029651E-01</totfact>
</mgrwt>
</event>
<event>
 6      1 +5.6466785e-02 6.58102000e+02 7.81860800e-03 9.79169400e-02
        1 -1    0    0  502    0 +0.0000000000e+00 +0.0000000000e+00 +1.0829126446e+02 1.0829126446e+02 0.0000000000e+00 0.0000e+00 1.0000e+00
       13 -1    0    0    0    0 -0.0000000000e+00 -0.0000000000e+00 -1.0000000000e+03 1.0000000000e+03 0.0000000000e+00 0.0000e+00 1.0000e+00
  9000005  2    1    2  501    0 +3.7136864563e-05 +7.0822277996e-04 -8.9172542463e+02 1.1082745603e+03 6.5810201953e+02 0.0000e+00 0.0000e+00
       13  1    3    3    0    0 +2.5924061530e+01 -3.2391680835e+02 -3.5867832925e+02 4.8398791263e+02 0.0000000000e+00 0.0000e+00 1.0000e+00
        3  1    3    3  501    0 -2.5924024394e+01 +3.2391751657e+02 -5.3304709538e+02 6.2428664768e+02 0.0000000000e+00 0.0000e+00 1.0000e+00
       21  1    1    2  502  501 -3.7136864560e-05 -7.0822277999e-04 +1.6689091253e-02 1.6704152942e-02 0.0000000000e+00 0.0000e+00 1.0000e+00
<mgrwt>
<rscale>  1 0.65810202E+03</rscale>
<asrwt>0</asrwt>
<pdfrwt beam="1">  1        1 0.39378725E+00 0.65810202E+03</pdfrwt>
<pdfrwt beam="2">0</pdfrwt>
<totfact> 0.14236484E+00</totfact>
</mgrwt>
</event>
<event>
 6      1 +5.6466785e-02 6.26227300e+02 7.81860800e-03 9.85243900e-02
        1 -1    0    0  502    0 +0.0000000000e+00 +0.0000000000e+00 +9.8040365866e+01 9.8040365866e+01 0.0000000000e+00 0.0000e+00 1.0000e+00
       13 -1    0    0    0    0 -0.0000000000e+00 -0.0000000000e+00 -1.0000000000e+03 1.0000000000e+03 0.0000000000e+00 0.0000e+00 1.0000e+00
  9000005  2    1    2  501    0 -4.2598776852e-04 -2.2920273369e-04 -9.0195945311e+02 1.0980398494e+03 6.2622731955e+02 0.0000e+00 0.0000e+00
       13  1    3    3    0    0 +6.2725668824e+01 +3.0126053360e+02 -3.4952856428e+02 4.6568512525e+02 0.0000000000e+00 0.0000e+00 1.0000e+00
        3  1    3    3  501    0 -6.2726094812e+01 -3.0126076281e+02 -5.5243088883e+02 6.3235472411e+02 0.0000000000e+00 0.0000e+00 1.0000e+00
       21  1    1    2  502  501 +4.2598776852e-04 +2.2920273369e-04 -1.8102789236e-04 5.1649837354e-04 0.0000000000e+00 0.0000e+00 -1.0000e+00
<mgrwt>
<rscale>  1 0.62622732E+03</rscale>
<asrwt>0</asrwt>
<pdfrwt beam="1">  1        1 0.35651117E+00 0.62622732E+03</pdfrwt>
<pdfrwt beam="2">0</pdfrwt>
<totfact> 0.20896469E+00</totfact>
</mgrwt>
</event>
<event>
 6      1 +5.6466785e-02 6.55533600e+02 7.81860800e-03 9.79645100e-02
        3 -1    0    0  502    0 +0.0000000000e+00 +0.0000000000e+00 +1.0743319252e+02 1.0743319252e+02 0.0000000000e+00 0.0000e+00 1.0000e+00
       13 -1    0    0    0    0 -0.0000000000e+00 -0.0000000000e+00 -1.0000000000e+03 1.0000000000e+03 0.0000000000e+00 0.0000e+00 1.0000e+00
  9000005  2    1    2  501    0 -8.7401167661e-05 +1.0285823332e-04 -8.9256893863e+02 1.1074310571e+03 6.5553355065e+02 0.0000e+00 0.0000e+00
       13  1    3    3    0    0 +3.0559785529e+02 +8.6029778625e+01 -5.8394245777e+02 6.6466530371e+02 0.0000000000e+00 0.0000e+00 1.0000e+00
        1  1    3    3  501    0 -3.0559794269e+02 -8.6029675766e+01 -3.0862648086e+02 4.4276575340e+02 0.0000000000e+00 0.0000e+00 1.0000e+00
       21  1    1    2  502  501 +8.7401167676e-05 -1.0285823332e-04 +2.1311432934e-03 2.1354134301e-03 0.0000000000e+00 0.0000e+00 1.0000e+00
<mgrwt>
<rscale>  1 0.65553355E+03</rscale>
<asrwt>0</asrwt>
<pdfrwt beam="1">  1        3 0.39066698E+00 0.65553355E+03</pdfrwt>
<pdfrwt beam="2">0</pdfrwt>
<totfact> 0.66251536E-02</totfact>
</mgrwt>
</event>
<event>
 6      1 +5.6466785e-02 6.42306400e+02 7.81860800e-03 9.82132400e-02
        1 -1    0    0  502    0 +0.0000000000e+00 +0.0000000000e+00 +1.0322551009e+02 1.0322551009e+02 0.0000000000e+00 0.0000e+00 1.0000e+00
       13 -1    0    0    0    0 -0.0000000000e+00 -0.0000000000e+00 -1.0000000000e+03 1.0000000000e+03 0.0000000000e+00 0.0000e+00 1.0000e+00
  9000005  2    1    2  501    0 -1.8858651075e-03 -4.0588179527e-04 -8.9686059558e+02 1.1031393828e+03 6.4230644555e+02 0.0000e+00 0.0000e+00
       13  1    3    3    0    0 -2.2803825340e+02 +2.1269825041e+02 -3.1653519764e+02 4.4433829689e+02 0.0000000000e+00 0.0000e+00 1.0000e+00
        1  1    3    3  501    0 +2.2803636754e+02 -2.1269865629e+02 -5.8032539794e+02 6.5880108592e+02 0.0000000000e+00 0.0000e+00 1.0000e+00
       21  1    1    2  502  501 +1.8858651075e-03 +4.0588179527e-04 +8.6105669761e-02 8.6127275541e-02 0.0000000000e+00 0.0000e+00 -1.0000e+00
<mgrwt>
<rscale>  1 0.64230645E+03</rscale>
<asrwt>0</asrwt>
<pdfrwt beam="1">  1        1 0.37536628E+00 0.64230645E+03</pdfrwt>
<pdfrwt beam="2">0</pdfrwt>
<totfact> 0.17224119E+00</totfact>
</mgrwt>
</event>
<event>
 6      1 +5.6466785e-02 6.40704400e+02 7.81860800e-03 9.82438000e-02
        1 -1    0    0  502    0 +0.0000000000e+00 +0.0000000000e+00 +1.0263016213e+02 1.0263016213e+02 0.0000000000e+00 0.0000e+00 1.0000e+00
       13 -1    0    0    0    0 -0.0000000000e+00 -0.0000000000e+00 -1.0000000000e+03 1.0000000000e+03 0.0000000000e+00 0.0000e+00 1.0000e+00
  9000005  2    1    2  501    0 -6.2991299814e-05 -2.8096160005e-05 -8.9737445206e+02 1.1026255474e+03 6.4070444873e+02 0.0000e+00 0.0000e+00
       13  1    3    3    0    0 -2.5252078159e+02 +2.3036791806e+01 -7.8560904419e+02 8.2551741910e+02 0.0000000000e+00 0.0000e+00 1.0000e+00
        1  1    3    3  501    0 +2.5252071859e+02 -2.3036819902e+01 -1.1176540787e+02 2.7710812833e+02 0.0000000000e+00 0.0000e+00 1.0000e+00
       21  1    1    2  502  501 +6.2991299819e-05 +2.8096160004e-05 +4.6141913577e-03 4.6147068362e-03 0.0000000000e+00 0.0000e+00 1.0000e+00
<mgrwt>
<rscale>  1 0.64070445E+03</rscale>
<asrwt>0</asrwt>
<pdfrwt beam="1">  1        1 0.37320138E+00 0.64070445E+03</pdfrwt>
<pdfrwt beam="2">0</pdfrwt>
<totfact> 0.17611267E+00</totfact>
</mgrwt>
</event>
<event>
 6      1 +5.6466785e-02 6.49755000e+02 7.81860800e-03 9.80723900e-02
        1 -1    0    0  502    0 +0.0000000000e+00 +0.0000000000e+00 +1.0554551741e+02 1.0554551741e+02 0.0000000000e+00 0.0000e+00 1.0000e+00
       13 -1    0    0    0    0 -0.0000000000e+00 -0.0000000000e+00 -1.0000000000e+03 1.0000000000e+03 0.0000000000e+00 0.0000e+00 1.0000e+00
  9000005  2    1    2  501    0 -2.3252536067e-04 -1.6610534774e-04 -8.9445438555e+02 1.1055452156e+03 6.4975501226e+02 0.0000e+00 0.0000e+00
       13  1    3    3    0    0 +2.7829353060e+02 +1.3400855366e+02 -2.7589442336e+02 4.1415373290e+02 0.0000000000e+00 0.0000e+00 1.0000e+00
        3  1    3    3  501    0 -2.7829376313e+02 -1.3400871977e+02 -6.1855996219e+02 6.9139148273e+02 0.0000000000e+00 0.0000e+00 1.0000e+00
       21  1    1    2  502  501 +2.3252536070e-04 +1.6610534775e-04 -9.7040948783e-05 3.0178796474e-04 0.0000000000e+00 0.0000e+00 1.0000e+00
<mgrwt>
<rscale>  1 0.64975501E+03</rscale>
<asrwt>0</asrwt>
<pdfrwt beam="1">  1        1 0.38380269E+00 0.64975501E+03</pdfrwt>
<pdfrwt beam="2">0</pdfrwt>
<totfact> 0.15787968E+00</totfact>
</mgrwt>
</event>
<event>
 6      1 +5.6466785e-02 6.40321600e+02 7.81860800e-03 9.82511100e-02
        1 -1    0    0  502    0 +0.0000000000e+00 +0.0000000000e+00 +1.0250351645e+02 1.0250351645e+02 0.0000000000e+00 0.0000e+00 1.0000e+00
       13 -1    0    0    0    0 -0.0000000000e+00 -0.0000000000e+00 -1.0000000000e+03 1.0000000000e+03 0.0000000000e+00 0.0000e+00 1.0000e+00
  9000005  2    1    2  501    0 +3.9365598127e-05 -7.0547451600e-05 -8.9749705937e+02 1.1025029350e+03 6.4032159895e+02 0.0000e+00 0.0000e+00
       13  1    3    3    0    0 -1.9901164330e+02 -2.1275929495e+02 -6.7737028516e+02 7.3736195655e+02 0.0000000000e+00 0.0000e+00 1.0000e+00
        1  1    3    3  501    0 +1.9901168267e+02 +2.1275922440e+02 -2.2012677421e+02 3.6514097843e+02 0.0000000000e+00 0.0000e+00 1.0000e+00
       21  1    1    2  502  501 -3.9365598116e-05 +7.0547451591e-05 +5.7581729263e-04 5.8145691821e-04 0.0000000000e+00 0.0000e+00 -1.0000e+00
<mgrwt>
<rscale>  1 0.64032160E+03</rscale>
<asrwt>0</asrwt>
<pdfrwt beam="1">  1        1 0.37274085E+00 0.64032160E+03</pdfrwt>
<pdfrwt beam="2">0</pdfrwt>
<totfact> 0.17694824E+00</totfact>
</mgrwt>
</event>
<event>
 6      1 +5.6466785e-02 6.44464300e+02 7.81860800e-03 9.81722200e-02
        1 -1    0    0  502    0 +0.0000000000e+00 +0.0000000000e+00 +1.0383359397e+02 1.0383359397e+02 0.0000000000e+00 0.0000e+00 1.0000e+00
       13 -1    0    0    0    0 -0.0000000000e+00 -0.0000000000e+00 -1.0000000000e+03 1.0000000000e+03 0.0000000000e+00 0.0000e+00 1.0000e+00
  9000005  2    1    2  501    0 +1.9526893880e-06 -5.7487537219e-07 -8.9616644839e+02 1.1038335516e+03 6.4446427856e+02 0.0000e+00 0.0000e+00
       13  1    3    3    0    0 -3.1215756520e+02 -7.8622204667e+01 -4.2327701832e+02 5.3177742602e+02 0.0000000000e+00 0.0000e+00 1.0000e+00
        1  1    3    3  501    0 +3.1215756716e+02 +7.8622204093e+01 -4.7288943007e+02 5.7205612555e+02 0.0000000000e+00 0.0000e+00 1.0000e+00
       21  1    1    2  502  501 -1.9526893774e-06 +5.7487538192e-07 +4.2353482767e-05 4.2402369981e-05 0.0000000000e+00 0.0000e+00 1.0000e+00
<mgrwt>
<rscale>  1 0.64446428E+03</rscale>
<asrwt>0</asrwt>
<pdfrwt beam="1">  1        1 0.37757750E+00 0.64446428E+03</pdfrwt>
<pdfrwt beam="2">0</pdfrwt>
<totfact> 0.16835475E+00</totfact>
</mgrwt>
</event>
<event>
 6      1 +5.6466785e-02 6.54730100e+02 7.81860800e-03 9.79794400e-02
        3 -1    0    0  502    0 +0.0000000000e+00 +0.0000000000e+00 +1.0720070672e+02 1.0720070672e+02 0.0000000000e+00 0.0000e+00 1.0000e+00
       13 -1    0    0    0    0 -0.0000000000e+00 -0.0000000000e+00 -1.0000000000e+03 1.0000000000e+03 0.0000000000e+00 0.0000e+00 1.0000e+00
  9000005  2    1    2  501    0 +1.0324153350e-02 -1.5264402219e-02 -8.9282922187e+02 1.1071655597e+03 6.5473014051e+02 0.0000e+00 0.0000e+00
       13  1    3    3    0    0 -8.2594364522e+00 +1.2590379770e+02 -9.5721750898e+02 9.6549745938e+02 0.0000000000e+00 0.0000e+00 1.0000e+00
        3  1    3    3  501    0 +8.2697606056e+00 -1.2591906210e+02 +6.4388287109e+01 1.4166810035e+02 0.0000000000e+00 0.0000e+00 1.0000e+00
       21  1    1    2  502  501 -1.0324153350e-02 +1.5264402219e-02 +2.9928589129e-02 3.5146985145e-02 0.0000000000e+00 0.0000e+00 1.0000e+00
<mgrwt>
<rscale>  1 0.65473014E+03</rscale>
<asrwt>0</asrwt>
<pdfrwt beam="1">  1        3 0.38982157E+00 0.65473014E+03</pdfrwt>
<pdfrwt beam="2">0</pdfrwt>
<totfact> 0.66942522E-02</totfact>
</mgrwt>
</event>
<event>
 6      1 +5.6466785e-02 6.32198000e+02 7.81860800e-03 9.84076900e-02
        1 -1    0    0  502    0 +0.0000000000e+00 +0.0000000000e+00 +9.9920499632e+01 9.9920499632e+01 0.0000000000e+00 0.0000e+00 1.0000e+00
       13 -1    0    0    0    0 -0.0000000000e+00 -0.0000000000e+00 -1.0000000000e+03 1.0000000000e+03 0.0000000000e+00 0.0000e+00 1.0000e+00
  9000005  2    1    2  501    0 -5.8058672352e-04 -4.2046810142e-04 -9.0008136297e+02 1.0999185038e+03 6.3219795566e+02 0.0000e+00 0.0000e+00
       13  1    3    3    0    0 -1.6468622553e+02 +9.3915536070e+01 -8.9010815997e+02 9.1007374274e+02 0.0000000000e+00 0.0000e+00 1.0000e+00
        1  1    3    3  501    0 +1.6468564494e+02 -9.3915956538e+01 -9.9732030026e+00 1.8984476111e+02 0.0000000000e+00 0.0000e+00 1.0000e+00
       21  1    1    2  502  501 +5.8058672352e-04 +4.2046810144e-04 +1.8625993065e-03 1.9957831908e-03 0.0000000000e+00 0.0000e+00 1.0000e+00
<mgrwt>
<rscale>  1 0.63219796E+03</rscale>
<asrwt>0</asrwt>
<pdfrwt beam="1">  1        1 0.36334804E+00 0.63219796E+03</pdfrwt>
<pdfrwt beam="2">0</pdfrwt>
<totfact> 0.19485196E+00</totfact>
</mgrwt>
</event>
<event>
 6      1 +5.6466785e-02 6.44890700e+02 7.81860800e-03 9.81641400e-02
        1 -1    0    0  502    0 +0.0000000000e+00 +0.0000000000e+00 +1.1282903314e+02 1.1282903314e+02 0.0000000000e+00 0.0000e+00 1.0000e+00
       13 -1    0    0    0    0 -0.0000000000e+00 -0.0000000000e+00 -1.0000000000e+03 1.0000000000e+03 0.0000000000e+00 0.0000e+00 1.0000e+00
  9000005  2    1    2  501    0 +1.9032330103e-01 -7.3890748518e+00 -8.9429445591e+02 1.1025636181e+03 6.4484829487e+02 0.0000e+00 0.0000e+00
       13  1    3    3    0    0 -7.3295842418e+01 +2.9503265818e+02 -2.7709551171e+02 4.1133741930e+02 0.0000000000e+00 0.0000e+00 1.0000e+00
        3  1    3    3  501    0 +7.3486165719e+01 -3.0242173303e+02 -6.1719894420e+02 6.9122619878e+02 0.0000000000e+00 0.0000e+00 1.0000e+00
       21  1    1    2  502  501 -1.9032330103e-01 +7.3890748518e+00 +7.1234890444e+00 1.0265415057e+01 0.0000000000e+00 0.0000e+00 1.0000e+00
<mgrwt>
<rscale>  1 0.64489066E+03</rscale>
<asrwt>0</asrwt>
<pdfrwt beam="1">  1        1 0.41028826E+00 0.64489066E+03</pdfrwt>
<pdfrwt beam="2">0</pdfrwt>
<totfact> 0.12046406E+00</totfact>
</mgrwt>
</event>
<event>
 6      1 +5.6466785e-02 6.48910700e+02 7.81860800e-03 9.80882500e-02
        1 -1    0    0  502    0 +0.0000000000e+00 +0.0000000000e+00 +1.0527242963e+02 1.0527242963e+02 0.0000000000e+00 0.0000e+00 1.0000e+00
       13 -1    0    0    0    0 -0.0000000000e+00 -0.0000000000e+00 -1.0000000000e+03 1.0000000000e+03 0.0000000000e+00 0.0000e+00 1.0000e+00
  9000005  2    1    2  501    0 -2.4110599644e-03 +1.2022775741e-04 -8.9472709120e+02 1.1052699685e+03 6.4891072997e+02 0.0000e+00 0.0000e+00
       13  1    3    3    0    0 -3.6073588238e-01 -3.0597067051e+02 -6.3123035865e+02 7.0147697541e+02 0.0000000000e+00 0.0000e+00 1.0000e+00
        1  1    3    3  501    0 +3.5832482241e-01 +3.0597079074e+02 -2.6349673255e+02 4.0379299307e+02 0.0000000000e+00 0.0000e+00 1.0000e+00
       21  1    1    2  502  501 +2.4110599644e-03 -1.2022775741e-04 -4.7917047442e-04 2.4611520086e-03 0.0000000000e+00 0.0000e+00 -1.0000e+00
<mgrwt>
<rscale>  1 0.64891073E+03</rscale>
<asrwt>0</asrwt>
<pdfrwt beam="1">  1        1 0.38280964E+00 0.64891073E+03</pdfrwt>
<pdfrwt beam="2">0</pdfrwt>
<totfact> 0.15950804E+00</totfact>
</mgrwt>
</event>
<event>
 6      1 +5.6466785e-02 6.12441500e+02 7.81860800e-03 9.87992500e-02
        1 -1    0    0  502    0 +0.0000000000e+00 +0.0000000000e+00 +9.3771658903e+01 9.3771658903e+01 0.0000000000e+00 0.0000e+00 1.0000e+00
       13 -1    0    0    0    0 -0.0000000000e+00 -0.0000000000e+00 -1.0000000000e+03 1.0000000000e+03 0.0000000000e+00 0.0000e+00 1.0000e+00
  9000005  2    1    2  501    0 +2.3246896990e-04 +1.3020896331e-04 -9.0622882274e+02 1.0937711085e+03 6.1244147358e+02 0.0000e+00 0.0000e+00
       13  1    3    3    0    0 -2.8074619168e+02 -1.1585871191e+02 -5.2295700227e+02 6.0475258700e+02 0.0000000000e+00 0.0000e+00 1.0000e+00
        1  1    3    3  501    0 +2.8074642415e+02 +1.1585884212e+02 -3.8327182047e+02 4.8901852147e+02 0.0000000000e+00 0.0000e+00 1.0000e+00
       21  1    1    2  502  501 -2.3246896991e-04 -1.3020896330e-04 +4.8164210066e-04 5.5043192969e-04 0.0000000000e+00 0.0000e+00 -1.0000e+00
<mgrwt>
<rscale>  1 0.61244147E+03</rscale>
<asrwt>0</asrwt>
<pdfrwt beam="1">  1        1 0.34098857E+00 0.61244147E+03</pdfrwt>
<pdfrwt beam="2">0</pdfrwt>
<totfact> 0.24476770E+00</totfact>
</mgrwt>
</event>
<event>
 6      1 +5.6466785e-02 6.92055700e+02 7.81860800e-03 9.73091500e-02
        1 -1    0    0  502    0 +0.0000000000e+00 +0.0000000000e+00 +1.2010790251e+02 1.2010790251e+02 0.0000000000e+00 0.0000e+00 1.0000e+00
       13 -1    0    0    0    0 -0.0000000000e+00 -0.0000000000e+00 -1.0000000000e+03 1.0000000000e+03 0.0000000000e+00 0.0000e+00 1.0000e+00
  9000005  2    1    2  501    0 +2.0333578144e-01 -1.4824595177e-01 -8.8021648184e+02 1.1196973571e+03 6.9205567214e+02 0.0000e+00 0.0000e+00
       13  1    3    3    0    0 -2.9432683307e+02 -1.3172601435e+02 -6.4285626813e+02 7.1919691949e+02 0.0000000000e+00 0.0000e+00 1.0000e+00
        1  1    3    3  501    0 +2.9453016885e+02 +1.3157776839e+02 -2.3736021371e+02 4.0050043764e+02 0.0000000000e+00 0.0000e+00 1.0000e+00
       21  1    1    2  502  501 -2.0333578144e-01 +1.4824595177e-01 +3.2438435057e-01 4.1054538010e-01 0.0000000000e+00 0.0000e+00 -1.0000e+00
<mgrwt>
<rscale>  1 0.69205572E+03</rscale>
<asrwt>0</asrwt>
<pdfrwt beam="1">  1        1 0.43675693E+00 0.69205572E+03</pdfrwt>
<pdfrwt beam="2">0</pdfrwt>
<totfact> 0.90603494E-01</totfact>
</mgrwt>
</event>
<event>
 6      1 +5.6466785e-02 6.47792000e+02 7.81860800e-03 9.81093100e-02
        1 -1    0    0  502    0 +0.0000000000e+00 +0.0000000000e+00 +1.0490874873e+02 1.0490874873e+02 0.0000000000e+00 0.0000e+00 1.0000e+00
       13 -1    0    0    0    0 -0.0000000000e+00 -0.0000000000e+00 -1.0000000000e+03 1.0000000000e+03 0.0000000000e+00 0.0000e+00 1.0000e+00
  9000005  2    1    2  501    0 +6.9309536855e-05 +4.6699345489e-05 -8.9509136494e+02 1.1049086076e+03 6.4779200340e+02 0.0000e+00 0.0000e+00
       13  1    3    3    0    0 -3.0421018729e+02 -1.1088759725e+02 -4.6168264048e+02 5.6390669245e+02 0.0000000000e+00 0.0000e+00 1.0000e+00
        1  1    3    3  501    0 +3.0421025660e+02 +1.1088764395e+02 -4.3340872446e+02 5.4100191519e+02 0.0000000000e+00 0.0000e+00 1.0000e+00
       21  1    1    2  502  501 -6.9309536872e-05 -4.6699345493e-05 +1.1367063175e-04 1.4108739594e-04 0.0000000000e+00 0.0000e+00 -1.0000e+00
<mgrwt>
<rscale>  1 0.64779200E+03</rscale>
<asrwt>0</asrwt>
<pdfrwt beam="1">  1        1 0.38148716E+00 0.64779200E+03</pdfrwt>
<pdfrwt beam="2">0</pdfrwt>
<totfact> 0.16170123E+00</totfact>
</mgrwt>
</event>
<event>
 6      1 +5.6466785e-02 5.14928500e+02 7.81860800e-03 1.00995400e-01
        1 -1    0    0  502    0 +0.0000000000e+00 +0.0000000000e+00 +6.6288275913e+01 6.6288275913e+01 0.0000000000e+00 0.0000e+00 1.0000e+00
       13 -1    0    0    0    0 -0.0000000000e+00 -0.0000000000e+00 -1.0000000000e+03 1.0000000000e+03 0.0000000000e+00 0.0000e+00 1.0000e+00
  9000005  2    1    2  501    0 -3.6044867464e-06 -9.6760931854e-06 -9.3371215577e+02 1.0662878441e+03 5.1492851605e+02 0.0000e+00 0.0000e+00
       13  1    3    3    0    0 +2.6746520788e+01 +2.4705884764e+02 -6.0629595007e+02 6.5524669373e+02 0.0000000000e+00 0.0000e+00 1.0000e+00
        1  1    3    3  501    0 -2.6746524392e+01 -2.4705885731e+02 -3.2741620570e+02 4.1104115038e+02 0.0000000000e+00 0.0000e+00 1.0000e+00
       21  1    1    2  502  501 +3.6044867447e-06 +9.6760931830e-06 +4.3168645035e-04 4.3180992406e-04 0.0000000000e+00 0.0000e+00 -1.0000e+00
<mgrwt>
<rscale>  1 0.51492852E+03</rscale>
<asrwt>0</asrwt>
<pdfrwt beam="1">  1        1 0.24104878E+00 0.51492852E+03</pdfrwt>
<pdfrwt beam="2">0</pdfrwt>
<totfact> 0.67397022E+00</totfact>
</mgrwt>
</event>
<event>
 6      1 +5.6466785e-02 6.07816700e+02 7.81860800e-03 9.88932000e-02
        1 -1    0    0  502    0 +0.0000000000e+00 +0.0000000000e+00 +9.2397913205e+01 9.2397913205e+01 0.0000000000e+00 0.0000e+00 1.0000e+00
       13 -1    0    0    0    0 -0.0000000000e+00 -0.0000000000e+00 -1.0000000000e+03 1.0000000000e+03 0.0000000000e+00 0.0000e+00 1.0000e+00
  9000005  2    1    2  501    0 -1.2298253220e-03 +5.6752841675e-04 -9.0763971357e+02 1.0923602621e+03 6.0781666023e+02 0.0000e+00 0.0000e+00
       13  1    3    3    0    0 +1.9540652533e+02 -1.3614510994e+01 -3.6225662910e+01 1.9920181652e+02 0.0000000000e+00 0.0000e+00 1.0000e+00
        3  1    3    3  501    0 -1.9540775515e+02 +1.3615078523e+01 -8.7141405067e+02 8.9315844554e+02 0.0000000000e+00 0.0000e+00 1.0000e+00
       21  1    1    2  502  501 +1.2298253220e-03 -5.6752841675e-04 +3.7626779797e-02 3.7651150270e-02 0.0000000000e+00 0.0000e+00 1.0000e+00
<mgrwt>
<rscale>  1 0.60781666E+03</rscale>
<asrwt>0</asrwt>
<pdfrwt beam="1">  1        1 0.33599312E+00 0.60781666E+03</pdfrwt>
<pdfrwt beam="2">0</pdfrwt>
<totfact> 0.25751210E+00</totfact>
</mgrwt>
</event>
<event>
 6      1 +5.6466785e-02 6.62050100e+02 7.81860800e-03 9.78442700e-02
        1 -1    0    0  502    0 +0.0000000000e+00 +0.0000000000e+00 +1.0963716697e+02 1.0963716697e+02 0.0000000000e+00 0.0000e+00 1.0000e+00
       13 -1    0    0    0    0 -0.0000000000e+00 -0.0000000000e+00 -1.0000000000e+03 1.0000000000e+03 0.0000000000e+00 0.0000e+00 1.0000e+00
  9000005  2    1    2  501    0 +5.2784091315e-04 +1.3308061422e-02 -8.9042158734e+02 1.1095769220e+03 6.6205010575e+02 0.0000e+00 0.0000e+00
       13  1    3    3    0    0 +2.3525049561e+02 +5.8473670797e+00 -8.3539515756e+02 8.6790670965e+02 0.0000000000e+00 0.0000e+00 1.0000e+00
        1  1    3    3  501    0 -2.3524996777e+02 -5.8340590183e+00 -5.5026429785e+01 2.4167021238e+02 0.0000000000e+00 0.0000e+00 1.0000e+00
       21  1    1    2  502  501 -5.2784091314e-04 -1.3308061422e-02 +5.8754311613e-02 6.0244935454e-02 0.0000000000e+00 0.0000e+00 1.0000e+00
<mgrwt>
<rscale>  1 0.66205011E+03</rscale>
<asrwt>0</asrwt>
<pdfrwt beam="1">  1        1 0.39868145E+00 0.66205011E+03</pdfrwt>
<pdfrwt beam="2">0</pdfrwt>
<totfact> 0.13530207E+00</totfact>
</mgrwt>
</event>
<event>
 6      1 +5.6466785e-02 6.31572400e+02 7.81860800e-03 9.84198500e-02
        1 -1    0    0  502    0 +0.0000000000e+00 +0.0000000000e+00 +9.9721089558e+01 9.9721089558e+01 0.0000000000e+00 0.0000e+00 1.0000e+00
       13 -1    0    0    0    0 -0.0000000000e+00 -0.0000000000e+00 -1.0000000000e+03 1.0000000000e+03 0.0000000000e+00 0.0000e+00 1.0000e+00
  9000005  2    1    2  501    0 -4.1232347328e-04 -1.4814428060e-04 -9.0027861724e+02 1.0997205624e+03 6.3157242391e+02 0.0000e+00 0.0000e+00
       13  1    3    3    0    0 +3.6128748361e+01 -9.5621365631e+01 +7.0116938291e+01 1.2395610940e+02 0.0000000000e+00 0.0000e+00 1.0000e+00
        1  1    3    3  501    0 -3.6129160684e+01 +9.5621217487e+01 -9.7039555553e+02 9.7576445297e+02 0.0000000000e+00 0.0000e+00 1.0000e+00
       21  1    1    2  502  501 +4.1232347328e-04 +1.4814428060e-04 -2.9320642082e-04 5.2718818244e-04 0.0000000000e+00 0.0000e+00 -1.0000e+00
<mgrwt>
<rscale>  1 0.63157242E+03</rscale>
<asrwt>0</asrwt>
<pdfrwt beam="1">  1        1 0.36262291E+00 0.63157242E+03</pdfrwt>
<pdfrwt beam="2">0</pdfrwt>
<totfact> 0.19630397E+00</totfact>
</mgrwt>
</event>
<event>
 6      1 +5.6466785e-02 6.43718700e+02 7.81860800e-03 9.81863700e-02
        1 -1    0    0  502    0 +0.0000000000e+00 +0.0000000000e+00 +1.0569008979e+02 1.0569008979e+02 0.0000000000e+00 0.0000e+00 1.0000e+00
       13 -1    0    0    0    0 -0.0000000000e+00 -0.0000000000e+00 -1.0000000000e+03 1.0000000000e+03 0.0000000000e+00 0.0000e+00 1.0000e+00
  9000005  2    1    2  501    0 -6.1280861771e+00 +1.2777168934e+00 -8.8824142527e+02 1.0969715744e+03 6.4368829376e+02 0.0000e+00 0.0000e+00
       13  1    3    3    0    0 +4.4305375812e+01 +1.9404763284e+01 -9.8509379625e+02 9.8628053746e+02 0.0000000000e+00 0.0000e+00 1.0000e+00
        3  1    3    3  501    0 -5.0433461990e+01 -1.8127046391e+01 +9.6852370982e+01 1.1069103696e+02 0.0000000000e+00 0.0000e+00 1.0000e+00
       21  1    1    2  502  501 +6.1280861771e+00 -1.2777168934e+00 -6.0684849440e+00 8.7185153649e+00 0.0000000000e+00 0.0000e+00 -1.0000e+00
<mgrwt>
<rscale>  1 0.64371873E+03</rscale>
<asrwt>0</asrwt>
<pdfrwt beam="1">  1        1 0.38432841E+00 0.64371873E+03</pdfrwt>
<pdfrwt beam="2">0</pdfrwt>
<totfact> 0.15721275E+00</totfact>
</mgrwt>
</event>
<event>
 6      1 +5.6466785e-02 4.78138900e+02 7.81860800e-03 1.01964800e-01
        1 -1    0    0  502    0 +0.0000000000e+00 +0.0000000000e+00 +6.0988736496e+01 6.0988736496e+01 0.0000000000e+00 0.0000e+00 1.0000e+00
       13 -1    0    0    0    0 -0.0000000000e+00 -0.0000000000e+00 -1.0000000000e+03 1.0000000000e+03 0.0000000000e+00 0.0000e+00 1.0000e+00
  9000005  2    1    2  501    0 -5.0036557473e-02 +8.3315099801e-02 -9.4284514914e+02 1.0571536193e+03 4.7813888154e+02 0.0000e+00 0.0000e+00
       13  1    3    3    0    0 +4.0893462689e+01 +2.3152722987e+02 -5.6772337578e+02 6.1448105330e+02 0.0000000000e+00 0.0000e+00 1.0000e+00
        3  1    3    3  501    0 -4.0943499246e+01 -2.3144391477e+02 -3.7512177336e+02 4.4267256597e+02 0.0000000000e+00 0.0000e+00 1.0000e+00
       21  1    1    2  502  501 +5.0036557473e-02 -8.3315099801e-02 +3.8338856348e+00 3.8351172242e+00 0.0000000000e+00 0.0000e+00 1.0000e+00
<mgrwt>
<rscale>  1 0.47813889E+03</rscale>
<asrwt>0</asrwt>
<pdfrwt beam="1">  1        1 0.22177769E+00 0.47813889E+03</pdfrwt>
<pdfrwt beam="2">0</pdfrwt>
<totfact> 0.82416420E+00</totfact>
</mgrwt>
</event>
<event>
 6      1 +5.6466785e-02 6.55600100e+02 7.81860800e-03 9.79632700e-02
        1 -1    0    0  502    0 +0.0000000000e+00 +0.0000000000e+00 +1.0746145772e+02 1.0746145772e+02 0.0000000000e+00 0.0000e+00 1.0000e+00
       13 -1    0    0    0    0 -0.0000000000e+00 -0.0000000000e+00 -1.0000000000e+03 1.0000000000e+03 0.0000000000e+00 0.0000e+00 1.0000e+00
  9000005  2    1    2  501    0 -1.9564172705e-03 +4.8278236852e-04 -8.9254698606e+02 1.1074527768e+03 6.5560013009e+02 0.0000e+00 0.0000e+00
       13  1    3    3    0    0 -3.3712317841e+01 -2.4302896450e+02 -8.1347277594e+02 8.4966908568e+02 0.0000000000e+00 0.0000e+00 1.0000e+00
        1  1    3    3  501    0 +3.3710361423e+01 +2.4302944728e+02 -7.9074210113e+01 2.5778369114e+02 0.0000000000e+00 0.0000e+00 1.0000e+00
       21  1    1    2  502  501 +1.9564172705e-03 -4.8278236851e-04 +8.4437738227e-03 8.6808964814e-03 0.0000000000e+00 0.0000e+00 1.0000e+00
<mgrwt>
<rscale>  1 0.65560013E+03</rscale>
<asrwt>0</asrwt>
<pdfrwt beam="1">  1        1 0.39076976E+00 0.65560013E+03</pdfrwt>
<pdfrwt beam="2">0</pdfrwt>
<totfact> 0.14689361E+00</totfact>
</mgrwt>
</event>
<event>
 6      1 +5.6466785e-02 6.36352500e+02 7.81860800e-03 9.83273000e-02
        1 -1    0    0  502    0 +0.0000000000e+00 +0.0000000000e+00 +1.0125152792e+02 1.0125152792e+02 0.0000000000e+00 0.0000e+00 1.0000e+00
       13 -1    0    0    0    0 -0.0000000000e+00 -0.0000000000e+00 -1.0000000000e+03 1.0000000000e+03 0.0000000000e+00 0.0000e+00 1.0000e+00
  9000005  2    1    2  501    0 +5.7837084900e-03 +3.5468386870e-03 -8.9876305043e+02 1.1012354481e+03 6.3635248986e+02 0.0000e+00 0.0000e+00
       13  1    3    3    0    0 +1.2219841041e+02 -1.1653105029e+02 -9.1606599685e+02 9.3149817379e+02 0.0000000000e+00 0.0000e+00 1.0000e+00
        3  1    3    3  501    0 -1.2219262670e+02 +1.1653459713e+02 +1.7302946415e+01 1.6973727434e+02 0.0000000000e+00 0.0000e+00 1.0000e+00
       21  1    1    2  502  501 -5.7837084900e-03 -3.5468386871e-03 +1.4578352093e-02 1.6079791613e-02 0.0000000000e+00 0.0000e+00 -1.0000e+00
<mgrwt>
<rscale>  1 0.63635249E+03</rscale>
<asrwt>0</asrwt>
<pdfrwt beam="1">  1        1 0.36818815E+00 0.63635249E+03</pdfrwt>
<pdfrwt beam="2">0</pdfrwt>
<totfact> 0.18542115E+00</totfact>
</mgrwt>
</event>
<event>
 6      1 +5.6466785e-02 6.24564500e+02 7.81860800e-03 9.85571300e-02
        1 -1    0    0  502    0 +0.0000000000e+00 +0.0000000000e+00 +1.0883811912e+02 1.0883811912e+02 0.0000000000e+00 0.0000e+00 1.0000e+00
       13 -1    0    0    0    0 -0.0000000000e+00 -0.0000000000e+00 -1.0000000000e+03 1.0000000000e+03 0.0000000000e+00 0.0000e+00 1.0000e+00
  9000005  2    1    2  501    0 -2.7104884522e-01 +6.1282069281e-01 -9.0246889509e+02 1.0975112666e+03 6.2456418788e+02 0.0000e+00 0.0000e+00
       13  1    3    3    0    0 +1.4085898227e+01 +2.2225022200e+02 -6.6311768727e+01 2.3235925714e+02 0.0000000000e+00 0.0000e+00 1.0000e+00
        1  1    3    3  501    0 -1.4356947072e+01 -2.2163740130e+02 -8.3615712636e+02 8.6515200951e+02 0.0000000000e+00 0.0000e+00 1.0000e+00
       21  1    1    2  502  501 +2.7104884522e-01 -6.1282069281e-01 +1.1307014210e+01 1.1326852476e+01 0.0000000000e+00 0.0000e+00 1.0000e+00
<mgrwt>
<rscale>  1 0.62456455E+03</rscale>
<asrwt>0</asrwt>
<pdfrwt beam="1">  1        1 0.39577581E+00 0.62456455E+03</pdfrwt>
<pdfrwt beam="2">0</pdfrwt>
<totfact> 0.14039236E+00</totfact>
</mgrwt>
</event>
<event>
 6      1 +5.6466785e-02 6.40725800e+02 7.81860800e-03 9.82433900e-02
        1 -1    0    0  502    0 +0.0000000000e+00 +0.0000000000e+00 +1.0478070356e+02 1.0478070356e+02 0.0000000000e+00 0.0000e+00 1.0000e+00
       13 -1    0    0    0    0 -0.0000000000e+00 -0.0000000000e+00 -1.0000000000e+03 1.0000000000e+03 0.0000000000e+00 0.0000e+00 1.0000e+00
  9000005  2    1    2  501    0 -1.7795579043e-01 -1.6205805119e-01 -8.9736017381e+02 1.1026263389e+03 6.4072576334e+02 0.0000e+00 0.0000e+00
       13  1    3    3    0    0 -1.3130943822e+02 -1.2975004872e+02 +1.9531526061e+00 1.8461055905e+02 0.0000000000e+00 0.0000e+00 1.0000e+00
        1  1    3    3  501    0 +1.3113148243e+02 +1.2958799067e+02 -8.9931332642e+02 9.1801577987e+02 0.0000000000e+00 0.0000e+00 1.0000e+00
       21  1    1    2  502  501 +1.7795579043e-01 +1.6205805119e-01 +2.1408773759e+00 2.1543646428e+00 0.0000000000e+00 0.0000e+00 -1.0000e+00
<mgrwt>
<rscale>  1 0.64072581E+03</rscale>
<asrwt>0</asrwt>
<pdfrwt beam="1">  1        1 0.38102154E+00 0.64072581E+03</pdfrwt>
<pdfrwt beam="2">0</pdfrwt>
<totfact> 0.16268064E+00</totfact>
</mgrwt>
</event>
<event>
 6      1 +5.6466785e-02 6.34763300e+02 7.81860800e-03 9.83579700e-02
        1 -1    0    0  502    0 +0.0000000000e+00 +0.0000000000e+00 +1.0073263538e+02 1.0073263538e+02 0.0000000000e+00 0.0000e+00 1.0000e+00
       13 -1    0    0    0    0 -0.0000000000e+00 -0.0000000000e+00 -1.0000000000e+03 1.0000000000e+03 0.0000000000e+00 0.0000e+00 1.0000e+00
  9000005  2    1    2  501    0 +1.3148509441e-03 -4.0957899832e-04 -8.9926854309e+02 1.1007308228e+03 6.3476328795e+02 0.0000e+00 0.0000e+00
       13  1    3    3    0    0 -9.4125300630e+01 +7.8454382168e+01 +5.8058881657e+01 1.3559312681e+02 0.0000000000e+00 0.0000e+00 1.0000e+00
        1  1    3    3  501    0 +9.4126615481e+01 -7.8454791747e+01 -9.5732742474e+02 9.6513769601e+02 0.0000000000e+00 0.0000e+00 1.0000e+00
       21  1    1    2  502  501 -1.3148509441e-03 +4.0957899832e-04 +1.1784665771e-03 1.8125593603e-03 0.0000000000e+00 0.0000e+00 1.0000e+00
<mgrwt>
<rscale>  1 0.63476329E+03</rscale>
<asrwt>0</asrwt>
<pdfrwt beam="1">  1        1 0.36630126E+00 0.63476329E+03</pdfrwt>
<pdfrwt beam="2">0</pdfrwt>
<totfact> 0.18904344E+00</totfact>
</mgrwt>
</event>
<event>
 6      1 +5.6466785e-02 6.43913000e+02 7.81860800e-03 9.81826900e-02
        3 -1    0    0  502    0 +0.0000000000e+00 +0.0000000000e+00 +1.0365610003e+02 1.0365610003e+02 0.0000000000e+00 0.0000e+00 1.0000e+00
       13 -1    0    0    0    0 -0.0000000000e+00 -0.0000000000e+00 -1.0000000000e+03 1.0000000000e+03 0.0000000000e+00 0.0000e+00 1.0000e+00
  9000005  2    1    2  501    0 +1.1431819416e-05 +2.4087245130e-05 -8.9634402631e+02 1.1036559709e+03 6.4391295111e+02 0.0000e+00 0.0000e+00
       13  1    3    3    0    0 -2.9685885876e+02 +3.5499449666e+01 -2.4342040094e+02 3.8553713770e+02 0.0000000000e+00 0.0000e+00 1.0000e+00
        3  1    3    3  501    0 +2.9685887020e+02 -3.5499425578e+01 -6.5292362537e+02 7.1811883320e+02 0.0000000000e+00 0.0000e+00 1.0000e+00
       21  1    1    2  502  501 -1.1431819374e-05 -2.4087245132e-05 +1.2633944151e-04 1.2912217607e-04 0.0000000000e+00 0.0000e+00 -1.0000e+00
<mgrwt>
<rscale>  1 0.64391295E+03</rscale>
<asrwt>0</asrwt>
<pdfrwt beam="1">  1        3 0.37693207E+00 0.64391295E+03</pdfrwt>
<pdfrwt beam="2">0</pdfrwt>
<totfact> 0.78429160E-02</totfact>
</mgrwt>
</event>
<event>
 6      1 +5.6466785e-02 6.47382900e+02 7.81860800e-03 9.81170300e-02
        1 -1    0    0  502    0 +0.0000000000e+00 +0.0000000000e+00 +1.0510685195e+02 1.0510685195e+02 0.0000000000e+00 0.0000e+00 1.0000e+00
       13 -1    0    0    0    0 -0.0000000000e+00 -0.0000000000e+00 -1.0000000000e+03 1.0000000000e+03 0.0000000000e+00 0.0000e+00 1.0000e+00
  9000005  2    1    2  501    0 -6.3848190778e-01 -4.6695648130e-02 -8.9483910676e+02 1.1044643879e+03 6.4738253549e+02 0.0000e+00 0.0000e+00
       13  1    3    3    0    0 +2.1521579302e+02 +5.9512654053e+01 -8.4640798311e+02 8.7536624759e+02 0.0000000000e+00 0.0000e+00 1.0000e+00
        3  1    3    3  501    0 -2.1585427493e+02 -5.9559349701e+01 -4.8431123651e+01 2.2909814028e+02 0.0000000000e+00 0.0000e+00 1.0000e+00
       21  1    1    2  502  501 +6.3848190778e-01 +4.6695648130e-02 -5.4041288884e-02 6.4246407761e-01 0.0000000000e+00 0.0000e+00 -1.0000e+00
<mgrwt>
<rscale>  1 0.64738285E+03</rscale>
<asrwt>0</asrwt>
<pdfrwt beam="1">  1        1 0.38220754E+00 0.64738285E+03</pdfrwt>
<pdfrwt beam="2">0</pdfrwt>
<totfact> 0.16053315E+00</totfact>
</mgrwt>
</event>
<event>
 6      1 +5.6466785e-02 6.73721100e+02 7.81860800e-03 9.76325900e-02
        1 -1    0    0  502    0 +0.0000000000e+00 +0.0000000000e+00 +1.1347607647e+02 1.1347607647e+02 0.0000000000e+00 0.0000e+00 1.0000e+00
       13 -1    0    0    0    0 -0.0000000000e+00 -0.0000000000e+00 -1.0000000000e+03 1.0000000000e+03 0.0000000000e+00 0.0000e+00 1.0000e+00
  9000005  2    1    2  501    0 -7.0819346081e-04 -4.8169144580e-04 -8.8652476778e+02 1.1134748738e+03 6.7372110755e+02 0.0000e+00 0.0000e+00
       13  1    3    3    0    0 +3.3619642319e+02 -1.6945264978e+01 -4.2238091038e+02 5.4011184992e+02 0.0000000000e+00 0.0000e+00 1.0000e+00
        1  1    3    3  501    0 -3.3619713138e+02 +1.6944783286e+01 -4.6414385740e+02 5.7336302391e+02 0.0000000000e+00 0.0000e+00 1.0000e+00
       21  1    1    2  502  501 +7.0819346080e-04 +4.8169144580e-04 +8.4425324826e-04 1.2026338487e-03 0.0000000000e+00 0.0000e+00 -1.0000e+00
<mgrwt>
<rscale>  1 0.67372111E+03</rscale>
<asrwt>0</asrwt>
<pdfrwt beam="1">  1        1 0.41264115E+00 0.67372111E+03</pdfrwt>
<pdfrwt beam="2">0</pdfrwt>
<totfact> 0.11692083E+00</totfact>
</mgrwt>
</event>
<event>
 6      1 +5.6466785e-02 6.42176600e+02 7.81860800e-03 9.82157100e-02
        1 -1    0    0  502    0 +0.0000000000e+00 +0.0000000000e+00 +1.0310150703e+02 1.0310150703e+02 0.0000000000e+00 0.0000e+00 1.0000e+00
       13 -1    0    0    0    0 -0.0000000000e+00 -0.0000000000e+00 -1.0000000000e+03 1.0000000000e+03 0.0000000000e+00 0.0000e+00 1.0000e+00
  9000005  2    1    2  501    0 -9.4821425892e-04 +5.8260368554e-03 -8.9689963115e+02 1.1030954956e+03 6.4217655207e+02 0.0000e+00 0.0000e+00
       13  1    3    3    0    0 -2.1235782874e+01 -2.9182808409e+02 -6.7556173700e+02 7.3620530400e+02 0.0000000000e+00 0.0000e+00 1.0000e+00
        3  1    3    3  501    0 +2.1234834660e+01 +2.9183391013e+02 -2.2133789415e+02 3.6689019160e+02 0.0000000000e+00 0.0000e+00 1.0000e+00
       21  1    1    2  502  501 +9.4821425892e-04 -5.8260368554e-03 +1.1381849134e-03 6.0114291661e-03 0.0000000000e+00 0.0000e+00 1.0000e+00
<mgrwt>
<rscale>  1 0.64217655E+03</rscale>
<asrwt>0</asrwt>
<pdfrwt beam="1">  1        1 0.37491536E+00 0.64217655E+03</pdfrwt>
<pdfrwt beam="2">0</pdfrwt>
<totfact> 0.17303435E+00</totfact>
</mgrwt>
</event>
<event>
 6      1 +5.6466785e-02 6.42962000e+02 7.81860800e-03 9.82007600e-02
        1 -1    0    0  502    0 +0.0000000000e+00 +0.0000000000e+00 +1.0335882328e+02 1.0335882328e+02 0.0000000000e+00 0.0000e+00 1.0000e+00
       13 -1    0    0    0    0 -0.0000000000e+00 -0.0000000000e+00 -1.0000000000e+03 1.0000000000e+03 0.0000000000e+00 0.0000e+00 1.0000e+00
  9000005  2    1    2  501    0 -5.8733116325e-03 +7.1377497521e-04 -8.9664886774e+02 1.1033491198e+03 6.4296196479e+02 0.0000e+00 0.0000e+00
       13  1    3    3    0    0 -1.9246954236e+02 -1.1302951214e+02 -8.4536267466e+02 8.7433302984e+02 0.0000000000e+00 0.0000e+00 1.0000e+00
        1  1    3    3  501    0 +1.9246366905e+02 +1.1303022591e+02 -5.1286193077e+01 2.2901608999e+02 0.0000000000e+00 0.0000e+00 1.0000e+00
       21  1    1    2  502  501 +5.8733116325e-03 -7.1377497520e-04 +7.6910204247e-03 9.7034560555e-03 0.0000000000e+00 0.0000e+00 -1.0000e+00
<mgrwt>
<rscale>  1 0.64296196E+03</rscale>
<asrwt>0</asrwt>
<pdfrwt beam="1">  1        1 0.37585106E+00 0.64296196E+03</pdfrwt>
<pdfrwt beam="2">0</pdfrwt>
<totfact> 0.17137616E+00</totfact>
</mgrwt>
</event>
<event>
 6      1 +5.6466785e-02 6.41945500e+02 7.81860800e-03 9.82201100e-02
        1 -1    0    0  502    0 +0.0000000000e+00 +0.0000000000e+00 +1.0303047858e+02 1.0303047858e+02 0.0000000000e+00 0.0000e+00 1.0000e+00
       13 -1    0    0    0    0 -0.0000000000e+00 -0.0000000000e+00 -1.0000000000e+03 1.0000000000e+03 0.0000000000e+00 0.0000e+00 1.0000e+00
  9000005  2    1    2  501    0 +3.8505826518e-04 +5.1930572994e-05 -8.9697648186e+02 1.1030235073e+03 6.4194551845e+02 0.0000e+00 0.0000e+00
       13  1    3    3    0    0 +2.8998561820e+02 +1.3165710827e+02 -3.7979331220e+02 4.9564928419e+02 0.0000000000e+00 0.0000e+00 1.0000e+00
        1  1    3    3  501    0 -2.8998523315e+02 -1.3165705634e+02 -5.1718316966e+02 6.0737422312e+02 0.0000000000e+00 0.0000e+00 1.0000e+00
       21  1    1    2  502  501 -3.8505826520e-04 -5.1930572995e-05 +6.9604436696e-03 6.9712798488e-03 0.0000000000e+00 0.0000e+00 1.0000e+00
<mgrwt>
<rscale>  1 0.64194552E+03</rscale>
<asrwt>0</asrwt>
<pdfrwt beam="1">  1        1 0.37465708E+00 0.64194552E+03</pdfrwt>
<pdfrwt beam="2">0</pdfrwt>
<totfact> 0.17349522E+00</totfact>
</mgrwt>
</event>
<event>
 6      1 +5.6466785e-02 6.47961000e+02 7.81860800e-03 9.81061300e-02
        1 -1    0    0  502    0 +0.0000000000e+00 +0.0000000000e+00 +1.0497086881e+02 1.0497086881e+02 0.0000000000e+00 0.0000e+00 1.0000e+00
       13 -1    0    0    0    0 -0.0000000000e+00 -0.0000000000e+00 -1.0000000000e+03 1.0000000000e+03 0.0000000000e+00 0.0000e+00 1.0000e+00
  9000005  2    1    2  501    0 +2.6989013666e-03 +1.2291795646e-03 -8.9503630194e+02 1.1049631090e+03 6.4796102541e+02 0.0000e+00 0.0000e+00
       13  1    3    3    0    0 +1.3655708572e+02 +2.4385533875e+02 -7.2695233768e+02 7.7882794323e+02 0.0000000000e+00 0.0000e+00 1.0000e+00
        3  1    3    3  501    0 -1.3655438682e+02 -2.4385410957e+02 -1.6808396426e+02 3.2613516577e+02 0.0000000000e+00 0.0000e+00 1.0000e+00
       21  1    1    2  502  501 -2.6989013666e-03 -1.2291795646e-03 +7.1707547764e-03 7.7598115346e-03 0.0000000000e+00 0.0000e+00 -1.0000e+00
<mgrwt>
<rscale>  1 0.64796103E+03</rscale>
<asrwt>0</asrwt>
<pdfrwt beam="1">  1        1 0.38171306E+00 0.64796103E+03</pdfrwt>
<pdfrwt beam="2">0</pdfrwt>
<totfact> 0.16132525E+00</totfact>
</mgrwt>
</event>
<event>
 6      1 +5.6466785e-02 6.43546100e+02 7.81860800e-03 9.81896500e-02
        1 -1    0    0  502    0 +0.0000000000e+00 +0.0000000000e+00 +1.0355055395e+02 1.0355055395e+02 0.0000000000e+00 0.0000e+00 1.0000e+00
       13 -1    0    0    0    0 -0.0000000000e+00 -0.0000000000e+00 -1.0000000000e+03 1.0000000000e+03 0.0000000000e+00 0.0000e+00 1.0000e+00
  9000005  2    1    2  501    0 +1.1321688284e-02 -1.9771743327e-02 -8.9644965807e+02 1.1035277691e+03 6.4354607239e+02 0.0000e+00 0.0000e+00
       13  1    3    3    0    0 +9.6211435540e+01 -1.3930342168e+02 +2.0996575680e+01 1.7059583761e+02 0.0000000000e+00 0.0000e+00 1.0000e+00
        1  1    3    3  501    0 -9.6200113852e+01 +1.3928364994e+02 -9.1744623375e+02 9.3293193153e+02 0.0000000000e+00 0.0000e+00 1.0000e+00
       21  1    1    2  502  501 -1.1321688284e-02 +1.9771743327e-02 +2.1201173111e-04 2.2784806534e-02 0.0000000000e+00 0.0000e+00 -1.0000e+00
<mgrwt>
<rscale>  1 0.64354607E+03</rscale>
<asrwt>0</asrwt>
<pdfrwt beam="1">  1        1 0.37654826E+00 0.64354607E+03</pdfrwt>
<pdfrwt beam="2">0</pdfrwt>
<totfact> 0.17015053E+00</totfact>
</mgrwt>
</event>
<event>
 6      1 +5.6466785e-02 6.67142900e+02 7.81860800e-03 9.77513300e-02
        1 -1    0    0  502    0 +0.0000000000e+00 +0.0000000000e+00 +1.1278967074e+02 1.1278967074e+02 0.0000000000e+00 0.0000e+00 1.0000e+00
       13 -1    0    0    0    0 -0.0000000000e+00 -0.0000000000e+00 -1.0000000000e+03 1.0000000000e+03 0.0000000000e+00 0.0000e+00 1.0000e+00
  9000005  2    1    2  501    0 +2.9541741452e-02 +2.4954437462e-02 -8.8872982558e+02 1.1112696824e+03 6.6714286528e+02 0.0000e+00 0.0000e+00
       13  1    3    3    0    0 +4.4433530912e+01 -1.6902375585e+02 +2.8902145142e+01 1.7714034748e+02 0.0000000000e+00 0.0000e+00 1.0000e+00
        3  1    3    3  501    0 -4.4403989171e+01 +1.6904871029e+02 -9.1763197072e+02 9.3412933494e+02 0.0000000000e+00 0.0000e+00 1.0000e+00
       21  1    1    2  502  501 -2.9541741452e-02 -2.4954437462e-02 +1.5194963195e+00 1.5199883235e+00 0.0000000000e+00 0.0000e+00 -1.0000e+00
<mgrwt>
<rscale>  1 0.66714287E+03</rscale>
<asrwt>0</asrwt>
<pdfrwt beam="1">  1        1 0.41014512E+00 0.66714287E+03</pdfrwt>
<pdfrwt beam="2">0</pdfrwt>
<totfact> 0.12012645E+00</totfact>
</mgrwt>
</event>
<event>
 6      1 +5.6466785e-02 6.28447600e+02 7.81860800e-03 9.84808300e-02
        1 -1    0    0  502    0 +0.0000000000e+00 +0.0000000000e+00 +9.8839734996e+01 9.8839734996e+01 0.0000000000e+00 0.0000e+00 1.0000e+00
       13 -1    0    0    0    0 -0.0000000000e+00 -0.0000000000e+00 -1.0000000000e+03 1.0000000000e+03 0.0000000000e+00 0.0000e+00 1.0000e+00
  9000005  2    1    2  501    0 +1.8314837143e-01 +2.7205547910e-01 -9.0070955278e+02 1.0982823312e+03 6.2844751010e+02 0.0000e+00 0.0000e+00
       13  1    3    3    0    0 +2.5510082341e+02 -1.5401484536e+02 -6.2463994273e+02 6.9207807417e+02 0.0000000000e+00 0.0000e+00 1.0000e+00
        3  1    3    3  501    0 -2.5491767504e+02 +1.5428690083e+02 -2.7606961005e+02 4.0620425700e+02 0.0000000000e+00 0.0000e+00 1.0000e+00
       21  1    1    2  502  501 -1.8314837143e-01 -2.7205547910e-01 -4.5071222384e-01 5.5740381985e-01 0.0000000000e+00 0.0000e+00 -1.0000e+00
<mgrwt>
<rscale>  1 0.62844760E+03</rscale>
<asrwt>0</asrwt>
<pdfrwt beam="1">  1        1 0.35941798E+00 0.62844760E+03</pdfrwt>
<pdfrwt beam="2">0</pdfrwt>
<totfact> 0.20286004E+00</totfact>
</mgrwt>
</event>
<event>
 6      1 +5.6466785e-02 6.17908100e+02 7.81860800e-03 9.86893400e-02
        1 -1    0    0  502    0 +0.0000000000e+00 +0.0000000000e+00 +9.5455216499e+01 9.5455216499e+01 0.0000000000e+00 0.0000e+00 1.0000e+00
       13 -1    0    0    0    0 -0.0000000000e+00 -0.0000000000e+00 -1.0000000000e+03 1.0000000000e+03 0.0000000000e+00 0.0000e+00 1.0000e+00
  9000005  2    1    2  501    0 -3.2523770366e-03 -1.4392995980e-03 -9.0454600558e+02 1.0954514558e+03 6.1790809653e+02 0.0000e+00 0.0000e+00
       13  1    3    3    0    0 +1.0157618962e+02 -1.4990565454e+02 -8.9606022211e+02 9.1417358811e+02 0.0000000000e+00 0.0000e+00 1.0000e+00
        1  1    3    3  501    0 -1.0157944200e+02 +1.4990421524e+02 -8.4857834674e+00 1.8127786767e+02 0.0000000000e+00 0.0000e+00 1.0000e+00
       21  1    1    2  502  501 +3.2523770366e-03 +1.4392995980e-03 +1.2220749870e-03 3.7607189465e-03 0.0000000000e+00 0.0000e+00 -1.0000e+00
<mgrwt>
<rscale>  1 0.61790810E+03</rscale>
<asrwt>0</asrwt>
<pdfrwt beam="1">  1        1 0.34711061E+00 0.61790810E+03</pdfrwt>
<pdfrwt beam="2">0</pdfrwt>
<totfact> 0.22998975E+00</totfact>
</mgrwt>
</event>
<event>
 6      1 +5.6466785e-02 6.75670700e+02 7.81860800e-03 9.75976800e-02
        1 -1    0    0  502    0 +0.0000000000e+00 +0.0000000000e+00 +1.1419334385e+02 1.1419334385e+02 0.0000000000e+00 0.0000e+00 1.0000e+00
       13 -1    0    0    0    0 -0.0000000000e+00 -0.0000000000e+00 -1.0000000000e+03 1.0000000000e+03 0.0000000000e+00 0.0000e+00 1.0000e+00
  9000005  2    1    2  501    0 +6.6668538352e-06 +1.0999697652e-03 -8.8586725935e+02 1.1141327307e+03 6.7567073370e+02 0.0000e+00 0.0000e+00
       13  1    3    3    0    0 +3.0195954472e+02 +1.4323335403e+02 -5.2434383399e+02 6.2179724718e+02 0.0000000000e+00 0.0000e+00 1.0000e+00
        1  1    3    3  501    0 -3.0195953806e+02 -1.4323225406e+02 -3.6152342535e+02 4.9233548349e+02 0.0000000000e+00 0.0000e+00 1.0000e+00
       21  1    1    2  502  501 -6.6668538372e-06 -1.0999697652e-03 +6.0603198339e-02 6.0613180306e-02 0.0000000000e+00 0.0000e+00 -1.0000e+00
<mgrwt>
<rscale>  1 0.67567073E+03</rscale>
<asrwt>0</asrwt>
<pdfrwt beam="1">  1        1 0.41524940E+00 0.67567073E+03</pdfrwt>
<pdfrwt beam="2">0</pdfrwt>
<totfact> 0.11376330E+00</totfact>
</mgrwt>
</event>
<event>
 6      1 +5.6466785e-02 6.54488000e+02 7.81860800e-03 9.79839400e-02
        1 -1    0    0  502    0 +0.0000000000e+00 +0.0000000000e+00 +1.0708915507e+02 1.0708915507e+02 0.0000000000e+00 0.0000e+00 1.0000e+00
       13 -1    0    0    0    0 -0.0000000000e+00 -0.0000000000e+00 -1.0000000000e+03 1.0000000000e+03 0.0000000000e+00 0.0000e+00 1.0000e+00
  9000005  2    1    2  501    0 +1.0724657092e-04 +1.3139890857e-04 -8.9291135328e+02 1.1070886192e+03 6.5448798758e+02 0.0000e+00 0.0000e+00
       13  1    3    3    0    0 +5.6436161723e+01 -6.3741163667e+01 -9.8093930682e+02 9.8462678207e+02 0.0000000000e+00 0.0000e+00 1.0000e+00
        1  1    3    3  501    0 -5.6436054476e+01 +6.3741295066e+01 +8.8027953545e+01 1.2246183710e+02 0.0000000000e+00 0.0000e+00 1.0000e+00
       21  1    1    2  502  501 -1.0724657092e-04 -1.3139890857e-04 +5.0835047650e-04 5.3589897099e-04 0.0000000000e+00 0.0000e+00 1.0000e+00
<mgrwt>
<rscale>  1 0.65448799E+03</rscale>
<asrwt>0</asrwt>
<pdfrwt beam="1">  1        1 0.38941593E+00 0.65448799E+03</pdfrwt>
<pdfrwt beam="2">0</pdfrwt>
<totfact> 0.14896928E+00</totfact>
</mgrwt>
</event>
<event>
 6      1 +5.6466785e-02 6.56177200e+02 7.81860800e-03 9.79525700e-02
        1 -1    0    0  502    0 +0.0000000000e+00 +0.0000000000e+00 +1.0814520743e+02 1.0814520743e+02 0.0000000000e+00 0.0000e+00 1.0000e+00
       13 -1    0    0    0    0 -0.0000000000e+00 -0.0000000000e+00 -1.0000000000e+03 1.0000000000e+03 0.0000000000e+00 0.0000e+00 1.0000e+00
  9000005  2    1    2  501    0 +1.2158517397e-02 +1.5315180949e-02 -8.9235764608e+02 1.1076419738e+03 6.5617724231e+02 0.0000e+00 0.0000e+00
       13  1    3    3    0    0 -1.0461266764e+02 +2.1383543959e+02 -6.5068227040e+01 2.4678589836e+02 0.0000000000e+00 0.0000e+00 1.0000e+00
        3  1    3    3  501    0 +1.0462482616e+02 -2.1382012441e+02 -8.2728941904e+02 8.6085607549e+02 0.0000000000e+00 0.0000e+00 1.0000e+00
       21  1    1    2  502  501 -1.2158517398e-02 -1.5315180949e-02 +5.0285350934e-01 5.0323358012e-01 0.0000000000e+00 0.0000e+00 1.0000e+00
<mgrwt>
<rscale>  1 0.65617724E+03</rscale>
<asrwt>0</asrwt>
<pdfrwt beam="1">  1        1 0.39325613E+00 0.65617724E+03</pdfrwt>
<pdfrwt beam="2">0</pdfrwt>
<totfact> 0.14319179E+00</totfact>
</mgrwt>
</event>
<event>
 6      1 +5.6466785e-02 6.44902400e+02 7.81860800e-03 9.81639200e-02
        1 -1    0    0  502    0 +0.0000000000e+00 +0.0000000000e+00 +1.0397477593e+02 1.0397477593e+02 0.0000000000e+00 0.0000e+00 1.0000e+00
       13 -1    0    0    0    0 -0.0000000000e+00 -0.0000000000e+00 -1.0000000000e+03 1.0000000000e+03 0.0000000000e+00 0.0000e+00 1.0000e+00
  9000005  2    1    2  501    0 +9.9658039687e-07 +4.8758054589e-06 -8.9602522285e+02 1.1039747708e+03 6.4490239152e+02 0.0000e+00 0.0000e+00
       13  1    3    3    0    0 +3.0553380924e+01 +4.4265739566e+01 +9.6241431359e+01 1.1025143035e+02 0.0000000000e+00 0.0000e+00 1.0000e+00
        3  1    3    3  501    0 -3.0553379927e+01 -4.4265734690e+01 -9.9226665421e+02 9.9372334045e+02 0.0000000000e+00 0.0000e+00 1.0000e+00
       21  1    1    2  502  501 -9.9658039860e-07 -4.8758054606e-06 -1.2172276904e-06 5.1233089532e-06 0.0000000000e+00 0.0000e+00 1.0000e+00
<mgrwt>
<rscale>  1 0.64490239E+03</rscale>
<asrwt>0</asrwt>
<pdfrwt beam="1">  1        1 0.37809089E+00 0.64490239E+03</pdfrwt>
<pdfrwt beam="2">0</pdfrwt>
<totfact> 0.16746638E+00</totfact>
</mgrwt>
</event>
<event>
 6      1 +5.6466785e-02 6.32951400e+02 7.81860800e-03 9.83930600e-02
        1 -1    0    0  502    0 +0.0000000000e+00 +0.0000000000e+00 +1.0015688636e+02 1.0015688636e+02 0.0000000000e+00 0.0000e+00 1.0000e+00
       13 -1    0    0    0    0 -0.0000000000e+00 -0.0000000000e+00 -1.0000000000e+03 1.0000000000e+03 0.0000000000e+00 0.0000e+00 1.0000e+00
  9000005  2    1    2  501    0 +1.8744968884e-06 +6.7125381520e-07 -8.9984311868e+02 1.1001568809e+03 6.3295143924e+02 0.0000e+00 0.0000e+00
       13  1    3    3    0    0 +2.4853160044e+02 -1.9327099240e+02 -3.9399648987e+02 5.0433606548e+02 0.0000000000e+00 0.0000e+00 1.0000e+00
        1  1    3    3  501    0 -2.4853159857e+02 +1.9327099307e+02 -5.0584662881e+02 5.9582081546e+02 0.0000000000e+00 0.0000e+00 1.0000e+00
       21  1    1    2  502  501 -1.8744969056e-06 -6.7125378927e-07 +5.0463207560e-06 5.4249123008e-06 0.0000000000e+00 0.0000e+00 -1.0000e+00
<mgrwt>
<rscale>  1 0.63295144E+03</rscale>
<asrwt>0</asrwt>
<pdfrwt beam="1">  1        1 0.36420763E+00 0.63295144E+03</pdfrwt>
<pdfrwt beam="2">0</pdfrwt>
<totfact> 0.19314363E+00</totfact>
</mgrwt>
</event>
<event>
 6      1 +5.6466785e-02 6.43625400e+02 7.81860800e-03 9.81881500e-02
        1 -1    0    0  502    0 +0.0000000000e+00 +0.0000000000e+00 +1.0356341386e+02 1.0356341386e+02 0.0000000000e+00 0.0000e+00 1.0000e+00
       13 -1    0    0    0    0 -0.0000000000e+00 -0.0000000000e+00 -1.0000000000e+03 1.0000000000e+03 0.0000000000e+00 0.0000e+00 1.0000e+00
  9000005  2    1    2  501    0 -1.4466111743e-05 -1.3343132537e-06 -8.9643657506e+02 1.1035633956e+03 6.4362538404e+02 0.0000e+00 0.0000e+00
       13  1    3    3    0    0 +4.3742110292e+01 -1.5332727297e+02 +3.1076829309e+01 1.6244504969e+02 0.0000000000e+00 0.0000e+00 1.0000e+00
        3  1    3    3  501    0 -4.3742124758e+01 +1.5332727163e+02 -9.2751340437e+02 9.4111834590e+02 0.0000000000e+00 0.0000e+00 1.0000e+00
       21  1    1    2  502  501 +1.4466111748e-05 +1.3343132430e-06 -1.1081329762e-05 1.8271416208e-05 0.0000000000e+00 0.0000e+00 -1.0000e+00
<mgrwt>
<rscale>  1 0.64362538E+03</rscale>
<asrwt>0</asrwt>
<pdfrwt beam="1">  1        1 0.37659503E+00 0.64362538E+03</pdfrwt>
<pdfrwt beam="2">0</pdfrwt>
<totfact> 0.17006737E+00</totfact>
</mgrwt>
</event>
<event>
 6      1 +5.6466785e-02 6.48653300e+02 7.81860800e-03 9.80930900e-02
        1 -1    0    0  502    0 +0.0000000000e+00 +0.0000000000e+00 +1.0539692880e+02 1.0539692880e+02 0.0000000000e+00 0.0000e+00 1.0000e+00
       13 -1    0    0    0    0 -0.0000000000e+00 -0.0000000000e+00 -1.0000000000e+03 1.0000000000e+03 0.0000000000e+00 0.0000e+00 1.0000e+00
  9000005  2    1    2  501    0 +4.0963545097e-03 +1.2291532885e-02 -8.9481199526e+02 1.1051876034e+03 6.4865332164e+02 0.0000e+00 0.0000e+00
       13  1    3    3    0    0 +1.3430327630e+02 +2.8950308640e+02 -5.4591968543e+02 6.3235884591e+02 0.0000000000e+00 0.0000e+00 1.0000e+00
        1  1    3    3  501    0 -1.3429917995e+02 -2.8949079487e+02 -3.4889230983e+02 4.7282875748e+02 0.0000000000e+00 0.0000e+00 1.0000e+00
       21  1    1    2  502  501 -4.0963545097e-03 -1.2291532885e-02 +2.0892406303e-01 2.0932540699e-01 0.0000000000e+00 0.0000e+00 -1.0000e+00
<mgrwt>
<rscale>  1 0.64865332E+03</rscale>
<asrwt>0</asrwt>
<pdfrwt beam="1">  1        1 0.38326237E+00 0.64865332E+03</pdfrwt>
<pdfrwt beam="2">0</pdfrwt>
<totfact> 0.15878251E+00</totfact>
</mgrwt>
</event>
<event>
 6      1 +5.6466785e-02 6.44078800e+02 7.81860800e-03 9.81795400e-02
        1 -1    0    0  502    0 +0.0000000000e+00 +0.0000000000e+00 +1.0483589972e+02 1.0483589972e+02 0.0000000000e+00 0.0000e+00 1.0000e+00
       13 -1    0    0    0    0 -0.0000000000e+00 -0.0000000000e+00 -1.0000000000e+03 1.0000000000e+03 0.0000000000e+00 0.0000e+00 1.0000e+00
  9000005  2    1    2  501    0 +2.8687975836e-01 +1.9662656375e-01 -8.9626093959e+02 1.1036852397e+03 6.4407865634e+02 0.0000e+00 0.0000e+00
       13  1    3    3    0    0 +1.7985155249e+02 +2.3077978668e+02 -2.1716170658e+02 3.6436945217e+02 0.0000000000e+00 0.0000e+00 1.0000e+00
        3  1    3    3  501    0 -1.7956467273e+02 -2.3058316011e+02 -6.7909923301e+02 7.3931578753e+02 0.0000000000e+00 0.0000e+00 1.0000e+00
       21  1    1    2  502  501 -2.8687975836e-01 -1.9662656375e-01 +1.0968393109e+00 1.1506600173e+00 0.0000000000e+00 0.0000e+00 1.0000e+00
<mgrwt>
<rscale>  1 0.64407875E+03</rscale>
<asrwt>0</asrwt>
<pdfrwt beam="1">  1        1 0.38122226E+00 0.64407875E+03</pdfrwt>
<pdfrwt beam="2">0</pdfrwt>
<totfact> 0.16224833E+00</totfact>
</mgrwt>
</event>
<event>
 6      1 +5.6466785e-02 5.16432100e+02 7.81860800e-03 1.00957700e-01
        1 -1    0    0  502    0 +0.0000000000e+00 +0.0000000000e+00 +6.8280252364e+01 6.8280252364e+01 0.0000000000e+00 0.0000e+00 1.0000e+00
       13 -1    0    0    0    0 -0.0000000000e+00 -0.0000000000e+00 -1.0000000000e+03 1.0000000000e+03 0.0000000000e+00 0.0000e+00 1.0000e+00
  9000005  2    1    2  501    0 -1.2603364941e-01 +1.2102718312e-01 -9.3331940363e+02 1.0666710813e+03 5.1643204399e+02 0.0000e+00 0.0000e+00
       13  1    3    3    0    0 -1.3455327257e+02 -3.7452180246e+01 -1.8061647352e+01 1.4083136039e+02 0.0000000000e+00 0.0000e+00 1.0000e+00
        1  1    3    3  501    0 +1.3442723892e+02 +3.7573207429e+01 -9.1525775628e+02 9.2583972096e+02 0.0000000000e+00 0.0000e+00 1.0000e+00
       21  1    1    2  502  501 +1.2603364941e-01 -1.2102718312e-01 +1.5996559932e+00 1.6091710153e+00 0.0000000000e+00 0.0000e+00 -1.0000e+00
<mgrwt>
<rscale>  1 0.51643207E+03</rscale>
<asrwt>0</asrwt>
<pdfrwt beam="1">  1        1 0.24829235E+00 0.51643207E+03</pdfrwt>
<pdfrwt beam="2">0</pdfrwt>
<totfact> 0.62650838E+00</totfact>
</mgrwt>
</event>
<event>
 6      1 +5.6466785e-02 6.55830800e+02 7.81860800e-03 9.79589900e-02
        1 -1    0    0  502    0 +0.0000000000e+00 +0.0000000000e+00 +1.1036171989e+02 1.1036171989e+02 0.0000000000e+00 0.0000e+00 1.0000e+00
       13 -1    0    0    0    0 -0.0000000000e+00 -0.0000000000e+00 -1.0000000000e+03 1.0000000000e+03 0.0000000000e+00 0.0000e+00 1.0000e+00
  9000005  2    1    2  501    0 +2.7641439152e-02 -2.3795254182e-01 -8.9246588440e+02 1.1075239864e+03 6.5583074661e+02 0.0000e+00 0.0000e+00
       13  1    3    3    0    0 +2.3574812977e+01 -3.2173602912e+02 -3.4597575731e+02 4.7304235423e+02 0.0000000000e+00 0.0000e+00 1.0000e+00
        3  1    3    3  501    0 -2.3547171538e+01 +3.2149807658e+02 -5.4649012709e+02 6.3448163215e+02 0.0000000000e+00 0.0000e+00 1.0000e+00
       21  1    1    2  502  501 -2.7641439152e-02 +2.3795254182e-01 +2.8276042922e+00 2.8377335137e+00 0.0000000000e+00 0.0000e+00 -1.0000e+00
<mgrwt>
<rscale>  1 0.65583079E+03</rscale>
<asrwt>0</asrwt>
<pdfrwt beam="1">  1        1 0.40131619E+00 0.65583079E+03</pdfrwt>
<pdfrwt beam="2">0</pdfrwt>
<totfact> 0.13184537E+00</totfact>
</mgrwt>
</event>
<event>
 6      1 +5.6466785e-02 6.43948100e+02 7.81860800e-03 9.81820200e-02
        1 -1    0    0  502    0 +0.0000000000e+00 +0.0000000000e+00 +1.0366731104e+02 1.0366731104e+02 0.0000000000e+00 0.0000e+00 1.0000e+00
       13 -1    0    0    0    0 -0.0000000000e+00 -0.0000000000e+00 -1.0000000000e+03 1.0000000000e+03 0.0000000000e+00 0.0000e+00 1.0000e+00
  9000005  2    1    2  501    0 -1.2264598581e-06 -1.2724900103e-05 -8.9633271917e+02 1.1036672782e+03 6.4394807057e+02 0.0000e+00 0.0000e+00
       13  1    3    3    0    0 -2.1731519055e+02 -1.4263049933e+02 -7.7379940898e+02 8.1629337663e+02 0.0000000000e+00 0.0000e+00 1.0000e+00
        1  1    3    3  501    0 +2.1731518932e+02 +1.4263048661e+02 -1.2253331019e+02 2.8737390161e+02 0.0000000000e+00 0.0000e+00 1.0000e+00
       21  1    1    2  502  501 +1.2264598662e-06 +1.2724900097e-05 +3.0211082556e-05 3.2804524009e-05 0.0000000000e+00 0.0000e+00 1.0000e+00
<mgrwt>
<rscale>  1 0.64394807E+03</rscale>
<asrwt>0</asrwt>
<pdfrwt beam="1">  1        1 0.37697284E+00 0.64394807E+03</pdfrwt>
<pdfrwt beam="2">0</pdfrwt>
<totfact> 0.16940683E+00</totfact>
</mgrwt>
</event>
<event>
 6      1 +5.6466785e-02 6.56532200e+02 7.81860800e-03 9.79459900e-02
        1 -1    0    0  502    0 +0.0000000000e+00 +0.0000000000e+00 +1.0775941123e+02 1.0775941123e+02 0.0000000000e+00 0.0000e+00 1.0000e+00
       13 -1    0    0    0    0 -0.0000000000e+00 -0.0000000000e+00 -1.0000000000e+03 1.0000000000e+03 0.0000000000e+00 0.0000e+00 1.0000e+00
  9000005  2    1    2  501    0 -5.8949278866e-05 -1.0908930095e-04 -8.9224137137e+02 1.1077586189e+03 6.5653217202e+02 0.0000e+00 0.0000e+00
       13  1    3    3    0    0 +3.0863041051e+02 -3.5410121726e+01 -6.2510045792e+02 6.9803810033e+02 0.0000000000e+00 0.0000e+00 1.0000e+00
        3  1    3    3  501    0 -3.0863046946e+02 +3.5410012636e+01 -2.6714091345e+02 4.0972051854e+02 0.0000000000e+00 0.0000e+00 1.0000e+00
       21  1    1    2  502  501 +5.8949278849e-05 +1.0908930095e-04 +7.8260131301e-04 7.9236374740e-04 0.0000000000e+00 0.0000e+00 1.0000e+00
<mgrwt>
<rscale>  1 0.65653217E+03</rscale>
<asrwt>0</asrwt>
<pdfrwt beam="1">  1        1 0.39185323E+00 0.65653217E+03</pdfrwt>
<pdfrwt beam="2">0</pdfrwt>
<totfact> 0.14525110E+00</totfact>
</mgrwt>
</event>
<event>
 6      1 +5.6466785e-02 6.59248300e+02 7.81860800e-03 9.78957900e-02
        1 -1    0    0  502    0 +0.0000000000e+00 +0.0000000000e+00 +1.0865214657e+02 1.0865214657e+02 0.0000000000e+00 0.0000e+00 1.0000e+00
       13 -1    0    0    0    0 -0.0000000000e+00 -0.0000000000e+00 -1.0000000000e+03 1.0000000000e+03 0.0000000000e+00 0.0000e+00 1.0000e+00
  9000005  2    1    2  501    0 +3.0776698168e-07 +8.4955011630e-06 -8.9134791814e+02 1.1086520813e+03 6.5924830392e+02 0.0000e+00 0.0000e+00
       13  1    3    3    0    0 -2.6910781026e+02 -1.8957524594e+02 -4.1682462012e+02 5.3113138803e+02 0.0000000000e+00 0.0000e+00 1.0000e+00
        1  1    3    3  501    0 +2.6910781057e+02 +1.8957525444e+02 -4.7452329802e+02 5.7752069328e+02 0.0000000000e+00 0.0000e+00 1.0000e+00
       21  1    1    2  502  501 -3.0776693525e-07 -8.4955011769e-06 +6.4705420020e-05 6.5261471334e-05 0.0000000000e+00 0.0000e+00 1.0000e+00
<mgrwt>
<rscale>  1 0.65924830E+03</rscale>
<asrwt>0</asrwt>
<pdfrwt beam="1">  1        1 0.39509955E+00 0.65924830E+03</pdfrwt>
<pdfrwt beam="2">0</pdfrwt>
<totfact> 0.14043530E+00</totfact>
</mgrwt>
</event>
<event>
 6      1 +5.6466785e-02 6.46272600e+02 7.81860800e-03 9.81379900e-02
        1 -1    0    0  502    0 +0.0000000000e+00 +0.0000000000e+00 +1.0441779564e+02 1.0441779564e+02 0.0000000000e+00 0.0000e+00 1.0000e+00
       13 -1    0    0    0    0 -0.0000000000e+00 -0.0000000000e+00 -1.0000000000e+03 1.0000000000e+03 0.0000000000e+00 0.0000e+00 1.0000e+00
  9000005  2    1    2  501    0 +1.7448117981e-04 -1.1020242002e-04 -8.9558293139e+02 1.1044170399e+03 6.4627255164e+02 0.0000e+00 0.0000e+00
       13  1    3    3    0    0 -2.2392301176e+02 +1.3692916363e+02 -1.2569199394e+02 2.9101475631e+02 0.0000000000e+00 0.0000e+00 1.0000e+00
        3  1    3    3  501    0 +2.2392318624e+02 -1.3692927384e+02 -7.6989093745e+02 8.1340228358e+02 0.0000000000e+00 0.0000e+00 1.0000e+00
       21  1    1    2  502  501 -1.7448117981e-04 +1.1020242002e-04 +7.2702793272e-04 7.5574987294e-04 0.0000000000e+00 0.0000e+00 -1.0000e+00
<mgrwt>
<rscale>  1 0.64627255E+03</rscale>
<asrwt>0</asrwt>
<pdfrwt beam="1">  1        1 0.37970188E+00 0.64627255E+03</pdfrwt>
<pdfrwt beam="2">0</pdfrwt>
<totfact> 0.16470778E+00</totfact>
</mgrwt>
</event>
<event>
 6      1 +5.6466785e-02 6.46322300e+02 7.81860800e-03 9.81370500e-02
        1 -1    0    0  502    0 +0.0000000000e+00 +0.0000000000e+00 +1.0443323787e+02 1.0443323787e+02 0.0000000000e+00 0.0000e+00 1.0000e+00
       13 -1    0    0    0    0 -0.0000000000e+00 -0.0000000000e+00 -1.0000000000e+03 1.0000000000e+03 0.0000000000e+00 0.0000e+00 1.0000e+00
  9000005  2    1    2  501    0 +4.5030784662e-05 -1.3049844540e-05 -8.9556687300e+02 1.1044331175e+03 6.4632227797e+02 0.0000e+00 0.0000e+00
       13  1    3    3    0    0 -1.4245471001e+02 -2.5276301476e+02 -6.9095320447e+02 7.4939897038e+02 0.0000000000e+00 0.0000e+00 1.0000e+00
        1  1    3    3  501    0 +1.4245475504e+02 +2.5276300171e+02 -2.0461366853e+02 3.5503414711e+02 0.0000000000e+00 0.0000e+00 1.0000e+00
       21  1    1    2  502  501 -4.5030784661e-05 +1.3049844527e-05 +1.1087730450e-04 1.2038208613e-04 0.0000000000e+00 0.0000e+00 1.0000e+00
<mgrwt>
<rscale>  1 0.64632228E+03</rscale>
<asrwt>0</asrwt>
<pdfrwt beam="1">  1        1 0.37975803E+00 0.64632228E+03</pdfrwt>
<pdfrwt beam="2">0</pdfrwt>
<totfact> 0.16461235E+00</totfact>
</mgrwt>
</event>
<event>
 6      1 +5.6466785e-02 6.54696400e+02 7.81860800e-03 9.79800600e-02
        1 -1    0    0  502    0 +0.0000000000e+00 +0.0000000000e+00 +1.1489205215e+02 1.1489205215e+02 0.0000000000e+00 0.0000e+00 1.0000e+00
       13 -1    0    0    0    0 -0.0000000000e+00 -0.0000000000e+00 -1.0000000000e+03 1.0000000000e+03 0.0000000000e+00 0.0000e+00 1.0000e+00
  9000005  2    1    2  501    0 +1.1277386378e+01 -6.7885684215e+00 -8.8606079271e+02 1.1016946275e+03 6.5456402263e+02 0.0000e+00 0.0000e+00
       13  1    3    3    0    0 -6.2108845422e+01 +2.8290447541e+02 -1.9606527001e+02 3.4976283535e+02 0.0000000000e+00 0.0000e+00 1.0000e+00
        1  1    3    3  501    0 +7.3386231800e+01 -2.8969304383e+02 -6.8999552270e+02 7.5193179212e+02 0.0000000000e+00 0.0000e+00 1.0000e+00
       21  1    1    2  502  501 -1.1277386378e+01 +6.7885684215e+00 +9.5284485099e-01 1.3197424675e+01 0.0000000000e+00 0.0000e+00 1.0000e+00
<mgrwt>
<rscale>  1 0.65469636E+03</rscale>
<asrwt>0</asrwt>
<pdfrwt beam="1">  1        1 0.41779016E+00 0.65469636E+03</pdfrwt>
<pdfrwt beam="2">0</pdfrwt>
<totfact> 0.11125396E+00</totfact>
</mgrwt>
</event>
<event>
 6      1 +5.6466785e-02 6.69760900e+02 7.81860800e-03 9.77039000e-02
        1 -1    0    0  502    0 +0.0000000000e+00 +0.0000000000e+00 +1.1244709608e+02 1.1244709608e+02 0.0000000000e+00 0.0000e+00 1.0000e+00
       13 -1    0    0    0    0 -0.0000000000e+00 -0.0000000000e+00 -1.0000000000e+03 1.0000000000e+03 0.0000000000e+00 0.0000e+00 1.0000e+00
  9000005  2    1    2  501    0 -2.1724205249e-01 -2.9107692597e-01 -8.8772832528e+02 1.1120437444e+03 6.6976083652e+02 0.0000e+00 0.0000e+00
       13  1    3    3    0    0 +7.2035645553e+01 +7.3934887269e+01 +8.5059854153e+01 1.3375604874e+02 0.0000000000e+00 0.0000e+00 1.0000e+00
        1  1    3    3  501    0 -7.2252887605e+01 -7.4225964195e+01 -9.7278817943e+02 9.7828769571e+02 0.0000000000e+00 0.0000e+00 1.0000e+00
       21  1    1    2  502  501 +2.1724205249e-01 +2.9107692597e-01 +1.7542136578e-01 4.0335163539e-01 0.0000000000e+00 0.0000e+00 1.0000e+00
<mgrwt>
<rscale>  1 0.66976094E+03</rscale>
<asrwt>0</asrwt>
<pdfrwt beam="1">  1        1 0.40889939E+00 0.66976094E+03</pdfrwt>
<pdfrwt beam="2">0</pdfrwt>
<totfact> 0.12162131E+00</totfact>
</mgrwt>
</event>
<event>
 6      1 +5.6466785e-02 6.51834000e+02 7.81860800e-03 9.80334400e-02
        3 -1    0    0  502    0 +0.0000000000e+00 +0.0000000000e+00 +1.1032308277e+02 1.1032308277e+02 0.0000000000e+00 0.0000e+00 1.0000e+00
       13 -1    0    0    0    0 -0.0000000000e+00 -0.0000000000e+00 -1.0000000000e+03 1.0000000000e+03 0.0000000000e+00 0.0000e+00 1.0000e+00
  9000005  2    1    2  501    0 -4.3190647312e+00 -3.6246283035e+00 -8.9151357216e+02 1.1043930278e+03 6.5180957210e+02 0.0000e+00 0.0000e+00
       13  1    3    3    0    0 +3.0567297050e+02 -2.9456680338e+01 -2.6798108081e+02 4.0757517170e+02 0.0000000000e+00 0.0000e+00 1.0000e+00
        3  1    3    3  501    0 -3.0999203524e+02 +2.5832052035e+01 -6.2353249136e+02 6.9681785612e+02 0.0000000000e+00 0.0000e+00 1.0000e+00
       21  1    1    2  502  501 +4.3190647312e+00 +3.6246283035e+00 +1.8366549382e+00 5.9300549620e+00 0.0000000000e+00 0.0000e+00 -1.0000e+00
<mgrwt>
<rscale>  1 0.65183396E+03</rscale>
<asrwt>0</asrwt>
<pdfrwt beam="1">  1        3 0.40117569E+00 0.65183396E+03</pdfrwt>
<pdfrwt beam="2">0</pdfrwt>
<totfact> 0.58386538E-02</totfact>
</mgrwt>
</event>
<event>
 6      1 +5.6466785e-02 6.48385000e+02 7.81860800e-03 9.80981400e-02
        1 -1    0    0  502    0 +0.0000000000e+00 +0.0000000000e+00 +1.0529670444e+02 1.0529670444e+02 0.0000000000e+00 0.0000e+00 1.0000e+00
       13 -1    0    0    0    0 -0.0000000000e+00 -0.0000000000e+00 -1.0000000000e+03 1.0000000000e+03 0.0000000000e+00 0.0000e+00 1.0000e+00
  9000005  2    1    2  501    0 +1.1732250430e-02 -7.5707254547e-04 -8.9489903938e+02 1.1051006079e+03 6.4838496491e+02 0.0000e+00 0.0000e+00
       13  1    3    3    0    0 -1.5073179899e+02 -2.2871972294e+02 -1.5191074476e+02 3.1322461790e+02 0.0000000000e+00 0.0000e+00 1.0000e+00
        3  1    3    3  501    0 +1.5074353124e+02 +2.2871896587e+02 -7.4298829462e+02 7.9187598998e+02 0.0000000000e+00 0.0000e+00 1.0000e+00
       21  1    1    2  502  501 -1.1732250430e-02 +7.5707254546e-04 +1.9574381702e-01 1.9609655979e-01 0.0000000000e+00 0.0000e+00 -1.0000e+00
<mgrwt>
<rscale>  1 0.64838497E+03</rscale>
<asrwt>0</asrwt>
<pdfrwt beam="1">  1        1 0.38289791E+00 0.64838497E+03</pdfrwt>
<pdfrwt beam="2">0</pdfrwt>
<totfact> 0.15938030E+00</totfact>
</mgrwt>
</event>
<event>
 6      1 +5.6466785e-02 6.55036300e+02 7.81860800e-03 9.79737400e-02
        1 -1    0    0  502    0 +0.0000000000e+00 +0.0000000000e+00 +1.0726885514e+02 1.0726885514e+02 0.0000000000e+00 0.0000e+00 1.0000e+00
       13 -1    0    0    0    0 -0.0000000000e+00 -0.0000000000e+00 -1.0000000000e+03 1.0000000000e+03 0.0000000000e+00 0.0000e+00 1.0000e+00
  9000005  2    1    2  501    0 +1.8360966728e-03 +9.6189404883e-04 -8.9272919071e+02 1.1072660064e+03 6.5503633565e+02 0.0000e+00 0.0000e+00
       13  1    3    3    0    0 -2.5927242450e+02 +1.9513627066e+02 -5.2134388438e+02 6.1408452188e+02 0.0000000000e+00 0.0000e+00 1.0000e+00
        3  1    3    3  501    0 +2.5927426060e+02 -1.9513530877e+02 -3.7138530633e+02 4.9318148454e+02 0.0000000000e+00 0.0000e+00 1.0000e+00
       21  1    1    2  502  501 -1.8360966728e-03 -9.6189404883e-04 -1.9541544246e-03 2.8487208828e-03 0.0000000000e+00 0.0000e+00 1.0000e+00
<mgrwt>
<rscale>  1 0.65503634E+03</rscale>
<asrwt>0</asrwt>
<pdfrwt beam="1">  1        1 0.39006939E+00 0.65503634E+03</pdfrwt>
<pdfrwt beam="2">0</pdfrwt>
<totfact> 0.14796365E+00</totfact>
</mgrwt>
</event>
<event>
 6      1 +5.6466785e-02 6.58633600e+02 7.81860800e-03 9.79071200e-02
        1 -1    0    0  502    0 +0.0000000000e+00 +0.0000000000e+00 +1.0844957577e+02 1.0844957577e+02 0.0000000000e+00 0.0000e+00 1.0000e+00
       13 -1    0    0    0    0 -0.0000000000e+00 -0.0000000000e+00 -1.0000000000e+03 1.0000000000e+03 0.0000000000e+00 0.0000e+00 1.0000e+00
  9000005  2    1    2  501    0 -2.9693435692e-06 +1.7207594283e-06 -8.9155044777e+02 1.1084495520e+03 6.5863359189e+02 0.0000e+00 0.0000e+00
       13  1    3    3    0    0 -1.4570102307e+02 +2.8864606835e+02 -3.4061808769e+02 4.6964457045e+02 0.0000000000e+00 0.0000e+00 1.0000e+00
        1  1    3    3  501    0 +1.4570102010e+02 -2.8864606663e+02 -5.5093236008e+02 6.3880498153e+02 0.0000000000e+00 0.0000e+00 1.0000e+00
       21  1    1    2  502  501 +2.9693435782e-06 -1.7207594077e-06 +2.3544364704e-05 2.3793173886e-05 0.0000000000e+00 0.0000e+00 1.0000e+00
<mgrwt>
<rscale>  1 0.65863359E+03</rscale>
<asrwt>0</asrwt>
<pdfrwt beam="1">  1        1 0.39436293E+00 0.65863359E+03</pdfrwt>
<pdfrwt beam="2">0</pdfrwt>
<totfact> 0.14151456E+00</totfact>
</mgrwt>
</event>
<event>
 6      1 +5.6466785e-02 6.34659900e+02 7.81860800e-03 9.83599700e-02
        1 -1    0    0  502    0 +0.0000000000e+00 +0.0000000000e+00 +1.0069837935e+02 1.0069837935e+02 0.0000000000e+00 0.0000e+00 1.0000e+00
       13 -1    0    0    0    0 -0.0000000000e+00 -0.0000000000e+00 -1.0000000000e+03 1.0000000000e+03 0.0000000000e+00 0.0000e+00 1.0000e+00
  9000005  2    1    2  501    0 -1.5036342006e-05 -6.6847863707e-06 -8.9930170744e+02 1.1006982910e+03 6.3465988279e+02 0.0000e+00 0.0000e+00
       13  1    3    3    0    0 +2.6355406082e+02 -1.4506898216e+02 -6.2474368229e+02 6.9340494743e+02 0.0000000000e+00 0.0000e+00 1.0000e+00
        1  1    3    3  501    0 -2.6355407586e+02 +1.4506897547e+02 -2.7455802515e+02 4.0729334358e+02 0.0000000000e+00 0.0000e+00 1.0000e+00
       21  1    1    2  502  501 +1.5036342045e-05 +6.6847863670e-06 +8.6797606304e-05 8.8343660841e-05 0.0000000000e+00 0.0000e+00 -1.0000e+00
<mgrwt>
<rscale>  1 0.63465988E+03</rscale>
<asrwt>0</asrwt>
<pdfrwt beam="1">  1        1 0.36617670E+00 0.63465988E+03</pdfrwt>
<pdfrwt beam="2">0</pdfrwt>
<totfact> 0.18928489E+00</totfact>
</mgrwt>
</event>
<event>
 6      1 +5.6466785e-02 6.53530000e+02 7.81860800e-03 9.80017800e-02
        1 -1    0    0  502    0 +0.0000000000e+00 +0.0000000000e+00 +1.1662322529e+02 1.1662322529e+02 0.0000000000e+00 0.0000e+00 1.0000e+00
       13 -1    0    0    0    0 -0.0000000000e+00 -0.0000000000e+00 -1.0000000000e+03 1.0000000000e+03 0.0000000000e+00 0.0000e+00 1.0000e+00
  9000005  2    1    2  501    0 -1.8377574463e-01 -3.0339317753e-02 -8.9322367154e+02 1.1067745669e+03 6.5352993807e+02 0.0000e+00 0.0000e+00
       13  1    3    3    0    0 +7.5402470279e+01 +2.8617269005e+02 -2.1207022006e+02 3.6407982543e+02 0.0000000000e+00 0.0000e+00 1.0000e+00
        3  1    3    3  501    0 -7.5586246024e+01 -2.8620302936e+02 -6.8115345148e+02 7.4269474151e+02 0.0000000000e+00 0.0000e+00 1.0000e+00
       21  1    1    2  502  501 +1.8377574463e-01 +3.0339317753e-02 +9.8468968336e+00 9.8486583477e+00 0.0000000000e+00 0.0000e+00 -1.0000e+00
<mgrwt>
<rscale>  1 0.65352996E+03</rscale>
<asrwt>0</asrwt>
<pdfrwt beam="1">  1        1 0.42408535E+00 0.65352996E+03</pdfrwt>
<pdfrwt beam="2">0</pdfrwt>
<totfact> 0.10423244E+00</totfact>
</mgrwt>
</event>
<event>
 6      1 +5.6466785e-02 6.48400800e+02 7.81860800e-03 9.80978500e-02
        1 -1    0    0  502    0 +0.0000000000e+00 +0.0000000000e+00 +1.0510592727e+02 1.0510592727e+02 0.0000000000e+00 0.0000e+00 1.0000e+00
       13 -1    0    0    0    0 -0.0000000000e+00 -0.0000000000e+00 -1.0000000000e+03 1.0000000000e+03 0.0000000000e+00 0.0000e+00 1.0000e+00
  9000005  2    1    2  501    0 -7.8002918058e-07 +8.6020838808e-07 -8.9489408907e+02 1.1051059109e+03 6.4840083562e+02 0.0000e+00 0.0000e+00
       13  1    3    3    0    0 -7.8922120692e-01 -1.1602585844e+02 -9.6340066862e+02 9.7036254617e+02 0.0000000000e+00 0.0000e+00 1.0000e+00
        1  1    3    3  501    0 +7.8922042689e-01 +1.1602585930e+02 +6.8506579555e+01 1.3474336472e+02 0.0000000000e+00 0.0000e+00 1.0000e+00
       21  1    1    2  502  501 +7.8002918061e-07 -8.6020838332e-07 +1.6344070687e-05 1.6385269318e-05 0.0000000000e+00 0.0000e+00 -1.0000e+00
<mgrwt>
<rscale>  1 0.64840084E+03</rscale>
<asrwt>0</asrwt>
<pdfrwt beam="1">  1        1 0.38220418E+00 0.64840084E+03</pdfrwt>
<pdfrwt beam="2">0</pdfrwt>
<totfact> 0.16050854E+00</totfact>
</mgrwt>
</event>
<event>
 6      1 +5.6466785e-02 6.84786200e+02 7.81860800e-03 9.74360900e-02
        1 -1    0    0  502    0 +0.0000000000e+00 +0.0000000000e+00 +1.1723316508e+02 1.1723316508e+02 0.0000000000e+00 0.0000e+00 1.0000e+00
       13 -1    0    0    0    0 -0.0000000000e+00 -0.0000000000e+00 -1.0000000000e+03 1.0000000000e+03 0.0000000000e+00 0.0000e+00 1.0000e+00
  9000005  2    1    2  501    0 +2.2739352889e-04 +2.4555912347e-05 -8.8276685981e+02 1.1172329350e+03 6.8478617269e+02 0.0000e+00 0.0000e+00
       13  1    3    3    0    0 +1.3309791361e+02 -2.0118788562e+02 -4.4952863841e+01 2.4538210998e+02 0.0000000000e+00 0.0000e+00 1.0000e+00
        3  1    3    3  501    0 -1.3309768622e+02 +2.0118791018e+02 -8.3781399597e+02 8.7185082504e+02 0.0000000000e+00 0.0000e+00 1.0000e+00
       21  1    1    2  502  501 -2.2739352888e-04 -2.4555912341e-05 +2.4888416209e-05 2.3006573641e-04 0.0000000000e+00 0.0000e+00 -1.0000e+00
<mgrwt>
<rscale>  1 0.68478617E+03</rscale>
<asrwt>0</asrwt>
<pdfrwt beam="1">  1        1 0.42630332E+00 0.68478617E+03</pdfrwt>
<pdfrwt beam="2">0</pdfrwt>
<totfact> 0.10123205E+00</totfact>
</mgrwt>
</event>
<event>
 6      1 +5.6466785e-02 6.47078500e+02 7.81860800e-03 9.81227700e-02
        1 -1    0    0  502    0 +0.0000000000e+00 +0.0000000000e+00 +1.0768138546e+02 1.0768138546e+02 0.0000000000e+00 0.0000e+00 1.0000e+00
       13 -1    0    0    0    0 -0.0000000000e+00 -0.0000000000e+00 -1.0000000000e+03 1.0000000000e+03 0.0000000000e+00 0.0000e+00 1.0000e+00
  9000005  2    1    2  501    0 -3.2689326676e-02 +2.4875668127e-01 -8.9531657312e+02 1.1046729466e+03 6.4707842647e+02 0.0000e+00 0.0000e+00
       13  1    3    3    0    0 -4.2694810039e+01 -2.4715663368e+01 -9.9351320443e+02 9.9473725083e+02 0.0000000000e+00 0.0000e+00 1.0000e+00
        1  1    3    3  501    0 +4.2662120712e+01 +2.4964420050e+01 +9.8196631312e+01 1.0993569581e+02 0.0000000000e+00 0.0000e+00 1.0000e+00
       21  1    1    2  502  501 +3.2689326676e-02 -2.4875668127e-01 +2.9979585745e+00 3.0084388132e+00 0.0000000000e+00 0.0000e+00 -1.0000e+00
<mgrwt>
<rscale>  1 0.64707848E+03</rscale>
<asrwt>0</asrwt>
<pdfrwt beam="1">  1        1 0.39156950E+00 0.64707848E+03</pdfrwt>
<pdfrwt beam="2">0</pdfrwt>
<totfact> 0.14593033E+00</totfact>
</mgrwt>
</event>
<event>
 6      1 +5.6466785e-02 6.49316500e+02 7.81860800e-03 9.80806200e-02
        1 -1    0    0  502    0 +0.0000000000e+00 +0.0000000000e+00 +1.0540340990e+02 1.0540340990e+02 0.0000000000e+00 0.0000e+00 1.0000e+00
       13 -1    0    0    0    0 -0.0000000000e+00 -0.0000000000e+00 -1.0000000000e+03 1.0000000000e+03 0.0000000000e+00 0.0000e+00 1.0000e+00
  9000005  2    1    2  501    0 -5.8991761733e-06 +3.3562911625e-05 -8.9459700517e+02 1.1054029934e+03 6.4931654547e+02 0.0000e+00 0.0000e+00
       13  1    3    3    0    0 -1.1671819662e+02 -1.5510992767e+02 -8.9032028192e+02 9.1123675929e+02 0.0000000000e+00 0.0000e+00 1.0000e+00
        1  1    3    3  501    0 +1.1671819072e+02 +1.5510996124e+02 -4.2767232529e+00 1.9416623414e+02 0.0000000000e+00 0.0000e+00 1.0000e+00
       21  1    1    2  502  501 +5.8991761740e-06 -3.3562911613e-05 +4.1507285861e-04 4.1646938335e-04 0.0000000000e+00 0.0000e+00 -1.0000e+00
<mgrwt>
<rscale>  1 0.64931655E+03</rscale>
<asrwt>0</asrwt>
<pdfrwt beam="1">  1        1 0.38328594E+00 0.64931655E+03</pdfrwt>
<pdfrwt beam="2">0</pdfrwt>
<totfact> 0.15872503E+00</totfact>
</mgrwt>
</event>
<event>
 6      1 +5.6466785e-02 6.43196400e+02 7.81860800e-03 9.81963000e-02
        1 -1    0    0  502    0 +0.0000000000e+00 +0.0000000000e+00 +1.0346932420e+02 1.0346932420e+02 0.0000000000e+00 0.0000e+00 1.0000e+00
       13 -1    0    0    0    0 -0.0000000000e+00 -0.0000000000e+00 -1.0000000000e+03 1.0000000000e+03 0.0000000000e+00 0.0000e+00 1.0000e+00
  9000005  2    1    2  501    0 +6.9657720518e-03 -8.4216055312e-04 -8.9657428459e+02 1.1034251546e+03 6.4319641158e+02 0.0000e+00 0.0000e+00
       13  1    3    3    0    0 +1.7548860568e+02 -3.6844428662e+01 -9.0628563464e+02 9.2385464994e+02 0.0000000000e+00 0.0000e+00 1.0000e+00
        3  1    3    3  501    0 -1.7548163990e+02 +3.6843586502e+01 +9.7113500562e+00 1.7957050462e+02 0.0000000000e+00 0.0000e+00 1.0000e+00
       21  1    1    2  502  501 -6.9657720518e-03 +8.4216055312e-04 +4.3608786048e-02 4.4169643821e-02 0.0000000000e+00 0.0000e+00 -1.0000e+00
<mgrwt>
<rscale>  1 0.64319641E+03</rscale>
<asrwt>0</asrwt>
<pdfrwt beam="1">  1        1 0.37625288E+00 0.64319641E+03</pdfrwt>
<pdfrwt beam="2">0</pdfrwt>
<totfact> 0.17067196E+00</totfact>
</mgrwt>
</event>
<event>
 6      1 +5.6466785e-02 6.52697900e+02 7.81860800e-03 9.80173000e-02
        1 -1    0    0  502    0 +0.0000000000e+00 +0.0000000000e+00 +1.0651813981e+02 1.0651813981e+02 0.0000000000e+00 0.0000e+00 1.0000e+00
       13 -1    0    0    0    0 -0.0000000000e+00 -0.0000000000e+00 -1.0000000000e+03 1.0000000000e+03 0.0000000000e+00 0.0000e+00 1.0000e+00
  9000005  2    1    2  501    0 +5.9348290509e-04 -3.1434776959e-03 -8.9349617311e+02 1.1065034737e+03 6.5269788267e+02 0.0000e+00 0.0000e+00
       13  1    3    3    0    0 -1.7219536587e+02 -2.3561750530e+01 -9.1501646616e+02 9.3137615036e+02 0.0000000000e+00 0.0000e+00 1.0000e+00
        3  1    3    3  501    0 +1.7219595936e+02 +2.3558607052e+01 +2.1520293047e+01 1.7512732339e+02 0.0000000000e+00 0.0000e+00 1.0000e+00
       21  1    1    2  502  501 -5.9348290510e-04 +3.1434776959e-03 +1.4312922848e-02 1.4666064040e-02 0.0000000000e+00 0.0000e+00 -1.0000e+00
<mgrwt>
<rscale>  1 0.65269788E+03</rscale>
<asrwt>0</asrwt>
<pdfrwt beam="1">  1        1 0.38733951E+00 0.65269788E+03</pdfrwt>
<pdfrwt beam="2">0</pdfrwt>
<totfact> 0.15220934E+00</totfact>
</mgrwt>
</event>
<event>
 6      1 +5.6466785e-02 6.36938400e+02 7.81860800e-03 9.83160200e-02
        1 -1    0    0  502    0 +0.0000000000e+00 +0.0000000000e+00 +1.0150611907e+02 1.0150611907e+02 0.0000000000e+00 0.0000e+00 1.0000e+00
       13 -1    0    0    0    0 -0.0000000000e+00 -0.0000000000e+00 -1.0000000000e+03 1.0000000000e+03 0.0000000000e+00 0.0000e+00 1.0000e+00
  9000005  2    1    2  501    0 +6.1728885916e-03 +1.0128838450e-02 -8.9857690408e+02 1.1014222529e+03 6.3693840078e+02 0.0000e+00 0.0000e+00
       13  1    3    3    0    0 -2.8868566400e+02 +1.2639543051e+02 -3.6991308855e+02 4.8595360944e+02 0.0000000000e+00 0.0000e+00 1.0000e+00
        3  1    3    3  501    0 +2.8869183689e+02 -1.2638530167e+02 -5.2866381554e+02 6.1546864341e+02 0.0000000000e+00 0.0000e+00 1.0000e+00
       21  1    1    2  502  501 -6.1728885916e-03 -1.0128838450e-02 +8.3023158432e-02 8.3866219409e-02 0.0000000000e+00 0.0000e+00 1.0000e+00
<mgrwt>
<rscale>  1 0.63693840E+03</rscale>
<asrwt>0</asrwt>
<pdfrwt beam="1">  1        1 0.36911394E+00 0.63693840E+03</pdfrwt>
<pdfrwt beam="2">0</pdfrwt>
<totfact> 0.18367476E+00</totfact>
</mgrwt>
</event>
<event>
 6      1 +5.6466785e-02 6.21553100e+02 7.81860800e-03 9.86167200e-02
        1 -1    0    0  502    0 +0.0000000000e+00 +0.0000000000e+00 +9.6582430345e+01 9.6582430345e+01 0.0000000000e+00 0.0000e+00 1.0000e+00
       13 -1    0    0    0    0 -0.0000000000e+00 -0.0000000000e+00 -1.0000000000e+03 1.0000000000e+03 0.0000000000e+00 0.0000e+00 1.0000e+00
  9000005  2    1    2  501    0 -3.6129611982e-04 -5.0826499660e-05 -9.0341781931e+02 1.0965819883e+03 6.2155313586e+02 0.0000e+00 0.0000e+00
       13  1    3    3    0    0 +1.5413855562e+02 -2.4022148549e+02 -6.6862666118e+02 7.2699839646e+02 0.0000000000e+00 0.0000e+00 1.0000e+00
        1  1    3    3  501    0 -1.5413891692e+02 +2.4022143466e+02 -2.3479115813e+02 3.6958359179e+02 0.0000000000e+00 0.0000e+00 1.0000e+00
       21  1    1    2  502  501 +3.6129611982e-04 +5.0826499659e-05 +2.4965939459e-04 4.4209504925e-04 0.0000000000e+00 0.0000e+00 -1.0000e+00
<mgrwt>
<rscale>  1 0.62155314E+03</rscale>
<asrwt>0</asrwt>
<pdfrwt beam="1">  1        1 0.35120958E+00 0.62155314E+03</pdfrwt>
<pdfrwt beam="2">0</pdfrwt>
<totfact> 0.22058202E+00</totfact>
</mgrwt>
</event>
<event>
 6      1 +5.6466785e-02 6.36734100e+02 7.81860800e-03 9.83199500e-02
        1 -1    0    0  502    0 +0.0000000000e+00 +0.0000000000e+00 +1.0221902155e+02 1.0221902155e+02 0.0000000000e+00 0.0000e+00 1.0000e+00
       13 -1    0    0    0    0 -0.0000000000e+00 -0.0000000000e+00 -1.0000000000e+03 1.0000000000e+03 0.0000000000e+00 0.0000e+00 1.0000e+00
  9000005  2    1    2  501    0 -4.2499792607e-01 +2.5393682559e-01 -8.9856339743e+02 1.1012931238e+03 6.3673394780e+02 0.0000e+00 0.0000e+00
       13  1    3    3    0    0 -2.8469997928e+02 +5.4887529912e+01 -2.2126242185e+02 3.6472424990e+02 0.0000000000e+00 0.0000e+00 1.0000e+00
        1  1    3    3  501    0 +2.8427498135e+02 -5.4633593086e+01 -6.7730097558e+02 7.3656887393e+02 0.0000000000e+00 0.0000e+00 1.0000e+00
       21  1    1    2  502  501 +4.2499792607e-01 -2.5393682559e-01 +7.8241897305e-01 9.2589772542e-01 0.0000000000e+00 0.0000e+00 -1.0000e+00
<mgrwt>
<rscale>  1 0.63673414E+03</rscale>
<asrwt>0</asrwt>
<pdfrwt beam="1">  1        1 0.37170632E+00 0.63673414E+03</pdfrwt>
<pdfrwt beam="2">0</pdfrwt>
<totfact> 0.17892824E+00</totfact>
</mgrwt>
</event>
<event>
 6      1 +5.6466785e-02 6.52936000e+02 7.81860800e-03 9.80128600e-02
        3 -1    0    0  502    0 +0.0000000000e+00 +0.0000000000e+00 +1.0662462327e+02 1.0662462327e+02 0.0000000000e+00 0.0000e+00 1.0000e+00
       13 -1    0    0    0    0 -0.0000000000e+00 -0.0000000000e+00 -1.0000000000e+03 1.0000000000e+03 0.0000000000e+00 0.0000e+00 1.0000e+00
  9000005  2    1    2  501    0 +8.2876154599e-04 -3.1493806773e-05 -8.9341863804e+02 1.1065813540e+03 6.5293600776e+02 0.0000e+00 0.0000e+00
       13  1    3    3    0    0 -2.8485972511e+01 +3.1743237725e+02 -3.2679179269e+02 4.5647304469e+02 0.0000000000e+00 0.0000e+00 1.0000e+00
        1  1    3    3  501    0 +2.8486801272e+01 -3.1743240875e+02 -5.6662684535e+02 6.5010830931e+02 0.0000000000e+00 0.0000e+00 1.0000e+00
       21  1    1    2  502  501 -8.2876154599e-04 +3.1493806758e-05 +4.3261316749e-02 4.3269265818e-02 0.0000000000e+00 0.0000e+00 -1.0000e+00
<mgrwt>
<rscale>  1 0.65293601E+03</rscale>
<asrwt>0</asrwt>
<pdfrwt beam="1">  1        3 0.38772672E+00 0.65293601E+03</pdfrwt>
<pdfrwt beam="2">0</pdfrwt>
<totfact> 0.68684713E-02</totfact>
</mgrwt>
</event>
<event>
 6      1 +5.6466785e-02 6.44914300e+02 7.81860800e-03 9.81636900e-02
        1 -1    0    0  502    0 +0.0000000000e+00 +0.0000000000e+00 +1.0397865621e+02 1.0397865621e+02 0.0000000000e+00 0.0000e+00 1.0000e+00
       13 -1    0    0    0    0 -0.0000000000e+00 -0.0000000000e+00 -1.0000000000e+03 1.0000000000e+03 0.0000000000e+00 0.0000e+00 1.0000e+00
  9000005  2    1    2  501    0 -8.8427865251e-05 -8.0566719021e-05 -8.9602128770e+02 1.1039785241e+03 6.4491428394e+02 0.0000e+00 0.0000e+00
       13  1    3    3    0    0 +3.1558705926e+02 -6.5927861563e+01 -4.5841065867e+02 5.6043019805e+02 0.0000000000e+00 0.0000e+00 1.0000e+00
        3  1    3    3  501    0 -3.1558714769e+02 +6.5927780997e+01 -4.3761062902e+02 5.4354832603e+02 0.0000000000e+00 0.0000e+00 1.0000e+00
       21  1    1    2  502  501 +8.8427865222e-05 +8.0566719020e-05 -5.6095781836e-05 1.3212577455e-04 0.0000000000e+00 0.0000e+00 1.0000e+00
<mgrwt>
<rscale>  1 0.64491428E+03</rscale>
<asrwt>0</asrwt>
<pdfrwt beam="1">  1        1 0.37810500E+00 0.64491428E+03</pdfrwt>
<pdfrwt beam="2">0</pdfrwt>
<totfact> 0.16744203E+00</totfact>
</mgrwt>
</event>
<event>
 6      1 +5.6466785e-02 6.46008200e+02 7.81860800e-03 9.81429800e-02
        1 -1    0    0  502    0 +0.0000000000e+00 +0.0000000000e+00 +1.0433722113e+02 1.0433722113e+02 0.0000000000e+00 0.0000e+00 1.0000e+00
       13 -1    0    0    0    0 -0.0000000000e+00 -0.0000000000e+00 -1.0000000000e+03 1.0000000000e+03 0.0000000000e+00 0.0000e+00 1.0000e+00
  9000005  2    1    2  501    0 +2.4929732575e-05 -8.6346694900e-05 -8.9566834414e+02 1.1043316551e+03 6.4600822119e+02 0.0000e+00 0.0000e+00
       13  1    3    3    0    0 +2.3328724386e+02 +2.0187217385e+02 -6.1141114040e+02 6.8483494021e+02 0.0000000000e+00 0.0000e+00 1.0000e+00
        3  1    3    3  501    0 -2.3328721893e+02 -2.0187226020e+02 -2.8425720374e+02 4.1949671493e+02 0.0000000000e+00 0.0000e+00 1.0000e+00
       21  1    1    2  502  501 -2.4929732549e-05 +8.6346694904e-05 +5.5652734974e-03 5.5659991326e-03 0.0000000000e+00 0.0000e+00 -1.0000e+00
<mgrwt>
<rscale>  1 0.64600822E+03</rscale>
<asrwt>0</asrwt>
<pdfrwt beam="1">  1        1 0.37940888E+00 0.64600822E+03</pdfrwt>
<pdfrwt beam="2">0</pdfrwt>
<totfact> 0.16520672E+00</totfact>
</mgrwt>
</event>
<event>
 6      1 +5.6466785e-02 6.46801200e+02 7.81860800e-03 9.81280000e-02
        1 -1    0    0  502    0 +0.0000000000e+00 +0.0000000000e+00 +1.0460408873e+02 1.0460408873e+02 0.0000000000e+00 0.0000e+00 1.0000e+00
       13 -1    0    0    0    0 -0.0000000000e+00 -0.0000000000e+00 -1.0000000000e+03 1.0000000000e+03 0.0000000000e+00 0.0000e+00 1.0000e+00
  9000005  2    1    2  501    0 +3.7378319166e-04 -4.0614133198e-04 -8.9541203529e+02 1.1045879553e+03 6.4680123528e+02 0.0000e+00 0.0000e+00
       13  1    3    3    0    0 +2.0927163831e+02 +1.7214620966e+02 -1.4625176599e+02 3.0792615212e+02 0.0000000000e+00 0.0000e+00 1.0000e+00
        3  1    3    3  501    0 -2.0927126452e+02 -1.7214661580e+02 -7.4916026930e+02 7.9666180315e+02 0.0000000000e+00 0.0000e+00 1.0000e+00
       21  1    1    2  502  501 -3.7378319166e-04 +4.0614133198e-04 +1.6124021886e-02 1.6133466659e-02 0.0000000000e+00 0.0000e+00 1.0000e+00
<mgrwt>
<rscale>  1 0.64680124E+03</rscale>
<asrwt>0</asrwt>
<pdfrwt beam="1">  1        1 0.38037931E+00 0.64680124E+03</pdfrwt>
<pdfrwt beam="2">0</pdfrwt>
<totfact> 0.16356217E+00</totfact>
</mgrwt>
</event>
<event>
 6      1 +5.6466785e-02 6.95071800e+02 7.81860800e-03 9.72569700e-02
        1 -1    0    0  502    0 +0.0000000000e+00 +0.0000000000e+00 +1.2087290111e+02 1.2087290111e+02 0.0000000000e+00 0.0000e+00 1.0000e+00
       13 -1    0    0    0    0 -0.0000000000e+00 -0.0000000000e+00 -1.0000000000e+03 1.0000000000e+03 0.0000000000e+00 0.0000e+00 1.0000e+00
  9000005  2    1    2  501    0 +1.3565041021e-01 -9.9207761254e-02 -8.7912130224e+02 1.1207047440e+03 6.9507181710e+02 0.0000e+00 0.0000e+00
       13  1    3    3    0    0 -1.8107524069e+02 -2.3128223812e+02 -1.4007602675e+02 3.2542435332e+02 0.0000000000e+00 0.0000e+00 1.0000e+00
        1  1    3    3  501    0 +1.8121089110e+02 +2.3118303036e+02 -7.3904527549e+02 7.9528039069e+02 0.0000000000e+00 0.0000e+00 1.0000e+00
       21  1    1    2  502  501 -1.3565041021e-01 +9.9207761254e-02 -5.7966429449e-03 1.6815711330e-01 0.0000000000e+00 0.0000e+00 -1.0000e+00
<mgrwt>
<rscale>  1 0.69507184E+03</rscale>
<asrwt>0</asrwt>
<pdfrwt beam="1">  1        1 0.43953875E+00 0.69507184E+03</pdfrwt>
<pdfrwt beam="2">0</pdfrwt>
<totfact> 0.87937450E-01</totfact>
</mgrwt>
</event>
<event>
 6      1 +5.6466785e-02 6.24108100e+02 7.81860800e-03 9.85661400e-02
        1 -1    0    0  502    0 +0.0000000000e+00 +0.0000000000e+00 +9.7378463261e+01 9.7378463261e+01 0.0000000000e+00 0.0000e+00 1.0000e+00
       13 -1    0    0    0    0 -0.0000000000e+00 -0.0000000000e+00 -1.0000000000e+03 1.0000000000e+03 0.0000000000e+00 0.0000e+00 1.0000e+00
  9000005  2    1    2  501    0 -1.8019892792e-05 -3.4047155850e-05 -9.0262228245e+02 1.0973777166e+03 6.2410805796e+02 0.0000e+00 0.0000e+00
       13  1    3    3    0    0 -9.9963920976e+01 +2.8625291826e+02 -3.2157437774e+02 4.4197692149e+02 0.0000000000e+00 0.0000e+00 1.0000e+00
        3  1    3    3  501    0 +9.9963902956e+01 -2.8625295231e+02 -5.8104790471e+02 6.5540079506e+02 0.0000000000e+00 0.0000e+00 1.0000e+00
       21  1    1    2  502  501 +1.8019892796e-05 +3.4047155830e-05 +7.4571234535e-04 7.4670665416e-04 0.0000000000e+00 0.0000e+00 1.0000e+00
<mgrwt>
<rscale>  1 0.62410806E+03</rscale>
<asrwt>0</asrwt>
<pdfrwt beam="1">  1        1 0.35410425E+00 0.62410806E+03</pdfrwt>
<pdfrwt beam="2">0</pdfrwt>
<totfact> 0.21416387E+00</totfact>
</mgrwt>
</event>
<event>
 6      1 +5.6466785e-02 6.38343700e+02 7.81860800e-03 9.82890100e-02
        1 -1    0    0  502    0 +0.0000000000e+00 +0.0000000000e+00 +1.0293832728e+02 1.0293832728e+02 0.0000000000e+00 0.0000e+00 1.0000e+00
       13 -1    0    0    0    0 -0.0000000000e+00 -0.0000000000e+00 -1.0000000000e+03 1.0000000000e+03 0.0000000000e+00 0.0000e+00 1.0000e+00
  9000005  2    1    2  501    0 -1.6412911703e+00 -1.6085673623e-01 -8.9737875841e+02 1.1012589658e+03 6.3834156533e+02 0.0000e+00 0.0000e+00
       13  1    3    3    0    0 -2.2178011232e+02 -2.0063047556e+02 -2.5417156928e+02 3.9248209204e+02 0.0000000000e+00 0.0000e+00 1.0000e+00
        1  1    3    3  501    0 +2.2013882114e+02 +2.0046961882e+02 -6.4320718913e+02 7.0877687377e+02 0.0000000000e+00 0.0000e+00 1.0000e+00
       21  1    1    2  502  501 +1.6412911703e+00 +1.6085673623e-01 +3.1708568765e-01 1.6793614646e+00 0.0000000000e+00 0.0000e+00 1.0000e+00
<mgrwt>
<rscale>  1 0.63834370E+03</rscale>
<asrwt>0</asrwt>
<pdfrwt beam="1">  1        1 0.37432198E+00 0.63834370E+03</pdfrwt>
<pdfrwt beam="2">0</pdfrwt>
<totfact> 0.17420026E+00</totfact>
</mgrwt>
</event>
<event>
 6      1 +5.6466785e-02 6.50813400e+02 7.81860800e-03 9.80525400e-02
        1 -1    0    0  502    0 +0.0000000000e+00 +0.0000000000e+00 +1.0663410173e+02 1.0663410173e+02 0.0000000000e+00 0.0000e+00 1.0000e+00
       13 -1    0    0    0    0 -0.0000000000e+00 -0.0000000000e+00 -1.0000000000e+03 1.0000000000e+03 0.0000000000e+00 0.0000e+00 1.0000e+00
  9000005  2    1    2  501    0 -5.0595797918e-01 +5.6803532531e-01 -8.9388933638e+02 1.1057107139e+03 6.5081292128e+02 0.0000e+00 0.0000e+00
       13  1    3    3    0    0 +2.8603769188e+02 +5.5937950883e+01 -2.0150232649e+02 3.5433007650e+02 0.0000000000e+00 0.0000e+00 1.0000e+00
        3  1    3    3  501    0 -2.8654364986e+02 -5.5369915558e+01 -6.9238700989e+02 7.5138063742e+02 0.0000000000e+00 0.0000e+00 1.0000e+00
       21  1    1    2  502  501 +5.0595797918e-01 -5.6803532531e-01 +5.2343810373e-01 9.2338781448e-01 0.0000000000e+00 0.0000e+00 -1.0000e+00
<mgrwt>
<rscale>  1 0.65081337E+03</rscale>
<asrwt>0</asrwt>
<pdfrwt beam="1">  1        1 0.38776119E+00 0.65081337E+03</pdfrwt>
<pdfrwt beam="2">0</pdfrwt>
<totfact> 0.15160912E+00</totfact>
</mgrwt>
</event>
<event>
 6      1 +5.6466785e-02 6.58578100e+02 7.81860800e-03 9.79081500e-02
        1 -1    0    0  502    0 +0.0000000000e+00 +0.0000000000e+00 +1.0843152471e+02 1.0843152471e+02 0.0000000000e+00 0.0000e+00 1.0000e+00
       13 -1    0    0    0    0 -0.0000000000e+00 -0.0000000000e+00 -1.0000000000e+03 1.0000000000e+03 0.0000000000e+00 0.0000e+00 1.0000e+00
  9000005  2    1    2  501    0 +7.4780589330e-06 +1.7873760100e-05 -8.9156871466e+02 1.1084312846e+03 6.5857811960e+02 0.0000e+00 0.0000e+00
       13  1    3    3    0    0 +2.0886758442e+02 +1.1508828215e+02 -8.2795668472e+02 8.6161665042e+02 0.0000000000e+00 0.0000e+00 1.0000e+00
        3  1    3    3  501    0 -2.0886757694e+02 -1.1508826427e+02 -6.3612029940e+01 2.4681463413e+02 0.0000000000e+00 0.0000e+00 1.0000e+00
       21  1    1    2  502  501 -7.4780589403e-06 -1.7873760094e-05 +2.3936740278e-04 2.4015025750e-04 0.0000000000e+00 0.0000e+00 -1.0000e+00
<mgrwt>
<rscale>  1 0.65857812E+03</rscale>
<asrwt>0</asrwt>
<pdfrwt beam="1">  1        1 0.39429728E+00 0.65857812E+03</pdfrwt>
<pdfrwt beam="2">0</pdfrwt>
<totfact> 0.14161114E+00</totfact>
</mgrwt>
</event>
<event>
 6      1 +5.6466785e-02 6.92259300e+02 7.81860800e-03 9.73056200e-02
        1 -1    0    0  502    0 +0.0000000000e+00 +0.0000000000e+00 +1.2753121455e+02 1.2753121455e+02 0.0000000000e+00 0.0000e+00 1.0000e+00
       13 -1    0    0    0    0 -0.0000000000e+00 -0.0000000000e+00 -1.0000000000e+03 1.0000000000e+03 0.0000000000e+00 0.0000e+00 1.0000e+00
  9000005  2    1    2  501    0 -8.1542105750e-01 +1.4127114023e+00 -8.8009770462e+02 1.1197298639e+03 6.9225742154e+02 0.0000e+00 0.0000e+00
       13  1    3    3    0    0 +3.4246795989e+02 -2.8621100165e-01 -3.6296950939e+02 4.9903030991e+02 0.0000000000e+00 0.0000e+00 1.0000e+00
        3  1    3    3  501    0 -3.4328338094e+02 +1.6989224039e+00 -5.1712819522e+02 6.2069955394e+02 0.0000000000e+00 0.0000e+00 1.0000e+00
       21  1    1    2  502  501 +8.1542105750e-01 -1.4127114023e+00 +7.6289191615e+00 7.8013506894e+00 0.0000000000e+00 0.0000e+00 1.0000e+00
<mgrwt>
<rscale>  1 0.69225934E+03</rscale>
<asrwt>0</asrwt>
<pdfrwt beam="1">  1        1 0.46375085E+00 0.69225934E+03</pdfrwt>
<pdfrwt beam="2">0</pdfrwt>
<totfact> 0.68015021E-01</totfact>
</mgrwt>
</event>
<event>
 6      1 +5.6466785e-02 6.25596500e+02 7.81860800e-03 9.85368000e-02
        3 -1    0    0  502    0 +0.0000000000e+00 +0.0000000000e+00 +1.0666825395e+02 1.0666825395e+02 0.0000000000e+00 0.0000e+00 1.0000e+00
       13 -1    0    0    0    0 -0.0000000000e+00 -0.0000000000e+00 -1.0000000000e+03 1.0000000000e+03 0.0000000000e+00 0.0000e+00 1.0000e+00
  9000005  2    1    2  501    0 +2.1616617812e-01 +3.7875982987e-01 -9.0215134008e+02 1.0978378844e+03 6.2559634742e+02 0.0000e+00 0.0000e+00
       13  1    3    3    0    0 -2.7109915417e+02 -1.5375404211e+02 -4.0815206802e+02 5.1353984021e+02 0.0000000000e+00 0.0000e+00 1.0000e+00
        3  1    3    3  501    0 +2.7131532035e+02 +1.5413280194e+02 -4.9399927206e+02 5.8429804423e+02 0.0000000000e+00 0.0000e+00 1.0000e+00
       21  1    1    2  502  501 -2.1616617812e-01 -3.7875982987e-01 +8.8195940325e+00 8.8303695123e+00 0.0000000000e+00 0.0000e+00 1.0000e+00
<mgrwt>
<rscale>  1 0.62559650E+03</rscale>
<asrwt>0</asrwt>
<pdfrwt beam="1">  1        3 0.38788538E+00 0.62559650E+03</pdfrwt>
<pdfrwt beam="2">0</pdfrwt>
<totfact> 0.68872108E-02</totfact>
</mgrwt>
</event>
<event>
 6      1 +5.6466785e-02 5.84797600e+02 7.81860800e-03 9.93745800e-02
        1 -1    0    0  502    0 +0.0000000000e+00 +0.0000000000e+00 +8.5501022071e+01 8.5501022071e+01 0.0000000000e+00 0.0000e+00 1.0000e+00
       13 -1    0    0    0    0 -0.0000000000e+00 -0.0000000000e+00 -1.0000000000e+03 1.0000000000e+03 0.0000000000e+00 0.0000e+00 1.0000e+00
  9000005  2    1    2  501    0 -8.9756998847e-05 +1.5023889908e-04 -9.1450293521e+02 1.0854970609e+03 5.8479761523e+02 0.0000e+00 0.0000e+00
       13  1    3    3    0    0 -8.8517445484e+01 +1.2120967792e+02 +8.5380584704e+00 1.5033303901e+02 0.0000000000e+00 0.0000e+00 1.0000e+00
        3  1    3    3  501    0 +8.8517355727e+01 -1.2120952768e+02 -9.2304099368e+02 9.3516402191e+02 0.0000000000e+00 0.0000e+00 1.0000e+00
       21  1    1    2  502  501 +8.9756998837e-05 -1.5023889908e-04 +3.9572780297e-03 3.9611459769e-03 0.0000000000e+00 0.0000e+00 1.0000e+00
<mgrwt>
<rscale>  1 0.58479762E+03</rscale>
<asrwt>0</asrwt>
<pdfrwt beam="1">  1        1 0.31091346E+00 0.58479762E+03</pdfrwt>
<pdfrwt beam="2">0</pdfrwt>
<totfact> 0.33195702E+00</totfact>
</mgrwt>
</event>
<event>
 6      1 +5.6466785e-02 6.45342900e+02 7.81860800e-03 9.81555700e-02
        1 -1    0    0  502    0 +0.0000000000e+00 +0.0000000000e+00 +1.0461113706e+02 1.0461113706e+02 0.0000000000e+00 0.0000e+00 1.0000e+00
       13 -1    0    0    0    0 -0.0000000000e+00 -0.0000000000e+00 -1.0000000000e+03 1.0000000000e+03 0.0000000000e+00 0.0000e+00 1.0000e+00
  9000005  2    1    2  501    0 -4.1416218630e-02 +3.5553578049e-02 -8.9588146703e+02 1.1041155181e+03 6.4534290991e+02 0.0000e+00 0.0000e+00
       13  1    3    3    0    0 +1.6676181731e+02 +1.9830481726e+01 -9.1930342299e+02 9.3451673887e+02 0.0000000000e+00 0.0000e+00 1.0000e+00
        1  1    3    3  501    0 -1.6680323353e+02 -1.9794928148e+01 +2.3421955960e+01 1.6959877923e+02 0.0000000000e+00 0.0000e+00 1.0000e+00
       21  1    1    2  502  501 +4.1416218630e-02 -3.5553578049e-02 +4.9260408469e-01 4.9561895074e-01 0.0000000000e+00 0.0000e+00 -1.0000e+00
<mgrwt>
<rscale>  1 0.64534291E+03</rscale>
<asrwt>0</asrwt>
<pdfrwt beam="1">  1        1 0.38040494E+00 0.64534291E+03</pdfrwt>
<pdfrwt beam="2">0</pdfrwt>
<totfact> 0.16356346E+00</totfact>
</mgrwt>
</event>
<event>
 6      1 +5.6466785e-02 6.71504500e+02 7.81860800e-03 9.76724400e-02
        1 -1    0    0  502    0 +0.0000000000e+00 +0.0000000000e+00 +1.5780222782e+02 1.5780222782e+02 0.0000000000e+00 0.0000e+00 1.0000e+00
       13 -1    0    0    0    0 -0.0000000000e+00 -0.0000000000e+00 -1.0000000000e+03 1.0000000000e+03 0.0000000000e+00 0.0000e+00 1.0000e+00
  9000005  2    1    2  501    0 -5.9750205318e+01 +1.0317210662e+02 -7.5286201309e+02 1.0088208583e+03 6.6083563971e+02 0.0000e+00 0.0000e+00
       13  1    3    3    0    0 -2.6630366466e+02 +1.5535388259e+02 -1.0320057576e+02 3.2511971562e+02 0.0000000000e+00 0.0000e+00 1.0000e+00
        3  1    3    3  501    0 +2.0655345934e+02 -5.2181775971e+01 -6.4966143733e+02 6.8370114265e+02 0.0000000000e+00 0.0000e+00 1.0000e+00
       21  1    1    2  502  501 +5.9750205318e+01 -1.0317210662e+02 -8.9335759097e+01 1.4898136955e+02 0.0000000000e+00 0.0000e+00 1.0000e+00
<mgrwt>
<rscale>  1 0.67150451E+03</rscale>
<asrwt>0</asrwt>
<pdfrwt beam="1">  1        1 0.57382749E+00 0.67150451E+03</pdfrwt>
<pdfrwt beam="2">0</pdfrwt>
<totfact> 0.19618450E-01</totfact>
</mgrwt>
</event>
<event>
 6      1 +5.6466785e-02 5.14466600e+02 7.81860800e-03 1.01007000e-01
        1 -1    0    0  502    0 +0.0000000000e+00 +0.0000000000e+00 +6.6169000392e+01 6.6169000392e+01 0.0000000000e+00 0.0000e+00 1.0000e+00
       13 -1    0    0    0    0 -0.0000000000e+00 -0.0000000000e+00 -1.0000000000e+03 1.0000000000e+03 0.0000000000e+00 0.0000e+00 1.0000e+00
  9000005  2    1    2  501    0 +1.1107239061e-05 +2.6487333031e-05 -9.3383101572e+02 1.0661689675e+03 5.1446661820e+02 0.0000e+00 0.0000e+00
       13  1    3    3    0    0 +2.1864731447e+02 -1.1561789300e+01 -7.4671450510e+02 7.7815350364e+02 0.0000000000e+00 0.0000e+00 1.0000e+00
        3  1    3    3  501    0 -2.1864730336e+02 +1.1561815787e+01 -1.8711651063e+02 2.8801546382e+02 0.0000000000e+00 0.0000e+00 1.0000e+00
       21  1    1    2  502  501 -1.1107239060e-05 -2.6487333030e-05 +1.6114721494e-05 3.2933779306e-05 0.0000000000e+00 0.0000e+00 1.0000e+00
<mgrwt>
<rscale>  1 0.51446662E+03</rscale>
<asrwt>0</asrwt>
<pdfrwt beam="1">  1        1 0.24061505E+00 0.51446662E+03</pdfrwt>
<pdfrwt beam="2">0</pdfrwt>
<totfact> 0.67697082E+00</totfact>
</mgrwt>
</event>
<event>
 6      1 +5.6466785e-02 6.58487900e+02 7.81860800e-03 9.79098100e-02
        1 -1    0    0  502    0 +0.0000000000e+00 +0.0000000000e+00 +1.1395876834e+02 1.1395876834e+02 0.0000000000e+00 0.0000e+00 1.0000e+00
       13 -1    0    0    0    0 -0.0000000000e+00 -0.0000000000e+00 -1.0000000000e+03 1.0000000000e+03 0.0000000000e+00 0.0000e+00 1.0000e+00
  9000005  2    1    2  501    0 -6.1919080161e-01 -2.9370183457e+00 -8.9114556150e+02 1.1080373110e+03 6.5848102577e+02 0.0000e+00 0.0000e+00
       13  1    3    3    0    0 +2.4263570887e+02 -1.2714178750e+02 -7.5438916959e+02 8.0258341656e+02 0.0000000000e+00 0.0000e+00 1.0000e+00
        1  1    3    3  501    0 -2.4325489967e+02 +1.2420476915e+02 -1.3675639191e+02 3.0545389443e+02 0.0000000000e+00 0.0000e+00 1.0000e+00
       21  1    1    2  502  501 +6.1919080161e-01 +2.9370183457e+00 +5.1043298440e+00 5.9214573517e+00 0.0000000000e+00 0.0000e+00 1.0000e+00
<mgrwt>
<rscale>  1 0.65848787E+03</rscale>
<asrwt>0</asrwt>
<pdfrwt beam="1">  1        1 0.41439640E+00 0.65848787E+03</pdfrwt>
<pdfrwt beam="2">0</pdfrwt>
<totfact> 0.11515095E+00</totfact>
</mgrwt>
</event>
<event>
 6      1 +5.6466785e-02 6.49504700e+02 7.81860800e-03 9.80770900e-02
        3 -1    0    0  502    0 +0.0000000000e+00 +0.0000000000e+00 +1.0546410299e+02 1.0546410299e+02 0.0000000000e+00 0.0000e+00 1.0000e+00
       13 -1    0    0    0    0 -0.0000000000e+00 -0.0000000000e+00 -1.0000000000e+03 1.0000000000e+03 0.0000000000e+00 0.0000e+00 1.0000e+00
  9000005  2    1    2  501    0 +9.9976858792e-07 +3.0820874315e-06 -8.9453591366e+02 1.1054640860e+03 6.4950469181e+02 0.0000e+00 0.0000e+00
       13  1    3    3    0    0 -2.7065059613e+02 -1.0482522962e+02 -1.9931112144e+02 3.5208663292e+02 0.0000000000e+00 0.0000e+00 1.0000e+00
        3  1    3    3  501    0 +2.7065059713e+02 +1.0482523271e+02 -6.9522479221e+02 7.5337745311e+02 0.0000000000e+00 0.0000e+00 1.0000e+00
       21  1    1    2  502  501 -9.9976860746e-07 -3.0820874391e-06 +1.6650203925e-05 1.6962549661e-05 0.0000000000e+00 0.0000e+00 1.0000e+00
<mgrwt>
<rscale>  1 0.64950469E+03</rscale>
<asrwt>0</asrwt>
<pdfrwt beam="1">  1        3 0.38350664E+00 0.64950469E+03</pdfrwt>
<pdfrwt beam="2">0</pdfrwt>
<totfact> 0.72335562E-02</totfact>
</mgrwt>
</event>
<event>
 6      1 +5.6466785e-02 6.67664000e+02 7.81860800e-03 9.77418700e-02
        1 -1    0    0  502    0 +0.0000000000e+00 +0.0000000000e+00 +1.1351170219e+02 1.1351170219e+02 0.0000000000e+00 0.0000e+00 1.0000e+00
       13 -1    0    0    0    0 -0.0000000000e+00 -0.0000000000e+00 -1.0000000000e+03 1.0000000000e+03 0.0000000000e+00 0.0000e+00 1.0000e+00
  9000005  2    1    2  501    0 +3.4724509856e-02 +5.5555955871e-01 -8.8851447521e+02 1.1114104533e+03 6.6766377248e+02 0.0000e+00 0.0000e+00
       13  1    3    3    0    0 -1.8161506529e+02 -2.7032841670e+02 -5.6427948177e+02 6.5151578520e+02 0.0000000000e+00 0.0000e+00 1.0000e+00
        1  1    3    3  501    0 +1.8164978980e+02 +2.7088397626e+02 -3.2423499344e+02 4.5989466805e+02 0.0000000000e+00 0.0000e+00 1.0000e+00
       21  1    1    2  502  501 -3.4724509856e-02 -5.5555955871e-01 +2.0261774010e+00 2.1012489322e+00 0.0000000000e+00 0.0000e+00 1.0000e+00
<mgrwt>
<rscale>  1 0.66766400E+03</rscale>
<asrwt>0</asrwt>
<pdfrwt beam="1">  1        1 0.41277070E+00 0.66766400E+03</pdfrwt>
<pdfrwt beam="2">0</pdfrwt>
<totfact> 0.11689849E+00</totfact>
</mgrwt>
</event>
<event>
 6      1 +5.6466785e-02 6.36089800e+02 7.81860800e-03 9.83323700e-02
        1 -1    0    0  502    0 +0.0000000000e+00 +0.0000000000e+00 +1.0160845367e+02 1.0160845367e+02 0.0000000000e+00 0.0000e+00 1.0000e+00
       13 -1    0    0    0    0 -0.0000000000e+00 -0.0000000000e+00 -1.0000000000e+03 1.0000000000e+03 0.0000000000e+00 0.0000e+00 1.0000e+00
  9000005  2    1    2  501    0 +7.2373755470e-02 -4.1631165739e-02 -8.9884323379e+02 1.1011491143e+03 6.3608977824e+02 0.0000e+00 0.0000e+00
       13  1    3    3    0    0 +2.4070081308e+02 +8.1470281755e+01 -7.8060106061e+02 8.2092161870e+02 0.0000000000e+00 0.0000e+00 1.0000e+00
        3  1    3    3  501    0 -2.4062843933e+02 -8.1511912921e+01 -1.1824217318e+02 2.8022749558e+02 0.0000000000e+00 0.0000e+00 1.0000e+00
       21  1    1    2  502  501 -7.2373755470e-02 +4.1631165739e-02 +4.5168746023e-01 4.5933939105e-01 0.0000000000e+00 0.0000e+00 -1.0000e+00
<mgrwt>
<rscale>  1 0.63608978E+03</rscale>
<asrwt>0</asrwt>
<pdfrwt beam="1">  1        1 0.36948607E+00 0.63608978E+03</pdfrwt>
<pdfrwt beam="2">0</pdfrwt>
<totfact> 0.18301339E+00</totfact>
</mgrwt>
</event>
<event>
 6      1 +5.6466785e-02 6.65247800e+02 7.81860800e-03 9.77858100e-02
        1 -1    0    0  502    0 +0.0000000000e+00 +0.0000000000e+00 +1.1700844712e+02 1.1700844712e+02 0.0000000000e+00 0.0000e+00 1.0000e+00
       13 -1    0    0    0    0 -0.0000000000e+00 -0.0000000000e+00 -1.0000000000e+03 1.0000000000e+03 0.0000000000e+00 0.0000e+00 1.0000e+00
  9000005  2    1    2  501    0 +1.8963999577e-01 -5.0201112173e+00 -8.8824150495e+02 1.1097421223e+03 6.6522880977e+02 0.0000e+00 0.0000e+00
       13  1    3    3    0    0 +1.0394787242e+01 -2.1147167360e+02 -1.4875814370e+01 2.1224893449e+02 0.0000000000e+00 0.0000e+00 1.0000e+00
        1  1    3    3  501    0 -1.0205147246e+01 +2.0645156238e+02 -8.7336569058e+02 8.9749318779e+02 0.0000000000e+00 0.0000e+00 1.0000e+00
       21  1    1    2  502  501 -1.8963999577e-01 +5.0201112173e+00 +5.2499520689e+00 7.2663248405e+00 0.0000000000e+00 0.0000e+00 1.0000e+00
<mgrwt>
<rscale>  1 0.66524778E+03</rscale>
<asrwt>0</asrwt>
<pdfrwt beam="1">  1        1 0.42548616E+00 0.66524778E+03</pdfrwt>
<pdfrwt beam="2">0</pdfrwt>
<totfact> 0.10248529E+00</totfact>
</mgrwt>
</event>
<event>
 6      1 +5.6466785e-02 6.61886600e+02 7.81860800e-03 9.78472700e-02
        1 -1    0    0  502    0 +0.0000000000e+00 +0.0000000000e+00 +1.0968894813e+02 1.0968894813e+02 0.0000000000e+00 0.0000e+00 1.0000e+00
       13 -1    0    0    0    0 -0.0000000000e+00 -0.0000000000e+00 -1.0000000000e+03 1.0000000000e+03 0.0000000000e+00 0.0000e+00 1.0000e+00
  9000005  2    1    2  501    0 +6.5084472771e-02 -2.0451494487e-02 -8.9046870119e+02 1.1095171705e+03 6.6188657574e+02 0.0000e+00 0.0000e+00
       13  1    3    3    0    0 -2.5239488839e+02 -1.4156882766e+02 -1.7613661156e+02 3.3877576446e+02 0.0000000000e+00 0.0000e+00 1.0000e+00
        1  1    3    3  501    0 +2.5245997286e+02 +1.4154837616e+02 -7.1433208963e+02 7.7074140603e+02 0.0000000000e+00 0.0000e+00 1.0000e+00
       21  1    1    2  502  501 -6.5084472771e-02 +2.0451494487e-02 +1.5764931429e-01 1.7177764266e-01 0.0000000000e+00 0.0000e+00 1.0000e+00
<mgrwt>
<rscale>  1 0.66188658E+03</rscale>
<asrwt>0</asrwt>
<pdfrwt beam="1">  1        1 0.39886974E+00 0.66188658E+03</pdfrwt>
<pdfrwt beam="2">0</pdfrwt>
<totfact> 0.13504504E+00</totfact>
</mgrwt>
</event>
<event>
 6      1 +5.6466785e-02 6.56308200e+02 7.81860800e-03 9.79501400e-02
        1 -1    0    0  502    0 +0.0000000000e+00 +0.0000000000e+00 +1.0771694590e+02 1.0771694590e+02 0.0000000000e+00 0.0000e+00 1.0000e+00
       13 -1    0    0    0    0 -0.0000000000e+00 -0.0000000000e+00 -1.0000000000e+03 1.0000000000e+03 0.0000000000e+00 0.0000e+00 1.0000e+00
  9000005  2    1    2  501    0 +8.9682884641e-02 +9.0483134920e-03 -8.9209100554e+02 1.1075047961e+03 6.5630823784e+02 0.0000e+00 0.0000e+00
       13  1    3    3    0    0 +8.5793732648e+01 -3.1508871228e+02 -3.9141395356e+02 5.0975125719e+02 0.0000000000e+00 0.0000e+00 1.0000e+00
        3  1    3    3  501    0 -8.5704049764e+01 +3.1509776059e+02 -5.0067705198e+02 5.9775353889e+02 0.0000000000e+00 0.0000e+00 1.0000e+00
       21  1    1    2  502  501 -8.9682884641e-02 -9.0483134920e-03 -1.9204856080e-01 2.1214980905e-01 0.0000000000e+00 0.0000e+00 1.0000e+00
<mgrwt>
<rscale>  1 0.65630824E+03</rscale>
<asrwt>0</asrwt>
<pdfrwt beam="1">  1        1 0.39169881E+00 0.65630824E+03</pdfrwt>
<pdfrwt beam="2">0</pdfrwt>
<totfact> 0.14548659E+00</totfact>
</mgrwt>
</event>
<event>
 6      1 +5.6466785e-02 6.52629500e+02 7.81860800e-03 9.80185800e-02
        1 -1    0    0  502    0 +0.0000000000e+00 +0.0000000000e+00 +1.0648205682e+02 1.0648205682e+02 0.0000000000e+00 0.0000e+00 1.0000e+00
       13 -1    0    0    0    0 -0.0000000000e+00 -0.0000000000e+00 -1.0000000000e+03 1.0000000000e+03 0.0000000000e+00 0.0000e+00 1.0000e+00
  9000005  2    1    2  501    0 -2.1567349663e-03 -1.0596070391e-04 -8.9351608755e+02 1.1064792097e+03 6.5262948354e+02 0.0000e+00 0.0000e+00
       13  1    3    3    0    0 +1.7851308308e+02 -4.1442351956e+01 -9.0450901086e+02 9.2288728460e+02 0.0000000000e+00 0.0000e+00 1.0000e+00
        1  1    3    3  501    0 -1.7851523981e+02 +4.1442245995e+01 +1.0992923310e+01 1.8359192510e+02 0.0000000000e+00 0.0000e+00 1.0000e+00
       21  1    1    2  502  501 +2.1567349663e-03 +1.0596070390e-04 -1.8556311466e-03 2.8471214126e-03 0.0000000000e+00 0.0000e+00 -1.0000e+00
<mgrwt>
<rscale>  1 0.65262948E+03</rscale>
<asrwt>0</asrwt>
<pdfrwt beam="1">  1        1 0.38720830E+00 0.65262948E+03</pdfrwt>
<pdfrwt beam="2">0</pdfrwt>
<totfact> 0.15241505E+00</totfact>
</mgrwt>
</event>
<event>
 6      1 +5.6466785e-02 6.43615000e+02 7.81860800e-03 9.81883500e-02
        1 -1    0    0  502    0 +0.0000000000e+00 +0.0000000000e+00 +1.0447700142e+02 1.0447700142e+02 0.0000000000e+00 0.0000e+00 1.0000e+00
       13 -1    0    0    0    0 -0.0000000000e+00 -0.0000000000e+00 -1.0000000000e+03 1.0000000000e+03 0.0000000000e+00 0.0000e+00 1.0000e+00
  9000005  2    1    2  501    0 +1.2756894766e+00 -3.1994915594e-01 -8.9588831359e+02 1.1031120083e+03 6.4361362846e+02 0.0000e+00 0.0000e+00
       13  1    3    3    0    0 +1.0279364607e+02 +2.6839729280e+02 -6.9641727857e+02 7.5339277030e+02 0.0000000000e+00 0.0000e+00 1.0000e+00
        3  1    3    3  501    0 -1.0151795660e+02 -2.6871724195e+02 -1.9947103502e+02 3.4971923803e+02 0.0000000000e+00 0.0000e+00 1.0000e+00
       21  1    1    2  502  501 -1.2756894766e+00 +3.1994915594e-01 +3.6531501141e-01 1.3649930991e+00 0.0000000000e+00 0.0000e+00 -1.0000e+00
<mgrwt>
<rscale>  1 0.64361497E+03</rscale>
<asrwt>0</asrwt>
<pdfrwt beam="1">  1        1 0.37991717E+00 0.64361497E+03</pdfrwt>
<pdfrwt beam="2">0</pdfrwt>
<totfact> 0.16442837E+00</totfact>
</mgrwt>
</event>
<event>
 6      1 +5.6466785e-02 6.55357500e+02 7.81860800e-03 9.79677800e-02
        1 -1    0    0  502    0 +0.0000000000e+00 +0.0000000000e+00 +1.0737720110e+02 1.0737720110e+02 0.0000000000e+00 0.0000e+00 1.0000e+00
       13 -1    0    0    0    0 -0.0000000000e+00 -0.0000000000e+00 -1.0000000000e+03 1.0000000000e+03 0.0000000000e+00 0.0000e+00 1.0000e+00
  9000005  2    1    2  501    0 -4.9191181063e-05 +4.5987114353e-04 -8.9262660972e+02 1.1073733623e+03 6.5535753538e+02 0.0000e+00 0.0000e+00
       13  1    3    3    0    0 -1.8494629769e+02 +2.5077345387e+02 -2.7498320597e+02 4.1558178709e+02 0.0000000000e+00 0.0000e+00 1.0000e+00
        1  1    3    3  501    0 +1.8494624850e+02 -2.5077299400e+02 -6.1764340375e+02 6.9179157523e+02 0.0000000000e+00 0.0000e+00 1.0000e+00
       21  1    1    2  502  501 +4.9191181042e-05 -4.5987114353e-04 +3.8108193294e-03 3.8387817341e-03 0.0000000000e+00 0.0000e+00 -1.0000e+00
<mgrwt>
<rscale>  1 0.65535754E+03</rscale>
<asrwt>0</asrwt>
<pdfrwt beam="1">  1        1 0.39046337E+00 0.65535754E+03</pdfrwt>
<pdfrwt beam="2">0</pdfrwt>
<totfact> 0.14736069E+00</totfact>
</mgrwt>
</event>
<event>
 6      1 +5.6466785e-02 6.44424500e+02 7.81860800e-03 9.81729800e-02
        1 -1    0    0  502    0 +0.0000000000e+00 +0.0000000000e+00 +1.0382094787e+02 1.0382094787e+02 0.0000000000e+00 0.0000e+00 1.0000e+00
       13 -1    0    0    0    0 -0.0000000000e+00 -0.0000000000e+00 -1.0000000000e+03 1.0000000000e+03 0.0000000000e+00 0.0000e+00 1.0000e+00
  9000005  2    1    2  501    0 -9.9448227616e-05 -2.1978883667e-04 -8.9617919367e+02 1.1038206682e+03 6.4442448768e+02 0.0000e+00 0.0000e+00
       13  1    3    3    0    0 +2.7274108818e+02 +1.0263522365e+02 -2.1261395845e+02 3.6073035033e+02 0.0000000000e+00 0.0000e+00 1.0000e+00
        3  1    3    3  501    0 -2.7274118763e+02 -1.0263544344e+02 -6.8356523521e+02 7.4309031785e+02 0.0000000000e+00 0.0000e+00 1.0000e+00
       21  1    1    2  502  501 +9.9448227615e-05 +2.1978883667e-04 +1.4153901283e-04 2.7969693394e-04 0.0000000000e+00 0.0000e+00 -1.0000e+00
<mgrwt>
<rscale>  1 0.64442449E+03</rscale>
<asrwt>0</asrwt>
<pdfrwt beam="1">  1        1 0.37753152E+00 0.64442449E+03</pdfrwt>
<pdfrwt beam="2">0</pdfrwt>
<totfact> 0.16843456E+00</totfact>
</mgrwt>
</event>
<event>
 6      1 +5.6466785e-02 6.68648900e+02 7.81860800e-03 9.77240200e-02
        1 -1    0    0  502    0 +0.0000000000e+00 +0.0000000000e+00 +1.1819386488e+02 1.1819386488e+02 0.0000000000e+00 0.0000e+00 1.0000e+00
       13 -1    0    0    0    0 -0.0000000000e+00 -0.0000000000e+00 -1.0000000000e+03 1.0000000000e+03 0.0000000000e+00 0.0000e+00 1.0000e+00
  9000005  2    1    2  501    0 -5.8615185665e-02 +9.8031423952e-02 -8.8822659459e+02 1.1117723895e+03 6.6864889869e+02 0.0000e+00 0.0000e+00
       13  1    3    3    0    0 +2.1114525201e+02 -1.3386555122e+02 -8.1303934103e+02 8.5060876630e+02 0.0000000000e+00 0.0000e+00 1.0000e+00
        3  1    3    3  501    0 -2.1120386720e+02 +1.3396358265e+02 -7.5187253567e+01 2.6116362322e+02 0.0000000000e+00 0.0000e+00 1.0000e+00
       21  1    1    2  502  501 +5.8615185665e-02 -9.8031423952e-02 +6.4204594765e+00 6.4214753593e+00 0.0000000000e+00 0.0000e+00 -1.0000e+00
<mgrwt>
<rscale>  1 0.66864891E+03</rscale>
<asrwt>0</asrwt>
<pdfrwt beam="1">  1        1 0.42979678E+00 0.66864891E+03</pdfrwt>
<pdfrwt beam="2">0</pdfrwt>
<totfact> 0.97909203E-01</totfact>
</mgrwt>
</event>
<event>
 6      1 +5.6466785e-02 6.57197000e+02 7.81860800e-03 9.79336700e-02
        1 -1    0    0  502    0 +0.0000000000e+00 +0.0000000000e+00 +1.1411077075e+02 1.1411077075e+02 0.0000000000e+00 0.0000e+00 1.0000e+00
       13 -1    0    0    0    0 -0.0000000000e+00 -0.0000000000e+00 -1.0000000000e+03 1.0000000000e+03 0.0000000000e+00 0.0000e+00 1.0000e+00
  9000005  2    1    2  501    0 +1.4301413316e+00 -1.9848765626e+00 -8.9175157169e+02 1.1077584406e+03 6.5719244679e+02 0.0000e+00 0.0000e+00
       13  1    3    3    0    0 +1.7504859386e+02 -1.5257655761e+02 -8.4089790550e+02 8.7237085211e+02 0.0000000000e+00 0.0000e+00 1.0000e+00
        3  1    3    3  501    0 -1.7361845253e+02 +1.5059168105e+02 -5.0853666190e+01 2.3538758851e+02 0.0000000000e+00 0.0000e+00 1.0000e+00
       21  1    1    2  502  501 -1.4301413316e+00 +1.9848765626e+00 +5.8623424407e+00 6.3523301306e+00 0.0000000000e+00 0.0000e+00 1.0000e+00
<mgrwt>
<rscale>  1 0.65719700E+03</rscale>
<asrwt>0</asrwt>
<pdfrwt beam="1">  1        1 0.41494913E+00 0.65719700E+03</pdfrwt>
<pdfrwt beam="2">0</pdfrwt>
<totfact> 0.11452249E+00</totfact>
</mgrwt>
</event>
<event>
 6      1 +5.6466785e-02 6.53937500e+02 7.81860800e-03 9.79941900e-02
        1 -1    0    0  502    0 +0.0000000000e+00 +0.0000000000e+00 +1.1995779730e+02 1.1995779730e+02 0.0000000000e+00 0.0000e+00 1.0000e+00
       13 -1    0    0    0    0 -0.0000000000e+00 -0.0000000000e+00 -1.0000000000e+03 1.0000000000e+03 0.0000000000e+00 0.0000e+00 1.0000e+00
  9000005  2    1    2  501    0 -3.2362945034e+01 -1.0241560469e+01 -8.6051805754e+02 1.0807986092e+03 6.5305593666e+02 0.0000e+00 0.0000e+00
       13  1    3    3    0    0 -5.5099008461e+00 -1.2568086691e+02 +6.9185247134e+01 1.4357101983e+02 0.0000000000e+00 0.0000e+00 1.0000e+00
        3  1    3    3  501    0 -2.6853044188e+01 +1.1543930644e+02 -9.2970330468e+02 9.3722758932e+02 0.0000000000e+00 0.0000e+00 1.0000e+00
       21  1    1    2  502  501 +3.2362945034e+01 +1.0241560469e+01 -1.9524145158e+01 3.9159188147e+01 0.0000000000e+00 0.0000e+00 1.0000e+00
<mgrwt>
<rscale>  1 0.65393754E+03</rscale>
<asrwt>0</asrwt>
<pdfrwt beam="1">  1        1 0.43621109E+00 0.65393754E+03</pdfrwt>
<pdfrwt beam="2">0</pdfrwt>
<totfact> 0.91813934E-01</totfact>
</mgrwt>
</event>
<event>
 6      1 +5.6466785e-02 6.50919500e+02 7.81860800e-03 9.80505500e-02
        1 -1    0    0  502    0 +0.0000000000e+00 +0.0000000000e+00 +1.0594100035e+02 1.0594100035e+02 0.0000000000e+00 0.0000e+00 1.0000e+00
       13 -1    0    0    0    0 -0.0000000000e+00 -0.0000000000e+00 -1.0000000000e+03 1.0000000000e+03 0.0000000000e+00 0.0000e+00 1.0000e+00
  9000005  2    1    2  501    0 +3.3281262748e-03 -3.0432620901e-03 -8.9407561408e+02 1.1059237847e+03 6.5091951417e+02 0.0000e+00 0.0000e+00
       13  1    3    3    0    0 +2.5091649558e+02 -1.2348707576e+02 -1.6418009463e+02 3.2428883593e+02 0.0000000000e+00 0.0000e+00 1.0000e+00
        3  1    3    3  501    0 -2.5091316745e+02 +1.2348403250e+02 -7.2989551946e+02 7.8163494881e+02 0.0000000000e+00 0.0000e+00 1.0000e+00
       21  1    1    2  502  501 -3.3281262748e-03 +3.0432620901e-03 +1.6614434262e-02 1.7215611941e-02 0.0000000000e+00 0.0000e+00 -1.0000e+00
<mgrwt>
<rscale>  1 0.65091951E+03</rscale>
<asrwt>0</asrwt>
<pdfrwt beam="1">  1        1 0.38524081E+00 0.65091951E+03</pdfrwt>
<pdfrwt beam="2">0</pdfrwt>
<totfact> 0.15555116E+00</totfact>
</mgrwt>
</event>
<event>
 6      1 +5.6466785e-02 6.53322500e+02 7.81860800e-03 9.80056500e-02
        3 -1    0    0  502    0 +0.0000000000e+00 +0.0000000000e+00 +1.0671366830e+02 1.0671366830e+02 0.0000000000e+00 0.0000e+00 1.0000e+00
       13 -1    0    0    0    0 -0.0000000000e+00 -0.0000000000e+00 -1.0000000000e+03 1.0000000000e+03 0.0000000000e+00 0.0000e+00 1.0000e+00
  9000005  2    1    2  501    0 -1.9213535739e-04 +2.6752500513e-04 -8.9329243881e+02 1.1067075523e+03 6.5332245111e+02 0.0000e+00 0.0000e+00
       13  1    3    3    0    0 +2.9738741502e+02 -1.1682628246e+02 -3.3150835041e+02 4.6041876729e+02 0.0000000000e+00 0.0000e+00 1.0000e+00
        3  1    3    3  501    0 -2.9738760715e+02 +1.1682654998e+02 -5.6178408840e+02 6.4628878502e+02 0.0000000000e+00 0.0000e+00 1.0000e+00
       21  1    1    2  502  501 +1.9213535736e-04 -2.6752500513e-04 +6.1071098652e-03 6.1159853278e-03 0.0000000000e+00 0.0000e+00 1.0000e+00
<mgrwt>
<rscale>  1 0.65332245E+03</rscale>
<asrwt>0</asrwt>
<pdfrwt beam="1">  1        3 0.38805052E+00 0.65332245E+03</pdfrwt>
<pdfrwt beam="2">0</pdfrwt>
<totfact> 0.68411151E-02</totfact>
</mgrwt>
</event>
<event>
 6      1 +5.6466785e-02 6.53565800e+02 7.81860800e-03 9.80011100e-02
        1 -1    0    0  502    0 +0.0000000000e+00 +0.0000000000e+00 +1.0688559084e+02 1.0688559084e+02 0.0000000000e+00 0.0000e+00 1.0000e+00
       13 -1    0    0    0    0 -0.0000000000e+00 -0.0000000000e+00 -1.0000000000e+03 1.0000000000e+03 0.0000000000e+00 0.0000e+00 1.0000e+00
  9000005  2    1    2  501    0 +6.0300260789e-03 +1.1540824289e-01 -8.9317391766e+02 1.1067556036e+03 6.5356583872e+02 0.0000e+00 0.0000e+00
       13  1    3    3    0    0 +2.6340536336e+02 -1.7884386985e+02 -3.2210147948e+02 4.5289830902e+02 0.0000000000e+00 0.0000e+00 1.0000e+00
        3  1    3    3  501    0 -2.6339933333e+02 +1.7895927810e+02 -5.7107243818e+02 6.5385729457e+02 0.0000000000e+00 0.0000e+00 1.0000e+00
       21  1    1    2  502  501 -6.0300260789e-03 -1.1540824289e-01 +5.9508496133e-02 1.2998724881e-01 0.0000000000e+00 0.0000e+00 -1.0000e+00
<mgrwt>
<rscale>  1 0.65356585E+03</rscale>
<asrwt>0</asrwt>
<pdfrwt beam="1">  1        1 0.38867570E+00 0.65356585E+03</pdfrwt>
<pdfrwt beam="2">0</pdfrwt>
<totfact> 0.15012466E+00</totfact>
</mgrwt>
</event>
<event>
 6      1 +5.6466785e-02 6.37504400e+02 7.81860800e-03 9.83051300e-02
        1 -1    0    0  502    0 +0.0000000000e+00 +0.0000000000e+00 +1.0160297718e+02 1.0160297718e+02 0.0000000000e+00 0.0000e+00 1.0000e+00
       13 -1    0    0    0    0 -0.0000000000e+00 -0.0000000000e+00 -1.0000000000e+03 1.0000000000e+03 0.0000000000e+00 0.0000e+00 1.0000e+00
  9000005  2    1    2  501    0 -1.1986376762e-06 +3.0159296216e-06 -8.9839702406e+02 1.1016029737e+03 6.3750443046e+02 0.0000e+00 0.0000e+00
       13  1    3    3    0    0 +1.2751678947e+02 -2.3954283249e+02 -1.6024799464e+02 3.1515189985e+02 0.0000000000e+00 0.0000e+00 1.0000e+00
        1  1    3    3  501    0 -1.2751679066e+02 +2.3954283551e+02 -7.3814902941e+02 7.8645107386e+02 0.0000000000e+00 0.0000e+00 1.0000e+00
       21  1    1    2  502  501 +1.1986376880e-06 -3.0159296029e-06 +1.2403944168e-06 3.4743549022e-06 0.0000000000e+00 0.0000e+00 1.0000e+00
<mgrwt>
<rscale>  1 0.63750443E+03</rscale>
<asrwt>0</asrwt>
<pdfrwt beam="1">  1        1 0.36946615E+00 0.63750443E+03</pdfrwt>
<pdfrwt beam="2">0</pdfrwt>
<totfact> 0.18300307E+00</totfact>
</mgrwt>
</event>
<event>
 6      1 +5.6466785e-02 6.56365900e+02 7.81860800e-03 9.79490700e-02
        1 -1    0    0  502    0 +0.0000000000e+00 +0.0000000000e+00 +1.0770473557e+02 1.0770473557e+02 0.0000000000e+00 0.0000e+00 1.0000e+00
       13 -1    0    0    0    0 -0.0000000000e+00 -0.0000000000e+00 -1.0000000000e+03 1.0000000000e+03 0.0000000000e+00 0.0000e+00 1.0000e+00
  9000005  2    1    2  501    0 -2.1759465056e-04 -7.5973204395e-04 -8.9229566779e+02 1.1077038483e+03 6.5636594732e+02 0.0000e+00 0.0000e+00
       13  1    3    3    0    0 -1.5284931654e+02 -2.6757030269e+02 -2.5560642929e+02 4.0036411821e+02 0.0000000000e+00 0.0000e+00 1.0000e+00
        3  1    3    3  501    0 +1.5284909895e+02 +2.6756954296e+02 -6.3668923849e+02 7.0733973010e+02 0.0000000000e+00 0.0000e+00 1.0000e+00
       21  1    1    2  502  501 +2.1759465057e-04 +7.5973204396e-04 +4.0335954879e-04 8.8726497518e-04 0.0000000000e+00 0.0000e+00 -1.0000e+00
<mgrwt>
<rscale>  1 0.65636595E+03</rscale>
<asrwt>0</asrwt>
<pdfrwt beam="1">  1        1 0.39165441E+00 0.65636595E+03</pdfrwt>
<pdfrwt beam="2">0</pdfrwt>
<totfact> 0.14555107E+00</totfact>
</mgrwt>
</event>
<event>
 6      1 +5.6466785e-02 6.26361500e+02 7.81860800e-03 9.85217500e-02
        1 -1    0    0  502    0 +0.0000000000e+00 +0.0000000000e+00 +9.8083308958e+01 9.8083308958e+01 0.0000000000e+00 0.0000e+00 1.0000e+00
       13 -1    0    0    0    0 -0.0000000000e+00 -0.0000000000e+00 -1.0000000000e+03 1.0000000000e+03 0.0000000000e+00 0.0000e+00 1.0000e+00
  9000005  2    1    2  501    0 +1.6198816161e-04 +4.8791806620e-05 -9.0191779848e+02 1.0980821887e+03 6.2636153927e+02 0.0000e+00 0.0000e+00
       13  1    3    3    0    0 +1.6852421885e+02 +2.5582014607e+02 -5.6508478794e+02 6.4277925996e+02 0.0000000000e+00 0.0000e+00 1.0000e+00
        3  1    3    3  501    0 -1.6852405686e+02 -2.5582009728e+02 -3.3683301054e+02 4.5530292872e+02 0.0000000000e+00 0.0000e+00 1.0000e+00
       21  1    1    2  502  501 -1.6198816160e-04 -4.8791806633e-05 +1.1074334960e-03 1.1202811045e-03 0.0000000000e+00 0.0000e+00 1.0000e+00
<mgrwt>
<rscale>  1 0.62636154E+03</rscale>
<asrwt>0</asrwt>
<pdfrwt beam="1">  1        1 0.35666733E+00 0.62636154E+03</pdfrwt>
<pdfrwt beam="2">0</pdfrwt>
<totfact> 0.20863173E+00</totfact>
</mgrwt>
</event>
<event>
 6      1 +5.6466785e-02 6.47050300e+02 7.81860800e-03 9.81233000e-02
        1 -1    0    0  502    0 +0.0000000000e+00 +0.0000000000e+00 +1.1313756993e+02 1.1313756993e+02 0.0000000000e+00 0.0000e+00 1.0000e+00
       13 -1    0    0    0    0 -0.0000000000e+00 -0.0000000000e+00 -1.0000000000e+03 1.0000000000e+03 0.0000000000e+00 0.0000e+00 1.0000e+00
  9000005  2    1    2  501    0 +9.3906997079e+00 -1.8946168591e+01 -8.7684489527e+02 1.0897389899e+03 6.4670468775e+02 0.0000e+00 0.0000e+00
       13  1    3    3    0    0 +2.4677704902e+02 +1.2686459804e+02 -7.1637669929e+02 7.6823766729e+02 0.0000000000e+00 0.0000e+00 1.0000e+00
        1  1    3    3  501    0 -2.3738634931e+02 -1.4581076663e+02 -1.6046819598e+02 3.2150132259e+02 0.0000000000e+00 0.0000e+00 1.0000e+00
       21  1    1    2  502  501 -9.3906997079e+00 +1.8946168591e+01 -1.0017534795e+01 2.3398580056e+01 0.0000000000e+00 0.0000e+00 1.0000e+00
<mgrwt>
<rscale>  1 0.64705030E+03</rscale>
<asrwt>0</asrwt>
<pdfrwt beam="1">  1        1 0.41141021E+00 0.64705030E+03</pdfrwt>
<pdfrwt beam="2">0</pdfrwt>
<totfact> 0.11902638E+00</totfact>
</mgrwt>
</event>
<event>
 6      1 +5.6466785e-02 6.41089200e+02 7.81860800e-03 9.82364500e-02
        1 -1    0    0  502    0 +0.0000000000e+00 +0.0000000000e+00 +1.0274892490e+02 1.0274892490e+02 0.0000000000e+00 0.0000e+00 1.0000e+00
       13 -1    0    0    0    0 -0.0000000000e+00 -0.0000000000e+00 -1.0000000000e+03 1.0000000000e+03 0.0000000000e+00 0.0000e+00 1.0000e+00
  9000005  2    1    2  501    0 -1.0715011001e-05 -6.0819159984e-06 -8.9725116748e+02 1.1027488317e+03 6.4108917342e+02 0.0000e+00 0.0000e+00
       13  1    3    3    0    0 +2.7211665818e+02 +2.6391096319e+01 -7.3648131622e+02 7.8558812031e+02 0.0000000000e+00 0.0000e+00 1.0000e+00
        3  1    3    3  501    0 -2.7211666890e+02 -2.6391102401e+01 -1.6076985126e+02 3.1716071139e+02 0.0000000000e+00 0.0000e+00 1.0000e+00
       21  1    1    2  502  501 +1.0715010957e-05 +6.0819159990e-06 +9.2376441045e-05 9.3194463474e-05 0.0000000000e+00 0.0000e+00 1.0000e+00
<mgrwt>
<rscale>  1 0.64108917E+03</rscale>
<asrwt>0</asrwt>
<pdfrwt beam="1">  1        1 0.37363324E+00 0.64108917E+03</pdfrwt>
<pdfrwt beam="2">0</pdfrwt>
<totfact> 0.17533171E+00</totfact>
</mgrwt>
</event>
<event>
 6      1 +5.6466785e-02 6.32079000e+02 7.81860800e-03 9.84100000e-02
        1 -1    0    0  502    0 +0.0000000000e+00 +0.0000000000e+00 +9.9881022199e+01 9.9881022199e+01 0.0000000000e+00 0.0000e+00 1.0000e+00
       13 -1    0    0    0    0 -0.0000000000e+00 -0.0000000000e+00 -1.0000000000e+03 1.0000000000e+03 0.0000000000e+00 0.0000e+00 1.0000e+00
  9000005  2    1    2  501    0 +5.2193902889e-06 +8.3506265014e-06 -9.0011903093e+02 1.0998809682e+03 6.3207900952e+02 0.0000e+00 0.0000e+00
       13  1    3    3    0    0 +2.4039429015e+02 +1.9614438310e+02 -5.5473980124e+02 6.3560859091e+02 0.0000000000e+00 0.0000e+00 1.0000e+00
        3  1    3    3  501    0 -2.4039428494e+02 -1.9614437475e+02 -3.4537922969e+02 4.6427237725e+02 0.0000000000e+00 0.0000e+00 1.0000e+00
       21  1    1    2  502  501 -5.2193902663e-06 -8.3506264982e-06 +5.3131582080e-05 5.4036469278e-05 0.0000000000e+00 0.0000e+00 -1.0000e+00
<mgrwt>
<rscale>  1 0.63207901E+03</rscale>
<asrwt>0</asrwt>
<pdfrwt beam="1">  1        1 0.36320448E+00 0.63207901E+03</pdfrwt>
<pdfrwt beam="2">0</pdfrwt>
<totfact> 0.19513843E+00</totfact>
</mgrwt>
</event>
<event>
 6      1 +5.6466785e-02 6.25950900e+02 7.81860800e-03 9.85298200e-02
        1 -1    0    0  502    0 +0.0000000000e+00 +0.0000000000e+00 +9.7975980223e+01 9.7975980223e+01 0.0000000000e+00 0.0000e+00 1.0000e+00
       13 -1    0    0    0    0 -0.0000000000e+00 -0.0000000000e+00 -1.0000000000e+03 1.0000000000e+03 0.0000000000e+00 0.0000e+00 1.0000e+00
  9000005  2    1    2  501    0 +6.6783609984e-03 +2.4814199871e-03 -9.0204575593e+02 1.0979531063e+03 6.2595085885e+02 0.0000e+00 0.0000e+00
       13  1    3    3    0    0 -1.1697309647e+02 -2.7198715466e+02 -2.7306753744e+02 4.0277238932e+02 0.0000000000e+00 0.0000e+00 1.0000e+00
        3  1    3    3  501    0 +1.1697977483e+02 +2.7198963608e+02 -6.2897821849e+02 6.9518071693e+02 0.0000000000e+00 0.0000e+00 1.0000e+00
       21  1    1    2  502  501 -6.6783609984e-03 -2.4814199871e-03 +2.1736152888e-02 2.2873965401e-02 0.0000000000e+00 0.0000e+00 -1.0000e+00
<mgrwt>
<rscale>  1 0.62595086E+03</rscale>
<asrwt>0</asrwt>
<pdfrwt beam="1">  1        1 0.35627704E+00 0.62595086E+03</pdfrwt>
<pdfrwt beam="2">0</pdfrwt>
<totfact> 0.20946770E+00</totfact>
</mgrwt>
</event>
<event>
 6      1 +5.6466785e-02 6.46866900e+02 7.81860800e-03 9.81267600e-02
        1 -1    0    0  502    0 +0.0000000000e+00 +0.0000000000e+00 +1.0461140802e+02 1.0461140802e+02 0.0000000000e+00 0.0000e+00 1.0000e+00
       13 -1    0    0    0    0 -0.0000000000e+00 -0.0000000000e+00 -1.0000000000e+03 1.0000000000e+03 0.0000000000e+00 0.0000e+00 1.0000e+00
  9000005  2    1    2  501    0 -1.9397032033e-03 -3.3579220461e-03 -8.9538873659e+02 1.1046075274e+03 6.4686691058e+02 0.0000e+00 0.0000e+00
       13  1    3    3    0    0 -6.1894605388e+00 -1.1855610921e+02 +6.6058662352e+01 1.3585877713e+02 0.0000000000e+00 0.0000e+00 1.0000e+00
        3  1    3    3  501    0 +6.1875208356e+00 +1.1855275128e+02 -9.6144739895e+02 9.6874875029e+02 0.0000000000e+00 0.0000e+00 1.0000e+00
       21  1    1    2  502  501 +1.9397032033e-03 +3.3579220461e-03 +1.4461025695e-04 3.8805928814e-03 0.0000000000e+00 0.0000e+00 -1.0000e+00
<mgrwt>
<rscale>  1 0.64686691E+03</rscale>
<asrwt>0</asrwt>
<pdfrwt beam="1">  1        1 0.38040592E+00 0.64686691E+03</pdfrwt>
<pdfrwt beam="2">0</pdfrwt>
<totfact> 0.16351596E+00</totfact>
</mgrwt>
</event>
<event>
 6      1 +5.6466785e-02 6.45504900e+02 7.81860800e-03 9.81525100e-02
        1 -1    0    0  502    0 +0.0000000000e+00 +0.0000000000e+00 +1.0416913660e+02 1.0416913660e+02 0.0000000000e+00 0.0000e+00 1.0000e+00
       13 -1    0    0    0    0 -0.0000000000e+00 -0.0000000000e+00 -1.0000000000e+03 1.0000000000e+03 0.0000000000e+00 0.0000e+00 1.0000e+00
  9000005  2    1    2  501    0 -6.7669878092e-06 -1.8733811658e-07 -8.9583086152e+02 1.1041691296e+03 6.4550486771e+02 0.0000e+00 0.0000e+00
       13  1    3    3    0    0 -2.2300065455e+02 +1.7001755468e+02 -1.7458094323e+02 3.3032372995e+02 0.0000000000e+00 0.0000e+00 1.0000e+00
        3  1    3    3  501    0 +2.2300064778e+02 -1.7001755486e+02 -7.2124991830e+02 7.7384539962e+02 0.0000000000e+00 0.0000e+00 1.0000e+00
       21  1    1    2  502  501 +6.7669878070e-06 +1.8733814320e-07 -1.8806251362e-06 7.0259497908e-06 0.0000000000e+00 0.0000e+00 1.0000e+00
<mgrwt>
<rscale>  1 0.64550487E+03</rscale>
<asrwt>0</asrwt>
<pdfrwt beam="1">  1        1 0.37879766E+00 0.64550487E+03</pdfrwt>
<pdfrwt beam="2">0</pdfrwt>
<totfact> 0.16625071E+00</totfact>
</mgrwt>
</event>
<event>
 6      1 +5.6466785e-02 6.56291800e+02 7.81860800e-03 9.79504400e-02
        1 -1    0    0  502    0 +0.0000000000e+00 +0.0000000000e+00 +1.0770529970e+02 1.0770529970e+02 0.0000000000e+00 0.0000e+00 1.0000e+00
       13 -1    0    0    0    0 -0.0000000000e+00 -0.0000000000e+00 -1.0000000000e+03 1.0000000000e+03 0.0000000000e+00 0.0000e+00 1.0000e+00
  9000005  2    1    2  501    0 -3.4777971488e-02 +3.3383469311e-02 -8.9229204229e+02 1.1076570190e+03 6.5629184105e+02 0.0000e+00 0.0000e+00
       13  1    3    3    0    0 -5.8198261847e+01 -3.1777938058e+02 -3.4916864190e+02 4.7569897298e+02 0.0000000000e+00 0.0000e+00 1.0000e+00
        1  1    3    3  501    0 +5.8163483876e+01 +3.1781276405e+02 -5.4312340039e+02 6.3195804600e+02 0.0000000000e+00 0.0000e+00 1.0000e+00
       21  1    1    2  502  501 +3.4777971488e-02 -3.3383469311e-02 -2.6580045090e-03 4.8280724022e-02 0.0000000000e+00 0.0000e+00 1.0000e+00
<mgrwt>
<rscale>  1 0.65629184E+03</rscale>
<asrwt>0</asrwt>
<pdfrwt beam="1">  1        1 0.39165646E+00 0.65629184E+03</pdfrwt>
<pdfrwt beam="2">0</pdfrwt>
<totfact> 0.14555002E+00</totfact>
</mgrwt>
</event>
<event>
 6      1 +5.6466785e-02 6.40941700e+02 7.81860800e-03 9.82392600e-02
        1 -1    0    0  502    0 +0.0000000000e+00 +0.0000000000e+00 +1.0283229195e+02 1.0283229195e+02 0.0000000000e+00 0.0000e+00 1.0000e+00
       13 -1    0    0    0    0 -0.0000000000e+00 -0.0000000000e+00 -1.0000000000e+03 1.0000000000e+03 0.0000000000e+00 0.0000e+00 1.0000e+00
  9000005  2    1    2  501    0 +4.6085870906e-02 -2.0694896449e-04 -8.9729392998e+02 1.1026979196e+03 6.4094173135e+02 0.0000e+00 0.0000e+00
       13  1    3    3    0    0 +2.5062652664e+02 -1.9355803845e+02 -3.6377978719e+02 4.8230084354e+02 0.0000000000e+00 0.0000e+00 1.0000e+00
        3  1    3    3  501    0 -2.5058044077e+02 +1.9355783150e+02 -5.3351414279e+02 6.2039707607e+02 0.0000000000e+00 0.0000e+00 1.0000e+00
       21  1    1    2  502  501 -4.6085870906e-02 +2.0694896448e-04 +1.2622192941e-01 1.3437234012e-01 0.0000000000e+00 0.0000e+00 1.0000e+00
<mgrwt>
<rscale>  1 0.64094173E+03</rscale>
<asrwt>0</asrwt>
<pdfrwt beam="1">  1        1 0.37393640E+00 0.64094173E+03</pdfrwt>
<pdfrwt beam="2">0</pdfrwt>
<totfact> 0.17479882E+00</totfact>
</mgrwt>
</event>
<event>
 6      1 +5.6466785e-02 6.48137700e+02 7.81860800e-03 9.81028000e-02
        1 -1    0    0  502    0 +0.0000000000e+00 +0.0000000000e+00 +1.0502538447e+02 1.0502538447e+02 0.0000000000e+00 0.0000e+00 1.0000e+00
       13 -1    0    0    0    0 -0.0000000000e+00 -0.0000000000e+00 -1.0000000000e+03 1.0000000000e+03 0.0000000000e+00 0.0000e+00 1.0000e+00
  9000005  2    1    2  501    0 -7.3250927485e-05 +1.1628141434e-04 -8.9497939481e+02 1.1050206032e+03 6.4813765236e+02 0.0000e+00 0.0000e+00
       13  1    3    3    0    0 +1.0606598663e+02 -1.6652363714e+02 -8.8562486816e+02 9.0736515381e+02 0.0000000000e+00 0.0000e+00 1.0000e+00
        1  1    3    3  501    0 -1.0606605988e+02 +1.6652375342e+02 -9.3545266475e+00 1.9765544941e+02 0.0000000000e+00 0.0000e+00 1.0000e+00
       21  1    1    2  502  501 +7.3250927484e-05 -1.1628141434e-04 +4.7792761741e-03 4.7812516995e-03 0.0000000000e+00 0.0000e+00 -1.0000e+00
<mgrwt>
<rscale>  1 0.64813765E+03</rscale>
<asrwt>0</asrwt>
<pdfrwt beam="1">  1        1 0.38191129E+00 0.64813765E+03</pdfrwt>
<pdfrwt beam="2">0</pdfrwt>
<totfact> 0.16099514E+00</totfact>
</mgrwt>
</event>
<event>
 6      1 +5.6466785e-02 6.10251300e+02 7.81860800e-03 9.88436300e-02
        1 -1    0    0  502    0 +0.0000000000e+00 +0.0000000000e+00 +9.4634066491e+01 9.4634066491e+01 0.0000000000e+00 0.0000e+00 1.0000e+00
       13 -1    0    0    0    0 -0.0000000000e+00 -0.0000000000e+00 -1.0000000000e+03 1.0000000000e+03 0.0000000000e+00 0.0000e+00 1.0000e+00
  9000005  2    1    2  501    0 +2.9988675086e-02 -4.1279685335e-03 -9.0689817336e+02 1.0931015276e+03 6.1025130233e+02 0.0000e+00 0.0000e+00
       13  1    3    3    0    0 -3.6952674123e+01 +1.2081077741e+02 -9.5094125572e+02 9.5929662560e+02 0.0000000000e+00 0.0000e+00 1.0000e+00
        1  1    3    3  501    0 +3.6982662798e+01 -1.2081490538e+02 +4.4043082360e+01 1.3380490205e+02 0.0000000000e+00 0.0000e+00 1.0000e+00
       21  1    1    2  502  501 -2.9988675086e-02 +4.1279685335e-03 +1.5322398469e+00 1.5325388442e+00 0.0000000000e+00 0.0000e+00 1.0000e+00
<mgrwt>
<rscale>  1 0.61025130E+03</rscale>
<asrwt>0</asrwt>
<pdfrwt beam="1">  1        1 0.34412460E+00 0.61025130E+03</pdfrwt>
<pdfrwt beam="2">0</pdfrwt>
<totfact> 0.23729760E+00</totfact>
</mgrwt>
</event>
<event>
 6      1 +5.6466785e-02 6.92445400e+02 7.81860800e-03 9.73024000e-02
        1 -1    0    0  502    0 +0.0000000000e+00 +0.0000000000e+00 +1.1999732729e+02 1.1999732729e+02 0.0000000000e+00 0.0000e+00 1.0000e+00
       13 -1    0    0    0    0 -0.0000000000e+00 -0.0000000000e+00 -1.0000000000e+03 1.0000000000e+03 0.0000000000e+00 0.0000e+00 1.0000e+00
  9000005  2    1    2  501    0 +1.9537214838e-01 +1.4031534894e-02 -8.8003833769e+02 1.1197982315e+03 6.9244535162e+02 0.0000e+00 0.0000e+00
       13  1    3    3    0    0 -2.5128128179e+02 -2.2491629531e+02 -3.1374017667e+02 4.6061102997e+02 0.0000000000e+00 0.0000e+00 1.0000e+00
        1  1    3    3  501    0 +2.5147665394e+02 +2.2493032685e+02 -5.6629816103e+02 6.5918720148e+02 0.0000000000e+00 0.0000e+00 1.0000e+00
       21  1    1    2  502  501 -1.9537214838e-01 -1.4031534894e-02 +3.5664978472e-02 1.9909583377e-01 0.0000000000e+00 0.0000e+00 1.0000e+00
<mgrwt>
<rscale>  1 0.69244538E+03</rscale>
<asrwt>0</asrwt>
<pdfrwt beam="1">  1        1 0.43635484E+00 0.69244538E+03</pdfrwt>
<pdfrwt beam="2">0</pdfrwt>
<totfact> 0.90980535E-01</totfact>
</mgrwt>
</event>
<event>
 6      1 +5.6466785e-02 5.63115400e+02 7.81860800e-03 9.98503000e-02
        1 -1    0    0  502    0 +0.0000000000e+00 +0.0000000000e+00 +7.9274806575e+01 7.9274806575e+01 0.0000000000e+00 0.0000e+00 1.0000e+00
       13 -1    0    0    0    0 -0.0000000000e+00 -0.0000000000e+00 -1.0000000000e+03 1.0000000000e+03 0.0000000000e+00 0.0000e+00 1.0000e+00
  9000005  2    1    2  501    0 -4.0206859005e-05 -2.9516254870e-05 -9.2072524942e+02 1.0792747316e+03 5.6311540674e+02 0.0000e+00 0.0000e+00
       13  1    3    3    0    0 +5.6454424671e+01 +2.3925366702e+02 -1.9725325915e+02 3.1517973839e+02 0.0000000000e+00 0.0000e+00 1.0000e+00
        1  1    3    3  501    0 -5.6454464878e+01 -2.3925369653e+02 -7.2347199028e+02 7.6409499320e+02 0.0000000000e+00 0.0000e+00 1.0000e+00
       21  1    1    2  502  501 +4.0206859009e-05 +2.9516254851e-05 +5.5998595777e-05 7.4990956394e-05 0.0000000000e+00 0.0000e+00 -1.0000e+00
<mgrwt>
<rscale>  1 0.56311541E+03</rscale>
<asrwt>0</asrwt>
<pdfrwt beam="1">  1        1 0.28827263E+00 0.56311541E+03</pdfrwt>
<pdfrwt beam="2">0</pdfrwt>
<totfact> 0.41727305E+00</totfact>
</mgrwt>
</event>
<event>
 6      1 +5.6466785e-02 6.55716000e+02 7.81860800e-03 9.79611200e-02
        1 -1    0    0  502    0 +0.0000000000e+00 +0.0000000000e+00 +1.0751189907e+02 1.0751189907e+02 0.0000000000e+00 0.0000e+00 1.0000e+00
       13 -1    0    0    0    0 -0.0000000000e+00 -0.0000000000e+00 -1.0000000000e+03 1.0000000000e+03 0.0000000000e+00 0.0000e+00 1.0000e+00
  9000005  2    1    2  501    0 -2.9599663399e-03 -1.5078603375e-03 -8.9250897139e+02 1.1074907659e+03 6.5571604563e+02 0.0000e+00 0.0000e+00
       13  1    3    3    0    0 +7.4998399199e+01 -3.1159582925e+02 -3.2955142220e+02 4.5969648744e+02 0.0000000000e+00 0.0000e+00 1.0000e+00
        3  1    3    3  501    0 -7.5001359165e+01 +3.1159432139e+02 -5.6295754919e+02 6.4779427845e+02 0.0000000000e+00 0.0000e+00 1.0000e+00
       21  1    1    2  502  501 +2.9599663399e-03 +1.5078603375e-03 +2.0870462416e-02 2.1133178772e-02 0.0000000000e+00 0.0000e+00 -1.0000e+00
<mgrwt>
<rscale>  1 0.65571605E+03</rscale>
<asrwt>0</asrwt>
<pdfrwt beam="1">  1        1 0.39095318E+00 0.65571605E+03</pdfrwt>
<pdfrwt beam="2">0</pdfrwt>
<totfact> 0.14661545E+00</totfact>
</mgrwt>
</event>
<event>
 6      1 +5.6466785e-02 6.61661200e+02 7.81860800e-03 9.78514100e-02
        1 -1    0    0  502    0 +0.0000000000e+00 +0.0000000000e+00 +1.0946304034e+02 1.0946304034e+02 0.0000000000e+00 0.0000e+00 1.0000e+00
       13 -1    0    0    0    0 -0.0000000000e+00 -0.0000000000e+00 -1.0000000000e+03 1.0000000000e+03 0.0000000000e+00 0.0000e+00 1.0000e+00
  9000005  2    1    2  501    0 -9.9792411305e-04 -1.5777000127e-04 -8.9055109658e+02 1.1094488674e+03 6.6166119252e+02 0.0000e+00 0.0000e+00
       13  1    3    3    0    0 -2.7247607919e+02 -1.8518474026e+02 -4.9592946317e+02 5.9538444236e+02 0.0000000000e+00 0.0000e+00 1.0000e+00
        3  1    3    3  501    0 +2.7247508127e+02 +1.8518458249e+02 -3.9462163341e+02 5.1406442501e+02 0.0000000000e+00 0.0000e+00 1.0000e+00
       21  1    1    2  502  501 +9.9792411308e-04 +1.5777000128e-04 +1.4136916580e-02 1.4172972670e-02 0.0000000000e+00 0.0000e+00 1.0000e+00
<mgrwt>
<rscale>  1 0.66166119E+03</rscale>
<asrwt>0</asrwt>
<pdfrwt beam="1">  1        1 0.39804826E+00 0.66166119E+03</pdfrwt>
<pdfrwt beam="2">0</pdfrwt>
<totfact> 0.13619369E+00</totfact>
</mgrwt>
</event>
<event>
 6      1 +5.6466785e-02 6.40328400e+02 7.81860800e-03 9.82509800e-02
        1 -1    0    0  502    0 +0.0000000000e+00 +0.0000000000e+00 +1.0265769125e+02 1.0265769125e+02 0.0000000000e+00 0.0000e+00 1.0000e+00
       13 -1    0    0    0    0 -0.0000000000e+00 -0.0000000000e+00 -1.0000000000e+03 1.0000000000e+03 0.0000000000e+00 0.0000e+00 1.0000e+00
  9000005  2    1    2  501    0 +4.4777011889e-02 +2.4965838696e-01 -8.9736899180e+02 1.1024026495e+03 6.4032837662e+02 0.0000e+00 0.0000e+00
       13  1    3    3    0    0 +6.6629614597e+01 -2.9610862547e+02 -6.2337614110e+02 6.9333803943e+02 0.0000000000e+00 0.0000e+00 1.0000e+00
        1  1    3    3  501    0 -6.6584837586e+01 +2.9635828386e+02 -2.7399285070e+02 4.0906461011e+02 0.0000000000e+00 0.0000e+00 1.0000e+00
       21  1    1    2  502  501 -4.4777011889e-02 -2.4965838696e-01 +2.6683049048e-02 2.5504171439e-01 0.0000000000e+00 0.0000e+00 -1.0000e+00
<mgrwt>
<rscale>  1 0.64032843E+03</rscale>
<asrwt>0</asrwt>
<pdfrwt beam="1">  1        1 0.37330148E+00 0.64032843E+03</pdfrwt>
<pdfrwt beam="2">0</pdfrwt>
<totfact> 0.17594630E+00</totfact>
</mgrwt>
</event>
<event>
 6      1 +5.6466785e-02 6.57929100e+02 7.81860800e-03 9.79201300e-02
        1 -1    0    0  502    0 +0.0000000000e+00 +0.0000000000e+00 +1.0821841980e+02 1.0821841980e+02 0.0000000000e+00 0.0000e+00 1.0000e+00
       13 -1    0    0    0    0 -0.0000000000e+00 -0.0000000000e+00 -1.0000000000e+03 1.0000000000e+03 0.0000000000e+00 0.0000e+00 1.0000e+00
  9000005  2    1    2  501    0 -1.4264263481e-04 +1.7767277475e-04 -8.9178229446e+02 1.1082176701e+03 6.5792913262e+02 0.0000e+00 0.0000e+00
       13  1    3    3    0    0 -2.5057028921e+02 -1.3650818431e+02 -1.7015415983e+02 3.3222340725e+02 0.0000000000e+00 0.0000e+00 1.0000e+00
        3  1    3    3  501    0 +2.5057014657e+02 +1.3650836198e+02 -7.2162813464e+02 7.7599426283e+02 0.0000000000e+00 0.0000e+00 1.0000e+00
       21  1    1    2  502  501 +1.4264263481e-04 -1.7767277476e-04 +7.1426640745e-04 7.4972730840e-04 0.0000000000e+00 0.0000e+00 -1.0000e+00
<mgrwt>
<rscale>  1 0.65792913E+03</rscale>
<asrwt>0</asrwt>
<pdfrwt beam="1">  1        1 0.39352236E+00 0.65792913E+03</pdfrwt>
<pdfrwt beam="2">0</pdfrwt>
<totfact> 0.14275580E+00</totfact>
</mgrwt>
</event>
<event>
 6      1 +5.6466785e-02 5.96824000e+02 7.81860800e-03 9.91201700e-02
        1 -1    0    0  502    0 +0.0000000000e+00 +0.0000000000e+00 +8.9066052499e+01 8.9066052499e+01 0.0000000000e+00 0.0000e+00 1.0000e+00
       13 -1    0    0    0    0 -0.0000000000e+00 -0.0000000000e+00 -1.0000000000e+03 1.0000000000e+03 0.0000000000e+00 0.0000e+00 1.0000e+00
  9000005  2    1    2  501    0 +6.3511574456e-04 +2.2656953748e-02 -9.1094129903e+02 1.0890422242e+03 5.9682402380e+02 0.0000e+00 0.0000e+00
       13  1    3    3    0    0 +2.8033716781e+02 +6.4494685316e+01 -6.0034128570e+02 6.6570124786e+02 0.0000000000e+00 0.0000e+00 1.0000e+00
        1  1    3    3  501    0 -2.8033653269e+02 -6.4472028362e+01 -3.1060001333e+02 4.2334097638e+02 0.0000000000e+00 0.0000e+00 1.0000e+00
       21  1    1    2  502  501 -6.3511574453e-04 -2.2656953748e-02 +7.3515282366e-03 2.3828258278e-02 0.0000000000e+00 0.0000e+00 -1.0000e+00
<mgrwt>
<rscale>  1 0.59682402E+03</rscale>
<asrwt>0</asrwt>
<pdfrwt beam="1">  1        1 0.32387724E+00 0.59682402E+03</pdfrwt>
<pdfrwt beam="2">0</pdfrwt>
<totfact> 0.29115360E+00</totfact>
</mgrwt>
</event>
<event>
 6      1 +5.6466785e-02 6.58447800e+02 7.81860800e-03 9.79105500e-02
        1 -1    0    0  502    0 +0.0000000000e+00 +0.0000000000e+00 +1.0891619162e+02 1.0891619162e+02 0.0000000000e+00 0.0000e+00 1.0000e+00
       13 -1    0    0    0    0 -0.0000000000e+00 -0.0000000000e+00 -1.0000000000e+03 1.0000000000e+03 0.0000000000e+00 0.0000e+00 1.0000e+00
  9000005  2    1    2  501    0 +3.1703531224e-01 +1.5790656974e-01 -8.9154494444e+02 1.1083347345e+03 6.5844769753e+02 0.0000e+00 0.0000e+00
       13  1    3    3    0    0 +1.9130186472e+01 -2.7187962160e+02 -1.3501441431e+02 3.0416013011e+02 0.0000000000e+00 0.0000e+00 1.0000e+00
        3  1    3    3  501    0 -1.8813151159e+01 +2.7203752817e+02 -7.5653053013e+02 8.0417460443e+02 0.0000000000e+00 0.0000e+00 1.0000e+00
       21  1    1    2  502  501 -3.1703531224e-01 -1.5790656974e-01 +4.6113605167e-01 5.8145707676e-01 0.0000000000e+00 0.0000e+00 1.0000e+00
<mgrwt>
<rscale>  1 0.65844779E+03</rscale>
<asrwt>0</asrwt>
<pdfrwt beam="1">  1        1 0.39605971E+00 0.65844779E+03</pdfrwt>
<pdfrwt beam="2">0</pdfrwt>
<totfact> 0.13908175E+00</totfact>
</mgrwt>
</event>
<event>
 6      1 +5.6466785e-02 6.39344400e+02 7.81860800e-03 9.82698200e-02
        1 -1    0    0  502    0 +0.0000000000e+00 +0.0000000000e+00 +1.0280367075e+02 1.0280367075e+02 0.0000000000e+00 0.0000e+00 1.0000e+00
       13 -1    0    0    0    0 -0.0000000000e+00 -0.0000000000e+00 -1.0000000000e+03 1.0000000000e+03 0.0000000000e+00 0.0000e+00 1.0000e+00
  9000005  2    1    2  501    0 -1.7454093251e-01 +5.8866286529e-02 -8.9779442245e+02 1.1021778551e+03 6.3934432454e+02 0.0000e+00 0.0000e+00
       13  1    3    3    0    0 +2.6664816758e+02 +1.7497906769e+02 -4.1285718774e+02 5.2169912486e+02 0.0000000000e+00 0.0000e+00 1.0000e+00
        1  1    3    3  501    0 -2.6682270851e+02 -1.7492020141e+02 -4.8493723470e+02 5.8047873022e+02 0.0000000000e+00 0.0000e+00 1.0000e+00
       21  1    1    2  502  501 +1.7454093251e-01 -5.8866286529e-02 +5.9809319710e-01 6.2581566713e-01 0.0000000000e+00 0.0000e+00 1.0000e+00
<mgrwt>
<rscale>  1 0.63934435E+03</rscale>
<asrwt>0</asrwt>
<pdfrwt beam="1">  1        1 0.37383232E+00 0.63934435E+03</pdfrwt>
<pdfrwt beam="2">0</pdfrwt>
<totfact> 0.17503437E+00</totfact>
</mgrwt>
</event>
<event>
 6      1 +5.6466785e-02 6.31276900e+02 7.81860800e-03 9.84256000e-02
        3 -1    0    0  502    0 +0.0000000000e+00 +0.0000000000e+00 +9.9627757726e+01 9.9627757726e+01 0.0000000000e+00 0.0000e+00 1.0000e+00
       13 -1    0    0    0    0 -0.0000000000e+00 -0.0000000000e+00 -1.0000000000e+03 1.0000000000e+03 0.0000000000e+00 0.0000e+00 1.0000e+00
  9000005  2    1    2  501    0 +6.6694256219e-05 +1.4027320304e-04 -9.0037231162e+02 1.0996275876e+03 6.3127690592e+02 0.0000e+00 0.0000e+00
       13  1    3    3    0    0 +2.0292256968e+02 +1.5721600961e+02 -1.3025646115e+02 2.8785619436e+02 0.0000000000e+00 0.0000e+00 1.0000e+00
        1  1    3    3  501    0 -2.0292250298e+02 -1.5721586933e+02 -7.7011585047e+02 8.1177139327e+02 0.0000000000e+00 0.0000e+00 1.0000e+00
       21  1    1    2  502  501 -6.6694256219e-05 -1.4027320303e-04 +6.9344985784e-05 1.7009827264e-04 0.0000000000e+00 0.0000e+00 1.0000e+00
<mgrwt>
<rscale>  1 0.63127691E+03</rscale>
<asrwt>0</asrwt>
<pdfrwt beam="1">  1        3 0.36228352E+00 0.63127691E+03</pdfrwt>
<pdfrwt beam="2">0</pdfrwt>
<totfact> 0.93969176E-02</totfact>
</mgrwt>
</event>
<event>
 6      1 +5.6466785e-02 6.69265000e+02 7.81860800e-03 9.77128600e-02
        1 -1    0    0  502    0 +0.0000000000e+00 +0.0000000000e+00 +1.1197968770e+02 1.1197968770e+02 0.0000000000e+00 0.0000e+00 1.0000e+00
       13 -1    0    0    0    0 -0.0000000000e+00 -0.0000000000e+00 -1.0000000000e+03 1.0000000000e+03 0.0000000000e+00 0.0000e+00 1.0000e+00
  9000005  2    1    2  501    0 +1.4418668556e-05 -2.0447802257e-05 -8.8802108078e+02 1.1119789188e+03 6.6926502670e+02 0.0000e+00 0.0000e+00
       13  1    3    3    0    0 +9.1312421873e+01 +2.5380705970e+02 -1.1495556108e+02 2.9320771301e+02 0.0000000000e+00 0.0000e+00 1.0000e+00
        3  1    3    3  501    0 -9.1312407454e+01 -2.5380708015e+02 -7.7306551971e+02 8.1877120580e+02 0.0000000000e+00 0.0000e+00 1.0000e+00
       21  1    1    2  502  501 -1.4418668559e-05 +2.0447802264e-05 +7.6848604101e-04 7.6889323437e-04 0.0000000000e+00 0.0000e+00 -1.0000e+00
<mgrwt>
<rscale>  1 0.66926503E+03</rscale>
<asrwt>0</asrwt>
<pdfrwt beam="1">  1        1 0.40719972E+00 0.66926503E+03</pdfrwt>
<pdfrwt beam="2">0</pdfrwt>
<totfact> 0.12378434E+00</totfact>
</mgrwt>
</event>
<event>
 6      1 +5.6466785e-02 6.57320400e+02 7.81860800e-03 9.79313900e-02
        1 -1    0    0  502    0 +0.0000000000e+00 +0.0000000000e+00 +1.0812187412e+02 1.0812187412e+02 0.0000000000e+00 0.0000e+00 1.0000e+00
       13 -1    0    0    0    0 -0.0000000000e+00 -0.0000000000e+00 -1.0000000000e+03 1.0000000000e+03 0.0000000000e+00 0.0000e+00 1.0000e+00
  9000005  2    1    2  501    0 +5.3589832783e-04 +2.7067735893e-03 -8.9198245549e+02 1.1080175080e+03 6.5732039158e+02 0.0000e+00 0.0000e+00
       13  1    3    3    0    0 -2.5651372975e+02 -1.3043891042e+02 -7.1359837354e+02 7.6943891350e+02 0.0000000000e+00 0.0000e+00 1.0000e+00
        1  1    3    3  501    0 +2.5651426564e+02 +1.3044161720e+02 -1.7838408195e+02 3.3857859452e+02 0.0000000000e+00 0.0000e+00 1.0000e+00
       21  1    1    2  502  501 -5.3589832780e-04 -2.7067735893e-03 +1.0432960765e-01 1.0436609048e-01 0.0000000000e+00 0.0000e+00 -1.0000e+00
<mgrwt>
<rscale>  1 0.65732039E+03</rscale>
<asrwt>0</asrwt>
<pdfrwt beam="1">  1        1 0.39317128E+00 0.65732039E+03</pdfrwt>
<pdfrwt beam="2">0</pdfrwt>
<totfact> 0.14328564E+00</totfact>
</mgrwt>
</event>
<event>
 6      1 +5.6466785e-02 6.45054500e+02 7.81860800e-03 9.81610400e-02
        3 -1    0    0  502    0 +0.0000000000e+00 +0.0000000000e+00 +1.0402405443e+02 1.0402405443e+02 0.0000000000e+00 0.0000e+00 1.0000e+00
       13 -1    0    0    0    0 -0.0000000000e+00 -0.0000000000e+00 -1.0000000000e+03 1.0000000000e+03 0.0000000000e+00 0.0000e+00 1.0000e+00
  9000005  2    1    2  501    0 +6.5788133824e-05 +1.5245598252e-04 -8.9597613769e+02 1.1040238005e+03 6.4505450371e+02 0.0000e+00 0.0000e+00
       13  1    3    3    0    0 +7.1111282576e+01 -2.9620906049e+02 -6.2933778549e+02 6.9918714968e+02 0.0000000000e+00 0.0000e+00 1.0000e+00
        3  1    3    3  501    0 -7.1111216788e+01 +2.9620921294e+02 -2.6663835220e+02 4.0483665082e+02 0.0000000000e+00 0.0000e+00 1.0000e+00
       21  1    1    2  502  501 -6.5788133832e-05 -1.5245598250e-04 +1.9211943482e-04 2.5393066454e-04 0.0000000000e+00 0.0000e+00 1.0000e+00
<mgrwt>
<rscale>  1 0.64505450E+03</rscale>
<asrwt>0</asrwt>
<pdfrwt beam="1">  1        3 0.37827009E+00 0.64505450E+03</pdfrwt>
<pdfrwt beam="2">0</pdfrwt>
<totfact> 0.77147608E-02</totfact>
</mgrwt>
</event>
<event>
 6      1 +5.6466785e-02 6.46756300e+02 7.81860800e-03 9.81288500e-02
        1 -1    0    0  502    0 +0.0000000000e+00 +0.0000000000e+00 +1.0459128244e+02 1.0459128244e+02 0.0000000000e+00 0.0000e+00 1.0000e+00
       13 -1    0    0    0    0 -0.0000000000e+00 -0.0000000000e+00 -1.0000000000e+03 1.0000000000e+03 0.0000000000e+00 0.0000e+00 1.0000e+00
  9000005  2    1    2  501    0 +4.3051946062e-04 -1.9031648692e-04 -8.9542655705e+02 1.1045734367e+03 6.4675633595e+02 0.0000e+00 0.0000e+00
       13  1    3    3    0    0 -9.5889668462e+01 -5.1883289304e+01 -9.6766445575e+02 9.7378704199e+02 0.0000000000e+00 0.0000e+00 1.0000e+00
        1  1    3    3  501    0 +9.5890098982e+01 +5.1883098988e+01 +7.2237898702e+01 1.3078639475e+02 0.0000000000e+00 0.0000e+00 1.0000e+00
       21  1    1    2  502  501 -4.3051946062e-04 +1.9031648692e-04 +1.7839486328e-02 1.7845695274e-02 0.0000000000e+00 0.0000e+00 1.0000e+00
<mgrwt>
<rscale>  1 0.64675634E+03</rscale>
<asrwt>0</asrwt>
<pdfrwt beam="1">  1        1 0.38033274E+00 0.64675634E+03</pdfrwt>
<pdfrwt beam="2">0</pdfrwt>
<totfact> 0.16364093E+00</totfact>
</mgrwt>
</event>
<event>
 6      1 +5.6466785e-02 6.51923800e+02 7.81860800e-03 9.80317600e-02
        1 -1    0    0  502    0 +0.0000000000e+00 +0.0000000000e+00 +1.0646749186e+02 1.0646749186e+02 0.0000000000e+00 0.0000e+00 1.0000e+00
       13 -1    0    0    0    0 -0.0000000000e+00 -0.0000000000e+00 -1.0000000000e+03 1.0000000000e+03 0.0000000000e+00 0.0000e+00 1.0000e+00
  9000005  2    1    2  501    0 -4.2883327794e-02 +2.7231357487e-02 -8.9374554992e+02 1.1062484774e+03 6.5192375568e+02 0.0000e+00 0.0000e+00
       13  1    3    3    0    0 +1.4436260874e+02 -2.7640221116e+02 -2.8587377417e+02 4.2303966704e+02 0.0000000000e+00 0.0000e+00 1.0000e+00
        3  1    3    3  501    0 -1.4440549206e+02 +2.7642944251e+02 -6.0787177575e+02 6.8320881038e+02 0.0000000000e+00 0.0000e+00 1.0000e+00
       21  1    1    2  502  501 +4.2883327794e-02 -2.7231357487e-02 +2.1304177560e-01 2.1901443967e-01 0.0000000000e+00 0.0000e+00 1.0000e+00
<mgrwt>
<rscale>  1 0.65192376E+03</rscale>
<asrwt>0</asrwt>
<pdfrwt beam="1">  1        1 0.38715533E+00 0.65192376E+03</pdfrwt>
<pdfrwt beam="2">0</pdfrwt>
<totfact> 0.15251729E+00</totfact>
</mgrwt>
</event>
<event>
 6      1 +5.6466785e-02 6.51075600e+02 7.81860800e-03 9.80476300e-02
        1 -1    0    0  502    0 +0.0000000000e+00 +0.0000000000e+00 +1.0597541638e+02 1.0597541638e+02 0.0000000000e+00 0.0000e+00 1.0000e+00
       13 -1    0    0    0    0 -0.0000000000e+00 -0.0000000000e+00 -1.0000000000e+03 1.0000000000e+03 0.0000000000e+00 0.0000e+00 1.0000e+00
  9000005  2    1    2  501    0 -2.2212278111e-05 -7.7406240592e-05 -8.9402512781e+02 1.1059748663e+03 6.5107562975e+02 0.0000e+00 0.0000e+00
       13  1    3    3    0    0 -1.6703801077e+02 -2.3215074548e+02 -1.8287210360e+02 3.3946704103e+02 0.0000000000e+00 0.0000e+00 1.0000e+00
        1  1    3    3  501    0 +1.6703798855e+02 +2.3215066807e+02 -7.1115302421e+02 7.6650782523e+02 0.0000000000e+00 0.0000e+00 1.0000e+00
       21  1    1    2  502  501 +2.2212278114e-05 +7.7406240585e-05 +5.4418920893e-04 5.5011544833e-04 0.0000000000e+00 0.0000e+00 -1.0000e+00
<mgrwt>
<rscale>  1 0.65107563E+03</rscale>
<asrwt>0</asrwt>
<pdfrwt beam="1">  1        1 0.38536596E+00 0.65107563E+03</pdfrwt>
<pdfrwt beam="2">0</pdfrwt>
<totfact> 0.15534851E+00</totfact>
</mgrwt>
</event>
<event>
 6      1 +5.6466785e-02 6.61642000e+02 7.81860800e-03 9.78517600e-02
        1 -1    0    0  502    0 +0.0000000000e+00 +0.0000000000e+00 +1.0944632571e+02 1.0944632571e+02 0.0000000000e+00 0.0000e+00 1.0000e+00
       13 -1    0    0    0    0 -0.0000000000e+00 -0.0000000000e+00 -1.0000000000e+03 1.0000000000e+03 0.0000000000e+00 0.0000e+00 1.0000e+00
  9000005  2    1    2  501    0 -6.4883115949e-04 -1.8283681703e-04 -8.9055743306e+02 1.1094425070e+03 6.6164199889e+02 0.0000e+00 0.0000e+00
       13  1    3    3    0    0 +7.1720871698e+01 -3.1135548007e+02 -3.0146010299e+02 4.3927703343e+02 0.0000000000e+00 0.0000e+00 1.0000e+00
        3  1    3    3  501    0 -7.1721520529e+01 +3.1135529723e+02 -5.8909733007e+02 6.7016547354e+02 0.0000000000e+00 0.0000e+00 1.0000e+00
       21  1    1    2  502  501 +6.4883115949e-04 +1.8283681705e-04 +3.7587727509e-03 3.8187411235e-03 0.0000000000e+00 0.0000e+00 1.0000e+00
<mgrwt>
<rscale>  1 0.66164200E+03</rscale>
<asrwt>0</asrwt>
<pdfrwt beam="1">  1        1 0.39798748E+00 0.66164200E+03</pdfrwt>
<pdfrwt beam="2">0</pdfrwt>
<totfact> 0.13627911E+00</totfact>
</mgrwt>
</event>
<event>
 6      1 +5.6466785e-02 6.46256300e+02 7.81860800e-03 9.81383000e-02
        1 -1    0    0  502    0 +0.0000000000e+00 +0.0000000000e+00 +1.0441181684e+02 1.0441181684e+02 0.0000000000e+00 0.0000e+00 1.0000e+00
       13 -1    0    0    0    0 -0.0000000000e+00 -0.0000000000e+00 -1.0000000000e+03 1.0000000000e+03 0.0000000000e+00 0.0000e+00 1.0000e+00
  9000005  2    1    2  501    0 -1.7804668744e-05 +3.5131761184e-05 -8.9558819468e+02 1.1044117758e+03 6.4625626194e+02 0.0000e+00 0.0000e+00
       13  1    3    3    0    0 -3.1338030034e+02 +3.1441939188e+01 -3.2437155555e+02 4.5212024311e+02 0.0000000000e+00 0.0000e+00 1.0000e+00
        3  1    3    3  501    0 +3.1338028253e+02 -3.1441904057e+01 -5.7121663913e+02 6.5229153270e+02 0.0000000000e+00 0.0000e+00 1.0000e+00
       21  1    1    2  502  501 +1.7804668699e-05 -3.5131761186e-05 +1.1520537067e-05 4.1036199213e-05 0.0000000000e+00 0.0000e+00 1.0000e+00
<mgrwt>
<rscale>  1 0.64625626E+03</rscale>
<asrwt>0</asrwt>
<pdfrwt beam="1">  1        1 0.37968013E+00 0.64625626E+03</pdfrwt>
<pdfrwt beam="2">0</pdfrwt>
<totfact> 0.16474465E+00</totfact>
</mgrwt>
</event>
<event>
 6      1 +5.6466785e-02 6.54894000e+02 7.81860800e-03 9.79763900e-02
        1 -1    0    0  502    0 +0.0000000000e+00 +0.0000000000e+00 +1.0723516741e+02 1.0723516741e+02 0.0000000000e+00 0.0000e+00 1.0000e+00
       13 -1    0    0    0    0 -0.0000000000e+00 -0.0000000000e+00 -1.0000000000e+03 1.0000000000e+03 0.0000000000e+00 0.0000e+00 1.0000e+00
  9000005  2    1    2  501    0 -1.0618553880e-03 +7.9905489628e-04 -8.9277842655e+02 1.1072215087e+03 6.5489399929e+02 0.0000e+00 0.0000e+00
       13  1    3    3    0    0 +1.7134834887e+01 -3.0589938942e+02 -6.4175816611e+02 7.1114104282e+02 0.0000000000e+00 0.0000e+00 1.0000e+00
        3  1    3    3  501    0 -1.7135896743e+01 +3.0590018847e+02 -2.5102026044e+02 3.9608046584e+02 0.0000000000e+00 0.0000e+00 1.0000e+00
       21  1    1    2  502  501 +1.0618553880e-03 -7.9905489624e-04 +1.3593953690e-02 1.3658755526e-02 0.0000000000e+00 0.0000e+00 -1.0000e+00
<mgrwt>
<rscale>  1 0.65489400E+03</rscale>
<asrwt>0</asrwt>
<pdfrwt beam="1">  1        1 0.38994689E+00 0.65489400E+03</pdfrwt>
<pdfrwt beam="2">0</pdfrwt>
<totfact> 0.14815276E+00</totfact>
</mgrwt>
</event>
<event>
 6      1 +5.6466785e-02 6.41434100e+02 7.81860800e-03 9.82298700e-02
        1 -1    0    0  502    0 +0.0000000000e+00 +0.0000000000e+00 +1.0285942578e+02 1.0285942578e+02 0.0000000000e+00 0.0000e+00 1.0000e+00
       13 -1    0    0    0    0 -0.0000000000e+00 -0.0000000000e+00 -1.0000000000e+03 1.0000000000e+03 0.0000000000e+00 0.0000e+00 1.0000e+00
  9000005  2    1    2  501    0 +1.2056285712e-06 +1.2854053693e-05 -8.9714056914e+02 1.1028594119e+03 6.4143408207e+02 0.0000e+00 0.0000e+00
       13  1    3    3    0    0 -5.8356315304e+01 -6.8108881547e+01 +8.0857792204e+01 1.2075703641e+02 0.0000000000e+00 0.0000e+00 1.0000e+00
        3  1    3    3  501    0 +5.8356316510e+01 +6.8108894401e+01 -9.7799836135e+02 9.8210237550e+02 0.0000000000e+00 0.0000e+00 1.0000e+00
       21  1    1    2  502  501 -1.2056285704e-06 -1.2854053700e-05 -5.0769100449e-06 1.3872824240e-05 0.0000000000e+00 0.0000e+00 -1.0000e+00
<mgrwt>
<rscale>  1 0.64143408E+03</rscale>
<asrwt>0</asrwt>
<pdfrwt beam="1">  1        1 0.37403506E+00 0.64143408E+03</pdfrwt>
<pdfrwt beam="2">0</pdfrwt>
<totfact> 0.17460846E+00</totfact>
</mgrwt>
</event>
<event>
 6      1 +5.6466785e-02 6.47928100e+02 7.81860800e-03 9.81067500e-02
        1 -1    0    0  502    0 +0.0000000000e+00 +0.0000000000e+00 +1.0495955286e+02 1.0495955286e+02 0.0000000000e+00 0.0000e+00 1.0000e+00
       13 -1    0    0    0    0 -0.0000000000e+00 -0.0000000000e+00 -1.0000000000e+03 1.0000000000e+03 0.0000000000e+00 0.0000e+00 1.0000e+00
  9000005  2    1    2  501    0 -1.1773057236e-04 -8.0413266261e-05 -8.9504729648e+02 1.1049527020e+03 6.4792809075e+02 0.0000e+00 0.0000e+00
       13  1    3    3    0    0 -2.8986778057e+02 -1.4284514027e+02 -4.0846072796e+02 5.2083416804e+02 0.0000000000e+00 0.0000e+00 1.0000e+00
        3  1    3    3  501    0 +2.8986766284e+02 +1.4284505986e+02 -4.8658656852e+02 5.8411853399e+02 0.0000000000e+00 0.0000e+00 1.0000e+00
       21  1    1    2  502  501 +1.1773057239e-04 +8.0413266258e-05 +6.8493482649e-03 6.8508319520e-03 0.0000000000e+00 0.0000e+00 1.0000e+00
<mgrwt>
<rscale>  1 0.64792809E+03</rscale>
<asrwt>0</asrwt>
<pdfrwt beam="1">  1        1 0.38167191E+00 0.64792809E+03</pdfrwt>
<pdfrwt beam="2">0</pdfrwt>
<totfact> 0.16139374E+00</totfact>
</mgrwt>
</event>
<event>
 6      1 +5.6466785e-02 6.09596500e+02 7.81860800e-03 9.88569400e-02
        1 -1    0    0  502    0 +0.0000000000e+00 +0.0000000000e+00 +9.2901963100e+01 9.2901963100e+01 0.0000000000e+00 0.0000e+00 1.0000e+00
       13 -1    0    0    0    0 -0.0000000000e+00 -0.0000000000e+00 -1.0000000000e+03 1.0000000000e+03 0.0000000000e+00 0.0000e+00 1.0000e+00
  9000005  2    1    2  501    0 +3.0294004318e-06 +4.6094020405e-06 -9.0709803984e+02 1.0929019569e+03 6.0959645128e+02 0.0000e+00 0.0000e+00
       13  1    3    3    0    0 +3.0433123107e+02 +1.5517341176e+01 -4.6539706498e+02 5.5628474199e+02 0.0000000000e+00 0.0000e+00 1.0000e+00
        3  1    3    3  501    0 -3.0433122804e+02 -1.5517336567e+01 -4.4170097486e+02 5.3661721486e+02 0.0000000000e+00 0.0000e+00 1.0000e+00
       21  1    1    2  502  501 -3.0294004349e-06 -4.6094020401e-06 +2.9382082403e-06 6.2495537301e-06 0.0000000000e+00 0.0000e+00 -1.0000e+00
<mgrwt>
<rscale>  1 0.60959645E+03</rscale>
<asrwt>0</asrwt>
<pdfrwt beam="1">  1        1 0.33782603E+00 0.60959645E+03</pdfrwt>
<pdfrwt beam="2">0</pdfrwt>
<totfact> 0.25275909E+00</totfact>
</mgrwt>
</event>
<event>
 6      1 +5.6466785e-02 6.15075800e+02 7.81860800e-03 9.87461300e-02
        1 -1    0    0  502    0 +0.0000000000e+00 +0.0000000000e+00 +9.4680943965e+01 9.4680943965e+01 0.0000000000e+00 0.0000e+00 1.0000e+00
       13 -1    0    0    0    0 -0.0000000000e+00 -0.0000000000e+00 -1.0000000000e+03 1.0000000000e+03 0.0000000000e+00 0.0000e+00 1.0000e+00
  9000005  2    1    2  501    0 +2.9044152373e-03 +6.8856000411e-02 -9.0540747010e+02 1.0945688430e+03 6.1507581674e+02 0.0000e+00 0.0000e+00
       13  1    3    3    0    0 +1.5766496381e+02 +2.4614327464e+02 -6.2299166245e+02 6.8815940301e+02 0.0000000000e+00 0.0000e+00 1.0000e+00
        3  1    3    3  501    0 -1.5766205939e+02 -2.4607441864e+02 -2.8241580765e+02 4.0640943997e+02 0.0000000000e+00 0.0000e+00 1.0000e+00
       21  1    1    2  502  501 -2.9044152373e-03 -6.8856000411e-02 +8.8414069146e-02 1.1210099038e-01 0.0000000000e+00 0.0000e+00 1.0000e+00
<mgrwt>
<rscale>  1 0.61507582E+03</rscale>
<asrwt>0</asrwt>
<pdfrwt beam="1">  1        1 0.34429507E+00 0.61507582E+03</pdfrwt>
<pdfrwt beam="2">0</pdfrwt>
<totfact> 0.23668902E+00</totfact>
</mgrwt>
</event>
<event>
 6      1 +5.6466785e-02 6.40748400e+02 7.81860800e-03 9.82429600e-02
        1 -1    0    0  502    0 +0.0000000000e+00 +0.0000000000e+00 +1.0428186985e+02 1.0428186985e+02 0.0000000000e+00 0.0000e+00 1.0000e+00
       13 -1    0    0    0    0 -0.0000000000e+00 -0.0000000000e+00 -1.0000000000e+03 1.0000000000e+03 0.0000000000e+00 0.0000e+00 1.0000e+00
  9000005  2    1    2  501    0 -8.4103354508e-01 -2.5292828904e-01 -8.9722994098e+02 1.1025334757e+03 6.4074778713e+02 0.0000e+00 0.0000e+00
       13  1    3    3    0    0 +3.1883089525e+02 +1.4725654436e+01 -4.0963793068e+02 5.1930070183e+02 0.0000000000e+00 0.0000e+00 1.0000e+00
        1  1    3    3  501    0 -3.1967192879e+02 -1.4978582725e+01 -4.8759201030e+02 5.8323277387e+02 0.0000000000e+00 0.0000e+00 1.0000e+00
       21  1    1    2  502  501 +8.4103354508e-01 +2.5292828904e-01 +1.5118108366e+00 1.7483941630e+00 0.0000000000e+00 0.0000e+00 1.0000e+00
<mgrwt>
<rscale>  1 0.64074839E+03</rscale>
<asrwt>0</asrwt>
<pdfrwt beam="1">  1        1 0.37920760E+00 0.64074839E+03</pdfrwt>
<pdfrwt beam="2">0</pdfrwt>
<totfact> 0.16570528E+00</totfact>
</mgrwt>
</event>
<event>
 6      1 +5.6466785e-02 6.56670500e+02 7.81860800e-03 9.79434200e-02
        1 -1    0    0  502    0 +0.0000000000e+00 +0.0000000000e+00 +1.0780487736e+02 1.0780487736e+02 0.0000000000e+00 0.0000e+00 1.0000e+00
       13 -1    0    0    0    0 -0.0000000000e+00 -0.0000000000e+00 -1.0000000000e+03 1.0000000000e+03 0.0000000000e+00 0.0000e+00 1.0000e+00
  9000005  2    1    2  501    0 -4.5807720426e-05 +1.8013826018e-04 -8.9219593738e+02 1.1078040417e+03 6.5667054457e+02 0.0000e+00 0.0000e+00
       13  1    3    3    0    0 +2.6829080772e+02 -7.0944394274e+01 -7.4212199240e+02 7.9231188064e+02 0.0000000000e+00 0.0000e+00 1.0000e+00
        3  1    3    3  501    0 -2.6829085353e+02 +7.0944574413e+01 -1.5007394497e+02 3.1549216105e+02 0.0000000000e+00 0.0000e+00 1.0000e+00
       21  1    1    2  502  501 +4.5807720388e-05 -1.8013826018e-04 +8.1473817211e-04 8.3567124464e-04 0.0000000000e+00 0.0000e+00 1.0000e+00
<mgrwt>
<rscale>  1 0.65667054E+03</rscale>
<asrwt>0</asrwt>
<pdfrwt beam="1">  1        1 0.39201856E+00 0.65667054E+03</pdfrwt>
<pdfrwt beam="2">0</pdfrwt>
<totfact> 0.14500210E+00</totfact>
</mgrwt>
</event>
<event>
 6      1 +5.6466785e-02 6.46872800e+02 7.81860800e-03 9.81266500e-02
        1 -1    0    0  502    0 +0.0000000000e+00 +0.0000000000e+00 +1.0548911857e+02 1.0548911857e+02 0.0000000000e+00 0.0000e+00 1.0000e+00
       13 -1    0    0    0    0 -0.0000000000e+00 -0.0000000000e+00 -1.0000000000e+03 1.0000000000e+03 0.0000000000e+00 0.0000e+00 1.0000e+00
  9000005  2    1    2  501    0 -4.0948837264e-01 -1.7644531472e+00 -8.9420574727e+02 1.1036522510e+03 6.4687022787e+02 0.0000e+00 0.0000e+00
       13  1    3    3    0    0 -2.9817323454e+02 -5.5943301941e+01 -6.4054893150e+02 7.0875938404e+02 0.0000000000e+00 0.0000e+00 1.0000e+00
        3  1    3    3  501    0 +2.9776374616e+02 +5.4178848793e+01 -2.5365681577e+02 3.9489286696e+02 0.0000000000e+00 0.0000e+00 1.0000e+00
       21  1    1    2  502  501 +4.0948837264e-01 +1.7644531472e+00 -3.0513415723e-01 1.8368675755e+00 0.0000000000e+00 0.0000e+00 1.0000e+00
<mgrwt>
<rscale>  1 0.64687276E+03</rscale>
<asrwt>0</asrwt>
<pdfrwt beam="1">  1        1 0.38359760E+00 0.64687276E+03</pdfrwt>
<pdfrwt beam="2">0</pdfrwt>
<totfact> 0.15829381E+00</totfact>
</mgrwt>
</event>
<event>
 6      1 +5.6466785e-02 6.47281800e+02 7.81860800e-03 9.81189300e-02
        1 -1    0    0  502    0 +0.0000000000e+00 +0.0000000000e+00 +1.0474344873e+02 1.0474344873e+02 0.0000000000e+00 0.0000e+00 1.0000e+00
       13 -1    0    0    0    0 -0.0000000000e+00 -0.0000000000e+00 -1.0000000000e+03 1.0000000000e+03 0.0000000000e+00 0.0000e+00 1.0000e+00
  9000005  2    1    2  501    0 +2.9167151780e-05 +1.8160151257e-05 -8.9525656841e+02 1.1047434103e+03 6.4728176198e+02 0.0000e+00 0.0000e+00
       13  1    3    3    0    0 -2.2404026832e+02 +2.0763859668e+02 -2.6511380583e+02 4.0446651123e+02 0.0000000000e+00 0.0000e+00 1.0000e+00
        3  1    3    3  501    0 +2.2404029749e+02 -2.0763857852e+02 -6.3014276258e+02 7.0027689911e+02 0.0000000000e+00 0.0000e+00 1.0000e+00
       21  1    1    2  502  501 -2.9167151786e-05 -1.8160151250e-05 +1.7141836501e-05 3.8397348806e-05 0.0000000000e+00 0.0000e+00 -1.0000e+00
<mgrwt>
<rscale>  1 0.64728176E+03</rscale>
<asrwt>0</asrwt>
<pdfrwt beam="1">  1        1 0.38088607E+00 0.64728176E+03</pdfrwt>
<pdfrwt beam="2">0</pdfrwt>
<totfact> 0.16270759E+00</totfact>
</mgrwt>
</event>
<event>
 6      1 +5.6466785e-02 6.40880300e+02 7.81860800e-03 9.82404400e-02
        1 -1    0    0  502    0 +0.0000000000e+00 +0.0000000000e+00 +1.0268673086e+02 1.0268673086e+02 0.0000000000e+00 0.0000e+00 1.0000e+00
       13 -1    0    0    0    0 -0.0000000000e+00 -0.0000000000e+00 -1.0000000000e+03 1.0000000000e+03 0.0000000000e+00 0.0000e+00 1.0000e+00
  9000005  2    1    2  501    0 -2.1985606242e-03 +7.7908690472e-03 -8.9731404951e+02 1.1026785982e+03 6.4088032221e+02 0.0000e+00 0.0000e+00
       13  1    3    3    0    0 +3.2010159964e+02 -1.3562923607e+01 -4.3890699112e+02 5.4340439255e+02 0.0000000000e+00 0.0000e+00 1.0000e+00
        1  1    3    3  501    0 -3.2010379820e+02 +1.3570714476e+01 -4.5840705839e+02 5.5927420564e+02 0.0000000000e+00 0.0000e+00 1.0000e+00
       21  1    1    2  502  501 +2.1985606242e-03 -7.7908690472e-03 +7.8036684414e-04 8.1326675661e-03 0.0000000000e+00 0.0000e+00 -1.0000e+00
<mgrwt>
<rscale>  1 0.64088032E+03</rscale>
<asrwt>0</asrwt>
<pdfrwt beam="1">  1        1 0.37340708E+00 0.64088032E+03</pdfrwt>
<pdfrwt beam="2">0</pdfrwt>
<totfact> 0.17574051E+00</totfact>
</mgrwt>
</event>
<event>
 6      1 +5.6466785e-02 6.58635200e+02 7.81860800e-03 9.79070900e-02
        1 -1    0    0  502    0 +0.0000000000e+00 +0.0000000000e+00 +1.0847989858e+02 1.0847989858e+02 0.0000000000e+00 0.0000e+00 1.0000e+00
       13 -1    0    0    0    0 -0.0000000000e+00 -0.0000000000e+00 -1.0000000000e+03 1.0000000000e+03 0.0000000000e+00 0.0000e+00 1.0000e+00
  9000005  2    1    2  501    0 +5.0986208973e-02 +2.6096827155e-02 -8.9151554799e+02 1.1084224410e+03 6.5863520416e+02 0.0000e+00 0.0000e+00
       13  1    3    3    0    0 +1.3250224989e+02 +2.9055268725e+02 -5.8132884531e+02 6.6326535918e+02 0.0000000000e+00 0.0000e+00 1.0000e+00
        1  1    3    3  501    0 -1.3245126368e+02 -2.9052659042e+02 -3.1018670268e+02 4.4515708184e+02 0.0000000000e+00 0.0000e+00 1.0000e+00
       21  1    1    2  502  501 -5.0986208973e-02 -2.6096827155e-02 -4.5534367684e-03 5.7457564162e-02 0.0000000000e+00 0.0000e+00 -1.0000e+00
<mgrwt>
<rscale>  1 0.65863521E+03</rscale>
<asrwt>0</asrwt>
<pdfrwt beam="1">  1        1 0.39447319E+00 0.65863521E+03</pdfrwt>
<pdfrwt beam="2">0</pdfrwt>
<totfact> 0.14135489E+00</totfact>
</mgrwt>
</event>
<event>
 6      1 +5.6466785e-02 6.43664500e+02 7.81860800e-03 9.81874100e-02
        3 -1    0    0  502    0 +0.0000000000e+00 +0.0000000000e+00 +1.0520310264e+02 1.0520310264e+02 0.0000000000e+00 0.0000e+00 1.0000e+00
       13 -1    0    0    0    0 -0.0000000000e+00 -0.0000000000e+00 -1.0000000000e+03 1.0000000000e+03 0.0000000000e+00 0.0000e+00 1.0000e+00
  9000005  2    1    2  501    0 -4.0561134130e-01 -6.3918937242e-01 -8.9632629282e+02 1.1034966050e+03 6.4366401253e+02 0.0000e+00 0.0000e+00
       13  1    3    3    0    0 -7.8282293827e+01 +1.1391665146e+01 -9.8310270251e+02 9.8628029041e+02 0.0000000000e+00 0.0000e+00 1.0000e+00
        1  1    3    3  501    0 +7.7876682485e+01 -1.2030854518e+01 +8.6776409688e+01 1.1721631462e+02 0.0000000000e+00 0.0000e+00 1.0000e+00
       21  1    1    2  502  501 +4.0561134130e-01 +6.3918937242e-01 +1.5293954647e+00 1.7064976125e+00 0.0000000000e+00 0.0000e+00 1.0000e+00
<mgrwt>
<rscale>  1 0.64366446E+03</rscale>
<asrwt>0</asrwt>
<pdfrwt beam="1">  1        3 0.38255754E+00 0.64366446E+03</pdfrwt>
<pdfrwt beam="2">0</pdfrwt>
<totfact> 0.73245536E-02</totfact>
</mgrwt>
</event>
<event>
 6      1 +5.6466785e-02 5.30982200e+02 7.81860800e-03 1.00599400e-01
        1 -1    0    0  502    0 +0.0000000000e+00 +0.0000000000e+00 +7.0485870591e+01 7.0485870591e+01 0.0000000000e+00 0.0000e+00 1.0000e+00
       13 -1    0    0    0    0 -0.0000000000e+00 -0.0000000000e+00 -1.0000000000e+03 1.0000000000e+03 0.0000000000e+00 0.0000e+00 1.0000e+00
  9000005  2    1    2  501    0 -4.7280365879e-04 +6.8756158224e-04 -9.2951387495e+02 1.0704849982e+03 5.3098219150e+02 0.0000e+00 0.0000e+00
       13  1    3    3    0    0 +2.3310317674e+02 +8.9718522632e-01 -2.0857169465e+02 3.1279393817e+02 0.0000000000e+00 0.0000e+00 1.0000e+00
        3  1    3    3  501    0 -2.3310364954e+02 -8.9649766474e-01 -7.2094218030e+02 7.5769106004e+02 0.0000000000e+00 0.0000e+00 1.0000e+00
       21  1    1    2  502  501 +4.7280365881e-04 -6.8756158224e-04 -2.5445852740e-04 8.7237226648e-04 0.0000000000e+00 0.0000e+00 -1.0000e+00
<mgrwt>
<rscale>  1 0.53098219E+03</rscale>
<asrwt>0</asrwt>
<pdfrwt beam="1">  1        1 0.25631280E+00 0.53098219E+03</pdfrwt>
<pdfrwt beam="2">0</pdfrwt>
<totfact> 0.57677059E+00</totfact>
</mgrwt>
</event>
<event>
 6      1 +5.6466785e-02 6.36802200e+02 7.81860800e-03 9.83186400e-02
        1 -1    0    0  502    0 +0.0000000000e+00 +0.0000000000e+00 +1.0185296805e+02 1.0185296805e+02 0.0000000000e+00 0.0000e+00 1.0000e+00
       13 -1    0    0    0    0 -0.0000000000e+00 -0.0000000000e+00 -1.0000000000e+03 1.0000000000e+03 0.0000000000e+00 0.0000e+00 1.0000e+00
  9000005  2    1    2  501    0 -1.8126461785e-01 -2.3868898963e-02 -8.9860123951e+02 1.1013633446e+03 6.3680216379e+02 0.0000e+00 0.0000e+00
       13  1    3    3    0    0 +2.6325453377e+02 +1.8835895591e+01 -7.5699694082e+02 8.0168703926e+02 0.0000000000e+00 0.0000e+00 1.0000e+00
        1  1    3    3  501    0 -2.6343579839e+02 -1.8859764490e+01 -1.4160429869e+02 2.9967630536e+02 0.0000000000e+00 0.0000e+00 1.0000e+00
       21  1    1    2  502  501 +1.8126461785e-01 +2.3868898963e-02 +4.5420756695e-01 4.8962342663e-01 0.0000000000e+00 0.0000e+00 -1.0000e+00
<mgrwt>
<rscale>  1 0.63680219E+03</rscale>
<asrwt>0</asrwt>
<pdfrwt beam="1">  1        1 0.37037521E+00 0.63680219E+03</pdfrwt>
<pdfrwt beam="2">0</pdfrwt>
<totfact> 0.18135175E+00</totfact>
</mgrwt>
</event>
<event>
 6      1 +5.6466785e-02 6.56005200e+02 7.81860800e-03 9.79557600e-02
        1 -1    0    0  502    0 +0.0000000000e+00 +0.0000000000e+00 +1.0844158778e+02 1.0844158778e+02 0.0000000000e+00 0.0000e+00 1.0000e+00
       13 -1    0    0    0    0 -0.0000000000e+00 -0.0000000000e+00 -1.0000000000e+03 1.0000000000e+03 0.0000000000e+00 0.0000e+00 1.0000e+00
  9000005  2    1    2  501    0 +7.3997497920e-02 -1.1410573529e-02 -8.9241247408e+02 1.1075842503e+03 6.5600521500e+02 0.0000e+00 0.0000e+00
       13  1    3    3    0    0 +5.9859118592e+01 +2.3526847031e+02 -7.3796983542e+01 2.5373285554e+02 0.0000000000e+00 0.0000e+00 1.0000e+00
        3  1    3    3  501    0 -5.9785121094e+01 -2.3527988089e+02 -8.1861549053e+02 8.5385139480e+02 0.0000000000e+00 0.0000e+00 1.0000e+00
       21  1    1    2  502  501 -7.3997497920e-02 +1.1410573529e-02 +8.5406185830e-01 8.5733744155e-01 0.0000000000e+00 0.0000e+00 1.0000e+00
<mgrwt>
<rscale>  1 0.65600522E+03</rscale>
<asrwt>0</asrwt>
<pdfrwt beam="1">  1        1 0.39433388E+00 0.65600522E+03</pdfrwt>
<pdfrwt beam="2">0</pdfrwt>
<totfact> 0.14162600E+00</totfact>
</mgrwt>
</event>
<event>
 6      1 +5.6466785e-02 6.41864100e+02 7.81860800e-03 9.82216600e-02
        1 -1    0    0  502    0 +0.0000000000e+00 +0.0000000000e+00 +1.0299845342e+02 1.0299845342e+02 0.0000000000e+00 0.0000e+00 1.0000e+00
       13 -1    0    0    0    0 -0.0000000000e+00 -0.0000000000e+00 -1.0000000000e+03 1.0000000000e+03 0.0000000000e+00 0.0000e+00 1.0000e+00
  9000005  2    1    2  501    0 +3.1072257647e-03 +8.7365069432e-04 -8.9699827130e+02 1.1029938550e+03 6.4186411758e+02 0.0000e+00 0.0000e+00
       13  1    3    3    0    0 -2.6274334419e+02 -8.8616958443e+01 -1.7082719036e+02 3.2568229797e+02 0.0000000000e+00 0.0000e+00 1.0000e+00
        3  1    3    3  501    0 +2.6274645142e+02 +8.8617832093e+01 -7.2617108094e+02 7.7731155703e+02 0.0000000000e+00 0.0000e+00 1.0000e+00
       21  1    1    2  502  501 -3.1072257647e-03 -8.7365069432e-04 -3.2752728683e-03 4.5984268886e-03 0.0000000000e+00 0.0000e+00 1.0000e+00
<mgrwt>
<rscale>  1 0.64186412E+03</rscale>
<asrwt>0</asrwt>
<pdfrwt beam="1">  1        1 0.37454062E+00 0.64186412E+03</pdfrwt>
<pdfrwt beam="2">0</pdfrwt>
<totfact> 0.17370267E+00</totfact>
</mgrwt>
</event>
<event>
 6      1 +5.6466785e-02 6.59991400e+02 7.81860800e-03 9.78820900e-02
        1 -1    0    0  502    0 +0.0000000000e+00 +0.0000000000e+00 +1.0937154377e+02 1.0937154377e+02 0.0000000000e+00 0.0000e+00 1.0000e+00
       13 -1    0    0    0    0 -0.0000000000e+00 -0.0000000000e+00 -1.0000000000e+03 1.0000000000e+03 0.0000000000e+00 0.0000e+00 1.0000e+00
  9000005  2    1    2  501    0 -1.1858544359e+00 +4.9879838150e-01 -8.8976401621e+02 1.1078216060e+03 6.5999019016e+02 0.0000e+00 0.0000e+00
       13  1    3    3    0    0 -2.1513907166e+02 -1.9650695936e+02 -1.8433166874e+02 3.4478684623e+02 0.0000000000e+00 0.0000e+00 1.0000e+00
        3  1    3    3  501    0 +2.1395321723e+02 +1.9700575774e+02 -7.0543234747e+02 7.6303475976e+02 0.0000000000e+00 0.0000e+00 1.0000e+00
       21  1    1    2  502  501 +1.1858544359e+00 -4.9879838150e-01 -8.6444001685e-01 1.5499377766e+00 0.0000000000e+00 0.0000e+00 -1.0000e+00
<mgrwt>
<rscale>  1 0.65999144E+03</rscale>
<asrwt>0</asrwt>
<pdfrwt beam="1">  1        1 0.39771554E+00 0.65999144E+03</pdfrwt>
<pdfrwt beam="2">0</pdfrwt>
<totfact> 0.13670183E+00</totfact>
</mgrwt>
</event>
<event>
 6      1 +5.6466785e-02 6.50712300e+02 7.81860800e-03 9.80544400e-02
        1 -1    0    0  502    0 +0.0000000000e+00 +0.0000000000e+00 +1.0749501414e+02 1.0749501414e+02 0.0000000000e+00 0.0000e+00 1.0000e+00
       13 -1    0    0    0    0 -0.0000000000e+00 -0.0000000000e+00 -1.0000000000e+03 1.0000000000e+03 0.0000000000e+00 0.0000e+00 1.0000e+00
  9000005  2    1    2  501    0 +2.0883494101e-01 +1.1768678683e-01 -8.9413368469e+02 1.1058487693e+03 6.5071222287e+02 0.0000e+00 0.0000e+00
       13  1    3    3    0    0 -1.1209388032e+02 -2.8564398378e+02 -6.3031343593e+02 7.0103676864e+02 0.0000000000e+00 0.0000e+00 1.0000e+00
        1  1    3    3  501    0 +1.1230271527e+02 +2.8576167056e+02 -2.6382024875e+02 4.0481200065e+02 0.0000000000e+00 0.0000e+00 1.0000e+00
       21  1    1    2  502  501 -2.0883494101e-01 -1.1768678683e-01 +1.6286988250e+00 1.6462448405e+00 0.0000000000e+00 0.0000e+00 -1.0000e+00
<mgrwt>
<rscale>  1 0.65071227E+03</rscale>
<asrwt>0</asrwt>
<pdfrwt beam="1">  1        1 0.39089178E+00 0.65071227E+03</pdfrwt>
<pdfrwt beam="2">0</pdfrwt>
<totfact> 0.14684415E+00</totfact>
</mgrwt>
</event>
<event>
 6      1 +5.6466785e-02 6.35547700e+02 7.81860800e-03 9.83428200e-02
        3 -1    0    0  502    0 +0.0000000000e+00 +0.0000000000e+00 +1.1059010604e+02 1.1059010604e+02 0.0000000000e+00 0.0000e+00 1.0000e+00
       13 -1    0    0    0    0 -0.0000000000e+00 -0.0000000000e+00 -1.0000000000e+03 1.0000000000e+03 0.0000000000e+00 0.0000e+00 1.0000e+00
  9000005  2    1    2  501    0 +8.1941699704e-01 -8.8250029913e-01 -8.9897823673e+02 1.1009462772e+03 6.3554652462e+02 0.0000e+00 0.0000e+00
       13  1    3    3    0    0 -2.6322468755e+01 -2.9268394428e+02 -6.6117905810e+02 7.2354302600e+02 0.0000000000e+00 0.0000e+00 1.0000e+00
        1  1    3    3  501    0 +2.7141885752e+01 +2.9180144398e+02 -2.3779917863e+02 3.7740325122e+02 0.0000000000e+00 0.0000e+00 1.0000e+00
       21  1    1    2  502  501 -8.1941699704e-01 +8.8250029913e-01 +9.5683427687e+00 9.6438288212e+00 0.0000000000e+00 0.0000e+00 1.0000e+00
<mgrwt>
<rscale>  1 0.63554767E+03</rscale>
<asrwt>0</asrwt>
<pdfrwt beam="1">  1        3 0.40214669E+00 0.63554767E+03</pdfrwt>
<pdfrwt beam="2">0</pdfrwt>
<totfact> 0.57871296E-02</totfact>
</mgrwt>
</event>
<event>
 6      1 +5.6466785e-02 6.46399000e+02 7.81860800e-03 9.81356000e-02
        1 -1    0    0  502    0 +0.0000000000e+00 +0.0000000000e+00 +1.0446793905e+02 1.0446793905e+02 0.0000000000e+00 0.0000e+00 1.0000e+00
       13 -1    0    0    0    0 -0.0000000000e+00 -0.0000000000e+00 -1.0000000000e+03 1.0000000000e+03 0.0000000000e+00 0.0000e+00 1.0000e+00
  9000005  2    1    2  501    0 -1.9074893219e-03 -2.2498161849e-02 -8.9552538238e+02 1.1044443932e+03 6.4639903046e+02 0.0000e+00 0.0000e+00
       13  1    3    3    0    0 +3.7093667700e+01 +2.3412446666e+02 -8.2311085710e+02 8.5656388503e+02 0.0000000000e+00 0.0000e+00 1.0000e+00
        3  1    3    3  501    0 -3.7095575189e+01 -2.3414696483e+02 -7.2414525286e+01 2.4788050813e+02 0.0000000000e+00 0.0000e+00 1.0000e+00
       21  1    1    2  502  501 +1.9074893219e-03 +2.2498161849e-02 -6.6785646149e-03 2.3545891943e-02 0.0000000000e+00 0.0000e+00 -1.0000e+00
<mgrwt>
<rscale>  1 0.64639903E+03</rscale>
<asrwt>0</asrwt>
<pdfrwt beam="1">  1        1 0.37988422E+00 0.64639903E+03</pdfrwt>
<pdfrwt beam="2">0</pdfrwt>
<totfact> 0.16439915E+00</totfact>
</mgrwt>
</event>
<event>
 6      1 +5.6466785e-02 6.34457600e+02 7.81860800e-03 9.83638900e-02
        1 -1    0    0  502    0 +0.0000000000e+00 +0.0000000000e+00 +1.0068373002e+02 1.0068373002e+02 0.0000000000e+00 0.0000e+00 1.0000e+00
       13 -1    0    0    0    0 -0.0000000000e+00 -0.0000000000e+00 -1.0000000000e+03 1.0000000000e+03 0.0000000000e+00 0.0000e+00 1.0000e+00
  9000005  2    1    2  501    0 +2.1159025892e-02 +3.6216555263e-02 -8.9935596776e+02 1.1006259783e+03 6.3445755232e+02 0.0000e+00 0.0000e+00
       13  1    3    3    0    0 +1.0699755384e+02 +1.9439085683e+02 -5.6376244924e+01 2.2894226945e+02 0.0000000000e+00 0.0000e+00 1.0000e+00
        1  1    3    3  501    0 -1.0697639481e+02 -1.9435464028e+02 -8.4297972283e+02 8.7168370889e+02 0.0000000000e+00 0.0000e+00 1.0000e+00
       21  1    1    2  502  501 -2.1159025892e-02 -3.6216555263e-02 +3.9697773955e-02 5.7751679705e-02 0.0000000000e+00 0.0000e+00 -1.0000e+00
<mgrwt>
<rscale>  1 0.63445755E+03</rscale>
<asrwt>0</asrwt>
<pdfrwt beam="1">  1        1 0.36612343E+00 0.63445755E+03</pdfrwt>
<pdfrwt beam="2">0</pdfrwt>
<totfact> 0.18939367E+00</totfact>
</mgrwt>
</event>
<event>
 6      1 +5.6466785e-02 6.28428500e+02 7.81860800e-03 9.84812000e-02
        1 -1    0    0  502    0 +0.0000000000e+00 +0.0000000000e+00 +9.8731225795e+01 9.8731225795e+01 0.0000000000e+00 0.0000e+00 1.0000e+00
       13 -1    0    0    0    0 -0.0000000000e+00 -0.0000000000e+00 -1.0000000000e+03 1.0000000000e+03 0.0000000000e+00 0.0000e+00 1.0000e+00
  9000005  2    1    2  501    0 -3.6379143339e-04 +9.1192956745e-04 -9.0126896374e+02 1.0987302259e+03 6.2842848774e+02 0.0000e+00 0.0000e+00
       13  1    3    3    0    0 -1.7181014870e+02 -7.6586065368e+01 -8.9067864768e+02 9.1032554949e+02 0.0000000000e+00 0.0000e+00 1.0000e+00
        1  1    3    3  501    0 +1.7180978491e+02 +7.6586977298e+01 -1.0590316055e+01 1.8840467637e+02 0.0000000000e+00 0.0000e+00 1.0000e+00
       21  1    1    2  502  501 +3.6379143338e-04 -9.1192956745e-04 +1.8953371824e-04 9.9994138495e-04 0.0000000000e+00 0.0000e+00 1.0000e+00
<mgrwt>
<rscale>  1 0.62842849E+03</rscale>
<asrwt>0</asrwt>
<pdfrwt beam="1">  1        1 0.35902340E+00 0.62842849E+03</pdfrwt>
<pdfrwt beam="2">0</pdfrwt>
<totfact> 0.20366816E+00</totfact>
</mgrwt>
</event>
<event>
 6      1 +5.6466785e-02 6.46661300e+02 7.81860800e-03 9.81306400e-02
        1 -1    0    0  502    0 +0.0000000000e+00 +0.0000000000e+00 +1.0454346317e+02 1.0454346317e+02 0.0000000000e+00 0.0000e+00 1.0000e+00
       13 -1    0    0    0    0 -0.0000000000e+00 -0.0000000000e+00 -1.0000000000e+03 1.0000000000e+03 0.0000000000e+00 0.0000e+00 1.0000e+00
  9000005  2    1    2  501    0 -5.0652445051e-04 -6.6385194940e-04 -8.9545702419e+02 1.1045424963e+03 6.4666130548e+02 0.0000e+00 0.0000e+00
       13  1    3    3    0    0 -2.0727318672e+02 -8.8439816693e+01 -8.4376201985e+02 8.7333734676e+02 0.0000000000e+00 0.0000e+00 1.0000e+00
        1  1    3    3  501    0 +2.0727268019e+02 +8.8439152841e+01 -5.1695004343e+01 2.3120514956e+02 0.0000000000e+00 0.0000e+00 1.0000e+00
       21  1    1    2  502  501 +5.0652445052e-04 +6.6385194941e-04 +4.8735672561e-04 9.6684176973e-04 0.0000000000e+00 0.0000e+00 1.0000e+00
<mgrwt>
<rscale>  1 0.64666131E+03</rscale>
<asrwt>0</asrwt>
<pdfrwt beam="1">  1        1 0.38015885E+00 0.64666131E+03</pdfrwt>
<pdfrwt beam="2">0</pdfrwt>
<totfact> 0.16393318E+00</totfact>
</mgrwt>
</event>
<event>
 6      1 +5.6466785e-02 6.56843700e+02 7.81860800e-03 9.79402200e-02
        1 -1    0    0  502    0 +0.0000000000e+00 +0.0000000000e+00 +1.0922540924e+02 1.0922540924e+02 0.0000000000e+00 0.0000e+00 1.0000e+00
       13 -1    0    0    0    0 -0.0000000000e+00 -0.0000000000e+00 -1.0000000000e+03 1.0000000000e+03 0.0000000000e+00 0.0000e+00 1.0000e+00
  9000005  2    1    2  501    0 +2.7338746516e+00 +2.2108318525e+00 -8.8885978936e+02 1.1052218717e+03 6.5683430086e+02 0.0000e+00 0.0000e+00
       13  1    3    3    0    0 -9.3064991368e+01 +1.7923963342e+02 -8.8092388672e+02 9.0377808836e+02 0.0000000000e+00 0.0000e+00 1.0000e+00
        3  1    3    3  501    0 +9.5798866020e+01 -1.7702880156e+02 -7.9359026460e+00 2.0144378339e+02 0.0000000000e+00 0.0000e+00 1.0000e+00
       21  1    1    2  502  501 -2.7338746516e+00 -2.2108318525e+00 -1.9148013988e+00 4.0035374967e+00 0.0000000000e+00 0.0000e+00 1.0000e+00
<mgrwt>
<rscale>  1 0.65684371E+03</rscale>
<asrwt>0</asrwt>
<pdfrwt beam="1">  1        1 0.39718414E+00 0.65684371E+03</pdfrwt>
<pdfrwt beam="2">0</pdfrwt>
<totfact> 0.13752965E+00</totfact>
</mgrwt>
</event>
<event>
 6      1 +5.6466785e-02 6.74145300e+02 7.81860800e-03 9.76249800e-02
        1 -1    0    0  502    0 +0.0000000000e+00 +0.0000000000e+00 +1.1437413805e+02 1.1437413805e+02 0.0000000000e+00 0.0000e+00 1.0000e+00
       13 -1    0    0    0    0 -0.0000000000e+00 -0.0000000000e+00 -1.0000000000e+03 1.0000000000e+03 0.0000000000e+00 0.0000e+00 1.0000e+00
  9000005  2    1    2  501    0 -6.9560177325e-03 -4.9617645518e-02 -8.8638109683e+02 1.1136172431e+03 6.7414532019e+02 0.0000e+00 0.0000e+00
       13  1    3    3    0    0 +2.5125449185e+02 +2.0224549655e+02 -2.8153376429e+02 4.2812769239e+02 0.0000000000e+00 0.0000e+00 1.0000e+00
        3  1    3    3  501    0 -2.5126144787e+02 -2.0229511420e+02 -6.0484733254e+02 6.8548955068e+02 0.0000000000e+00 0.0000e+00 1.0000e+00
       21  1    1    2  502  501 +6.9560177325e-03 +4.9617645518e-02 +7.5523487563e-01 7.5689498234e-01 0.0000000000e+00 0.0000e+00 1.0000e+00
<mgrwt>
<rscale>  1 0.67414532E+03</rscale>
<asrwt>0</asrwt>
<pdfrwt beam="1">  1        1 0.41590683E+00 0.67414532E+03</pdfrwt>
<pdfrwt beam="2">0</pdfrwt>
<totfact> 0.11302340E+00</totfact>
</mgrwt>
</event>
<event>
 6      1 +5.6466785e-02 6.15707300e+02 7.81860800e-03 9.87334400e-02
        1 -1    0    0  502    0 +0.0000000000e+00 +0.0000000000e+00 +9.4773880397e+01 9.4773880397e+01 0.0000000000e+00 0.0000e+00 1.0000e+00
       13 -1    0    0    0    0 -0.0000000000e+00 -0.0000000000e+00 -1.0000000000e+03 1.0000000000e+03 0.0000000000e+00 0.0000e+00 1.0000e+00
  9000005  2    1    2  501    0 -2.8149260061e-06 -9.0220405724e-06 -9.0522613410e+02 1.0947738631e+03 6.1570728227e+02 0.0000e+00 0.0000e+00
       13  1    3    3    0    0 -1.9025455106e+02 -1.2476907724e+02 -8.3861749709e+01 2.4248074130e+02 0.0000000000e+00 0.0000e+00 1.0000e+00
        3  1    3    3  501    0 +1.9025454825e+02 +1.2476906822e+02 -8.2136438439e+02 8.5229312180e+02 0.0000000000e+00 0.0000e+00 1.0000e+00
       21  1    1    2  502  501 +2.8149259996e-06 +9.0220405787e-06 +1.4498018162e-05 1.7306459927e-05 0.0000000000e+00 0.0000e+00 1.0000e+00
<mgrwt>
<rscale>  1 0.61570728E+03</rscale>
<asrwt>0</asrwt>
<pdfrwt beam="1">  1        1 0.34463302E+00 0.61570728E+03</pdfrwt>
<pdfrwt beam="2">0</pdfrwt>
<totfact> 0.23586282E+00</totfact>
</mgrwt>
</event>
<event>
 6      1 +5.6466785e-02 6.62003700e+02 7.81860800e-03 9.78451200e-02
        1 -1    0    0  502    0 +0.0000000000e+00 +0.0000000000e+00 +1.0958876450e+02 1.0958876450e+02 0.0000000000e+00 0.0000e+00 1.0000e+00
       13 -1    0    0    0    0 -0.0000000000e+00 -0.0000000000e+00 -1.0000000000e+03 1.0000000000e+03 0.0000000000e+00 0.0000e+00 1.0000e+00
  9000005  2    1    2  501    0 +4.0252134590e-02 -6.4219561438e-02 -8.9025981868e+02 1.1094194381e+03 6.6200373039e+02 0.0000e+00 0.0000e+00
       13  1    3    3    0    0 +4.6053398060e-01 +1.1451893575e+02 +7.5317193221e+01 1.3706742257e+02 0.0000000000e+00 0.0000e+00 1.0000e+00
        1  1    3    3  501    0 -4.2028184601e-01 -1.1458315531e+02 -9.6557701190e+02 9.7235201549e+02 0.0000000000e+00 0.0000e+00 1.0000e+00
       21  1    1    2  502  501 -4.0252134590e-02 +6.4219561438e-02 -1.5141682318e-01 1.6932643252e-01 0.0000000000e+00 0.0000e+00 1.0000e+00
<mgrwt>
<rscale>  1 0.66200373E+03</rscale>
<asrwt>0</asrwt>
<pdfrwt beam="1">  1        1 0.39850544E+00 0.66200373E+03</pdfrwt>
<pdfrwt beam="2">0</pdfrwt>
<totfact> 0.13554780E+00</totfact>
</mgrwt>
</event>
<event>
 6      1 +5.6466785e-02 6.52583800e+02 7.81860800e-03 9.80194300e-02
        1 -1    0    0  502    0 +0.0000000000e+00 +0.0000000000e+00 +1.0646640395e+02 1.0646640395e+02 0.0000000000e+00 0.0000e+00 1.0000e+00
       13 -1    0    0    0    0 -0.0000000000e+00 -0.0000000000e+00 -1.0000000000e+03 1.0000000000e+03 0.0000000000e+00 0.0000e+00 1.0000e+00
  9000005  2    1    2  501    0 +1.7460359913e-07 +1.0912653579e-05 -8.9353359485e+02 1.1064663930e+03 6.5258378286e+02 0.0000e+00 0.0000e+00
       13  1    3    3    0    0 +1.4689136918e+02 -1.9412140502e+02 -7.8382180752e+01 2.5574198030e+02 0.0000000000e+00 0.0000e+00 1.0000e+00
        1  1    3    3  501    0 -1.4689136900e+02 +1.9412141594e+02 -8.1515141410e+02 8.5072441267e+02 0.0000000000e+00 0.0000e+00 1.0000e+00
       21  1    1    2  502  501 -1.7460362531e-07 -1.0912653579e-05 -1.2022088524e-06 1.0980063784e-05 0.0000000000e+00 0.0000e+00 1.0000e+00
<mgrwt>
<rscale>  1 0.65258378E+03</rscale>
<asrwt>0</asrwt>
<pdfrwt beam="1">  1        1 0.38715138E+00 0.65258378E+03</pdfrwt>
<pdfrwt beam="2">0</pdfrwt>
<totfact> 0.15250482E+00</totfact>
</mgrwt>
</event>
<event>
 6      1 +5.6466785e-02 6.52333700e+02 7.81860800e-03 9.80241000e-02
        1 -1    0    0  502    0 +0.0000000000e+00 +0.0000000000e+00 +1.0640896708e+02 1.0640896708e+02 0.0000000000e+00 0.0000e+00 1.0000e+00
       13 -1    0    0    0    0 -0.0000000000e+00 -0.0000000000e+00 -1.0000000000e+03 1.0000000000e+03 0.0000000000e+00 0.0000e+00 1.0000e+00
  9000005  2    1    2  501    0 +7.5789221788e-03 -6.7910062798e-03 -8.9361397904e+02 1.1063838656e+03 6.5233374473e+02 0.0000e+00 0.0000e+00
       13  1    3    3    0    0 -2.7403495848e+02 -1.3925737809e+02 -2.6182024367e+02 4.0377916714e+02 0.0000000000e+00 0.0000e+00 1.0000e+00
        1  1    3    3  501    0 +2.7404253740e+02 +1.3925058708e+02 -6.3179373537e+02 7.0260469850e+02 0.0000000000e+00 0.0000e+00 1.0000e+00
       21  1    1    2  502  501 -7.5789221788e-03 +6.7910062798e-03 +2.2946114480e-02 2.5101434171e-02 0.0000000000e+00 0.0000e+00 -1.0000e+00
<mgrwt>
<rscale>  1 0.65233374E+03</rscale>
<asrwt>0</asrwt>
<pdfrwt beam="1">  1        1 0.38694251E+00 0.65233374E+03</pdfrwt>
<pdfrwt beam="2">0</pdfrwt>
<totfact> 0.15283699E+00</totfact>
</mgrwt>
</event>
<event>
 6      1 +5.6466785e-02 6.19399300e+02 7.81860800e-03 9.86595600e-02
        1 -1    0    0  502    0 +0.0000000000e+00 +0.0000000000e+00 +9.5913896826e+01 9.5913896826e+01 0.0000000000e+00 0.0000e+00 1.0000e+00
       13 -1    0    0    0    0 -0.0000000000e+00 -0.0000000000e+00 -1.0000000000e+03 1.0000000000e+03 0.0000000000e+00 0.0000e+00 1.0000e+00
  9000005  2    1    2  501    0 -8.6767841836e-06 -1.6159844876e-06 -9.0408611450e+02 1.0959138825e+03 6.1939933433e+02 0.0000e+00 0.0000e+00
       13  1    3    3    0    0 -2.2228578808e+01 +3.9153472223e+01 -9.9417864425e+02 9.9519760891e+02 0.0000000000e+00 0.0000e+00 1.0000e+00
        1  1    3    3  501    0 +2.2228570132e+01 -3.9153473839e+01 +9.0092529749e+01 1.0071627356e+02 0.0000000000e+00 0.0000e+00 1.0000e+00
       21  1    1    2  502  501 +8.6767841841e-06 +1.6159844896e-06 +1.1322399092e-05 1.4355999124e-05 0.0000000000e+00 0.0000e+00 -1.0000e+00
<mgrwt>
<rscale>  1 0.61939933E+03</rscale>
<asrwt>0</asrwt>
<pdfrwt beam="1">  1        1 0.34877854E+00 0.61939933E+03</pdfrwt>
<pdfrwt beam="2">0</pdfrwt>
<totfact> 0.22611545E+00</totfact>
</mgrwt>
</event>
<event>
 6      1 +5.6466785e-02 6.48993100e+02 7.81860800e-03 9.80867000e-02
        1 -1    0    0  502    0 +0.0000000000e+00 +0.0000000000e+00 +1.0656068313e+02 1.0656068313e+02 0.0000000000e+00 0.0000e+00 1.0000e+00
       13 -1    0    0    0    0 -0.0000000000e+00 -0.0000000000e+00 -1.0000000000e+03 1.0000000000e+03 0.0000000000e+00 0.0000e+00 1.0000e+00
  9000005  2    1    2  501    0 -9.8751935109e-03 +1.5902002474e-02 -8.9470192348e+02 1.1052979378e+03 6.4899306547e+02 0.0000e+00 0.0000e+00
       13  1    3    3    0    0 -1.3350663094e+02 +2.1276820324e+02 -9.7465247087e+01 2.6943237223e+02 0.0000000000e+00 0.0000e+00 1.0000e+00
        1  1    3    3  501    0 +1.3349675575e+02 -2.1275230124e+02 -7.9723667639e+02 8.3586556554e+02 0.0000000000e+00 0.0000e+00 1.0000e+00
       21  1    1    2  502  501 +9.8751935109e-03 -1.5902002474e-02 +1.2626066072e+00 1.2627453574e+00 0.0000000000e+00 0.0000e+00 1.0000e+00
<mgrwt>
<rscale>  1 0.64899307E+03</rscale>
<asrwt>0</asrwt>
<pdfrwt beam="1">  1        1 0.38749421E+00 0.64899307E+03</pdfrwt>
<pdfrwt beam="2">0</pdfrwt>
<totfact> 0.15207386E+00</totfact>
</mgrwt>
</event>
<event>
 6      1 +5.6466785e-02 6.51411100e+02 7.81860800e-03 9.80413500e-02
        1 -1    0    0  502    0 +0.0000000000e+00 +0.0000000000e+00 +1.0608424554e+02 1.0608424554e+02 0.0000000000e+00 0.0000e+00 1.0000e+00
       13 -1    0    0    0    0 -0.0000000000e+00 -0.0000000000e+00 -1.0000000000e+03 1.0000000000e+03 0.0000000000e+00 0.0000e+00 1.0000e+00
  9000005  2    1    2  501    0 +3.8407986796e-04 -1.3946830785e-04 -8.9391512788e+02 1.1060834975e+03 6.5141112024e+02 0.0000e+00 0.0000e+00
       13  1    3    3    0    0 -1.3473347397e+02 +2.6195593674e+02 -2.1100524812e+02 3.6234960540e+02 0.0000000000e+00 0.0000e+00 1.0000e+00
        1  1    3    3  501    0 +1.3473385805e+02 -2.6195607621e+02 -6.8290987976e+02 7.4373389209e+02 0.0000000000e+00 0.0000e+00 1.0000e+00
       21  1    1    2  502  501 -3.8407986796e-04 +1.3946830786e-04 -6.2658074930e-04 7.4804557967e-04 0.0000000000e+00 0.0000e+00 1.0000e+00
<mgrwt>
<rscale>  1 0.65141112E+03</rscale>
<asrwt>0</asrwt>
<pdfrwt beam="1">  1        1 0.38576171E+00 0.65141112E+03</pdfrwt>
<pdfrwt beam="2">0</pdfrwt>
<totfact> 0.15471385E+00</totfact>
</mgrwt>
</event>
<event>
 6      1 +5.6466785e-02 7.19436700e+02 7.81860800e-03 9.68455800e-02
        1 -1    0    0  502    0 +0.0000000000e+00 +0.0000000000e+00 +1.2939784830e+02 1.2939784830e+02 0.0000000000e+00 0.0000e+00 1.0000e+00
       13 -1    0    0    0    0 -0.0000000000e+00 -0.0000000000e+00 -1.0000000000e+03 1.0000000000e+03 0.0000000000e+00 0.0000e+00 1.0000e+00
  9000005  2    1    2  501    0 +3.8352042506e-04 -8.0999934937e-05 -8.7060261182e+02 1.1293972438e+03 7.1943674266e+02 0.0000e+00 0.0000e+00
       13  1    3    3    0    0 -2.2233015880e+02 +1.3553162358e+02 -8.2491673024e+02 8.6503591390e+02 0.0000000000e+00 0.0000e+00 1.0000e+00
        1  1    3    3  501    0 +2.2233054232e+02 -1.3553170458e+02 -4.5685881584e+01 2.6436132995e+02 0.0000000000e+00 0.0000e+00 1.0000e+00
       21  1    1    2  502  501 -3.8352042504e-04 +8.0999934933e-05 +4.6012195359e-04 6.0445108823e-04 0.0000000000e+00 0.0000e+00 -1.0000e+00
<mgrwt>
<rscale>  1 0.71943674E+03</rscale>
<asrwt>0</asrwt>
<pdfrwt beam="1">  1        1 0.47053862E+00 0.71943674E+03</pdfrwt>
<pdfrwt beam="2">0</pdfrwt>
<totfact> 0.62877797E-01</totfact>
</mgrwt>
</event>
<event>
 6      1 +5.6466785e-02 6.49436700e+02 7.81860800e-03 9.80783700e-02
        1 -1    0    0  502    0 +0.0000000000e+00 +0.0000000000e+00 +1.0544223126e+02 1.0544223126e+02 0.0000000000e+00 0.0000e+00 1.0000e+00
       13 -1    0    0    0    0 -0.0000000000e+00 -0.0000000000e+00 -1.0000000000e+03 1.0000000000e+03 0.0000000000e+00 0.0000e+00 1.0000e+00
  9000005  2    1    2  501    0 +2.0090073178e-05 +6.4630475549e-06 -8.9455800290e+02 1.1054419961e+03 6.4943666842e+02 0.0000e+00 0.0000e+00
       13  1    3    3    0    0 -1.5149500661e+02 +1.9210824122e+02 -8.1070280919e+02 8.4681483112e+02 0.0000000000e+00 0.0000e+00 1.0000e+00
        3  1    3    3  501    0 +1.5149502670e+02 -1.9210823476e+02 -8.3855193715e+01 2.5862716503e+02 0.0000000000e+00 0.0000e+00 1.0000e+00
       21  1    1    2  502  501 -2.0090073189e-05 -6.4630475565e-06 +2.3416213305e-04 2.3511122172e-04 0.0000000000e+00 0.0000e+00 1.0000e+00
<mgrwt>
<rscale>  1 0.64943667E+03</rscale>
<asrwt>0</asrwt>
<pdfrwt beam="1">  1        1 0.38342710E+00 0.64943667E+03</pdfrwt>
<pdfrwt beam="2">0</pdfrwt>
<totfact> 0.15849366E+00</totfact>
</mgrwt>
</event>
<event>
 6      1 +5.6466785e-02 6.68013600e+02 7.81860800e-03 9.77355300e-02
        1 -1    0    0  502    0 +0.0000000000e+00 +0.0000000000e+00 +1.1156630746e+02 1.1156630746e+02 0.0000000000e+00 0.0000e+00 1.0000e+00
       13 -1    0    0    0    0 -0.0000000000e+00 -0.0000000000e+00 -1.0000000000e+03 1.0000000000e+03 0.0000000000e+00 0.0000e+00 1.0000e+00
  9000005  2    1    2  501    0 -3.1395077627e-04 -3.0234851693e-05 -8.8843946599e+02 1.1115605254e+03 6.6801356042e+02 0.0000e+00 0.0000e+00
       13  1    3    3    0    0 -2.5707758149e+02 -1.9355960908e+02 -5.9311032926e+02 6.7478446029e+02 0.0000000000e+00 0.0000e+00 1.0000e+00
        1  1    3    3  501    0 +2.5707726754e+02 +1.9355957885e+02 -2.9532913673e+02 4.3677606511e+02 0.0000000000e+00 0.0000e+00 1.0000e+00
       21  1    1    2  502  501 +3.1395077630e-04 +3.0234851712e-05 +5.7734507052e-03 5.7820595190e-03 0.0000000000e+00 0.0000e+00 1.0000e+00
<mgrwt>
<rscale>  1 0.66801356E+03</rscale>
<asrwt>0</asrwt>
<pdfrwt beam="1">  1        1 0.40569652E+00 0.66801356E+03</pdfrwt>
<pdfrwt beam="2">0</pdfrwt>
<totfact> 0.12574671E+00</totfact>
</mgrwt>
</event>
<event>
 6      1 +5.6466785e-02 6.56176600e+02 7.81860800e-03 9.79525800e-02
        1 -1    0    0  502    0 +0.0000000000e+00 +0.0000000000e+00 +1.0782769953e+02 1.0782769953e+02 0.0000000000e+00 0.0000e+00 1.0000e+00
       13 -1    0    0    0    0 -0.0000000000e+00 -0.0000000000e+00 -1.0000000000e+03 1.0000000000e+03 0.0000000000e+00 0.0000e+00 1.0000e+00
  9000005  2    1    2  501    0 +1.1517683285e-01 -8.8706763480e-02 -8.9232601514e+02 1.1076161273e+03 6.5617661273e+02 0.0000e+00 0.0000e+00
       13  1    3    3    0    0 +7.0393795607e+01 -2.0896748440e+02 -3.6048747083e+01 2.2343278221e+02 0.0000000000e+00 0.0000e+00 1.0000e+00
        1  1    3    3  501    0 -7.0278618774e+01 +2.0887877764e+02 -8.5627726806e+02 8.8418334513e+02 0.0000000000e+00 0.0000e+00 1.0000e+00
       21  1    1    2  502  501 -1.1517683285e-01 +8.8706763480e-02 +1.5371467095e-01 2.1157219283e-01 0.0000000000e+00 0.0000e+00 1.0000e+00
<mgrwt>
<rscale>  1 0.65617663E+03</rscale>
<asrwt>0</asrwt>
<pdfrwt beam="1">  1        1 0.39210155E+00 0.65617663E+03</pdfrwt>
<pdfrwt beam="2">0</pdfrwt>
<totfact> 0.14489243E+00</totfact>
</mgrwt>
</event>
<event>
 6      1 +5.6466785e-02 6.39248500e+02 7.81860800e-03 9.82716500e-02
        1 -1    0    0  502    0 +0.0000000000e+00 +0.0000000000e+00 +1.0702257845e+02 1.0702257845e+02 0.0000000000e+00 0.0000e+00 1.0000e+00
       13 -1    0    0    0    0 -0.0000000000e+00 -0.0000000000e+00 -1.0000000000e+03 1.0000000000e+03 0.0000000000e+00 0.0000e+00 1.0000e+00
  9000005  2    1    2  501    0 -7.1117994462e-02 -2.2928741614e-01 -8.9783706134e+02 1.1021570128e+03 6.3924849195e+02 0.0000e+00 0.0000e+00
       13  1    3    3    0    0 +2.1927243797e+02 -2.3038286274e+02 -3.9339260788e+02 5.0587983695e+02 0.0000000000e+00 0.0000e+00 1.0000e+00
        1  1    3    3  501    0 -2.1934355597e+02 +2.3015357532e+02 -5.0444445346e+02 5.9627717582e+02 0.0000000000e+00 0.0000e+00 1.0000e+00
       21  1    1    2  502  501 +7.1117994462e-02 +2.2928741614e-01 +4.8596397889e+00 4.8655656779e+00 0.0000000000e+00 0.0000e+00 -1.0000e+00
<mgrwt>
<rscale>  1 0.63924854E+03</rscale>
<asrwt>0</asrwt>
<pdfrwt beam="1">  1        1 0.38917383E+00 0.63924854E+03</pdfrwt>
<pdfrwt beam="2">0</pdfrwt>
<totfact> 0.14976429E+00</totfact>
</mgrwt>
</event>
<event>
 6      1 +5.6466785e-02 6.53046700e+02 7.81860800e-03 9.80107900e-02
        1 -1    0    0  502    0 +0.0000000000e+00 +0.0000000000e+00 +1.0661760121e+02 1.0661760121e+02 0.0000000000e+00 0.0000e+00 1.0000e+00
       13 -1    0    0    0    0 -0.0000000000e+00 -0.0000000000e+00 -1.0000000000e+03 1.0000000000e+03 0.0000000000e+00 0.0000e+00 1.0000e+00
  9000005  2    1    2  501    0 +8.5969525543e-06 -2.7471366735e-05 -8.9338248834e+02 1.1066175072e+03 6.5304673391e+02 0.0000e+00 0.0000e+00
       13  1    3    3    0    0 -8.6137327134e+01 -1.7665832590e+02 -8.8854126305e+02 9.1001834014e+02 0.0000000000e+00 0.0000e+00 1.0000e+00
        3  1    3    3  501    0 +8.6137335731e+01 +1.7665829842e+02 -4.8412252835e+00 1.9659916702e+02 0.0000000000e+00 0.0000e+00 1.0000e+00
       21  1    1    2  502  501 -8.5969525608e-06 +2.7471366730e-05 +8.9550617206e-05 9.4063258637e-05 0.0000000000e+00 0.0000e+00 1.0000e+00
<mgrwt>
<rscale>  1 0.65304673E+03</rscale>
<asrwt>0</asrwt>
<pdfrwt beam="1">  1        1 0.38770119E+00 0.65304673E+03</pdfrwt>
<pdfrwt beam="2">0</pdfrwt>
<totfact> 0.15163917E+00</totfact>
</mgrwt>
</event>
<event>
 6      1 +5.6466785e-02 6.54050700e+02 7.81860800e-03 9.79920800e-02
        3 -1    0    0  502    0 +0.0000000000e+00 +0.0000000000e+00 +1.0695031975e+02 1.0695031975e+02 0.0000000000e+00 0.0000e+00 1.0000e+00
       13 -1    0    0    0    0 -0.0000000000e+00 -0.0000000000e+00 -1.0000000000e+03 1.0000000000e+03 0.0000000000e+00 0.0000e+00 1.0000e+00
  9000005  2    1    2  501    0 -3.4629351615e-04 +7.3617236453e-05 -8.9305441374e+02 1.1069455730e+03 6.5405069817e+02 0.0000e+00 0.0000e+00
       13  1    3    3    0    0 +2.5634962133e+01 +4.0543366355e+01 +1.0095926669e+02 1.1177517331e+02 0.0000000000e+00 0.0000e+00 1.0000e+00
        1  1    3    3  501    0 -2.5635308426e+01 -4.0543292738e+01 -9.9401368043e+02 9.9517039973e+02 0.0000000000e+00 0.0000e+00 1.0000e+00
       21  1    1    2  502  501 +3.4629351615e-04 -7.3617236454e-05 +4.7334884733e-03 4.7467095786e-03 0.0000000000e+00 0.0000e+00 -1.0000e+00
<mgrwt>
<rscale>  1 0.65405070E+03</rscale>
<asrwt>0</asrwt>
<pdfrwt beam="1">  1        3 0.38891107E+00 0.65405070E+03</pdfrwt>
<pdfrwt beam="2">0</pdfrwt>
<totfact> 0.67692936E-02</totfact>
</mgrwt>
</event>
<event>
 6      1 +5.6466785e-02 6.46751900e+02 7.81860800e-03 9.81289300e-02
        1 -1    0    0  502    0 +0.0000000000e+00 +0.0000000000e+00 +1.0461404041e+02 1.0461404041e+02 0.0000000000e+00 0.0000e+00 1.0000e+00
       13 -1    0    0    0    0 -0.0000000000e+00 -0.0000000000e+00 -1.0000000000e+03 1.0000000000e+03 0.0000000000e+00 0.0000e+00 1.0000e+00
  9000005  2    1    2  501    0 +4.6418257790e-02 +3.9118411466e-02 -8.9540232266e+02 1.1045511703e+03 6.4675185707e+02 0.0000e+00 0.0000e+00
       13  1    3    3    0    0 +2.8150562453e+02 +7.4517791338e+01 -2.0748322877e+02 3.5755783880e+02 0.0000000000e+00 0.0000e+00 1.0000e+00
        1  1    3    3  501    0 -2.8145920627e+02 -7.4478672927e+01 -6.8791909389e+02 7.4699333146e+02 0.0000000000e+00 0.0000e+00 1.0000e+00
       21  1    1    2  502  501 -4.6418257790e-02 -3.9118411466e-02 +1.6363064397e-02 6.2870141151e-02 0.0000000000e+00 0.0000e+00 -1.0000e+00
<mgrwt>
<rscale>  1 0.64675186E+03</rscale>
<asrwt>0</asrwt>
<pdfrwt beam="1">  1        1 0.38041549E+00 0.64675186E+03</pdfrwt>
<pdfrwt beam="2">0</pdfrwt>
<totfact> 0.16350351E+00</totfact>
</mgrwt>
</event>
<event>
 6      1 +5.6466785e-02 6.43871600e+02 7.81860800e-03 9.81834700e-02
        1 -1    0    0  502    0 +0.0000000000e+00 +0.0000000000e+00 +1.0386135798e+02 1.0386135798e+02 0.0000000000e+00 0.0000e+00 1.0000e+00
       13 -1    0    0    0    0 -0.0000000000e+00 -0.0000000000e+00 -1.0000000000e+03 1.0000000000e+03 0.0000000000e+00 0.0000e+00 1.0000e+00
  9000005  2    1    2  501    0 -4.9896101334e-02 -4.1568656361e-01 -8.9610986217e+02 1.1034416995e+03 6.4387151194e+02 0.0000e+00 0.0000e+00
       13  1    3    3    0    0 -2.0380938405e+02 +2.3725534424e+02 -5.7754196846e+02 6.5679760104e+02 0.0000000000e+00 0.0000e+00 1.0000e+00
        3  1    3    3  501    0 +2.0375948794e+02 -2.3767103081e+02 -3.1856789371e+02 4.4664409849e+02 0.0000000000e+00 0.0000e+00 1.0000e+00
       21  1    1    2  502  501 +4.9896101334e-02 +4.1568656361e-01 -2.8779850264e-02 4.1965845622e-01 0.0000000000e+00 0.0000e+00 -1.0000e+00
<mgrwt>
<rscale>  1 0.64387165E+03</rscale>
<asrwt>0</asrwt>
<pdfrwt beam="1">  1        1 0.37767846E+00 0.64387165E+03</pdfrwt>
<pdfrwt beam="2">0</pdfrwt>
<totfact> 0.16820063E+00</totfact>
</mgrwt>
</event>
<event>
 6      1 +5.6466785e-02 6.47283300e+02 7.81860800e-03 9.81189000e-02
        1 -1    0    0  502    0 +0.0000000000e+00 +0.0000000000e+00 +1.0474592197e+02 1.0474592197e+02 0.0000000000e+00 0.0000e+00 1.0000e+00
       13 -1    0    0    0    0 -0.0000000000e+00 -0.0000000000e+00 -1.0000000000e+03 1.0000000000e+03 0.0000000000e+00 0.0000e+00 1.0000e+00
  9000005  2    1    2  501    0 +6.7875024493e-04 -5.0365899398e-05 -8.9525601344e+02 1.1047438704e+03 6.4728331474e+02 0.0000e+00 0.0000e+00
       13  1    3    3    0    0 -2.3431045057e+02 -9.5787224103e+01 -1.0344479789e+02 2.7345457714e+02 0.0000000000e+00 0.0000e+00 1.0000e+00
        3  1    3    3  501    0 +2.3431112932e+02 +9.5787173737e+01 -7.9181121555e+02 8.3128929323e+02 0.0000000000e+00 0.0000e+00 1.0000e+00
       21  1    1    2  502  501 -6.7875024493e-04 +5.0365899388e-05 +1.9354094152e-03 2.0515965059e-03 0.0000000000e+00 0.0000e+00 1.0000e+00
<mgrwt>
<rscale>  1 0.64728331E+03</rscale>
<asrwt>0</asrwt>
<pdfrwt beam="1">  1        1 0.38089506E+00 0.64728331E+03</pdfrwt>
<pdfrwt beam="2">0</pdfrwt>
<totfact> 0.16269267E+00</totfact>
</mgrwt>
</event>
<event>
 6      1 +5.6466785e-02 6.45819400e+02 7.81860800e-03 9.81465600e-02
        1 -1    0    0  502    0 +0.0000000000e+00 +0.0000000000e+00 +1.0427107100e+02 1.0427107100e+02 0.0000000000e+00 0.0000e+00 1.0000e+00
       13 -1    0    0    0    0 -0.0000000000e+00 -0.0000000000e+00 -1.0000000000e+03 1.0000000000e+03 0.0000000000e+00 0.0000e+00 1.0000e+00
  9000005  2    1    2  501    0 -1.0814269552e-04 +8.9570939074e-04 -8.9572870300e+02 1.1042701409e+03 6.4581935146e+02 0.0000e+00 0.0000e+00
       13  1    3    3    0    0 +3.2054404013e+02 +2.4503086723e+01 -4.9977706036e+02 5.9424405170e+02 0.0000000000e+00 0.0000e+00 1.0000e+00
        3  1    3    3  501    0 -3.2054414828e+02 -2.4502191014e+01 -3.9595164264e+02 5.1002608921e+02 0.0000000000e+00 0.0000e+00 1.0000e+00
       21  1    1    2  502  501 +1.0814269557e-04 -8.9570939074e-04 -2.2599949111e-04 9.3008920285e-04 0.0000000000e+00 0.0000e+00 1.0000e+00
<mgrwt>
<rscale>  1 0.64581935E+03</rscale>
<asrwt>0</asrwt>
<pdfrwt beam="1">  1        1 0.37916833E+00 0.64581935E+03</pdfrwt>
<pdfrwt beam="2">0</pdfrwt>
<totfact> 0.16561656E+00</totfact>
</mgrwt>
</event>
<event>
 6      1 +5.6466785e-02 6.55177000e+02 7.81860800e-03 9.79711300e-02
        1 -1    0    0  502    0 +0.0000000000e+00 +0.0000000000e+00 +1.0731424514e+02 1.0731424514e+02 0.0000000000e+00 0.0000e+00 1.0000e+00
       13 -1    0    0    0    0 -0.0000000000e+00 -0.0000000000e+00 -1.0000000000e+03 1.0000000000e+03 0.0000000000e+00 0.0000e+00 1.0000e+00
  9000005  2    1    2  501    0 +1.4605382802e-05 -2.0733289574e-06 -8.9268575560e+02 1.1073142304e+03 6.5517703449e+02 0.0000e+00 0.0000e+00
       13  1    3    3    0    0 -2.4597096964e+02 -5.4985180012e+01 -8.0001061210e+02 8.3877414564e+02 0.0000000000e+00 0.0000e+00 1.0000e+00
        3  1    3    3  501    0 +2.4597098424e+02 +5.4985177938e+01 -9.2675143503e+01 2.6854008473e+02 0.0000000000e+00 0.0000e+00 1.0000e+00
       21  1    1    2  502  501 -1.4605382805e-05 +2.0733289560e-06 +7.4305041609e-07 1.4770511967e-05 0.0000000000e+00 0.0000e+00 -1.0000e+00
<mgrwt>
<rscale>  1 0.65517703E+03</rscale>
<asrwt>0</asrwt>
<pdfrwt beam="1">  1        1 0.39023444E+00 0.65517703E+03</pdfrwt>
<pdfrwt beam="2">0</pdfrwt>
<totfact> 0.14771060E+00</totfact>
</mgrwt>
</event>
<event>
 6      1 +5.6466785e-02 6.49110500e+02 7.81860800e-03 9.80845000e-02
        1 -1    0    0  502    0 +0.0000000000e+00 +0.0000000000e+00 +1.0535324253e+02 1.0535324253e+02 0.0000000000e+00 0.0000e+00 1.0000e+00
       13 -1    0    0    0    0 -0.0000000000e+00 -0.0000000000e+00 -1.0000000000e+03 1.0000000000e+03 0.0000000000e+00 0.0000e+00 1.0000e+00
  9000005  2    1    2  501    0 +4.2605428359e-04 -2.6501574388e-04 -8.9466389844e+02 1.1053360942e+03 6.4911046055e+02 0.0000e+00 0.0000e+00
       13  1    3    3    0    0 -9.6763631425e+01 +1.1867035676e+02 -9.3462643299e+02 9.4708628075e+02 0.0000000000e+00 0.0000e+00 1.0000e+00
        1  1    3    3  501    0 +9.6764057480e+01 -1.1867062178e+02 +3.9962534548e+01 1.5824981346e+02 0.0000000000e+00 0.0000e+00 1.0000e+00
       21  1    1    2  502  501 -4.2605428359e-04 +2.6501574388e-04 +1.7140974559e-02 1.7148316664e-02 0.0000000000e+00 0.0000e+00 -1.0000e+00
<mgrwt>
<rscale>  1 0.64911046E+03</rscale>
<asrwt>0</asrwt>
<pdfrwt beam="1">  1        1 0.38310351E+00 0.64911046E+03</pdfrwt>
<pdfrwt beam="2">0</pdfrwt>
<totfact> 0.15902598E+00</totfact>
</mgrwt>
</event>
<event>
 6      1 +5.6466785e-02 6.36868300e+02 7.81860800e-03 9.83173700e-02
        1 -1    0    0  502    0 +0.0000000000e+00 +0.0000000000e+00 +1.0144879854e+02 1.0144879854e+02 0.0000000000e+00 0.0000e+00 1.0000e+00
       13 -1    0    0    0    0 -0.0000000000e+00 -0.0000000000e+00 -1.0000000000e+03 1.0000000000e+03 0.0000000000e+00 0.0000e+00 1.0000e+00
  9000005  2    1    2  501    0 -1.5621292311e-02 -1.4456469120e-02 -8.9859709804e+02 1.1013982069e+03 6.3686832641e+02 0.0000e+00 0.0000e+00
       13  1    3    3    0    0 +2.1057116496e+02 +2.2630865197e+02 -3.1714705690e+02 4.4287478723e+02 0.0000000000e+00 0.0000e+00 1.0000e+00
        1  1    3    3  501    0 -2.1058678625e+02 -2.2632310844e+02 -5.8145004114e+02 6.5852341970e+02 0.0000000000e+00 0.0000e+00 1.0000e+00
       21  1    1    2  502  501 +1.5621292311e-02 +1.4456469120e-02 +4.5896583018e-02 5.0591606079e-02 0.0000000000e+00 0.0000e+00 1.0000e+00
<mgrwt>
<rscale>  1 0.63686833E+03</rscale>
<asrwt>0</asrwt>
<pdfrwt beam="1">  1        1 0.36890550E+00 0.63686833E+03</pdfrwt>
<pdfrwt beam="2">0</pdfrwt>
<totfact> 0.18406451E+00</totfact>
</mgrwt>
</event>
<event>
 6      1 +5.6466785e-02 6.44723500e+02 7.81860800e-03 9.81673100e-02
        1 -1    0    0  502    0 +0.0000000000e+00 +0.0000000000e+00 +1.0412055704e+02 1.0412055704e+02 0.0000000000e+00 0.0000e+00 1.0000e+00
       13 -1    0    0    0    0 -0.0000000000e+00 -0.0000000000e+00 -1.0000000000e+03 1.0000000000e+03 0.0000000000e+00 0.0000e+00 1.0000e+00
  9000005  2    1    2  501    0 +1.8766522631e-03 -3.3681656864e-03 -8.9608289130e+02 1.1039170722e+03 6.4472347106e+02 0.0000e+00 0.0000e+00
       13  1    3    3    0    0 +2.6271679209e+01 +3.0909393912e+02 -2.9791995752e+02 4.3009948317e+02 0.0000000000e+00 0.0000e+00 1.0000e+00
        1  1    3    3  501    0 -2.6269802557e+01 -3.0909730729e+02 -5.9816293378e+02 6.7381758900e+02 0.0000000000e+00 0.0000e+00 1.0000e+00
       21  1    1    2  502  501 -1.8766522630e-03 +3.3681656864e-03 +2.0344833969e-01 2.0348487238e-01 0.0000000000e+00 0.0000e+00 1.0000e+00
<mgrwt>
<rscale>  1 0.64472347E+03</rscale>
<asrwt>0</asrwt>
<pdfrwt beam="1">  1        1 0.37862101E+00 0.64472347E+03</pdfrwt>
<pdfrwt beam="2">0</pdfrwt>
<totfact> 0.16657306E+00</totfact>
</mgrwt>
</event>
<event>
 6      1 +5.6466785e-02 6.64040600e+02 7.81860800e-03 9.78078400e-02
        1 -1    0    0  502    0 +0.0000000000e+00 +0.0000000000e+00 +1.1148939491e+02 1.1148939491e+02 0.0000000000e+00 0.0000e+00 1.0000e+00
       13 -1    0    0    0    0 -0.0000000000e+00 -0.0000000000e+00 -1.0000000000e+03 1.0000000000e+03 0.0000000000e+00 0.0000e+00 1.0000e+00
  9000005  2    1    2  501    0 +2.1938079475e+00 -5.5585071375e-01 -8.8850034891e+02 1.1092262404e+03 6.6403679154e+02 0.0000e+00 0.0000e+00
       13  1    3    3    0    0 -1.7895471011e+02 +8.9169770147e+01 -1.9801775250e+00 1.9994988693e+02 0.0000000000e+00 0.0000e+00 1.0000e+00
        1  1    3    3  501    0 +1.8114851806e+02 -8.9725620861e+01 -8.8652017138e+02 9.0927635343e+02 0.0000000000e+00 0.0000e+00 1.0000e+00
       21  1    1    2  502  501 -2.1938079475e+00 +5.5585071375e-01 -1.0256186825e-02 2.2631545497e+00 0.0000000000e+00 0.0000e+00 1.0000e+00
<mgrwt>
<rscale>  1 0.66404065E+03</rscale>
<asrwt>0</asrwt>
<pdfrwt beam="1">  1        1 0.40541684E+00 0.66404065E+03</pdfrwt>
<pdfrwt beam="2">0</pdfrwt>
<totfact> 0.12620389E+00</totfact>
</mgrwt>
</event>
<event>
 6      1 +5.6466785e-02 6.52545200e+02 7.81860800e-03 9.80201500e-02
        1 -1    0    0  502    0 +0.0000000000e+00 +0.0000000000e+00 +1.0645539600e+02 1.0645539600e+02 0.0000000000e+00 0.0000e+00 1.0000e+00
       13 -1    0    0    0    0 -0.0000000000e+00 -0.0000000000e+00 -1.0000000000e+03 1.0000000000e+03 0.0000000000e+00 0.0000e+00 1.0000e+00
  9000005  2    1    2  501    0 +1.0263348468e-04 -3.4542021854e-04 -8.9354615255e+02 1.1064538061e+03 6.5254524612e+02 0.0000e+00 0.0000e+00
       13  1    3    3    0    0 +1.7684830116e+01 -2.8775454401e+02 -1.8773791208e+02 3.4403626909e+02 0.0000000000e+00 0.0000e+00 1.0000e+00
        3  1    3    3  501    0 -1.7684727482e+01 +2.8775419859e+02 -7.0580824047e+02 7.6241753699e+02 0.0000000000e+00 0.0000e+00 1.0000e+00
       21  1    1    2  502  501 -1.0263348468e-04 +3.4542021852e-04 +1.5485485781e-03 1.5899218403e-03 0.0000000000e+00 0.0000e+00 1.0000e+00
<mgrwt>
<rscale>  1 0.65254525E+03</rscale>
<asrwt>0</asrwt>
<pdfrwt beam="1">  1        1 0.38711135E+00 0.65254525E+03</pdfrwt>
<pdfrwt beam="2">0</pdfrwt>
<totfact> 0.15256817E+00</totfact>
</mgrwt>
</event>
<event>
 6      1 +5.6466785e-02 6.37299200e+02 7.81860800e-03 9.83090800e-02
        1 -1    0    0  502    0 +0.0000000000e+00 +0.0000000000e+00 +1.0275202830e+02 1.0275202830e+02 0.0000000000e+00 0.0000e+00 1.0000e+00
       13 -1    0    0    0    0 -0.0000000000e+00 -0.0000000000e+00 -1.0000000000e+03 1.0000000000e+03 0.0000000000e+00 0.0000e+00 1.0000e+00
  9000005  2    1    2  501    0 -2.4320402387e-01 -2.1728013363e-01 -8.9843827572e+02 1.1015178555e+03 6.3729910116e+02 0.0000e+00 0.0000e+00
       13  1    3    3    0    0 +2.1752075018e+02 +2.1303076384e+01 -8.4966261468e+02 8.7732300586e+02 0.0000000000e+00 0.0000e+00 1.0000e+00
        1  1    3    3  501    0 -2.1776395420e+02 -2.1520356518e+01 -4.8775661036e+01 2.2419484963e+02 0.0000000000e+00 0.0000e+00 1.0000e+00
       21  1    1    2  502  501 +2.4320402387e-01 +2.1728013363e-01 +1.1903040211e+00 1.2341728065e+00 0.0000000000e+00 0.0000e+00 -1.0000e+00
<mgrwt>
<rscale>  1 0.63729918E+03</rscale>
<asrwt>0</asrwt>
<pdfrwt beam="1">  1        1 0.37364453E+00 0.63729918E+03</pdfrwt>
<pdfrwt beam="2">0</pdfrwt>
<totfact> 0.17543342E+00</totfact>
</mgrwt>
</event>
<event>
 6      1 +5.6466785e-02 6.50256500e+02 7.81860800e-03 9.80629800e-02
        1 -1    0    0  502    0 +0.0000000000e+00 +0.0000000000e+00 +1.0570841609e+02 1.0570841609e+02 0.0000000000e+00 0.0000e+00 1.0000e+00
       13 -1    0    0    0    0 -0.0000000000e+00 -0.0000000000e+00 -1.0000000000e+03 1.0000000000e+03 0.0000000000e+00 0.0000e+00 1.0000e+00
  9000005  2    1    2  501    0 -7.9745360893e-06 +4.6091300987e-05 -8.9429158022e+02 1.1057083692e+03 6.5025653953e+02 0.0000e+00 0.0000e+00
       13  1    3    3    0    0 +2.0405888457e+02 -2.4917471169e+02 -3.7147592018e+02 4.9165274797e+02 0.0000000000e+00 0.0000e+00 1.0000e+00
        3  1    3    3  501    0 -2.0405889254e+02 +2.4917475779e+02 -5.2281566004e+02 6.1405562120e+02 0.0000000000e+00 0.0000e+00 1.0000e+00
       21  1    1    2  502  501 +7.9745360783e-06 -4.6091300995e-05 -3.6853727160e-06 4.6921031800e-05 0.0000000000e+00 0.0000e+00 1.0000e+00
<mgrwt>
<rscale>  1 0.65025654E+03</rscale>
<asrwt>0</asrwt>
<pdfrwt beam="1">  1        1 0.38439505E+00 0.65025654E+03</pdfrwt>
<pdfrwt beam="2">0</pdfrwt>
<totfact> 0.15691595E+00</totfact>
</mgrwt>
</event>
<event>
 6      1 +5.6466785e-02 6.61003300e+02 7.81860800e-03 9.78634900e-02
        1 -1    0    0  502    0 +0.0000000000e+00 +0.0000000000e+00 +1.0962254255e+02 1.0962254255e+02 0.0000000000e+00 0.0000e+00 1.0000e+00
       13 -1    0    0    0    0 -0.0000000000e+00 -0.0000000000e+00 -1.0000000000e+03 1.0000000000e+03 0.0000000000e+00 0.0000e+00 1.0000e+00
  9000005  2    1    2  501    0 -1.9497171446e-02 -9.2624057474e-03 -8.9076832359e+02 1.1092310808e+03 6.6100331612e+02 0.0000e+00 0.0000e+00
       13  1    3    3    0    0 +6.6462673492e+01 -2.2876896039e+02 -8.2981279735e+02 8.6333180345e+02 0.0000000000e+00 0.0000e+00 1.0000e+00
        1  1    3    3  501    0 -6.6482170663e+01 +2.2875969799e+02 -6.0955526239e+01 2.4589927738e+02 0.0000000000e+00 0.0000e+00 1.0000e+00
       21  1    1    2  502  501 +1.9497171446e-02 +9.2624057474e-03 +3.9086614432e-01 3.9146171541e-01 0.0000000000e+00 0.0000e+00 -1.0000e+00
<mgrwt>
<rscale>  1 0.66100332E+03</rscale>
<asrwt>0</asrwt>
<pdfrwt beam="1">  1        1 0.39862827E+00 0.66100332E+03</pdfrwt>
<pdfrwt beam="2">0</pdfrwt>
<totfact> 0.13540241E+00</totfact>
</mgrwt>
</event>
<event>
 6      1 +5.6466785e-02 6.48775400e+02 7.81860800e-03 9.80908000e-02
        1 -1    0    0  502    0 +0.0000000000e+00 +0.0000000000e+00 +1.0540585825e+02 1.0540585825e+02 0.0000000000e+00 0.0000e+00 1.0000e+00
       13 -1    0    0    0    0 -0.0000000000e+00 -0.0000000000e+00 -1.0000000000e+03 1.0000000000e+03 0.0000000000e+00 0.0000e+00 1.0000e+00
  9000005  2    1    2  501    0 -3.4656870564e-02 -1.0210172167e-02 -8.9477059794e+02 1.1052257412e+03 6.4877539632e+02 0.0000e+00 0.0000e+00
       13  1    3    3    0    0 -1.8316022970e+02 +2.6174934464e+02 -5.4331810096e+02 6.3028164180e+02 0.0000000000e+00 0.0000e+00 1.0000e+00
        3  1    3    3  501    0 +1.8312557283e+02 -2.6175955481e+02 -3.5145249698e+02 4.7494409944e+02 0.0000000000e+00 0.0000e+00 1.0000e+00
       21  1    1    2  502  501 +3.4656870564e-02 +1.0210172167e-02 +1.7645619102e-01 1.8011699987e-01 0.0000000000e+00 0.0000e+00 -1.0000e+00
<mgrwt>
<rscale>  1 0.64877540E+03</rscale>
<asrwt>0</asrwt>
<pdfrwt beam="1">  1        1 0.38329484E+00 0.64877540E+03</pdfrwt>
<pdfrwt beam="2">0</pdfrwt>
<totfact> 0.15872648E+00</totfact>
</mgrwt>
</event>
<event>
 6      1 +5.6466785e-02 6.45920900e+02 7.81860800e-03 9.81446400e-02
        1 -1    0    0  502    0 +0.0000000000e+00 +0.0000000000e+00 +1.0430347641e+02 1.0430347641e+02 0.0000000000e+00 0.0000e+00 1.0000e+00
       13 -1    0    0    0    0 -0.0000000000e+00 -0.0000000000e+00 -1.0000000000e+03 1.0000000000e+03 0.0000000000e+00 0.0000e+00 1.0000e+00
  9000005  2    1    2  501    0 -1.5251090304e-05 -6.5190393713e-05 -8.9569650959e+02 1.1043034080e+03 6.4592087724e+02 0.0000e+00 0.0000e+00
       13  1    3    3    0    0 +5.3417855418e+01 -2.2583191677e+02 -6.3841051945e+01 2.4068485998e+02 0.0000000000e+00 0.0000e+00 1.0000e+00
        1  1    3    3  501    0 -5.3417870669e+01 +2.2583185158e+02 -8.3185545764e+02 8.6361854803e+02 0.0000000000e+00 0.0000e+00 1.0000e+00
       21  1    1    2  502  501 +1.5251090307e-05 +6.5190393708e-05 -1.4003275591e-05 6.8399378028e-05 0.0000000000e+00 0.0000e+00 -1.0000e+00
<mgrwt>
<rscale>  1 0.64592088E+03</rscale>
<asrwt>0</asrwt>
<pdfrwt beam="1">  1        1 0.37928617E+00 0.64592088E+03</pdfrwt>
<pdfrwt beam="2">0</pdfrwt>
<totfact> 0.16541539E+00</totfact>
</mgrwt>
</event>
<event>
 6      1 +5.6466785e-02 6.53409300e+02 7.81860800e-03 9.80040300e-02
        1 -1    0    0  502    0 +0.0000000000e+00 +0.0000000000e+00 +1.0685744215e+02 1.0685744215e+02 0.0000000000e+00 0.0000e+00 1.0000e+00
       13 -1    0    0    0    0 -0.0000000000e+00 -0.0000000000e+00 -1.0000000000e+03 1.0000000000e+03 0.0000000000e+00 0.0000e+00 1.0000e+00
  9000005  2    1    2  501    0 +5.2222703966e-02 -7.0504563062e-02 -8.9324628249e+02 1.1067215860e+03 6.5340932036e+02 0.0000e+00 0.0000e+00
       13  1    3    3    0    0 +2.0133189978e+02 +2.5229458264e+02 -3.6121850571e+02 4.8442326448e+02 0.0000000000e+00 0.0000e+00 1.0000e+00
        3  1    3    3  501    0 -2.0127967708e+02 -2.5236508720e+02 -5.3202777678e+02 6.2229832148e+02 0.0000000000e+00 0.0000e+00 1.0000e+00
       21  1    1    2  502  501 -5.2222703966e-02 +7.0504563062e-02 +1.0372464773e-01 1.3585619886e-01 0.0000000000e+00 0.0000e+00 1.0000e+00
<mgrwt>
<rscale>  1 0.65340933E+03</rscale>
<asrwt>0</asrwt>
<pdfrwt beam="1">  1        1 0.38857334E+00 0.65340933E+03</pdfrwt>
<pdfrwt beam="2">0</pdfrwt>
<totfact> 0.15028590E+00</totfact>
</mgrwt>
</event>
<event>
 6      1 +5.6466785e-02 6.48292000e+02 7.81860800e-03 9.80998900e-02
        1 -1    0    0  502    0 +0.0000000000e+00 +0.0000000000e+00 +1.0507509025e+02 1.0507509025e+02 0.0000000000e+00 0.0000e+00 1.0000e+00
       13 -1    0    0    0    0 -0.0000000000e+00 -0.0000000000e+00 -1.0000000000e+03 1.0000000000e+03 0.0000000000e+00 0.0000e+00 1.0000e+00
  9000005  2    1    2  501    0 +7.5708419076e-03 +1.7903986991e-03 -8.9492523499e+02 1.1050673038e+03 6.4829204038e+02 0.0000e+00 0.0000e+00
       13  1    3    3    0    0 -2.2514648196e+02 -2.1907415791e+02 -5.8365547893e+02 6.6282587690e+02 0.0000000000e+00 0.0000e+00 1.0000e+00
        1  1    3    3  501    0 +2.2515405280e+02 +2.1907594831e+02 -3.1126975606e+02 4.4224142689e+02 0.0000000000e+00 0.0000e+00 1.0000e+00
       21  1    1    2  502  501 -7.5708419076e-03 -1.7903986991e-03 +3.2524323954e-04 7.7864599053e-03 0.0000000000e+00 0.0000e+00 -1.0000e+00
<mgrwt>
<rscale>  1 0.64829204E+03</rscale>
<asrwt>0</asrwt>
<pdfrwt beam="1">  1        1 0.38209204E+00 0.64829204E+03</pdfrwt>
<pdfrwt beam="2">0</pdfrwt>
<totfact> 0.16069491E+00</totfact>
</mgrwt>
</event>
<event>
 6      1 +5.6466785e-02 6.50842700e+02 7.81860800e-03 9.80519900e-02
        1 -1    0    0  502    0 +0.0000000000e+00 +0.0000000000e+00 +1.0599523568e+02 1.0599523568e+02 0.0000000000e+00 0.0000e+00 1.0000e+00
       13 -1    0    0    0    0 -0.0000000000e+00 -0.0000000000e+00 -1.0000000000e+03 1.0000000000e+03 0.0000000000e+00 0.0000e+00 1.0000e+00
  9000005  2    1    2  501    0 +2.8845689955e-03 +1.0528684209e-03 -8.9410093360e+02 1.1058990174e+03 6.5084265162e+02 0.0000e+00 0.0000e+00
       13  1    3    3    0    0 +5.8865774900e+01 -3.1516921479e+02 -3.5241228184e+02 4.7643596611e+02 0.0000000000e+00 0.0000e+00 1.0000e+00
        1  1    3    3  501    0 -5.8862890331e+01 +3.1517026766e+02 -5.4168865176e+02 6.2946305128e+02 0.0000000000e+00 0.0000e+00 1.0000e+00
       21  1    1    2  502  501 -2.8845689955e-03 -1.0528684209e-03 +9.6169283549e-02 9.6218295394e-02 0.0000000000e+00 0.0000e+00 1.0000e+00
<mgrwt>
<rscale>  1 0.65084265E+03</rscale>
<asrwt>0</asrwt>
<pdfrwt beam="1">  1        1 0.38543803E+00 0.65084265E+03</pdfrwt>
<pdfrwt beam="2">0</pdfrwt>
<totfact> 0.15524117E+00</totfact>
</mgrwt>
</event>
<event>
 6      1 +5.6466785e-02 6.61299100e+02 7.81860800e-03 9.78580500e-02
        1 -1    0    0  502    0 +0.0000000000e+00 +0.0000000000e+00 +1.0963803838e+02 1.0963803838e+02 0.0000000000e+00 0.0000e+00 1.0000e+00
       13 -1    0    0    0    0 -0.0000000000e+00 -0.0000000000e+00 -1.0000000000e+03 1.0000000000e+03 0.0000000000e+00 0.0000e+00 1.0000e+00
  9000005  2    1    2  501    0 -1.1000125308e-02 -1.5998082342e-02 -8.9067054385e+02 1.1093288460e+03 6.6129907794e+02 0.0000e+00 0.0000e+00
       13  1    3    3    0    0 -6.3100315315e+01 +2.5525890869e+02 -1.0904529470e+02 2.8465705077e+02 0.0000000000e+00 0.0000e+00 1.0000e+00
        1  1    3    3  501    0 +6.3089315190e+01 -2.5527490677e+02 -7.8162524915e+02 8.2467179522e+02 0.0000000000e+00 0.0000e+00 1.0000e+00
       21  1    1    2  502  501 +1.1000125308e-02 +1.5998082342e-02 +3.0858222851e-01 3.0919238857e-01 0.0000000000e+00 0.0000e+00 1.0000e+00
<mgrwt>
<rscale>  1 0.66129908E+03</rscale>
<asrwt>0</asrwt>
<pdfrwt beam="1">  1        1 0.39868462E+00 0.66129908E+03</pdfrwt>
<pdfrwt beam="2">0</pdfrwt>
<totfact> 0.13531667E+00</totfact>
</mgrwt>
</event>
<event>
 6      1 +5.6466785e-02 5.88774500e+02 7.81860800e-03 9.92897300e-02
        1 -1    0    0  502    0 +0.0000000000e+00 +0.0000000000e+00 +8.6789259639e+01 8.6789259639e+01 0.0000000000e+00 0.0000e+00 1.0000e+00
       13 -1    0    0    0    0 -0.0000000000e+00 -0.0000000000e+00 -1.0000000000e+03 1.0000000000e+03 0.0000000000e+00 0.0000e+00 1.0000e+00
  9000005  2    1    2  501    0 -6.8937572686e-02 -4.1292857337e-01 -9.1240670490e+02 1.0858827634e+03 5.8877432473e+02 0.0000e+00 0.0000e+00
       13  1    3    3    0    0 -1.8617116647e+02 +1.0626442640e+02 -8.2810960119e+02 8.5540478320e+02 0.0000000000e+00 0.0000e+00 1.0000e+00
        3  1    3    3  501    0 +1.8610222890e+02 -1.0667735497e+02 -8.4297103708e+01 2.3047798020e+02 0.0000000000e+00 0.0000e+00 1.0000e+00
       21  1    1    2  502  501 +6.8937572686e-02 +4.1292857337e-01 -8.0403546280e-01 9.0649623334e-01 0.0000000000e+00 0.0000e+00 1.0000e+00
<mgrwt>
<rscale>  1 0.58877447E+03</rscale>
<asrwt>0</asrwt>
<pdfrwt beam="1">  1        1 0.31559797E+00 0.58877447E+03</pdfrwt>
<pdfrwt beam="2">0</pdfrwt>
<totfact> 0.31662267E+00</totfact>
</mgrwt>
</event>
<event>
 6      1 +5.6466785e-02 6.54314300e+02 7.81860800e-03 9.79871700e-02
        1 -1    0    0  502    0 +0.0000000000e+00 +0.0000000000e+00 +1.0753946556e+02 1.0753946556e+02 0.0000000000e+00 0.0000e+00 1.0000e+00
       13 -1    0    0    0    0 -0.0000000000e+00 -0.0000000000e+00 -1.0000000000e+03 1.0000000000e+03 0.0000000000e+00 0.0000e+00 1.0000e+00
  9000005  2    1    2  501    0 -8.7432646942e-03 -1.0844513617e-02 -8.9296810588e+02 1.1070317030e+03 6.5431426177e+02 0.0000e+00 0.0000e+00
       13  1    3    3    0    0 +7.5070698702e+01 +6.2679741712e+01 -9.7468376172e+02 9.7957786581e+02 0.0000000000e+00 0.0000e+00 1.0000e+00
        1  1    3    3  501    0 -7.5079441967e+01 -6.2690586225e+01 +8.1715655839e+01 1.2745383720e+02 0.0000000000e+00 0.0000e+00 1.0000e+00
       21  1    1    2  502  501 +8.7432646942e-03 +1.0844513617e-02 +5.0757143829e-01 5.0776255585e-01 0.0000000000e+00 0.0000e+00 1.0000e+00
<mgrwt>
<rscale>  1 0.65431426E+03</rscale>
<asrwt>0</asrwt>
<pdfrwt beam="1">  1        1 0.39105343E+00 0.65431426E+03</pdfrwt>
<pdfrwt beam="2">0</pdfrwt>
<totfact> 0.14650351E+00</totfact>
</mgrwt>
</event>
<event>
 6      1 +5.6466785e-02 6.42848300e+02 7.81860800e-03 9.82029200e-02
        1 -1    0    0  502    0 +0.0000000000e+00 +0.0000000000e+00 +1.0332751376e+02 1.0332751376e+02 0.0000000000e+00 0.0000e+00 1.0000e+00
       13 -1    0    0    0    0 -0.0000000000e+00 -0.0000000000e+00 -1.0000000000e+03 1.0000000000e+03 0.0000000000e+00 0.0000e+00 1.0000e+00
  9000005  2    1    2  501    0 +1.1380659938e-03 -7.2198754373e-04 -8.9668646560e+02 1.1033134696e+03 6.4284834491e+02 0.0000e+00 0.0000e+00
       13  1    3    3    0    0 +1.2369298864e+02 +2.0336277236e+02 -8.1906606845e+02 8.5295111062e+02 0.0000000000e+00 0.0000e+00 1.0000e+00
        1  1    3    3  501    0 -1.2369185057e+02 -2.0336349434e+02 -7.7620397150e+01 2.5036235896e+02 0.0000000000e+00 0.0000e+00 1.0000e+00
       21  1    1    2  502  501 -1.1380659938e-03 +7.2198754374e-04 +1.3979361424e-02 1.4044180504e-02 0.0000000000e+00 0.0000e+00 -1.0000e+00
<mgrwt>
<rscale>  1 0.64284834E+03</rscale>
<asrwt>0</asrwt>
<pdfrwt beam="1">  1        1 0.37573721E+00 0.64284834E+03</pdfrwt>
<pdfrwt beam="2">0</pdfrwt>
<totfact> 0.17157768E+00</totfact>
</mgrwt>
</event>
<event>
 6      1 +5.6466785e-02 6.32561800e+02 7.81860800e-03 9.84006200e-02
        1 -1    0    0  502    0 +0.0000000000e+00 +0.0000000000e+00 +1.0003362935e+02 1.0003362935e+02 0.0000000000e+00 0.0000e+00 1.0000e+00
       13 -1    0    0    0    0 -0.0000000000e+00 -0.0000000000e+00 -1.0000000000e+03 1.0000000000e+03 0.0000000000e+00 0.0000e+00 1.0000e+00
  9000005  2    1    2  501    0 -5.0413911993e-05 +7.2746969494e-05 -8.9996630764e+02 1.1000335207e+03 6.3256176914e+02 0.0000e+00 0.0000e+00
       13  1    3    3    0    0 +2.8556083687e+02 +1.3024079501e+02 -3.8205163558e+02 4.9444019708e+02 0.0000000000e+00 0.0000e+00 1.0000e+00
        1  1    3    3  501    0 -2.8556088728e+02 -1.3024072227e+02 -5.1791467206e+02 6.0559332362e+02 0.0000000000e+00 0.0000e+00 1.0000e+00
       21  1    1    2  502  501 +5.0413912027e-05 -7.2746969483e-05 -6.3014997758e-05 1.0864885659e-04 0.0000000000e+00 0.0000e+00 -1.0000e+00
<mgrwt>
<rscale>  1 0.63256177E+03</rscale>
<asrwt>0</asrwt>
<pdfrwt beam="1">  1        1 0.36375942E+00 0.63256177E+03</pdfrwt>
<pdfrwt beam="2">0</pdfrwt>
<totfact> 0.19403248E+00</totfact>
</mgrwt>
</event>
<event>
 6      1 +5.6466785e-02 6.70715200e+02 7.81860800e-03 9.76866700e-02
        1 -1    0    0  502    0 +0.0000000000e+00 +0.0000000000e+00 +1.1710384583e+02 1.1710384583e+02 0.0000000000e+00 0.0000e+00 1.0000e+00
       13 -1    0    0    0    0 -0.0000000000e+00 -0.0000000000e+00 -1.0000000000e+03 1.0000000000e+03 0.0000000000e+00 0.0000e+00 1.0000e+00
  9000005  2    1    2  501    0 +6.0758807749e-01 -3.8946448417e-01 -8.8750403754e+02 1.1124397880e+03 6.7071480119e+02 0.0000e+00 0.0000e+00
       13  1    3    3    0    0 -2.4967663271e+02 -2.0950322253e+02 -3.1339201173e+02 4.5215547568e+02 0.0000000000e+00 0.0000e+00 1.0000e+00
        1  1    3    3  501    0 +2.5028422079e+02 +2.0911375805e+02 -5.7411202581e+02 6.6028431236e+02 0.0000000000e+00 0.0000e+00 1.0000e+00
       21  1    1    2  502  501 -6.0758807749e-01 +3.8946448417e-01 +4.6078833691e+00 4.6640577826e+00 0.0000000000e+00 0.0000e+00 1.0000e+00
<mgrwt>
<rscale>  1 0.67071519E+03</rscale>
<asrwt>0</asrwt>
<pdfrwt beam="1">  1        1 0.42583306E+00 0.67071519E+03</pdfrwt>
<pdfrwt beam="2">0</pdfrwt>
<totfact> 0.10200634E+00</totfact>
</mgrwt>
</event>
<event>
 6      1 +5.6466785e-02 4.73422100e+02 7.81860800e-03 1.02095900e-01
        1 -1    0    0  502    0 +0.0000000000e+00 +0.0000000000e+00 +5.7939391748e+01 5.7939391748e+01 0.0000000000e+00 0.0000e+00 1.0000e+00
       13 -1    0    0    0    0 -0.0000000000e+00 -0.0000000000e+00 -1.0000000000e+03 1.0000000000e+03 0.0000000000e+00 0.0000e+00 1.0000e+00
  9000005  2    1    2  501    0 -2.4253470550e-02 +1.0118806453e-01 -9.4396636932e+02 1.0560307921e+03 4.7342213371e+02 0.0000e+00 0.0000e+00
       13  1    3    3    0    0 +1.9296983554e+02 +2.0092101239e+01 -7.7445456706e+02 7.9838645179e+02 0.0000000000e+00 0.0000e+00 1.0000e+00
        1  1    3    3  501    0 -1.9299408901e+02 -1.9990913175e+01 -1.6951180226e+02 2.5764434034e+02 0.0000000000e+00 0.0000e+00 1.0000e+00
       21  1    1    2  502  501 +2.4253470550e-02 -1.0118806453e-01 +1.9057610688e+00 1.9085996192e+00 0.0000000000e+00 0.0000e+00 -1.0000e+00
<mgrwt>
<rscale>  1 0.47342215E+03</rscale>
<asrwt>0</asrwt>
<pdfrwt beam="1">  1        1 0.21068914E+00 0.47342215E+03</pdfrwt>
<pdfrwt beam="2">0</pdfrwt>
<totfact> 0.92404487E+00</totfact>
</mgrwt>
</event>
<event>
 6      1 +5.6466785e-02 6.49641600e+02 7.81860800e-03 9.80745200e-02
        1 -1    0    0  502    0 +0.0000000000e+00 +0.0000000000e+00 +1.1210408777e+02 1.1210408777e+02 0.0000000000e+00 0.0000e+00 1.0000e+00
       13 -1    0    0    0    0 -0.0000000000e+00 -0.0000000000e+00 -1.0000000000e+03 1.0000000000e+03 0.0000000000e+00 0.0000e+00 1.0000e+00
  9000005  2    1    2  501    0 +1.8914157613e-01 +4.5003937974e-02 -8.9448987293e+02 1.1055072614e+03 6.4964154310e+02 0.0000e+00 0.0000e+00
       13  1    3    3    0    0 -3.1296370001e+02 -8.6533448801e+01 -4.5278827918e+02 5.5718178456e+02 0.0000000000e+00 0.0000e+00 1.0000e+00
        3  1    3    3  501    0 +3.1315284159e+02 +8.6578452739e+01 -4.4170159375e+02 5.4832547688e+02 0.0000000000e+00 0.0000e+00 1.0000e+00
       21  1    1    2  502  501 -1.8914157613e-01 -4.5003937974e-02 +6.5939607043e+00 6.5968263324e+00 0.0000000000e+00 0.0000e+00 1.0000e+00
<mgrwt>
<rscale>  1 0.64964157E+03</rscale>
<asrwt>0</asrwt>
<pdfrwt beam="1">  1        1 0.40765209E+00 0.64964157E+03</pdfrwt>
<pdfrwt beam="2">0</pdfrwt>
<totfact> 0.12367019E+00</totfact>
</mgrwt>
</event>
<event>
 6      1 +5.6466785e-02 6.10583600e+02 7.81860800e-03 9.88368900e-02
        1 -1    0    0  502    0 +0.0000000000e+00 +0.0000000000e+00 +9.3205632817e+01 9.3205632817e+01 0.0000000000e+00 0.0000e+00 1.0000e+00
       13 -1    0    0    0    0 -0.0000000000e+00 -0.0000000000e+00 -1.0000000000e+03 1.0000000000e+03 0.0000000000e+00 0.0000e+00 1.0000e+00
  9000005  2    1    2  501    0 +1.7056414152e-03 +3.3231156049e-03 -9.0679534739e+02 1.0932017711e+03 6.1058358167e+02 0.0000e+00 0.0000e+00
       13  1    3    3    0    0 +2.9278125401e+02 +9.1763178905e+00 -6.0740161990e+02 6.7434545700e+02 0.0000000000e+00 0.0000e+00 1.0000e+00
        3  1    3    3  501    0 -2.9277954837e+02 -9.1729947748e+00 -2.9939372749e+02 4.1885631407e+02 0.0000000000e+00 0.0000e+00 1.0000e+00
       21  1    1    2  502  501 -1.7056414152e-03 -3.3231156049e-03 +9.8020629311e-04 3.8617501652e-03 0.0000000000e+00 0.0000e+00 -1.0000e+00
<mgrwt>
<rscale>  1 0.61058358E+03</rscale>
<asrwt>0</asrwt>
<pdfrwt beam="1">  1        1 0.33893029E+00 0.61058358E+03</pdfrwt>
<pdfrwt beam="2">0</pdfrwt>
<totfact> 0.24994061E+00</totfact>
</mgrwt>
</event>
<event>
 6      1 +5.6466785e-02 6.55736000e+02 7.81860800e-03 9.79607500e-02
        1 -1    0    0  502    0 +0.0000000000e+00 +0.0000000000e+00 +1.1946402788e+02 1.1946402788e+02 0.0000000000e+00 0.0000e+00 1.0000e+00
       13 -1    0    0    0    0 -0.0000000000e+00 -0.0000000000e+00 -1.0000000000e+03 1.0000000000e+03 0.0000000000e+00 0.0000e+00 1.0000e+00
  9000005  2    1    2  501    0 -1.1990233119e-01 +2.6542438094e-01 -8.9250061333e+02 1.1074958423e+03 6.5573593092e+02 0.0000e+00 0.0000e+00
       13  1    3    3    0    0 -4.0192097500e+01 -1.2866943753e+02 +5.8508081837e+01 1.4695041510e+02 0.0000000000e+00 0.0000e+00 1.0000e+00
        3  1    3    3  501    0 +4.0072195169e+01 +1.2893486191e+02 -9.5100869517e+02 9.6054542721e+02 0.0000000000e+00 0.0000e+00 1.0000e+00
       21  1    1    2  502  501 +1.1990233119e-01 -2.6542438094e-01 +1.1964641216e+01 1.1968185581e+01 0.0000000000e+00 0.0000e+00 -1.0000e+00
<mgrwt>
<rscale>  1 0.65573600E+03</rscale>
<asrwt>0</asrwt>
<pdfrwt beam="1">  1        1 0.43441556E+00 0.65573600E+03</pdfrwt>
<pdfrwt beam="2">0</pdfrwt>
<totfact> 0.93526091E-01</totfact>
</mgrwt>
</event>
<event>
 6      1 +5.6466785e-02 6.47291900e+02 7.81860800e-03 9.81187400e-02
        1 -1    0    0  502    0 +0.0000000000e+00 +0.0000000000e+00 +1.0474934396e+02 1.0474934396e+02 0.0000000000e+00 0.0000e+00 1.0000e+00
       13 -1    0    0    0    0 -0.0000000000e+00 -0.0000000000e+00 -1.0000000000e+03 1.0000000000e+03 0.0000000000e+00 0.0000e+00 1.0000e+00
  9000005  2    1    2  501    0 +7.4853108742e-05 -1.4417956010e-05 -8.9525331058e+02 1.1047466883e+03 6.4729186252e+02 0.0000e+00 0.0000e+00
       13  1    3    3    0    0 -2.7764335958e+02 -6.0140826706e+01 -7.1227250096e+02 7.6683431703e+02 0.0000000000e+00 0.0000e+00 1.0000e+00
        1  1    3    3  501    0 +2.7764343444e+02 +6.0140812288e+01 -1.8298080962e+02 3.3791237130e+02 0.0000000000e+00 0.0000e+00 1.0000e+00
       21  1    1    2  502  501 -7.4853108718e-05 +1.4417956009e-05 +2.6545323342e-03 2.6556266263e-03 0.0000000000e+00 0.0000e+00 1.0000e+00
<mgrwt>
<rscale>  1 0.64729186E+03</rscale>
<asrwt>0</asrwt>
<pdfrwt beam="1">  1        1 0.38090751E+00 0.64729186E+03</pdfrwt>
<pdfrwt beam="2">0</pdfrwt>
<totfact> 0.16267184E+00</totfact>
</mgrwt>
</event>
<event>
 6      1 +5.6466785e-02 6.31494400e+02 7.81860800e-03 9.84213700e-02
        1 -1    0    0  502    0 +0.0000000000e+00 +0.0000000000e+00 +9.9869767152e+01 9.9869767152e+01 0.0000000000e+00 0.0000e+00 1.0000e+00
       13 -1    0    0    0    0 -0.0000000000e+00 -0.0000000000e+00 -1.0000000000e+03 1.0000000000e+03 0.0000000000e+00 0.0000e+00 1.0000e+00
  9000005  2    1    2  501    0 -5.4107195955e-03 -2.9593069968e-02 -9.0030225759e+02 1.0996951317e+03 6.3149443922e+02 0.0000e+00 0.0000e+00
       13  1    3    3    0    0 -2.8426903245e+02 +5.4024849108e+01 -6.7020904190e+02 7.3000529243e+02 0.0000000000e+00 0.0000e+00 1.0000e+00
        1  1    3    3  501    0 +2.8426362173e+02 -5.4054442178e+01 -2.3009321570e+02 3.6968983928e+02 0.0000000000e+00 0.0000e+00 1.0000e+00
       21  1    1    2  502  501 +5.4107195955e-03 +2.9593069968e-02 +1.7202474688e-01 1.7463544662e-01 0.0000000000e+00 0.0000e+00 -1.0000e+00
<mgrwt>
<rscale>  1 0.63149444E+03</rscale>
<asrwt>0</asrwt>
<pdfrwt beam="1">  1        1 0.36316356E+00 0.63149444E+03</pdfrwt>
<pdfrwt beam="2">0</pdfrwt>
<totfact> 0.19523963E+00</totfact>
</mgrwt>
</event>
<event>
 6      1 +5.6466785e-02 6.51194500e+02 7.81860800e-03 9.80454000e-02
        1 -1    0    0  502    0 +0.0000000000e+00 +0.0000000000e+00 +1.0601388797e+02 1.0601388797e+02 0.0000000000e+00 0.0000e+00 1.0000e+00
       13 -1    0    0    0    0 -0.0000000000e+00 -0.0000000000e+00 -1.0000000000e+03 1.0000000000e+03 0.0000000000e+00 0.0000e+00 1.0000e+00
  9000005  2    1    2  501    0 +1.0274767315e-04 +4.2072598291e-05 -8.9398641182e+02 1.1060135683e+03 6.5119452447e+02 0.0000e+00 0.0000e+00
       13  1    3    3    0    0 -5.4440788581e+01 -2.2263129090e+02 -5.4198127029e+01 2.3551205516e+02 0.0000000000e+00 0.0000e+00 1.0000e+00
        3  1    3    3  501    0 +5.4440891328e+01 +2.2263133298e+02 -8.3978828479e+02 8.7050151312e+02 0.0000000000e+00 0.0000e+00 1.0000e+00
       21  1    1    2  502  501 -1.0274767315e-04 -4.2072598303e-05 +2.9979490050e-04 3.1969386955e-04 0.0000000000e+00 0.0000e+00 -1.0000e+00
<mgrwt>
<rscale>  1 0.65119452E+03</rscale>
<asrwt>0</asrwt>
<pdfrwt beam="1">  1        1 0.38550586E+00 0.65119452E+03</pdfrwt>
<pdfrwt beam="2">0</pdfrwt>
<totfact> 0.15512386E+00</totfact>
</mgrwt>
</event>
<event>
 6      1 +5.6466785e-02 6.41190700e+02 7.81860800e-03 9.82345100e-02
        1 -1    0    0  502    0 +0.0000000000e+00 +0.0000000000e+00 +1.0278168481e+02 1.0278168481e+02 0.0000000000e+00 0.0000e+00 1.0000e+00
       13 -1    0    0    0    0 -0.0000000000e+00 -0.0000000000e+00 -1.0000000000e+03 1.0000000000e+03 0.0000000000e+00 0.0000e+00 1.0000e+00
  9000005  2    1    2  501    0 -3.7364368885e-04 +3.4683440055e-04 -8.9721839099e+02 1.1027811694e+03 6.4119066309e+02 0.0000e+00 0.0000e+00
       13  1    3    3    0    0 +1.4808056471e+02 +2.6125051555e+02 -6.4168025311e+02 7.0847246436e+02 0.0000000000e+00 0.0000e+00 1.0000e+00
        3  1    3    3  501    0 -1.4808093835e+02 -2.6125016871e+02 -2.5553813788e+02 3.9430870504e+02 0.0000000000e+00 0.0000e+00 1.0000e+00
       21  1    1    2  502  501 +3.7364368885e-04 -3.4683440055e-04 +7.5800920236e-05 5.1541195866e-04 0.0000000000e+00 0.0000e+00 1.0000e+00
<mgrwt>
<rscale>  1 0.64119066E+03</rscale>
<asrwt>0</asrwt>
<pdfrwt beam="1">  1        1 0.37375237E+00 0.64119066E+03</pdfrwt>
<pdfrwt beam="2">0</pdfrwt>
<totfact> 0.17511701E+00</totfact>
</mgrwt>
</event>
<event>
 6      1 +5.6466785e-02 6.57320700e+02 7.81860800e-03 9.79313900e-02
        1 -1    0    0  502    0 +0.0000000000e+00 +0.0000000000e+00 +1.0881531314e+02 1.0881531314e+02 0.0000000000e+00 0.0000e+00 1.0000e+00
       13 -1    0    0    0    0 -0.0000000000e+00 -0.0000000000e+00 -1.0000000000e+03 1.0000000000e+03 0.0000000000e+00 0.0000e+00 1.0000e+00
  9000005  2    1    2  501    0 +7.9738855133e-01 +7.2658425511e-02 -8.9175332342e+02 1.1078332463e+03 6.5732021928e+02 0.0000e+00 0.0000e+00
       13  1    3    3    0    0 -2.4074386667e+02 +1.5279347100e+02 -1.7097209432e+02 3.3246790997e+02 0.0000000000e+00 0.0000e+00 1.0000e+00
        1  1    3    3  501    0 +2.4154125522e+02 -1.5272081257e+02 -7.2078122909e+02 7.7536533633e+02 0.0000000000e+00 0.0000e+00 1.0000e+00
       21  1    1    2  502  501 -7.9738855133e-01 -7.2658425511e-02 +5.6863656075e-01 9.8206684437e-01 0.0000000000e+00 0.0000e+00 -1.0000e+00
<mgrwt>
<rscale>  1 0.65732071E+03</rscale>
<asrwt>0</asrwt>
<pdfrwt beam="1">  1        1 0.39569288E+00 0.65732071E+03</pdfrwt>
<pdfrwt beam="2">0</pdfrwt>
<totfact> 0.13963475E+00</totfact>
</mgrwt>
</event>
<event>
 6      1 +5.6466785e-02 6.54568000e+02 7.81860800e-03 9.79824500e-02
        1 -1    0    0  502    0 +0.0000000000e+00 +0.0000000000e+00 +1.0711736906e+02 1.0711736906e+02 0.0000000000e+00 0.0000e+00 1.0000e+00
       13 -1    0    0    0    0 -0.0000000000e+00 -0.0000000000e+00 -1.0000000000e+03 1.0000000000e+03 0.0000000000e+00 0.0000e+00 1.0000e+00
  9000005  2    1    2  501    0 -8.2841607536e-05 +7.7062365449e-05 -8.9288517750e+02 1.1071148200e+03 6.5456801360e+02 0.0000e+00 0.0000e+00
       13  1    3    3    0    0 -7.7612448105e+01 -1.8350568759e+02 -8.8560168716e+02 9.0773805571e+02 0.0000000000e+00 0.0000e+00 1.0000e+00
        1  1    3    3  501    0 +7.7612365263e+01 +1.8350576465e+02 -7.2834903395e+00 1.9937676427e+02 0.0000000000e+00 0.0000e+00 1.0000e+00
       21  1    1    2  502  501 +8.2841607536e-05 -7.7062365460e-05 +2.5465624582e-03 2.5490746740e-03 0.0000000000e+00 0.0000e+00 -1.0000e+00
<mgrwt>
<rscale>  1 0.65456801E+03</rscale>
<asrwt>0</asrwt>
<pdfrwt beam="1">  1        1 0.38951853E+00 0.65456801E+03</pdfrwt>
<pdfrwt beam="2">0</pdfrwt>
<totfact> 0.14881113E+00</totfact>
</mgrwt>
</event>
<event>
 6      1 +5.6466785e-02 6.51552700e+02 7.81860800e-03 9.80387000e-02
        1 -1    0    0  502    0 +0.0000000000e+00 +0.0000000000e+00 +1.0613022595e+02 1.0613022595e+02 0.0000000000e+00 0.0000e+00 1.0000e+00
       13 -1    0    0    0    0 -0.0000000000e+00 -0.0000000000e+00 -1.0000000000e+03 1.0000000000e+03 0.0000000000e+00 0.0000e+00 1.0000e+00
  9000005  2    1    2  501    0 +1.0742438349e-05 +2.6348493840e-06 -8.9386977550e+02 1.1061302148e+03 6.5155266596e+02 0.0000e+00 0.0000e+00
       13  1    3    3    0    0 -3.1632248587e+02 -3.0454347824e+01 -3.2518796899e+02 4.5468076443e+02 0.0000000000e+00 0.0000e+00 1.0000e+00
        1  1    3    3  501    0 +3.1632249661e+02 +3.0454350458e+01 -5.6868180651e+02 6.5144945037e+02 0.0000000000e+00 0.0000e+00 1.0000e+00
       21  1    1    2  502  501 -1.0742438392e-05 -2.6348493842e-06 +1.4578781861e-06 1.1156514809e-05 0.0000000000e+00 0.0000e+00 -1.0000e+00
<mgrwt>
<rscale>  1 0.65155267E+03</rscale>
<asrwt>0</asrwt>
<pdfrwt beam="1">  1        1 0.38592891E+00 0.65155267E+03</pdfrwt>
<pdfrwt beam="2">0</pdfrwt>
<totfact> 0.15444645E+00</totfact>
</mgrwt>
</event>
<event>
 6      1 +5.6466785e-02 5.53133400e+02 7.81860800e-03 1.00077100e-01
        1 -1    0    0  502    0 +0.0000000000e+00 +0.0000000000e+00 +7.6615570003e+01 7.6615570003e+01 0.0000000000e+00 0.0000e+00 1.0000e+00
       13 -1    0    0    0    0 -0.0000000000e+00 -0.0000000000e+00 -1.0000000000e+03 1.0000000000e+03 0.0000000000e+00 0.0000e+00 1.0000e+00
  9000005  2    1    2  501    0 +3.7492102623e-03 +9.0337689841e-04 -9.2351082052e+02 1.0764891207e+03 5.5313342989e+02 0.0000e+00 0.0000e+00
       13  1    3    3    0    0 +1.0707975269e+02 -2.4631085779e+02 -5.9017653901e+02 6.4841611585e+02 0.0000000000e+00 0.0000e+00 1.0000e+00
        1  1    3    3  501    0 -1.0707600348e+02 +2.4631176117e+02 -3.3333428151e+02 4.2807300481e+02 0.0000000000e+00 0.0000e+00 1.0000e+00
       21  1    1    2  502  501 -3.7492102623e-03 -9.0337689840e-04 +1.2639052317e-01 1.2644934565e-01 0.0000000000e+00 0.0000e+00 -1.0000e+00
<mgrwt>
<rscale>  1 0.55313343E+03</rscale>
<asrwt>0</asrwt>
<pdfrwt beam="1">  1        1 0.27860266E+00 0.55313343E+03</pdfrwt>
<pdfrwt beam="2">0</pdfrwt>
<totfact> 0.46015321E+00</totfact>
</mgrwt>
</event>
<event>
 6      1 +5.6466785e-02 6.60593400e+02 7.81860800e-03 9.78710200e-02
        1 -1    0    0  502    0 +0.0000000000e+00 +0.0000000000e+00 +1.0909674483e+02 1.0909674483e+02 0.0000000000e+00 0.0000e+00 1.0000e+00
       13 -1    0    0    0    0 -0.0000000000e+00 -0.0000000000e+00 -1.0000000000e+03 1.0000000000e+03 0.0000000000e+00 0.0000e+00 1.0000e+00
  9000005  2    1    2  501    0 -9.9680565313e-06 -1.4101886902e-04 -8.9090408595e+02 1.1090959021e+03 6.6059339213e+02 0.0000e+00 0.0000e+00
       13  1    3    3    0    0 +3.0852750481e+02 -1.1507037021e+02 -4.0213970199e+02 5.1975643454e+02 0.0000000000e+00 0.0000e+00 1.0000e+00
        3  1    3    3  501    0 -3.0852751478e+02 +1.1507022919e+02 -4.8876438395e+02 5.8933946758e+02 0.0000000000e+00 0.0000e+00 1.0000e+00
       21  1    1    2  502  501 +9.9680564954e-06 +1.4101886901e-04 +8.3077556926e-04 8.4271806083e-04 0.0000000000e+00 0.0000e+00 -1.0000e+00
<mgrwt>
<rscale>  1 0.66059339E+03</rscale>
<asrwt>0</asrwt>
<pdfrwt beam="1">  1        1 0.39671627E+00 0.66059339E+03</pdfrwt>
<pdfrwt beam="2">0</pdfrwt>
<totfact> 0.13809390E+00</totfact>
</mgrwt>
</event>
<event>
 6      1 +5.6466785e-02 6.53344800e+02 7.81860800e-03 9.80052300e-02
        1 -1    0    0  502    0 +0.0000000000e+00 +0.0000000000e+00 +1.0671737925e+02 1.0671737925e+02 0.0000000000e+00 0.0000e+00 1.0000e+00
       13 -1    0    0    0    0 -0.0000000000e+00 -0.0000000000e+00 -1.0000000000e+03 1.0000000000e+03 0.0000000000e+00 0.0000e+00 1.0000e+00
  9000005  2    1    2  501    0 +5.5798857971e-05 +3.0573907551e-05 -8.9328514334e+02 1.1067148559e+03 6.5334479785e+02 0.0000e+00 0.0000e+00
       13  1    3    3    0    0 +2.3830986570e+02 +7.5881982778e+01 -8.0262901922e+02 8.4069198278e+02 0.0000000000e+00 0.0000e+00 1.0000e+00
        1  1    3    3  501    0 -2.3830980990e+02 -7.5881952204e+01 -9.0656124111e+01 2.6602287309e+02 0.0000000000e+00 0.0000e+00 1.0000e+00
       21  1    1    2  502  501 -5.5798857981e-05 -3.0573907541e-05 +2.5225856292e-03 2.5233879078e-03 0.0000000000e+00 0.0000e+00 1.0000e+00
<mgrwt>
<rscale>  1 0.65334480E+03</rscale>
<asrwt>0</asrwt>
<pdfrwt beam="1">  1        1 0.38806402E+00 0.65334480E+03</pdfrwt>
<pdfrwt beam="2">0</pdfrwt>
<totfact> 0.15107067E+00</totfact>
</mgrwt>
</event>
<event>
 6      1 +5.6466785e-02 6.46633700e+02 7.81860800e-03 9.81311600e-02
        1 -1    0    0  502    0 +0.0000000000e+00 +0.0000000000e+00 +1.0453398615e+02 1.0453398615e+02 0.0000000000e+00 0.0000e+00 1.0000e+00
       13 -1    0    0    0    0 -0.0000000000e+00 -0.0000000000e+00 -1.0000000000e+03 1.0000000000e+03 0.0000000000e+00 0.0000e+00 1.0000e+00
  9000005  2    1    2  501    0 -1.6023173941e-05 +2.6086576270e-05 -8.9546622021e+02 1.1045337775e+03 6.4663367849e+02 0.0000e+00 0.0000e+00
       13  1    3    3    0    0 +1.7088106322e+02 -2.6699102697e+02 -3.3903885519e+02 4.6414641179e+02 0.0000000000e+00 0.0000e+00 1.0000e+00
        1  1    3    3  501    0 -1.7088107924e+02 +2.6699105306e+02 -5.5642736502e+02 6.4038736574e+02 0.0000000000e+00 0.0000e+00 1.0000e+00
       21  1    1    2  502  501 +1.6023173931e-05 -2.6086576245e-05 +2.0636215187e-04 2.0862068279e-04 0.0000000000e+00 0.0000e+00 -1.0000e+00
<mgrwt>
<rscale>  1 0.64663368E+03</rscale>
<asrwt>0</asrwt>
<pdfrwt beam="1">  1        1 0.38012439E+00 0.64663368E+03</pdfrwt>
<pdfrwt beam="2">0</pdfrwt>
<totfact> 0.16399142E+00</totfact>
</mgrwt>
</event>
<event>
 6      1 +5.6466785e-02 6.49823700e+02 7.81860800e-03 9.80711000e-02
        1 -1    0    0  502    0 +0.0000000000e+00 +0.0000000000e+00 +1.0556781578e+02 1.0556781578e+02 0.0000000000e+00 0.0000e+00 1.0000e+00
       13 -1    0    0    0    0 -0.0000000000e+00 -0.0000000000e+00 -1.0000000000e+03 1.0000000000e+03 0.0000000000e+00 0.0000e+00 1.0000e+00
  9000005  2    1    2  501    0 -6.2242709930e-05 +3.5877183706e-05 -8.9443227873e+02 1.1055676971e+03 6.4982369267e+02 0.0000e+00 0.0000e+00
       13  1    3    3    0    0 +1.9183752696e+02 +2.3789471567e+02 -6.3492026684e+02 7.0464124044e+02 0.0000000000e+00 0.0000e+00 1.0000e+00
        1  1    3    3  501    0 -1.9183758920e+02 -2.3789467979e+02 -2.5951201190e+02 4.0092645662e+02 0.0000000000e+00 0.0000e+00 1.0000e+00
       21  1    1    2  502  501 +6.2242709922e-05 -3.5877183711e-05 +9.4508732940e-05 1.1871490156e-04 0.0000000000e+00 0.0000e+00 1.0000e+00
<mgrwt>
<rscale>  1 0.64982369E+03</rscale>
<asrwt>0</asrwt>
<pdfrwt beam="1">  1        1 0.38388378E+00 0.64982369E+03</pdfrwt>
<pdfrwt beam="2">0</pdfrwt>
<totfact> 0.15774743E+00</totfact>
</mgrwt>
</event>
<event>
 6      1 +5.6466785e-02 6.41706600e+02 7.81860800e-03 9.82246700e-02
        1 -1    0    0  502    0 +0.0000000000e+00 +0.0000000000e+00 +1.0392046233e+02 1.0392046233e+02 0.0000000000e+00 0.0000e+00 1.0000e+00
       13 -1    0    0    0    0 -0.0000000000e+00 -0.0000000000e+00 -1.0000000000e+03 1.0000000000e+03 0.0000000000e+00 0.0000e+00 1.0000e+00
  9000005  2    1    2  501    0 +1.1582306778e-01 -1.4477579979e-01 -8.9704340561e+02 1.1029389245e+03 6.4170660378e+02 0.0000e+00 0.0000e+00
       13  1    3    3    0    0 +1.6198337993e+02 +2.7195545563e+02 -3.5870822270e+02 4.7840356839e+02 0.0000000000e+00 0.0000e+00 1.0000e+00
        1  1    3    3  501    0 -1.6186755687e+02 -2.7210023143e+02 -5.3833518292e+02 6.2453535615e+02 0.0000000000e+00 0.0000e+00 1.0000e+00
       21  1    1    2  502  501 -1.1582306778e-01 +1.4477579979e-01 +9.6386794220e-01 9.8153778594e-01 0.0000000000e+00 0.0000e+00 1.0000e+00
<mgrwt>
<rscale>  1 0.64170663E+03</rscale>
<asrwt>0</asrwt>
<pdfrwt beam="1">  1        1 0.37789339E+00 0.64170663E+03</pdfrwt>
<pdfrwt beam="2">0</pdfrwt>
<totfact> 0.16790099E+00</totfact>
</mgrwt>
</event>
<event>
 6      1 +5.6466785e-02 6.00727000e+02 7.81860800e-03 9.90389900e-02
        1 -1    0    0  502    0 +0.0000000000e+00 +0.0000000000e+00 +9.0218260223e+01 9.0218260223e+01 0.0000000000e+00 0.0000e+00 1.0000e+00
       13 -1    0    0    0    0 -0.0000000000e+00 -0.0000000000e+00 -1.0000000000e+03 1.0000000000e+03 0.0000000000e+00 0.0000e+00 1.0000e+00
  9000005  2    1    2  501    0 -3.5391710322e-05 -5.4433548371e-06 -9.0978175071e+02 1.0902182228e+03 6.0072700901e+02 0.0000e+00 0.0000e+00
       13  1    3    3    0    0 +1.4166443592e+01 -2.9361254058e+02 -3.4288146430e+02 4.5163780917e+02 0.0000000000e+00 0.0000e+00 1.0000e+00
        1  1    3    3  501    0 -1.4166478984e+01 +2.9361253514e+02 -5.6690028641e+02 6.3858041361e+02 0.0000000000e+00 0.0000e+00 1.0000e+00
       21  1    1    2  502  501 +3.5391710322e-05 +5.4433547892e-06 +1.0935621637e-05 3.7440500684e-05 0.0000000000e+00 0.0000e+00 -1.0000e+00
<mgrwt>
<rscale>  1 0.60072701E+03</rscale>
<asrwt>0</asrwt>
<pdfrwt beam="1">  1        1 0.32806709E+00 0.60072701E+03</pdfrwt>
<pdfrwt beam="2">0</pdfrwt>
<totfact> 0.27905639E+00</totfact>
</mgrwt>
</event>
<event>
 6      1 +5.6466785e-02 6.46546000e+02 7.81860800e-03 9.81328200e-02
        1 -1    0    0  502    0 +0.0000000000e+00 +0.0000000000e+00 +1.0451904580e+02 1.0451904580e+02 0.0000000000e+00 0.0000e+00 1.0000e+00
       13 -1    0    0    0    0 -0.0000000000e+00 -0.0000000000e+00 -1.0000000000e+03 1.0000000000e+03 0.0000000000e+00 0.0000e+00 1.0000e+00
  9000005  2    1    2  501    0 +1.6302443964e-04 -1.8365596154e-04 -8.9549455120e+02 1.1045054466e+03 6.4654604656e+02 0.0000e+00 0.0000e+00
       13  1    3    3    0    0 -2.8416836138e+02 -1.5394135817e+02 -4.3498276512e+02 5.4190368639e+02 0.0000000000e+00 0.0000e+00 1.0000e+00
        3  1    3    3  501    0 +2.8416852440e+02 +1.5394117451e+02 -4.6051178607e+02 5.6260176020e+02 0.0000000000e+00 0.0000e+00 1.0000e+00
       21  1    1    2  502  501 -1.6302443959e-04 +1.8365596152e-04 +1.3596998317e-02 1.3599215775e-02 0.0000000000e+00 0.0000e+00 -1.0000e+00
<mgrwt>
<rscale>  1 0.64654605E+03</rscale>
<asrwt>0</asrwt>
<pdfrwt beam="1">  1        1 0.38007006E+00 0.64654605E+03</pdfrwt>
<pdfrwt beam="2">0</pdfrwt>
<totfact> 0.16408461E+00</totfact>
</mgrwt>
</event>
<event>
 6      1 +5.6466785e-02 6.42644700e+02 7.81860800e-03 9.82068000e-02
        3 -1    0    0  502    0 +0.0000000000e+00 +0.0000000000e+00 +1.0370662621e+02 1.0370662621e+02 0.0000000000e+00 0.0000e+00 1.0000e+00
       13 -1    0    0    0    0 -0.0000000000e+00 -0.0000000000e+00 -1.0000000000e+03 1.0000000000e+03 0.0000000000e+00 0.0000e+00 1.0000e+00
  9000005  2    1    2  501    0 +2.4298246005e-02 +5.8262360691e-02 -8.9674955491e+02 1.1032460981e+03 6.4264468007e+02 0.0000e+00 0.0000e+00
       13  1    3    3    0    0 +4.6584110756e+01 +2.2184944073e+02 -8.3940813091e+02 8.6947873118e+02 0.0000000000e+00 0.0000e+00 1.0000e+00
        3  1    3    3  501    0 -4.6559812510e+01 -2.2179117837e+02 -5.7341423995e+01 2.3376736695e+02 0.0000000000e+00 0.0000e+00 1.0000e+00
       21  1    1    2  502  501 -2.4298246005e-02 -5.8262360691e-02 +4.5618111316e-01 4.6052808322e-01 0.0000000000e+00 0.0000e+00 -1.0000e+00
<mgrwt>
<rscale>  1 0.64264468E+03</rscale>
<asrwt>0</asrwt>
<pdfrwt beam="1">  1        3 0.37711580E+00 0.64264468E+03</pdfrwt>
<pdfrwt beam="2">0</pdfrwt>
<totfact> 0.78270274E-02</totfact>
</mgrwt>
</event>
<event>
 6      1 +5.6466785e-02 6.37560100e+02 7.81860800e-03 9.83040600e-02
        1 -1    0    0  502    0 +0.0000000000e+00 +0.0000000000e+00 +1.0162078406e+02 1.0162078406e+02 0.0000000000e+00 0.0000e+00 1.0000e+00
       13 -1    0    0    0    0 -0.0000000000e+00 -0.0000000000e+00 -1.0000000000e+03 1.0000000000e+03 0.0000000000e+00 0.0000e+00 1.0000e+00
  9000005  2    1    2  501    0 +5.9917116197e-05 -4.2692674810e-05 -8.9837923724e+02 1.1016207075e+03 6.3756013772e+02 0.0000e+00 0.0000e+00
       13  1    3    3    0    0 -4.2949574285e+01 -1.3198599705e+02 -9.4504832899e+02 9.5518653334e+02 0.0000000000e+00 0.0000e+00 1.0000e+00
        3  1    3    3  501    0 +4.2949634202e+01 +1.3198595436e+02 +4.6669091754e+01 1.4643417412e+02 0.0000000000e+00 0.0000e+00 1.0000e+00
       21  1    1    2  502  501 -5.9917116200e-05 +4.2692674788e-05 +2.1293680926e-05 7.6590770604e-05 0.0000000000e+00 0.0000e+00 -1.0000e+00
<mgrwt>
<rscale>  1 0.63756014E+03</rscale>
<asrwt>0</asrwt>
<pdfrwt beam="1">  1        1 0.36953090E+00 0.63756014E+03</pdfrwt>
<pdfrwt beam="2">0</pdfrwt>
<totfact> 0.18288145E+00</totfact>
</mgrwt>
</event>
<event>
 6      1 +5.6466785e-02 6.57285400e+02 7.81860800e-03 9.79320400e-02
        1 -1    0    0  502    0 +0.0000000000e+00 +0.0000000000e+00 +1.1060361000e+02 1.1060361000e+02 0.0000000000e+00 0.0000e+00 1.0000e+00
       13 -1    0    0    0    0 -0.0000000000e+00 -0.0000000000e+00 -1.0000000000e+03 1.0000000000e+03 0.0000000000e+00 0.0000e+00 1.0000e+00
  9000005  2    1    2  501    0 +2.5111263409e-01 +2.0961646362e-01 -8.9198257711e+02 1.1079968188e+03 6.5728526959e+02 0.0000e+00 0.0000e+00
       13  1    3    3    0    0 -2.5581946996e+02 -2.0467038776e+02 -4.8584858783e+02 5.8598841212e+02 0.0000000000e+00 0.0000e+00 1.0000e+00
        3  1    3    3  501    0 +2.5607058260e+02 +2.0488000423e+02 -4.0613398928e+02 5.2200840668e+02 0.0000000000e+00 0.0000e+00 1.0000e+00
       21  1    1    2  502  501 -2.5111263409e-01 -2.0961646362e-01 +2.5861871023e+00 2.6067911970e+00 0.0000000000e+00 0.0000e+00 1.0000e+00
<mgrwt>
<rscale>  1 0.65728535E+03</rscale>
<asrwt>0</asrwt>
<pdfrwt beam="1">  1        1 0.40219579E+00 0.65728535E+03</pdfrwt>
<pdfrwt beam="2">0</pdfrwt>
<totfact> 0.13062310E+00</totfact>
</mgrwt>
</event>
<event>
 6      1 +5.6466785e-02 6.48082300e+02 7.81860800e-03 9.81038400e-02
        1 -1    0    0  502    0 +0.0000000000e+00 +0.0000000000e+00 +1.2789009759e+02 1.2789009759e+02 0.0000000000e+00 0.0000e+00 1.0000e+00
       13 -1    0    0    0    0 -0.0000000000e+00 -0.0000000000e+00 -1.0000000000e+03 1.0000000000e+03 0.0000000000e+00 0.0000e+00 1.0000e+00
  9000005  2    1    2  501    0 -3.7773653309e+00 +1.3044261140e+00 -8.9480441795e+02 1.1048464205e+03 6.4806997814e+02 0.0000e+00 0.0000e+00
       13  1    3    3    0    0 +1.8328731718e+02 -8.4608939290e+01 -8.7506858915e+02 8.9805230859e+02 0.0000000000e+00 0.0000e+00 1.0000e+00
        1  1    3    3  501    0 -1.8706468251e+02 +8.5913365404e+01 -1.9735828806e+01 2.0679411195e+02 0.0000000000e+00 0.0000e+00 1.0000e+00
       21  1    1    2  502  501 +3.7773653309e+00 -1.3044261140e+00 +2.2694515547e+01 2.3043677055e+01 0.0000000000e+00 0.0000e+00 -1.0000e+00
<mgrwt>
<rscale>  1 0.64808230E+03</rscale>
<asrwt>0</asrwt>
<pdfrwt beam="1">  1        1 0.46505588E+00 0.64808230E+03</pdfrwt>
<pdfrwt beam="2">0</pdfrwt>
<totfact> 0.67689463E-01</totfact>
</mgrwt>
</event>
<event>
 6      1 +5.6466785e-02 6.47259800e+02 7.81860800e-03 9.81193500e-02
        1 -1    0    0  502    0 +0.0000000000e+00 +0.0000000000e+00 +1.0478742505e+02 1.0478742505e+02 0.0000000000e+00 0.0000e+00 1.0000e+00
       13 -1    0    0    0    0 -0.0000000000e+00 -0.0000000000e+00 -1.0000000000e+03 1.0000000000e+03 0.0000000000e+00 0.0000e+00 1.0000e+00
  9000005  2    1    2  501    0 +8.6573974212e-04 +1.3051700862e-03 -8.9526367064e+02 1.1047363054e+03 6.4725981215e+02 0.0000e+00 0.0000e+00
       13  1    3    3    0    0 -2.4886291169e+02 -9.9663586284e+01 -7.5707534969e+02 8.0313676566e+02 0.0000000000e+00 0.0000e+00 1.0000e+00
        1  1    3    3  501    0 +2.4886377743e+02 +9.9664891454e+01 -1.3818832095e+02 3.0159953971e+02 0.0000000000e+00 0.0000e+00 1.0000e+00
       21  1    1    2  502  501 -8.6573974214e-04 -1.3051700862e-03 +5.1095685253e-02 5.1119683349e-02 0.0000000000e+00 0.0000e+00 1.0000e+00
<mgrwt>
<rscale>  1 0.64725981E+03</rscale>
<asrwt>0</asrwt>
<pdfrwt beam="1">  1        1 0.38104599E+00 0.64725981E+03</pdfrwt>
<pdfrwt beam="2">0</pdfrwt>
<totfact> 0.16244399E+00</totfact>
</mgrwt>
</event>
<event>
 6      1 +5.6466785e-02 6.51580300e+02 7.81860800e-03 9.80381800e-02
        1 -1    0    0  502    0 +0.0000000000e+00 +0.0000000000e+00 +1.0613923568e+02 1.0613923568e+02 0.0000000000e+00 0.0000e+00 1.0000e+00
       13 -1    0    0    0    0 -0.0000000000e+00 -0.0000000000e+00 -1.0000000000e+03 1.0000000000e+03 0.0000000000e+00 0.0000e+00 1.0000e+00
  9000005  2    1    2  501    0 -2.9239459991e-06 -1.7372542800e-06 -8.9386076789e+02 1.1061392307e+03 6.5158032922e+02 0.0000e+00 0.0000e+00
       13  1    3    3    0    0 -2.2527538650e+02 +1.1378183599e+02 -7.9667384659e+02 8.3569403720e+02 0.0000000000e+00 0.0000e+00 1.0000e+00
        3  1    3    3  501    0 +2.2527538358e+02 -1.1378183773e+02 -9.7186921303e+01 2.7044519355e+02 0.0000000000e+00 0.0000e+00 1.0000e+00
       21  1    1    2  502  501 +2.9239459998e-06 +1.7372542820e-06 +3.5773161395e-06 4.9360615284e-06 0.0000000000e+00 0.0000e+00 1.0000e+00
<mgrwt>
<rscale>  1 0.65158033E+03</rscale>
<asrwt>0</asrwt>
<pdfrwt beam="1">  1        1 0.38596167E+00 0.65158033E+03</pdfrwt>
<pdfrwt beam="2">0</pdfrwt>
<totfact> 0.15439411E+00</totfact>
</mgrwt>
</event>
<event>
 6      1 +5.6466785e-02 6.53918900e+02 7.81860800e-03 9.79945300e-02
        1 -1    0    0  502    0 +0.0000000000e+00 +0.0000000000e+00 +1.0690344165e+02 1.0690344165e+02 0.0000000000e+00 0.0000e+00 1.0000e+00
       13 -1    0    0    0    0 -0.0000000000e+00 -0.0000000000e+00 -1.0000000000e+03 1.0000000000e+03 0.0000000000e+00 0.0000e+00 1.0000e+00
  9000005  2    1    2  501    0 +7.3146415836e-04 +6.9978357431e-05 -8.9309735159e+02 1.1069023604e+03 6.5391892156e+02 0.0000e+00 0.0000e+00
       13  1    3    3    0    0 -9.3335188936e+01 -1.2250446389e+02 +4.1658812753e+01 1.5954390570e+02 0.0000000000e+00 0.0000e+00 1.0000e+00
        3  1    3    3  501    0 +9.3335920400e+01 +1.2250453387e+02 -9.3475616434e+02 9.4735845467e+02 0.0000000000e+00 0.0000e+00 1.0000e+00
       21  1    1    2  502  501 -7.3146415836e-04 -6.9978357427e-05 +7.9323496362e-04 1.0812763259e-03 0.0000000000e+00 0.0000e+00 1.0000e+00
<mgrwt>
<rscale>  1 0.65391892E+03</rscale>
<asrwt>0</asrwt>
<pdfrwt beam="1">  1        1 0.38874061E+00 0.65391892E+03</pdfrwt>
<pdfrwt beam="2">0</pdfrwt>
<totfact> 0.15001544E+00</totfact>
</mgrwt>
</event>
<event>
 6      1 +5.6466785e-02 6.41607600e+02 7.81860800e-03 9.82265600e-02
        1 -1    0    0  502    0 +0.0000000000e+00 +0.0000000000e+00 +1.0291652136e+02 1.0291652136e+02 0.0000000000e+00 0.0000e+00 1.0000e+00
       13 -1    0    0    0    0 -0.0000000000e+00 -0.0000000000e+00 -1.0000000000e+03 1.0000000000e+03 0.0000000000e+00 0.0000e+00 1.0000e+00
  9000005  2    1    2  501    0 +1.8049113338e-04 -1.8465102333e-04 -8.9708490520e+02 1.1029150716e+03 6.4160761222e+02 0.0000e+00 0.0000e+00
       13  1    3    3    0    0 -1.1835656768e+02 -3.9443115501e+01 +5.9507726308e+01 1.3822158284e+02 0.0000000000e+00 0.0000e+00 1.0000e+00
        3  1    3    3  501    0 +1.1835674817e+02 +3.9442930850e+01 -9.5659263151e+02 9.6469348878e+02 0.0000000000e+00 0.0000e+00 1.0000e+00
       21  1    1    2  502  501 -1.8049113338e-04 +1.8465102333e-04 +1.4265653088e-03 1.4497453672e-03 0.0000000000e+00 0.0000e+00 -1.0000e+00
<mgrwt>
<rscale>  1 0.64160761E+03</rscale>
<asrwt>0</asrwt>
<pdfrwt beam="1">  1        1 0.37424269E+00 0.64160761E+03</pdfrwt>
<pdfrwt beam="2">0</pdfrwt>
<totfact> 0.17423603E+00</totfact>
</mgrwt>
</event>
<event>
 6      1 +5.6466785e-02 5.35127800e+02 7.81860800e-03 1.00499600e-01
        1 -1    0    0  502    0 +0.0000000000e+00 +0.0000000000e+00 +7.1825308512e+01 7.1825308512e+01 0.0000000000e+00 0.0000e+00 1.0000e+00
       13 -1    0    0    0    0 -0.0000000000e+00 -0.0000000000e+00 -1.0000000000e+03 1.0000000000e+03 0.0000000000e+00 0.0000e+00 1.0000e+00
  9000005  2    1    2  501    0 +3.4850382119e-03 +1.8856879036e-03 -9.2840953228e+02 1.0715904343e+03 5.3512783448e+02 0.0000e+00 0.0000e+00
       13  1    3    3    0    0 +2.6245022248e+02 -4.5264019584e+01 -4.1267178075e+02 4.9114860213e+02 0.0000000000e+00 0.0000e+00 1.0000e+00
        3  1    3    3  501    0 -2.6244673744e+02 +4.5265905272e+01 -5.1573775153e+02 5.8044183216e+02 0.0000000000e+00 0.0000e+00 1.0000e+00
       21  1    1    2  502  501 -3.4850382119e-03 -1.8856879036e-03 +2.3484079009e-01 2.3487421740e-01 0.0000000000e+00 0.0000e+00 -1.0000e+00
<mgrwt>
<rscale>  1 0.53512783E+03</rscale>
<asrwt>0</asrwt>
<pdfrwt beam="1">  1        1 0.26118349E+00 0.53512783E+03</pdfrwt>
<pdfrwt beam="2">0</pdfrwt>
<totfact> 0.54899942E+00</totfact>
</mgrwt>
</event>
<event>
 6      1 +5.6466785e-02 6.57598900e+02 7.81860800e-03 9.79262400e-02
        1 -1    0    0  502    0 +0.0000000000e+00 +0.0000000000e+00 +1.0810914694e+02 1.0810914694e+02 0.0000000000e+00 0.0000e+00 1.0000e+00
       13 -1    0    0    0    0 -0.0000000000e+00 -0.0000000000e+00 -1.0000000000e+03 1.0000000000e+03 0.0000000000e+00 0.0000e+00 1.0000e+00
  9000005  2    1    2  501    0 +9.6330328574e-05 -2.7904559232e-05 -8.9189087838e+02 1.1081090435e+03 6.5759890006e+02 0.0000e+00 0.0000e+00
       13  1    3    3    0    0 -1.0667225005e+02 +2.5210907715e+02 -1.3904222045e+02 3.0703533149e+02 0.0000000000e+00 0.0000e+00 1.0000e+00
        1  1    3    3  501    0 +1.0667234638e+02 -2.5210910506e+02 -7.5284865793e+02 8.0107371201e+02 0.0000000000e+00 0.0000e+00 1.0000e+00
       21  1    1    2  502  501 -9.6330328578e-05 +2.7904559241e-05 +2.5317401599e-05 1.0343677999e-04 0.0000000000e+00 0.0000e+00 1.0000e+00
<mgrwt>
<rscale>  1 0.65759890E+03</rscale>
<asrwt>0</asrwt>
<pdfrwt beam="1">  1        1 0.39312500E+00 0.65759890E+03</pdfrwt>
<pdfrwt beam="2">0</pdfrwt>
<totfact> 0.14334606E+00</totfact>
</mgrwt>
</event>
<event>
 6      1 +5.6466785e-02 4.73947400e+02 7.81860800e-03 1.02081200e-01
        1 -1    0    0  502    0 +0.0000000000e+00 +0.0000000000e+00 +6.4667340798e+01 6.4667340798e+01 0.0000000000e+00 0.0000e+00 1.0000e+00
       13 -1    0    0    0    0 -0.0000000000e+00 -0.0000000000e+00 -1.0000000000e+03 1.0000000000e+03 0.0000000000e+00 0.0000e+00 1.0000e+00
  9000005  2    1    2  501    0 +1.1730526361e+00 -5.9928499385e-01 -9.4378960820e+02 1.0561084167e+03 4.7394559619e+02 0.0000e+00 0.0000e+00
       13  1    3    3    0    0 +1.3114134368e+02 +4.7934191141e+01 -4.5036636905e+01 1.4671072683e+02 0.0000000000e+00 0.0000e+00 1.0000e+00
        1  1    3    3  501    0 -1.2996829105e+02 -4.8533476134e+01 -8.9875297129e+02 9.0939768990e+02 0.0000000000e+00 0.0000e+00 1.0000e+00
       21  1    1    2  502  501 -1.1730526361e+00 +5.9928499385e-01 +8.4569489941e+00 8.5589240725e+00 0.0000000000e+00 0.0000e+00 -1.0000e+00
<mgrwt>
<rscale>  1 0.47394743E+03</rscale>
<asrwt>0</asrwt>
<pdfrwt beam="1">  1        1 0.23515446E+00 0.47394743E+03</pdfrwt>
<pdfrwt beam="2">0</pdfrwt>
<totfact> 0.72019632E+00</totfact>
</mgrwt>
</event>
<event>
 6      1 +5.6466785e-02 6.55128400e+02 7.81860800e-03 9.79720400e-02
        1 -1    0    0  502    0 +0.0000000000e+00 +0.0000000000e+00 +1.2771774779e+02 1.2771774779e+02 0.0000000000e+00 0.0000e+00 1.0000e+00
       13 -1    0    0    0    0 -0.0000000000e+00 -0.0000000000e+00 -1.0000000000e+03 1.0000000000e+03 0.0000000000e+00 0.0000e+00 1.0000e+00
  9000005  2    1    2  501    0 -4.1283593270e+01 -4.3011095722e+01 -8.0081522239e+02 1.0346488175e+03 6.5241004419e+02 0.0000e+00 0.0000e+00
       13  1    3    3    0    0 +2.9850543433e+02 +3.0321368636e+01 -2.9394666178e+02 4.2003514102e+02 0.0000000000e+00 0.0000e+00 1.0000e+00
        3  1    3    3  501    0 -3.3978902760e+02 -7.3332464359e+01 -5.0686856061e+02 6.1461367650e+02 0.0000000000e+00 0.0000e+00 1.0000e+00
       21  1    1    2  502  501 +4.1283593270e+01 +4.3011095722e+01 -7.1467029825e+01 9.3068930264e+01 0.0000000000e+00 0.0000e+00 -1.0000e+00
<mgrwt>
<rscale>  1 0.65512835E+03</rscale>
<asrwt>0</asrwt>
<pdfrwt beam="1">  1        1 0.46442915E+00 0.65512835E+03</pdfrwt>
<pdfrwt beam="2">0</pdfrwt>
<totfact> 0.68043623E-01</totfact>
</mgrwt>
</event>
<event>
 6      1 +5.6466785e-02 6.50298500e+02 7.81860800e-03 9.80621900e-02
        3 -1    0    0  502    0 +0.0000000000e+00 +0.0000000000e+00 +1.0572204320e+02 1.0572204320e+02 0.0000000000e+00 0.0000e+00 1.0000e+00
       13 -1    0    0    0    0 -0.0000000000e+00 -0.0000000000e+00 -1.0000000000e+03 1.0000000000e+03 0.0000000000e+00 0.0000e+00 1.0000e+00
  9000005  2    1    2  501    0 +2.1242171556e-05 -3.0686351238e-07 -8.9427794444e+02 1.1057220186e+03 6.5029850111e+02 0.0000e+00 0.0000e+00
       13  1    3    3    0    0 +1.3745890081e+02 +2.8808756218e+02 -3.4187433899e+02 4.6772583481e+02 0.0000000000e+00 0.0000e+00 1.0000e+00
        3  1    3    3  501    0 -1.3745887957e+02 -2.8808756249e+02 -5.5240360545e+02 6.3799618381e+02 0.0000000000e+00 0.0000e+00 1.0000e+00
       21  1    1    2  502  501 -2.1242171560e-05 +3.0686350849e-07 -1.2360030094e-05 2.4578331142e-05 0.0000000000e+00 0.0000e+00 -1.0000e+00
<mgrwt>
<rscale>  1 0.65029850E+03</rscale>
<asrwt>0</asrwt>
<pdfrwt beam="1">  1        3 0.38444460E+00 0.65029850E+03</pdfrwt>
<pdfrwt beam="2">0</pdfrwt>
<totfact> 0.71506821E-02</totfact>
</mgrwt>
</event>
<event>
 6      1 +5.6466785e-02 6.56172100e+02 7.81860800e-03 9.79526600e-02
        1 -1    0    0  502    0 +0.0000000000e+00 +0.0000000000e+00 +1.0926620856e+02 1.0926620856e+02 0.0000000000e+00 0.0000e+00 1.0000e+00
       13 -1    0    0    0    0 -0.0000000000e+00 -0.0000000000e+00 -1.0000000000e+03 1.0000000000e+03 0.0000000000e+00 0.0000e+00 1.0000e+00
  9000005  2    1    2  501    0 -2.6502047419e+00 +1.3577248534e+00 -8.9068024610e+02 1.1062879760e+03 6.5616531308e+02 0.0000e+00 0.0000e+00
       13  1    3    3    0    0 -3.0933524484e+02 +1.1367987609e+02 -4.4571449743e+02 5.5432194720e+02 0.0000000000e+00 0.0000e+00 1.0000e+00
        3  1    3    3  501    0 +3.0668504010e+02 -1.1232215124e+02 -4.4496574867e+02 5.5196602882e+02 0.0000000000e+00 0.0000e+00 1.0000e+00
       21  1    1    2  502  501 +2.6502047419e+00 -1.3577248534e+00 -5.3545341421e-02 2.9782325388e+00 0.0000000000e+00 0.0000e+00 1.0000e+00
<mgrwt>
<rscale>  1 0.65617207E+03</rscale>
<asrwt>0</asrwt>
<pdfrwt beam="1">  1        1 0.39733251E+00 0.65617207E+03</pdfrwt>
<pdfrwt beam="2">0</pdfrwt>
<totfact> 0.13733797E+00</totfact>
</mgrwt>
</event>
<event>
 6      1 +5.6466785e-02 6.51052100e+02 7.81860800e-03 9.80480700e-02
        1 -1    0    0  502    0 +0.0000000000e+00 +0.0000000000e+00 +1.0605070909e+02 1.0605070909e+02 0.0000000000e+00 0.0000e+00 1.0000e+00
       13 -1    0    0    0    0 -0.0000000000e+00 -0.0000000000e+00 -1.0000000000e+03 1.0000000000e+03 0.0000000000e+00 0.0000e+00 1.0000e+00
  9000005  2    1    2  501    0 -2.7477503733e-04 +1.3339025591e-03 -8.9403278983e+02 1.1059671991e+03 6.5105208402e+02 0.0000e+00 0.0000e+00
       13  1    3    3    0    0 -2.9397422234e+02 -4.3706017374e+01 -6.7261099903e+02 7.3534795530e+02 0.0000000000e+00 0.0000e+00 1.0000e+00
        1  1    3    3  501    0 +2.9397394757e+02 +4.3707351276e+01 -2.2142179081e+02 3.7061924376e+02 0.0000000000e+00 0.0000e+00 1.0000e+00
       21  1    1    2  502  501 +2.7477503732e-04 -1.3339025591e-03 +8.3498923445e-02 8.3510029421e-02 0.0000000000e+00 0.0000e+00 1.0000e+00
<mgrwt>
<rscale>  1 0.65105208E+03</rscale>
<asrwt>0</asrwt>
<pdfrwt beam="1">  1        1 0.38563976E+00 0.65105208E+03</pdfrwt>
<pdfrwt beam="2">0</pdfrwt>
<totfact> 0.15491648E+00</totfact>
</mgrwt>
</event>
<event>
 6      1 +5.6466785e-02 6.44041600e+02 7.81860800e-03 9.81802400e-02
        1 -1    0    0  502    0 +0.0000000000e+00 +0.0000000000e+00 +1.0371212437e+02 1.0371212437e+02 0.0000000000e+00 0.0000e+00 1.0000e+00
       13 -1    0    0    0    0 -0.0000000000e+00 -0.0000000000e+00 -1.0000000000e+03 1.0000000000e+03 0.0000000000e+00 0.0000e+00 1.0000e+00
  9000005  2    1    2  501    0 -1.8164136483e-04 +3.8319641021e-04 -8.9630261296e+02 1.1036973809e+03 6.4404156288e+02 0.0000e+00 0.0000e+00
       13  1    3    3    0    0 +2.0989407362e+02 -2.4407801594e+02 -4.3405565159e+02 5.4040161795e+02 0.0000000000e+00 0.0000e+00 1.0000e+00
        3  1    3    3  501    0 -2.0989425526e+02 +2.4407839913e+02 -4.6224696137e+02 5.6329576300e+02 0.0000000000e+00 0.0000e+00 1.0000e+00
       21  1    1    2  502  501 +1.8164136486e-04 -3.8319641019e-04 +1.4737322138e-02 1.4743422156e-02 0.0000000000e+00 0.0000e+00 1.0000e+00
<mgrwt>
<rscale>  1 0.64404156E+03</rscale>
<asrwt>0</asrwt>
<pdfrwt beam="1">  1        1 0.37713579E+00 0.64404156E+03</pdfrwt>
<pdfrwt beam="2">0</pdfrwt>
<totfact> 0.16912409E+00</totfact>
</mgrwt>
</event>
<event>
 6      1 +5.6466785e-02 6.75700800e+02 7.81860800e-03 9.75971400e-02
        1 -1    0    0  502    0 +0.0000000000e+00 +0.0000000000e+00 +1.1769326705e+02 1.1769326705e+02 0.0000000000e+00 0.0000e+00 1.0000e+00
       13 -1    0    0    0    0 -0.0000000000e+00 -0.0000000000e+00 -1.0000000000e+03 1.0000000000e+03 0.0000000000e+00 0.0000e+00 1.0000e+00
  9000005  2    1    2  501    0 -1.7829397872e+00 -8.7858662498e-01 -8.8554431662e+02 1.1138942229e+03 6.7569790011e+02 0.0000e+00 0.0000e+00
       13  1    3    3    0    0 +1.1666425460e+02 -6.5741404989e+01 +6.8447710908e+01 1.5039138858e+02 0.0000000000e+00 0.0000e+00 1.0000e+00
        3  1    3    3  501    0 -1.1844719438e+02 +6.4862818364e+01 -9.5399202753e+02 9.6350283428e+02 0.0000000000e+00 0.0000e+00 1.0000e+00
       21  1    1    2  502  501 +1.7829397872e+00 +8.7858662498e-01 +3.2375836726e+00 3.7990441929e+00 0.0000000000e+00 0.0000e+00 1.0000e+00
<mgrwt>
<rscale>  1 0.67570082E+03</rscale>
<asrwt>0</asrwt>
<pdfrwt beam="1">  1        1 0.42797642E+00 0.67570082E+03</pdfrwt>
<pdfrwt beam="2">0</pdfrwt>
<totfact> 0.99652763E-01</totfact>
</mgrwt>
</event>
<event>
 6      1 +5.6466785e-02 6.42638900e+02 7.81860800e-03 9.82069100e-02
        1 -1    0    0  502    0 +0.0000000000e+00 +0.0000000000e+00 +1.0512051847e+02 1.0512051847e+02 0.0000000000e+00 0.0000e+00 1.0000e+00
       13 -1    0    0    0    0 -0.0000000000e+00 -0.0000000000e+00 -1.0000000000e+03 1.0000000000e+03 0.0000000000e+00 0.0000e+00 1.0000e+00
  9000005  2    1    2  501    0 +1.1818691474e-01 -9.3021374625e-02 -8.9675046651e+02 1.1032434980e+03 6.4263892974e+02 0.0000e+00 0.0000e+00
       13  1    3    3    0    0 +1.3653539309e+02 -6.8257766745e+01 -9.3389301402e+02 9.4628600218e+02 0.0000000000e+00 0.0000e+00 1.0000e+00
        1  1    3    3  501    0 -1.3641720618e+02 +6.8164745370e+01 +3.7142547504e+01 1.5695749580e+02 0.0000000000e+00 0.0000e+00 1.0000e+00
       21  1    1    2  502  501 -1.1818691474e-01 +9.3021374625e-02 +1.8709849821e+00 1.8770204917e+00 0.0000000000e+00 0.0000e+00 -1.0000e+00
<mgrwt>
<rscale>  1 0.64263895E+03</rscale>
<asrwt>0</asrwt>
<pdfrwt beam="1">  1        1 0.38225724E+00 0.64263895E+03</pdfrwt>
<pdfrwt beam="2">0</pdfrwt>
<totfact> 0.16059289E+00</totfact>
</mgrwt>
</event>
<event>
 6      1 +5.6466785e-02 6.49342000e+02 7.81860800e-03 9.80801500e-02
        1 -1    0    0  502    0 +0.0000000000e+00 +0.0000000000e+00 +1.0541369252e+02 1.0541369252e+02 0.0000000000e+00 0.0000e+00 1.0000e+00
       13 -1    0    0    0    0 -0.0000000000e+00 -0.0000000000e+00 -1.0000000000e+03 1.0000000000e+03 0.0000000000e+00 0.0000e+00 1.0000e+00
  9000005  2    1    2  501    0 +5.6583699777e-03 +1.0597618336e-03 -8.9458416876e+02 1.1054075513e+03 6.4934198962e+02 0.0000e+00 0.0000e+00
       13  1    3    3    0    0 +3.0844385770e+02 +1.0109733936e+02 -4.5990052704e+02 5.6290921129e+02 0.0000000000e+00 0.0000e+00 1.0000e+00
        3  1    3    3  501    0 -3.0843819933e+02 -1.0109627959e+02 -4.3468364172e+02 5.4249834003e+02 0.0000000000e+00 0.0000e+00 1.0000e+00
       21  1    1    2  502  501 -5.6583699776e-03 -1.0597618336e-03 -2.1387205223e-03 6.1412027666e-03 0.0000000000e+00 0.0000e+00 1.0000e+00
<mgrwt>
<rscale>  1 0.64934199E+03</rscale>
<asrwt>0</asrwt>
<pdfrwt beam="1">  1        1 0.38332333E+00 0.64934199E+03</pdfrwt>
<pdfrwt beam="2">0</pdfrwt>
<totfact> 0.15866390E+00</totfact>
</mgrwt>
</event>
<event>
 6      1 +5.6466785e-02 6.70720300e+02 7.81860800e-03 9.76865800e-02
        1 -1    0    0  502    0 +0.0000000000e+00 +0.0000000000e+00 +1.1264972750e+02 1.1264972750e+02 0.0000000000e+00 0.0000e+00 1.0000e+00
       13 -1    0    0    0    0 -0.0000000000e+00 -0.0000000000e+00 -1.0000000000e+03 1.0000000000e+03 0.0000000000e+00 0.0000e+00 1.0000e+00
  9000005  2    1    2  501    0 +1.4448793199e-03 -2.0788314887e-03 -8.8753356737e+02 1.1124664152e+03 6.7072027823e+02 0.0000e+00 0.0000e+00
       13  1    3    3    0    0 +1.7086238801e+02 -2.6811682385e+02 -6.2075614654e+02 6.9743729491e+02 0.0000000000e+00 0.0000e+00 1.0000e+00
        1  1    3    3  501    0 -1.7086094313e+02 +2.6811474502e+02 -2.6677742083e+02 4.1502912024e+02 0.0000000000e+00 0.0000e+00 1.0000e+00
       21  1    1    2  502  501 -1.4448793199e-03 +2.0788314887e-03 +1.8329487195e-01 1.8331235447e-01 0.0000000000e+00 0.0000e+00 -1.0000e+00
<mgrwt>
<rscale>  1 0.67072028E+03</rscale>
<asrwt>0</asrwt>
<pdfrwt beam="1">  1        1 0.40963624E+00 0.67072028E+03</pdfrwt>
<pdfrwt beam="2">0</pdfrwt>
<totfact> 0.12067776E+00</totfact>
</mgrwt>
</event>
<event>
 6      1 +5.6466785e-02 5.76849500e+02 7.81860800e-03 9.95463500e-02
        1 -1    0    0  502    0 +0.0000000000e+00 +0.0000000000e+00 +8.3617326969e+01 8.3617326969e+01 0.0000000000e+00 0.0000e+00 1.0000e+00
       13 -1    0    0    0    0 -0.0000000000e+00 -0.0000000000e+00 -1.0000000000e+03 1.0000000000e+03 0.0000000000e+00 0.0000e+00 1.0000e+00
  9000005  2    1    2  501    0 -7.9414417417e-03 +4.6438425234e-03 -9.1681112209e+02 1.0831887792e+03 5.7684945838e+02 0.0000e+00 0.0000e+00
       13  1    3    3    0    0 -2.7623028129e+02 +7.7324382870e+01 -5.1503119308e+02 5.8952468848e+02 0.0000000000e+00 0.0000e+00 1.0000e+00
        3  1    3    3  501    0 +2.7622233984e+02 -7.7319739028e+01 -4.0177992901e+02 4.9366409068e+02 0.0000000000e+00 0.0000e+00 1.0000e+00
       21  1    1    2  502  501 +7.9414417416e-03 -4.6438425234e-03 +4.2844905537e-01 4.2854780925e-01 0.0000000000e+00 0.0000e+00 1.0000e+00
<mgrwt>
<rscale>  1 0.57684946E+03</rscale>
<asrwt>0</asrwt>
<pdfrwt beam="1">  1        1 0.30406365E+00 0.57684946E+03</pdfrwt>
<pdfrwt beam="2">0</pdfrwt>
<totfact> 0.35584229E+00</totfact>
</mgrwt>
</event>
<event>
 6      1 +5.6466785e-02 6.50652600e+02 7.81860800e-03 9.80555500e-02
        1 -1    0    0  502    0 +0.0000000000e+00 +0.0000000000e+00 +1.0606458716e+02 1.0606458716e+02 0.0000000000e+00 0.0000e+00 1.0000e+00
       13 -1    0    0    0    0 -0.0000000000e+00 -0.0000000000e+00 -1.0000000000e+03 1.0000000000e+03 0.0000000000e+00 0.0000e+00 1.0000e+00
  9000005  2    1    2  501    0 +1.8079753470e-02 +2.2821260160e-01 -8.9409727167e+02 1.1057842193e+03 6.5065256166e+02 0.0000e+00 0.0000e+00
       13  1    3    3    0    0 -2.1881495459e+01 -3.1186438558e+02 -2.9462917642e+02 4.2958648307e+02 0.0000000000e+00 0.0000e+00 1.0000e+00
        1  1    3    3  501    0 +2.1899575212e+01 +3.1209259818e+02 -5.9946809525e+02 6.7619773621e+02 0.0000000000e+00 0.0000e+00 1.0000e+00
       21  1    1    2  502  501 -1.8079753470e-02 -2.2821260160e-01 +1.6185883403e-01 2.8036788541e-01 0.0000000000e+00 0.0000e+00 1.0000e+00
<mgrwt>
<rscale>  1 0.65065260E+03</rscale>
<asrwt>0</asrwt>
<pdfrwt beam="1">  1        1 0.38569022E+00 0.65065260E+03</pdfrwt>
<pdfrwt beam="2">0</pdfrwt>
<totfact> 0.15484827E+00</totfact>
</mgrwt>
</event>
<event>
 6      1 +5.6466785e-02 6.34963800e+02 7.81860800e-03 9.83541000e-02
        1 -1    0    0  502    0 +0.0000000000e+00 +0.0000000000e+00 +1.0083241590e+02 1.0083241590e+02 0.0000000000e+00 0.0000e+00 1.0000e+00
       13 -1    0    0    0    0 -0.0000000000e+00 -0.0000000000e+00 -1.0000000000e+03 1.0000000000e+03 0.0000000000e+00 0.0000e+00 1.0000e+00
  9000005  2    1    2  501    0 -8.0906667819e-03 +8.3440789819e-03 -8.9920424937e+02 1.1007939526e+03 6.3496381305e+02 0.0000e+00 0.0000e+00
       13  1    3    3    0    0 -2.2110971010e+02 -2.2762226912e+02 -4.3286094135e+02 5.3672152542e+02 0.0000000000e+00 0.0000e+00 1.0000e+00
        3  1    3    3  501    0 +2.2110161943e+02 +2.2763061320e+02 -4.6634330802e+02 5.6407242719e+02 0.0000000000e+00 0.0000e+00 1.0000e+00
       21  1    1    2  502  501 +8.0906667819e-03 -8.3440789819e-03 +3.6665267781e-02 3.8463286449e-02 0.0000000000e+00 0.0000e+00 1.0000e+00
<mgrwt>
<rscale>  1 0.63496381E+03</rscale>
<asrwt>0</asrwt>
<pdfrwt beam="1">  1        1 0.36666410E+00 0.63496381E+03</pdfrwt>
<pdfrwt beam="2">0</pdfrwt>
<totfact> 0.18834526E+00</totfact>
</mgrwt>
</event>
<event>
 6      1 +5.6466785e-02 6.55708900e+02 7.81860800e-03 9.79612500e-02
        3 -1    0    0  502    0 +0.0000000000e+00 +0.0000000000e+00 +1.0752831952e+02 1.0752831952e+02 0.0000000000e+00 0.0000e+00 1.0000e+00
       13 -1    0    0    0    0 -0.0000000000e+00 -0.0000000000e+00 -1.0000000000e+03 1.0000000000e+03 0.0000000000e+00 0.0000e+00 1.0000e+00
  9000005  2    1    2  501    0 +2.1562073559e-03 -1.0934271040e-02 -8.9251060359e+02 1.1074878323e+03 6.5570886909e+02 0.0000e+00 0.0000e+00
       13  1    3    3    0    0 -6.7519523279e+01 -1.7743620689e+02 +5.2042512463e+00 1.8991992462e+02 0.0000000000e+00 0.0000e+00 1.0000e+00
        1  1    3    3  501    0 +6.7521679486e+01 +1.7742527262e+02 -8.9771485484e+02 9.1756790766e+02 0.0000000000e+00 0.0000e+00 1.0000e+00
       21  1    1    2  502  501 -2.1562073559e-03 +1.0934271040e-02 +3.8923117018e-02 4.0487239369e-02 0.0000000000e+00 0.0000e+00 1.0000e+00
<mgrwt>
<rscale>  1 0.65570887E+03</rscale>
<asrwt>0</asrwt>
<pdfrwt beam="1">  1        3 0.39101290E+00 0.65570887E+03</pdfrwt>
<pdfrwt beam="2">0</pdfrwt>
<totfact> 0.65972624E-02</totfact>
</mgrwt>
</event>
<event>
 6      1 +5.6466785e-02 6.57406500e+02 7.81860800e-03 9.79298000e-02
        1 -1    0    0  502    0 +0.0000000000e+00 +0.0000000000e+00 +1.0804694567e+02 1.0804694567e+02 0.0000000000e+00 0.0000e+00 1.0000e+00
       13 -1    0    0    0    0 -0.0000000000e+00 -0.0000000000e+00 -1.0000000000e+03 1.0000000000e+03 0.0000000000e+00 0.0000e+00 1.0000e+00
  9000005  2    1    2  501    0 -3.2007952140e-03 +7.2615539767e-04 -8.9194970947e+02 1.1080422595e+03 6.5740654434e+02 0.0000e+00 0.0000e+00
       13  1    3    3    0    0 +3.0889919854e+01 -1.1786690013e+02 +6.8575557395e+01 1.3981917024e+02 0.0000000000e+00 0.0000e+00 1.0000e+00
        1  1    3    3  501    0 -3.0893120649e+01 +1.1786762629e+02 -9.6052526687e+02 9.6822308923e+02 0.0000000000e+00 0.0000e+00 1.0000e+00
       21  1    1    2  502  501 +3.2007952140e-03 -7.2615539767e-04 -3.3448541963e-03 4.6861968864e-03 0.0000000000e+00 0.0000e+00 -1.0000e+00
<mgrwt>
<rscale>  1 0.65740654E+03</rscale>
<asrwt>0</asrwt>
<pdfrwt beam="1">  1        1 0.39289881E+00 0.65740654E+03</pdfrwt>
<pdfrwt beam="2">0</pdfrwt>
<totfact> 0.14368321E+00</totfact>
</mgrwt>
</event>
<event>
 6      1 +5.6466785e-02 6.08944300e+02 7.81860800e-03 9.88702100e-02
        1 -1    0    0  502    0 +0.0000000000e+00 +0.0000000000e+00 +1.1072725779e+02 1.1072725779e+02 0.0000000000e+00 0.0000e+00 1.0000e+00
       13 -1    0    0    0    0 -0.0000000000e+00 -0.0000000000e+00 -1.0000000000e+03 1.0000000000e+03 0.0000000000e+00 0.0000e+00 1.0000e+00
  9000005  2    1    2  501    0 +5.5971209546e+00 -1.4063842363e+01 -9.0376426299e+02 1.0897719816e+03 6.0875611654e+02 0.0000e+00 0.0000e+00
       13  1    3    3    0    0 -2.6706072276e+02 -8.7853511234e+01 -2.4465932790e+02 3.7269002644e+02 0.0000000000e+00 0.0000e+00 1.0000e+00
        1  1    3    3  501    0 +2.7265784372e+02 +7.3789668870e+01 -6.5910493510e+02 7.1708195518e+02 0.0000000000e+00 0.0000e+00 1.0000e+00
       21  1    1    2  502  501 -5.5971209546e+00 +1.4063842363e+01 +1.4491520788e+01 2.0955276179e+01 0.0000000000e+00 0.0000e+00 1.0000e+00
<mgrwt>
<rscale>  1 0.60894427E+03</rscale>
<asrwt>0</asrwt>
<pdfrwt beam="1">  1        1 0.40264542E+00 0.60894427E+03</pdfrwt>
<pdfrwt beam="2">0</pdfrwt>
<totfact> 0.13125746E+00</totfact>
</mgrwt>
</event>
<event>
 6      1 +5.6466785e-02 6.48120100e+02 7.81860800e-03 9.81031300e-02
        1 -1    0    0  502    0 +0.0000000000e+00 +0.0000000000e+00 +1.0504125577e+02 1.0504125577e+02 0.0000000000e+00 0.0000e+00 1.0000e+00
       13 -1    0    0    0    0 -0.0000000000e+00 -0.0000000000e+00 -1.0000000000e+03 1.0000000000e+03 0.0000000000e+00 0.0000e+00 1.0000e+00
  9000005  2    1    2  501    0 +3.4016492630e-03 -5.7713005665e-03 -8.9498461885e+02 1.1050145280e+03 6.4812008070e+02 0.0000e+00 0.0000e+00
       13  1    3    3    0    0 +1.5695518852e+02 +2.6879235388e+02 -6.0121636053e+02 6.7701209212e+02 0.0000000000e+00 0.0000e+00 1.0000e+00
        1  1    3    3  501    0 -1.5695178687e+02 -2.6879812518e+02 -2.9376825832e+02 4.2800243585e+02 0.0000000000e+00 0.0000e+00 1.0000e+00
       21  1    1    2  502  501 -3.4016492630e-03 +5.7713005665e-03 +2.5874620230e-02 2.6727796392e-02 0.0000000000e+00 0.0000e+00 -1.0000e+00
<mgrwt>
<rscale>  1 0.64812008E+03</rscale>
<asrwt>0</asrwt>
<pdfrwt beam="1">  1        1 0.38196901E+00 0.64812008E+03</pdfrwt>
<pdfrwt beam="2">0</pdfrwt>
<totfact> 0.16090120E+00</totfact>
</mgrwt>
</event>
<event>
 6      1 +5.6466785e-02 6.50646700e+02 7.81860800e-03 9.80556600e-02
        1 -1    0    0  502    0 +0.0000000000e+00 +0.0000000000e+00 +1.0589959218e+02 1.0589959218e+02 0.0000000000e+00 0.0000e+00 1.0000e+00
       13 -1    0    0    0    0 -0.0000000000e+00 -0.0000000000e+00 -1.0000000000e+03 1.0000000000e+03 0.0000000000e+00 0.0000e+00 1.0000e+00
  9000005  2    1    2  501    0 -1.1802533732e-01 +1.2833810296e-01 -8.9398701386e+02 1.1056916046e+03 6.5064668838e+02 0.0000e+00 0.0000e+00
       13  1    3    3    0    0 +8.2989083649e+00 -2.6301360385e+02 -1.2200853305e+02 2.9005363267e+02 0.0000000000e+00 0.0000e+00 1.0000e+00
        1  1    3    3  501    0 -8.4169337022e+00 +2.6314194195e+02 -7.7197848081e+02 8.1563797191e+02 0.0000000000e+00 0.0000e+00 1.0000e+00
       21  1    1    2  502  501 +1.1802533732e-01 -1.2833810296e-01 -1.1339396275e-01 2.0798759509e-01 0.0000000000e+00 0.0000e+00 1.0000e+00
<mgrwt>
<rscale>  1 0.65064671E+03</rscale>
<asrwt>0</asrwt>
<pdfrwt beam="1">  1        1 0.38509024E+00 0.65064671E+03</pdfrwt>
<pdfrwt beam="2">0</pdfrwt>
<totfact> 0.15579776E+00</totfact>
</mgrwt>
</event>
<event>
 6      1 +5.6466785e-02 6.48022000e+02 7.81860800e-03 9.81049800e-02
        1 -1    0    0  502    0 +0.0000000000e+00 +0.0000000000e+00 +1.0498348186e+02 1.0498348186e+02 0.0000000000e+00 0.0000e+00 1.0000e+00
       13 -1    0    0    0    0 -0.0000000000e+00 -0.0000000000e+00 -1.0000000000e+03 1.0000000000e+03 0.0000000000e+00 0.0000e+00 1.0000e+00
  9000005  2    1    2  501    0 +5.1044347678e-05 +8.3528247075e-05 -8.9501687526e+02 1.1049831116e+03 6.4802196709e+02 0.0000e+00 0.0000e+00
       13  1    3    3    0    0 +6.3438506234e+01 +1.9000062434e+02 -1.3249093750e+01 2.0074914647e+02 0.0000000000e+00 0.0000e+00 1.0000e+00
        1  1    3    3  501    0 -6.3438455190e+01 -1.9000054081e+02 -8.8176778151e+02 9.0423396509e+02 0.0000000000e+00 0.0000e+00 1.0000e+00
       21  1    1    2  502  501 -5.1044347679e-05 -8.3528247052e-05 +3.5712119670e-04 3.7029453496e-04 0.0000000000e+00 0.0000e+00 1.0000e+00
<mgrwt>
<rscale>  1 0.64802197E+03</rscale>
<asrwt>0</asrwt>
<pdfrwt beam="1">  1        1 0.38175892E+00 0.64802197E+03</pdfrwt>
<pdfrwt beam="2">0</pdfrwt>
<totfact> 0.16124822E+00</totfact>
</mgrwt>
</event>
<event>
 6      1 +5.6466785e-02 5.74113600e+02 7.81860800e-03 9.96061700e-02
        1 -1    0    0  502    0 +0.0000000000e+00 +0.0000000000e+00 +9.5138455722e+01 9.5138455722e+01 0.0000000000e+00 0.0000e+00 1.0000e+00
       13 -1    0    0    0    0 -0.0000000000e+00 -0.0000000000e+00 -1.0000000000e+03 1.0000000000e+03 0.0000000000e+00 0.0000e+00 1.0000e+00
  9000005  2    1    2  501    0 -3.6779510342e-01 -3.1147115755e-01 -9.1759346728e+02 1.0823974137e+03 5.7411336666e+02 0.0000e+00 0.0000e+00
       13  1    3    3    0    0 +2.6694086289e+02 +6.6569284109e+01 -3.0537281004e+02 4.1102487392e+02 0.0000000000e+00 0.0000e+00 1.0000e+00
        3  1    3    3  501    0 -2.6730865800e+02 -6.6880755267e+01 -6.1222065724e+02 6.7137253981e+02 0.0000000000e+00 0.0000e+00 1.0000e+00
       21  1    1    2  502  501 +3.6779510342e-01 +3.1147115755e-01 +1.2731923004e+01 1.2741041986e+01 0.0000000000e+00 0.0000e+00 -1.0000e+00
<mgrwt>
<rscale>  1 0.57411357E+03</rscale>
<asrwt>0</asrwt>
<pdfrwt beam="1">  1        1 0.34595875E+00 0.57411357E+03</pdfrwt>
<pdfrwt beam="2">0</pdfrwt>
<totfact> 0.23457786E+00</totfact>
</mgrwt>
</event>
<event>
 6      1 +5.6466785e-02 6.49943700e+02 7.81860800e-03 9.80688500e-02
        1 -1    0    0  502    0 +0.0000000000e+00 +0.0000000000e+00 +1.0560850391e+02 1.0560850391e+02 0.0000000000e+00 0.0000e+00 1.0000e+00
       13 -1    0    0    0    0 -0.0000000000e+00 -0.0000000000e+00 -1.0000000000e+03 1.0000000000e+03 0.0000000000e+00 0.0000e+00 1.0000e+00
  9000005  2    1    2  501    0 -5.6913372256e-04 -1.0939335547e-04 -8.9439326050e+02 1.1056066468e+03 6.4994365365e+02 0.0000e+00 0.0000e+00
       13  1    3    3    0    0 +2.2394365218e+02 +2.3535375181e+02 -4.6084605460e+02 5.6384504421e+02 0.0000000000e+00 0.0000e+00 1.0000e+00
        3  1    3    3  501    0 -2.2394422131e+02 -2.3535386120e+02 -4.3354720590e+02 5.4176160254e+02 0.0000000000e+00 0.0000e+00 1.0000e+00
       21  1    1    2  502  501 +5.6913372255e-04 +1.0939335548e-04 +1.7644144589e-03 1.8571587124e-03 0.0000000000e+00 0.0000e+00 -1.0000e+00
<mgrwt>
<rscale>  1 0.64994365E+03</rscale>
<asrwt>0</asrwt>
<pdfrwt beam="1">  1        1 0.38403173E+00 0.64994365E+03</pdfrwt>
<pdfrwt beam="2">0</pdfrwt>
<totfact> 0.15750653E+00</totfact>
</mgrwt>
</event>
<event>
 6      1 +5.6466785e-02 6.31641800e+02 7.81860800e-03 9.84185000e-02
        1 -1    0    0  502    0 +0.0000000000e+00 +0.0000000000e+00 +9.9745528494e+01 9.9745528494e+01 0.0000000000e+00 0.0000e+00 1.0000e+00
       13 -1    0    0    0    0 -0.0000000000e+00 -0.0000000000e+00 -1.0000000000e+03 1.0000000000e+03 0.0000000000e+00 0.0000e+00 1.0000e+00
  9000005  2    1    2  501    0 +1.2309798566e-03 -1.1987569092e-03 -9.0025686441e+02 1.0997425826e+03 6.3164177034e+02 0.0000e+00 0.0000e+00
       13  1    3    3    0    0 +1.2550951101e+02 -7.8220768987e+01 -9.3598853256e+02 9.4759994678e+02 0.0000000000e+00 0.0000e+00 1.0000e+00
        3  1    3    3  501    0 -1.2550828003e+02 +7.8219570230e+01 +3.5731668146e+01 1.5214263581e+02 0.0000000000e+00 0.0000e+00 1.0000e+00
       21  1    1    2  502  501 -1.2309798566e-03 +1.1987569092e-03 +2.3929068207e-03 2.9459009805e-03 0.0000000000e+00 0.0000e+00 -1.0000e+00
<mgrwt>
<rscale>  1 0.63164177E+03</rscale>
<asrwt>0</asrwt>
<pdfrwt beam="1">  1        1 0.36271178E+00 0.63164177E+03</pdfrwt>
<pdfrwt beam="2">0</pdfrwt>
<totfact> 0.19612572E+00</totfact>
</mgrwt>
</event>
<event>
 6      1 +5.6466785e-02 6.36206000e+02 7.81860800e-03 9.83301200e-02
        1 -1    0    0  502    0 +0.0000000000e+00 +0.0000000000e+00 +1.0119457529e+02 1.0119457529e+02 0.0000000000e+00 0.0000e+00 1.0000e+00
       13 -1    0    0    0    0 -0.0000000000e+00 -0.0000000000e+00 -1.0000000000e+03 1.0000000000e+03 0.0000000000e+00 0.0000e+00 1.0000e+00
  9000005  2    1    2  501    0 +3.4324569971e-03 +5.9953404298e-04 -8.9880980251e+02 1.1011889801e+03 6.3620602697e+02 0.0000e+00 0.0000e+00
       13  1    3    3    0    0 +1.8556550801e+02 -2.2720093833e+02 -2.3646554044e+02 3.7679009535e+02 0.0000000000e+00 0.0000e+00 1.0000e+00
        1  1    3    3  501    0 -1.8556207555e+02 +2.2720153787e+02 -6.6234426208e+02 7.2439888473e+02 0.0000000000e+00 0.0000e+00 1.0000e+00
       21  1    1    2  502  501 -3.4324569971e-03 -5.9953404296e-04 +4.3778012536e-03 5.5952074065e-03 0.0000000000e+00 0.0000e+00 1.0000e+00
<mgrwt>
<rscale>  1 0.63620603E+03</rscale>
<asrwt>0</asrwt>
<pdfrwt beam="1">  1        1 0.36798105E+00 0.63620603E+03</pdfrwt>
<pdfrwt beam="2">0</pdfrwt>
<totfact> 0.18581451E+00</totfact>
</mgrwt>
</event>
<event>
 6      1 +5.6466785e-02 6.52488900e+02 7.81860800e-03 9.80212000e-02
        1 -1    0    0  502    0 +0.0000000000e+00 +0.0000000000e+00 +1.0643543300e+02 1.0643543300e+02 0.0000000000e+00 0.0000e+00 1.0000e+00
       13 -1    0    0    0    0 -0.0000000000e+00 -0.0000000000e+00 -1.0000000000e+03 1.0000000000e+03 0.0000000000e+00 0.0000e+00 1.0000e+00
  9000005  2    1    2  501    0 -2.4805212036e-06 -5.8807897574e-07 -8.9356456797e+02 1.1064354303e+03 6.5248886905e+02 0.0000e+00 0.0000e+00
       13  1    3    3    0    0 -1.1904177772e+02 +3.8686909733e+01 +6.4097707371e+01 1.4062765701e+02 0.0000000000e+00 0.0000e+00 1.0000e+00
        3  1    3    3  501    0 +1.1904177524e+02 -3.8686910321e+01 -9.5766227534e+02 9.6580777326e+02 0.0000000000e+00 0.0000e+00 1.0000e+00
       21  1    1    2  502  501 +2.4805212037e-06 +5.8807897015e-07 +9.6985265242e-07 2.7275330400e-06 0.0000000000e+00 0.0000e+00 -1.0000e+00
<mgrwt>
<rscale>  1 0.65248887E+03</rscale>
<asrwt>0</asrwt>
<pdfrwt beam="1">  1        1 0.38703875E+00 0.65248887E+03</pdfrwt>
<pdfrwt beam="2">0</pdfrwt>
<totfact> 0.15268272E+00</totfact>
</mgrwt>
</event>
<event>
 6      1 +5.6466785e-02 6.54481100e+02 7.81860800e-03 9.79840700e-02
        1 -1    0    0  502    0 +0.0000000000e+00 +0.0000000000e+00 +1.0886174996e+02 1.0886174996e+02 0.0000000000e+00 0.0000e+00 1.0000e+00
       13 -1    0    0    0    0 -0.0000000000e+00 -0.0000000000e+00 -1.0000000000e+03 1.0000000000e+03 0.0000000000e+00 0.0000e+00 1.0000e+00
  9000005  2    1    2  501    0 +2.0000171623e-02 -6.3694141131e-02 -8.9291292833e+02 1.1070858164e+03 6.5448109434e+02 0.0000e+00 0.0000e+00
       13  1    3    3    0    0 +1.2518730751e+02 -1.7723602401e+02 -8.6088221598e+02 8.8780778323e+02 0.0000000000e+00 0.0000e+00 1.0000e+00
        3  1    3    3  501    0 -1.2516730734e+02 +1.7717232987e+02 -3.2030712346e+01 2.1927803317e+02 0.0000000000e+00 0.0000e+00 1.0000e+00
       21  1    1    2  502  501 -2.0000171623e-02 +6.3694141131e-02 +1.7746782877e+00 1.7759335504e+00 0.0000000000e+00 0.0000e+00 -1.0000e+00
<mgrwt>
<rscale>  1 0.65448110E+03</rscale>
<asrwt>0</asrwt>
<pdfrwt beam="1">  1        1 0.39586174E+00 0.65448110E+03</pdfrwt>
<pdfrwt beam="2">0</pdfrwt>
<totfact> 0.13946760E+00</totfact>
</mgrwt>
</event>
<event>
 6      1 +5.6466785e-02 6.49386900e+02 7.81860800e-03 9.80793000e-02
        1 -1    0    0  502    0 +0.0000000000e+00 +0.0000000000e+00 +1.2546779942e+02 1.2546779942e+02 0.0000000000e+00 0.0000e+00 1.0000e+00
       13 -1    0    0    0    0 -0.0000000000e+00 -0.0000000000e+00 -1.0000000000e+03 1.0000000000e+03 0.0000000000e+00 0.0000e+00 1.0000e+00
  9000005  2    1    2  501    0 +5.9031843449e+00 -4.9019000922e+00 -8.9375911057e+02 1.1047663435e+03 6.4934155092e+02 0.0000e+00 0.0000e+00
       13  1    3    3    0    0 +1.3490008874e+02 +1.8989291874e+02 -6.2319495462e+01 2.4112460273e+02 0.0000000000e+00 0.0000e+00 1.0000e+00
        1  1    3    3  501    0 -1.2899690439e+02 -1.9479481883e+02 -8.3143961511e+02 8.6364174075e+02 0.0000000000e+00 0.0000e+00 1.0000e+00
       21  1    1    2  502  501 -5.9031843449e+00 +4.9019000922e+00 +1.9226909998e+01 2.0701455939e+01 0.0000000000e+00 0.0000e+00 1.0000e+00
<mgrwt>
<rscale>  1 0.64938688E+03</rscale>
<asrwt>0</asrwt>
<pdfrwt beam="1">  1        1 0.45624751E+00 0.64938688E+03</pdfrwt>
<pdfrwt beam="2">0</pdfrwt>
<totfact> 0.74353136E-01</totfact>
</mgrwt>
</event>
<event>
 6      1 +5.6466785e-02 6.43405000e+02 7.81860800e-03 9.81923300e-02
        1 -1    0    0  502    0 +0.0000000000e+00 +0.0000000000e+00 +1.0380626286e+02 1.0380626286e+02 0.0000000000e+00 0.0000e+00 1.0000e+00
       13 -1    0    0    0    0 -0.0000000000e+00 -0.0000000000e+00 -1.0000000000e+03 1.0000000000e+03 0.0000000000e+00 0.0000e+00 1.0000e+00
  9000005  2    1    2  501    0 -1.2292778818e-02 +2.2571703418e-02 -8.9650690677e+02 1.1034920403e+03 6.4340504230e+02 0.0000e+00 0.0000e+00
       13  1    3    3    0    0 -1.3994508606e+02 -2.2870124228e+02 -1.4336556380e+02 3.0404369787e+02 0.0000000000e+00 0.0000e+00 1.0000e+00
        1  1    3    3  501    0 +1.3993279328e+02 +2.2872381399e+02 -7.5314134298e+02 7.9944834243e+02 0.0000000000e+00 0.0000e+00 1.0000e+00
       21  1    1    2  502  501 +1.2292778818e-02 -2.2571703418e-02 +3.1316963298e-01 3.1422255366e-01 0.0000000000e+00 0.0000e+00 -1.0000e+00
<mgrwt>
<rscale>  1 0.64340504E+03</rscale>
<asrwt>0</asrwt>
<pdfrwt beam="1">  1        1 0.37747812E+00 0.64340504E+03</pdfrwt>
<pdfrwt beam="2">0</pdfrwt>
<totfact> 0.16855737E+00</totfact>
</mgrwt>
</event>
<event>
 6      1 +5.6466785e-02 6.63666300e+02 7.81860800e-03 9.78146800e-02
        1 -1    0    0  502    0 +0.0000000000e+00 +0.0000000000e+00 +1.1011506819e+02 1.1011506819e+02 0.0000000000e+00 0.0000e+00 1.0000e+00
       13 -1    0    0    0    0 -0.0000000000e+00 -0.0000000000e+00 -1.0000000000e+03 1.0000000000e+03 0.0000000000e+00 0.0000e+00 1.0000e+00
  9000005  2    1    2  501    0 -4.6371949242e-04 +6.1597319433e-04 -8.8988668074e+02 1.1101131569e+03 6.6366626888e+02 0.0000e+00 0.0000e+00
       13  1    3    3    0    0 +1.2967298407e+02 +2.6872592002e+02 -2.0205865450e+02 3.6035593896e+02 0.0000000000e+00 0.0000e+00 1.0000e+00
        3  1    3    3  501    0 -1.2967344779e+02 -2.6872530404e+02 -6.8782802624e+02 7.4975721789e+02 0.0000000000e+00 0.0000e+00 1.0000e+00
       21  1    1    2  502  501 +4.6371949242e-04 -6.1597319431e-04 +1.7489304115e-03 1.9113388836e-03 0.0000000000e+00 0.0000e+00 -1.0000e+00
<mgrwt>
<rscale>  1 0.66366627E+03</rscale>
<asrwt>0</asrwt>
<pdfrwt beam="1">  1        1 0.40041927E+00 0.66366627E+03</pdfrwt>
<pdfrwt beam="2">0</pdfrwt>
<totfact> 0.13286961E+00</totfact>
</mgrwt>
</event>
<event>
 6      1 +5.6466785e-02 6.57998000e+02 7.81860800e-03 9.79188600e-02
        1 -1    0    0  502    0 +0.0000000000e+00 +0.0000000000e+00 +1.0833381916e+02 1.0833381916e+02 0.0000000000e+00 0.0000e+00 1.0000e+00
       13 -1    0    0    0    0 -0.0000000000e+00 -0.0000000000e+00 -1.0000000000e+03 1.0000000000e+03 0.0000000000e+00 0.0000e+00 1.0000e+00
  9000005  2    1    2  501    0 -1.6800606441e-01 -8.0724185915e-02 -8.9164228132e+02 1.1081459000e+03 6.5799798105e+02 0.0000e+00 0.0000e+00
       13  1    3    3    0    0 +4.9148411267e+01 +9.6639009353e+01 +7.7291363833e+01 1.3314886174e+02 0.0000000000e+00 0.0000e+00 1.0000e+00
        1  1    3    3  501    0 -4.9316417332e+01 -9.6719733539e+01 -9.6893364515e+02 9.7499703824e+02 0.0000000000e+00 0.0000e+00 1.0000e+00
       21  1    1    2  502  501 +1.6800606441e-01 +8.0724185915e-02 -2.3899520495e-02 1.8791918197e-01 0.0000000000e+00 0.0000e+00 1.0000e+00
<mgrwt>
<rscale>  1 0.65799801E+03</rscale>
<asrwt>0</asrwt>
<pdfrwt beam="1">  1        1 0.39394199E+00 0.65799801E+03</pdfrwt>
<pdfrwt beam="2">0</pdfrwt>
<totfact> 0.14214233E+00</totfact>
</mgrwt>
</event>
<event>
 6      1 +5.6466785e-02 6.52783500e+02 7.81860800e-03 9.80157000e-02
        3 -1    0    0  502    0 +0.0000000000e+00 +0.0000000000e+00 +1.0669217527e+02 1.0669217527e+02 0.0000000000e+00 0.0000e+00 1.0000e+00
       13 -1    0    0    0    0 -0.0000000000e+00 -0.0000000000e+00 -1.0000000000e+03 1.0000000000e+03 0.0000000000e+00 0.0000e+00 1.0000e+00
  9000005  2    1    2  501    0 +1.0854830394e-04 -4.8809297733e-03 -8.9346839187e+02 1.1065315339e+03 6.5278347732e+02 0.0000e+00 0.0000e+00
       13  1    3    3    0    0 -6.8014217166e+00 -3.2467769972e+02 -3.9125620118e+02 5.0847151640e+02 0.0000000000e+00 0.0000e+00 1.0000e+00
        3  1    3    3  501    0 +6.8015302649e+00 +3.2467281879e+02 -5.0221219070e+02 5.9806001752e+02 0.0000000000e+00 0.0000e+00 1.0000e+00
       21  1    1    2  502  501 -1.0854830394e-04 +4.8809297733e-03 +1.6056714505e-01 1.6064135000e-01 0.0000000000e+00 0.0000e+00 1.0000e+00
<mgrwt>
<rscale>  1 0.65278348E+03</rscale>
<asrwt>0</asrwt>
<pdfrwt beam="1">  1        3 0.38797236E+00 0.65278348E+03</pdfrwt>
<pdfrwt beam="2">0</pdfrwt>
<totfact> 0.68482171E-02</totfact>
</mgrwt>
</event>
<event>
 6      1 +5.6466785e-02 6.58540500e+02 7.81860800e-03 9.79088400e-02
        1 -1    0    0  502    0 +0.0000000000e+00 +0.0000000000e+00 +1.0844570225e+02 1.0844570225e+02 0.0000000000e+00 0.0000e+00 1.0000e+00
       13 -1    0    0    0    0 -0.0000000000e+00 -0.0000000000e+00 -1.0000000000e+03 1.0000000000e+03 0.0000000000e+00 0.0000e+00 1.0000e+00
  9000005  2    1    2  501    0 -2.2093977165e-02 -3.2234085706e-02 -8.9156426052e+02 1.1084053731e+03 6.5854053714e+02 0.0000e+00 0.0000e+00
       13  1    3    3    0    0 +1.3802646901e+02 -2.3844889754e+02 -1.4229512781e+02 3.1009206098e+02 0.0000000000e+00 0.0000e+00 1.0000e+00
        1  1    3    3  501    0 -1.3804856298e+02 +2.3841666345e+02 -7.4926913271e+02 7.9831331217e+02 0.0000000000e+00 0.0000e+00 1.0000e+00
       21  1    1    2  502  501 +2.2093977165e-02 +3.2234085706e-02 +9.9627746721e-03 4.0329108439e-02 0.0000000000e+00 0.0000e+00 1.0000e+00
<mgrwt>
<rscale>  1 0.65854054E+03</rscale>
<asrwt>0</asrwt>
<pdfrwt beam="1">  1        1 0.39434884E+00 0.65854054E+03</pdfrwt>
<pdfrwt beam="2">0</pdfrwt>
<totfact> 0.14153742E+00</totfact>
</mgrwt>
</event>
<event>
 6      1 +5.6466785e-02 6.54229600e+02 7.81860800e-03 9.79887500e-02
        1 -1    0    0  502    0 +0.0000000000e+00 +0.0000000000e+00 +1.0704721946e+02 1.0704721946e+02 0.0000000000e+00 0.0000e+00 1.0000e+00
       13 -1    0    0    0    0 -0.0000000000e+00 -0.0000000000e+00 -1.0000000000e+03 1.0000000000e+03 0.0000000000e+00 0.0000e+00 1.0000e+00
  9000005  2    1    2  501    0 -1.2074063158e-03 +2.5010049557e-03 -8.9299585553e+02 1.1070040550e+03 6.5422960790e+02 0.0000e+00 0.0000e+00
       13  1    3    3    0    0 +2.7956406392e+02 -8.4084248032e+01 -1.9679523458e+02 3.5207185482e+02 0.0000000000e+00 0.0000e+00 1.0000e+00
        1  1    3    3  501    0 -2.7956527133e+02 +8.4086749037e+01 -6.9620062096e+02 7.5493220021e+02 0.0000000000e+00 0.0000e+00 1.0000e+00
       21  1    1    2  502  501 +1.2074063158e-03 -2.5010049557e-03 +4.3074994865e-02 4.3164430246e-02 0.0000000000e+00 0.0000e+00 1.0000e+00
<mgrwt>
<rscale>  1 0.65422961E+03</rscale>
<asrwt>0</asrwt>
<pdfrwt beam="1">  1        1 0.38926344E+00 0.65422961E+03</pdfrwt>
<pdfrwt beam="2">0</pdfrwt>
<totfact> 0.14920850E+00</totfact>
</mgrwt>
</event>
<event>
 6      1 +5.6466785e-02 6.37854500e+02 7.81860800e-03 9.82984000e-02
        1 -1    0    0  502    0 +0.0000000000e+00 +0.0000000000e+00 +1.0179560662e+02 1.0179560662e+02 0.0000000000e+00 0.0000e+00 1.0000e+00
       13 -1    0    0    0    0 -0.0000000000e+00 -0.0000000000e+00 -1.0000000000e+03 1.0000000000e+03 0.0000000000e+00 0.0000e+00 1.0000e+00
  9000005  2    1    2  501    0 +2.9258184031e-02 +3.9710496839e-03 -8.9828244817e+02 1.1017121539e+03 6.3785446023e+02 0.0000e+00 0.0000e+00
       13  1    3    3    0    0 -1.7044215382e+02 -7.6255875368e+01 -2.5723245101e+00 1.8674073787e+02 0.0000000000e+00 0.0000e+00 1.0000e+00
        1  1    3    3  501    0 +1.7047141200e+02 +7.6259846417e+01 -8.9571012366e+02 9.1497141601e+02 0.0000000000e+00 0.0000e+00 1.0000e+00
       21  1    1    2  502  501 -2.9258184031e-02 -3.9710496839e-03 +7.8054786128e-02 8.3452742351e-02 0.0000000000e+00 0.0000e+00 -1.0000e+00
<mgrwt>
<rscale>  1 0.63785446E+03</rscale>
<asrwt>0</asrwt>
<pdfrwt beam="1">  1        1 0.37016662E+00 0.63785446E+03</pdfrwt>
<pdfrwt beam="2">0</pdfrwt>
<totfact> 0.18169986E+00</totfact>
</mgrwt>
</event>
<event>
 6      1 +5.6466785e-02 6.50087000e+02 7.81860800e-03 9.80661600e-02
        1 -1    0    0  502    0 +0.0000000000e+00 +0.0000000000e+00 +1.0565332648e+02 1.0565332648e+02 0.0000000000e+00 0.0000e+00 1.0000e+00
       13 -1    0    0    0    0 -0.0000000000e+00 -0.0000000000e+00 -1.0000000000e+03 1.0000000000e+03 0.0000000000e+00 0.0000e+00 1.0000e+00
  9000005  2    1    2  501    0 -4.2936431463e-05 +1.0914926662e-05 -8.9434669027e+02 1.1056532791e+03 6.5008704896e+02 0.0000e+00 0.0000e+00
       13  1    3    3    0    0 +4.2364305718e+01 -1.5414491644e+02 -9.2852004817e+02 9.4218091125e+02 0.0000000000e+00 0.0000e+00 1.0000e+00
        3  1    3    3  501    0 -4.2364348655e+01 +1.5414492735e+02 +3.4173357904e+01 1.6347236787e+02 0.0000000000e+00 0.0000e+00 1.0000e+00
       21  1    1    2  502  501 +4.2936431459e-05 -1.0914926680e-05 +1.6747796972e-05 4.7362025656e-05 0.0000000000e+00 0.0000e+00 1.0000e+00
<mgrwt>
<rscale>  1 0.65008705E+03</rscale>
<asrwt>0</asrwt>
<pdfrwt beam="1">  1        1 0.38419472E+00 0.65008705E+03</pdfrwt>
<pdfrwt beam="2">0</pdfrwt>
<totfact> 0.15724124E+00</totfact>
</mgrwt>
</event>
<event>
 6      1 +5.6466785e-02 6.47619700e+02 7.81860800e-03 9.81125600e-02
        1 -1    0    0  502    0 +0.0000000000e+00 +0.0000000000e+00 +1.0513562582e+02 1.0513562582e+02 0.0000000000e+00 0.0000e+00 1.0000e+00
       13 -1    0    0    0    0 -0.0000000000e+00 -0.0000000000e+00 -1.0000000000e+03 1.0000000000e+03 0.0000000000e+00 0.0000e+00 1.0000e+00
  9000005  2    1    2  501    0 -8.4381557281e-02 +3.3845834409e-02 -8.9513909456e+02 1.1048462522e+03 6.4761966785e+02 0.0000e+00 0.0000e+00
       13  1    3    3    0    0 +1.2402977138e+02 +1.9640739573e+02 -6.2706574119e+01 2.4060624207e+02 0.0000000000e+00 0.0000e+00 1.0000e+00
        1  1    3    3  501    0 -1.2411415294e+02 -1.9637354990e+02 -8.3243252044e+02 8.6424001015e+02 0.0000000000e+00 0.0000e+00 1.0000e+00
       21  1    1    2  502  501 +8.4381557281e-02 -3.3845834409e-02 +2.7472038646e-01 2.8937359668e-01 0.0000000000e+00 0.0000e+00 1.0000e+00
<mgrwt>
<rscale>  1 0.64761967E+03</rscale>
<asrwt>0</asrwt>
<pdfrwt beam="1">  1        1 0.38231217E+00 0.64761967E+03</pdfrwt>
<pdfrwt beam="2">0</pdfrwt>
<totfact> 0.16035541E+00</totfact>
</mgrwt>
</event>
<event>
 6      1 +5.6466785e-02 6.64777800e+02 7.81860800e-03 9.77943800e-02
        1 -1    0    0  502    0 +0.0000000000e+00 +0.0000000000e+00 +1.1341413524e+02 1.1341413524e+02 0.0000000000e+00 0.0000e+00 1.0000e+00
       13 -1    0    0    0    0 -0.0000000000e+00 -0.0000000000e+00 -1.0000000000e+03 1.0000000000e+03 0.0000000000e+00 0.0000e+00 1.0000e+00
  9000005  2    1    2  501    0 -2.5319920373e+00 -5.2365135403e-02 -8.8889717128e+02 1.1099854528e+03 6.6477297665e+02 0.0000e+00 0.0000e+00
       13  1    3    3    0    0 +1.6969772852e+02 +9.8609813091e+01 +2.9775990836e+00 1.9629080569e+02 0.0000000000e+00 0.0000e+00 1.0000e+00
        3  1    3    3  501    0 -1.7222972056e+02 -9.8662178227e+01 -8.9187477036e+02 9.1369464706e+02 0.0000000000e+00 0.0000e+00 1.0000e+00
       21  1    1    2  502  501 +2.5319920373e+00 +5.2365135403e-02 +2.3113065248e+00 3.4286824927e+00 0.0000000000e+00 0.0000e+00 -1.0000e+00
<mgrwt>
<rscale>  1 0.66477780E+03</rscale>
<asrwt>0</asrwt>
<pdfrwt beam="1">  1        1 0.41241591E+00 0.66477780E+03</pdfrwt>
<pdfrwt beam="2">0</pdfrwt>
<totfact> 0.11739290E+00</totfact>
</mgrwt>
</event>
<event>
 6      1 +5.6466785e-02 6.35638900e+02 7.81860800e-03 9.83410600e-02
        1 -1    0    0  502    0 +0.0000000000e+00 +0.0000000000e+00 +1.0463619521e+02 1.0463619521e+02 0.0000000000e+00 0.0000e+00 1.0000e+00
       13 -1    0    0    0    0 -0.0000000000e+00 -0.0000000000e+00 -1.0000000000e+03 1.0000000000e+03 0.0000000000e+00 0.0000e+00 1.0000e+00
  9000005  2    1    2  501    0 +9.9663489427e-02 +2.2368115024e-01 -8.9898625017e+02 1.1010054822e+03 6.3563883925e+02 0.0000e+00 0.0000e+00
       13  1    3    3    0    0 -2.9375356074e+02 +5.2943639267e+01 -6.3838727009e+02 7.0472156913e+02 0.0000000000e+00 0.0000e+00 1.0000e+00
        1  1    3    3  501    0 +2.9385322423e+02 -5.2719958117e+01 -2.6059898009e+02 3.9628391312e+02 0.0000000000e+00 0.0000e+00 1.0000e+00
       21  1    1    2  502  501 -9.9663489427e-02 -2.2368115024e-01 +3.6224453864e+00 3.6307129666e+00 0.0000000000e+00 0.0000e+00 -1.0000e+00
<mgrwt>
<rscale>  1 0.63563889E+03</rscale>
<asrwt>0</asrwt>
<pdfrwt beam="1">  1        1 0.38049606E+00 0.63563889E+03</pdfrwt>
<pdfrwt beam="2">0</pdfrwt>
<totfact> 0.16370644E+00</totfact>
</mgrwt>
</event>
<event>
 6      1 +5.6466785e-02 6.57729100e+02 7.81860800e-03 9.79238300e-02
        1 -1    0    0  502    0 +0.0000000000e+00 +0.0000000000e+00 +1.0815189701e+02 1.0815189701e+02 0.0000000000e+00 0.0000e+00 1.0000e+00
       13 -1    0    0    0    0 -0.0000000000e+00 -0.0000000000e+00 -1.0000000000e+03 1.0000000000e+03 0.0000000000e+00 0.0000e+00 1.0000e+00
  9000005  2    1    2  501    0 +3.7894990669e-05 -2.9810770300e-05 -8.9184794401e+02 1.1081517309e+03 6.5772905014e+02 0.0000e+00 0.0000e+00
       13  1    3    3    0    0 +2.1879809871e+02 -1.2438346905e+02 -8.9283921768e+01 2.6704957229e+02 0.0000000000e+00 0.0000e+00 1.0000e+00
        1  1    3    3  501    0 -2.1879806081e+02 +1.2438343924e+02 -8.0256402225e+02 8.4110215859e+02 0.0000000000e+00 0.0000e+00 1.0000e+00
       21  1    1    2  502  501 -3.7894990670e-05 +2.9810770307e-05 -1.5897982642e-04 1.6613036313e-04 0.0000000000e+00 0.0000e+00 1.0000e+00
<mgrwt>
<rscale>  1 0.65772905E+03</rscale>
<asrwt>0</asrwt>
<pdfrwt beam="1">  1        1 0.39328045E+00 0.65772905E+03</pdfrwt>
<pdfrwt beam="2">0</pdfrwt>
<totfact> 0.14311484E+00</totfact>
</mgrwt>
</event>
<event>
 6      1 +5.6466785e-02 6.55262800e+02 7.81860800e-03 9.79695400e-02
        1 -1    0    0  502    0 +0.0000000000e+00 +0.0000000000e+00 +1.0861481453e+02 1.0861481453e+02 0.0000000000e+00 0.0000e+00 1.0000e+00
       13 -1    0    0    0    0 -0.0000000000e+00 -0.0000000000e+00 -1.0000000000e+03 1.0000000000e+03 0.0000000000e+00 0.0000e+00 1.0000e+00
  9000005  2    1    2  501    0 +7.4413914760e-01 -1.5359720579e+00 -8.9198992305e+02 1.1068041073e+03 6.5526055588e+02 0.0000e+00 0.0000e+00
       13  1    3    3    0    0 +2.5203401714e+02 -1.2405659588e+02 -1.6008732978e+02 3.2332512729e+02 0.0000000000e+00 0.0000e+00 1.0000e+00
        1  1    3    3  501    0 -2.5128987799e+02 +1.2252062382e+02 -7.3190259327e+02 7.8347897998e+02 0.0000000000e+00 0.0000e+00 1.0000e+00
       21  1    1    2  502  501 -7.4413914760e-01 +1.5359720579e+00 +6.0473757701e-01 1.8107072570e+00 0.0000000000e+00 0.0000e+00 1.0000e+00
<mgrwt>
<rscale>  1 0.65526278E+03</rscale>
<asrwt>0</asrwt>
<pdfrwt beam="1">  1        1 0.39496379E+00 0.65526278E+03</pdfrwt>
<pdfrwt beam="2">0</pdfrwt>
<totfact> 0.14073528E+00</totfact>
</mgrwt>
</event>
<event>
 6      1 +5.6466785e-02 6.54575700e+02 7.81860800e-03 9.79823100e-02
        1 -1    0    0  502    0 +0.0000000000e+00 +0.0000000000e+00 +1.0726329574e+02 1.0726329574e+02 0.0000000000e+00 0.0000e+00 1.0000e+00
       13 -1    0    0    0    0 -0.0000000000e+00 -0.0000000000e+00 -1.0000000000e+03 1.0000000000e+03 0.0000000000e+00 0.0000e+00 1.0000e+00
  9000005  2    1    2  501    0 +8.0326102880e-03 +1.0188058105e-03 -8.9288253633e+02 1.1071172391e+03 6.5457570782e+02 0.0000e+00 0.0000e+00
       13  1    3    3    0    0 +2.1831125225e+02 +1.9915447648e+02 -6.8442141251e+02 7.4548975731e+02 0.0000000000e+00 0.0000e+00 1.0000e+00
        1  1    3    3  501    0 -2.1830321964e+02 -1.9915345768e+02 -2.0846112383e+02 3.6162748175e+02 0.0000000000e+00 0.0000e+00 1.0000e+00
       21  1    1    2  502  501 -8.0326102880e-03 -1.0188058105e-03 +1.4583207372e-01 1.4605668255e-01 0.0000000000e+00 0.0000e+00 1.0000e+00
<mgrwt>
<rscale>  1 0.65457571E+03</rscale>
<asrwt>0</asrwt>
<pdfrwt beam="1">  1        1 0.39004917E+00 0.65457571E+03</pdfrwt>
<pdfrwt beam="2">0</pdfrwt>
<totfact> 0.14800684E+00</totfact>
</mgrwt>
</event>
<event>
 6      1 +5.6466785e-02 4.60987400e+02 7.81860800e-03 1.02449500e-01
        3 -1    0    0  502    0 +0.0000000000e+00 +0.0000000000e+00 +5.3215573872e+01 5.3215573872e+01 0.0000000000e+00 0.0000e+00 1.0000e+00
       13 -1    0    0    0    0 -0.0000000000e+00 -0.0000000000e+00 -1.0000000000e+03 1.0000000000e+03 0.0000000000e+00 0.0000e+00 1.0000e+00
  9000005  2    1    2  501    0 -2.3604072096e-02 +2.8868594837e-02 -9.4686850059e+02 1.0531236007e+03 4.6098737465e+02 0.0000e+00 0.0000e+00
       13  1    3    3    0    0 +4.4889117022e+01 +1.1637076138e+02 -3.0626679309e+01 1.2843356422e+02 0.0000000000e+00 0.0000e+00 1.0000e+00
        1  1    3    3  501    0 -4.4912721094e+01 -1.1634189279e+02 -9.1624182128e+02 9.2469003649e+02 0.0000000000e+00 0.0000e+00 1.0000e+00
       21  1    1    2  502  501 +2.3604072096e-02 -2.8868594837e-02 +8.4074457064e-02 9.1973160856e-02 0.0000000000e+00 0.0000e+00 1.0000e+00
<mgrwt>
<rscale>  1 0.46098738E+03</rscale>
<asrwt>0</asrwt>
<pdfrwt beam="1">  1        3 0.19351159E+00 0.46098738E+03</pdfrwt>
<pdfrwt beam="2">0</pdfrwt>
<totfact> 0.84318259E-01</totfact>
</mgrwt>
</event>
<event>
 6      1 +5.6466785e-02 6.45208300e+02 7.81860800e-03 9.81581200e-02
        1 -1    0    0  502    0 +0.0000000000e+00 +0.0000000000e+00 +1.0407960131e+02 1.0407960131e+02 0.0000000000e+00 0.0000e+00 1.0000e+00
       13 -1    0    0    0    0 -0.0000000000e+00 -0.0000000000e+00 -1.0000000000e+03 1.0000000000e+03 0.0000000000e+00 0.0000e+00 1.0000e+00
  9000005  2    1    2  501    0 +1.4025671886e-04 +8.2259076468e-05 -8.9592656928e+02 1.1040734286e+03 6.4520827503e+02 0.0000e+00 0.0000e+00
       13  1    3    3    0    0 +7.8530512576e+01 -3.0605549411e+01 +8.4900289642e+01 1.1963193654e+02 0.0000000000e+00 0.0000e+00 1.0000e+00
        3  1    3    3  501    0 -7.8530372319e+01 +3.0605631670e+01 -9.8082685892e+02 9.8444149204e+02 0.0000000000e+00 0.0000e+00 1.0000e+00
       21  1    1    2  502  501 -1.4025671886e-04 -8.2259076467e-05 +6.1705906391e-03 6.1727325666e-03 0.0000000000e+00 0.0000e+00 1.0000e+00
<mgrwt>
<rscale>  1 0.64520828E+03</rscale>
<asrwt>0</asrwt>
<pdfrwt beam="1">  1        1 0.37847208E+00 0.64520828E+03</pdfrwt>
<pdfrwt beam="2">0</pdfrwt>
<totfact> 0.16681026E+00</totfact>
</mgrwt>
</event>
<event>
 6      1 +5.6466785e-02 5.01820900e+02 7.81860800e-03 1.01330500e-01
        1 -1    0    0  502    0 +0.0000000000e+00 +0.0000000000e+00 +6.2960050760e+01 6.2960050760e+01 0.0000000000e+00 0.0000e+00 1.0000e+00
       13 -1    0    0    0    0 -0.0000000000e+00 -0.0000000000e+00 -1.0000000000e+03 1.0000000000e+03 0.0000000000e+00 0.0000e+00 1.0000e+00
  9000005  2    1    2  501    0 -2.8991287195e-04 -1.0613067715e-04 -9.3704393299e+02 1.0629560551e+03 5.0182092689e+02 0.0000e+00 0.0000e+00
       13  1    3    3    0    0 -8.3375626572e+01 -2.2588399456e+02 -3.1902726324e+02 3.9969171719e+02 0.0000000000e+00 0.0000e+00 1.0000e+00
        1  1    3    3  501    0 +8.3375336659e+01 +2.2588388843e+02 -6.1801666975e+02 6.6326433787e+02 0.0000000000e+00 0.0000e+00 1.0000e+00
       21  1    1    2  502  501 +2.8991287195e-04 +1.0613067713e-04 +3.9837462432e-03 3.9956910947e-03 0.0000000000e+00 0.0000e+00 1.0000e+00
<mgrwt>
<rscale>  1 0.50182093E+03</rscale>
<asrwt>0</asrwt>
<pdfrwt beam="1">  1        1 0.22894612E+00 0.50182093E+03</pdfrwt>
<pdfrwt beam="2">0</pdfrwt>
<totfact> 0.76325236E+00</totfact>
</mgrwt>
</event>
<event>
 6      1 +5.6466785e-02 6.16466000e+02 7.81860800e-03 9.87182100e-02
        1 -1    0    0  502    0 +0.0000000000e+00 +0.0000000000e+00 +1.0596205978e+02 1.0596205978e+02 0.0000000000e+00 0.0000e+00 1.0000e+00
       13 -1    0    0    0    0 -0.0000000000e+00 -0.0000000000e+00 -1.0000000000e+03 1.0000000000e+03 0.0000000000e+00 0.0000e+00 1.0000e+00
  9000005  2    1    2  501    0 +2.2038007663e+01 -2.6233010782e+01 -8.5420878167e+02 1.0534243923e+03 6.1551317037e+02 0.0000e+00 0.0000e+00
       13  1    3    3    0    0 +3.9629478707e+01 +4.4981706914e+01 +8.9032932745e+01 1.0733458274e+02 0.0000000000e+00 0.0000e+00 1.0000e+00
        3  1    3    3  501    0 -1.7591471044e+01 -7.1214717696e+01 -9.4324171442e+02 9.4608980953e+02 0.0000000000e+00 0.0000e+00 1.0000e+00
       21  1    1    2  502  501 -2.2038007663e+01 +2.6233010782e+01 -3.9829158550e+01 5.2537667508e+01 0.0000000000e+00 0.0000e+00 1.0000e+00
<mgrwt>
<rscale>  1 0.61646598E+03</rscale>
<asrwt>0</asrwt>
<pdfrwt beam="1">  1        1 0.38531739E+00 0.61646598E+03</pdfrwt>
<pdfrwt beam="2">0</pdfrwt>
<totfact> 0.15644574E+00</totfact>
</mgrwt>
</event>
<event>
 6      1 +5.6466785e-02 6.34805100e+02 7.81860800e-03 9.83571700e-02
        1 -1    0    0  502    0 +0.0000000000e+00 +0.0000000000e+00 +1.0234280255e+02 1.0234280255e+02 0.0000000000e+00 0.0000e+00 1.0000e+00
       13 -1    0    0    0    0 -0.0000000000e+00 -0.0000000000e+00 -1.0000000000e+03 1.0000000000e+03 0.0000000000e+00 0.0000e+00 1.0000e+00
  9000005  2    1    2  501    0 +9.4310681664e-02 +4.4027067174e-02 -8.9925374812e+02 1.1007428629e+03 6.3480511645e+02 0.0000e+00 0.0000e+00
       13  1    3    3    0    0 +6.4349865801e+01 -3.0415826289e+02 -5.6042162240e+02 6.4087873187e+02 0.0000000000e+00 0.0000e+00 1.0000e+00
        3  1    3    3  501    0 -6.4255555119e+01 +3.0420228996e+02 -3.3883212572e+02 4.5986413102e+02 0.0000000000e+00 0.0000e+00 1.0000e+00
       21  1    1    2  502  501 -9.4310681664e-02 -4.4027067174e-02 +1.5965506699e+00 1.5999396641e+00 0.0000000000e+00 0.0000e+00 -1.0000e+00
<mgrwt>
<rscale>  1 0.63480512E+03</rscale>
<asrwt>0</asrwt>
<pdfrwt beam="1">  1        1 0.37215643E+00 0.63480512E+03</pdfrwt>
<pdfrwt beam="2">0</pdfrwt>
<totfact> 0.17817808E+00</totfact>
</mgrwt>
</event>
<event>
 6      1 +5.6466785e-02 6.32484800e+02 7.81860800e-03 9.84021200e-02
        1 -1    0    0  502    0 +0.0000000000e+00 +0.0000000000e+00 +1.0000925648e+02 1.0000925648e+02 0.0000000000e+00 0.0000e+00 1.0000e+00
       13 -1    0    0    0    0 -0.0000000000e+00 -0.0000000000e+00 -1.0000000000e+03 1.0000000000e+03 0.0000000000e+00 0.0000e+00 1.0000e+00
  9000005  2    1    2  501    0 -1.0876014130e-05 -1.3806772472e-05 -8.9999075042e+02 1.1000092376e+03 6.3248476026e+02 0.0000e+00 0.0000e+00
       13  1    3    3    0    0 +1.8962255294e+01 +3.1299300144e+02 -3.7860280252e+02 4.9159360060e+02 0.0000000000e+00 0.0000e+00 1.0000e+00
        3  1    3    3  501    0 -1.8962266170e+01 -3.1299301524e+02 -5.2138794790e+02 6.0841563700e+02 0.0000000000e+00 0.0000e+00 1.0000e+00
       21  1    1    2  502  501 +1.0876014130e-05 +1.3806772485e-05 +6.8953947418e-06 1.8880177924e-05 0.0000000000e+00 0.0000e+00 -1.0000e+00
<mgrwt>
<rscale>  1 0.63248476E+03</rscale>
<asrwt>0</asrwt>
<pdfrwt beam="1">  1        1 0.36367079E+00 0.63248476E+03</pdfrwt>
<pdfrwt beam="2">0</pdfrwt>
<totfact> 0.19420870E+00</totfact>
</mgrwt>
</event>
<event>
 6      1 +5.6466785e-02 6.56800500e+02 7.81860800e-03 9.79410200e-02
        1 -1    0    0  502    0 +0.0000000000e+00 +0.0000000000e+00 +1.0784837029e+02 1.0784837029e+02 0.0000000000e+00 0.0000e+00 1.0000e+00
       13 -1    0    0    0    0 -0.0000000000e+00 -0.0000000000e+00 -1.0000000000e+03 1.0000000000e+03 0.0000000000e+00 0.0000e+00 1.0000e+00
  9000005  2    1    2  501    0 +2.2046078853e-04 -6.2519641261e-04 -8.9215320192e+02 1.1078466640e+03 6.5680049886e+02 0.0000e+00 0.0000e+00
       13  1    3    3    0    0 +2.3767359720e+01 -2.8828408551e+02 -1.8382232968e+02 3.4272912079e+02 0.0000000000e+00 0.0000e+00 1.0000e+00
        3  1    3    3  501    0 -2.3767139259e+01 +2.8828346032e+02 -7.0833087224e+02 7.6511754324e+02 0.0000000000e+00 0.0000e+00 1.0000e+00
       21  1    1    2  502  501 -2.2046078853e-04 +6.2519641266e-04 +1.5722085555e-03 1.7062570896e-03 0.0000000000e+00 0.0000e+00 1.0000e+00
<mgrwt>
<rscale>  1 0.65680050E+03</rscale>
<asrwt>0</asrwt>
<pdfrwt beam="1">  1        1 0.39217672E+00 0.65680050E+03</pdfrwt>
<pdfrwt beam="2">0</pdfrwt>
<totfact> 0.14476435E+00</totfact>
</mgrwt>
</event>
<event>
 6      1 +5.6466785e-02 6.42574600e+02 7.81860800e-03 9.82081300e-02
        1 -1    0    0  502    0 +0.0000000000e+00 +0.0000000000e+00 +1.0416390352e+02 1.0416390352e+02 0.0000000000e+00 0.0000e+00 1.0000e+00
       13 -1    0    0    0    0 -0.0000000000e+00 -0.0000000000e+00 -1.0000000000e+03 1.0000000000e+03 0.0000000000e+00 0.0000e+00 1.0000e+00
  9000005  2    1    2  501    0 -1.4698014388e-01 +4.2675815180e-03 -8.9676812782e+02 1.1032203444e+03 6.4257453390e+02 0.0000e+00 0.0000e+00
       13  1    3    3    0    0 -2.4236072357e+02 -9.5071979351e-01 -8.6198687619e+01 2.5723498585e+02 0.0000000000e+00 0.0000e+00 1.0000e+00
        1  1    3    3  501    0 +2.4221374343e+02 +9.5498737503e-01 -8.1056944020e+02 8.4598535856e+02 0.0000000000e+00 0.0000e+00 1.0000e+00
       21  1    1    2  502  501 +1.4698014388e-01 -4.2675815180e-03 +9.3203134329e-01 9.4355911305e-01 0.0000000000e+00 0.0000e+00 1.0000e+00
<mgrwt>
<rscale>  1 0.64257455E+03</rscale>
<asrwt>0</asrwt>
<pdfrwt beam="1">  1        1 0.37877863E+00 0.64257455E+03</pdfrwt>
<pdfrwt beam="2">0</pdfrwt>
<totfact> 0.16637248E+00</totfact>
</mgrwt>
</event>
<event>
 6      1 +5.6466785e-02 6.49572600e+02 7.81860800e-03 9.80758100e-02
        1 -1    0    0  502    0 +0.0000000000e+00 +0.0000000000e+00 +1.1442349111e+02 1.1442349111e+02 0.0000000000e+00 0.0000e+00 1.0000e+00
       13 -1    0    0    0    0 -0.0000000000e+00 -0.0000000000e+00 -1.0000000000e+03 1.0000000000e+03 0.0000000000e+00 0.0000e+00 1.0000e+00
  9000005  2    1    2  501    0 -2.8342384520e+00 -3.5185155897e+00 -8.9387826896e+02 1.1049719262e+03 6.4955691440e+02 0.0000e+00 0.0000e+00
       13  1    3    3    0    0 -1.6489851281e+02 -2.8240049295e+02 -4.5104117441e+02 5.5711731167e+02 0.0000000000e+00 0.0000e+00 1.0000e+00
        1  1    3    3  501    0 +1.6206427436e+02 +2.7888197736e+02 -4.4283709455e+02 5.4785461450e+02 0.0000000000e+00 0.0000e+00 1.0000e+00
       21  1    1    2  502  501 +2.8342384520e+00 +3.5185155897e+00 +8.3017600731e+00 9.4515649428e+00 0.0000000000e+00 0.0000e+00 1.0000e+00
<mgrwt>
<rscale>  1 0.64957263E+03</rscale>
<asrwt>0</asrwt>
<pdfrwt beam="1">  1        1 0.41608630E+00 0.64957263E+03</pdfrwt>
<pdfrwt beam="2">0</pdfrwt>
<totfact> 0.11335011E+00</totfact>
</mgrwt>
</event>
<event>
 6      1 +5.6466785e-02 6.55097500e+02 7.81860800e-03 9.79726100e-02
        1 -1    0    0  502    0 +0.0000000000e+00 +0.0000000000e+00 +1.0728845826e+02 1.0728845826e+02 0.0000000000e+00 0.0000e+00 1.0000e+00
       13 -1    0    0    0    0 -0.0000000000e+00 -0.0000000000e+00 -1.0000000000e+03 1.0000000000e+03 0.0000000000e+00 0.0000e+00 1.0000e+00
  9000005  2    1    2  501    0 +5.4605232904e-05 +2.0937024050e-04 -8.9271175219e+02 1.1072881564e+03 6.5509754149e+02 0.0000e+00 0.0000e+00
       13  1    3    3    0    0 -1.0769093215e+02 -3.0933657709e+02 -4.4417026457e+02 5.5188194274e+02 0.0000000000e+00 0.0000e+00 1.0000e+00
        1  1    3    3  501    0 +1.0769098675e+02 +3.0933678646e+02 -4.4854148762e+02 5.5540621368e+02 0.0000000000e+00 0.0000e+00 1.0000e+00
       21  1    1    2  502  501 -5.4605232896e-05 -2.0937024049e-04 +2.1044313485e-04 3.0183429571e-04 0.0000000000e+00 0.0000e+00 -1.0000e+00
<mgrwt>
<rscale>  1 0.65509754E+03</rscale>
<asrwt>0</asrwt>
<pdfrwt beam="1">  1        1 0.39014067E+00 0.65509754E+03</pdfrwt>
<pdfrwt beam="2">0</pdfrwt>
<totfact> 0.14785430E+00</totfact>
</mgrwt>
</event>
<event>
 6      1 +5.6466785e-02 6.55989200e+02 7.81860800e-03 9.79560500e-02
        1 -1    0    0  502    0 +0.0000000000e+00 +0.0000000000e+00 +1.3712626408e+02 1.3712626408e+02 0.0000000000e+00 0.0000e+00 1.0000e+00
       13 -1    0    0    0    0 -0.0000000000e+00 -0.0000000000e+00 -1.0000000000e+03 1.0000000000e+03 0.0000000000e+00 0.0000e+00 1.0000e+00
  9000005  2    1    2  501    0 -3.0283424147e+00 -4.8147960346e+00 -8.9211601339e+02 1.1073359316e+03 6.5596458052e+02 0.0000e+00 0.0000e+00
       13  1    3    3    0    0 -3.1263478595e+02 +9.4069045756e+01 -3.8234608360e+02 5.0277034757e+02 0.0000000000e+00 0.0000e+00 1.0000e+00
        3  1    3    3  501    0 +3.0960644353e+02 -9.8883841791e+01 -5.0976992980e+02 6.0456558401e+02 0.0000000000e+00 0.0000e+00 1.0000e+00
       21  1    1    2  502  501 +3.0283424147e+00 +4.8147960346e+00 +2.9242277477e+01 2.9790332503e+01 0.0000000000e+00 0.0000e+00 -1.0000e+00
<mgrwt>
<rscale>  1 0.65598924E+03</rscale>
<asrwt>0</asrwt>
<pdfrwt beam="1">  1        1 0.49864201E+00 0.65598924E+03</pdfrwt>
<pdfrwt beam="2">0</pdfrwt>
<totfact> 0.46873459E-01</totfact>
</mgrwt>
</event>
<event>
 6      1 +5.6466785e-02 6.43966000e+02 7.81860800e-03 9.81816800e-02
        1 -1    0    0  502    0 +0.0000000000e+00 +0.0000000000e+00 +1.0370020901e+02 1.0370020901e+02 0.0000000000e+00 0.0000e+00 1.0000e+00
       13 -1    0    0    0    0 -0.0000000000e+00 -0.0000000000e+00 -1.0000000000e+03 1.0000000000e+03 0.0000000000e+00 0.0000e+00 1.0000e+00
  9000005  2    1    2  501    0 +3.3008845151e-05 -1.2097878351e-03 -8.9632693012e+02 1.1036730429e+03 6.4396600841e+02 0.0000e+00 0.0000e+00
       13  1    3    3    0    0 +5.9670350058e+01 -1.6940951559e+02 -9.0616500815e+02 9.2379389295e+02 0.0000000000e+00 0.0000e+00 1.0000e+00
        3  1    3    3  501    0 -5.9670317049e+01 +1.6940830580e+02 +9.8380780321e+00 1.7987914996e+02 0.0000000000e+00 0.0000e+00 1.0000e+00
       21  1    1    2  502  501 -3.3008845145e-05 +1.2097878351e-03 +2.7139134187e-02 2.7166105364e-02 0.0000000000e+00 0.0000e+00 -1.0000e+00
<mgrwt>
<rscale>  1 0.64396601E+03</rscale>
<asrwt>0</asrwt>
<pdfrwt beam="1">  1        1 0.37709246E+00 0.64396601E+03</pdfrwt>
<pdfrwt beam="2">0</pdfrwt>
<totfact> 0.16920079E+00</totfact>
</mgrwt>
</event>
<event>
 6      1 +5.6466785e-02 6.54365300e+02 7.81860800e-03 9.79862200e-02
        1 -1    0    0  502    0 +0.0000000000e+00 +0.0000000000e+00 +1.0709697463e+02 1.0709697463e+02 0.0000000000e+00 0.0000e+00 1.0000e+00
       13 -1    0    0    0    0 -0.0000000000e+00 -0.0000000000e+00 -1.0000000000e+03 1.0000000000e+03 0.0000000000e+00 0.0000e+00 1.0000e+00
  9000005  2    1    2  501    0 -2.0860089375e-02 +5.4817832170e-03 -8.9294885089e+02 1.1070463271e+03 6.5436527995e+02 0.0000e+00 0.0000e+00
       13  1    3    3    0    0 -1.3975946884e+02 +2.8133265520e+02 -6.0128140077e+02 6.7839523504e+02 0.0000000000e+00 0.0000e+00 1.0000e+00
        1  1    3    3  501    0 +1.3973860875e+02 -2.8132717341e+02 -2.9166745012e+02 4.2865109207e+02 0.0000000000e+00 0.0000e+00 1.0000e+00
       21  1    1    2  502  501 +2.0860089375e-02 -5.4817832170e-03 +4.5825514023e-02 5.0647517327e-02 0.0000000000e+00 0.0000e+00 1.0000e+00
<mgrwt>
<rscale>  1 0.65436528E+03</rscale>
<asrwt>0</asrwt>
<pdfrwt beam="1">  1        1 0.38944437E+00 0.65436528E+03</pdfrwt>
<pdfrwt beam="2">0</pdfrwt>
<totfact> 0.14892943E+00</totfact>
</mgrwt>
</event>
<event>
 6      1 +5.6466785e-02 6.41431600e+02 7.81860800e-03 9.82299100e-02
        1 -1    0    0  502    0 +0.0000000000e+00 +0.0000000000e+00 +1.0293521953e+02 1.0293521953e+02 0.0000000000e+00 0.0000e+00 1.0000e+00
       13 -1    0    0    0    0 -0.0000000000e+00 -0.0000000000e+00 -1.0000000000e+03 1.0000000000e+03 0.0000000000e+00 0.0000e+00 1.0000e+00
  9000005  2    1    2  501    0 +1.1133113576e-01 +1.9572458816e-01 -8.9659463767e+02 1.1024139356e+03 6.4143159441e+02 0.0000e+00 0.0000e+00
       13  1    3    3    0    0 +2.6349145459e+01 -1.8885374038e+02 -5.1356857319e+00 1.9075216379e+02 0.0000000000e+00 0.0000e+00 1.0000e+00
        3  1    3    3  501    0 -2.6237814323e+01 +1.8904946497e+02 -8.9145895194e+02 9.1166177177e+02 0.0000000000e+00 0.0000e+00 1.0000e+00
       21  1    1    2  502  501 -1.1133113576e-01 -1.9572458816e-01 -4.7014279607e-01 5.2128397722e-01 0.0000000000e+00 0.0000e+00 1.0000e+00
<mgrwt>
<rscale>  1 0.64143163E+03</rscale>
<asrwt>0</asrwt>
<pdfrwt beam="1">  1        1 0.37431068E+00 0.64143163E+03</pdfrwt>
<pdfrwt beam="2">0</pdfrwt>
<totfact> 0.17412163E+00</totfact>
</mgrwt>
</event>
<event>
 6      1 +5.6466785e-02 6.60172900e+02 7.81860800e-03 9.78787500e-02
        1 -1    0    0  502    0 +0.0000000000e+00 +0.0000000000e+00 +1.0917138032e+02 1.0917138032e+02 0.0000000000e+00 0.0000e+00 1.0000e+00
       13 -1    0    0    0    0 -0.0000000000e+00 -0.0000000000e+00 -1.0000000000e+03 1.0000000000e+03 0.0000000000e+00 0.0000e+00 1.0000e+00
  9000005  2    1    2  501    0 -5.2365147785e-01 +2.9323344853e-01 -8.9036795138e+02 1.1084148012e+03 6.6017264590e+02 0.0000e+00 0.0000e+00
       13  1    3    3    0    0 -8.2403617683e+01 +9.5416647315e+01 -9.5771485620e+02 9.6597745241e+02 0.0000000000e+00 0.0000e+00 1.0000e+00
        1  1    3    3  501    0 +8.1879966205e+01 -9.5123413866e+01 +6.7346904815e+01 1.4243734875e+02 0.0000000000e+00 0.0000e+00 1.0000e+00
       21  1    1    2  502  501 +5.2365147785e-01 -2.9323344853e-01 -4.6066830396e-01 7.5657915109e-01 0.0000000000e+00 0.0000e+00 1.0000e+00
<mgrwt>
<rscale>  1 0.66017292E+03</rscale>
<asrwt>0</asrwt>
<pdfrwt beam="1">  1        1 0.39698767E+00 0.66017292E+03</pdfrwt>
<pdfrwt beam="2">0</pdfrwt>
<totfact> 0.13772109E+00</totfact>
</mgrwt>
</event>
<event>
 6      1 +5.6466785e-02 6.51990400e+02 7.81860800e-03 9.80305200e-02
        1 -1    0    0  502    0 +0.0000000000e+00 +0.0000000000e+00 +1.0868783950e+02 1.0868783950e+02 0.0000000000e+00 0.0000e+00 1.0000e+00
       13 -1    0    0    0    0 -0.0000000000e+00 -0.0000000000e+00 -1.0000000000e+03 1.0000000000e+03 0.0000000000e+00 0.0000e+00 1.0000e+00
  9000005  2    1    2  501    0 -2.4298769198e+00 -5.4303652418e-01 -8.9299586212e+02 1.1056821712e+03 6.5198562472e+02 0.0000e+00 0.0000e+00
       13  1    3    3    0    0 +1.8977432980e+02 +2.3193307186e+02 -6.5893782343e+02 7.2388279522e+02 0.0000000000e+00 0.0000e+00 1.0000e+00
        1  1    3    3  501    0 -1.9220420672e+02 -2.3247610838e+02 -2.3405803869e+02 3.8179937602e+02 0.0000000000e+00 0.0000e+00 1.0000e+00
       21  1    1    2  502  501 +2.4298769198e+00 +5.4303652418e-01 +1.6837016237e+00 3.0056682567e+00 0.0000000000e+00 0.0000e+00 1.0000e+00
<mgrwt>
<rscale>  1 0.65199038E+03</rscale>
<asrwt>0</asrwt>
<pdfrwt beam="1">  1        1 0.39522934E+00 0.65199038E+03</pdfrwt>
<pdfrwt beam="2">0</pdfrwt>
<totfact> 0.14043938E+00</totfact>
</mgrwt>
</event>
<event>
 6      1 +5.6466785e-02 6.69781500e+02 7.81860800e-03 9.77035300e-02
        1 -1    0    0  502    0 +0.0000000000e+00 +0.0000000000e+00 +1.1218041346e+02 1.1218041346e+02 0.0000000000e+00 0.0000e+00 1.0000e+00
       13 -1    0    0    0    0 -0.0000000000e+00 -0.0000000000e+00 -1.0000000000e+03 1.0000000000e+03 0.0000000000e+00 0.0000e+00 1.0000e+00
  9000005  2    1    2  501    0 +5.9062288457e-04 +1.3965051567e-03 -8.8784817419e+02 1.1121517856e+03 6.6978146723e+02 0.0000e+00 0.0000e+00
       13  1    3    3    0    0 -1.9947454190e+02 -2.1621291092e+02 -7.0966723553e+02 7.6822242931e+02 0.0000000000e+00 0.0000e+00 1.0000e+00
        3  1    3    3  501    0 +1.9947513252e+02 +2.1621430743e+02 -1.7818093866e+02 3.4392935631e+02 0.0000000000e+00 0.0000e+00 1.0000e+00
       21  1    1    2  502  501 -5.9062288458e-04 -1.3965051567e-03 +2.8587656826e-02 2.8627839333e-02 0.0000000000e+00 0.0000e+00 1.0000e+00
<mgrwt>
<rscale>  1 0.66978147E+03</rscale>
<asrwt>0</asrwt>
<pdfrwt beam="1">  1        1 0.40792964E+00 0.66978147E+03</pdfrwt>
<pdfrwt beam="2">0</pdfrwt>
<totfact> 0.12284401E+00</totfact>
</mgrwt>
</event>
<event>
 6      1 +5.6466785e-02 6.44697700e+02 7.81860800e-03 9.81678000e-02
        1 -1    0    0  502    0 +0.0000000000e+00 +0.0000000000e+00 +1.0392310447e+02 1.0392310447e+02 0.0000000000e+00 0.0000e+00 1.0000e+00
       13 -1    0    0    0    0 -0.0000000000e+00 -0.0000000000e+00 -1.0000000000e+03 1.0000000000e+03 0.0000000000e+00 0.0000e+00 1.0000e+00
  9000005  2    1    2  501    0 +9.9885758884e-03 +2.1758872490e-02 -8.9607925764e+02 1.1038990462e+03 6.4469765603e+02 0.0000e+00 0.0000e+00
       13  1    3    3    0    0 -2.3556295579e+01 +2.2100569269e+02 -4.8260363279e+01 2.2743675588e+02 0.0000000000e+00 0.0000e+00 1.0000e+00
        3  1    3    3  501    0 +2.3566284154e+01 -2.2098393381e+02 -8.4781889436e+02 8.7646229034e+02 0.0000000000e+00 0.0000e+00 1.0000e+00
       21  1    1    2  502  501 -9.9885758884e-03 -2.1758872490e-02 +2.3621078693e-03 2.4058257084e-02 0.0000000000e+00 0.0000e+00 -1.0000e+00
<mgrwt>
<rscale>  1 0.64469766E+03</rscale>
<asrwt>0</asrwt>
<pdfrwt beam="1">  1        1 0.37790299E+00 0.64469766E+03</pdfrwt>
<pdfrwt beam="2">0</pdfrwt>
<totfact> 0.16779236E+00</totfact>
</mgrwt>
</event>
<event>
 6      1 +5.6466785e-02 6.12570400e+02 7.81860800e-03 9.87966400e-02
        1 -1    0    0  502    0 +0.0000000000e+00 +0.0000000000e+00 +9.3906828704e+01 9.3906828704e+01 0.0000000000e+00 0.0000e+00 1.0000e+00
       13 -1    0    0    0    0 -0.0000000000e+00 -0.0000000000e+00 -1.0000000000e+03 1.0000000000e+03 0.0000000000e+00 0.0000e+00 1.0000e+00
  9000005  2    1    2  501    0 -7.9846559825e-03 +2.8767885958e-02 -9.0618683887e+02 1.0938085182e+03 6.1257039319e+02 0.0000e+00 0.0000e+00
       13  1    3    3    0    0 +1.5356368851e+01 +1.4258999966e+02 -9.3636191366e+02 9.4728103508e+02 0.0000000000e+00 0.0000e+00 1.0000e+00
        1  1    3    3  501    0 -1.5364353507e+01 -1.4256123177e+02 +3.0175074796e+01 1.4652748310e+02 0.0000000000e+00 0.0000e+00 1.0000e+00
       21  1    1    2  502  501 +7.9846559825e-03 -2.8767885958e-02 +9.3667568781e-02 9.8310525555e-02 0.0000000000e+00 0.0000e+00 -1.0000e+00
<mgrwt>
<rscale>  1 0.61257039E+03</rscale>
<asrwt>0</asrwt>
<pdfrwt beam="1">  1        1 0.34148010E+00 0.61257039E+03</pdfrwt>
<pdfrwt beam="2">0</pdfrwt>
<totfact> 0.24356142E+00</totfact>
</mgrwt>
</event>
<event>
 6      1 +5.6466785e-02 6.36726000e+02 7.81860800e-03 9.83201100e-02
        1 -1    0    0  502    0 +0.0000000000e+00 +0.0000000000e+00 +1.0135545119e+02 1.0135545119e+02 0.0000000000e+00 0.0000e+00 1.0000e+00
       13 -1    0    0    0    0 -0.0000000000e+00 -0.0000000000e+00 -1.0000000000e+03 1.0000000000e+03 0.0000000000e+00 0.0000e+00 1.0000e+00
  9000005  2    1    2  501    0 +1.4329485731e-04 -1.4309630444e-05 -8.9864499268e+02 1.1013549845e+03 6.3672598431e+02 0.0000e+00 0.0000e+00
       13  1    3    3    0    0 -1.7866933666e+02 +1.5992005580e+02 -8.1156395070e+02 8.4624653748e+02 0.0000000000e+00 0.0000e+00 1.0000e+00
        1  1    3    3  501    0 +1.7866947995e+02 -1.5992007011e+02 -8.7081041979e+01 2.5510844706e+02 0.0000000000e+00 0.0000e+00 1.0000e+00
       21  1    1    2  502  501 -1.4329485730e-04 +1.4309630430e-05 +4.4386973316e-04 4.6664603466e-04 0.0000000000e+00 0.0000e+00 1.0000e+00
<mgrwt>
<rscale>  1 0.63672598E+03</rscale>
<asrwt>0</asrwt>
<pdfrwt beam="1">  1        1 0.36856605E+00 0.63672598E+03</pdfrwt>
<pdfrwt beam="2">0</pdfrwt>
<totfact> 0.18470186E+00</totfact>
</mgrwt>
</event>
<event>
 6      1 +5.6466785e-02 6.50678300e+02 7.81860800e-03 9.80550700e-02
        1 -1    0    0  502    0 +0.0000000000e+00 +0.0000000000e+00 +1.0694293156e+02 1.0694293156e+02 0.0000000000e+00 0.0000e+00 1.0000e+00
       13 -1    0    0    0    0 -0.0000000000e+00 -0.0000000000e+00 -1.0000000000e+03 1.0000000000e+03 0.0000000000e+00 0.0000e+00 1.0000e+00
  9000005  2    1    2  501    0 -2.0127643838e-01 +1.1431779893e-01 -8.9414091473e+02 1.1058346430e+03 6.5067828353e+02 0.0000e+00 0.0000e+00
       13  1    3    3    0    0 +1.4815441983e+02 +1.0724055572e+02 -9.0425443747e+02 9.2256509612e+02 0.0000000000e+00 0.0000e+00 1.0000e+00
        3  1    3    3  501    0 -1.4835569627e+02 -1.0712623792e+02 +1.0113522734e+01 1.8326954687e+02 0.0000000000e+00 0.0000e+00 1.0000e+00
       21  1    1    2  502  501 +2.0127643838e-01 -1.1431779893e-01 +1.0838462962e+00 1.1082885714e+00 0.0000000000e+00 0.0000e+00 -1.0000e+00
<mgrwt>
<rscale>  1 0.65067832E+03</rscale>
<asrwt>0</asrwt>
<pdfrwt beam="1">  1        1 0.38888421E+00 0.65067832E+03</pdfrwt>
<pdfrwt beam="2">0</pdfrwt>
<totfact> 0.14988589E+00</totfact>
</mgrwt>
</event>
<event>
 6      1 +5.6466785e-02 6.33398000e+02 7.81860800e-03 9.83844000e-02
        1 -1    0    0  502    0 +0.0000000000e+00 +0.0000000000e+00 +1.0029831655e+02 1.0029831655e+02 0.0000000000e+00 0.0000e+00 1.0000e+00
       13 -1    0    0    0    0 -0.0000000000e+00 -0.0000000000e+00 -1.0000000000e+03 1.0000000000e+03 0.0000000000e+00 0.0000e+00 1.0000e+00
  9000005  2    1    2  501    0 -2.0854804454e-05 -1.5267382935e-05 -8.9970174937e+02 1.1002982457e+03 6.3339797265e+02 0.0000e+00 0.0000e+00
       13  1    3    3    0    0 +3.2181685450e+01 -2.4794695142e+02 -7.8752119983e+02 8.2625842918e+02 0.0000000000e+00 0.0000e+00 1.0000e+00
        3  1    3    3  501    0 -3.2181706305e+01 +2.4794693615e+02 -1.1218054954e+02 2.7403981656e+02 0.0000000000e+00 0.0000e+00 1.0000e+00
       21  1    1    2  502  501 +2.0854804452e-05 +1.5267382934e-05 +6.5919668500e-05 7.0805497990e-05 0.0000000000e+00 0.0000e+00 1.0000e+00
<mgrwt>
<rscale>  1 0.63339797E+03</rscale>
<asrwt>0</asrwt>
<pdfrwt beam="1">  1        1 0.36472192E+00 0.63339797E+03</pdfrwt>
<pdfrwt beam="2">0</pdfrwt>
<totfact> 0.19212856E+00</totfact>
</mgrwt>
</event>
<event>
 6      1 +5.6466785e-02 6.59872200e+02 7.81860800e-03 9.78842900e-02
        1 -1    0    0  502    0 +0.0000000000e+00 +0.0000000000e+00 +1.0887650587e+02 1.0887650587e+02 0.0000000000e+00 0.0000e+00 1.0000e+00
       13 -1    0    0    0    0 -0.0000000000e+00 -0.0000000000e+00 -1.0000000000e+03 1.0000000000e+03 0.0000000000e+00 0.0000e+00 1.0000e+00
  9000005  2    1    2  501    0 +5.3491868187e-03 -1.4237925685e-02 -8.9113867398e+02 1.1088550173e+03 6.5987219431e+02 0.0000e+00 0.0000e+00
       13  1    3    3    0    0 -2.1095845367e+02 -1.3959548491e+02 -8.9624506237e+01 2.6837086410e+02 0.0000000000e+00 0.0000e+00 1.0000e+00
        1  1    3    3  501    0 +2.1096380286e+02 +1.3958124698e+02 -8.0151416774e+02 8.4048415316e+02 0.0000000000e+00 0.0000e+00 1.0000e+00
       21  1    1    2  502  501 -5.3491868187e-03 +1.4237925685e-02 +1.5179848880e-02 2.1488604874e-02 0.0000000000e+00 0.0000e+00 -1.0000e+00
<mgrwt>
<rscale>  1 0.65987219E+03</rscale>
<asrwt>0</asrwt>
<pdfrwt beam="1">  1        1 0.39591540E+00 0.65987219E+03</pdfrwt>
<pdfrwt beam="2">0</pdfrwt>
<totfact> 0.13925052E+00</totfact>
</mgrwt>
</event>
<event>
 6      1 +5.6466785e-02 6.64150900e+02 7.81860800e-03 9.78058200e-02
        1 -1    0    0  502    0 +0.0000000000e+00 +0.0000000000e+00 +1.4455335532e+02 1.4455335532e+02 0.0000000000e+00 0.0000e+00 1.0000e+00
       13 -1    0    0    0    0 -0.0000000000e+00 -0.0000000000e+00 -1.0000000000e+03 1.0000000000e+03 0.0000000000e+00 0.0000e+00 1.0000e+00
  9000005  2    1    2  501    0 -9.5650902121e-01 -1.3502150602e+00 -8.8970370913e+02 1.1102563517e+03 6.6414888280e+02 0.0000e+00 0.0000e+00
       13  1    3    3    0    0 +8.4856245987e+01 -1.5585033047e+02 +2.4490507264e+01 1.7913596216e+02 0.0000000000e+00 0.0000e+00 1.0000e+00
        3  1    3    3  501    0 -8.5812755008e+01 +1.5450011541e+02 -9.1419421640e+02 9.3112038957e+02 0.0000000000e+00 0.0000e+00 1.0000e+00
       21  1    1    2  502  501 +9.5650902121e-01 +1.3502150602e+00 +3.4257064457e+01 3.4297003593e+01 0.0000000000e+00 0.0000e+00 -1.0000e+00
<mgrwt>
<rscale>  1 0.66415094E+03</rscale>
<asrwt>0</asrwt>
<pdfrwt beam="1">  1        1 0.52564967E+00 0.66415094E+03</pdfrwt>
<pdfrwt beam="2">0</pdfrwt>
<totfact> 0.34558940E-01</totfact>
</mgrwt>
</event>
<event>
 6      1 +5.6466785e-02 6.63004100e+02 7.81860800e-03 9.78267900e-02
        1 -1    0    0  502    0 +0.0000000000e+00 +0.0000000000e+00 +1.1047277216e+02 1.1047277216e+02 0.0000000000e+00 0.0000e+00 1.0000e+00
       13 -1    0    0    0    0 -0.0000000000e+00 -0.0000000000e+00 -1.0000000000e+03 1.0000000000e+03 0.0000000000e+00 0.0000e+00 1.0000e+00
  9000005  2    1    2  501    0 +1.2598740456e-02 -1.9222669483e-02 -8.9010615162e+02 1.1098933923e+03 6.6300405779e+02 0.0000e+00 0.0000e+00
       13  1    3    3    0    0 +1.0397681161e+02 -3.3708832591e+01 -9.6897473352e+02 9.7512024743e+02 0.0000000000e+00 0.0000e+00 1.0000e+00
        1  1    3    3  501    0 -1.0396421287e+02 +3.3689609922e+01 +7.8868581898e+01 1.3477314490e+02 0.0000000000e+00 0.0000e+00 1.0000e+00
       21  1    1    2  502  501 -1.2598740456e-02 +1.9222669483e-02 +5.7892378741e-01 5.7937983302e-01 0.0000000000e+00 0.0000e+00 -1.0000e+00
<mgrwt>
<rscale>  1 0.66300406E+03</rscale>
<asrwt>0</asrwt>
<pdfrwt beam="1">  1        1 0.40172002E+00 0.66300406E+03</pdfrwt>
<pdfrwt beam="2">0</pdfrwt>
<totfact> 0.13112202E+00</totfact>
</mgrwt>
</event>
<event>
 6      1 +5.6466785e-02 6.51312400e+02 7.81860800e-03 9.80432000e-02
        1 -1    0    0  502    0 +0.0000000000e+00 +0.0000000000e+00 +1.0605196423e+02 1.0605196423e+02 0.0000000000e+00 0.0000e+00 1.0000e+00
       13 -1    0    0    0    0 -0.0000000000e+00 -0.0000000000e+00 -1.0000000000e+03 1.0000000000e+03 0.0000000000e+00 0.0000e+00 1.0000e+00
  9000005  2    1    2  501    0 +5.7067965713e-06 +1.0516297777e-05 -8.9394803651e+02 1.1060519522e+03 6.5131238979e+02 0.0000e+00 0.0000e+00
       13  1    3    3    0    0 -2.3619351615e+02 +2.0916448176e+02 -3.0990580680e+02 4.4224288190e+02 0.0000000000e+00 0.0000e+00 1.0000e+00
        1  1    3    3  501    0 +2.3619352186e+02 -2.0916447124e+02 -5.8404222970e+02 6.6380907035e+02 0.0000000000e+00 0.0000e+00 1.0000e+00
       21  1    1    2  502  501 -5.7067965762e-06 -1.0516297769e-05 +7.3682744336e-07 1.1987616970e-05 0.0000000000e+00 0.0000e+00 1.0000e+00
<mgrwt>
<rscale>  1 0.65131239E+03</rscale>
<asrwt>0</asrwt>
<pdfrwt beam="1">  1        1 0.38564432E+00 0.65131239E+03</pdfrwt>
<pdfrwt beam="2">0</pdfrwt>
<totfact> 0.15490182E+00</totfact>
</mgrwt>
</event>
<event>
 6      1 +5.6466785e-02 6.60702400e+02 7.81860800e-03 9.78690200e-02
        1 -1    0    0  502    0 +0.0000000000e+00 +0.0000000000e+00 +1.0913235190e+02 1.0913235190e+02 0.0000000000e+00 0.0000e+00 1.0000e+00
       13 -1    0    0    0    0 -0.0000000000e+00 -0.0000000000e+00 -1.0000000000e+03 1.0000000000e+03 0.0000000000e+00 0.0000e+00 1.0000e+00
  9000005  2    1    2  501    0 -2.2999441330e-04 +3.6830519065e-05 -8.9086806114e+02 1.1091318777e+03 6.6070236854e+02 0.0000e+00 0.0000e+00
       13  1    3    3    0    0 -2.1995371975e+02 -1.2810218562e+02 -9.1937184604e+01 2.7063306284e+02 0.0000000000e+00 0.0000e+00 1.0000e+00
        1  1    3    3  501    0 +2.1995348975e+02 +1.2810222245e+02 -7.9893087654e+02 8.3849881487e+02 0.0000000000e+00 0.0000e+00 1.0000e+00
       21  1    1    2  502  501 +2.2999441332e-04 -3.6830519079e-05 +4.1304558742e-04 4.7419465895e-04 0.0000000000e+00 0.0000e+00 1.0000e+00
<mgrwt>
<rscale>  1 0.66070237E+03</rscale>
<asrwt>0</asrwt>
<pdfrwt beam="1">  1        1 0.39684575E+00 0.66070237E+03</pdfrwt>
<pdfrwt beam="2">0</pdfrwt>
<totfact> 0.13790796E+00</totfact>
</mgrwt>
</event>
<event>
 6      1 +5.6466785e-02 6.48974700e+02 7.81860800e-03 9.80870500e-02
        1 -1    0    0  502    0 +0.0000000000e+00 +0.0000000000e+00 +1.0529271974e+02 1.0529271974e+02 0.0000000000e+00 0.0000e+00 1.0000e+00
       13 -1    0    0    0    0 -0.0000000000e+00 -0.0000000000e+00 -1.0000000000e+03 1.0000000000e+03 0.0000000000e+00 0.0000e+00 1.0000e+00
  9000005  2    1    2  501    0 -3.0561770578e-04 +1.4926838361e-05 -8.9470790617e+02 1.1052920230e+03 6.4897474437e+02 0.0000e+00 0.0000e+00
       13  1    3    3    0    0 +7.0457189272e+01 +1.7772833591e+02 -8.9388885967e+02 9.1410550285e+02 0.0000000000e+00 0.0000e+00 1.0000e+00
        1  1    3    3  501    0 -7.0457494890e+01 -1.7772832098e+02 -8.1904649831e-01 1.9118652019e+02 0.0000000000e+00 0.0000e+00 1.0000e+00
       21  1    1    2  502  501 +3.0561770578e-04 -1.4926838352e-05 +6.2591277412e-04 6.9670064834e-04 0.0000000000e+00 0.0000e+00 -1.0000e+00
<mgrwt>
<rscale>  1 0.64897474E+03</rscale>
<asrwt>0</asrwt>
<pdfrwt beam="1">  1        1 0.38288342E+00 0.64897474E+03</pdfrwt>
<pdfrwt beam="2">0</pdfrwt>
<totfact> 0.15938647E+00</totfact>
</mgrwt>
</event>
<event>
 6      1 +5.6466785e-02 6.65099300e+02 7.81860800e-03 9.77885200e-02
        1 -1    0    0  502    0 +0.0000000000e+00 +0.0000000000e+00 +1.1257092863e+02 1.1257092863e+02 0.0000000000e+00 0.0000e+00 1.0000e+00
       13 -1    0    0    0    0 -0.0000000000e+00 -0.0000000000e+00 -1.0000000000e+03 1.0000000000e+03 0.0000000000e+00 0.0000e+00 1.0000e+00
  9000005  2    1    2  501    0 +2.6998823566e-01 +1.8658235804e+00 -8.8889960648e+02 1.1101799738e+03 6.6509661683e+02 0.0000e+00 0.0000e+00
       13  1    3    3    0    0 +2.9839009810e+02 +1.4587721879e+02 -4.0346872884e+02 5.2259336846e+02 0.0000000000e+00 0.0000e+00 1.0000e+00
        3  1    3    3  501    0 -2.9812010986e+02 -1.4401139521e+02 -4.8543087765e+02 5.8758660538e+02 0.0000000000e+00 0.0000e+00 1.0000e+00
       21  1    1    2  502  501 -2.6998823566e-01 -1.8658235804e+00 +1.4705351093e+00 2.3909547859e+00 0.0000000000e+00 0.0000e+00 1.0000e+00
<mgrwt>
<rscale>  1 0.66509929E+03</rscale>
<asrwt>0</asrwt>
<pdfrwt beam="1">  1        1 0.40934969E+00 0.66509929E+03</pdfrwt>
<pdfrwt beam="2">0</pdfrwt>
<totfact> 0.12116415E+00</totfact>
</mgrwt>
</event>
<event>
 6      1 +5.6466785e-02 6.24309000e+02 7.81860800e-03 9.85621800e-02
        1 -1    0    0  502    0 +0.0000000000e+00 +0.0000000000e+00 +9.7452780160e+01 9.7452780160e+01 0.0000000000e+00 0.0000e+00 1.0000e+00
       13 -1    0    0    0    0 -0.0000000000e+00 -0.0000000000e+00 -1.0000000000e+03 1.0000000000e+03 0.0000000000e+00 0.0000e+00 1.0000e+00
  9000005  2    1    2  501    0 +2.5088754522e-02 +4.2179254244e-03 -9.0254329602e+02 1.0974270385e+03 6.2430898040e+02 0.0000e+00 0.0000e+00
       13  1    3    3    0    0 +1.0693095660e+02 +1.4564889494e+02 -3.8238216558e+00 1.8072756206e+02 0.0000000000e+00 0.0000e+00 1.0000e+00
        3  1    3    3  501    0 -1.0690586784e+02 -1.4564467701e+02 -8.9871947436e+02 9.1669947644e+02 0.0000000000e+00 0.0000e+00 1.0000e+00
       21  1    1    2  502  501 -2.5088754522e-02 -4.2179254244e-03 -3.9238248950e-03 2.5741656904e-02 0.0000000000e+00 0.0000e+00 -1.0000e+00
<mgrwt>
<rscale>  1 0.62430898E+03</rscale>
<asrwt>0</asrwt>
<pdfrwt beam="1">  1        1 0.35437449E+00 0.62430898E+03</pdfrwt>
<pdfrwt beam="2">0</pdfrwt>
<totfact> 0.21357539E+00</totfact>
</mgrwt>
</event>
<event>
 6      1 +5.6466785e-02 6.45042100e+02 7.81860800e-03 9.81612700e-02
        1 -1    0    0  502    0 +0.0000000000e+00 +0.0000000000e+00 +1.0402001423e+02 1.0402001423e+02 0.0000000000e+00 0.0000e+00 1.0000e+00
       13 -1    0    0    0    0 -0.0000000000e+00 -0.0000000000e+00 -1.0000000000e+03 1.0000000000e+03 0.0000000000e+00 0.0000e+00 1.0000e+00
  9000005  2    1    2  501    0 +1.3948753400e-04 -1.6542453737e-04 -8.9598012107e+02 1.1040197590e+03 6.4504205364e+02 0.0000e+00 0.0000e+00
       13  1    3    3    0    0 +1.5165651659e+02 -4.6884825212e+01 -9.2851117576e+02 9.4198242519e+02 0.0000000000e+00 0.0000e+00 1.0000e+00
        1  1    3    3  501    0 -1.5165637710e+02 +4.6884659787e+01 +3.2531054684e+01 1.6203733384e+02 0.0000000000e+00 0.0000e+00 1.0000e+00
       21  1    1    2  502  501 -1.3948753400e-04 +1.6542453737e-04 +1.3530868543e-04 2.5520675943e-04 0.0000000000e+00 0.0000e+00 1.0000e+00
<mgrwt>
<rscale>  1 0.64504205E+03</rscale>
<asrwt>0</asrwt>
<pdfrwt beam="1">  1        1 0.37825539E+00 0.64504205E+03</pdfrwt>
<pdfrwt beam="2">0</pdfrwt>
<totfact> 0.16718269E+00</totfact>
</mgrwt>
</event>
<event>
 6      1 +5.6466785e-02 6.48384400e+02 7.81860800e-03 9.80981500e-02
        1 -1    0    0  502    0 +0.0000000000e+00 +0.0000000000e+00 +1.2466233658e+02 1.2466233658e+02 0.0000000000e+00 0.0000e+00 1.0000e+00
       13 -1    0    0    0    0 -0.0000000000e+00 -0.0000000000e+00 -1.0000000000e+03 1.0000000000e+03 0.0000000000e+00 0.0000e+00 1.0000e+00
  9000005  2    1    2  501    0 -3.3243709263e+00 +4.5334901891e-01 -8.9474030783e+02 1.1049717404e+03 6.4837571798e+02 0.0000e+00 0.0000e+00
       13  1    3    3    0    0 -3.2116210436e+02 -5.4577939201e+01 -4.5651775855e+02 5.6083180420e+02 0.0000000000e+00 0.0000e+00 1.0000e+00
        1  1    3    3  501    0 +3.1783773344e+02 +5.5031288220e+01 -4.3822254928e+02 5.4413993621e+02 0.0000000000e+00 0.0000e+00 1.0000e+00
       21  1    1    2  502  501 +3.3243709263e+00 -4.5334901891e-01 +1.9402644415e+01 1.9690596174e+01 0.0000000000e+00 0.0000e+00 1.0000e+00
<mgrwt>
<rscale>  1 0.64838440E+03</rscale>
<asrwt>0</asrwt>
<pdfrwt beam="1">  1        1 0.45331854E+00 0.64838440E+03</pdfrwt>
<pdfrwt beam="2">0</pdfrwt>
<totfact> 0.76723424E-01</totfact>
</mgrwt>
</event>
<event>
 6      1 +5.6466785e-02 6.40231300e+02 7.81860800e-03 9.82528400e-02
        1 -1    0    0  502    0 +0.0000000000e+00 +0.0000000000e+00 +1.3750782090e+02 1.3750782090e+02 0.0000000000e+00 0.0000e+00 1.0000e+00
       13 -1    0    0    0    0 -0.0000000000e+00 -0.0000000000e+00 -1.0000000000e+03 1.0000000000e+03 0.0000000000e+00 0.0000e+00 1.0000e+00
  9000005  2    1    2  501    0 -7.3659476928e+01 +5.1763888510e+00 -8.4752494894e+02 1.0621650607e+03 6.3595877496e+02 0.0000e+00 0.0000e+00
       13  1    3    3    0    0 +2.5700616725e+02 +9.8976235081e+01 -2.4555321823e+02 3.6897811331e+02 0.0000000000e+00 0.0000e+00 1.0000e+00
        3  1    3    3  501    0 -3.3066564418e+02 -9.3799846230e+01 -6.0197173071e+02 6.9318694735e+02 0.0000000000e+00 0.0000e+00 1.0000e+00
       21  1    1    2  502  501 +7.3659476928e+01 -5.1763888510e+00 -1.4967230156e+01 7.5342760245e+01 0.0000000000e+00 0.0000e+00 1.0000e+00
<mgrwt>
<rscale>  1 0.64023127E+03</rscale>
<asrwt>0</asrwt>
<pdfrwt beam="1">  1        1 0.50002949E+00 0.64023127E+03</pdfrwt>
<pdfrwt beam="2">0</pdfrwt>
<totfact> 0.46324927E-01</totfact>
</mgrwt>
</event>
<event>
 6      1 +5.6466785e-02 5.82102300e+02 7.81860800e-03 9.94325000e-02
        1 -1    0    0  502    0 +0.0000000000e+00 +0.0000000000e+00 +8.4710843368e+01 8.4710843368e+01 0.0000000000e+00 0.0000e+00 1.0000e+00
       13 -1    0    0    0    0 -0.0000000000e+00 -0.0000000000e+00 -1.0000000000e+03 1.0000000000e+03 0.0000000000e+00 0.0000e+00 1.0000e+00
  9000005  2    1    2  501    0 -9.3210611141e-06 +1.3900456963e-05 -9.1528921674e+02 1.0847107810e+03 5.8210233472e+02 0.0000e+00 0.0000e+00
       13  1    3    3    0    0 -3.4424568447e+01 +2.8472950143e+02 -5.4997120613e+02 6.2026145090e+02 0.0000000000e+00 0.0000e+00 1.0000e+00
        1  1    3    3  501    0 +3.4424559126e+01 -2.8472948753e+02 -3.6531801060e+02 4.6444933008e+02 0.0000000000e+00 0.0000e+00 1.0000e+00
       21  1    1    2  502  501 +9.3210611125e-06 -1.3900456954e-05 +6.0105707365e-05 6.2392314764e-05 0.0000000000e+00 0.0000e+00 1.0000e+00
<mgrwt>
<rscale>  1 0.58210233E+03</rscale>
<asrwt>0</asrwt>
<pdfrwt beam="1">  1        1 0.30804008E+00 0.58210233E+03</pdfrwt>
<pdfrwt beam="2">0</pdfrwt>
<totfact> 0.34173841E+00</totfact>
</mgrwt>
</event>
<event>
 6      1 +5.6466785e-02 6.50247200e+02 7.81860800e-03 9.80631500e-02
        1 -1    0    0  502    0 +0.0000000000e+00 +0.0000000000e+00 +1.0570557570e+02 1.0570557570e+02 0.0000000000e+00 0.0000e+00 1.0000e+00
       13 -1    0    0    0    0 -0.0000000000e+00 -0.0000000000e+00 -1.0000000000e+03 1.0000000000e+03 0.0000000000e+00 0.0000e+00 1.0000e+00
  9000005  2    1    2  501    0 +4.4313689205e-05 +5.0503226475e-04 -8.9429422770e+02 1.1057050319e+03 6.5024722372e+02 0.0000e+00 0.0000e+00
       13  1    3    3    0    0 +2.2264370165e+00 +2.6192179458e+02 -1.1963090413e+02 2.8795752590e+02 0.0000000000e+00 0.0000e+00 1.0000e+00
        1  1    3    3  501    0 -2.2263927028e+00 -2.6192128955e+02 -7.7466332357e+02 8.1774750604e+02 0.0000000000e+00 0.0000e+00 1.0000e+00
       21  1    1    2  502  501 -4.4313689205e-05 -5.0503226475e-04 -1.9659978100e-04 5.4375800258e-04 0.0000000000e+00 0.0000e+00 1.0000e+00
<mgrwt>
<rscale>  1 0.65024722E+03</rscale>
<asrwt>0</asrwt>
<pdfrwt beam="1">  1        1 0.38438472E+00 0.65024722E+03</pdfrwt>
<pdfrwt beam="2">0</pdfrwt>
<totfact> 0.15693272E+00</totfact>
</mgrwt>
</event>
<event>
 6      1 +5.6466785e-02 6.52273200e+02 7.81860800e-03 9.80252300e-02
        1 -1    0    0  502    0 +0.0000000000e+00 +0.0000000000e+00 +1.0637423360e+02 1.0637423360e+02 0.0000000000e+00 0.0000e+00 1.0000e+00
       13 -1    0    0    0    0 -0.0000000000e+00 -0.0000000000e+00 -1.0000000000e+03 1.0000000000e+03 0.0000000000e+00 0.0000e+00 1.0000e+00
  9000005  2    1    2  501    0 -6.7607714324e-03 +7.7618167873e-03 -8.9363157938e+02 1.1063624122e+03 6.5227324599e+02 0.0000e+00 0.0000e+00
       13  1    3    3    0    0 -2.8085865398e+02 -1.3515103193e+02 -2.8396319955e+02 4.2164260179e+02 0.0000000000e+00 0.0000e+00 1.0000e+00
        3  1    3    3  501    0 +2.8085189321e+02 +1.3515879374e+02 -6.0966837983e+02 6.8471981044e+02 0.0000000000e+00 0.0000e+00 1.0000e+00
       21  1    1    2  502  501 +6.7607714324e-03 -7.7618167873e-03 +5.8129798343e-03 1.1821360529e-02 0.0000000000e+00 0.0000e+00 1.0000e+00
<mgrwt>
<rscale>  1 0.65227325E+03</rscale>
<asrwt>0</asrwt>
<pdfrwt beam="1">  1        1 0.38681621E+00 0.65227325E+03</pdfrwt>
<pdfrwt beam="2">0</pdfrwt>
<totfact> 0.15303563E+00</totfact>
</mgrwt>
</event>
<event>
 6      1 +5.6466785e-02 6.61876400e+02 7.81860800e-03 9.78474600e-02
        1 -1    0    0  502    0 +0.0000000000e+00 +0.0000000000e+00 +1.0952010606e+02 1.0952010606e+02 0.0000000000e+00 0.0000e+00 1.0000e+00
       13 -1    0    0    0    0 -0.0000000000e+00 -0.0000000000e+00 -1.0000000000e+03 1.0000000000e+03 0.0000000000e+00 0.0000e+00 1.0000e+00
  9000005  2    1    2  501    0 +6.7134976689e-07 +2.1568882289e-06 -8.9047989686e+02 1.1095201024e+03 6.6187643171e+02 0.0000e+00 0.0000e+00
       13  1    3    3    0    0 -2.7707058701e+02 -1.7101331193e+02 -5.4450386451e+02 6.3442739656e+02 0.0000000000e+00 0.0000e+00 1.0000e+00
        3  1    3    3  501    0 +2.7707058768e+02 +1.7101331408e+02 -3.4597603235e+02 4.7509270581e+02 0.0000000000e+00 0.0000e+00 1.0000e+00
       21  1    1    2  502  501 -6.7134977845e-07 -2.1568882365e-06 +2.9197703674e-06 3.6916034982e-06 0.0000000000e+00 0.0000e+00 1.0000e+00
<mgrwt>
<rscale>  1 0.66187643E+03</rscale>
<asrwt>0</asrwt>
<pdfrwt beam="1">  1        1 0.39825577E+00 0.66187643E+03</pdfrwt>
<pdfrwt beam="2">0</pdfrwt>
<totfact> 0.13589865E+00</totfact>
</mgrwt>
</event>
<event>
 6      1 +5.6466785e-02 6.17463900e+02 7.81860800e-03 9.86982200e-02
        1 -1    0    0  502    0 +0.0000000000e+00 +0.0000000000e+00 +9.5435652789e+01 9.5435652789e+01 0.0000000000e+00 0.0000e+00 1.0000e+00
       13 -1    0    0    0    0 -0.0000000000e+00 -0.0000000000e+00 -1.0000000000e+03 1.0000000000e+03 0.0000000000e+00 0.0000e+00 1.0000e+00
  9000005  2    1    2  501    0 -1.2996187682e-02 -1.1906362550e-01 -9.0465109285e+02 1.0952877682e+03 6.1746391071e+02 0.0000e+00 0.0000e+00
       13  1    3    3    0    0 -2.3777357887e+01 +4.8220831869e+01 -9.9157257994e+02 9.9302909960e+02 0.0000000000e+00 0.0000e+00 1.0000e+00
        3  1    3    3  501    0 +2.3764361699e+01 -4.8339895495e+01 +8.6921487093e+01 1.0225866859e+02 0.0000000000e+00 0.0000e+00 1.0000e+00
       21  1    1    2  502  501 +1.2996187682e-02 +1.1906362550e-01 +8.6745635944e-02 1.4788459408e-01 0.0000000000e+00 0.0000e+00 1.0000e+00
<mgrwt>
<rscale>  1 0.61746392E+03</rscale>
<asrwt>0</asrwt>
<pdfrwt beam="1">  1        1 0.34703947E+00 0.61746392E+03</pdfrwt>
<pdfrwt beam="2">0</pdfrwt>
<totfact> 0.23017204E+00</totfact>
</mgrwt>
</event>
<event>
 6      1 +5.6466785e-02 6.62568900e+02 7.81860800e-03 9.78347600e-02
        1 -1    0    0  502    0 +0.0000000000e+00 +0.0000000000e+00 +1.1132517930e+02 1.1132517930e+02 0.0000000000e+00 0.0000e+00 1.0000e+00
       13 -1    0    0    0    0 -0.0000000000e+00 -0.0000000000e+00 -1.0000000000e+03 1.0000000000e+03 0.0000000000e+00 0.0000e+00 1.0000e+00
  9000005  2    1    2  501    0 -3.3644338778e+00 -1.8163291460e+00 -8.8701893709e+02 1.1071585959e+03 6.6255787912e+02 0.0000e+00 0.0000e+00
       13  1    3    3    0    0 -1.3929141224e+02 +2.7622231965e+02 -6.4120181634e+02 7.1192740969e+02 0.0000000000e+00 0.0000e+00 1.0000e+00
        1  1    3    3  501    0 +1.3592697837e+02 -2.7803864880e+02 -2.4581712076e+02 3.9523118618e+02 0.0000000000e+00 0.0000e+00 1.0000e+00
       21  1    1    2  502  501 +3.3644338778e+00 +1.8163291460e+00 -1.6558836110e+00 4.1665834227e+00 0.0000000000e+00 0.0000e+00 -1.0000e+00
<mgrwt>
<rscale>  1 0.66256891E+03</rscale>
<asrwt>0</asrwt>
<pdfrwt beam="1">  1        1 0.40481969E+00 0.66256891E+03</pdfrwt>
<pdfrwt beam="2">0</pdfrwt>
<totfact> 0.12701760E+00</totfact>
</mgrwt>
</event>
<event>
 6      1 +5.6466785e-02 6.57646000e+02 7.81860800e-03 9.79253700e-02
        1 -1    0    0  502    0 +0.0000000000e+00 +0.0000000000e+00 +1.0813654546e+02 1.0813654546e+02 0.0000000000e+00 0.0000e+00 1.0000e+00
       13 -1    0    0    0    0 -0.0000000000e+00 -0.0000000000e+00 -1.0000000000e+03 1.0000000000e+03 0.0000000000e+00 0.0000e+00 1.0000e+00
  9000005  2    1    2  501    0 +4.8583975406e-03 +2.1993811896e-03 -8.9187477451e+02 1.1081240321e+03 6.5764599686e+02 0.0000e+00 0.0000e+00
       13  1    3    3    0    0 -2.0779260626e+02 +1.4874485843e+01 -8.7461296182e+02 8.9908111455e+02 0.0000000000e+00 0.0000e+00 1.0000e+00
        1  1    3    3  501    0 +2.0779746465e+02 -1.4872286462e+01 -1.7261812687e+01 2.0904291760e+02 0.0000000000e+00 0.0000e+00 1.0000e+00
       21  1    1    2  502  501 -4.8583975406e-03 -2.1993811896e-03 +1.1319969893e-02 1.2513313816e-02 0.0000000000e+00 0.0000e+00 -1.0000e+00
<mgrwt>
<rscale>  1 0.65764600E+03</rscale>
<asrwt>0</asrwt>
<pdfrwt beam="1">  1        1 0.39322463E+00 0.65764600E+03</pdfrwt>
<pdfrwt beam="2">0</pdfrwt>
<totfact> 0.14319880E+00</totfact>
</mgrwt>
</event>
<event>
 6      1 +5.6466785e-02 6.45029500e+02 7.81860800e-03 9.81615100e-02
        1 -1    0    0  502    0 +0.0000000000e+00 +0.0000000000e+00 +1.0402595905e+02 1.0402595905e+02 0.0000000000e+00 0.0000e+00 1.0000e+00
       13 -1    0    0    0    0 -0.0000000000e+00 -0.0000000000e+00 -1.0000000000e+03 1.0000000000e+03 0.0000000000e+00 0.0000e+00 1.0000e+00
  9000005  2    1    2  501    0 -1.6043356696e-03 -6.5951480543e-03 -8.9598298995e+02 1.1040147272e+03 6.4502945635e+02 0.0000e+00 0.0000e+00
       13  1    3    3    0    0 +1.2335682141e+02 +2.9615480462e+02 -3.9150431641e+02 5.0616223037e+02 0.0000000000e+00 0.0000e+00 1.0000e+00
        3  1    3    3  501    0 -1.2335842575e+02 -2.9616139976e+02 -5.0447867353e+02 5.9785249683e+02 0.0000000000e+00 0.0000e+00 1.0000e+00
       21  1    1    2  502  501 +1.6043356697e-03 +6.5951480543e-03 +8.9489926320e-03 1.1231844903e-02 0.0000000000e+00 0.0000e+00 1.0000e+00
<mgrwt>
<rscale>  1 0.64502946E+03</rscale>
<asrwt>0</asrwt>
<pdfrwt beam="1">  1        1 0.37827701E+00 0.64502946E+03</pdfrwt>
<pdfrwt beam="2">0</pdfrwt>
<totfact> 0.16714639E+00</totfact>
</mgrwt>
</event>
<event>
 6      1 +5.6466785e-02 6.40840000e+02 7.81860800e-03 9.82412100e-02
        1 -1    0    0  502    0 +0.0000000000e+00 +0.0000000000e+00 +1.0266920307e+02 1.0266920307e+02 0.0000000000e+00 0.0000e+00 1.0000e+00
       13 -1    0    0    0    0 -0.0000000000e+00 -0.0000000000e+00 -1.0000000000e+03 1.0000000000e+03 0.0000000000e+00 0.0000e+00 1.0000e+00
  9000005  2    1    2  501    0 -7.4541022988e-04 +1.1089859353e-04 -8.9732974109e+02 1.1026679059e+03 6.4083995381e+02 0.0000e+00 0.0000e+00
       13  1    3    3    0    0 -1.5247775740e+02 -2.0496265214e+02 -1.1586116577e+02 2.8050483955e+02 0.0000000000e+00 0.0000e+00 1.0000e+00
        1  1    3    3  501    0 +1.5247701199e+02 +2.0496276304e+02 -7.8146857532e+02 8.2216306632e+02 0.0000000000e+00 0.0000e+00 1.0000e+00
       21  1    1    2  502  501 +7.4541022988e-04 -1.1089859355e-04 -1.0558356257e-03 1.2971984341e-03 0.0000000000e+00 0.0000e+00 -1.0000e+00
<mgrwt>
<rscale>  1 0.64083995E+03</rscale>
<asrwt>0</asrwt>
<pdfrwt beam="1">  1        1 0.37334334E+00 0.64083995E+03</pdfrwt>
<pdfrwt beam="2">0</pdfrwt>
<totfact> 0.17585529E+00</totfact>
</mgrwt>
</event>
<event>
 6      1 +5.6466785e-02 6.37517800e+02 7.81860800e-03 9.83048700e-02
        1 -1    0    0  502    0 +0.0000000000e+00 +0.0000000000e+00 +1.0160740048e+02 1.0160740048e+02 0.0000000000e+00 0.0000e+00 1.0000e+00
       13 -1    0    0    0    0 -0.0000000000e+00 -0.0000000000e+00 -1.0000000000e+03 1.0000000000e+03 0.0000000000e+00 0.0000e+00 1.0000e+00
  9000005  2    1    2  501    0 -2.1510257767e-05 -4.9597966836e-06 -8.9839275385e+02 1.1016072446e+03 6.3751782808e+02 0.0000e+00 0.0000e+00
       13  1    3    3    0    0 +1.4677297877e+02 -6.9039623445e+01 -9.2335920715e+02 9.3749720124e+02 0.0000000000e+00 0.0000e+00 1.0000e+00
        1  1    3    3  501    0 -1.4677300028e+02 +6.9039618486e+01 +2.4966453297e+01 1.6411004334e+02 0.0000000000e+00 0.0000e+00 1.0000e+00
       21  1    1    2  502  501 +2.1510257778e-05 +4.9597966846e-06 +1.5433177712e-04 1.5590249582e-04 0.0000000000e+00 0.0000e+00 -1.0000e+00
<mgrwt>
<rscale>  1 0.63751783E+03</rscale>
<asrwt>0</asrwt>
<pdfrwt beam="1">  1        1 0.36948224E+00 0.63751783E+03</pdfrwt>
<pdfrwt beam="2">0</pdfrwt>
<totfact> 0.18297287E+00</totfact>
</mgrwt>
</event>
<event>
 6      1 +5.6466785e-02 6.51063700e+02 7.81860800e-03 9.80478500e-02
        1 -1    0    0  502    0 +0.0000000000e+00 +0.0000000000e+00 +1.0674382650e+02 1.0674382650e+02 0.0000000000e+00 0.0000e+00 1.0000e+00
       13 -1    0    0    0    0 -0.0000000000e+00 -0.0000000000e+00 -1.0000000000e+03 1.0000000000e+03 0.0000000000e+00 0.0000e+00 1.0000e+00
  9000005  2    1    2  501    0 +8.8340332022e-01 +4.3630790849e-01 -8.9366527875e+02 1.1056769933e+03 6.5106298639e+02 0.0000e+00 0.0000e+00
       13  1    3    3    0    0 -2.0618324317e+02 -1.6802833324e+02 -7.6387336081e+02 8.0885571141e+02 0.0000000000e+00 0.0000e+00 1.0000e+00
        1  1    3    3  501    0 +2.0706664649e+02 +1.6846464115e+02 -1.2979191794e+02 2.9682128187e+02 0.0000000000e+00 0.0000e+00 1.0000e+00
       21  1    1    2  502  501 -8.8340332022e-01 -4.3630790849e-01 +4.0910525453e-01 1.0668332234e+00 0.0000000000e+00 0.0000e+00 -1.0000e+00
<mgrwt>
<rscale>  1 0.65106373E+03</rscale>
<asrwt>0</asrwt>
<pdfrwt beam="1">  1        1 0.38816019E+00 0.65106373E+03</pdfrwt>
<pdfrwt beam="2">0</pdfrwt>
<totfact> 0.15098636E+00</totfact>
</mgrwt>
</event>
<event>
 6      1 +5.6466785e-02 6.43940200e+02 7.81860800e-03 9.81821700e-02
        1 -1    0    0  502    0 +0.0000000000e+00 +0.0000000000e+00 +1.0366685287e+02 1.0366685287e+02 0.0000000000e+00 0.0000e+00 1.0000e+00
       13 -1    0    0    0    0 -0.0000000000e+00 -0.0000000000e+00 -1.0000000000e+03 1.0000000000e+03 0.0000000000e+00 0.0000e+00 1.0000e+00
  9000005  2    1    2  501    0 -4.9071032578e-05 +1.0599744431e-03 -8.9633511864e+02 1.1036646139e+03 6.4394016427e+02 0.0000e+00 0.0000e+00
       13  1    3    3    0    0 +2.0423463078e+02 -1.8931960841e+02 -7.2511744064e+02 7.7675543208e+02 0.0000000000e+00 0.0000e+00 1.0000e+00
        1  1    3    3  501    0 -2.0423467985e+02 +1.8932066838e+02 -1.7121767800e+02 3.2690918186e+02 0.0000000000e+00 0.0000e+00 1.0000e+00
       21  1    1    2  502  501 +4.9071032560e-05 -1.0599744431e-03 +1.9715114255e-03 2.2389307911e-03 0.0000000000e+00 0.0000e+00 1.0000e+00
<mgrwt>
<rscale>  1 0.64394016E+03</rscale>
<asrwt>0</asrwt>
<pdfrwt beam="1">  1        1 0.37697117E+00 0.64394016E+03</pdfrwt>
<pdfrwt beam="2">0</pdfrwt>
<totfact> 0.16940994E+00</totfact>
</mgrwt>
</event>
<event>
 6      1 +5.6466785e-02 6.46874000e+02 7.81860800e-03 9.81266300e-02
        1 -1    0    0  502    0 +0.0000000000e+00 +0.0000000000e+00 +1.0593394451e+02 1.0593394451e+02 0.0000000000e+00 0.0000e+00 1.0000e+00
       13 -1    0    0    0    0 -0.0000000000e+00 -0.0000000000e+00 -1.0000000000e+03 1.0000000000e+03 0.0000000000e+00 0.0000e+00 1.0000e+00
  9000005  2    1    2  501    0 +6.0545368019e-01 +4.1739836334e-01 -8.9527465052e+02 1.1045192016e+03 6.4687357810e+02 0.0000e+00 0.0000e+00
       13  1    3    3    0    0 -3.1497274916e+02 -7.0770451934e+01 -4.6974081186e+02 5.6997606959e+02 0.0000000000e+00 0.0000e+00 1.0000e+00
        3  1    3    3  501    0 +3.1557820284e+02 +7.1187850297e+01 -4.2553383866e+02 5.3454313201e+02 0.0000000000e+00 0.0000e+00 1.0000e+00
       21  1    1    2  502  501 -6.0545368019e-01 -4.1739836334e-01 +1.2085950274e+00 1.4147429070e+00 0.0000000000e+00 0.0000e+00 1.0000e+00
<mgrwt>
<rscale>  1 0.64687400E+03</rscale>
<asrwt>0</asrwt>
<pdfrwt beam="1">  1        1 0.38521516E+00 0.64687400E+03</pdfrwt>
<pdfrwt beam="2">0</pdfrwt>
<totfact> 0.15570838E+00</totfact>
</mgrwt>
</event>
<event>
 6      1 +5.6466785e-02 6.56861600e+02 7.81860800e-03 9.79398800e-02
        1 -1    0    0  502    0 +0.0000000000e+00 +0.0000000000e+00 +1.0786696302e+02 1.0786696302e+02 0.0000000000e+00 0.0000e+00 1.0000e+00
       13 -1    0    0    0    0 -0.0000000000e+00 -0.0000000000e+00 -1.0000000000e+03 1.0000000000e+03 0.0000000000e+00 0.0000e+00 1.0000e+00
  9000005  2    1    2  501    0 +8.3868010847e-07 -2.4693717450e-05 -8.9213320599e+02 1.1078667922e+03 6.5686160799e+02 0.0000e+00 0.0000e+00
       13  1    3    3    0    0 +1.5057263022e+02 -2.1118784012e+02 -1.0624843443e+02 2.8028762121e+02 0.0000000000e+00 0.0000e+00 1.0000e+00
        1  1    3    3  501    0 -1.5057262938e+02 +2.1118781543e+02 -7.8588477156e+02 8.2757917100e+02 0.0000000000e+00 0.0000e+00 1.0000e+00
       21  1    1    2  502  501 -8.3868010108e-07 +2.4693717425e-05 +1.6900732230e-04 1.7080385843e-04 0.0000000000e+00 0.0000e+00 1.0000e+00
<mgrwt>
<rscale>  1 0.65686161E+03</rscale>
<asrwt>0</asrwt>
<pdfrwt beam="1">  1        1 0.39224433E+00 0.65686161E+03</pdfrwt>
<pdfrwt beam="2">0</pdfrwt>
<totfact> 0.14466268E+00</totfact>
</mgrwt>
</event>
<event>
 6      1 +5.6466785e-02 6.48885300e+02 7.81860800e-03 9.80887300e-02
        1 -1    0    0  502    0 +0.0000000000e+00 +0.0000000000e+00 +1.0539011733e+02 1.0539011733e+02 0.0000000000e+00 0.0000e+00 1.0000e+00
       13 -1    0    0    0    0 -0.0000000000e+00 -0.0000000000e+00 -1.0000000000e+03 1.0000000000e+03 0.0000000000e+00 0.0000e+00 1.0000e+00
  9000005  2    1    2  501    0 -1.0072920944e-04 +8.1122620210e-03 -8.9473681256e+02 1.1052629284e+03 6.4888533435e+02 0.0000e+00 0.0000e+00
       13  1    3    3    0    0 -1.7251589130e+02 -3.6482059012e+01 -9.1125465691e+02 9.2815824250e+02 0.0000000000e+00 0.0000e+00 1.0000e+00
        3  1    3    3  501    0 +1.7251579057e+02 +3.6490171274e+01 +1.6517844344e+01 1.7710468593e+02 0.0000000000e+00 0.0000e+00 1.0000e+00
       21  1    1    2  502  501 +1.0072920946e-04 -8.1122620210e-03 +1.2692989056e-01 1.2718889912e-01 0.0000000000e+00 0.0000e+00 1.0000e+00
<mgrwt>
<rscale>  1 0.64888533E+03</rscale>
<asrwt>0</asrwt>
<pdfrwt beam="1">  1        1 0.38323760E+00 0.64888533E+03</pdfrwt>
<pdfrwt beam="2">0</pdfrwt>
<totfact> 0.15881574E+00</totfact>
</mgrwt>
</event>
<event>
 6      1 +5.6466785e-02 6.44004300e+02 7.81860800e-03 9.81809500e-02
        1 -1    0    0  502    0 +0.0000000000e+00 +0.0000000000e+00 +1.0688559851e+02 1.0688559851e+02 0.0000000000e+00 0.0000e+00 1.0000e+00
       13 -1    0    0    0    0 -0.0000000000e+00 -0.0000000000e+00 -1.0000000000e+03 1.0000000000e+03 0.0000000000e+00 0.0000e+00 1.0000e+00
  9000005  2    1    2  501    0 -5.7323463446e+00 +1.7455546342e+00 -8.9286814760e+02 1.1008883161e+03 6.4397643491e+02 0.0000e+00 0.0000e+00
       13  1    3    3    0    0 +2.3177260734e+02 +1.7164833026e+02 -2.0571814068e+02 3.5426211228e+02 0.0000000000e+00 0.0000e+00 1.0000e+00
        1  1    3    3  501    0 -2.3750495368e+02 -1.6990277562e+02 -6.8715000692e+02 7.4662620380e+02 0.0000000000e+00 0.0000e+00 1.0000e+00
       21  1    1    2  502  501 +5.7323463446e+00 -1.7455546342e+00 -2.4625389080e-01 5.9972824325e+00 0.0000000000e+00 0.0000e+00 1.0000e+00
<mgrwt>
<rscale>  1 0.64400431E+03</rscale>
<asrwt>0</asrwt>
<pdfrwt beam="1">  1        1 0.38867572E+00 0.64400431E+03</pdfrwt>
<pdfrwt beam="2">0</pdfrwt>
<totfact> 0.15039245E+00</totfact>
</mgrwt>
</event>
<event>
 6      1 +5.6466785e-02 5.60006400e+02 7.81860800e-03 9.99204000e-02
        1 -1    0    0  502    0 +0.0000000000e+00 +0.0000000000e+00 +7.8401785190e+01 7.8401785190e+01 0.0000000000e+00 0.0000e+00 1.0000e+00
       13 -1    0    0    0    0 -0.0000000000e+00 -0.0000000000e+00 -1.0000000000e+03 1.0000000000e+03 0.0000000000e+00 0.0000e+00 1.0000e+00
  9000005  2    1    2  501    0 +1.8975250953e-05 +8.6043147292e-06 -9.2159819011e+02 1.0784017529e+03 5.6000635406e+02 0.0000e+00 0.0000e+00
       13  1    3    3    0    0 +7.6748934263e+01 -1.8175666590e+02 -7.8191470154e+01 2.1222580078e+02 0.0000000000e+00 0.0000e+00 1.0000e+00
        3  1    3    3  501    0 -7.6748915288e+01 +1.8175667451e+02 -8.4340671996e+02 8.6617595210e+02 0.0000000000e+00 0.0000e+00 1.0000e+00
       21  1    1    2  502  501 -1.8975250954e-05 -8.6043147450e-06 -2.4695795638e-05 3.2310628331e-05 0.0000000000e+00 0.0000e+00 1.0000e+00
<mgrwt>
<rscale>  1 0.56000635E+03</rscale>
<asrwt>0</asrwt>
<pdfrwt beam="1">  1        1 0.28509800E+00 0.56000635E+03</pdfrwt>
<pdfrwt beam="2">0</pdfrwt>
<totfact> 0.43087483E+00</totfact>
</mgrwt>
</event>
<event>
 6      1 +5.6466785e-02 6.43058100e+02 7.81860800e-03 9.81989300e-02
        1 -1    0    0  502    0 +0.0000000000e+00 +0.0000000000e+00 +1.1198717543e+02 1.1198717543e+02 0.0000000000e+00 0.0000e+00 1.0000e+00
       13 -1    0    0    0    0 -0.0000000000e+00 -0.0000000000e+00 -1.0000000000e+03 1.0000000000e+03 0.0000000000e+00 0.0000e+00 1.0000e+00
  9000005  2    1    2  501    0 -1.9247144697e+00 +2.0151242552e+00 -8.9636948383e+02 1.1031781457e+03 6.4305210072e+02 0.0000e+00 0.0000e+00
       13  1    3    3    0    0 -1.9987691403e+02 -2.1372395860e+02 -2.1982643034e+02 3.6599504193e+02 0.0000000000e+00 0.0000e+00 1.0000e+00
        3  1    3    3  501    0 +1.9795219956e+02 +2.1573908285e+02 -6.7654305350e+02 7.3718310372e+02 0.0000000000e+00 0.0000e+00 1.0000e+00
       21  1    1    2  502  501 +1.9247144697e+00 -2.0151242552e+00 +8.3566592670e+00 8.8090297797e+00 0.0000000000e+00 0.0000e+00 -1.0000e+00
<mgrwt>
<rscale>  1 0.64305814E+03</rscale>
<asrwt>0</asrwt>
<pdfrwt beam="1">  1        1 0.40722695E+00 0.64305814E+03</pdfrwt>
<pdfrwt beam="2">0</pdfrwt>
<totfact> 0.12437192E+00</totfact>
</mgrwt>
</event>
<event>
 6      1 +5.6466785e-02 6.46058600e+02 7.81860800e-03 9.81420300e-02
        1 -1    0    0  502    0 +0.0000000000e+00 +0.0000000000e+00 +1.0460833940e+02 1.0460833940e+02 0.0000000000e+00 0.0000e+00 1.0000e+00
       13 -1    0    0    0    0 -0.0000000000e+00 -0.0000000000e+00 -1.0000000000e+03 1.0000000000e+03 0.0000000000e+00 0.0000e+00 1.0000e+00
  9000005  2    1    2  501    0 -8.5151361823e-02 +1.5760621204e-01 -8.9561762075e+02 1.1043199846e+03 6.4605856840e+02 0.0000e+00 0.0000e+00
       13  1    3    3    0    0 -1.5222627552e+01 -3.2149404480e+02 -4.0220817565e+02 5.1513257109e+02 0.0000000000e+00 0.0000e+00 1.0000e+00
        1  1    3    3  501    0 +1.5137476190e+01 +3.2165165101e+02 -4.9340944510e+02 5.8918741356e+02 0.0000000000e+00 0.0000e+00 1.0000e+00
       21  1    1    2  502  501 +8.5151361823e-02 -1.5760621204e-01 +2.2596015423e-01 2.8835475338e-01 0.0000000000e+00 0.0000e+00 1.0000e+00
<mgrwt>
<rscale>  1 0.64605859E+03</rscale>
<asrwt>0</asrwt>
<pdfrwt beam="1">  1        1 0.38039476E+00 0.64605859E+03</pdfrwt>
<pdfrwt beam="2">0</pdfrwt>
<totfact> 0.16355882E+00</totfact>
</mgrwt>
</event>
<event>
 6      1 +5.6466785e-02 6.21737400e+02 7.81860800e-03 9.86130700e-02
        1 -1    0    0  502    0 +0.0000000000e+00 +0.0000000000e+00 +9.6837203709e+01 9.6837203709e+01 0.0000000000e+00 0.0000e+00 1.0000e+00
       13 -1    0    0    0    0 -0.0000000000e+00 -0.0000000000e+00 -1.0000000000e+03 1.0000000000e+03 0.0000000000e+00 0.0000e+00 1.0000e+00
  9000005  2    1    2  501    0 +1.9422335814e-03 +1.1659633079e-01 -9.0334164188e+02 1.0966236991e+03 6.2173740587e+02 0.0000e+00 0.0000e+00
       13  1    3    3    0    0 -1.5690801980e+02 -2.0434660178e+02 -1.4490721084e+02 2.9559391079e+02 0.0000000000e+00 0.0000e+00 1.0000e+00
        1  1    3    3  501    0 +1.5690996204e+02 +2.0446319811e+02 -7.5843443104e+02 8.0102978831e+02 0.0000000000e+00 0.0000e+00 1.0000e+00
       21  1    1    2  502  501 -1.9422335814e-03 -1.1659633079e-01 +1.7884558931e-01 2.1350461691e-01 0.0000000000e+00 0.0000e+00 1.0000e+00
<mgrwt>
<rscale>  1 0.62173742E+03</rscale>
<asrwt>0</asrwt>
<pdfrwt beam="1">  1        1 0.35213603E+00 0.62173742E+03</pdfrwt>
<pdfrwt beam="2">0</pdfrwt>
<totfact> 0.21853277E+00</totfact>
</mgrwt>
</event>
<event>
 6      1 +5.6466785e-02 6.98583100e+02 7.81860800e-03 9.71965800e-02
        1 -1    0    0  502    0 +0.0000000000e+00 +0.0000000000e+00 +1.3287024352e+02 1.3287024352e+02 0.0000000000e+00 0.0000e+00 1.0000e+00
       13 -1    0    0    0    0 -0.0000000000e+00 -0.0000000000e+00 -1.0000000000e+03 1.0000000000e+03 0.0000000000e+00 0.0000e+00 1.0000e+00
  9000005  2    1    2  501    0 -1.2286886120e-01 -1.7666752572e-01 -8.7799422893e+02 1.1220036401e+03 6.9858303447e+02 0.0000e+00 0.0000e+00
       13  1    3    3    0    0 +2.2314210522e+02 -2.5254208611e+02 -5.8668433340e+02 6.7658584927e+02 0.0000000000e+00 0.0000e+00 1.0000e+00
        3  1    3    3  501    0 -2.2326497408e+02 +2.5236541859e+02 -2.9130989554e+02 4.4541779083e+02 0.0000000000e+00 0.0000e+00 1.0000e+00
       21  1    1    2  502  501 +1.2286886120e-01 +1.7666752572e-01 +1.0864472455e+01 1.0866603421e+01 0.0000000000e+00 0.0000e+00 -1.0000e+00
<mgrwt>
<rscale>  1 0.69858307E+03</rscale>
<asrwt>0</asrwt>
<pdfrwt beam="1">  1        1 0.48316554E+00 0.69858307E+03</pdfrwt>
<pdfrwt beam="2">0</pdfrwt>
<totfact> 0.55053320E-01</totfact>
</mgrwt>
</event>
<event>
 6      1 +5.6466785e-02 6.06358000e+02 7.81860800e-03 9.89230200e-02
        1 -1    0    0  502    0 +0.0000000000e+00 +0.0000000000e+00 +9.2003252081e+01 9.2003252081e+01 0.0000000000e+00 0.0000e+00 1.0000e+00
       13 -1    0    0    0    0 -0.0000000000e+00 -0.0000000000e+00 -1.0000000000e+03 1.0000000000e+03 0.0000000000e+00 0.0000e+00 1.0000e+00
  9000005  2    1    2  501    0 -7.5502854316e-03 -6.2930316982e-03 -9.0808218165e+02 1.0919172548e+03 6.0635801523e+02 0.0000e+00 0.0000e+00
       13  1    3    3    0    0 +1.4910361075e+02 +2.2518614522e+02 -7.0208711724e+02 7.5224132227e+02 0.0000000000e+00 0.0000e+00 1.0000e+00
        1  1    3    3  501    0 -1.4911116103e+02 -2.2519243825e+02 -2.0599506441e+02 3.3967593254e+02 0.0000000000e+00 0.0000e+00 1.0000e+00
       21  1    1    2  502  501 +7.5502854316e-03 +6.2930316981e-03 +8.5433727905e-02 8.5997272758e-02 0.0000000000e+00 0.0000e+00 -1.0000e+00
<mgrwt>
<rscale>  1 0.60635802E+03</rscale>
<asrwt>0</asrwt>
<pdfrwt beam="1">  1        1 0.33455799E+00 0.60635802E+03</pdfrwt>
<pdfrwt beam="2">0</pdfrwt>
<totfact> 0.26129714E+00</totfact>
</mgrwt>
</event>
<event>
 6      1 +5.6466785e-02 6.42736200e+02 7.81860800e-03 9.82050500e-02
        1 -1    0    0  502    0 +0.0000000000e+00 +0.0000000000e+00 +1.0327745803e+02 1.0327745803e+02 0.0000000000e+00 0.0000e+00 1.0000e+00
       13 -1    0    0    0    0 -0.0000000000e+00 -0.0000000000e+00 -1.0000000000e+03 1.0000000000e+03 0.0000000000e+00 0.0000e+00 1.0000e+00
  9000005  2    1    2  501    0 +2.7786786632e-06 +4.3836114401e-06 -8.9672253983e+02 1.1032774524e+03 6.4273620061e+02 0.0000e+00 0.0000e+00
       13  1    3    3    0    0 -2.2562852922e+02 -1.7111331018e+02 -1.8753048966e+02 3.3964051977e+02 0.0000000000e+00 0.0000e+00 1.0000e+00
        3  1    3    3  501    0 +2.2562853200e+02 +1.7111331457e+02 -7.0919205017e+02 7.6363693265e+02 0.0000000000e+00 0.0000e+00 1.0000e+00
       21  1    1    2  502  501 -2.7786786639e-06 -4.3836114513e-06 -2.1422118141e-06 5.6148175330e-06 0.0000000000e+00 0.0000e+00 -1.0000e+00
<mgrwt>
<rscale>  1 0.64273620E+03</rscale>
<asrwt>0</asrwt>
<pdfrwt beam="1">  1        1 0.37555518E+00 0.64273620E+03</pdfrwt>
<pdfrwt beam="2">0</pdfrwt>
<totfact> 0.17189813E+00</totfact>
</mgrwt>
</event>
<event>
 6      1 +5.6466785e-02 6.55617400e+02 7.81860800e-03 9.79629500e-02
        1 -1    0    0  502    0 +0.0000000000e+00 +0.0000000000e+00 +1.0748095002e+02 1.0748095002e+02 0.0000000000e+00 0.0000e+00 1.0000e+00
       13 -1    0    0    0    0 -0.0000000000e+00 -0.0000000000e+00 -1.0000000000e+03 1.0000000000e+03 0.0000000000e+00 0.0000e+00 1.0000e+00
  9000005  2    1    2  501    0 +3.2107039175e-04 +2.3558987735e-04 -8.9254145606e+02 1.1074585404e+03 6.5561739447e+02 0.0000e+00 0.0000e+00
       13  1    3    3    0    0 -2.6745021550e+02 -1.6965802140e+00 -1.2610013496e+02 2.9569196843e+02 0.0000000000e+00 0.0000e+00 1.0000e+00
        1  1    3    3  501    0 +2.6745053657e+02 +1.6968158039e+00 -7.6644132110e+02 8.1176657198e+02 0.0000000000e+00 0.0000e+00 1.0000e+00
       21  1    1    2  502  501 -3.2107039175e-04 -2.3558987735e-04 +2.2406074605e-02 2.2409613294e-02 0.0000000000e+00 0.0000e+00 -1.0000e+00
<mgrwt>
<rscale>  1 0.65561739E+03</rscale>
<asrwt>0</asrwt>
<pdfrwt beam="1">  1        1 0.39084064E+00 0.65561739E+03</pdfrwt>
<pdfrwt beam="2">0</pdfrwt>
<totfact> 0.14678681E+00</totfact>
</mgrwt>
</event>
<event>
 6      1 +5.6466785e-02 6.45369000e+02 7.81860800e-03 9.81550800e-02
        1 -1    0    0  502    0 +0.0000000000e+00 +0.0000000000e+00 +1.0412581455e+02 1.0412581455e+02 0.0000000000e+00 0.0000e+00 1.0000e+00
       13 -1    0    0    0    0 -0.0000000000e+00 -0.0000000000e+00 -1.0000000000e+03 1.0000000000e+03 0.0000000000e+00 0.0000e+00 1.0000e+00
  9000005  2    1    2  501    0 -3.3997623117e-04 -3.9526651784e-04 -8.9587457909e+02 1.1041251613e+03 6.4536897221e+02 0.0000e+00 0.0000e+00
       13  1    3    3    0    0 -4.2371431692e+01 -2.6615193547e+02 -1.4432573500e+02 3.0571573195e+02 0.0000000000e+00 0.0000e+00 1.0000e+00
        1  1    3    3  501    0 +4.2371091716e+01 +2.6615154021e+02 -7.5154884409e+02 7.9840942932e+02 0.0000000000e+00 0.0000e+00 1.0000e+00
       21  1    1    2  502  501 +3.3997623117e-04 +3.9526651788e-04 +3.9363920009e-04 6.5327733602e-04 0.0000000000e+00 0.0000e+00 -1.0000e+00
<mgrwt>
<rscale>  1 0.64536897E+03</rscale>
<asrwt>0</asrwt>
<pdfrwt beam="1">  1        1 0.37864012E+00 0.64536897E+03</pdfrwt>
<pdfrwt beam="2">0</pdfrwt>
<totfact> 0.16652100E+00</totfact>
</mgrwt>
</event>
<event>
 6      1 +5.6466785e-02 6.28472500e+02 7.81860800e-03 9.84803400e-02
        1 -1    0    0  502    0 +0.0000000000e+00 +0.0000000000e+00 +9.8754243113e+01 9.8754243113e+01 0.0000000000e+00 0.0000e+00 1.0000e+00
       13 -1    0    0    0    0 -0.0000000000e+00 -0.0000000000e+00 -1.0000000000e+03 1.0000000000e+03 0.0000000000e+00 0.0000e+00 1.0000e+00
  9000005  2    1    2  501    0 +9.0241706091e-04 -1.7639512805e-03 -9.0125547440e+02 1.0987443257e+03 6.2847248392e+02 0.0000e+00 0.0000e+00
       13  1    3    3    0    0 -5.9240202027e+01 +3.0860050917e+02 -4.4996722824e+02 5.4882982999e+02 0.0000000000e+00 0.0000e+00 1.0000e+00
        3  1    3    3  501    0 +5.9241104444e+01 -3.0860227312e+02 -4.5128824616e+02 5.4991449567e+02 0.0000000000e+00 0.0000e+00 1.0000e+00
       21  1    1    2  502  501 -9.0241706091e-04 +1.7639512805e-03 +9.7175085431e-03 9.9174519387e-03 0.0000000000e+00 0.0000e+00 -1.0000e+00
<mgrwt>
<rscale>  1 0.62847248E+03</rscale>
<asrwt>0</asrwt>
<pdfrwt beam="1">  1        1 0.35910710E+00 0.62847248E+03</pdfrwt>
<pdfrwt beam="2">0</pdfrwt>
<totfact> 0.20349502E+00</totfact>
</mgrwt>
</event>
<event>
 6      1 +5.6466785e-02 6.23264100e+02 7.81860800e-03 9.85828200e-02
        1 -1    0    0  502    0 +0.0000000000e+00 +0.0000000000e+00 +9.7251936538e+01 9.7251936538e+01 0.0000000000e+00 0.0000e+00 1.0000e+00
       13 -1    0    0    0    0 -0.0000000000e+00 -0.0000000000e+00 -1.0000000000e+03 1.0000000000e+03 0.0000000000e+00 0.0000e+00 1.0000e+00
  9000005  2    1    2  501    0 +3.1670317499e-03 +1.8460006859e-03 -9.0288544980e+02 1.0971145013e+03 6.2326406401e+02 0.0000e+00 0.0000e+00
       13  1    3    3    0    0 -1.8238983361e+01 +4.7972764038e+01 -9.9250970957e+02 9.9383578633e+02 0.0000000000e+00 0.0000e+00 1.0000e+00
        3  1    3    3  501    0 +1.8242150393e+01 -4.7970918037e+01 +8.9624259762e+01 1.0327871497e+02 0.0000000000e+00 0.0000e+00 1.0000e+00
       21  1    1    2  502  501 -3.1670317499e-03 -1.8460006859e-03 +1.3738634226e-01 1.3743523874e-01 0.0000000000e+00 0.0000e+00 1.0000e+00
<mgrwt>
<rscale>  1 0.62326406E+03</rscale>
<asrwt>0</asrwt>
<pdfrwt beam="1">  1        1 0.35364415E+00 0.62326406E+03</pdfrwt>
<pdfrwt beam="2">0</pdfrwt>
<totfact> 0.21518876E+00</totfact>
</mgrwt>
</event>
<event>
 6      1 +5.6466785e-02 6.36370000e+02 7.81860800e-03 9.83269600e-02
        1 -1    0    0  502    0 +0.0000000000e+00 +0.0000000000e+00 +1.0124170842e+02 1.0124170842e+02 0.0000000000e+00 0.0000e+00 1.0000e+00
       13 -1    0    0    0    0 -0.0000000000e+00 -0.0000000000e+00 -1.0000000000e+03 1.0000000000e+03 0.0000000000e+00 0.0000e+00 1.0000e+00
  9000005  2    1    2  501    0 -8.4486896412e-07 -3.4994511253e-06 -8.9875829187e+02 1.1012417048e+03 6.3637003796e+02 0.0000e+00 0.0000e+00
       13  1    3    3    0    0 +1.1152949309e+02 +4.9061467304e+01 +5.9271229485e+01 1.3549514400e+02 0.0000000000e+00 0.0000e+00 1.0000e+00
        1  1    3    3  501    0 -1.1152949393e+02 -4.9061470803e+01 -9.5802952136e+02 9.6574656081e+02 0.0000000000e+00 0.0000e+00 1.0000e+00
       21  1    1    2  502  501 +8.4486897228e-07 +3.4994511210e-06 +2.9588865294e-07 3.6121339709e-06 0.0000000000e+00 0.0000e+00 -1.0000e+00
<mgrwt>
<rscale>  1 0.63637004E+03</rscale>
<asrwt>0</asrwt>
<pdfrwt beam="1">  1        1 0.36815244E+00 0.63637004E+03</pdfrwt>
<pdfrwt beam="2">0</pdfrwt>
<totfact> 0.18548747E+00</totfact>
</mgrwt>
</event>
<event>
 6      1 +5.6466785e-02 6.48606700e+02 7.81860800e-03 9.80939700e-02
        1 -1    0    0  502    0 +0.0000000000e+00 +0.0000000000e+00 +1.0539298201e+02 1.0539298201e+02 0.0000000000e+00 0.0000e+00 1.0000e+00
       13 -1    0    0    0    0 -0.0000000000e+00 -0.0000000000e+00 -1.0000000000e+03 1.0000000000e+03 0.0000000000e+00 0.0000e+00 1.0000e+00
  9000005  2    1    2  501    0 +1.1125916962e-02 +8.6954856790e-03 -8.9482708953e+02 1.1051724579e+03 6.4860669233e+02 0.0000e+00 0.0000e+00
       13  1    3    3    0    0 +7.0152142717e+01 -2.7742992757e+02 -1.8741689904e+02 3.4207277279e+02 0.0000000000e+00 0.0000e+00 1.0000e+00
        3  1    3    3  501    0 -7.0141016800e+01 +2.7743862305e+02 -7.0741019050e+02 7.6309968511e+02 0.0000000000e+00 0.0000e+00 1.0000e+00
       21  1    1    2  502  501 -1.1125916962e-02 -8.6954856790e-03 +2.2007154505e-01 2.2052410852e-01 0.0000000000e+00 0.0000e+00 -1.0000e+00
<mgrwt>
<rscale>  1 0.64860669E+03</rscale>
<asrwt>0</asrwt>
<pdfrwt beam="1">  1        1 0.38324802E+00 0.64860669E+03</pdfrwt>
<pdfrwt beam="2">0</pdfrwt>
<totfact> 0.15880707E+00</totfact>
</mgrwt>
</event>
<event>
 6      1 +5.6466785e-02 6.51999100e+02 7.81860800e-03 9.80303500e-02
        3 -1    0    0  502    0 +0.0000000000e+00 +0.0000000000e+00 +1.0685658560e+02 1.0685658560e+02 0.0000000000e+00 0.0000e+00 1.0000e+00
       13 -1    0    0    0    0 -0.0000000000e+00 -0.0000000000e+00 -1.0000000000e+03 1.0000000000e+03 0.0000000000e+00 0.0000e+00 1.0000e+00
  9000005  2    1    2  501    0 -1.5281183700e-01 +7.0008720980e-03 -8.9371313744e+02 1.1062666832e+03 6.5199906364e+02 0.0000e+00 0.0000e+00
       13  1    3    3    0    0 -2.0731832304e+02 -1.4913047126e+02 -7.9084090059e+02 8.3105361715e+02 0.0000000000e+00 0.0000e+00 1.0000e+00
        3  1    3    3  501    0 +2.0716551120e+02 +1.4913747213e+02 -1.0287223685e+02 2.7521306608e+02 0.0000000000e+00 0.0000e+00 1.0000e+00
       21  1    1    2  502  501 +1.5281183700e-01 -7.0008720980e-03 +5.6972303856e-01 5.8990237362e-01 0.0000000000e+00 0.0000e+00 1.0000e+00
<mgrwt>
<rscale>  1 0.65199908E+03</rscale>
<asrwt>0</asrwt>
<pdfrwt beam="1">  1        3 0.38857022E+00 0.65199908E+03</pdfrwt>
<pdfrwt beam="2">0</pdfrwt>
<totfact> 0.67996507E-02</totfact>
</mgrwt>
</event>
<event>
 6      1 +5.6466785e-02 6.52531600e+02 7.81860800e-03 9.80204000e-02
        1 -1    0    0  502    0 +0.0000000000e+00 +0.0000000000e+00 +1.0644971896e+02 1.0644971896e+02 0.0000000000e+00 0.0000e+00 1.0000e+00
       13 -1    0    0    0    0 -0.0000000000e+00 -0.0000000000e+00 -1.0000000000e+03 1.0000000000e+03 0.0000000000e+00 0.0000e+00 1.0000e+00
  9000005  2    1    2  501    0 +3.8800418906e-05 -3.1802261447e-06 -8.9355061555e+02 1.1064493822e+03 6.5253163357e+02 0.0000e+00 0.0000e+00
       13  1    3    3    0    0 -1.3243789405e+02 +2.7777986594e+02 -6.3056052621e+02 7.0164665389e+02 0.0000000000e+00 0.0000e+00 1.0000e+00
        1  1    3    3  501    0 +1.3243793285e+02 -2.7777986912e+02 -2.6299008934e+02 4.0480272830e+02 0.0000000000e+00 0.0000e+00 1.0000e+00
       21  1    1    2  502  501 -3.8800418890e-05 +3.1802260979e-06 +3.3450886145e-04 3.3676663245e-04 0.0000000000e+00 0.0000e+00 -1.0000e+00
<mgrwt>
<rscale>  1 0.65253163E+03</rscale>
<asrwt>0</asrwt>
<pdfrwt beam="1">  1        1 0.38709070E+00 0.65253163E+03</pdfrwt>
<pdfrwt beam="2">0</pdfrwt>
<totfact> 0.15260067E+00</totfact>
</mgrwt>
</event>
<event>
 6      1 +5.6466785e-02 6.51254900e+02 7.81860800e-03 9.80442700e-02
        1 -1    0    0  502    0 +0.0000000000e+00 +0.0000000000e+00 +1.0603324664e+02 1.0603324664e+02 0.0000000000e+00 0.0000e+00 1.0000e+00
       13 -1    0    0    0    0 -0.0000000000e+00 -0.0000000000e+00 -1.0000000000e+03 1.0000000000e+03 0.0000000000e+00 0.0000e+00 1.0000e+00
  9000005  2    1    2  501    0 +9.3719608003e-06 +7.5130526511e-06 -8.9396674679e+02 1.1060332329e+03 6.5125491784e+02 0.0000e+00 0.0000e+00
       13  1    3    3    0    0 -6.6885009357e+01 -3.0871682157e+02 -3.1268189458e+02 4.4446557526e+02 0.0000000000e+00 0.0000e+00 1.0000e+00
        3  1    3    3  501    0 +6.6885018729e+01 +3.0871682908e+02 -5.8128485221e+02 6.6156765768e+02 0.0000000000e+00 0.0000e+00 1.0000e+00
       21  1    1    2  502  501 -9.3719607972e-06 -7.5130526817e-06 -6.5746012506e-06 1.3693246196e-05 0.0000000000e+00 0.0000e+00 -1.0000e+00
<mgrwt>
<rscale>  1 0.65125492E+03</rscale>
<asrwt>0</asrwt>
<pdfrwt beam="1">  1        1 0.38557626E+00 0.65125492E+03</pdfrwt>
<pdfrwt beam="2">0</pdfrwt>
<totfact> 0.15501092E+00</totfact>
</mgrwt>
</event>
<event>
 6      1 +5.6466785e-02 6.54473800e+02 7.81860800e-03 9.79842000e-02
        1 -1    0    0  502    0 +0.0000000000e+00 +0.0000000000e+00 +1.0708405608e+02 1.0708405608e+02 0.0000000000e+00 0.0000e+00 1.0000e+00
       13 -1    0    0    0    0 -0.0000000000e+00 -0.0000000000e+00 -1.0000000000e+03 1.0000000000e+03 0.0000000000e+00 0.0000e+00 1.0000e+00
  9000005  2    1    2  501    0 -1.7102647541e-04 +2.9601981311e-05 -8.9291577202e+02 1.1070838118e+03 6.5447382713e+02 0.0000e+00 0.0000e+00
       13  1    3    3    0    0 -1.5097862698e+02 +1.9862238617e+02 -8.8267182499e+01 2.6464408854e+02 0.0000000000e+00 0.0000e+00 1.0000e+00
        3  1    3    3  501    0 +1.5097845595e+02 -1.9862235657e+02 -8.0464858952e+02 8.4243972325e+02 0.0000000000e+00 0.0000e+00 1.0000e+00
       21  1    1    2  502  501 +1.7102647542e-04 -2.9601981302e-05 -1.7190057585e-04 2.4428700450e-04 0.0000000000e+00 0.0000e+00 1.0000e+00
<mgrwt>
<rscale>  1 0.65447383E+03</rscale>
<asrwt>0</asrwt>
<pdfrwt beam="1">  1        1 0.38939739E+00 0.65447383E+03</pdfrwt>
<pdfrwt beam="2">0</pdfrwt>
<totfact> 0.14899787E+00</totfact>
</mgrwt>
</event>
<event>
 6      1 +5.6466785e-02 6.53966100e+02 7.81860800e-03 9.79936500e-02
        1 -1    0    0  502    0 +0.0000000000e+00 +0.0000000000e+00 +1.0692075884e+02 1.0692075884e+02 0.0000000000e+00 0.0000e+00 1.0000e+00
       13 -1    0    0    0    0 -0.0000000000e+00 -0.0000000000e+00 -1.0000000000e+03 1.0000000000e+03 0.0000000000e+00 0.0000e+00 1.0000e+00
  9000005  2    1    2  501    0 -6.2935794958e-05 -6.5974075426e-05 -8.9308208405e+02 1.1069179145e+03 6.5396610048e+02 0.0000e+00 0.0000e+00
       13  1    3    3    0    0 +1.2723820600e+02 -2.8610622295e+02 -6.0596774840e+02 6.8208741667e+02 0.0000000000e+00 0.0000e+00 1.0000e+00
        3  1    3    3  501    0 -1.2723826893e+02 +2.8610615698e+02 -2.8711433564e+02 4.2483049782e+02 0.0000000000e+00 0.0000e+00 1.0000e+00
       21  1    1    2  502  501 +6.2935794959e-05 +6.5974075425e-05 +2.8428839568e-03 2.8443457393e-03 0.0000000000e+00 0.0000e+00 1.0000e+00
<mgrwt>
<rscale>  1 0.65396610E+03</rscale>
<asrwt>0</asrwt>
<pdfrwt beam="1">  1        1 0.38880358E+00 0.65396610E+03</pdfrwt>
<pdfrwt beam="2">0</pdfrwt>
<totfact> 0.14991776E+00</totfact>
</mgrwt>
</event>
<event>
 6      1 +5.6466785e-02 6.45614700e+02 7.81860800e-03 9.81504300e-02
        1 -1    0    0  502    0 +0.0000000000e+00 +0.0000000000e+00 +1.0428437418e+02 1.0428437418e+02 0.0000000000e+00 0.0000e+00 1.0000e+00
       13 -1    0    0    0    0 -0.0000000000e+00 -0.0000000000e+00 -1.0000000000e+03 1.0000000000e+03 0.0000000000e+00 0.0000e+00 1.0000e+00
  9000005  2    1    2  501    0 +9.1759106839e-03 -7.5559685922e-04 -8.9579511837e+02 1.1042043502e+03 6.4561470930e+02 0.0000e+00 0.0000e+00
       13  1    3    3    0    0 -2.8887126107e+02 -1.1562232890e+02 -5.9488856724e+02 6.7134755220e+02 0.0000000000e+00 0.0000e+00 1.0000e+00
        3  1    3    3  501    0 +2.8888043698e+02 +1.1562157330e+02 -3.0090655113e+02 4.3285679802e+02 0.0000000000e+00 0.0000e+00 1.0000e+00
       21  1    1    2  502  501 -9.1759106839e-03 +7.5559685923e-04 +7.9492545426e-02 8.0023952926e-02 0.0000000000e+00 0.0000e+00 -1.0000e+00
<mgrwt>
<rscale>  1 0.64561471E+03</rscale>
<asrwt>0</asrwt>
<pdfrwt beam="1">  1        1 0.37921671E+00 0.64561471E+03</pdfrwt>
<pdfrwt beam="2">0</pdfrwt>
<totfact> 0.16554143E+00</totfact>
</mgrwt>
</event>
<event>
 6      1 +5.6466785e-02 6.31532600e+02 7.81860800e-03 9.84206300e-02
        1 -1    0    0  502    0 +0.0000000000e+00 +0.0000000000e+00 +1.0177212772e+02 1.0177212772e+02 0.0000000000e+00 0.0000e+00 1.0000e+00
       13 -1    0    0    0    0 -0.0000000000e+00 -0.0000000000e+00 -1.0000000000e+03 1.0000000000e+03 0.0000000000e+00 0.0000e+00 1.0000e+00
  9000005  2    1    2  501    0 -4.0370364996e-01 -8.9288232668e-01 -9.0016298769e+02 1.0996030525e+03 6.3153187452e+02 0.0000e+00 0.0000e+00
       13  1    3    3    0    0 -4.5409908732e+01 -1.6487709018e+02 -9.1318173505e+02 9.2905726191e+02 0.0000000000e+00 0.0000e+00 1.0000e+00
        1  1    3    3  501    0 +4.5006205082e+01 +1.6398420785e+02 +1.3018747359e+01 1.7054579064e+02 0.0000000000e+00 0.0000e+00 1.0000e+00
       21  1    1    2  502  501 +4.0370364996e-01 +8.9288232668e-01 +1.9351154059e+00 2.1690751763e+00 0.0000000000e+00 0.0000e+00 1.0000e+00
<mgrwt>
<rscale>  1 0.63153263E+03</rscale>
<asrwt>0</asrwt>
<pdfrwt beam="1">  1        1 0.37008124E+00 0.63153263E+03</pdfrwt>
<pdfrwt beam="2">0</pdfrwt>
<totfact> 0.18206729E+00</totfact>
</mgrwt>
</event>
<event>
 6      1 +5.6466785e-02 6.66037700e+02 7.81860800e-03 9.77714200e-02
        1 -1    0    0  502    0 +0.0000000000e+00 +0.0000000000e+00 +1.1090172933e+02 1.1090172933e+02 0.0000000000e+00 0.0000e+00 1.0000e+00
       13 -1    0    0    0    0 -0.0000000000e+00 -0.0000000000e+00 -1.0000000000e+03 1.0000000000e+03 0.0000000000e+00 0.0000e+00 1.0000e+00
  9000005  2    1    2  501    0 -3.7226244928e-05 -4.9017471341e-05 -8.8909844512e+02 1.1109015443e+03 6.6603768369e+02 0.0000e+00 0.0000e+00
       13  1    3    3    0    0 +1.8588415393e+02 +5.5982696389e+01 +6.7613534915e+00 1.9424905889e+02 0.0000000000e+00 0.0000e+00 1.0000e+00
        3  1    3    3  501    0 -1.8588419116e+02 -5.5982745406e+01 -8.9585979861e+02 9.1665248545e+02 0.0000000000e+00 0.0000e+00 1.0000e+00
       21  1    1    2  502  501 +3.7226244931e-05 +4.9017471344e-05 +1.7444749085e-04 1.8498765600e-04 0.0000000000e+00 0.0000e+00 1.0000e+00
<mgrwt>
<rscale>  1 0.66603768E+03</rscale>
<asrwt>0</asrwt>
<pdfrwt beam="1">  1        1 0.40327987E+00 0.66603768E+03</pdfrwt>
<pdfrwt beam="2">0</pdfrwt>
<totfact> 0.12896228E+00</totfact>
</mgrwt>
</event>
<event>
 6      1 +5.6466785e-02 6.46228900e+02 7.81860800e-03 9.81388100e-02
        1 -1    0    0  502    0 +0.0000000000e+00 +0.0000000000e+00 +1.0440402411e+02 1.0440402411e+02 0.0000000000e+00 0.0000e+00 1.0000e+00
       13 -1    0    0    0    0 -0.0000000000e+00 -0.0000000000e+00 -1.0000000000e+03 1.0000000000e+03 0.0000000000e+00 0.0000e+00 1.0000e+00
  9000005  2    1    2  501    0 -2.4109841632e-05 +4.9991751638e-05 -8.9559704594e+02 1.1044029526e+03 6.4622891691e+02 0.0000e+00 0.0000e+00
       13  1    3    3    0    0 +1.1064927455e+02 -2.1834750722e+02 -8.0824705927e+02 8.4450115731e+02 0.0000000000e+00 0.0000e+00 1.0000e+00
        1  1    3    3  501    0 -1.1064929866e+02 +2.1834755722e+02 -8.7349986668e+01 2.5990179531e+02 0.0000000000e+00 0.0000e+00 1.0000e+00
       21  1    1    2  502  501 +2.4109841635e-05 -4.9991751643e-05 +1.0700528549e-03 1.0714912841e-03 0.0000000000e+00 0.0000e+00 1.0000e+00
<mgrwt>
<rscale>  1 0.64622892E+03</rscale>
<asrwt>0</asrwt>
<pdfrwt beam="1">  1        1 0.37965180E+00 0.64622892E+03</pdfrwt>
<pdfrwt beam="2">0</pdfrwt>
<totfact> 0.16479291E+00</totfact>
</mgrwt>
</event>
<event>
 6      1 +5.6466785e-02 6.42904300e+02 7.81860800e-03 9.82018600e-02
        3 -1    0    0  502    0 +0.0000000000e+00 +0.0000000000e+00 +1.2248245846e+02 1.2248245846e+02 0.0000000000e+00 0.0000e+00 1.0000e+00
       13 -1    0    0    0    0 -0.0000000000e+00 -0.0000000000e+00 -1.0000000000e+03 1.0000000000e+03 0.0000000000e+00 0.0000e+00 1.0000e+00
  9000005  2    1    2  501    0 -6.6683551130e-01 -7.3326588738e-01 -8.9665437820e+02 1.1033199726e+03 6.4290349631e+02 0.0000e+00 0.0000e+00
       13  1    3    3    0    0 -8.2188053690e+01 -3.0020847818e+02 -5.8966876479e+02 6.6677526852e+02 0.0000000000e+00 0.0000e+00 1.0000e+00
        1  1    3    3  501    0 +8.1521218179e+01 +2.9947521229e+02 -3.0698561340e+02 4.3654470404e+02 0.0000000000e+00 0.0000e+00 1.0000e+00
       21  1    1    2  502  501 +6.6683551130e-01 +7.3326588738e-01 +1.9136836657e+01 1.9162485896e+01 0.0000000000e+00 0.0000e+00 1.0000e+00
<mgrwt>
<rscale>  1 0.64290426E+03</rscale>
<asrwt>0</asrwt>
<pdfrwt beam="1">  1        3 0.44539170E+00 0.64290426E+03</pdfrwt>
<pdfrwt beam="2">0</pdfrwt>
<totfact> 0.34554759E-02</totfact>
</mgrwt>
</event>
<event>
 6      1 +5.6466785e-02 5.26659100e+02 7.81860800e-03 1.00704600e-01
        1 -1    0    0  502    0 +0.0000000000e+00 +0.0000000000e+00 +6.9342453159e+01 6.9342453159e+01 0.0000000000e+00 0.0000e+00 1.0000e+00
       13 -1    0    0    0    0 -0.0000000000e+00 -0.0000000000e+00 -1.0000000000e+03 1.0000000000e+03 0.0000000000e+00 0.0000e+00 1.0000e+00
  9000005  2    1    2  501    0 -1.1810825868e-05 +1.0847317114e-05 -9.3065752291e+02 1.0693424244e+03 5.2665908857e+02 0.0000e+00 0.0000e+00
       13  1    3    3    0    0 +2.5027951559e+01 +1.0261552550e+02 +2.4446511823e+01 1.0841575703e+02 0.0000000000e+00 0.0000e+00 1.0000e+00
        3  1    3    3  501    0 -2.5027963369e+01 -1.0261551465e+02 -9.5510403473e+02 9.6092666732e+02 0.0000000000e+00 0.0000e+00 1.0000e+00
       21  1    1    2  502  501 +1.1810825868e-05 -1.0847317110e-05 -2.3932182725e-05 2.8808145829e-05 0.0000000000e+00 0.0000e+00 1.0000e+00
<mgrwt>
<rscale>  1 0.52665909E+03</rscale>
<asrwt>0</asrwt>
<pdfrwt beam="1">  1        1 0.25215491E+00 0.52665909E+03</pdfrwt>
<pdfrwt beam="2">0</pdfrwt>
<totfact> 0.60170282E+00</totfact>
</mgrwt>
</event>
<event>
 6      1 +5.6466785e-02 6.34033200e+02 7.81860800e-03 9.83721000e-02
        1 -1    0    0  502    0 +0.0000000000e+00 +0.0000000000e+00 +1.1008603454e+02 1.1008603454e+02 0.0000000000e+00 0.0000e+00 1.0000e+00
       13 -1    0    0    0    0 -0.0000000000e+00 -0.0000000000e+00 -1.0000000000e+03 1.0000000000e+03 0.0000000000e+00 0.0000e+00 1.0000e+00
  9000005  2    1    2  501    0 +1.2502939638e+01 +1.1367387036e+01 -8.9052667741e+02 1.0931769718e+03 6.3380800520e+02 0.0000e+00 0.0000e+00
       13  1    3    3    0    0 -6.4942633310e+01 -3.0319766729e+02 -4.3517027445e+02 5.3434028375e+02 0.0000000000e+00 0.0000e+00 1.0000e+00
        3  1    3    3  501    0 +7.7445572948e+01 +3.1456505432e+02 -4.5535640296e+02 5.5883668803e+02 0.0000000000e+00 0.0000e+00 1.0000e+00
       21  1    1    2  502  501 -1.2502939638e+01 -1.1367387036e+01 +6.1271194812e-01 1.6909062764e+01 0.0000000000e+00 0.0000e+00 -1.0000e+00
<mgrwt>
<rscale>  1 0.63403322E+03</rscale>
<asrwt>0</asrwt>
<pdfrwt beam="1">  1        1 0.40031370E+00 0.63403322E+03</pdfrwt>
<pdfrwt beam="2">0</pdfrwt>
<totfact> 0.13376776E+00</totfact>
</mgrwt>
</event>
<event>
 6      1 +5.6466785e-02 6.53393300e+02 7.81860800e-03 9.80043300e-02
        1 -1    0    0  502    0 +0.0000000000e+00 +0.0000000000e+00 +1.0673073848e+02 1.0673073848e+02 0.0000000000e+00 0.0000e+00 1.0000e+00
       13 -1    0    0    0    0 -0.0000000000e+00 -0.0000000000e+00 -1.0000000000e+03 1.0000000000e+03 0.0000000000e+00 0.0000e+00 1.0000e+00
  9000005  2    1    2  501    0 -2.6484640046e-05 +9.0896283211e-07 -8.9326929891e+02 1.1067306926e+03 6.5339328560e+02 0.0000e+00 0.0000e+00
       13  1    3    3    0    0 +1.0383025407e+02 -1.0370749595e+02 +4.7759873126e+01 1.5432748250e+02 0.0000000000e+00 0.0000e+00 1.0000e+00
        3  1    3    3  501    0 -1.0383028055e+02 +1.0370749686e+02 -9.4102917204e+02 9.5240321014e+02 0.0000000000e+00 0.0000e+00 1.0000e+00
       21  1    1    2  502  501 +2.6484640041e-05 -9.0896283193e-07 +3.7395503166e-05 4.5833241523e-05 0.0000000000e+00 0.0000e+00 1.0000e+00
<mgrwt>
<rscale>  1 0.65339329E+03</rscale>
<asrwt>0</asrwt>
<pdfrwt beam="1">  1        1 0.38811259E+00 0.65339329E+03</pdfrwt>
<pdfrwt beam="2">0</pdfrwt>
<totfact> 0.15099447E+00</totfact>
</mgrwt>
</event>
<event>
 6      1 +5.6466785e-02 6.47273300e+02 7.81860800e-03 9.81190900e-02
        1 -1    0    0  502    0 +0.0000000000e+00 +0.0000000000e+00 +1.0474080993e+02 1.0474080993e+02 0.0000000000e+00 0.0000e+00 1.0000e+00
       13 -1    0    0    0    0 -0.0000000000e+00 -0.0000000000e+00 -1.0000000000e+03 1.0000000000e+03 0.0000000000e+00 0.0000e+00 1.0000e+00
  9000005  2    1    2  501    0 +2.8566512911e-04 -2.7738854158e-04 -8.9525890969e+02 1.1047403229e+03 6.4727325432e+02 0.0000e+00 0.0000e+00
       13  1    3    3    0    0 +1.2329176698e+02 -2.9062517695e+02 -5.6924076651e+02 6.5092158017e+02 0.0000000000e+00 0.0000e+00 1.0000e+00
        1  1    3    3  501    0 -1.2329148131e+02 +2.9062489956e+02 -3.2601814319e+02 4.5381874278e+02 0.0000000000e+00 0.0000e+00 1.0000e+00
       21  1    1    2  502  501 -2.8566512911e-04 +2.7738854159e-04 -2.8037155979e-04 4.8698786487e-04 0.0000000000e+00 0.0000e+00 1.0000e+00
<mgrwt>
<rscale>  1 0.64727325E+03</rscale>
<asrwt>0</asrwt>
<pdfrwt beam="1">  1        1 0.38087648E+00 0.64727325E+03</pdfrwt>
<pdfrwt beam="2">0</pdfrwt>
<totfact> 0.16272371E+00</totfact>
</mgrwt>
</event>
<event>
 6      1 +5.6466785e-02 6.52746000e+02 7.81860800e-03 9.80164000e-02
        1 -1    0    0  502    0 +0.0000000000e+00 +0.0000000000e+00 +1.0721222636e+02 1.0721222636e+02 0.0000000000e+00 0.0000e+00 1.0000e+00
       13 -1    0    0    0    0 -0.0000000000e+00 -0.0000000000e+00 -1.0000000000e+03 1.0000000000e+03 0.0000000000e+00 0.0000e+00 1.0000e+00
  9000005  2    1    2  501    0 -5.4567471787e-01 -8.8676169569e-01 -8.9301807142e+02 1.1061458567e+03 6.5274520012e+02 0.0000e+00 0.0000e+00
       13  1    3    3    0    0 +2.3747788319e+02 -1.8483122204e+02 -2.3226238562e+02 3.8013700349e+02 0.0000000000e+00 0.0000e+00 1.0000e+00
        1  1    3    3  501    0 -2.3802355791e+02 +1.8394446035e+02 -6.6075568580e+02 7.2600885320e+02 0.0000000000e+00 0.0000e+00 1.0000e+00
       21  1    1    2  502  501 +5.4567471787e-01 +8.8676169569e-01 +2.3029778222e-01 1.0663696691e+00 0.0000000000e+00 0.0000e+00 -1.0000e+00
<mgrwt>
<rscale>  1 0.65274603E+03</rscale>
<asrwt>0</asrwt>
<pdfrwt beam="1">  1        1 0.38986346E+00 0.65274603E+03</pdfrwt>
<pdfrwt beam="2">0</pdfrwt>
<totfact> 0.14833814E+00</totfact>
</mgrwt>
</event>
<event>
 6      1 +5.6466785e-02 6.54808200e+02 7.81860800e-03 9.79779900e-02
        1 -1    0    0  502    0 +0.0000000000e+00 +0.0000000000e+00 +1.0719918705e+02 1.0719918705e+02 0.0000000000e+00 0.0000e+00 1.0000e+00
       13 -1    0    0    0    0 -0.0000000000e+00 -0.0000000000e+00 -1.0000000000e+03 1.0000000000e+03 0.0000000000e+00 0.0000e+00 1.0000e+00
  9000005  2    1    2  501    0 -2.1073286171e-04 -1.0294505989e-04 -8.9280656417e+02 1.1071934311e+03 6.5480816485e+02 0.0000e+00 0.0000e+00
       13  1    3    3    0    0 +4.3509500398e+01 +2.7218307309e+02 -7.4514973407e+02 7.9449658784e+02 0.0000000000e+00 0.0000e+00 1.0000e+00
        3  1    3    3  501    0 -4.3509711131e+01 -2.7218317604e+02 -1.4765683009e+02 3.1269684321e+02 0.0000000000e+00 0.0000e+00 1.0000e+00
       21  1    1    2  502  501 +2.1073286171e-04 +1.0294505989e-04 +5.7512170723e-03 5.7559972062e-03 0.0000000000e+00 0.0000e+00 -1.0000e+00
<mgrwt>
<rscale>  1 0.65480816E+03</rscale>
<asrwt>0</asrwt>
<pdfrwt beam="1">  1        1 0.38981605E+00 0.65480816E+03</pdfrwt>
<pdfrwt beam="2">0</pdfrwt>
<totfact> 0.14835318E+00</totfact>
</mgrwt>
</event>
<event>
 6      1 +5.6466785e-02 6.56449300e+02 7.81860800e-03 9.79475200e-02
        1 -1    0    0  502    0 +0.0000000000e+00 +0.0000000000e+00 +1.0773172526e+02 1.0773172526e+02 0.0000000000e+00 0.0000e+00 1.0000e+00
       13 -1    0    0    0    0 -0.0000000000e+00 -0.0000000000e+00 -1.0000000000e+03 1.0000000000e+03 0.0000000000e+00 0.0000e+00 1.0000e+00
  9000005  2    1    2  501    0 +7.4259636534e-05 +5.8348611662e-04 -8.9226821642e+02 1.1077311342e+03 6.5644930923e+02 0.0000e+00 0.0000e+00
       13  1    3    3    0    0 -9.7280815386e+01 +2.5706807008e+02 -1.4340591643e+02 3.1002065505e+02 0.0000000000e+00 0.0000e+00 1.0000e+00
        1  1    3    3  501    0 +9.7280889646e+01 -2.5706748659e+02 -7.4886230000e+02 7.9771047913e+02 0.0000000000e+00 0.0000e+00 1.0000e+00
       21  1    1    2  502  501 -7.4259636541e-05 -5.8348611658e-04 -5.8317153433e-05 5.9107650287e-04 0.0000000000e+00 0.0000e+00 1.0000e+00
<mgrwt>
<rscale>  1 0.65644931E+03</rscale>
<asrwt>0</asrwt>
<pdfrwt beam="1">  1        1 0.39175255E+00 0.65644931E+03</pdfrwt>
<pdfrwt beam="2">0</pdfrwt>
<totfact> 0.14540288E+00</totfact>
</mgrwt>
</event>
<event>
 6      1 +5.6466785e-02 6.43709100e+02 7.81860800e-03 9.81865600e-02
        1 -1    0    0  502    0 +0.0000000000e+00 +0.0000000000e+00 +1.0359035224e+02 1.0359035224e+02 0.0000000000e+00 0.0000e+00 1.0000e+00
       13 -1    0    0    0    0 -0.0000000000e+00 -0.0000000000e+00 -1.0000000000e+03 1.0000000000e+03 0.0000000000e+00 0.0000e+00 1.0000e+00
  9000005  2    1    2  501    0 +2.3537687639e-06 +6.6115220534e-06 -8.9640964141e+02 1.1035903428e+03 6.4370909535e+02 0.0000e+00 0.0000e+00
       13  1    3    3    0    0 +1.6287195548e+02 +2.7755901381e+02 -4.5661635133e+02 5.5862757928e+02 0.0000000000e+00 0.0000e+00 1.0000e+00
        1  1    3    3  501    0 -1.6287195313e+02 -2.7755900720e+02 -4.3979329007e+02 5.4496276348e+02 0.0000000000e+00 0.0000e+00 1.0000e+00
       21  1    1    2  502  501 -2.3537687860e-06 -6.6115220737e-06 -6.3584252701e-06 9.4700593211e-06 0.0000000000e+00 0.0000e+00 -1.0000e+00
<mgrwt>
<rscale>  1 0.64370910E+03</rscale>
<asrwt>0</asrwt>
<pdfrwt beam="1">  1        1 0.37669298E+00 0.64370910E+03</pdfrwt>
<pdfrwt beam="2">0</pdfrwt>
<totfact> 0.16989587E+00</totfact>
</mgrwt>
</event>
<event>
 6      1 +5.6466785e-02 5.49748100e+02 7.81860800e-03 1.00155200e-01
        1 -1    0    0  502    0 +0.0000000000e+00 +0.0000000000e+00 +8.0939817061e+01 8.0939817061e+01 0.0000000000e+00 0.0000e+00 1.0000e+00
       13 -1    0    0    0    0 -0.0000000000e+00 -0.0000000000e+00 -1.0000000000e+03 1.0000000000e+03 0.0000000000e+00 0.0000e+00 1.0000e+00
  9000005  2    1    2  501    0 +3.6344615864e-02 +1.9204178037e-01 -9.2444235285e+02 1.0755540995e+03 5.4974805045e+02 0.0000e+00 0.0000e+00
       13  1    3    3    0    0 +2.5024948064e+02 -8.3851979054e+00 -6.8417891169e+02 7.2855740838e+02 0.0000000000e+00 0.0000e+00 1.0000e+00
        1  1    3    3  501    0 -2.5021313602e+02 +8.5772396858e+00 -2.4026344115e+02 3.4699669110e+02 0.0000000000e+00 0.0000e+00 1.0000e+00
       21  1    1    2  502  501 -3.6344615864e-02 -1.9204178037e-01 +5.3821699061e+00 5.3857175821e+00 0.0000000000e+00 0.0000e+00 -1.0000e+00
<mgrwt>
<rscale>  1 0.54974809E+03</rscale>
<asrwt>0</asrwt>
<pdfrwt beam="1">  1        1 0.29432723E+00 0.54974809E+03</pdfrwt>
<pdfrwt beam="2">0</pdfrwt>
<totfact> 0.39386040E+00</totfact>
</mgrwt>
</event>
<event>
 6      1 +5.6466785e-02 6.45586600e+02 7.81860800e-03 9.81509600e-02
        1 -1    0    0  502    0 +0.0000000000e+00 +0.0000000000e+00 +1.1777038162e+02 1.1777038162e+02 0.0000000000e+00 0.0000e+00 1.0000e+00
       13 -1    0    0    0    0 -0.0000000000e+00 -0.0000000000e+00 -1.0000000000e+03 1.0000000000e+03 0.0000000000e+00 0.0000e+00 1.0000e+00
  9000005  2    1    2  501    0 -4.0364932926e-01 -1.9899347893e-01 -8.9580037818e+02 1.1041921618e+03 6.4558640797e+02 0.0000e+00 0.0000e+00
       13  1    3    3    0    0 -2.3651780106e+02 +2.0461509156e+02 -5.8529719106e+02 6.6361194065e+02 0.0000000000e+00 0.0000e+00 1.0000e+00
        1  1    3    3  501    0 +2.3611415173e+02 -2.0481408504e+02 -3.1050318712e+02 4.4058022117e+02 0.0000000000e+00 0.0000e+00 1.0000e+00
       21  1    1    2  502  501 +4.0364932926e-01 +1.9899347893e-01 +1.3570759799e+01 1.3578219791e+01 0.0000000000e+00 0.0000e+00 -1.0000e+00
<mgrwt>
<rscale>  1 0.64558656E+03</rscale>
<asrwt>0</asrwt>
<pdfrwt beam="1">  1        1 0.42825684E+00 0.64558656E+03</pdfrwt>
<pdfrwt beam="2">0</pdfrwt>
<totfact> 0.99955171E-01</totfact>
</mgrwt>
</event>
<event>
 6      1 +5.6466785e-02 6.46112200e+02 7.81860800e-03 9.81410200e-02
        1 -1    0    0  502    0 +0.0000000000e+00 +0.0000000000e+00 +1.0436536424e+02 1.0436536424e+02 0.0000000000e+00 0.0000e+00 1.0000e+00
       13 -1    0    0    0    0 -0.0000000000e+00 -0.0000000000e+00 -1.0000000000e+03 1.0000000000e+03 0.0000000000e+00 0.0000e+00 1.0000e+00
  9000005  2    1    2  501    0 -1.6766425622e-04 -2.5973862421e-06 -8.9563468701e+02 1.1043651889e+03 6.4611220223e+02 0.0000e+00 0.0000e+00
       13  1    3    3    0    0 +1.2750381034e+02 -2.2311664517e+02 -7.8244121599e+02 8.2356087539e+02 0.0000000000e+00 0.0000e+00 1.0000e+00
        3  1    3    3  501    0 -1.2750397801e+02 +2.2311664257e+02 -1.1319347102e+02 2.8080431350e+02 0.0000000000e+00 0.0000e+00 1.0000e+00
       21  1    1    2  502  501 +1.6766425622e-04 +2.5973862460e-06 +5.1242174195e-05 1.7533912753e-04 0.0000000000e+00 0.0000e+00 -1.0000e+00
<mgrwt>
<rscale>  1 0.64611220E+03</rscale>
<asrwt>0</asrwt>
<pdfrwt beam="1">  1        1 0.37951122E+00 0.64611220E+03</pdfrwt>
<pdfrwt beam="2">0</pdfrwt>
<totfact> 0.16503193E+00</totfact>
</mgrwt>
</event>
<event>
 6      1 +5.6466785e-02 6.49333700e+02 7.81860800e-03 9.80803000e-02
        1 -1    0    0  502    0 +0.0000000000e+00 +0.0000000000e+00 +1.1197887070e+02 1.1197887070e+02 0.0000000000e+00 0.0000e+00 1.0000e+00
       13 -1    0    0    0    0 -0.0000000000e+00 -0.0000000000e+00 -1.0000000000e+03 1.0000000000e+03 0.0000000000e+00 0.0000e+00 1.0000e+00
  9000005  2    1    2  501    0 +3.0640967767e+00 -1.3354789122e+00 -8.9411826620e+02 1.1050256505e+03 6.4932506658e+02 0.0000e+00 0.0000e+00
       13  1    3    3    0    0 -1.9957862346e+02 -4.2263486189e+01 -8.7379626146e+02 8.9729467610e+02 0.0000000000e+00 0.0000e+00 1.0000e+00
        3  1    3    3  501    0 +2.0264272023e+02 +4.0928007277e+01 -2.0322004734e+01 2.0773097439e+02 0.0000000000e+00 0.0000e+00 1.0000e+00
       21  1    1    2  502  501 -3.0640967767e+00 +1.3354789122e+00 +6.0971368936e+00 6.9532202095e+00 0.0000000000e+00 0.0000e+00 -1.0000e+00
<mgrwt>
<rscale>  1 0.64933367E+03</rscale>
<asrwt>0</asrwt>
<pdfrwt beam="1">  1        1 0.40719675E+00 0.64933367E+03</pdfrwt>
<pdfrwt beam="2">0</pdfrwt>
<totfact> 0.12425928E+00</totfact>
</mgrwt>
</event>
<event>
 6      1 +5.6466785e-02 6.54278300e+02 7.81860800e-03 9.79878400e-02
        1 -1    0    0  502    0 +0.0000000000e+00 +0.0000000000e+00 +1.1165395026e+02 1.1165395026e+02 0.0000000000e+00 0.0000e+00 1.0000e+00
       13 -1    0    0    0    0 -0.0000000000e+00 -0.0000000000e+00 -1.0000000000e+03 1.0000000000e+03 0.0000000000e+00 0.0000e+00 1.0000e+00
  9000005  2    1    2  501    0 +6.9317537471e+00 -1.3724800786e+00 -8.8978321233e+02 1.1044429623e+03 6.5424013867e+02 0.0000e+00 0.0000e+00
       13  1    3    3    0    0 +3.2430289344e+02 -1.0750034742e+01 -3.4302865843e+02 4.7218279347e+02 0.0000000000e+00 0.0000e+00 1.0000e+00
        3  1    3    3  501    0 -3.1737113969e+02 +9.3775546634e+00 -5.4675455390e+02 6.3226016880e+02 0.0000000000e+00 0.0000e+00 1.0000e+00
       21  1    1    2  502  501 -6.9317537471e+00 +1.3724800786e+00 +1.4371625968e+00 7.2109879979e+00 0.0000000000e+00 0.0000e+00 -1.0000e+00
<mgrwt>
<rscale>  1 0.65427830E+03</rscale>
<asrwt>0</asrwt>
<pdfrwt beam="1">  1        1 0.40601522E+00 0.65427830E+03</pdfrwt>
<pdfrwt beam="2">0</pdfrwt>
<totfact> 0.12566147E+00</totfact>
</mgrwt>
</event>
<event>
 6      1 +5.6466785e-02 5.54122100e+02 7.81860800e-03 1.00054400e-01
        1 -1    0    0  502    0 +0.0000000000e+00 +0.0000000000e+00 +7.6762881704e+01 7.6762881704e+01 0.0000000000e+00 0.0000e+00 1.0000e+00
       13 -1    0    0    0    0 -0.0000000000e+00 -0.0000000000e+00 -1.0000000000e+03 1.0000000000e+03 0.0000000000e+00 0.0000e+00 1.0000e+00
  9000005  2    1    2  501    0 +3.4518799609e-05 -1.8199856868e-05 -9.2323715422e+02 1.0767628287e+03 5.5412214020e+02 0.0000e+00 0.0000e+00
       13  1    3    3    0    0 -9.8318739406e+01 +1.8295199689e+02 -8.1794212596e+02 8.4390007057e+02 0.0000000000e+00 0.0000e+00 1.0000e+00
        1  1    3    3  501    0 +9.8318773925e+01 -1.8295201509e+02 -1.0529502826e+02 2.3286275809e+02 0.0000000000e+00 0.0000e+00 1.0000e+00
       21  1    1    2  502  501 -3.4518799603e-05 +1.8199856871e-05 +3.5924610063e-05 5.3041115413e-05 0.0000000000e+00 0.0000e+00 -1.0000e+00
<mgrwt>
<rscale>  1 0.55412214E+03</rscale>
<asrwt>0</asrwt>
<pdfrwt beam="1">  1        1 0.27913834E+00 0.55412214E+03</pdfrwt>
<pdfrwt beam="2">0</pdfrwt>
<totfact> 0.45763128E+00</totfact>
</mgrwt>
</event>
<event>
 6      1 +5.6466785e-02 6.27213900e+02 7.81860800e-03 9.85050100e-02
        1 -1    0    0  502    0 +0.0000000000e+00 +0.0000000000e+00 +9.8352234842e+01 9.8352234842e+01 0.0000000000e+00 0.0000e+00 1.0000e+00
       13 -1    0    0    0    0 -0.0000000000e+00 -0.0000000000e+00 -1.0000000000e+03 1.0000000000e+03 0.0000000000e+00 0.0000e+00 1.0000e+00
  9000005  2    1    2  501    0 -4.2759368050e-03 -7.3970776618e-03 -9.0164068613e+02 1.0983411392e+03 6.2721394366e+02 0.0000e+00 0.0000e+00
       13  1    3    3    0    0 -3.1049637145e+02 -7.7499433125e+00 -3.7484209292e+02 4.8680042413e+02 0.0000000000e+00 0.0000e+00 1.0000e+00
        3  1    3    3  501    0 +3.1049209551e+02 +7.7425462349e+00 -5.2679859321e+02 6.1154071508e+02 0.0000000000e+00 0.0000e+00 1.0000e+00
       21  1    1    2  502  501 +4.2759368050e-03 +7.3970776618e-03 -7.0790299318e-03 1.1095632396e-02 0.0000000000e+00 0.0000e+00 1.0000e+00
<mgrwt>
<rscale>  1 0.62721394E+03</rscale>
<asrwt>0</asrwt>
<pdfrwt beam="1">  1        1 0.35764524E+00 0.62721394E+03</pdfrwt>
<pdfrwt beam="2">0</pdfrwt>
<totfact> 0.20655777E+00</totfact>
</mgrwt>
</event>
<event>
 6      1 +5.6466785e-02 6.45678800e+02 7.81860800e-03 9.81492200e-02
        1 -1    0    0  502    0 +0.0000000000e+00 +0.0000000000e+00 +1.0429118224e+02 1.0429118224e+02 0.0000000000e+00 0.0000e+00 1.0000e+00
       13 -1    0    0    0    0 -0.0000000000e+00 -0.0000000000e+00 -1.0000000000e+03 1.0000000000e+03 0.0000000000e+00 0.0000e+00 1.0000e+00
  9000005  2    1    2  501    0 -2.1795110831e-04 -1.7558500268e-02 -8.9577343709e+02 1.1042242195e+03 6.4567877158e+02 0.0000e+00 0.0000e+00
       13  1    3    3    0    0 -2.5581586004e+02 +1.2956721598e+02 -7.0150530138e+02 7.5785163823e+02 0.0000000000e+00 0.0000e+00 1.0000e+00
        3  1    3    3  501    0 +2.5581564209e+02 -1.2958477448e+02 -1.9426813571e+02 3.4637258128e+02 0.0000000000e+00 0.0000e+00 1.0000e+00
       21  1    1    2  502  501 +2.1795110833e-04 +1.7558500268e-02 +6.4619328844e-02 6.6962721679e-02 0.0000000000e+00 0.0000e+00 1.0000e+00
<mgrwt>
<rscale>  1 0.64567877E+03</rscale>
<asrwt>0</asrwt>
<pdfrwt beam="1">  1        1 0.37924146E+00 0.64567877E+03</pdfrwt>
<pdfrwt beam="2">0</pdfrwt>
<totfact> 0.16549787E+00</totfact>
</mgrwt>
</event>
<event>
 6      1 +5.6466785e-02 6.70288800e+02 7.81860800e-03 9.76943600e-02
        1 -1    0    0  502    0 +0.0000000000e+00 +0.0000000000e+00 +1.1232966671e+02 1.1232966671e+02 0.0000000000e+00 0.0000e+00 1.0000e+00
       13 -1    0    0    0    0 -0.0000000000e+00 -0.0000000000e+00 -1.0000000000e+03 1.0000000000e+03 0.0000000000e+00 0.0000e+00 1.0000e+00
  9000005  2    1    2  501    0 -1.4928778230e-02 -1.7401577127e-02 -8.8764810059e+02 1.1122977296e+03 6.7028880966e+02 0.0000e+00 0.0000e+00
       13  1    3    3    0    0 +3.1817489504e+02 +8.9811408177e+00 -2.6976436765e+02 4.1723942620e+02 0.0000000000e+00 0.0000e+00 1.0000e+00
        1  1    3    3  501    0 -3.1818982382e+02 -8.9985423948e+00 -6.1788373294e+02 6.9505830344e+02 0.0000000000e+00 0.0000e+00 1.0000e+00
       21  1    1    2  502  501 +1.4928778230e-02 +1.7401577127e-02 -2.2232702956e-02 3.1937069162e-02 0.0000000000e+00 0.0000e+00 1.0000e+00
<mgrwt>
<rscale>  1 0.67028881E+03</rscale>
<asrwt>0</asrwt>
<pdfrwt beam="1">  1        1 0.40847238E+00 0.67028881E+03</pdfrwt>
<pdfrwt beam="2">0</pdfrwt>
<totfact> 0.12214635E+00</totfact>
</mgrwt>
</event>
<event>
 6      1 +5.6466785e-02 6.94782800e+02 7.81860800e-03 9.72619600e-02
        1 -1    0    0  502    0 +0.0000000000e+00 +0.0000000000e+00 +1.2128046973e+02 1.2128046973e+02 0.0000000000e+00 0.0000e+00 1.0000e+00
       13 -1    0    0    0    0 -0.0000000000e+00 -0.0000000000e+00 -1.0000000000e+03 1.0000000000e+03 0.0000000000e+00 0.0000e+00 1.0000e+00
  9000005  2    1    2  501    0 -4.9195069072e-02 -1.0758646285e-01 -8.7931267848e+02 1.1206756393e+03 6.9478276324e+02 0.0000e+00 0.0000e+00
       13  1    3    3    0    0 +8.6621960088e+01 +5.0566193914e+01 -9.7608906752e+02 9.8122890890e+02 0.0000000000e+00 0.0000e+00 1.0000e+00
        1  1    3    3  501    0 -8.6671155157e+01 -5.0673780377e+01 +9.6776389043e+01 1.3944673044e+02 0.0000000000e+00 0.0000e+00 1.0000e+00
       21  1    1    2  502  501 +4.9195069072e-02 +1.0758646285e-01 +5.9314820585e-01 6.0483038607e-01 0.0000000000e+00 0.0000e+00 1.0000e+00
<mgrwt>
<rscale>  1 0.69478277E+03</rscale>
<asrwt>0</asrwt>
<pdfrwt beam="1">  1        1 0.44102082E+00 0.69478277E+03</pdfrwt>
<pdfrwt beam="2">0</pdfrwt>
<totfact> 0.86578852E-01</totfact>
</mgrwt>
</event>
<event>
 6      1 +5.6466785e-02 5.71999200e+02 7.81860800e-03 9.96526400e-02
        1 -1    0    0  502    0 +0.0000000000e+00 +0.0000000000e+00 +8.1796855251e+01 8.1796855251e+01 0.0000000000e+00 0.0000e+00 1.0000e+00
       13 -1    0    0    0    0 -0.0000000000e+00 -0.0000000000e+00 -1.0000000000e+03 1.0000000000e+03 0.0000000000e+00 0.0000e+00 1.0000e+00
  9000005  2    1    2  501    0 -2.6918087155e-06 +3.2684994778e-05 -9.1820423605e+02 1.0817957635e+03 5.7199917373e+02 0.0000e+00 0.0000e+00
       13  1    3    3    0    0 +9.3902048871e+00 -1.1094849220e+02 -9.5732468365e+02 9.6377813515e+02 0.0000000000e+00 0.0000e+00 1.0000e+00
        1  1    3    3  501    0 -9.3902075789e+00 +1.1094852489e+02 +3.9120447601e+01 1.1801762832e+02 0.0000000000e+00 0.0000e+00 1.0000e+00
       21  1    1    2  502  501 +2.6918087161e-06 -3.2684994786e-05 +1.0912960507e-03 1.0917887273e-03 0.0000000000e+00 0.0000e+00 -1.0000e+00
<mgrwt>
<rscale>  1 0.57199917E+03</rscale>
<asrwt>0</asrwt>
<pdfrwt beam="1">  1        1 0.29744374E+00 0.57199917E+03</pdfrwt>
<pdfrwt beam="2">0</pdfrwt>
<totfact> 0.38035282E+00</totfact>
</mgrwt>
</event>
<event>
 6      1 +5.6466785e-02 6.45266800e+02 7.81860800e-03 9.81570100e-02
        1 -1    0    0  502    0 +0.0000000000e+00 +0.0000000000e+00 +1.0496614730e+02 1.0496614730e+02 0.0000000000e+00 0.0000e+00 1.0000e+00
       13 -1    0    0    0    0 -0.0000000000e+00 -0.0000000000e+00 -1.0000000000e+03 1.0000000000e+03 0.0000000000e+00 0.0000e+00 1.0000e+00
  9000005  2    1    2  501    0 -9.4190116426e-01 +2.2296497250e+00 -8.9334870550e+02 1.1020168700e+03 6.4526228276e+02 0.0000e+00 0.0000e+00
       13  1    3    3    0    0 -2.9350793477e+02 -8.7823282001e+01 -2.7342770904e+02 4.1063676005e+02 0.0000000000e+00 0.0000e+00 1.0000e+00
        3  1    3    3  501    0 +2.9256603360e+02 +9.0052931726e+01 -6.1992099647e+02 6.9138010992e+02 0.0000000000e+00 0.0000e+00 1.0000e+00
       21  1    1    2  502  501 +9.4190116426e-01 -2.2296497250e+00 -1.6851471987e+00 2.9492773320e+00 0.0000000000e+00 0.0000e+00 1.0000e+00
<mgrwt>
<rscale>  1 0.64526682E+03</rscale>
<asrwt>0</asrwt>
<pdfrwt beam="1">  1        1 0.38169589E+00 0.64526682E+03</pdfrwt>
<pdfrwt beam="2">0</pdfrwt>
<totfact> 0.16143358E+00</totfact>
</mgrwt>
</event>
<event>
 6      1 +5.6466785e-02 6.53210300e+02 7.81860800e-03 9.80077400e-02
        1 -1    0    0  502    0 +0.0000000000e+00 +0.0000000000e+00 +1.0667095170e+02 1.0667095170e+02 0.0000000000e+00 0.0000e+00 1.0000e+00
       13 -1    0    0    0    0 -0.0000000000e+00 -0.0000000000e+00 -1.0000000000e+03 1.0000000000e+03 0.0000000000e+00 0.0000e+00 1.0000e+00
  9000005  2    1    2  501    0 -5.8449270028e-06 -3.1346061803e-05 -8.9332904228e+02 1.1066709193e+03 6.5321033805e+02 0.0000e+00 0.0000e+00
       13  1    3    3    0    0 -7.6102664774e+01 +8.1707446057e+01 -9.6665848235e+02 9.7308598994e+02 0.0000000000e+00 0.0000e+00 1.0000e+00
        3  1    3    3  501    0 +7.6102658929e+01 -8.1707477403e+01 +7.3329440064e+01 1.3358492931e+02 0.0000000000e+00 0.0000e+00 1.0000e+00
       21  1    1    2  502  501 +5.8449270017e-06 +3.1346061814e-05 -6.0126807206e-06 3.2448283350e-05 0.0000000000e+00 0.0000e+00 -1.0000e+00
<mgrwt>
<rscale>  1 0.65321034E+03</rscale>
<asrwt>0</asrwt>
<pdfrwt beam="1">  1        1 0.38789519E+00 0.65321034E+03</pdfrwt>
<pdfrwt beam="2">0</pdfrwt>
<totfact> 0.15133482E+00</totfact>
</mgrwt>
</event>
<event>
 6      1 +5.6466785e-02 6.14675800e+02 7.81860800e-03 9.87541800e-02
        1 -1    0    0  502    0 +0.0000000000e+00 +0.0000000000e+00 +9.4457070809e+01 9.4457070809e+01 0.0000000000e+00 0.0000e+00 1.0000e+00
       13 -1    0    0    0    0 -0.0000000000e+00 -0.0000000000e+00 -1.0000000000e+03 1.0000000000e+03 0.0000000000e+00 0.0000e+00 1.0000e+00
  9000005  2    1    2  501    0 +1.2764688506e-05 +2.0963471212e-04 -9.0554337629e+02 1.0944565768e+03 6.1467584323e+02 0.0000e+00 0.0000e+00
       13  1    3    3    0    0 +2.4015354235e+02 +1.1778296255e+02 -7.2227602518e+02 7.7021374093e+02 0.0000000000e+00 0.0000e+00 1.0000e+00
        1  1    3    3  501    0 -2.4015352958e+02 -1.1778275292e+02 -1.8326735110e+02 3.2424283591e+02 0.0000000000e+00 0.0000e+00 1.0000e+00
       21  1    1    2  502  501 -1.2764688509e-05 -2.0963471212e-04 +4.4709508785e-04 4.9396727359e-04 0.0000000000e+00 0.0000e+00 1.0000e+00
<mgrwt>
<rscale>  1 0.61467584E+03</rscale>
<asrwt>0</asrwt>
<pdfrwt beam="1">  1        1 0.34348098E+00 0.61467584E+03</pdfrwt>
<pdfrwt beam="2">0</pdfrwt>
<totfact> 0.23864321E+00</totfact>
</mgrwt>
</event>
<event>
 6      1 +5.6466785e-02 6.23804500e+02 7.81860800e-03 9.85721400e-02
        1 -1    0    0  502    0 +0.0000000000e+00 +0.0000000000e+00 +1.0735057803e+02 1.0735057803e+02 0.0000000000e+00 0.0000e+00 1.0000e+00
       13 -1    0    0    0    0 -0.0000000000e+00 -0.0000000000e+00 -1.0000000000e+03 1.0000000000e+03 0.0000000000e+00 0.0000e+00 1.0000e+00
  9000005  2    1    2  501    0 -1.1941990391e+01 +2.2354914118e+01 -8.8092297409e+02 1.0794245525e+03 6.2328943920e+02 0.0000e+00 0.0000e+00
       13  1    3    3    0    0 -2.8577581628e+02 +1.4510506645e+02 -4.0013223108e+02 5.1266860625e+02 0.0000000000e+00 0.0000e+00 1.0000e+00
        1  1    3    3  501    0 +2.7383382589e+02 -1.2275015233e+02 -4.8079074301e+02 5.6675594629e+02 0.0000000000e+00 0.0000e+00 1.0000e+00
       21  1    1    2  502  501 +1.1941990391e+01 -2.2354914118e+01 -1.1726447883e+01 2.7926025490e+01 0.0000000000e+00 0.0000e+00 -1.0000e+00
<mgrwt>
<rscale>  1 0.62380452E+03</rscale>
<asrwt>0</asrwt>
<pdfrwt beam="1">  1        1 0.39036656E+00 0.62380452E+03</pdfrwt>
<pdfrwt beam="2">0</pdfrwt>
<totfact> 0.14839085E+00</totfact>
</mgrwt>
</event>
<event>
 6      1 +5.6466785e-02 6.55318800e+02 7.81860800e-03 9.79685000e-02
        1 -1    0    0  502    0 +0.0000000000e+00 +0.0000000000e+00 +1.1203733095e+02 1.1203733095e+02 0.0000000000e+00 0.0000e+00 1.0000e+00
       13 -1    0    0    0    0 -0.0000000000e+00 -0.0000000000e+00 -1.0000000000e+03 1.0000000000e+03 0.0000000000e+00 0.0000e+00 1.0000e+00
  9000005  2    1    2  501    0 -5.1928794094e-01 +5.0211179522e-01 -8.9260839412e+02 1.1073357846e+03 6.5531845155e+02 0.0000e+00 0.0000e+00
       13  1    3    3    0    0 -2.7271856215e+02 +5.8691798524e+00 -1.3920041735e+02 3.0624600831e+02 0.0000000000e+00 0.0000e+00 1.0000e+00
        1  1    3    3  501    0 +2.7219927421e+02 -5.3670680571e+00 -7.5340797676e+02 8.0108977634e+02 0.0000000000e+00 0.0000e+00 1.0000e+00
       21  1    1    2  502  501 +5.1928794094e-01 -5.0211179522e-01 +4.6457250669e+00 4.7015463007e+00 0.0000000000e+00 0.0000e+00 1.0000e+00
<mgrwt>
<rscale>  1 0.65531885E+03</rscale>
<asrwt>0</asrwt>
<pdfrwt beam="1">  1        1 0.40740934E+00 0.65531885E+03</pdfrwt>
<pdfrwt beam="2">0</pdfrwt>
<totfact> 0.12384464E+00</totfact>
</mgrwt>
</event>
<event>
 6      1 +5.6466785e-02 6.49176000e+02 7.81860800e-03 9.80832700e-02
        1 -1    0    0  502    0 +0.0000000000e+00 +0.0000000000e+00 +1.0686526014e+02 1.0686526014e+02 0.0000000000e+00 0.0000e+00 1.0000e+00
       13 -1    0    0    0    0 -0.0000000000e+00 -0.0000000000e+00 -1.0000000000e+03 1.0000000000e+03 0.0000000000e+00 0.0000e+00 1.0000e+00
  9000005  2    1    2  501    0 -1.8638096351e+00 +9.3828030316e-01 -8.9379967285e+02 1.1046752163e+03 6.4917264582e+02 0.0000e+00 0.0000e+00
       13  1    3    3    0    0 +2.8930035568e+02 +8.1345497561e+01 -6.5139205399e+02 7.1737256274e+02 0.0000000000e+00 0.0000e+00 1.0000e+00
        3  1    3    3  501    0 -2.9116416531e+02 -8.0407217258e+01 -2.4240761886e+02 3.8730265353e+02 0.0000000000e+00 0.0000e+00 1.0000e+00
       21  1    1    2  502  501 +1.8638096351e+00 -9.3828030316e-01 +6.6493299623e-01 2.1900438746e+00 0.0000000000e+00 0.0000e+00 1.0000e+00
<mgrwt>
<rscale>  1 0.64917600E+03</rscale>
<asrwt>0</asrwt>
<pdfrwt beam="1">  1        1 0.38860177E+00 0.64917600E+03</pdfrwt>
<pdfrwt beam="2">0</pdfrwt>
<totfact> 0.15036051E+00</totfact>
</mgrwt>
</event>
<event>
 6      1 +5.6466785e-02 6.54359400e+02 7.81860800e-03 9.79863300e-02
        3 -1    0    0  502    0 +0.0000000000e+00 +0.0000000000e+00 +1.0860586731e+02 1.0860586731e+02 0.0000000000e+00 0.0000e+00 1.0000e+00
       13 -1    0    0    0    0 -0.0000000000e+00 -0.0000000000e+00 -1.0000000000e+03 1.0000000000e+03 0.0000000000e+00 0.0000e+00 1.0000e+00
  9000005  2    1    2  501    0 -1.5080455206e-01 +5.4101189042e-02 -8.9294889746e+02 1.1070428694e+03 6.5435934743e+02 0.0000e+00 0.0000e+00
       13  1    3    3    0    0 +7.3872503568e+01 +4.2920024469e+01 -9.8074892699e+02 9.8446316999e+02 0.0000000000e+00 0.0000e+00 1.0000e+00
        3  1    3    3  501    0 -7.4023308120e+01 -4.2865923280e+01 +8.7800029529e+01 1.2257969942e+02 0.0000000000e+00 0.0000e+00 1.0000e+00
       21  1    1    2  502  501 +1.5080455206e-01 -5.4101189042e-02 +1.5547647727e+00 1.5629979047e+00 0.0000000000e+00 0.0000e+00 1.0000e+00
<mgrwt>
<rscale>  1 0.65435937E+03</rscale>
<asrwt>0</asrwt>
<pdfrwt beam="1">  1        3 0.39493126E+00 0.65435937E+03</pdfrwt>
<pdfrwt beam="2">0</pdfrwt>
<totfact> 0.62931866E-02</totfact>
</mgrwt>
</event>
<event>
 6      1 +5.6466785e-02 6.44565200e+02 7.81860800e-03 9.81703100e-02
        1 -1    0    0  502    0 +0.0000000000e+00 +0.0000000000e+00 +1.0418208473e+02 1.0418208473e+02 0.0000000000e+00 0.0000e+00 1.0000e+00
       13 -1    0    0    0    0 -0.0000000000e+00 -0.0000000000e+00 -1.0000000000e+03 1.0000000000e+03 0.0000000000e+00 0.0000e+00 1.0000e+00
  9000005  2    1    2  501    0 -1.4908568215e-02 +9.1003603100e-03 -8.9613365218e+02 1.1038658651e+03 6.4456522181e+02 0.0000e+00 0.0000e+00
       13  1    3    3    0    0 +1.1016142137e+02 -2.4237056163e+02 -7.5908393057e+02 8.0441745478e+02 0.0000000000e+00 0.0000e+00 1.0000e+00
        1  1    3    3  501    0 -1.1017632994e+02 +2.4237966199e+02 -1.3704972161e+02 2.9944841028e+02 0.0000000000e+00 0.0000e+00 1.0000e+00
       21  1    1    2  502  501 +1.4908568215e-02 -9.1003603100e-03 +3.1573691553e-01 3.1621967331e-01 0.0000000000e+00 0.0000e+00 -1.0000e+00
<mgrwt>
<rscale>  1 0.64456522E+03</rscale>
<asrwt>0</asrwt>
<pdfrwt beam="1">  1        1 0.37884474E+00 0.64456522E+03</pdfrwt>
<pdfrwt beam="2">0</pdfrwt>
<totfact> 0.16619993E+00</totfact>
</mgrwt>
</event>
<event>
 6      1 +5.6466785e-02 6.51992400e+02 7.81860800e-03 9.80304800e-02
        1 -1    0    0  502    0 +0.0000000000e+00 +0.0000000000e+00 +1.0627623292e+02 1.0627623292e+02 0.0000000000e+00 0.0000e+00 1.0000e+00
       13 -1    0    0    0    0 -0.0000000000e+00 -0.0000000000e+00 -1.0000000000e+03 1.0000000000e+03 0.0000000000e+00 0.0000e+00 1.0000e+00
  9000005  2    1    2  501    0 +1.0721773377e-03 -1.6973269703e-03 -8.9372604841e+02 1.1062731940e+03 6.5199243109e+02 0.0000e+00 0.0000e+00
       13  1    3    3    0    0 -2.8481481239e+02 -1.7908087811e+01 -7.1424627263e+02 7.6914752481e+02 0.0000000000e+00 0.0000e+00 1.0000e+00
        1  1    3    3  501    0 +2.8481588457e+02 +1.7906390484e+01 -1.7947977578e+02 3.3712566920e+02 0.0000000000e+00 0.0000e+00 1.0000e+00
       21  1    1    2  502  501 -1.0721773377e-03 +1.6973269703e-03 +2.2813299553e-03 3.0389059631e-03 0.0000000000e+00 0.0000e+00 1.0000e+00
<mgrwt>
<rscale>  1 0.65199243E+03</rscale>
<asrwt>0</asrwt>
<pdfrwt beam="1">  1        1 0.38645984E+00 0.65199243E+03</pdfrwt>
<pdfrwt beam="2">0</pdfrwt>
<totfact> 0.15360054E+00</totfact>
</mgrwt>
</event>
<event>
 6      1 +5.6466785e-02 6.49043500e+02 7.81860800e-03 9.80857600e-02
        1 -1    0    0  502    0 +0.0000000000e+00 +0.0000000000e+00 +1.0546688858e+02 1.0546688858e+02 0.0000000000e+00 0.0000e+00 1.0000e+00
       13 -1    0    0    0    0 -0.0000000000e+00 -0.0000000000e+00 -1.0000000000e+03 1.0000000000e+03 0.0000000000e+00 0.0000e+00 1.0000e+00
  9000005  2    1    2  501    0 -5.0835888774e-03 +8.2966675353e-03 -8.9468547330e+02 1.1053142163e+03 6.4904346586e+02 0.0000e+00 0.0000e+00
       13  1    3    3    0    0 -2.6627981326e+02 -1.5280438084e+02 -2.6824279610e+02 4.0768654063e+02 0.0000000000e+00 0.0000e+00 1.0000e+00
        1  1    3    3  501    0 +2.6627472967e+02 +1.5281267751e+02 -6.2644267720e+02 6.9762767569e+02 0.0000000000e+00 0.0000e+00 1.0000e+00
       21  1    1    2  502  501 +5.0835888775e-03 -8.2966675353e-03 +1.5236188290e-01 1.5267226640e-01 0.0000000000e+00 0.0000e+00 1.0000e+00
<mgrwt>
<rscale>  1 0.64904347E+03</rscale>
<asrwt>0</asrwt>
<pdfrwt beam="1">  1        1 0.38351677E+00 0.64904347E+03</pdfrwt>
<pdfrwt beam="2">0</pdfrwt>
<totfact> 0.15836058E+00</totfact>
</mgrwt>
</event>
<event>
 6      1 +5.6466785e-02 6.52567400e+02 7.81860800e-03 9.80197400e-02
        1 -1    0    0  502    0 +0.0000000000e+00 +0.0000000000e+00 +1.0897199185e+02 1.0897199185e+02 0.0000000000e+00 0.0000e+00 1.0000e+00
       13 -1    0    0    0    0 -0.0000000000e+00 -0.0000000000e+00 -1.0000000000e+03 1.0000000000e+03 0.0000000000e+00 0.0000e+00 1.0000e+00
  9000005  2    1    2  501    0 -6.2793624113e-01 -2.6414642937e-01 -8.9348773059e+02 1.1064196769e+03 6.5256701768e+02 0.0000e+00 0.0000e+00
       13  1    3    3    0    0 +2.5296629874e+02 +1.8469092682e+02 -5.9937741674e+02 6.7628098778e+02 0.0000000000e+00 0.0000e+00 1.0000e+00
        1  1    3    3  501    0 -2.5359423498e+02 -1.8495507325e+02 -2.9411031386e+02 4.3013868909e+02 0.0000000000e+00 0.0000e+00 1.0000e+00
       21  1    1    2  502  501 +6.2793624113e-01 +2.6414642937e-01 +2.4597224410e+00 2.5523149778e+00 0.0000000000e+00 0.0000e+00 -1.0000e+00
<mgrwt>
<rscale>  1 0.65256737E+03</rscale>
<asrwt>0</asrwt>
<pdfrwt beam="1">  1        1 0.39626262E+00 0.65256737E+03</pdfrwt>
<pdfrwt beam="2">0</pdfrwt>
<totfact> 0.13894606E+00</totfact>
</mgrwt>
</event>
<event>
 6      1 +5.6466785e-02 6.50507000e+02 7.81860800e-03 9.80582800e-02
        1 -1    0    0  502    0 +0.0000000000e+00 +0.0000000000e+00 +1.0578993718e+02 1.0578993718e+02 0.0000000000e+00 0.0000e+00 1.0000e+00
       13 -1    0    0    0    0 -0.0000000000e+00 -0.0000000000e+00 -1.0000000000e+03 1.0000000000e+03 0.0000000000e+00 0.0000e+00 1.0000e+00
  9000005  2    1    2  501    0 +9.9357779817e-06 +1.3226350575e-06 -8.9421015646e+02 1.1057898430e+03 6.5050701223e+02 0.0000e+00 0.0000e+00
       13  1    3    3    0    0 -8.3535705574e+01 +3.1434317031e+02 -4.4710514454e+02 5.5289497475e+02 0.0000000000e+00 0.0000e+00 1.0000e+00
        3  1    3    3  501    0 +8.3535715510e+01 -3.1434316899e+02 -4.4710501193e+02 5.5289486826e+02 0.0000000000e+00 0.0000e+00 1.0000e+00
       21  1    1    2  502  501 -9.9357779853e-06 -1.3226350947e-06 +9.3639666679e-05 9.4174604982e-05 0.0000000000e+00 0.0000e+00 -1.0000e+00
<mgrwt>
<rscale>  1 0.65050701E+03</rscale>
<asrwt>0</asrwt>
<pdfrwt beam="1">  1        1 0.38469149E+00 0.65050701E+03</pdfrwt>
<pdfrwt beam="2">0</pdfrwt>
<totfact> 0.15643578E+00</totfact>
</mgrwt>
</event>
<event>
 6      1 +5.6466785e-02 5.59503900e+02 7.81860800e-03 9.99317800e-02
        1 -1    0    0  502    0 +0.0000000000e+00 +0.0000000000e+00 +7.8261147411e+01 7.8261147411e+01 0.0000000000e+00 0.0000e+00 1.0000e+00
       13 -1    0    0    0    0 -0.0000000000e+00 -0.0000000000e+00 -1.0000000000e+03 1.0000000000e+03 0.0000000000e+00 0.0000e+00 1.0000e+00
  9000005  2    1    2  501    0 -8.1486291492e-08 +9.6943605854e-07 -9.2173885491e+02 1.0782611449e+03 5.5950386946e+02 0.0000e+00 0.0000e+00
       13  1    3    3    0    0 +2.5730297091e+02 -8.2245683121e+01 -3.2067533974e+02 4.1928730573e+02 0.0000000000e+00 0.0000e+00 1.0000e+00
        1  1    3    3  501    0 -2.5730297099e+02 +8.2245684090e+01 -6.0106351517e+02 6.5897383916e+02 0.0000000000e+00 0.0000e+00 1.0000e+00
       21  1    1    2  502  501 +8.1486256470e-08 -9.6943606203e-07 +2.3193370775e-06 2.5151085002e-06 0.0000000000e+00 0.0000e+00 -1.0000e+00
<mgrwt>
<rscale>  1 0.55950387E+03</rscale>
<asrwt>0</asrwt>
<pdfrwt beam="1">  1        1 0.28458659E+00 0.55950387E+03</pdfrwt>
<pdfrwt beam="2">0</pdfrwt>
<totfact> 0.43310740E+00</totfact>
</mgrwt>
</event>
<event>
 6      1 +5.6466785e-02 6.32450800e+02 7.81860800e-03 9.84027800e-02
        1 -1    0    0  502    0 +0.0000000000e+00 +0.0000000000e+00 +9.9998631394e+01 9.9998631394e+01 0.0000000000e+00 0.0000e+00 1.0000e+00
       13 -1    0    0    0    0 -0.0000000000e+00 -0.0000000000e+00 -1.0000000000e+03 1.0000000000e+03 0.0000000000e+00 0.0000e+00 1.0000e+00
  9000005  2    1    2  501    0 +3.9962381893e-04 -2.8688442811e-05 -9.0000077970e+02 1.0999979191e+03 6.3245080331e+02 0.0000e+00 0.0000e+00
       13  1    3    3    0    0 +2.2838986511e+01 -4.0212459566e+01 +9.4085392929e+01 1.0483664613e+02 0.0000000000e+00 0.0000e+00 1.0000e+00
        3  1    3    3  501    0 -2.2838586887e+01 +4.0212430878e+01 -9.9408617263e+02 9.9516127299e+02 0.0000000000e+00 0.0000e+00 1.0000e+00
       21  1    1    2  502  501 -3.9962381893e-04 +2.8688442810e-05 -5.8890667173e-04 7.1227332634e-04 0.0000000000e+00 0.0000e+00 1.0000e+00
<mgrwt>
<rscale>  1 0.63245080E+03</rscale>
<asrwt>0</asrwt>
<pdfrwt beam="1">  1        1 0.36363215E+00 0.63245080E+03</pdfrwt>
<pdfrwt beam="2">0</pdfrwt>
<totfact> 0.19428559E+00</totfact>
</mgrwt>
</event>
<event>
 6      1 +5.6466785e-02 6.47346600e+02 7.81860800e-03 9.81177100e-02
        1 -1    0    0  502    0 +0.0000000000e+00 +0.0000000000e+00 +1.0476822624e+02 1.0476822624e+02 0.0000000000e+00 0.0000e+00 1.0000e+00
       13 -1    0    0    0    0 -0.0000000000e+00 -0.0000000000e+00 -1.0000000000e+03 1.0000000000e+03 0.0000000000e+00 0.0000e+00 1.0000e+00
  9000005  2    1    2  501    0 +8.8527524166e-03 -7.1098835557e-03 -8.9522097267e+02 1.1047525551e+03 6.4734659800e+02 0.0000e+00 0.0000e+00
       13  1    3    3    0    0 +2.8489464761e+01 +3.6067322815e+01 -9.9438924037e+02 9.9545088414e+02 0.0000000000e+00 0.0000e+00 1.0000e+00
        3  1    3    3  501    0 -2.8480612008e+01 -3.6074432698e+01 +9.9168267695e+01 1.0930167095e+02 0.0000000000e+00 0.0000e+00 1.0000e+00
       21  1    1    2  502  501 -8.8527524166e-03 +7.1098835557e-03 -1.0801081088e-02 1.5671152549e-02 0.0000000000e+00 0.0000e+00 -1.0000e+00
<mgrwt>
<rscale>  1 0.64734660E+03</rscale>
<asrwt>0</asrwt>
<pdfrwt beam="1">  1        1 0.38097617E+00 0.64734660E+03</pdfrwt>
<pdfrwt beam="2">0</pdfrwt>
<totfact> 0.16255671E+00</totfact>
</mgrwt>
</event>
<event>
 6      1 +5.6466785e-02 6.46375200e+02 7.81860800e-03 9.81360500e-02
        1 -1    0    0  502    0 +0.0000000000e+00 +0.0000000000e+00 +1.0446977912e+02 1.0446977912e+02 0.0000000000e+00 0.0000e+00 1.0000e+00
       13 -1    0    0    0    0 -0.0000000000e+00 -0.0000000000e+00 -1.0000000000e+03 1.0000000000e+03 0.0000000000e+00 0.0000e+00 1.0000e+00
  9000005  2    1    2  501    0 -3.8487192145e-04 +1.1432468054e-04 -8.9554978780e+02 1.1044502081e+03 6.4637515399e+02 0.0000e+00 0.0000e+00
       13  1    3    3    0    0 -2.0200991016e+02 +1.7992903396e+02 -1.4563353753e+02 3.0723214077e+02 0.0000000000e+00 0.0000e+00 1.0000e+00
        3  1    3    3  501    0 +2.0200952529e+02 -1.7992891964e+02 -7.4991625027e+02 7.9721806731e+02 0.0000000000e+00 0.0000e+00 1.0000e+00
       21  1    1    2  502  501 +3.8487192144e-04 -1.1432468052e-04 +1.9566918116e-02 1.9571036792e-02 0.0000000000e+00 0.0000e+00 1.0000e+00
<mgrwt>
<rscale>  1 0.64637515E+03</rscale>
<asrwt>0</asrwt>
<pdfrwt beam="1">  1        1 0.37989091E+00 0.64637515E+03</pdfrwt>
<pdfrwt beam="2">0</pdfrwt>
<totfact> 0.16438869E+00</totfact>
</mgrwt>
</event>
<event>
 6      1 +5.6466785e-02 6.56186400e+02 7.81860800e-03 9.79524000e-02
        1 -1    0    0  502    0 +0.0000000000e+00 +0.0000000000e+00 +1.0826728610e+02 1.0826728610e+02 0.0000000000e+00 0.0000e+00 1.0000e+00
       13 -1    0    0    0    0 -0.0000000000e+00 -0.0000000000e+00 -1.0000000000e+03 1.0000000000e+03 0.0000000000e+00 0.0000e+00 1.0000e+00
  9000005  2    1    2  501    0 +2.3761643252e-02 -2.5410782180e-02 -8.9235431502e+02 1.1076447122e+03 6.5618639403e+02 0.0000e+00 0.0000e+00
       13  1    3    3    0    0 -1.5689392627e+02 -9.7727182618e+01 -9.0373739045e+02 9.2244651726e+02 0.0000000000e+00 0.0000e+00 1.0000e+00
        1  1    3    3  501    0 +1.5691768791e+02 +9.7701771836e+01 +1.1383075430e+01 1.8519819493e+02 0.0000000000e+00 0.0000e+00 1.0000e+00
       21  1    1    2  502  501 -2.3761643252e-02 +2.5410782180e-02 +6.2160111450e-01 6.2257390652e-01 0.0000000000e+00 0.0000e+00 -1.0000e+00
<mgrwt>
<rscale>  1 0.65618639E+03</rscale>
<asrwt>0</asrwt>
<pdfrwt beam="1">  1        1 0.39370005E+00 0.65618639E+03</pdfrwt>
<pdfrwt beam="2">0</pdfrwt>
<totfact> 0.14254274E+00</totfact>
</mgrwt>
</event>
<event>
 6      1 +5.6466785e-02 6.43370800e+02 7.81860800e-03 9.81929800e-02
        1 -1    0    0  502    0 +0.0000000000e+00 +0.0000000000e+00 +1.0348185411e+02 1.0348185411e+02 0.0000000000e+00 0.0000e+00 1.0000e+00
       13 -1    0    0    0    0 -0.0000000000e+00 -0.0000000000e+00 -1.0000000000e+03 1.0000000000e+03 0.0000000000e+00 0.0000e+00 1.0000e+00
  9000005  2    1    2  501    0 +7.1895913132e-04 -8.0402202252e-04 -8.9651685761e+02 1.1034801739e+03 6.4337082484e+02 0.0000e+00 0.0000e+00
       13  1    3    3    0    0 -1.2185294575e+02 +1.4016699703e+02 -8.9874766817e+02 9.1773759784e+02 0.0000000000e+00 0.0000e+00 1.0000e+00
        3  1    3    3  501    0 +1.2185366471e+02 -1.4016780105e+02 +2.2308105552e+00 1.8574257609e+02 0.0000000000e+00 0.0000e+00 1.0000e+00
       21  1    1    2  502  501 -7.1895913132e-04 +8.0402202252e-04 -1.2882789545e-03 1.6801834156e-03 0.0000000000e+00 0.0000e+00 -1.0000e+00
<mgrwt>
<rscale>  1 0.64337082E+03</rscale>
<asrwt>0</asrwt>
<pdfrwt beam="1">  1        1 0.37629844E+00 0.64337082E+03</pdfrwt>
<pdfrwt beam="2">0</pdfrwt>
<totfact> 0.17058766E+00</totfact>
</mgrwt>
</event>
<event>
 6      1 +5.6466785e-02 6.40506700e+02 7.81860800e-03 9.82475700e-02
        1 -1    0    0  502    0 +0.0000000000e+00 +0.0000000000e+00 +1.1004241285e+02 1.1004241285e+02 0.0000000000e+00 0.0000e+00 1.0000e+00
       13 -1    0    0    0    0 -0.0000000000e+00 -0.0000000000e+00 -1.0000000000e+03 1.0000000000e+03 0.0000000000e+00 0.0000e+00 1.0000e+00
  9000005  2    1    2  501    0 -1.6494990053e+01 +6.6018555827e-01 -8.8563660456e+02 1.0929780807e+03 6.4029397074e+02 0.0000e+00 0.0000e+00
       13  1    3    3    0    0 +5.0809806892e+01 -2.1061761804e+02 -8.3882216330e+02 8.6635099074e+02 0.0000000000e+00 0.0000e+00 1.0000e+00
        1  1    3    3  501    0 -6.7304796945e+01 +2.1127780360e+02 -4.6814441254e+01 2.2662708994e+02 0.0000000000e+00 0.0000e+00 1.0000e+00
       21  1    1    2  502  501 +1.6494990053e+01 -6.6018555827e-01 -4.3209825981e+00 1.7064332171e+01 0.0000000000e+00 0.0000e+00 1.0000e+00
<mgrwt>
<rscale>  1 0.64050674E+03</rscale>
<asrwt>0</asrwt>
<pdfrwt beam="1">  1        1 0.40015507E+00 0.64050674E+03</pdfrwt>
<pdfrwt beam="2">0</pdfrwt>
<totfact> 0.13381771E+00</totfact>
</mgrwt>
</event>
<event>
 6      1 +5.6466785e-02 6.50621600e+02 7.81860800e-03 9.80561300e-02
        1 -1    0    0  502    0 +0.0000000000e+00 +0.0000000000e+00 +1.0582715962e+02 1.0582715962e+02 0.0000000000e+00 0.0000e+00 1.0000e+00
       13 -1    0    0    0    0 -0.0000000000e+00 -0.0000000000e+00 -1.0000000000e+03 1.0000000000e+03 0.0000000000e+00 0.0000e+00 1.0000e+00
  9000005  2    1    2  501    0 +6.2849512915e-05 +1.2171416159e-05 -8.9417282990e+02 1.1058270948e+03 6.5062163640e+02 0.0000e+00 0.0000e+00
       13  1    3    3    0    0 -2.3576106346e+02 -1.1982079851e+02 -7.6906434390e+02 8.1326518913e+02 0.0000000000e+00 0.0000e+00 1.0000e+00
        1  1    3    3  501    0 +2.3576112631e+02 +1.1982081068e+02 -1.2510848601e+02 2.9256190562e+02 0.0000000000e+00 0.0000e+00 1.0000e+00
       21  1    1    2  502  501 -6.2849512919e-05 -1.2171416161e-05 -1.0475801412e-05 6.4868690913e-05 0.0000000000e+00 0.0000e+00 -1.0000e+00
<mgrwt>
<rscale>  1 0.65062164E+03</rscale>
<asrwt>0</asrwt>
<pdfrwt beam="1">  1        1 0.38482685E+00 0.65062164E+03</pdfrwt>
<pdfrwt beam="2">0</pdfrwt>
<totfact> 0.15621699E+00</totfact>
</mgrwt>
</event>
<event>
 6      1 +5.6466785e-02 6.52054100e+02 7.81860800e-03 9.80293200e-02
        1 -1    0    0  502    0 +0.0000000000e+00 +0.0000000000e+00 +1.0629364575e+02 1.0629364575e+02 0.0000000000e+00 0.0000e+00 1.0000e+00
       13 -1    0    0    0    0 -0.0000000000e+00 -0.0000000000e+00 -1.0000000000e+03 1.0000000000e+03 0.0000000000e+00 0.0000e+00 1.0000e+00
  9000005  2    1    2  501    0 -1.1580909927e-05 -4.2648312188e-06 -8.9370636133e+02 1.1062936315e+03 6.5205409197e+02 0.0000e+00 0.0000e+00
       13  1    3    3    0    0 -2.4974719989e+02 -1.2413810636e+02 -7.3332582642e+02 7.8457039264e+02 0.0000000000e+00 0.0000e+00 1.0000e+00
        1  1    3    3  501    0 +2.4974718831e+02 +1.2413810209e+02 -1.6038053491e+02 3.2172323888e+02 0.0000000000e+00 0.0000e+00 1.0000e+00
       21  1    1    2  502  501 +1.1580909918e-05 +4.2648312229e-06 +7.0836559529e-06 1.4229702792e-05 0.0000000000e+00 0.0000e+00 -1.0000e+00
<mgrwt>
<rscale>  1 0.65205409E+03</rscale>
<asrwt>0</asrwt>
<pdfrwt beam="1">  1        1 0.38652316E+00 0.65205409E+03</pdfrwt>
<pdfrwt beam="2">0</pdfrwt>
<totfact> 0.15349969E+00</totfact>
</mgrwt>
</event>
<event>
 6      1 +5.6466785e-02 6.55774200e+02 7.81860800e-03 9.79600400e-02
        1 -1    0    0  502    0 +0.0000000000e+00 +0.0000000000e+00 +1.1116408231e+02 1.1116408231e+02 0.0000000000e+00 0.0000e+00 1.0000e+00
       13 -1    0    0    0    0 -0.0000000000e+00 -0.0000000000e+00 -1.0000000000e+03 1.0000000000e+03 0.0000000000e+00 0.0000e+00 1.0000e+00
  9000005  2    1    2  501    0 -1.7876639950e+00 +7.1468753920e-01 -8.9220706384e+02 1.1072819248e+03 6.5577138519e+02 0.0000e+00 0.0000e+00
       13  1    3    3    0    0 +3.2593514689e+02 +6.9135671236e+00 -4.0186415571e+02 5.1747107845e+02 0.0000000000e+00 0.0000e+00 1.0000e+00
        3  1    3    3  501    0 -3.2772281089e+02 -6.1988795844e+00 -4.9034290813e+02 5.8981084632e+02 0.0000000000e+00 0.0000e+00 1.0000e+00
       21  1    1    2  502  501 +1.7876639950e+00 -7.1468753920e-01 +3.3711461430e+00 3.8821575387e+00 0.0000000000e+00 0.0000e+00 1.0000e+00
<mgrwt>
<rscale>  1 0.65577421E+03</rscale>
<asrwt>0</asrwt>
<pdfrwt beam="1">  1        1 0.40423388E+00 0.65577421E+03</pdfrwt>
<pdfrwt beam="2">0</pdfrwt>
<totfact> 0.12795052E+00</totfact>
</mgrwt>
</event>
<event>
 6      1 +5.6466785e-02 6.47527600e+02 7.81860800e-03 9.81142900e-02
        1 -1    0    0  502    0 +0.0000000000e+00 +0.0000000000e+00 +1.0484463841e+02 1.0484463841e+02 0.0000000000e+00 0.0000e+00 1.0000e+00
       13 -1    0    0    0    0 -0.0000000000e+00 -0.0000000000e+00 -1.0000000000e+03 1.0000000000e+03 0.0000000000e+00 0.0000e+00 1.0000e+00
  9000005  2    1    2  501    0 -2.2750182842e-02 -1.4456089161e-02 -8.9516729622e+02 1.1048151599e+03 6.4752764305e+02 0.0000e+00 0.0000e+00
       13  1    3    3    0    0 -1.9385018156e+02 +7.4176624565e+01 -8.7156233698e+02 8.9593580784e+02 0.0000000000e+00 0.0000e+00 1.0000e+00
        1  1    3    3  501    0 +1.9382743137e+02 -7.4191080654e+01 -2.3604959237e+01 2.0887935202e+02 0.0000000000e+00 0.0000e+00 1.0000e+00
       21  1    1    2  502  501 +2.2750182842e-02 +1.4456089161e-02 +1.1934627889e-02 2.9478546030e-02 0.0000000000e+00 0.0000e+00 1.0000e+00
<mgrwt>
<rscale>  1 0.64752764E+03</rscale>
<asrwt>0</asrwt>
<pdfrwt beam="1">  1        1 0.38125403E+00 0.64752764E+03</pdfrwt>
<pdfrwt beam="2">0</pdfrwt>
<totfact> 0.16209282E+00</totfact>
</mgrwt>
</event>
<event>
 6      1 +5.6466785e-02 6.45847500e+02 7.81860800e-03 9.81460200e-02
        1 -1    0    0  502    0 +0.0000000000e+00 +0.0000000000e+00 +1.0427980238e+02 1.0427980238e+02 0.0000000000e+00 0.0000e+00 1.0000e+00
       13 -1    0    0    0    0 -0.0000000000e+00 -0.0000000000e+00 -1.0000000000e+03 1.0000000000e+03 0.0000000000e+00 0.0000e+00 1.0000e+00
  9000005  2    1    2  501    0 +9.5805191336e-05 -1.0127351892e-04 -8.9572016226e+02 1.1042796586e+03 6.4584747055e+02 0.0000e+00 0.0000e+00
       13  1    3    3    0    0 +1.1245103918e+02 -8.5702229596e+00 +6.9513808445e+01 1.3247963805e+02 0.0000000000e+00 0.0000e+00 1.0000e+00
        3  1    3    3  501    0 -1.1245094337e+02 +8.5701216861e+00 -9.6523397070e+02 9.7180002050e+02 0.0000000000e+00 0.0000e+00 1.0000e+00
       21  1    1    2  502  501 -9.5805191325e-05 +1.0127351892e-04 -3.5368341776e-05 1.4382586665e-04 0.0000000000e+00 0.0000e+00 -1.0000e+00
<mgrwt>
<rscale>  1 0.64584747E+03</rscale>
<asrwt>0</asrwt>
<pdfrwt beam="1">  1        1 0.37920008E+00 0.64584747E+03</pdfrwt>
<pdfrwt beam="2">0</pdfrwt>
<totfact> 0.16556231E+00</totfact>
</mgrwt>
</event>
<event>
 6      1 +5.6466785e-02 6.52617800e+02 7.81860800e-03 9.80187900e-02
        1 -1    0    0  502    0 +0.0000000000e+00 +0.0000000000e+00 +1.0647750699e+02 1.0647750699e+02 0.0000000000e+00 0.0000e+00 1.0000e+00
       13 -1    0    0    0    0 -0.0000000000e+00 -0.0000000000e+00 -1.0000000000e+03 1.0000000000e+03 0.0000000000e+00 0.0000e+00 1.0000e+00
  9000005  2    1    2  501    0 +2.9637350281e-06 +4.2539832705e-06 -8.9352250386e+02 1.1064774950e+03 6.5261779163e+02 0.0000e+00 0.0000e+00
       13  1    3    3    0    0 +3.2457029956e+02 +3.3345474495e+01 -4.5428577594e+02 5.5931508674e+02 0.0000000000e+00 0.0000e+00 1.0000e+00
        3  1    3    3  501    0 -3.2457029660e+02 -3.3345470241e+01 -4.3923672792e+02 5.4716240822e+02 0.0000000000e+00 0.0000e+00 1.0000e+00
       21  1    1    2  502  501 -2.9637349929e-06 -4.2539832697e-06 +1.0853215511e-05 1.2027983442e-05 0.0000000000e+00 0.0000e+00 -1.0000e+00
<mgrwt>
<rscale>  1 0.65261779E+03</rscale>
<asrwt>0</asrwt>
<pdfrwt beam="1">  1        1 0.38719175E+00 0.65261779E+03</pdfrwt>
<pdfrwt beam="2">0</pdfrwt>
<totfact> 0.15244109E+00</totfact>
</mgrwt>
</event>
<event>
 6      1 +5.6466785e-02 6.44072300e+02 7.81860800e-03 9.81796600e-02
        1 -1    0    0  502    0 +0.0000000000e+00 +0.0000000000e+00 +1.0370827401e+02 1.0370827401e+02 0.0000000000e+00 0.0000e+00 1.0000e+00
       13 -1    0    0    0    0 -0.0000000000e+00 -0.0000000000e+00 -1.0000000000e+03 1.0000000000e+03 0.0000000000e+00 0.0000e+00 1.0000e+00
  9000005  2    1    2  501    0 +6.1342857221e-04 +3.5345246442e-04 -8.9629256974e+02 1.1037071726e+03 6.4407231911e+02 0.0000e+00 0.0000e+00
       13  1    3    3    0    0 -7.1009159563e+01 -1.4253961801e+02 +3.1511582126e+01 1.6233552677e+02 0.0000000000e+00 0.0000e+00 1.0000e+00
        1  1    3    3  501    0 +7.1009772992e+01 +1.4253997146e+02 -9.2780415187e+02 9.4137164581e+02 0.0000000000e+00 0.0000e+00 1.0000e+00
       21  1    1    2  502  501 -6.1342857221e-04 -3.5345246444e-04 +8.4375209738e-04 1.1014267382e-03 0.0000000000e+00 0.0000e+00 1.0000e+00
<mgrwt>
<rscale>  1 0.64407232E+03</rscale>
<asrwt>0</asrwt>
<pdfrwt beam="1">  1        1 0.37712179E+00 0.64407232E+03</pdfrwt>
<pdfrwt beam="2">0</pdfrwt>
<totfact> 0.16914716E+00</totfact>
</mgrwt>
</event>
<event>
 6      1 +5.6466785e-02 6.48805500e+02 7.81860800e-03 9.80902300e-02
        1 -1    0    0  502    0 +0.0000000000e+00 +0.0000000000e+00 +1.1055208869e+02 1.1055208869e+02 0.0000000000e+00 0.0000e+00 1.0000e+00
       13 -1    0    0    0    0 -0.0000000000e+00 -0.0000000000e+00 -1.0000000000e+03 1.0000000000e+03 0.0000000000e+00 0.0000e+00 1.0000e+00
  9000005  2    1    2  501    0 -2.0918988207e+00 +5.4064138347e-01 -8.9451908812e+02 1.1050398144e+03 6.4880191432e+02 0.0000e+00 0.0000e+00
       13  1    3    3    0    0 -1.9116056843e+01 +1.8364356225e+02 -9.0228584131e+02 9.2098323601e+02 0.0000000000e+00 0.0000e+00 1.0000e+00
        3  1    3    3  501    0 +1.7024158023e+01 -1.8310292087e+02 +7.7667531894e+00 1.8405657837e+02 0.0000000000e+00 0.0000e+00 1.0000e+00
       21  1    1    2  502  501 +2.0918988207e+00 -5.4064138347e-01 +5.0711768113e+00 5.5122743068e+00 0.0000000000e+00 0.0000e+00 -1.0000e+00
<mgrwt>
<rscale>  1 0.64880551E+03</rscale>
<asrwt>0</asrwt>
<pdfrwt beam="1">  1        1 0.40200844E+00 0.64880551E+03</pdfrwt>
<pdfrwt beam="2">0</pdfrwt>
<totfact> 0.13108620E+00</totfact>
</mgrwt>
</event>
<event>
 6      1 +5.6466785e-02 6.73096400e+02 7.81860800e-03 9.76438000e-02
        1 -1    0    0  502    0 +0.0000000000e+00 +0.0000000000e+00 +1.1334943465e+02 1.1334943465e+02 0.0000000000e+00 0.0000e+00 1.0000e+00
       13 -1    0    0    0    0 -0.0000000000e+00 -0.0000000000e+00 -1.0000000000e+03 1.0000000000e+03 0.0000000000e+00 0.0000e+00 1.0000e+00
  9000005  2    1    2  501    0 -9.4265596399e-02 -1.6644930210e-02 -8.8670403485e+02 1.1132397896e+03 6.7309640803e+02 0.0000e+00 0.0000e+00
       13  1    3    3    0    0 +2.0291016362e+02 -1.6096971134e+02 -7.9867718903e+02 8.3962434144e+02 0.0000000000e+00 0.0000e+00 1.0000e+00
        1  1    3    3  501    0 -2.0300442922e+02 +1.6095306641e+02 -8.8026845821e+01 2.7361544813e+02 0.0000000000e+00 0.0000e+00 1.0000e+00
       21  1    1    2  502  501 +9.4265596399e-02 +1.6644930210e-02 +5.3469504781e-02 1.0964508337e-01 0.0000000000e+00 0.0000e+00 1.0000e+00
<mgrwt>
<rscale>  1 0.67309641E+03</rscale>
<asrwt>0</asrwt>
<pdfrwt beam="1">  1        1 0.41218063E+00 0.67309641E+03</pdfrwt>
<pdfrwt beam="2">0</pdfrwt>
<totfact> 0.11749303E+00</totfact>
</mgrwt>
</event>
<event>
 6      1 +5.6466785e-02 6.53917700e+02 7.81860800e-03 9.79945600e-02
        1 -1    0    0  502    0 +0.0000000000e+00 +0.0000000000e+00 +1.0721712515e+02 1.0721712515e+02 0.0000000000e+00 0.0000e+00 1.0000e+00
       13 -1    0    0    0    0 -0.0000000000e+00 -0.0000000000e+00 -1.0000000000e+03 1.0000000000e+03 0.0000000000e+00 0.0000e+00 1.0000e+00
  9000005  2    1    2  501    0 +6.8153081448e-03 -6.1978978345e-04 -8.9309786685e+02 1.1069020588e+03 6.5391770737e+02 0.0000e+00 0.0000e+00
       13  1    3    3    0    0 +2.7441357921e+02 +7.9295648185e-01 -1.4564519785e+02 3.1067018668e+02 0.0000000000e+00 0.0000e+00 1.0000e+00
        1  1    3    3  501    0 -2.7440676390e+02 -7.9357627163e-01 -7.4745266899e+02 7.9623187215e+02 0.0000000000e+00 0.0000e+00 1.0000e+00
       21  1    1    2  502  501 -6.8153081448e-03 +6.1978978345e-04 +3.1499199736e-01 3.1506632788e-01 0.0000000000e+00 0.0000e+00 1.0000e+00
<mgrwt>
<rscale>  1 0.65391771E+03</rscale>
<asrwt>0</asrwt>
<pdfrwt beam="1">  1        1 0.38988128E+00 0.65391771E+03</pdfrwt>
<pdfrwt beam="2">0</pdfrwt>
<totfact> 0.14827889E+00</totfact>
</mgrwt>
</event>
<event>
 6      1 +5.6466785e-02 6.54509600e+02 7.81860800e-03 9.79835400e-02
        1 -1    0    0  502    0 +0.0000000000e+00 +0.0000000000e+00 +1.0711829126e+02 1.0711829126e+02 0.0000000000e+00 0.0000e+00 1.0000e+00
       13 -1    0    0    0    0 -0.0000000000e+00 -0.0000000000e+00 -1.0000000000e+03 1.0000000000e+03 0.0000000000e+00 0.0000e+00 1.0000e+00
  9000005  2    1    2  501    0 +1.5440367970e-03 -1.5095686407e-03 -8.9290423515e+02 1.1070956616e+03 6.5450961091e+02 0.0000e+00 0.0000e+00
       13  1    3    3    0    0 -1.8161676539e+02 -2.4411866216e+01 +1.2172343394e+01 1.8365389903e+02 0.0000000000e+00 0.0000e+00 1.0000e+00
        3  1    3    3  501    0 +1.8161830943e+02 +2.4410356647e+01 -9.0507657854e+02 9.2344176257e+02 0.0000000000e+00 0.0000e+00 1.0000e+00
       21  1    1    2  502  501 -1.5440367970e-03 +1.5095686407e-03 +2.2526401633e-02 2.2629662340e-02 0.0000000000e+00 0.0000e+00 1.0000e+00
<mgrwt>
<rscale>  1 0.65450961E+03</rscale>
<asrwt>0</asrwt>
<pdfrwt beam="1">  1        1 0.38952188E+00 0.65450961E+03</pdfrwt>
<pdfrwt beam="2">0</pdfrwt>
<totfact> 0.14880764E+00</totfact>
</mgrwt>
</event>
<event>
 6      1 +5.6466785e-02 6.03329100e+02 7.81860800e-03 9.89852300e-02
        1 -1    0    0  502    0 +0.0000000000e+00 +0.0000000000e+00 +9.1309811658e+01 9.1309811658e+01 0.0000000000e+00 0.0000e+00 1.0000e+00
       13 -1    0    0    0    0 -0.0000000000e+00 -0.0000000000e+00 -1.0000000000e+03 1.0000000000e+03 0.0000000000e+00 0.0000e+00 1.0000e+00
  9000005  2    1    2  501    0 -2.2343907769e-01 -2.8012843784e-01 -9.0888117706e+02 1.0909037653e+03 6.0332901696e+02 0.0000e+00 0.0000e+00
       13  1    3    3    0    0 -8.5059565193e+01 -8.2045473618e+01 +4.7443641688e+01 1.2734790343e+02 0.0000000000e+00 0.0000e+00 1.0000e+00
        1  1    3    3  501    0 +8.4836126115e+01 +8.1765345180e+01 -9.5632481875e+02 9.6355586186e+02 0.0000000000e+00 0.0000e+00 1.0000e+00
       21  1    1    2  502  501 +2.2343907769e-01 +2.8012843784e-01 +1.9098871798e-01 4.0604636869e-01 0.0000000000e+00 0.0000e+00 1.0000e+00
<mgrwt>
<rscale>  1 0.60332912E+03</rscale>
<asrwt>0</asrwt>
<pdfrwt beam="1">  1        1 0.33203638E+00 0.60332912E+03</pdfrwt>
<pdfrwt beam="2">0</pdfrwt>
<totfact> 0.26810112E+00</totfact>
</mgrwt>
</event>
<event>
 6      1 +5.6466785e-02 6.09084200e+02 7.81860800e-03 9.88673600e-02
        1 -1    0    0  502    0 +0.0000000000e+00 +0.0000000000e+00 +9.2747523781e+01 9.2747523781e+01 0.0000000000e+00 0.0000e+00 1.0000e+00
       13 -1    0    0    0    0 -0.0000000000e+00 -0.0000000000e+00 -1.0000000000e+03 1.0000000000e+03 0.0000000000e+00 0.0000e+00 1.0000e+00
  9000005  2    1    2  501    0 +1.4512454533e-04 +1.0944160735e-05 -9.0725411223e+02 1.0927458813e+03 6.0908417889e+02 0.0000e+00 0.0000e+00
       13  1    3    3    0    0 -2.1847658244e+02 +1.0676763901e+02 -7.8255830937e+02 8.1946864088e+02 0.0000000000e+00 0.0000e+00 1.0000e+00
        1  1    3    3  501    0 +2.1847672756e+02 -1.0676762807e+02 -1.2469580285e+02 2.7327724043e+02 0.0000000000e+00 0.0000e+00 1.0000e+00
       21  1    1    2  502  501 -1.4512454534e-04 -1.0944160734e-05 +1.6360071269e-03 1.6424677249e-03 0.0000000000e+00 0.0000e+00 -1.0000e+00
<mgrwt>
<rscale>  1 0.60908418E+03</rscale>
<asrwt>0</asrwt>
<pdfrwt beam="1">  1        1 0.33726443E+00 0.60908418E+03</pdfrwt>
<pdfrwt beam="2">0</pdfrwt>
<totfact> 0.25420479E+00</totfact>
</mgrwt>
</event>
<event>
 6      1 +5.6466785e-02 6.14209000e+02 7.81860800e-03 9.87635800e-02
        1 -1    0    0  502    0 +0.0000000000e+00 +0.0000000000e+00 +9.4313385200e+01 9.4313385200e+01 0.0000000000e+00 0.0000e+00 1.0000e+00
       13 -1    0    0    0    0 -0.0000000000e+00 -0.0000000000e+00 -1.0000000000e+03 1.0000000000e+03 0.0000000000e+00 0.0000e+00 1.0000e+00
  9000005  2    1    2  501    0 +2.3374446789e-04 +2.4547473001e-04 -9.0568666286e+02 1.0943130428e+03 6.1420900715e+02 0.0000e+00 0.0000e+00
       13  1    3    3    0    0 +2.7681108711e+02 +1.1560361056e+01 -2.1678013633e+02 3.5178352350e+02 0.0000000000e+00 0.0000e+00 1.0000e+00
        1  1    3    3  501    0 -2.7681085337e+02 -1.1560115582e+01 -6.8890652653e+02 7.4252951935e+02 0.0000000000e+00 0.0000e+00 1.0000e+00
       21  1    1    2  502  501 -2.3374446789e-04 -2.4547473001e-04 +4.8063347947e-05 3.4235128853e-04 0.0000000000e+00 0.0000e+00 1.0000e+00
<mgrwt>
<rscale>  1 0.61420901E+03</rscale>
<asrwt>0</asrwt>
<pdfrwt beam="1">  1        1 0.34295849E+00 0.61420901E+03</pdfrwt>
<pdfrwt beam="2">0</pdfrwt>
<totfact> 0.23991461E+00</totfact>
</mgrwt>
</event>
<event>
 6      1 +5.6466785e-02 6.54472800e+02 7.81860800e-03 9.79842200e-02
        1 -1    0    0  502    0 +0.0000000000e+00 +0.0000000000e+00 +1.0708381055e+02 1.0708381055e+02 0.0000000000e+00 0.0000e+00 1.0000e+00
       13 -1    0    0    0    0 -0.0000000000e+00 -0.0000000000e+00 -1.0000000000e+03 1.0000000000e+03 0.0000000000e+00 0.0000e+00 1.0000e+00
  9000005  2    1    2  501    0 -6.5075102498e-06 +9.4534478734e-06 -8.9291634508e+02 1.1070836545e+03 6.5447277924e+02 0.0000e+00 0.0000e+00
       13  1    3    3    0    0 -3.2026528981e+02 +6.4924245981e+01 -4.7569065490e+02 5.7711923615e+02 0.0000000000e+00 0.0000e+00 1.0000e+00
        1  1    3    3  501    0 +3.2026528330e+02 -6.4924236528e+01 -4.1722569018e+02 5.2996441835e+02 0.0000000000e+00 0.0000e+00 1.0000e+00
       21  1    1    2  502  501 +6.5075102149e-06 -9.4534478642e-06 +1.5562647270e-04 1.5604907680e-04 0.0000000000e+00 0.0000e+00 1.0000e+00
<mgrwt>
<rscale>  1 0.65447278E+03</rscale>
<asrwt>0</asrwt>
<pdfrwt beam="1">  1        1 0.38939650E+00 0.65447278E+03</pdfrwt>
<pdfrwt beam="2">0</pdfrwt>
<totfact> 0.14899926E+00</totfact>
</mgrwt>
</event>
<event>
 6      1 +5.6466785e-02 6.42706100e+02 7.81860800e-03 9.82056300e-02
        1 -1    0    0  502    0 +0.0000000000e+00 +0.0000000000e+00 +1.0341157954e+02 1.0341157954e+02 0.0000000000e+00 0.0000e+00 1.0000e+00
       13 -1    0    0    0    0 -0.0000000000e+00 -0.0000000000e+00 -1.0000000000e+03 1.0000000000e+03 0.0000000000e+00 0.0000e+00 1.0000e+00
  9000005  2    1    2  501    0 +1.6275010131e-02 -2.5912247798e-01 -8.9658972801e+02 1.1031519432e+03 6.4270599962e+02 0.0000e+00 0.0000e+00
       13  1    3    3    0    0 +2.5965468891e+02 +1.2960743304e+02 -6.8494572753e+02 7.4388795785e+02 0.0000000000e+00 0.0000e+00 1.0000e+00
        1  1    3    3  501    0 -2.5963841390e+02 -1.2986655551e+02 -2.1164400048e+02 3.5926398532e+02 0.0000000000e+00 0.0000e+00 1.0000e+00
       21  1    1    2  502  501 -1.6275010131e-02 +2.5912247798e-01 +1.3075509852e-03 2.5963636926e-01 0.0000000000e+00 0.0000e+00 -1.0000e+00
<mgrwt>
<rscale>  1 0.64270605E+03</rscale>
<asrwt>0</asrwt>
<pdfrwt beam="1">  1        1 0.37604290E+00 0.64270605E+03</pdfrwt>
<pdfrwt beam="2">0</pdfrwt>
<totfact> 0.17105113E+00</totfact>
</mgrwt>
</event>
<event>
 6      1 +5.6466785e-02 5.82320600e+02 7.81860800e-03 9.94277900e-02
        1 -1    0    0  502    0 +0.0000000000e+00 +0.0000000000e+00 +8.4774336336e+01 8.4774336336e+01 0.0000000000e+00 0.0000e+00 1.0000e+00
       13 -1    0    0    0    0 -0.0000000000e+00 -0.0000000000e+00 -1.0000000000e+03 1.0000000000e+03 0.0000000000e+00 0.0000e+00 1.0000e+00
  9000005  2    1    2  501    0 -8.7335959300e-06 -4.2291452473e-06 -9.1522566518e+02 1.0847743265e+03 5.8232063441e+02 0.0000e+00 0.0000e+00
       13  1    3    3    0    0 -2.2158841955e+01 -2.8526651683e+02 -3.5718599196e+02 4.5765689414e+02 0.0000000000e+00 0.0000e+00 1.0000e+00
        1  1    3    3  501    0 +2.2158833221e+01 +2.8526651260e+02 -5.5803967322e+02 6.2711743238e+02 0.0000000000e+00 0.0000e+00 1.0000e+00
       21  1    1    2  502  501 +8.7335959299e-06 +4.2291452685e-06 +1.5154297670e-06 9.8212980276e-06 0.0000000000e+00 0.0000e+00 1.0000e+00
<mgrwt>
<rscale>  1 0.58232063E+03</rscale>
<asrwt>0</asrwt>
<pdfrwt beam="1">  1        1 0.30827096E+00 0.58232063E+03</pdfrwt>
<pdfrwt beam="2">0</pdfrwt>
<totfact> 0.34094194E+00</totfact>
</mgrwt>
</event>
<event>
 6      1 +5.6466785e-02 6.52260300e+02 7.81860800e-03 9.80254700e-02
        1 -1    0    0  502    0 +0.0000000000e+00 +0.0000000000e+00 +1.0636110669e+02 1.0636110669e+02 0.0000000000e+00 0.0000e+00 1.0000e+00
       13 -1    0    0    0    0 -0.0000000000e+00 -0.0000000000e+00 -1.0000000000e+03 1.0000000000e+03 0.0000000000e+00 0.0000e+00 1.0000e+00
  9000005  2    1    2  501    0 -9.0408751419e-05 +1.4125830660e-04 -8.9363908147e+02 1.1063608546e+03 6.5226032590e+02 0.0000e+00 0.0000e+00
       13  1    3    3    0    0 +2.8439408696e+02 -1.1226886530e+02 -2.5434391491e+02 3.9771236072e+02 0.0000000000e+00 0.0000e+00 1.0000e+00
        3  1    3    3  501    0 -2.8439417737e+02 +1.1226900656e+02 -6.3929516656e+02 7.0864849392e+02 0.0000000000e+00 0.0000e+00 1.0000e+00
       21  1    1    2  502  501 +9.0408751440e-05 -1.4125830660e-04 +1.8815449797e-04 2.5205111908e-04 0.0000000000e+00 0.0000e+00 -1.0000e+00
<mgrwt>
<rscale>  1 0.65226033E+03</rscale>
<asrwt>0</asrwt>
<pdfrwt beam="1">  1        1 0.38676848E+00 0.65226033E+03</pdfrwt>
<pdfrwt beam="2">0</pdfrwt>
<totfact> 0.15311048E+00</totfact>
</mgrwt>
</event>
<event>
 6      1 +5.6466785e-02 6.54468100e+02 7.81860800e-03 9.79843100e-02
        3 -1    0    0  502    0 +0.0000000000e+00 +0.0000000000e+00 +1.0744689359e+02 1.0744689359e+02 0.0000000000e+00 0.0000e+00 1.0000e+00
       13 -1    0    0    0    0 -0.0000000000e+00 -0.0000000000e+00 -1.0000000000e+03 1.0000000000e+03 0.0000000000e+00 0.0000e+00 1.0000e+00
  9000005  2    1    2  501    0 -9.7430964131e-02 -7.2209938713e-02 -8.9290668453e+02 1.1070730961e+03 6.5446808796e+02 0.0000e+00 0.0000e+00
       13  1    3    3    0    0 +2.4364504955e+02 -2.0911560978e+00 -7.6995428660e+01 2.5552999656e+02 0.0000000000e+00 0.0000e+00 1.0000e+00
        3  1    3    3  501    0 -2.4374248052e+02 +2.0189461591e+00 -8.1591125587e+02 8.5154309956e+02 0.0000000000e+00 0.0000e+00 1.0000e+00
       21  1    1    2  502  501 +9.7430964131e-02 +7.2209938713e-02 +3.5357811482e-01 3.7379747364e-01 0.0000000000e+00 0.0000e+00 1.0000e+00
<mgrwt>
<rscale>  1 0.65446810E+03</rscale>
<asrwt>0</asrwt>
<pdfrwt beam="1">  1        3 0.39071680E+00 0.65446810E+03</pdfrwt>
<pdfrwt beam="2">0</pdfrwt>
<totfact> 0.66223382E-02</totfact>
</mgrwt>
</event>
<event>
 6      1 +5.6466785e-02 6.49939100e+02 7.81860800e-03 9.80689300e-02
        1 -1    0    0  502    0 +0.0000000000e+00 +0.0000000000e+00 +1.0560522386e+02 1.0560522386e+02 0.0000000000e+00 0.0000e+00 1.0000e+00
       13 -1    0    0    0    0 -0.0000000000e+00 -0.0000000000e+00 -1.0000000000e+03 1.0000000000e+03 0.0000000000e+00 0.0000e+00 1.0000e+00
  9000005  2    1    2  501    0 -3.4654158867e-06 -3.3530866972e-07 -8.9439478476e+02 1.1056052146e+03 6.4993911982e+02 0.0000e+00 0.0000e+00
       13  1    3    3    0    0 -3.2056619886e+02 +5.3124809199e+01 -4.3953629898e+02 5.4660505974e+02 0.0000000000e+00 0.0000e+00 1.0000e+00
        1  1    3    3  501    0 +3.2056619539e+02 -5.3124809534e+01 -4.5485848577e+02 5.5900015483e+02 0.0000000000e+00 0.0000e+00 1.0000e+00
       21  1    1    2  502  501 +3.4654158841e-06 +3.3530866991e-07 +8.6196714509e-06 9.2962505923e-06 0.0000000000e+00 0.0000e+00 -1.0000e+00
<mgrwt>
<rscale>  1 0.64993912E+03</rscale>
<asrwt>0</asrwt>
<pdfrwt beam="1">  1        1 0.38401981E+00 0.64993912E+03</pdfrwt>
<pdfrwt beam="2">0</pdfrwt>
<totfact> 0.15752579E+00</totfact>
</mgrwt>
</event>
<event>
 6      1 +5.6466785e-02 6.48317500e+02 7.81860800e-03 9.80994100e-02
        1 -1    0    0  502    0 +0.0000000000e+00 +0.0000000000e+00 +1.0507889927e+02 1.0507889927e+02 0.0000000000e+00 0.0000e+00 1.0000e+00
       13 -1    0    0    0    0 -0.0000000000e+00 -0.0000000000e+00 -1.0000000000e+03 1.0000000000e+03 0.0000000000e+00 0.0000e+00 1.0000e+00
  9000005  2    1    2  501    0 -2.0540158516e-06 +6.0828021446e-06 -8.9492109375e+02 1.1050788898e+03 6.4831750602e+02 0.0000e+00 0.0000e+00
       13  1    3    3    0    0 +1.9422974482e+02 -1.6431179804e+02 -1.0504299632e+02 2.7524097047e+02 0.0000000000e+00 0.0000e+00 1.0000e+00
        1  1    3    3  501    0 -1.9422974687e+02 +1.6431180412e+02 -7.8987809743e+02 8.2983791932e+02 0.0000000000e+00 0.0000e+00 1.0000e+00
       21  1    1    2  502  501 +2.0540158579e-06 -6.0828021167e-06 -6.9786937912e-06 9.4827016069e-06 0.0000000000e+00 0.0000e+00 -1.0000e+00
<mgrwt>
<rscale>  1 0.64831751E+03</rscale>
<asrwt>0</asrwt>
<pdfrwt beam="1">  1        1 0.38210589E+00 0.64831751E+03</pdfrwt>
<pdfrwt beam="2">0</pdfrwt>
<totfact> 0.16067152E+00</totfact>
</mgrwt>
</event>
<event>
 6      1 +5.6466785e-02 6.50635600e+02 7.81860800e-03 9.80558700e-02
        1 -1    0    0  502    0 +0.0000000000e+00 +0.0000000000e+00 +1.0585928455e+02 1.0585928455e+02 0.0000000000e+00 0.0000e+00 1.0000e+00
       13 -1    0    0    0    0 -0.0000000000e+00 -0.0000000000e+00 -1.0000000000e+03 1.0000000000e+03 0.0000000000e+00 0.0000e+00 1.0000e+00
  9000005  2    1    2  501    0 +4.0061502142e-04 -4.6104212572e-05 -8.9416831806e+02 1.1058316790e+03 6.5063562865e+02 0.0000e+00 0.0000e+00
       13  1    3    3    0    0 -2.6835030187e+02 +1.8081572238e+02 -5.0409979831e+02 5.9901821060e+02 0.0000000000e+00 0.0000e+00 1.0000e+00
        3  1    3    3  501    0 +2.6835070249e+02 -1.8081576848e+02 -3.9006851975e+02 5.0681346840e+02 0.0000000000e+00 0.0000e+00 1.0000e+00
       21  1    1    2  502  501 -4.0061502140e-04 +4.6104212551e-05 +2.7602606737e-02 2.7605552280e-02 0.0000000000e+00 0.0000e+00 1.0000e+00
<mgrwt>
<rscale>  1 0.65063563E+03</rscale>
<asrwt>0</asrwt>
<pdfrwt beam="1">  1        1 0.38494366E+00 0.65063563E+03</pdfrwt>
<pdfrwt beam="2">0</pdfrwt>
<totfact> 0.15603084E+00</totfact>
</mgrwt>
</event>
<event>
 6      1 +5.6466785e-02 6.45907800e+02 7.81860800e-03 9.81448800e-02
        1 -1    0    0  502    0 +0.0000000000e+00 +0.0000000000e+00 +1.0429923297e+02 1.0429923297e+02 0.0000000000e+00 0.0000e+00 1.0000e+00
       13 -1    0    0    0    0 -0.0000000000e+00 -0.0000000000e+00 -1.0000000000e+03 1.0000000000e+03 0.0000000000e+00 0.0000e+00 1.0000e+00
  9000005  2    1    2  501    0 -2.3598705639e-06 +2.5060711124e-06 -8.9570077831e+02 1.1042992212e+03 6.4590779965e+02 0.0000e+00 0.0000e+00
       13  1    3    3    0    0 +3.0965746752e+02 -9.0674171690e+01 -4.2430460635e+02 5.3305154682e+02 0.0000000000e+00 0.0000e+00 1.0000e+00
        3  1    3    3  501    0 -3.0965746988e+02 +9.0674174196e+01 -4.7139617196e+02 5.7124767436e+02 0.0000000000e+00 0.0000e+00 1.0000e+00
       21  1    1    2  502  501 +2.3598705952e-06 -2.5060711057e-06 +1.1277023308e-05 1.1790701264e-05 0.0000000000e+00 0.0000e+00 -1.0000e+00
<mgrwt>
<rscale>  1 0.64590780E+03</rscale>
<asrwt>0</asrwt>
<pdfrwt beam="1">  1        1 0.37927074E+00 0.64590780E+03</pdfrwt>
<pdfrwt beam="2">0</pdfrwt>
<totfact> 0.16544171E+00</totfact>
</mgrwt>
</event>
<event>
 6      1 +5.6466785e-02 6.47394500e+02 7.81860800e-03 9.81168100e-02
        1 -1    0    0  502    0 +0.0000000000e+00 +0.0000000000e+00 +1.0557367332e+02 1.0557367332e+02 0.0000000000e+00 0.0000e+00 1.0000e+00
       13 -1    0    0    0    0 -0.0000000000e+00 -0.0000000000e+00 -1.0000000000e+03 1.0000000000e+03 0.0000000000e+00 0.0000e+00 1.0000e+00
  9000005  2    1    2  501    0 +9.4604075033e-01 +2.1397763542e+00 -8.8983710499e+02 1.1004224995e+03 6.4739024582e+02 0.0000e+00 0.0000e+00
       13  1    3    3    0    0 -1.3681619244e+02 +9.1704336379e+01 +2.8799510584e+01 1.6720576436e+02 0.0000000000e+00 0.0000e+00 1.0000e+00
        3  1    3    3  501    0 +1.3776223319e+02 -8.9564560025e+01 -9.1863661557e+02 9.3321673515e+02 0.0000000000e+00 0.0000e+00 1.0000e+00
       21  1    1    2  502  501 -9.4604075033e-01 -2.1397763542e+00 -4.5892216908e+00 5.1511738152e+00 0.0000000000e+00 0.0000e+00 1.0000e+00
<mgrwt>
<rscale>  1 0.64739447E+03</rscale>
<asrwt>0</asrwt>
<pdfrwt beam="1">  1        1 0.38390508E+00 0.64739447E+03</pdfrwt>
<pdfrwt beam="2">0</pdfrwt>
<totfact> 0.15778400E+00</totfact>
</mgrwt>
</event>
<event>
 6      1 +5.6466785e-02 6.79979400e+02 7.81860800e-03 9.75209600e-02
        1 -1    0    0  502    0 +0.0000000000e+00 +0.0000000000e+00 +1.1559349149e+02 1.1559349149e+02 0.0000000000e+00 0.0000e+00 1.0000e+00
       13 -1    0    0    0    0 -0.0000000000e+00 -0.0000000000e+00 -1.0000000000e+03 1.0000000000e+03 0.0000000000e+00 0.0000e+00 1.0000e+00
  9000005  2    1    2  501    0 -1.6772766998e-05 +1.6628067369e-05 -8.8440698943e+02 1.1155930100e+03 6.7997944160e+02 0.0000e+00 0.0000e+00
       13  1    3    3    0    0 +2.2770963127e+02 -1.3911745047e+01 -2.8622810430e+01 2.2992276552e+02 0.0000000000e+00 0.0000e+00 1.0000e+00
        1  1    3    3  501    0 -2.2770964805e+02 +1.3911761675e+01 -8.5578417900e+02 8.8567024448e+02 0.0000000000e+00 0.0000e+00 1.0000e+00
       21  1    1    2  502  501 +1.6772766986e-05 -1.6628067369e-05 +4.8091612004e-04 4.8149572465e-04 0.0000000000e+00 0.0000e+00 -1.0000e+00
<mgrwt>
<rscale>  1 0.67997944E+03</rscale>
<asrwt>0</asrwt>
<pdfrwt beam="1">  1        1 0.42034086E+00 0.67997944E+03</pdfrwt>
<pdfrwt beam="2">0</pdfrwt>
<totfact> 0.10781864E+00</totfact>
</mgrwt>
</event>
<event>
 6      1 +5.6466785e-02 6.53137400e+02 7.81860800e-03 9.80091000e-02
        1 -1    0    0  502    0 +0.0000000000e+00 +0.0000000000e+00 +1.0664712898e+02 1.0664712898e+02 0.0000000000e+00 0.0000e+00 1.0000e+00
       13 -1    0    0    0    0 -0.0000000000e+00 -0.0000000000e+00 -1.0000000000e+03 1.0000000000e+03 0.0000000000e+00 0.0000e+00 1.0000e+00
  9000005  2    1    2  501    0 -1.0425020207e-05 +1.5792027625e-05 -8.9335285014e+02 1.1066471008e+03 6.5313742111e+02 0.0000e+00 0.0000e+00
       13  1    3    3    0    0 -1.5008403809e+02 +8.9441732849e+01 -9.1415307484e+02 9.3069913844e+02 0.0000000000e+00 0.0000e+00 1.0000e+00
        1  1    3    3  501    0 +1.5008402767e+02 -8.9441717057e+01 +2.0800224694e+01 1.7594796236e+02 0.0000000000e+00 0.0000e+00 1.0000e+00
       21  1    1    2  502  501 +1.0425020216e-05 -1.5792027625e-05 -2.0879378937e-05 2.8178318753e-05 0.0000000000e+00 0.0000e+00 1.0000e+00
<mgrwt>
<rscale>  1 0.65313742E+03</rscale>
<asrwt>0</asrwt>
<pdfrwt beam="1">  1        1 0.38780856E+00 0.65313742E+03</pdfrwt>
<pdfrwt beam="2">0</pdfrwt>
<totfact> 0.15147065E+00</totfact>
</mgrwt>
</event>
<event>
 6      1 +5.6466785e-02 6.50332000e+02 7.81860800e-03 9.80615600e-02
        1 -1    0    0  502    0 +0.0000000000e+00 +0.0000000000e+00 +1.0924871845e+02 1.0924871845e+02 0.0000000000e+00 0.0000e+00 1.0000e+00
       13 -1    0    0    0    0 -0.0000000000e+00 -0.0000000000e+00 -1.0000000000e+03 1.0000000000e+03 0.0000000000e+00 0.0000e+00 1.0000e+00
  9000005  2    1    2  501    0 +3.2751004787e-01 +1.2116462932e-01 -8.9425747099e+02 1.1057251821e+03 6.5033193991e+02 0.0000e+00 0.0000e+00
       13  1    3    3    0    0 +2.3241888726e+01 +2.8864006272e+02 -6.9895972116e+02 7.5656986657e+02 0.0000000000e+00 0.0000e+00 1.0000e+00
        1  1    3    3  501    0 -2.2914378678e+01 -2.8851889809e+02 -1.9529774983e+02 3.4915531557e+02 0.0000000000e+00 0.0000e+00 1.0000e+00
       21  1    1    2  502  501 -3.2751004787e-01 -1.2116462932e-01 +3.5061894434e+00 3.5235363077e+00 0.0000000000e+00 0.0000e+00 -1.0000e+00
<mgrwt>
<rscale>  1 0.65033203E+03</rscale>
<asrwt>0</asrwt>
<pdfrwt beam="1">  1        1 0.39726890E+00 0.65033203E+03</pdfrwt>
<pdfrwt beam="2">0</pdfrwt>
<totfact> 0.13757889E+00</totfact>
</mgrwt>
</event>
<event>
 6      1 +5.6466785e-02 6.51472800e+02 7.81860800e-03 9.80401900e-02
        1 -1    0    0  502    0 +0.0000000000e+00 +0.0000000000e+00 +1.0610467122e+02 1.0610467122e+02 0.0000000000e+00 0.0000e+00 1.0000e+00
       13 -1    0    0    0    0 -0.0000000000e+00 -0.0000000000e+00 -1.0000000000e+03 1.0000000000e+03 0.0000000000e+00 0.0000e+00 1.0000e+00
  9000005  2    1    2  501    0 +3.0456278779e-05 +4.4335805742e-04 -8.9389566558e+02 1.1061041136e+03 6.5147283075e+02 0.0000e+00 0.0000e+00
       13  1    3    3    0    0 +1.4924390576e+02 +2.2425893446e+02 -1.3601167245e+02 3.0176976014e+02 0.0000000000e+00 0.0000e+00 1.0000e+00
        1  1    3    3  501    0 -1.4924387530e+02 -2.2425849110e+02 -7.5788399312e+02 8.0433435347e+02 0.0000000000e+00 0.0000e+00 1.0000e+00
       21  1    1    2  502  501 -3.0456278783e-05 -4.4335805742e-04 +3.3679801429e-04 5.5760815491e-04 0.0000000000e+00 0.0000e+00 -1.0000e+00
<mgrwt>
<rscale>  1 0.65147283E+03</rscale>
<asrwt>0</asrwt>
<pdfrwt beam="1">  1        1 0.38583598E+00 0.65147283E+03</pdfrwt>
<pdfrwt beam="2">0</pdfrwt>
<totfact> 0.15459504E+00</totfact>
</mgrwt>
</event>
<event>
 6      1 +5.6466785e-02 6.53423900e+02 7.81860800e-03 9.80037600e-02
        1 -1    0    0  502    0 +0.0000000000e+00 +0.0000000000e+00 +1.0718695524e+02 1.0718695524e+02 0.0000000000e+00 0.0000e+00 1.0000e+00
       13 -1    0    0    0    0 -0.0000000000e+00 -0.0000000000e+00 -1.0000000000e+03 1.0000000000e+03 0.0000000000e+00 0.0000e+00 1.0000e+00
  9000005  2    1    2  501    0 +1.8951930795e-02 +2.5095593693e-02 -8.9325869110e+02 1.1067402007e+03 6.5342389123e+02 0.0000e+00 0.0000e+00
       13  1    3    3    0    0 -9.0632163602e+01 +2.6573518671e+02 -1.6364431789e+02 3.2497513953e+02 0.0000000000e+00 0.0000e+00 1.0000e+00
        1  1    3    3  501    0 +9.0651115533e+01 -2.6571009112e+02 -7.2961437321e+02 7.8176506117e+02 0.0000000000e+00 0.0000e+00 1.0000e+00
       21  1    1    2  502  501 -1.8951930795e-02 -2.5095593693e-02 +4.4564633523e-01 4.4675454179e-01 0.0000000000e+00 0.0000e+00 -1.0000e+00
<mgrwt>
<rscale>  1 0.65342389E+03</rscale>
<asrwt>0</asrwt>
<pdfrwt beam="1">  1        1 0.38977157E+00 0.65342389E+03</pdfrwt>
<pdfrwt beam="2">0</pdfrwt>
<totfact> 0.14845869E+00</totfact>
</mgrwt>
</event>
<event>
 6      1 +5.6466785e-02 6.53421500e+02 7.81860800e-03 9.80038000e-02
        1 -1    0    0  502    0 +0.0000000000e+00 +0.0000000000e+00 +1.0683386177e+02 1.0683386177e+02 0.0000000000e+00 0.0000e+00 1.0000e+00
       13 -1    0    0    0    0 -0.0000000000e+00 -0.0000000000e+00 -1.0000000000e+03 1.0000000000e+03 0.0000000000e+00 0.0000e+00 1.0000e+00
  9000005  2    1    2  501    0 +1.1237474358e-02 -3.6227507963e-03 -8.9325968112e+02 1.1067395767e+03 6.5342148155e+02 0.0000e+00 0.0000e+00
       13  1    3    3    0    0 +8.7640459747e+01 +8.0735454157e+01 -9.6188411909e+02 9.6923687626e+02 0.0000000000e+00 0.0000e+00 1.0000e+00
        3  1    3    3  501    0 -8.7629222273e+01 -8.0739076907e+01 +6.8624437976e+01 1.3750270042e+02 0.0000000000e+00 0.0000e+00 1.0000e+00
       21  1    1    2  502  501 -1.1237474358e-02 +3.6227507963e-03 +9.3542888926e-02 9.4285084833e-02 0.0000000000e+00 0.0000e+00 1.0000e+00
<mgrwt>
<rscale>  1 0.65342148E+03</rscale>
<asrwt>0</asrwt>
<pdfrwt beam="1">  1        1 0.38848759E+00 0.65342148E+03</pdfrwt>
<pdfrwt beam="2">0</pdfrwt>
<totfact> 0.15041711E+00</totfact>
</mgrwt>
</event>
<event>
 6      1 +5.6466785e-02 6.52002700e+02 7.81860800e-03 9.80302800e-02
        1 -1    0    0  502    0 +0.0000000000e+00 +0.0000000000e+00 +1.0627695131e+02 1.0627695131e+02 0.0000000000e+00 0.0000e+00 1.0000e+00
       13 -1    0    0    0    0 -0.0000000000e+00 -0.0000000000e+00 -1.0000000000e+03 1.0000000000e+03 0.0000000000e+00 0.0000e+00 1.0000e+00
  9000005  2    1    2  501    0 -3.1895082780e-05 +1.2136433750e-04 -8.9372304049e+02 1.1062768256e+03 6.5200271600e+02 0.0000e+00 0.0000e+00
       13  1    3    3    0    0 -1.1087087551e+00 +2.3578583534e+01 -9.9854806923e+02 9.9882702476e+02 0.0000000000e+00 0.0000e+00 1.0000e+00
        3  1    3    3  501    0 +1.1086768600e+00 -2.3578462169e+01 +1.0482502873e+02 1.0744980080e+02 0.0000000000e+00 0.0000e+00 1.0000e+00
       21  1    1    2  502  501 +3.1895082780e-05 -1.2136433749e-04 -8.1942141335e-06 1.2575270918e-04 0.0000000000e+00 0.0000e+00 1.0000e+00
<mgrwt>
<rscale>  1 0.65200272E+03</rscale>
<asrwt>0</asrwt>
<pdfrwt beam="1">  1        1 0.38646246E+00 0.65200272E+03</pdfrwt>
<pdfrwt beam="2">0</pdfrwt>
<totfact> 0.15359616E+00</totfact>
</mgrwt>
</event>
<event>
 6      1 +5.6466785e-02 6.55508700e+02 7.81860800e-03 9.79649700e-02
        1 -1    0    0  502    0 +0.0000000000e+00 +0.0000000000e+00 +1.0742305638e+02 1.0742305638e+02 0.0000000000e+00 0.0000e+00 1.0000e+00
       13 -1    0    0    0    0 -0.0000000000e+00 -0.0000000000e+00 -1.0000000000e+03 1.0000000000e+03 0.0000000000e+00 0.0000e+00 1.0000e+00
  9000005  2    1    2  501    0 +2.5144729975e-05 -2.3247413878e-05 -8.9257707394e+02 1.1074229216e+03 6.5550872950e+02 0.0000e+00 0.0000e+00
       13  1    3    3    0    0 -9.6515137444e+01 +6.9260574241e+01 -9.6234924456e+02 9.6965368426e+02 0.0000000000e+00 0.0000e+00 1.0000e+00
        3  1    3    3  501    0 +9.6515162588e+01 -6.9260597489e+01 +6.9772170620e+01 1.3776923738e+02 0.0000000000e+00 0.0000e+00 1.0000e+00
       21  1    1    2  502  501 -2.5144729978e-05 +2.3247413875e-05 +1.3032350072e-04 1.3474759567e-04 0.0000000000e+00 0.0000e+00 1.0000e+00
<mgrwt>
<rscale>  1 0.65550873E+03</rscale>
<asrwt>0</asrwt>
<pdfrwt beam="1">  1        1 0.39063012E+00 0.65550873E+03</pdfrwt>
<pdfrwt beam="2">0</pdfrwt>
<totfact> 0.14710579E+00</totfact>
</mgrwt>
</event>
<event>
 6      1 +5.6466785e-02 6.52382600e+02 7.81860800e-03 9.80231900e-02
        1 -1    0    0  502    0 +0.0000000000e+00 +0.0000000000e+00 +1.0640081315e+02 1.0640081315e+02 0.0000000000e+00 0.0000e+00 1.0000e+00
       13 -1    0    0    0    0 -0.0000000000e+00 -0.0000000000e+00 -1.0000000000e+03 1.0000000000e+03 0.0000000000e+00 0.0000e+00 1.0000e+00
  9000005  2    1    2  501    0 +1.4536989283e-06 -1.3561792997e-05 -8.9359924414e+02 1.1064007543e+03 6.5238257173e+02 0.0000e+00 0.0000e+00
       13  1    3    3    0    0 -2.5193694792e+02 -1.4493182518e+02 -6.9790906883e+02 7.5601225389e+02 0.0000000000e+00 0.0000e+00 1.0000e+00
        1  1    3    3  501    0 +2.5193694937e+02 +1.4493181162e+02 -1.9569017531e+02 3.5038850037e+02 0.0000000000e+00 0.0000e+00 1.0000e+00
       21  1    1    2  502  501 -1.4536989216e-06 +1.3561792992e-05 +5.7291588859e-05 5.8892797723e-05 0.0000000000e+00 0.0000e+00 1.0000e+00
<mgrwt>
<rscale>  1 0.65238257E+03</rscale>
<asrwt>0</asrwt>
<pdfrwt beam="1">  1        1 0.38691286E+00 0.65238257E+03</pdfrwt>
<pdfrwt beam="2">0</pdfrwt>
<totfact> 0.15288182E+00</totfact>
</mgrwt>
</event>
<event>
 6      1 +5.6466785e-02 6.51892100e+02 7.81860800e-03 9.80323500e-02
        3 -1    0    0  502    0 +0.0000000000e+00 +0.0000000000e+00 +1.0632145053e+02 1.0632145053e+02 0.0000000000e+00 0.0000e+00 1.0000e+00
       13 -1    0    0    0    0 -0.0000000000e+00 -0.0000000000e+00 -1.0000000000e+03 1.0000000000e+03 0.0000000000e+00 0.0000e+00 1.0000e+00
  9000005  2    1    2  501    0 -3.0175682105e-03 +5.4656657143e-04 -8.9375913313e+02 1.1062408085e+03 6.5189212177e+02 0.0000e+00 0.0000e+00
       13  1    3    3    0    0 +3.1233123736e+02 -8.0041478013e+01 -5.2794944181e+02 6.1861785712e+02 0.0000000000e+00 0.0000e+00 1.0000e+00
        1  1    3    3  501    0 -3.1233425493e+02 +8.0042024580e+01 -3.6580969131e+02 4.8762295143e+02 0.0000000000e+00 0.0000e+00 1.0000e+00
       21  1    1    2  502  501 +3.0175682105e-03 -5.4656657144e-04 +8.0583655618e-02 8.0641986618e-02 0.0000000000e+00 0.0000e+00 1.0000e+00
<mgrwt>
<rscale>  1 0.65189212E+03</rscale>
<asrwt>0</asrwt>
<pdfrwt beam="1">  1        3 0.38662427E+00 0.65189212E+03</pdfrwt>
<pdfrwt beam="2">0</pdfrwt>
<totfact> 0.69621443E-02</totfact>
</mgrwt>
</event>
<event>
 6      1 +5.6466785e-02 6.49969000e+02 7.81860800e-03 9.80683700e-02
        1 -1    0    0  502    0 +0.0000000000e+00 +0.0000000000e+00 +1.0561506209e+02 1.0561506209e+02 0.0000000000e+00 0.0000e+00 1.0000e+00
       13 -1    0    0    0    0 -0.0000000000e+00 -0.0000000000e+00 -1.0000000000e+03 1.0000000000e+03 0.0000000000e+00 0.0000e+00 1.0000e+00
  9000005  2    1    2  501    0 +1.2399830132e-04 -2.5291464320e-04 -8.9438487780e+02 1.1056147741e+03 6.4996901389e+02 0.0000e+00 0.0000e+00
       13  1    3    3    0    0 +2.4735939169e+02 +1.9496113341e+02 -3.1091478157e+02 4.4256582968e+02 0.0000000000e+00 0.0000e+00 1.0000e+00
        1  1    3    3  501    0 -2.4735926770e+02 -1.9496138632e+02 -5.8347009623e+02 6.6304894440e+02 0.0000000000e+00 0.0000e+00 1.0000e+00
       21  1    1    2  502  501 -1.2399830131e-04 +2.5291464319e-04 -6.0105308193e-05 2.8801743617e-04 0.0000000000e+00 0.0000e+00 1.0000e+00
<mgrwt>
<rscale>  1 0.64996901E+03</rscale>
<asrwt>0</asrwt>
<pdfrwt beam="1">  1        1 0.38405558E+00 0.64996901E+03</pdfrwt>
<pdfrwt beam="2">0</pdfrwt>
<totfact> 0.15746756E+00</totfact>
</mgrwt>
</event>
<event>
 6      1 +5.6466785e-02 6.48333800e+02 7.81860800e-03 9.80991100e-02
        1 -1    0    0  502    0 +0.0000000000e+00 +0.0000000000e+00 +1.0547276955e+02 1.0547276955e+02 0.0000000000e+00 0.0000e+00 1.0000e+00
       13 -1    0    0    0    0 -0.0000000000e+00 -0.0000000000e+00 -1.0000000000e+03 1.0000000000e+03 0.0000000000e+00 0.0000e+00 1.0000e+00
  9000005  2    1    2  501    0 +7.6821533456e-02 +2.3758892162e-02 -8.9491123199e+02 1.1050804391e+03 6.4833375448e+02 0.0000e+00 0.0000e+00
       13  1    3    3    0    0 -1.4780047616e+02 -1.3469755303e+02 -8.8225814848e+02 9.0463686201e+02 0.0000000000e+00 0.0000e+00 1.0000e+00
        3  1    3    3  501    0 +1.4787729769e+02 +1.3472131192e+02 -1.2653083502e+01 2.0044357705e+02 0.0000000000e+00 0.0000e+00 1.0000e+00
       21  1    1    2  502  501 -7.6821533456e-02 -2.3758892162e-02 +3.8400153409e-01 3.9233048714e-01 0.0000000000e+00 0.0000e+00 1.0000e+00
<mgrwt>
<rscale>  1 0.64833376E+03</rscale>
<asrwt>0</asrwt>
<pdfrwt beam="1">  1        1 0.38353815E+00 0.64833376E+03</pdfrwt>
<pdfrwt beam="2">0</pdfrwt>
<totfact> 0.15834685E+00</totfact>
</mgrwt>
</event>
<event>
 6      1 +5.6466785e-02 6.57643100e+02 7.81860800e-03 9.79254200e-02
        1 -1    0    0  502    0 +0.0000000000e+00 +0.0000000000e+00 +1.0826146969e+02 1.0826146969e+02 0.0000000000e+00 0.0000e+00 1.0000e+00
       13 -1    0    0    0    0 -0.0000000000e+00 -0.0000000000e+00 -1.0000000000e+03 1.0000000000e+03 0.0000000000e+00 0.0000e+00 1.0000e+00
  9000005  2    1    2  501    0 +4.8151382010e-02 +1.4995700714e-02 -8.9187126359e+02 1.1081194783e+03 6.5764308319e+02 0.0000e+00 0.0000e+00
       13  1    3    3    0    0 -1.2989841362e+02 +2.3016911293e+02 -7.7555630845e+02 8.1935279702e+02 0.0000000000e+00 0.0000e+00 1.0000e+00
        3  1    3    3  501    0 +1.2994656501e+02 -2.3015411723e+02 -1.1631495514e+02 2.8876668129e+02 0.0000000000e+00 0.0000e+00 1.0000e+00
       21  1    1    2  502  501 -4.8151382010e-02 -1.4995700714e-02 +1.3273327539e-01 1.4199136954e-01 0.0000000000e+00 0.0000e+00 1.0000e+00
<mgrwt>
<rscale>  1 0.65764309E+03</rscale>
<asrwt>0</asrwt>
<pdfrwt beam="1">  1        1 0.39367890E+00 0.65764309E+03</pdfrwt>
<pdfrwt beam="2">0</pdfrwt>
<totfact> 0.14253491E+00</totfact>
</mgrwt>
</event>
<event>
 6      1 +5.6466785e-02 6.41922300e+02 7.81860800e-03 9.82205600e-02
        1 -1    0    0  502    0 +0.0000000000e+00 +0.0000000000e+00 +1.0301706195e+02 1.0301706195e+02 0.0000000000e+00 0.0000e+00 1.0000e+00
       13 -1    0    0    0    0 -0.0000000000e+00 -0.0000000000e+00 -1.0000000000e+03 1.0000000000e+03 0.0000000000e+00 0.0000e+00 1.0000e+00
  9000005  2    1    2  501    0 -1.9660294939e-03 -1.0662610464e-03 -8.9698232559e+02 1.1030147431e+03 6.4192229355e+02 0.0000e+00 0.0000e+00
       13  1    3    3    0    0 +1.3186322301e+02 +2.6833115536e+02 -6.4906781701e+02 7.1461776468e+02 0.0000000000e+00 0.0000e+00 1.0000e+00
        3  1    3    3  501    0 -1.3186518904e+02 -2.6833222162e+02 -2.4791450858e+02 3.8839697837e+02 0.0000000000e+00 0.0000e+00 1.0000e+00
       21  1    1    2  502  501 +1.9660294939e-03 +1.0662610464e-03 -6.1245827837e-04 2.3188983877e-03 0.0000000000e+00 0.0000e+00 1.0000e+00
<mgrwt>
<rscale>  1 0.64192229E+03</rscale>
<asrwt>0</asrwt>
<pdfrwt beam="1">  1        1 0.37460829E+00 0.64192229E+03</pdfrwt>
<pdfrwt beam="2">0</pdfrwt>
<totfact> 0.17358175E+00</totfact>
</mgrwt>
</event>
<event>
 6      1 +5.6466785e-02 6.61859200e+02 7.81860800e-03 9.78477700e-02
        1 -1    0    0  502    0 +0.0000000000e+00 +0.0000000000e+00 +1.0951450187e+02 1.0951450187e+02 0.0000000000e+00 0.0000e+00 1.0000e+00
       13 -1    0    0    0    0 -0.0000000000e+00 -0.0000000000e+00 -1.0000000000e+03 1.0000000000e+03 0.0000000000e+00 0.0000e+00 1.0000e+00
  9000005  2    1    2  501    0 -4.1295732416e-05 +2.2315295723e-05 -8.9048558767e+02 1.1095144008e+03 6.6185921740e+02 0.0000e+00 0.0000e+00
       13  1    3    3    0    0 -1.4366826710e+02 -2.9732024372e+02 -4.0872633849e+02 5.2544944387e+02 0.0000000000e+00 0.0000e+00 1.0000e+00
        3  1    3    3  501    0 +1.4366822580e+02 +2.9732026603e+02 -4.8175924919e+02 5.8406495690e+02 0.0000000000e+00 0.0000e+00 1.0000e+00
       21  1    1    2  502  501 +4.1295732390e-05 -2.2315295724e-05 +8.9545065864e-05 1.0110207099e-04 0.0000000000e+00 0.0000e+00 1.0000e+00
<mgrwt>
<rscale>  1 0.66185922E+03</rscale>
<asrwt>0</asrwt>
<pdfrwt beam="1">  1        1 0.39823539E+00 0.66185922E+03</pdfrwt>
<pdfrwt beam="2">0</pdfrwt>
<totfact> 0.13592750E+00</totfact>
</mgrwt>
</event>
<event>
 6      1 +5.6466785e-02 6.50707900e+02 7.81860800e-03 9.80545200e-02
        1 -1    0    0  502    0 +0.0000000000e+00 +0.0000000000e+00 +1.0592941717e+02 1.0592941717e+02 0.0000000000e+00 0.0000e+00 1.0000e+00
       13 -1    0    0    0    0 -0.0000000000e+00 -0.0000000000e+00 -1.0000000000e+03 1.0000000000e+03 0.0000000000e+00 0.0000e+00 1.0000e+00
  9000005  2    1    2  501    0 +1.3935333712e-03 +1.8480944703e-03 -8.9414477188e+02 1.1058551920e+03 6.5070794726e+02 0.0000e+00 0.0000e+00
       13  1    3    3    0    0 -8.2924008094e+01 +1.2338721653e+02 +4.4758818005e+01 1.5525510655e+02 0.0000000000e+00 0.0000e+00 1.0000e+00
        3  1    3    3  501    0 +8.2925401627e+01 -1.2338536844e+02 -9.3890358989e+02 9.5060008546e+02 0.0000000000e+00 0.0000e+00 1.0000e+00
       21  1    1    2  502  501 -1.3935333712e-03 -1.8480944703e-03 +7.4189053618e-02 7.4225151163e-02 0.0000000000e+00 0.0000e+00 -1.0000e+00
<mgrwt>
<rscale>  1 0.65070795E+03</rscale>
<asrwt>0</asrwt>
<pdfrwt beam="1">  1        1 0.38519869E+00 0.65070795E+03</pdfrwt>
<pdfrwt beam="2">0</pdfrwt>
<totfact> 0.15562399E+00</totfact>
</mgrwt>
</event>
<event>
 6      1 +5.6466785e-02 6.49992100e+02 7.81860800e-03 9.80679400e-02
        1 -1    0    0  502    0 +0.0000000000e+00 +0.0000000000e+00 +1.2082825929e+02 1.2082825929e+02 0.0000000000e+00 0.0000e+00 1.0000e+00
       13 -1    0    0    0    0 -0.0000000000e+00 -0.0000000000e+00 -1.0000000000e+03 1.0000000000e+03 0.0000000000e+00 0.0000e+00 1.0000e+00
  9000005  2    1    2  501    0 -3.2179237929e-01 +2.7143933564e-01 -8.9437435367e+02 1.1056198185e+03 6.4999193948e+02 0.0000e+00 0.0000e+00
       13  1    3    3    0    0 -1.2152768000e+02 +2.9749442178e+02 -3.6289835415e+02 4.8473407497e+02 0.0000000000e+00 0.0000e+00 1.0000e+00
        3  1    3    3  501    0 +1.2120588762e+02 -2.9722298244e+02 -5.3147599952e+02 6.2088574356e+02 0.0000000000e+00 0.0000e+00 1.0000e+00
       21  1    1    2  502  501 +3.2179237929e-01 -2.7143933564e-01 +1.5202612955e+01 1.5208440759e+01 0.0000000000e+00 0.0000e+00 -1.0000e+00
<mgrwt>
<rscale>  1 0.64999208E+03</rscale>
<asrwt>0</asrwt>
<pdfrwt beam="1">  1        1 0.43937641E+00 0.64999208E+03</pdfrwt>
<pdfrwt beam="2">0</pdfrwt>
<totfact> 0.88881239E-01</totfact>
</mgrwt>
</event>
<event>
 6      1 +5.6466785e-02 5.76771400e+02 7.81860800e-03 9.95480500e-02
        1 -1    0    0  502    0 +0.0000000000e+00 +0.0000000000e+00 +8.4713097499e+01 8.4713097499e+01 0.0000000000e+00 0.0000e+00 1.0000e+00
       13 -1    0    0    0    0 -0.0000000000e+00 -0.0000000000e+00 -1.0000000000e+03 1.0000000000e+03 0.0000000000e+00 0.0000e+00 1.0000e+00
  9000005  2    1    2  501    0 +2.3279570912e+00 +1.0542236961e-01 -9.1583317414e+02 1.0823195832e+03 5.7676671781e+02 0.0000e+00 0.0000e+00
       13  1    3    3    0    0 -1.7196887370e+02 -1.8838313387e+02 -7.0628241871e+02 7.5093032541e+02 0.0000000000e+00 0.0000e+00 1.0000e+00
        3  1    3    3  501    0 +1.7429683079e+02 +1.8848855624e+02 -2.0955075543e+02 3.3138925776e+02 0.0000000000e+00 0.0000e+00 1.0000e+00
       21  1    1    2  502  501 -2.3279570912e+00 -1.0542236961e-01 +5.4627164089e-01 2.3935143200e+00 0.0000000000e+00 0.0000e+00 1.0000e+00
<mgrwt>
<rscale>  1 0.57677143E+03</rscale>
<asrwt>0</asrwt>
<pdfrwt beam="1">  1        1 0.30804828E+00 0.57677143E+03</pdfrwt>
<pdfrwt beam="2">0</pdfrwt>
<totfact> 0.34203577E+00</totfact>
</mgrwt>
</event>
<event>
 6      1 +5.6466785e-02 6.45003400e+02 7.81860800e-03 9.81620000e-02
        1 -1    0    0  502    0 +0.0000000000e+00 +0.0000000000e+00 +1.0400928486e+02 1.0400928486e+02 0.0000000000e+00 0.0000e+00 1.0000e+00
       13 -1    0    0    0    0 -0.0000000000e+00 -0.0000000000e+00 -1.0000000000e+03 1.0000000000e+03 0.0000000000e+00 0.0000e+00 1.0000e+00
  9000005  2    1    2  501    0 +3.8754497591e-04 +4.1220733507e-04 -8.9599259857e+02 1.1040073183e+03 6.4500342800e+02 0.0000e+00 0.0000e+00
       13  1    3    3    0    0 -7.9981129898e+01 +3.0707773339e+01 +8.4173169919e+01 1.2010441714e+02 0.0000000000e+00 0.0000e+00 1.0000e+00
        1  1    3    3  501    0 +7.9981517442e+01 -3.0707361132e+01 -9.8016576849e+02 9.8390290114e+02 0.0000000000e+00 0.0000e+00 1.0000e+00
       21  1    1    2  502  501 -3.8754497590e-04 -4.1220733507e-04 +1.8834252237e-03 1.9665697467e-03 0.0000000000e+00 0.0000e+00 -1.0000e+00
<mgrwt>
<rscale>  1 0.64500343E+03</rscale>
<asrwt>0</asrwt>
<pdfrwt beam="1">  1        1 0.37821638E+00 0.64500343E+03</pdfrwt>
<pdfrwt beam="2">0</pdfrwt>
<totfact> 0.16725010E+00</totfact>
</mgrwt>
</event>
<event>
 6      1 +5.6466785e-02 6.46384800e+02 7.81860800e-03 9.81358700e-02
        1 -1    0    0  502    0 +0.0000000000e+00 +0.0000000000e+00 +1.0445334459e+02 1.0445334459e+02 0.0000000000e+00 0.0000e+00 1.0000e+00
       13 -1    0    0    0    0 -0.0000000000e+00 -0.0000000000e+00 -1.0000000000e+03 1.0000000000e+03 0.0000000000e+00 0.0000e+00 1.0000e+00
  9000005  2    1    2  501    0 -5.3199033800e-06 -2.9717976702e-07 -8.9554666904e+02 1.1044533300e+03 6.4638480925e+02 0.0000e+00 0.0000e+00
       13  1    3    3    0    0 -2.0031520188e+02 -1.0460376148e+02 -5.2982846671e+01 2.3211055353e+02 0.0000000000e+00 0.0000e+00 1.0000e+00
        1  1    3    3  501    0 +2.0031519656e+02 +1.0460376118e+02 -8.4256382237e+02 8.7234277643e+02 0.0000000000e+00 0.0000e+00 1.0000e+00
       21  1    1    2  502  501 +5.3199033653e-06 +2.9717976510e-07 +1.3634387175e-05 1.4638517728e-05 0.0000000000e+00 0.0000e+00 1.0000e+00
<mgrwt>
<rscale>  1 0.64638481E+03</rscale>
<asrwt>0</asrwt>
<pdfrwt beam="1">  1        1 0.37983114E+00 0.64638481E+03</pdfrwt>
<pdfrwt beam="2">0</pdfrwt>
<totfact> 0.16448824E+00</totfact>
</mgrwt>
</event>
<event>
 6      1 +5.6466785e-02 6.48132700e+02 7.81860800e-03 9.81028900e-02
        1 -1    0    0  502    0 +0.0000000000e+00 +0.0000000000e+00 +1.0501930854e+02 1.0501930854e+02 0.0000000000e+00 0.0000e+00 1.0000e+00
       13 -1    0    0    0    0 -0.0000000000e+00 -0.0000000000e+00 -1.0000000000e+03 1.0000000000e+03 0.0000000000e+00 0.0000e+00 1.0000e+00
  9000005  2    1    2  501    0 -5.1022030618e-06 -5.7793026912e-05 -8.9498100423e+02 1.1050189904e+03 6.4813268031e+02 0.0000e+00 0.0000e+00
       13  1    3    3    0    0 -2.4431863376e+02 -1.5328058418e+02 -1.9557364651e+02 3.4847608741e+02 0.0000000000e+00 0.0000e+00 1.0000e+00
        1  1    3    3  501    0 +2.4431862866e+02 +1.5328052639e+02 -6.9940735772e+02 7.5654290302e+02 0.0000000000e+00 0.0000e+00 1.0000e+00
       21  1    1    2  502  501 +5.1022030585e-06 +5.7793026896e-05 +3.1276473905e-04 3.1810037477e-04 0.0000000000e+00 0.0000e+00 1.0000e+00
<mgrwt>
<rscale>  1 0.64813268E+03</rscale>
<asrwt>0</asrwt>
<pdfrwt beam="1">  1        1 0.38188920E+00 0.64813268E+03</pdfrwt>
<pdfrwt beam="2">0</pdfrwt>
<totfact> 0.16103146E+00</totfact>
</mgrwt>
</event>
<event>
 6      1 +5.6466785e-02 6.56393400e+02 7.81860800e-03 9.79485600e-02
        1 -1    0    0  502    0 +0.0000000000e+00 +0.0000000000e+00 +1.0771313043e+02 1.0771313043e+02 0.0000000000e+00 0.0000e+00 1.0000e+00
       13 -1    0    0    0    0 -0.0000000000e+00 -0.0000000000e+00 -1.0000000000e+03 1.0000000000e+03 0.0000000000e+00 0.0000e+00 1.0000e+00
  9000005  2    1    2  501    0 -2.1778566634e-05 +3.8421735525e-05 -8.9228692898e+02 1.1077130564e+03 6.5639336657e+02 0.0000e+00 0.0000e+00
       13  1    3    3    0    0 -2.8402434592e+02 -5.5663728625e+01 -1.8500636968e+02 3.4350492949e+02 0.0000000000e+00 0.0000e+00 1.0000e+00
        3  1    3    3  501    0 +2.8402432414e+02 +5.5663767047e+01 -7.0728055930e+02 7.6420812691e+02 0.0000000000e+00 0.0000e+00 1.0000e+00
       21  1    1    2  502  501 +2.1778566678e-05 -3.8421735522e-05 +5.9413087554e-05 7.4030066188e-05 0.0000000000e+00 0.0000e+00 1.0000e+00
<mgrwt>
<rscale>  1 0.65639337E+03</rscale>
<asrwt>0</asrwt>
<pdfrwt beam="1">  1        1 0.39168494E+00 0.65639337E+03</pdfrwt>
<pdfrwt beam="2">0</pdfrwt>
<totfact> 0.14550492E+00</totfact>
</mgrwt>
</event>
<event>
 6      1 +5.6466785e-02 6.58948400e+02 7.81860800e-03 9.79013100e-02
        1 -1    0    0  502    0 +0.0000000000e+00 +0.0000000000e+00 +1.0855327238e+02 1.0855327238e+02 0.0000000000e+00 0.0000e+00 1.0000e+00
       13 -1    0    0    0    0 -0.0000000000e+00 -0.0000000000e+00 -1.0000000000e+03 1.0000000000e+03 0.0000000000e+00 0.0000e+00 1.0000e+00
  9000005  2    1    2  501    0 +3.1013810258e-06 -4.3504417562e-06 -8.9144674286e+02 1.1085532562e+03 6.5894842479e+02 0.0000e+00 0.0000e+00
       13  1    3    3    0    0 -2.5851847222e+02 -1.1158719009e+02 -1.5790753835e+02 3.2282858011e+02 0.0000000000e+00 0.0000e+00 1.0000e+00
        3  1    3    3  501    0 +2.5851847532e+02 +1.1158718574e+02 -7.3353920451e+02 7.8572467612e+02 0.0000000000e+00 0.0000e+00 1.0000e+00
       21  1    1    2  502  501 -3.1013810264e-06 +4.3504417549e-06 +1.5244566268e-05 1.6153690242e-05 0.0000000000e+00 0.0000e+00 1.0000e+00
<mgrwt>
<rscale>  1 0.65894842E+03</rscale>
<asrwt>0</asrwt>
<pdfrwt beam="1">  1        1 0.39474000E+00 0.65894842E+03</pdfrwt>
<pdfrwt beam="2">0</pdfrwt>
<totfact> 0.14096110E+00</totfact>
</mgrwt>
</event>
<event>
 6      1 +5.6466785e-02 6.54707500e+02 7.81860800e-03 9.79798600e-02
        1 -1    0    0  502    0 +0.0000000000e+00 +0.0000000000e+00 +1.0731171797e+02 1.0731171797e+02 0.0000000000e+00 0.0000e+00 1.0000e+00
       13 -1    0    0    0    0 -0.0000000000e+00 -0.0000000000e+00 -1.0000000000e+03 1.0000000000e+03 0.0000000000e+00 0.0000e+00 1.0000e+00
  9000005  2    1    2  501    0 +1.5452763094e-01 -3.3701775067e-02 -8.9279231531e+02 1.1071224100e+03 6.5470748228e+02 0.0000e+00 0.0000e+00
       13  1    3    3    0    0 -1.1985848514e+01 +6.7925406860e+01 +9.4735208420e+01 1.1718481632e+02 0.0000000000e+00 0.0000e+00 1.0000e+00
        1  1    3    3  501    0 +1.2140376145e+01 -6.7959108635e+01 -9.8752752373e+02 9.8993759364e+02 0.0000000000e+00 0.0000e+00 1.0000e+00
       21  1    1    2  502  501 -1.5452763094e-01 +3.3701775067e-02 +1.0403327720e-01 1.8930800598e-01 0.0000000000e+00 0.0000e+00 -1.0000e+00
<mgrwt>
<rscale>  1 0.65470750E+03</rscale>
<asrwt>0</asrwt>
<pdfrwt beam="1">  1        1 0.39022525E+00 0.65470750E+03</pdfrwt>
<pdfrwt beam="2">0</pdfrwt>
<totfact> 0.14773732E+00</totfact>
</mgrwt>
</event>
<event>
 6      1 +5.6466785e-02 6.55401900e+02 7.81860800e-03 9.79669500e-02
        1 -1    0    0  502    0 +0.0000000000e+00 +0.0000000000e+00 +1.0738793296e+02 1.0738793296e+02 0.0000000000e+00 0.0000e+00 1.0000e+00
       13 -1    0    0    0    0 -0.0000000000e+00 -0.0000000000e+00 -1.0000000000e+03 1.0000000000e+03 0.0000000000e+00 0.0000e+00 1.0000e+00
  9000005  2    1    2  501    0 +1.6517224253e-05 -2.2393583947e-06 -8.9261207693e+02 1.1073879136e+03 6.5540191583e+02 0.0000e+00 0.0000e+00
       13  1    3    3    0    0 -1.4149547492e+02 +2.2254977105e+02 -1.1763662159e+02 2.8876936257e+02 0.0000000000e+00 0.0000e+00 1.0000e+00
        3  1    3    3  501    0 +1.4149549144e+02 -2.2254977329e+02 -7.7497545534e+02 8.1861855101e+02 0.0000000000e+00 0.0000e+00 1.0000e+00
       21  1    1    2  502  501 -1.6517224271e-05 +2.2393583947e-06 +9.8891858617e-06 1.9381161489e-05 0.0000000000e+00 0.0000e+00 -1.0000e+00
<mgrwt>
<rscale>  1 0.65540192E+03</rscale>
<asrwt>0</asrwt>
<pdfrwt beam="1">  1        1 0.39050240E+00 0.65540192E+03</pdfrwt>
<pdfrwt beam="2">0</pdfrwt>
<totfact> 0.14730075E+00</totfact>
</mgrwt>
</event>
<event>
 6      1 +5.6466785e-02 6.37508500e+02 7.81860800e-03 9.83050500e-02
        1 -1    0    0  502    0 +0.0000000000e+00 +0.0000000000e+00 +1.0160659571e+02 1.0160659571e+02 0.0000000000e+00 0.0000e+00 1.0000e+00
       13 -1    0    0    0    0 -0.0000000000e+00 -0.0000000000e+00 -1.0000000000e+03 1.0000000000e+03 0.0000000000e+00 0.0000e+00 1.0000e+00
  9000005  2    1    2  501    0 -1.3571334307e-04 +2.0324799920e-04 -8.9839571324e+02 1.1016042739e+03 6.3750852434e+02 0.0000e+00 0.0000e+00
       13  1    3    3    0    0 -2.7559696260e+02 +1.5323984591e+02 -3.6873606971e+02 4.8518287817e+02 0.0000000000e+00 0.0000e+00 1.0000e+00
        1  1    3    3  501    0 +2.7559682688e+02 -1.5323964266e+02 -5.2965964354e+02 6.1642139569e+02 0.0000000000e+00 0.0000e+00 1.0000e+00
       21  1    1    2  502  501 +1.3571334304e-04 -2.0324799920e-04 +2.3089494511e-03 2.3218474171e-03 0.0000000000e+00 0.0000e+00 1.0000e+00
<mgrwt>
<rscale>  1 0.63750852E+03</rscale>
<asrwt>0</asrwt>
<pdfrwt beam="1">  1        1 0.36947931E+00 0.63750852E+03</pdfrwt>
<pdfrwt beam="2">0</pdfrwt>
<totfact> 0.18297859E+00</totfact>
</mgrwt>
</event>
<event>
 6      1 +5.6466785e-02 6.41224000e+02 7.81860800e-03 9.82338700e-02
        1 -1    0    0  502    0 +0.0000000000e+00 +0.0000000000e+00 +1.0296301440e+02 1.0296301440e+02 0.0000000000e+00 0.0000e+00 1.0000e+00
       13 -1    0    0    0    0 -0.0000000000e+00 -0.0000000000e+00 -1.0000000000e+03 1.0000000000e+03 0.0000000000e+00 0.0000e+00 1.0000e+00
  9000005  2    1    2  501    0 -3.8446948101e-02 +3.3632762644e-02 -8.9720371513e+02 1.1027886353e+03 6.4122403662e+02 0.0000e+00 0.0000e+00
       13  1    3    3    0    0 -1.4372460090e+02 +6.5987798598e+01 -9.2828663009e+02 9.4166194469e+02 0.0000000000e+00 0.0000e+00 1.0000e+00
        1  1    3    3  501    0 +1.4368615395e+02 -6.5954165835e+01 +3.1082914967e+01 1.6112669063e+02 0.0000000000e+00 0.0000e+00 1.0000e+00
       21  1    1    2  502  501 +3.8446948101e-02 -3.3632762644e-02 +1.6672952692e-01 1.7437908616e-01 0.0000000000e+00 0.0000e+00 1.0000e+00
<mgrwt>
<rscale>  1 0.64122404E+03</rscale>
<asrwt>0</asrwt>
<pdfrwt beam="1">  1        1 0.37441175E+00 0.64122404E+03</pdfrwt>
<pdfrwt beam="2">0</pdfrwt>
<totfact> 0.17395001E+00</totfact>
</mgrwt>
</event>
<event>
 6      1 +5.6466785e-02 6.45042100e+02 7.81860800e-03 9.81612700e-02
        1 -1    0    0  502    0 +0.0000000000e+00 +0.0000000000e+00 +1.0404823646e+02 1.0404823646e+02 0.0000000000e+00 0.0000e+00 1.0000e+00
       13 -1    0    0    0    0 -0.0000000000e+00 -0.0000000000e+00 -1.0000000000e+03 1.0000000000e+03 0.0000000000e+00 0.0000e+00 1.0000e+00
  9000005  2    1    2  501    0 -1.6804679411e-03 +1.2545311459e-03 -8.9598012971e+02 1.1040197929e+03 6.4504209957e+02 0.0000e+00 0.0000e+00
       13  1    3    3    0    0 +1.3329696592e+02 +1.5722919409e+02 -8.7254575781e+02 8.9656299281e+02 0.0000000000e+00 0.0000e+00 1.0000e+00
        3  1    3    3  501    0 -1.3329864638e+02 -1.5722793956e+02 -2.3434371898e+01 2.0745680006e+02 0.0000000000e+00 0.0000e+00 1.0000e+00
       21  1    1    2  502  501 +1.6804679411e-03 -1.2545311459e-03 +2.8366171938e-02 2.8443585065e-02 0.0000000000e+00 0.0000e+00 1.0000e+00
<mgrwt>
<rscale>  1 0.64504210E+03</rscale>
<asrwt>0</asrwt>
<pdfrwt beam="1">  1        1 0.37835802E+00 0.64504210E+03</pdfrwt>
<pdfrwt beam="2">0</pdfrwt>
<totfact> 0.16700861E+00</totfact>
</mgrwt>
</event>
<event>
 6      1 +5.6466785e-02 6.50194700e+02 7.81860800e-03 9.80641400e-02
        1 -1    0    0  502    0 +0.0000000000e+00 +0.0000000000e+00 +1.0568828428e+02 1.0568828428e+02 0.0000000000e+00 0.0000e+00 1.0000e+00
       13 -1    0    0    0    0 -0.0000000000e+00 -0.0000000000e+00 -1.0000000000e+03 1.0000000000e+03 0.0000000000e+00 0.0000e+00 1.0000e+00
  9000005  2    1    2  501    0 +4.0373263914e-06 +2.9849431940e-06 -8.9431171727e+02 1.1056882790e+03 6.5019468064e+02 0.0000e+00 0.0000e+00
       13  1    3    3    0    0 +1.5465567012e+02 -2.8514666594e+02 -4.1063230298e+02 5.2330286226e+02 0.0000000000e+00 0.0000e+00 1.0000e+00
        3  1    3    3  501    0 -1.5465566608e+02 +2.8514666893e+02 -4.8367941430e+02 5.8238541677e+02 0.0000000000e+00 0.0000e+00 1.0000e+00
       21  1    1    2  502  501 -4.0373264093e-06 -2.9849431843e-06 +1.5521495072e-06 5.2553837578e-06 0.0000000000e+00 0.0000e+00 -1.0000e+00
<mgrwt>
<rscale>  1 0.65019468E+03</rscale>
<asrwt>0</asrwt>
<pdfrwt beam="1">  1        1 0.38432184E+00 0.65019468E+03</pdfrwt>
<pdfrwt beam="2">0</pdfrwt>
<totfact> 0.15703475E+00</totfact>
</mgrwt>
</event>
<event>
 6      1 +5.6466785e-02 6.46458800e+02 7.81860800e-03 9.81344700e-02
        1 -1    0    0  502    0 +0.0000000000e+00 +0.0000000000e+00 +1.0448571851e+02 1.0448571851e+02 0.0000000000e+00 0.0000e+00 1.0000e+00
       13 -1    0    0    0    0 -0.0000000000e+00 -0.0000000000e+00 -1.0000000000e+03 1.0000000000e+03 0.0000000000e+00 0.0000e+00 1.0000e+00
  9000005  2    1    2  501    0 -4.3919932375e-03 -2.1333868881e-03 -8.9552197097e+02 1.1044766098e+03 6.4645880072e+02 0.0000e+00 0.0000e+00
       13  1    3    3    0    0 -2.0813433373e+02 +2.4608571920e+02 -4.0592783665e+02 5.1831987289e+02 0.0000000000e+00 0.0000e+00 1.0000e+00
        3  1    3    3  501    0 +2.0812994173e+02 -2.4608785259e+02 -4.8959413432e+02 5.8615673688e+02 0.0000000000e+00 0.0000e+00 1.0000e+00
       21  1    1    2  502  501 +4.3919932375e-03 +2.1333868881e-03 +7.6894826192e-03 9.1087368589e-03 0.0000000000e+00 0.0000e+00 1.0000e+00
<mgrwt>
<rscale>  1 0.64645880E+03</rscale>
<asrwt>0</asrwt>
<pdfrwt beam="1">  1        1 0.37994887E+00 0.64645880E+03</pdfrwt>
<pdfrwt beam="2">0</pdfrwt>
<totfact> 0.16428940E+00</totfact>
</mgrwt>
</event>
<event>
 6      1 +5.6466785e-02 5.91869000e+02 7.81860800e-03 9.92242000e-02
        1 -1    0    0  502    0 +0.0000000000e+00 +0.0000000000e+00 +8.7578253938e+01 8.7578253938e+01 0.0000000000e+00 0.0000e+00 1.0000e+00
       13 -1    0    0    0    0 -0.0000000000e+00 -0.0000000000e+00 -1.0000000000e+03 1.0000000000e+03 0.0000000000e+00 0.0000e+00 1.0000e+00
  9000005  2    1    2  501    0 -3.9703620658e-06 +1.2297046933e-04 -9.1242275716e+02 1.0875772354e+03 5.9186903545e+02 0.0000e+00 0.0000e+00
       13  1    3    3    0    0 +5.2080936961e+01 -1.3548469841e+02 -9.3009713994e+02 9.4135499001e+02 0.0000000000e+00 0.0000e+00 1.0000e+00
        3  1    3    3  501    0 -5.2080940932e+01 +1.3548482138e+02 +1.7674382779e+01 1.4622224536e+02 0.0000000000e+00 0.0000e+00 1.0000e+00
       21  1    1    2  502  501 +3.9703620631e-06 -1.2297046933e-04 +1.0110999627e-03 1.0185581155e-03 0.0000000000e+00 0.0000e+00 1.0000e+00
<mgrwt>
<rscale>  1 0.59186904E+03</rscale>
<asrwt>0</asrwt>
<pdfrwt beam="1">  1        1 0.31846705E+00 0.59186904E+03</pdfrwt>
<pdfrwt beam="2">0</pdfrwt>
<totfact> 0.30754105E+00</totfact>
</mgrwt>
</event>
<event>
 6      1 +5.6466785e-02 6.52913000e+02 7.81860800e-03 9.80132800e-02
        1 -1    0    0  502    0 +0.0000000000e+00 +0.0000000000e+00 +1.1959754576e+02 1.1959754576e+02 0.0000000000e+00 0.0000e+00 1.0000e+00
       13 -1    0    0    0    0 -0.0000000000e+00 -0.0000000000e+00 -1.0000000000e+03 1.0000000000e+03 0.0000000000e+00 0.0000e+00 1.0000e+00
  9000005  2    1    2  501    0 -1.8591915000e+00 -1.7220075024e+00 -8.9328959188e+02 1.1064636119e+03 6.5290811569e+02 0.0000e+00 0.0000e+00
       13  1    3    3    0    0 +1.0612920064e+02 -2.1297156864e+02 -6.7602433746e+01 2.4736690426e+02 0.0000000000e+00 0.0000e+00 1.0000e+00
        3  1    3    3  501    0 -1.0798839214e+02 +2.1124956114e+02 -8.2568715813e+02 8.5909670761e+02 0.0000000000e+00 0.0000e+00 1.0000e+00
       21  1    1    2  502  501 +1.8591915000e+00 +1.7220075024e+00 +1.2887137635e+01 1.3133933885e+01 0.0000000000e+00 0.0000e+00 1.0000e+00
<mgrwt>
<rscale>  1 0.65291303E+03</rscale>
<asrwt>0</asrwt>
<pdfrwt beam="1">  1        1 0.43490108E+00 0.65291303E+03</pdfrwt>
<pdfrwt beam="2">0</pdfrwt>
<totfact> 0.93104116E-01</totfact>
</mgrwt>
</event>
<event>
 6      1 +5.6466785e-02 6.47288200e+02 7.81860800e-03 9.81188100e-02
        1 -1    0    0  502    0 +0.0000000000e+00 +0.0000000000e+00 +1.0637453448e+02 1.0637453448e+02 0.0000000000e+00 0.0000e+00 1.0000e+00
       13 -1    0    0    0    0 -0.0000000000e+00 -0.0000000000e+00 -1.0000000000e+03 1.0000000000e+03 0.0000000000e+00 0.0000e+00 1.0000e+00
  9000005  2    1    2  501    0 +9.5857662488e-02 -8.7906672989e-02 -8.9525163547e+02 1.1047431716e+03 6.4728816411e+02 0.0000e+00 0.0000e+00
       13  1    3    3    0    0 +8.1481245748e+01 -2.1873627859e+02 -6.4951496927e+01 2.4228794838e+02 0.0000000000e+00 0.0000e+00 1.0000e+00
        3  1    3    3  501    0 -8.1385388086e+01 +2.1864837191e+02 -8.3030013854e+02 8.6245522318e+02 0.0000000000e+00 0.0000e+00 1.0000e+00
       21  1    1    2  502  501 -9.5857662488e-02 +8.7906672989e-02 +1.6261699415e+00 1.6313629128e+00 0.0000000000e+00 0.0000e+00 1.0000e+00
<mgrwt>
<rscale>  1 0.64728818E+03</rscale>
<asrwt>0</asrwt>
<pdfrwt beam="1">  1        1 0.38681730E+00 0.64728818E+03</pdfrwt>
<pdfrwt beam="2">0</pdfrwt>
<totfact> 0.15317549E+00</totfact>
</mgrwt>
</event>
<event>
 6      1 +5.6466785e-02 6.45821200e+02 7.81860800e-03 9.81465200e-02
        1 -1    0    0  502    0 +0.0000000000e+00 +0.0000000000e+00 +1.0442790310e+02 1.0442790310e+02 0.0000000000e+00 0.0000e+00 1.0000e+00
       13 -1    0    0    0    0 -0.0000000000e+00 -0.0000000000e+00 -1.0000000000e+03 1.0000000000e+03 0.0000000000e+00 0.0000e+00 1.0000e+00
  9000005  2    1    2  501    0 +1.2398207959e-01 +3.0190931235e-02 -8.9569951495e+02 1.1042475745e+03 6.4582123564e+02 0.0000e+00 0.0000e+00
       13  1    3    3    0    0 -9.1343143539e+01 +3.0941888317e+02 -4.7114348528e+02 5.7101646110e+02 0.0000000000e+00 0.0000e+00 1.0000e+00
        3  1    3    3  501    0 +9.1467125618e+01 -3.0938869224e+02 -4.2455602967e+02 5.3323111339e+02 0.0000000000e+00 0.0000e+00 1.0000e+00
       21  1    1    2  502  501 -1.2398207959e-01 -3.0190931235e-02 +1.2741804651e-01 1.8032860828e-01 0.0000000000e+00 0.0000e+00 1.0000e+00
<mgrwt>
<rscale>  1 0.64582125E+03</rscale>
<asrwt>0</asrwt>
<pdfrwt beam="1">  1        1 0.37973863E+00 0.64582125E+03</pdfrwt>
<pdfrwt beam="2">0</pdfrwt>
<totfact> 0.16465995E+00</totfact>
</mgrwt>
</event>
<event>
 6      1 +5.6466785e-02 6.49356000e+02 7.81860800e-03 9.80798800e-02
        1 -1    0    0  502    0 +0.0000000000e+00 +0.0000000000e+00 +1.1103954941e+02 1.1103954941e+02 0.0000000000e+00 0.0000e+00 1.0000e+00
       13 -1    0    0    0    0 -0.0000000000e+00 -0.0000000000e+00 -1.0000000000e+03 1.0000000000e+03 0.0000000000e+00 0.0000e+00 1.0000e+00
  9000005  2    1    2  501    0 +1.4337256753e-01 -2.2306448289e-02 -8.9458315418e+02 1.1054149740e+03 6.4935600703e+02 0.0000e+00 0.0000e+00
       13  1    3    3    0    0 -1.0032229812e+02 +2.8458689836e+02 -6.5110625666e+02 7.1763056212e+02 0.0000000000e+00 0.0000e+00 1.0000e+00
        1  1    3    3  501    0 +1.0046567069e+02 -2.8460920481e+02 -2.4347689752e+02 3.8778441185e+02 0.0000000000e+00 0.0000e+00 1.0000e+00
       21  1    1    2  502  501 -1.4337256753e-01 +2.2306448289e-02 +5.6227035931e+00 5.6245754477e+00 0.0000000000e+00 0.0000e+00 1.0000e+00
<mgrwt>
<rscale>  1 0.64935602E+03</rscale>
<asrwt>0</asrwt>
<pdfrwt beam="1">  1        1 0.40378103E+00 0.64935602E+03</pdfrwt>
<pdfrwt beam="2">0</pdfrwt>
<totfact> 0.12870575E+00</totfact>
</mgrwt>
</event>
<event>
 6      1 +5.6466785e-02 6.46553600e+02 7.81860800e-03 9.81326800e-02
        1 -1    0    0  502    0 +0.0000000000e+00 +0.0000000000e+00 +1.0925295237e+02 1.0925295237e+02 0.0000000000e+00 0.0000e+00 1.0000e+00
       13 -1    0    0    0    0 -0.0000000000e+00 -0.0000000000e+00 -1.0000000000e+03 1.0000000000e+03 0.0000000000e+00 0.0000e+00 1.0000e+00
  9000005  2    1    2  501    0 +1.3388008994e-01 -4.1346525856e-02 -8.9549096023e+02 1.1045069709e+03 6.4655360896e+02 0.0000e+00 0.0000e+00
       13  1    3    3    0    0 -1.8229705504e+02 +1.1873207374e+02 -3.9298933808e+01 2.2107448475e+02 0.0000000000e+00 0.0000e+00 1.0000e+00
        1  1    3    3  501    0 +1.8243093513e+02 -1.1877342027e+02 -8.5619202642e+02 8.8343248614e+02 0.0000000000e+00 0.0000e+00 1.0000e+00
       21  1    1    2  502  501 -1.3388008994e-01 +4.1346525856e-02 +4.7439125983e+00 4.7459814743e+00 0.0000000000e+00 0.0000e+00 1.0000e+00
<mgrwt>
<rscale>  1 0.64655362E+03</rscale>
<asrwt>0</asrwt>
<pdfrwt beam="1">  1        1 0.39728430E+00 0.64655362E+03</pdfrwt>
<pdfrwt beam="2">0</pdfrwt>
<totfact> 0.13765581E+00</totfact>
</mgrwt>
</event>
<event>
 6      1 +5.6466785e-02 6.58205300e+02 7.81860800e-03 9.79150300e-02
        1 -1    0    0  502    0 +0.0000000000e+00 +0.0000000000e+00 +1.0830877788e+02 1.0830877788e+02 0.0000000000e+00 0.0000e+00 1.0000e+00
       13 -1    0    0    0    0 -0.0000000000e+00 -0.0000000000e+00 -1.0000000000e+03 1.0000000000e+03 0.0000000000e+00 0.0000e+00 1.0000e+00
  9000005  2    1    2  501    0 -1.8125473503e-05 +3.5713243686e-04 -8.9169126329e+02 1.1083084179e+03 6.5820531769e+02 0.0000e+00 0.0000e+00
       13  1    3    3    0    0 +2.4764920684e+02 -2.1896896162e+00 -8.0901553188e+01 2.6053787767e+02 0.0000000000e+00 0.0000e+00 1.0000e+00
        3  1    3    3  501    0 -2.4764922497e+02 +2.1900467487e+00 -8.1078971010e+02 8.4777054026e+02 0.0000000000e+00 0.0000e+00 1.0000e+00
       21  1    1    2  502  501 +1.8125473491e-05 -3.5713243686e-04 +4.1173799503e-05 3.5995470828e-04 0.0000000000e+00 0.0000e+00 -1.0000e+00
<mgrwt>
<rscale>  1 0.65820532E+03</rscale>
<asrwt>0</asrwt>
<pdfrwt beam="1">  1        1 0.39385093E+00 0.65820532E+03</pdfrwt>
<pdfrwt beam="2">0</pdfrwt>
<totfact> 0.14226936E+00</totfact>
</mgrwt>
</event>
<event>
 6      1 +5.6466785e-02 6.48194900e+02 7.81860800e-03 9.81017200e-02
        1 -1    0    0  502    0 +0.0000000000e+00 +0.0000000000e+00 +1.0504294892e+02 1.0504294892e+02 0.0000000000e+00 0.0000e+00 1.0000e+00
       13 -1    0    0    0    0 -0.0000000000e+00 -0.0000000000e+00 -1.0000000000e+03 1.0000000000e+03 0.0000000000e+00 0.0000e+00 1.0000e+00
  9000005  2    1    2  501    0 +2.1884792224e-04 +1.8091706986e-04 -8.9496082845e+02 1.1050391609e+03 6.4819492644e+02 0.0000e+00 0.0000e+00
       13  1    3    3    0    0 +4.7133030922e+01 +1.4892813147e+02 -9.3158838622e+02 9.4459410981e+02 0.0000000000e+00 0.0000e+00 1.0000e+00
        1  1    3    3  501    0 -4.7132812075e+01 -1.4892795055e+02 +3.6627557778e+01 1.6044505108e+02 0.0000000000e+00 0.0000e+00 1.0000e+00
       21  1    1    2  502  501 -2.1884792224e-04 -1.8091706985e-04 +3.7773676573e-03 3.7880247911e-03 0.0000000000e+00 0.0000e+00 -1.0000e+00
<mgrwt>
<rscale>  1 0.64819493E+03</rscale>
<asrwt>0</asrwt>
<pdfrwt beam="1">  1        1 0.38197517E+00 0.64819493E+03</pdfrwt>
<pdfrwt beam="2">0</pdfrwt>
<totfact> 0.16088891E+00</totfact>
</mgrwt>
</event>
<event>
 6      1 +5.6466785e-02 6.47757600e+02 7.81860800e-03 9.81099600e-02
        1 -1    0    0  502    0 +0.0000000000e+00 +0.0000000000e+00 +1.0524309573e+02 1.0524309573e+02 0.0000000000e+00 0.0000e+00 1.0000e+00
       13 -1    0    0    0    0 -0.0000000000e+00 -0.0000000000e+00 -1.0000000000e+03 1.0000000000e+03 0.0000000000e+00 0.0000e+00 1.0000e+00
  9000005  2    1    2  501    0 -5.7389905028e-01 -6.9638851085e-02 -8.9481225636e+02 1.1046623432e+03 6.4775734968e+02 0.0000e+00 0.0000e+00
       13  1    3    3    0    0 +2.3738071533e+01 +2.6625303607e+02 -1.3561937841e+02 2.9974454300e+02 0.0000000000e+00 0.0000e+00 1.0000e+00
        1  1    3    3  501    0 -2.4311970583e+01 -2.6632267492e+02 -7.5919287795e+02 8.0491780017e+02 0.0000000000e+00 0.0000e+00 1.0000e+00
       21  1    1    2  502  501 +5.7389905028e-01 +6.9638851085e-02 +5.5352091413e-02 5.8075256652e-01 0.0000000000e+00 0.0000e+00 -1.0000e+00
<mgrwt>
<rscale>  1 0.64775761E+03</rscale>
<asrwt>0</asrwt>
<pdfrwt beam="1">  1        1 0.38270297E+00 0.64775761E+03</pdfrwt>
<pdfrwt beam="2">0</pdfrwt>
<totfact> 0.15971517E+00</totfact>
</mgrwt>
</event>
<event>
 6      1 +5.6466785e-02 6.57284700e+02 7.81860800e-03 9.79320500e-02
        1 -1    0    0  502    0 +0.0000000000e+00 +0.0000000000e+00 +1.0800660056e+02 1.0800660056e+02 0.0000000000e+00 0.0000e+00 1.0000e+00
       13 -1    0    0    0    0 -0.0000000000e+00 -0.0000000000e+00 -1.0000000000e+03 1.0000000000e+03 0.0000000000e+00 0.0000e+00 1.0000e+00
  9000005  2    1    2  501    0 -2.4587987150e-04 +1.7527587531e-05 -8.9199417826e+02 1.1080057837e+03 6.5728471956e+02 0.0000e+00 0.0000e+00
       13  1    3    3    0    0 -3.2034492027e+02 +7.2768502634e+01 -4.3002653374e+02 5.4114595317e+02 0.0000000000e+00 0.0000e+00 1.0000e+00
        1  1    3    3  501    0 +3.2034467439e+02 -7.2768485106e+01 -4.6196764452e+02 5.6685983048e+02 0.0000000000e+00 0.0000e+00 1.0000e+00
       21  1    1    2  502  501 +2.4587987146e-04 -1.7527587540e-05 +7.7881701366e-04 8.1689660807e-04 0.0000000000e+00 0.0000e+00 -1.0000e+00
<mgrwt>
<rscale>  1 0.65728472E+03</rscale>
<asrwt>0</asrwt>
<pdfrwt beam="1">  1        1 0.39275210E+00 0.65728472E+03</pdfrwt>
<pdfrwt beam="2">0</pdfrwt>
<totfact> 0.14390221E+00</totfact>
</mgrwt>
</event>
<event>
 6      1 +5.6466785e-02 6.53247800e+02 7.81860800e-03 9.80070400e-02
        1 -1    0    0  502    0 +0.0000000000e+00 +0.0000000000e+00 +1.0668523882e+02 1.0668523882e+02 0.0000000000e+00 0.0000e+00 1.0000e+00
       13 -1    0    0    0    0 -0.0000000000e+00 -0.0000000000e+00 -1.0000000000e+03 1.0000000000e+03 0.0000000000e+00 0.0000e+00 1.0000e+00
  9000005  2    1    2  501    0 +1.8570909958e-05 -2.1333599960e-05 -8.9331684163e+02 1.1066831582e+03 6.5324775780e+02 0.0000e+00 0.0000e+00
       13  1    3    3    0    0 -1.1137364478e+02 -1.3874485377e+02 -9.1070306920e+02 9.2791934102e+02 0.0000000000e+00 0.0000e+00 1.0000e+00
        1  1    3    3  501    0 +1.1137366335e+02 +1.3874483244e+02 +1.7386227571e+01 1.7876381716e+02 0.0000000000e+00 0.0000e+00 1.0000e+00
       21  1    1    2  502  501 -1.8570909958e-05 +2.1333599950e-05 +2.0804434250e-03 2.0806356831e-03 0.0000000000e+00 0.0000e+00 1.0000e+00
<mgrwt>
<rscale>  1 0.65324776E+03</rscale>
<asrwt>0</asrwt>
<pdfrwt beam="1">  1        1 0.38794714E+00 0.65324776E+03</pdfrwt>
<pdfrwt beam="2">0</pdfrwt>
<totfact> 0.15125360E+00</totfact>
</mgrwt>
</event>
<event>
 6      1 +5.6466785e-02 6.49144800e+02 7.81860800e-03 9.80838500e-02
        1 -1    0    0  502    0 +0.0000000000e+00 +0.0000000000e+00 +1.0534727155e+02 1.0534727155e+02 0.0000000000e+00 0.0000e+00 1.0000e+00
       13 -1    0    0    0    0 -0.0000000000e+00 -0.0000000000e+00 -1.0000000000e+03 1.0000000000e+03 0.0000000000e+00 0.0000e+00 1.0000e+00
  9000005  2    1    2  501    0 +6.8220200930e-05 +6.1436523310e-05 -8.9465264300e+02 1.1053471461e+03 6.4914479265e+02 0.0000e+00 0.0000e+00
       13  1    3    3    0    0 +8.9388280666e+01 +2.8101920245e+02 -2.1644367874e+02 3.6580038673e+02 0.0000000000e+00 0.0000e+00 1.0000e+00
        1  1    3    3  501    0 -8.9388212446e+01 -2.8101914101e+02 -6.7820896426e+02 7.3954675940e+02 0.0000000000e+00 0.0000e+00 1.0000e+00
       21  1    1    2  502  501 -6.8220200924e-05 -6.1436523294e-05 -8.5452187208e-05 1.2542136384e-04 0.0000000000e+00 0.0000e+00 -1.0000e+00
<mgrwt>
<rscale>  1 0.64914479E+03</rscale>
<asrwt>0</asrwt>
<pdfrwt beam="1">  1        1 0.38308180E+00 0.64914479E+03</pdfrwt>
<pdfrwt beam="2">0</pdfrwt>
<totfact> 0.15906011E+00</totfact>
</mgrwt>
</event>
<event>
 6      1 +5.6466785e-02 6.40113600e+02 7.81860800e-03 9.82550900e-02
        3 -1    0    0  502    0 +0.0000000000e+00 +0.0000000000e+00 +1.0243783778e+02 1.0243783778e+02 0.0000000000e+00 0.0000e+00 1.0000e+00
       13 -1    0    0    0    0 -0.0000000000e+00 -0.0000000000e+00 -1.0000000000e+03 1.0000000000e+03 0.0000000000e+00 0.0000e+00 1.0000e+00
  9000005  2    1    2  501    0 +1.6860862996e-04 +2.0139397975e-05 -8.9756365139e+02 1.1024363390e+03 6.4011356271e+02 0.0000e+00 0.0000e+00
       13  1    3    3    0    0 -3.1706336880e+02 +1.3398396892e+01 -3.7719749903e+02 4.9293676080e+02 0.0000000000e+00 0.0000e+00 1.0000e+00
        1  1    3    3  501    0 +3.1706353741e+02 -1.3398376753e+01 -5.2036615236e+02 6.0949957816e+02 0.0000000000e+00 0.0000e+00 1.0000e+00
       21  1    1    2  502  501 -1.6860862994e-04 -2.0139397976e-05 +1.4891733137e-03 1.4988234131e-03 0.0000000000e+00 0.0000e+00 1.0000e+00
<mgrwt>
<rscale>  1 0.64011356E+03</rscale>
<asrwt>0</asrwt>
<pdfrwt beam="1">  1        3 0.37250201E+00 0.64011356E+03</pdfrwt>
<pdfrwt beam="2">0</pdfrwt>
<totfact> 0.82829353E-02</totfact>
</mgrwt>
</event>
<event>
 6      1 +5.6466785e-02 6.65316800e+02 7.81860800e-03 9.77845500e-02
        1 -1    0    0  502    0 +0.0000000000e+00 +0.0000000000e+00 +1.1066181656e+02 1.1066181656e+02 0.0000000000e+00 0.0000e+00 1.0000e+00
       13 -1    0    0    0    0 -0.0000000000e+00 -0.0000000000e+00 -1.0000000000e+03 1.0000000000e+03 0.0000000000e+00 0.0000e+00 1.0000e+00
  9000005  2    1    2  501    0 +5.1583830047e-04 -2.5510549645e-04 -8.8933782926e+02 1.1106611408e+03 6.6531676307e+02 0.0000e+00 0.0000e+00
       13  1    3    3    0    0 +1.1869514719e+02 -2.1016613700e+02 -6.2520150122e+01 2.4933333567e+02 0.0000000000e+00 0.0000e+00 1.0000e+00
        1  1    3    3  501    0 -1.1869463135e+02 +2.1016588189e+02 -8.2681767913e+02 8.6132780516e+02 0.0000000000e+00 0.0000e+00 1.0000e+00
       21  1    1    2  502  501 -5.1583830048e-04 +2.5510549643e-04 -3.5417971888e-04 6.7573015311e-04 0.0000000000e+00 0.0000e+00 -1.0000e+00
<mgrwt>
<rscale>  1 0.66531676E+03</rscale>
<asrwt>0</asrwt>
<pdfrwt beam="1">  1        1 0.40240745E+00 0.66531676E+03</pdfrwt>
<pdfrwt beam="2">0</pdfrwt>
<totfact> 0.13014222E+00</totfact>
</mgrwt>
</event>
<event>
 6      1 +5.6466785e-02 6.39411200e+02 7.81860800e-03 9.82685400e-02
        1 -1    0    0  502    0 +0.0000000000e+00 +0.0000000000e+00 +1.0221305864e+02 1.0221305864e+02 0.0000000000e+00 0.0000e+00 1.0000e+00
       13 -1    0    0    0    0 -0.0000000000e+00 -0.0000000000e+00 -1.0000000000e+03 1.0000000000e+03 0.0000000000e+00 0.0000e+00 1.0000e+00
  9000005  2    1    2  501    0 +1.8230866849e-04 +2.7502807399e-04 -8.9778831518e+02 1.1022116458e+03 6.3941117691e+02 0.0000e+00 0.0000e+00
       13  1    3    3    0    0 +9.4179786209e+01 -2.8254832186e+02 -6.4924145527e+02 7.1429535457e+02 0.0000000000e+00 0.0000e+00 1.0000e+00
        1  1    3    3  501    0 -9.4179603901e+01 +2.8254859689e+02 -2.4854685991e+02 3.8791629118e+02 0.0000000000e+00 0.0000e+00 1.0000e+00
       21  1    1    2  502  501 -1.8230866849e-04 -2.7502807397e-04 +1.3738215597e-03 1.4128915634e-03 0.0000000000e+00 0.0000e+00 1.0000e+00
<mgrwt>
<rscale>  1 0.63941118E+03</rscale>
<asrwt>0</asrwt>
<pdfrwt beam="1">  1        1 0.37168463E+00 0.63941118E+03</pdfrwt>
<pdfrwt beam="2">0</pdfrwt>
<totfact> 0.17887998E+00</totfact>
</mgrwt>
</event>
<event>
 6      1 +5.6466785e-02 6.41272900e+02 7.81860800e-03 9.82329400e-02
        1 -1    0    0  502    0 +0.0000000000e+00 +0.0000000000e+00 +1.0281216003e+02 1.0281216003e+02 0.0000000000e+00 0.0000e+00 1.0000e+00
       13 -1    0    0    0    0 -0.0000000000e+00 -0.0000000000e+00 -1.0000000000e+03 1.0000000000e+03 0.0000000000e+00 0.0000e+00 1.0000e+00
  9000005  2    1    2  501    0 -2.2602945364e-06 -6.3928389295e-05 -8.9719225359e+02 1.1028077459e+03 6.4127294080e+02 0.0000e+00 0.0000e+00
       13  1    3    3    0    0 +2.5692676586e+02 +9.8477860496e+01 -7.3168929824e+02 7.8171508952e+02 0.0000000000e+00 0.0000e+00 1.0000e+00
        3  1    3    3  501    0 -2.5692676812e+02 -9.8477924425e+01 -1.6550295536e+02 3.2109265643e+02 0.0000000000e+00 0.0000e+00 1.0000e+00
       21  1    1    2  502  501 +2.2602945150e-06 +6.3928389298e-05 +4.4136204984e-03 4.4140840332e-03 0.0000000000e+00 0.0000e+00 1.0000e+00
<mgrwt>
<rscale>  1 0.64127294E+03</rscale>
<asrwt>0</asrwt>
<pdfrwt beam="1">  1        1 0.37386319E+00 0.64127294E+03</pdfrwt>
<pdfrwt beam="2">0</pdfrwt>
<totfact> 0.17491791E+00</totfact>
</mgrwt>
</event>
<event>
 6      1 +5.6466785e-02 6.41024000e+02 7.81860800e-03 9.82376900e-02
        1 -1    0    0  502    0 +0.0000000000e+00 +0.0000000000e+00 +1.0273811873e+02 1.0273811873e+02 0.0000000000e+00 0.0000e+00 1.0000e+00
       13 -1    0    0    0    0 -0.0000000000e+00 -0.0000000000e+00 -1.0000000000e+03 1.0000000000e+03 0.0000000000e+00 0.0000e+00 1.0000e+00
  9000005  2    1    2  501    0 -1.0413869029e-02 -1.8237638188e-03 -8.9726896118e+02 1.1027253947e+03 6.4102395228e+02 0.0000e+00 0.0000e+00
       13  1    3    3    0    0 +2.6990422301e+02 +4.1500824702e+01 -7.3727481756e+02 7.8622182916e+02 0.0000000000e+00 0.0000e+00 1.0000e+00
        3  1    3    3  501    0 -2.6991463687e+02 -4.1502648466e+01 -1.5999414362e+02 3.1650356558e+02 0.0000000000e+00 0.0000e+00 1.0000e+00
       21  1    1    2  502  501 +1.0413869029e-02 +1.8237638188e-03 +7.0799156557e-03 1.2723992625e-02 0.0000000000e+00 0.0000e+00 -1.0000e+00
<mgrwt>
<rscale>  1 0.64102395E+03</rscale>
<asrwt>0</asrwt>
<pdfrwt beam="1">  1        1 0.37359395E+00 0.64102395E+03</pdfrwt>
<pdfrwt beam="2">0</pdfrwt>
<totfact> 0.17540360E+00</totfact>
</mgrwt>
</event>
<event>
 6      1 +5.6466785e-02 6.48823500e+02 7.81860800e-03 9.80898900e-02
        1 -1    0    0  502    0 +0.0000000000e+00 +0.0000000000e+00 +1.0524318700e+02 1.0524318700e+02 0.0000000000e+00 0.0000e+00 1.0000e+00
       13 -1    0    0    0    0 -0.0000000000e+00 -0.0000000000e+00 -1.0000000000e+03 1.0000000000e+03 0.0000000000e+00 0.0000e+00 1.0000e+00
  9000005  2    1    2  501    0 -1.5493642167e-05 +4.1437142215e-06 -8.9475702627e+02 1.1052429731e+03 6.4882346874e+02 0.0000e+00 0.0000e+00
       13  1    3    3    0    0 +1.0397670090e+02 -1.5530628639e+02 +4.3164471804e+00 1.8694873265e+02 0.0000000000e+00 0.0000e+00 1.0000e+00
        1  1    3    3  501    0 -1.0397671640e+02 +1.5530629054e+02 -8.9907347345e+02 9.1829424048e+02 0.0000000000e+00 0.0000e+00 1.0000e+00
       21  1    1    2  502  501 +1.5493642174e-05 -4.1437142098e-06 +2.1327207616e-04 2.1387426630e-04 0.0000000000e+00 0.0000e+00 1.0000e+00
<mgrwt>
<rscale>  1 0.64882347E+03</rscale>
<asrwt>0</asrwt>
<pdfrwt beam="1">  1        1 0.38270331E+00 0.64882347E+03</pdfrwt>
<pdfrwt beam="2">0</pdfrwt>
<totfact> 0.15968326E+00</totfact>
</mgrwt>
</event>
<event>
 6      1 +5.6466785e-02 6.11864800e+02 7.81860800e-03 9.88109100e-02
        1 -1    0    0  502    0 +0.0000000000e+00 +0.0000000000e+00 +9.3602326941e+01 9.3602326941e+01 0.0000000000e+00 0.0000e+00 1.0000e+00
       13 -1    0    0    0    0 -0.0000000000e+00 -0.0000000000e+00 -1.0000000000e+03 1.0000000000e+03 0.0000000000e+00 0.0000e+00 1.0000e+00
  9000005  2    1    2  501    0 -4.0775919765e-03 -1.7877403033e-03 -9.0640464060e+02 1.0935940584e+03 6.1186484778e+02 0.0000e+00 0.0000e+00
       13  1    3    3    0    0 +2.7854554066e+02 -7.7888035000e+00 -2.2750758493e+02 3.5973321348e+02 0.0000000000e+00 0.0000e+00 1.0000e+00
        1  1    3    3  501    0 -2.7854961825e+02 +7.7870157597e+00 -6.7889705567e+02 7.3386084488e+02 0.0000000000e+00 0.0000e+00 1.0000e+00
       21  1    1    2  502  501 +4.0775919764e-03 +1.7877403033e-03 +6.9675445738e-03 8.2685820493e-03 0.0000000000e+00 0.0000e+00 1.0000e+00
<mgrwt>
<rscale>  1 0.61186485E+03</rscale>
<asrwt>0</asrwt>
<pdfrwt beam="1">  1        1 0.34037282E+00 0.61186485E+03</pdfrwt>
<pdfrwt beam="2">0</pdfrwt>
<totfact> 0.24630514E+00</totfact>
</mgrwt>
</event>
<event>
 6      1 +5.6466785e-02 6.58540400e+02 7.81860800e-03 9.79088400e-02
        1 -1    0    0  502    0 +0.0000000000e+00 +0.0000000000e+00 +1.0841956178e+02 1.0841956178e+02 0.0000000000e+00 0.0000e+00 1.0000e+00
       13 -1    0    0    0    0 -0.0000000000e+00 -0.0000000000e+00 -1.0000000000e+03 1.0000000000e+03 0.0000000000e+00 0.0000e+00 1.0000e+00
  9000005  2    1    2  501    0 -6.1687756283e-04 +1.2334045262e-03 -8.9158024596e+02 1.1084181694e+03 6.5854043401e+02 0.0000e+00 0.0000e+00
       13  1    3    3    0    0 +3.0301043980e+02 -9.7223255985e+01 -5.8812097084e+02 6.6869571890e+02 0.0000000000e+00 0.0000e+00 1.0000e+00
        3  1    3    3  501    0 -3.0301105667e+02 +9.7224489389e+01 -3.0345927512e+02 4.3972245048e+02 0.0000000000e+00 0.0000e+00 1.0000e+00
       21  1    1    2  502  501 +6.1687756280e-04 -1.2334045262e-03 -1.9226053947e-04 1.3924039528e-03 0.0000000000e+00 0.0000e+00 -1.0000e+00
<mgrwt>
<rscale>  1 0.65854043E+03</rscale>
<asrwt>0</asrwt>
<pdfrwt beam="1">  1        1 0.39425378E+00 0.65854043E+03</pdfrwt>
<pdfrwt beam="2">0</pdfrwt>
<totfact> 0.14167519E+00</totfact>
</mgrwt>
</event>
<event>
 6      1 +5.6466785e-02 6.45488200e+02 7.81860800e-03 9.81528200e-02
        1 -1    0    0  502    0 +0.0000000000e+00 +0.0000000000e+00 +1.0461652271e+02 1.0461652271e+02 0.0000000000e+00 0.0000e+00 1.0000e+00
       13 -1    0    0    0    0 -0.0000000000e+00 -0.0000000000e+00 -1.0000000000e+03 1.0000000000e+03 0.0000000000e+00 0.0000e+00 1.0000e+00
  9000005  2    1    2  501    0 +1.9391759313e-02 -3.5364586306e-02 -8.9583526795e+02 1.1041629353e+03 6.4548815547e+02 0.0000e+00 0.0000e+00
       13  1    3    3    0    0 +1.2355281917e+02 +1.2163701641e+02 -9.1356056214e+02 9.2986760541e+02 0.0000000000e+00 0.0000e+00 1.0000e+00
        1  1    3    3  501    0 -1.2353342741e+02 -1.2167238100e+02 +1.7725294186e+01 1.7429532994e+02 0.0000000000e+00 0.0000e+00 1.0000e+00
       21  1    1    2  502  501 -1.9391759313e-02 +3.5364586306e-02 +4.5179065898e-01 4.5358736075e-01 0.0000000000e+00 0.0000e+00 1.0000e+00
<mgrwt>
<rscale>  1 0.64548816E+03</rscale>
<asrwt>0</asrwt>
<pdfrwt beam="1">  1        1 0.38042452E+00 0.64548816E+03</pdfrwt>
<pdfrwt beam="2">0</pdfrwt>
<totfact> 0.16352654E+00</totfact>
</mgrwt>
</event>
<event>
 6      1 +5.6466785e-02 5.94979300e+02 7.81860800e-03 9.91587700e-02
        1 -1    0    0  502    0 +0.0000000000e+00 +0.0000000000e+00 +8.8500170844e+01 8.8500170844e+01 0.0000000000e+00 0.0000e+00 1.0000e+00
       13 -1    0    0    0    0 -0.0000000000e+00 -0.0000000000e+00 -1.0000000000e+03 1.0000000000e+03 0.0000000000e+00 0.0000e+00 1.0000e+00
  9000005  2    1    2  501    0 +3.7610122945e-05 -4.8529306326e-05 -9.1149988517e+02 1.0885000877e+03 5.9497932764e+02 0.0000e+00 0.0000e+00
       13  1    3    3    0    0 -2.5171230554e+02 -1.1518541505e+02 -6.5509839506e+02 7.1118258683e+02 0.0000000000e+00 0.0000e+00 1.0000e+00
        3  1    3    3  501    0 +2.5171234315e+02 +1.1518536652e+02 -2.5640149011e+02 3.7731750090e+02 0.0000000000e+00 0.0000e+00 1.0000e+00
       21  1    1    2  502  501 -3.7610122949e-05 +4.8529306329e-05 +5.6018527597e-05 8.3112516237e-05 0.0000000000e+00 0.0000e+00 -1.0000e+00
<mgrwt>
<rscale>  1 0.59497933E+03</rscale>
<asrwt>0</asrwt>
<pdfrwt beam="1">  1        1 0.32181948E+00 0.59497933E+03</pdfrwt>
<pdfrwt beam="2">0</pdfrwt>
<totfact> 0.29728029E+00</totfact>
</mgrwt>
</event>
<event>
 6      1 +5.6466785e-02 6.73578500e+02 7.81860800e-03 9.76351500e-02
        1 -1    0    0  502    0 +0.0000000000e+00 +0.0000000000e+00 +1.1342720620e+02 1.1342720620e+02 0.0000000000e+00 0.0000e+00 1.0000e+00
       13 -1    0    0    0    0 -0.0000000000e+00 -0.0000000000e+00 -1.0000000000e+03 1.0000000000e+03 0.0000000000e+00 0.0000e+00 1.0000e+00
  9000005  2    1    2  501    0 -2.0727314478e-04 +4.1324683102e-04 -8.8657260092e+02 1.1134267053e+03 6.7357854130e+02 0.0000e+00 0.0000e+00
       13  1    3    3    0    0 +3.2845601381e+02 -6.4319337473e+01 -3.8129109015e+02 5.0734921466e+02 0.0000000000e+00 0.0000e+00 1.0000e+00
        3  1    3    3  501    0 -3.2845622108e+02 +6.4319750720e+01 -5.0528151077e+02 6.0607749061e+02 0.0000000000e+00 0.0000e+00 1.0000e+00
       21  1    1    2  502  501 +2.0727314480e-04 -4.1324683101e-04 -1.9287614729e-04 5.0093543306e-04 0.0000000000e+00 0.0000e+00 -1.0000e+00
<mgrwt>
<rscale>  1 0.67357854E+03</rscale>
<asrwt>0</asrwt>
<pdfrwt beam="1">  1        1 0.41246344E+00 0.67357854E+03</pdfrwt>
<pdfrwt beam="2">0</pdfrwt>
<totfact> 0.11713915E+00</totfact>
</mgrwt>
</event>
<event>
 6      1 +5.6466785e-02 6.24196300e+02 7.81860800e-03 9.85644000e-02
        1 -1    0    0  502    0 +0.0000000000e+00 +0.0000000000e+00 +9.8575582130e+01 9.8575582130e+01 0.0000000000e+00 0.0000e+00 1.0000e+00
       13 -1    0    0    0    0 -0.0000000000e+00 -0.0000000000e+00 -1.0000000000e+03 1.0000000000e+03 0.0000000000e+00 0.0000e+00 1.0000e+00
  9000005  2    1    2  501    0 +2.6171335949e-02 -1.3489779494e-02 -9.0259454307e+02 1.0974050866e+03 6.2419629441e+02 0.0000e+00 0.0000e+00
       13  1    3    3    0    0 +2.9257134381e+02 +9.0276800172e+01 -5.5772935653e+02 6.3624675009e+02 0.0000000000e+00 0.0000e+00 1.0000e+00
        3  1    3    3  501    0 -2.9254517248e+02 -9.0290289952e+01 -3.4486518654e+02 4.6115833646e+02 0.0000000000e+00 0.0000e+00 1.0000e+00
       21  1    1    2  502  501 -2.6171335949e-02 +1.3489779494e-02 +1.1701251984e+00 1.1704955758e+00 0.0000000000e+00 0.0000e+00 1.0000e+00
<mgrwt>
<rscale>  1 0.62419630E+03</rscale>
<asrwt>0</asrwt>
<pdfrwt beam="1">  1        1 0.35845742E+00 0.62419630E+03</pdfrwt>
<pdfrwt beam="2">0</pdfrwt>
<totfact> 0.20498835E+00</totfact>
</mgrwt>
</event>
<event>
 6      1 +5.6466785e-02 6.51257600e+02 7.81860800e-03 9.80442200e-02
        1 -1    0    0  502    0 +0.0000000000e+00 +0.0000000000e+00 +1.0603443952e+02 1.0603443952e+02 0.0000000000e+00 0.0000e+00 1.0000e+00
       13 -1    0    0    0    0 -0.0000000000e+00 -0.0000000000e+00 -1.0000000000e+03 1.0000000000e+03 0.0000000000e+00 0.0000e+00 1.0000e+00
  9000005  2    1    2  501    0 -7.2669862197e-04 +3.7668146484e-04 -8.9396522964e+02 1.1060335567e+03 6.5125755017e+02 0.0000e+00 0.0000e+00
       13  1    3    3    0    0 -1.9066987844e+02 +2.6076360094e+02 -3.7733859678e+02 4.9672635801e+02 0.0000000000e+00 0.0000e+00 1.0000e+00
        3  1    3    3  501    0 +1.9066915174e+02 -2.6076322426e+02 -5.1662663286e+02 6.0930719865e+02 0.0000000000e+00 0.0000e+00 1.0000e+00
       21  1    1    2  502  501 +7.2669862196e-04 -3.7668146488e-04 -3.3083964437e-04 8.8285598114e-04 0.0000000000e+00 0.0000e+00 -1.0000e+00
<mgrwt>
<rscale>  1 0.65125755E+03</rscale>
<asrwt>0</asrwt>
<pdfrwt beam="1">  1        1 0.38558059E+00 0.65125755E+03</pdfrwt>
<pdfrwt beam="2">0</pdfrwt>
<totfact> 0.15500400E+00</totfact>
</mgrwt>
</event>
<event>
 6      1 +5.6466785e-02 6.37456900e+02 7.81860800e-03 9.83060400e-02
        1 -1    0    0  502    0 +0.0000000000e+00 +0.0000000000e+00 +1.0185336479e+02 1.0185336479e+02 0.0000000000e+00 0.0000e+00 1.0000e+00
       13 -1    0    0    0    0 -0.0000000000e+00 -0.0000000000e+00 -1.0000000000e+03 1.0000000000e+03 0.0000000000e+00 0.0000e+00 1.0000e+00
  9000005  2    1    2  501    0 -1.0555418367e-02 +9.5911887275e-03 -8.9841195842e+02 1.1015876585e+03 6.3745691793e+02 0.0000e+00 0.0000e+00
       13  1    3    3    0    0 +1.3415902482e+02 +1.1439111845e+02 +9.6478404695e+00 1.7657024876e+02 0.0000000000e+00 0.0000e+00 1.0000e+00
        3  1    3    3  501    0 -1.3416958024e+02 -1.1438152726e+02 -9.0805979889e+02 9.2501740978e+02 0.0000000000e+00 0.0000e+00 1.0000e+00
       21  1    1    2  502  501 +1.0555418367e-02 -9.5911887276e-03 +2.6532321167e-01 2.6570625587e-01 0.0000000000e+00 0.0000e+00 1.0000e+00
<mgrwt>
<rscale>  1 0.63745692E+03</rscale>
<asrwt>0</asrwt>
<pdfrwt beam="1">  1        1 0.37037665E+00 0.63745692E+03</pdfrwt>
<pdfrwt beam="2">0</pdfrwt>
<totfact> 0.18132744E+00</totfact>
</mgrwt>
</event>
<event>
 6      1 +5.6466785e-02 6.15134800e+02 7.81860800e-03 9.87449400e-02
        1 -1    0    0  502    0 +0.0000000000e+00 +0.0000000000e+00 +9.4608476930e+01 9.4608476930e+01 0.0000000000e+00 0.0000e+00 1.0000e+00
       13 -1    0    0    0    0 -0.0000000000e+00 -0.0000000000e+00 -1.0000000000e+03 1.0000000000e+03 0.0000000000e+00 0.0000e+00 1.0000e+00
  9000005  2    1    2  501    0 -2.3505988511e-04 -6.4112803028e-04 -9.0540227341e+02 1.0945977049e+03 6.1513482987e+02 0.0000e+00 0.0000e+00
       13  1    3    3    0    0 -1.6563986053e+02 +1.9437726283e+02 -7.5770059447e+02 7.9958068671e+02 0.0000000000e+00 0.0000e+00 1.0000e+00
        1  1    3    3  501    0 +1.6563962547e+02 -1.9437790396e+02 -1.4770167895e+02 2.9501701821e+02 0.0000000000e+00 0.0000e+00 1.0000e+00
       21  1    1    2  502  501 +2.3505988509e-04 +6.4112803028e-04 +1.0750342124e-02 1.0772007895e-02 0.0000000000e+00 0.0000e+00 1.0000e+00
<mgrwt>
<rscale>  1 0.61513483E+03</rscale>
<asrwt>0</asrwt>
<pdfrwt beam="1">  1        1 0.34403155E+00 0.61513483E+03</pdfrwt>
<pdfrwt beam="2">0</pdfrwt>
<totfact> 0.23731193E+00</totfact>
</mgrwt>
</event>
<event>
 6      1 +5.6466785e-02 6.54361600e+02 7.81860800e-03 9.79862900e-02
        1 -1    0    0  502    0 +0.0000000000e+00 +0.0000000000e+00 +1.0704727478e+02 1.0704727478e+02 0.0000000000e+00 0.0000e+00 1.0000e+00
       13 -1    0    0    0    0 -0.0000000000e+00 -0.0000000000e+00 -1.0000000000e+03 1.0000000000e+03 0.0000000000e+00 0.0000e+00 1.0000e+00
  9000005  2    1    2  501    0 +3.8159760152e-07 +8.5815759121e-07 -8.9295272637e+02 1.1070472733e+03 6.5436159253e+02 0.0000e+00 0.0000e+00
       13  1    3    3    0    0 -2.9598807523e+02 +5.6829504593e+01 -6.6186510287e+02 7.2725782750e+02 0.0000000000e+00 0.0000e+00 1.0000e+00
        1  1    3    3  501    0 +2.9598807561e+02 -5.6829503735e+01 -2.3108762350e+02 3.7978944579e+02 0.0000000000e+00 0.0000e+00 1.0000e+00
       21  1    1    2  502  501 -3.8159761705e-07 -8.5815759742e-07 +1.1493657231e-06 1.4842819034e-06 0.0000000000e+00 0.0000e+00 -1.0000e+00
<mgrwt>
<rscale>  1 0.65436159E+03</rscale>
<asrwt>0</asrwt>
<pdfrwt beam="1">  1        1 0.38926364E+00 0.65436159E+03</pdfrwt>
<pdfrwt beam="2">0</pdfrwt>
<totfact> 0.14920454E+00</totfact>
</mgrwt>
</event>
<event>
 6      1 +5.6466785e-02 6.56946700e+02 7.81860800e-03 9.79383100e-02
        1 -1    0    0  502    0 +0.0000000000e+00 +0.0000000000e+00 +1.0789500870e+02 1.0789500870e+02 0.0000000000e+00 0.0000e+00 1.0000e+00
       13 -1    0    0    0    0 -0.0000000000e+00 -0.0000000000e+00 -1.0000000000e+03 1.0000000000e+03 0.0000000000e+00 0.0000e+00 1.0000e+00
  9000005  2    1    2  501    0 -1.3266418136e-05 -1.4172914291e-06 -8.9210525555e+02 1.1078947441e+03 6.5694670794e+02 0.0000e+00 0.0000e+00
       13  1    3    3    0    0 +1.9902671707e+02 -2.1916457913e+02 -2.0606943266e+02 3.6070674783e+02 0.0000000000e+00 0.0000e+00 1.0000e+00
        1  1    3    3  501    0 -1.9902673034e+02 +2.1916457771e+02 -6.8603582289e+02 7.4718799629e+02 0.0000000000e+00 0.0000e+00 1.0000e+00
       21  1    1    2  502  501 +1.3266418148e-05 +1.4172914270e-06 +2.6424674768e-04 2.6458335213e-04 0.0000000000e+00 0.0000e+00 -1.0000e+00
<mgrwt>
<rscale>  1 0.65694671E+03</rscale>
<asrwt>0</asrwt>
<pdfrwt beam="1">  1        1 0.39234631E+00 0.65694671E+03</pdfrwt>
<pdfrwt beam="2">0</pdfrwt>
<totfact> 0.14450963E+00</totfact>
</mgrwt>
</event>
<event>
 6      1 +5.6466785e-02 6.54424600e+02 7.81860800e-03 9.79851200e-02
        1 -1    0    0  502    0 +0.0000000000e+00 +0.0000000000e+00 +1.0817508706e+02 1.0817508706e+02 0.0000000000e+00 0.0000e+00 1.0000e+00
       13 -1    0    0    0    0 -0.0000000000e+00 -0.0000000000e+00 -1.0000000000e+03 1.0000000000e+03 0.0000000000e+00 0.0000e+00 1.0000e+00
  9000005  2    1    2  501    0 +4.3843220287e-02 -1.8353396492e-02 -8.9293154663e+02 1.1070674331e+03 6.5442459635e+02 0.0000e+00 0.0000e+00
       13  1    3    3    0    0 -2.0223202908e+02 +2.2922161762e+02 -6.4382383011e+02 7.1270573717e+02 0.0000000000e+00 0.0000e+00 1.0000e+00
        1  1    3    3  501    0 +2.0227587230e+02 -2.2923997102e+02 -2.4910771652e+02 3.9436169598e+02 0.0000000000e+00 0.0000e+00 1.0000e+00
       21  1    1    2  502  501 -4.3843220287e-02 +1.8353396492e-02 +1.1066336876e+00 1.1076539142e+00 0.0000000000e+00 0.0000e+00 1.0000e+00
<mgrwt>
<rscale>  1 0.65442460E+03</rscale>
<asrwt>0</asrwt>
<pdfrwt beam="1">  1        1 0.39336478E+00 0.65442460E+03</pdfrwt>
<pdfrwt beam="2">0</pdfrwt>
<totfact> 0.14307950E+00</totfact>
</mgrwt>
</event>
<event>
 6      1 +5.6466785e-02 6.55131600e+02 7.81860800e-03 9.79719700e-02
        1 -1    0    0  502    0 +0.0000000000e+00 +0.0000000000e+00 +1.0736895341e+02 1.0736895341e+02 0.0000000000e+00 0.0000e+00 1.0000e+00
       13 -1    0    0    0    0 -0.0000000000e+00 -0.0000000000e+00 -1.0000000000e+03 1.0000000000e+03 0.0000000000e+00 0.0000e+00 1.0000e+00
  9000005  2    1    2  501    0 -1.1787123878e-03 -1.2416418634e-03 -8.9270064050e+02 1.1072993384e+03 6.5513158325e+02 0.0000e+00 0.0000e+00
       13  1    3    3    0    0 -1.1010738800e+02 +2.9543081224e+02 -2.9615911611e+02 4.3256586061e+02 0.0000000000e+00 0.0000e+00 1.0000e+00
        3  1    3    3  501    0 +1.1010620929e+02 -2.9543205388e+02 -5.9654152439e+02 6.7473347783e+02 0.0000000000e+00 0.0000e+00 1.0000e+00
       21  1    1    2  502  501 +1.1787123878e-03 +1.2416418634e-03 +6.9593906800e-02 6.9614961761e-02 0.0000000000e+00 0.0000e+00 1.0000e+00
<mgrwt>
<rscale>  1 0.65513158E+03</rscale>
<asrwt>0</asrwt>
<pdfrwt beam="1">  1        1 0.39043338E+00 0.65513158E+03</pdfrwt>
<pdfrwt beam="2">0</pdfrwt>
<totfact> 0.14741202E+00</totfact>
</mgrwt>
</event>
<event>
 6      1 +5.6466785e-02 6.31821300e+02 7.81860800e-03 9.84150100e-02
        1 -1    0    0  502    0 +0.0000000000e+00 +0.0000000000e+00 +9.9799564483e+01 9.9799564483e+01 0.0000000000e+00 0.0000e+00 1.0000e+00
       13 -1    0    0    0    0 -0.0000000000e+00 -0.0000000000e+00 -1.0000000000e+03 1.0000000000e+03 0.0000000000e+00 0.0000e+00 1.0000e+00
  9000005  2    1    2  501    0 -1.0008403493e-05 -9.4819994843e-06 -9.0020046990e+02 1.0997995274e+03 6.3182126787e+02 0.0000e+00 0.0000e+00
       13  1    3    3    0    0 -6.6728730240e+01 +2.9939136603e+02 -5.8165259910e+02 6.5757711300e+02 0.0000000000e+00 0.0000e+00 1.0000e+00
        1  1    3    3  501    0 +6.6728720232e+01 -2.9939137552e+02 -3.1854787080e+02 4.4222241444e+02 0.0000000000e+00 0.0000e+00 1.0000e+00
       21  1    1    2  502  501 +1.0008403502e-05 +9.4819995183e-06 +3.4388101291e-05 3.7048859172e-05 0.0000000000e+00 0.0000e+00 1.0000e+00
<mgrwt>
<rscale>  1 0.63182127E+03</rscale>
<asrwt>0</asrwt>
<pdfrwt beam="1">  1        1 0.36290827E+00 0.63182127E+03</pdfrwt>
<pdfrwt beam="2">0</pdfrwt>
<totfact> 0.19573122E+00</totfact>
</mgrwt>
</event>
<event>
 6      1 +5.6466785e-02 5.96021300e+02 7.81860800e-03 9.91369500e-02
        1 -1    0    0  502    0 +0.0000000000e+00 +0.0000000000e+00 +8.8825793260e+01 8.8825793260e+01 0.0000000000e+00 0.0000e+00 1.0000e+00
       13 -1    0    0    0    0 -0.0000000000e+00 -0.0000000000e+00 -1.0000000000e+03 1.0000000000e+03 0.0000000000e+00 0.0000e+00 1.0000e+00
  9000005  2    1    2  501    0 +1.2444328184e-02 -9.0632026177e-03 -9.1118538796e+02 1.0888067664e+03 5.9602127733e+02 0.0000e+00 0.0000e+00
       13  1    3    3    0    0 -7.8763155953e+01 +2.3739548337e+02 -1.5962771197e+02 2.9671746947e+02 0.0000000000e+00 0.0000e+00 1.0000e+00
        1  1    3    3  501    0 +7.8775600281e+01 -2.3740454657e+02 -7.5155767598e+02 7.9208929690e+02 0.0000000000e+00 0.0000e+00 1.0000e+00
       21  1    1    2  502  501 -1.2444328184e-02 +9.0632026176e-03 +1.1181214787e-02 1.9026889125e-02 0.0000000000e+00 0.0000e+00 1.0000e+00
<mgrwt>
<rscale>  1 0.59602128E+03</rscale>
<asrwt>0</asrwt>
<pdfrwt beam="1">  1        1 0.32300357E+00 0.59602128E+03</pdfrwt>
<pdfrwt beam="2">0</pdfrwt>
<totfact> 0.29374010E+00</totfact>
</mgrwt>
</event>
<event>
 6      1 +5.6466785e-02 6.38906500e+02 7.81860800e-03 9.82782100e-02
        1 -1    0    0  502    0 +0.0000000000e+00 +0.0000000000e+00 +1.0205231144e+02 1.0205231144e+02 0.0000000000e+00 0.0000e+00 1.0000e+00
       13 -1    0    0    0    0 -0.0000000000e+00 -0.0000000000e+00 -1.0000000000e+03 1.0000000000e+03 0.0000000000e+00 0.0000e+00 1.0000e+00
  9000005  2    1    2  501    0 -6.7452424460e-04 +8.7421979980e-05 -8.9794955850e+02 1.1020503216e+03 6.3890648910e+02 0.0000e+00 0.0000e+00
       13  1    3    3    0    0 -2.2847080611e+02 +2.9948374257e+01 -8.3062172807e+02 8.6199087554e+02 0.0000000000e+00 0.0000e+00 1.0000e+00
        1  1    3    3  501    0 +2.2847013159e+02 -2.9948286835e+01 -6.7327830430e+01 2.4005944610e+02 0.0000000000e+00 0.0000e+00 1.0000e+00
       21  1    1    2  502  501 +6.7452424459e-04 -8.7421979982e-05 +1.8699385017e-03 1.9897978689e-03 0.0000000000e+00 0.0000e+00 1.0000e+00
<mgrwt>
<rscale>  1 0.63890649E+03</rscale>
<asrwt>0</asrwt>
<pdfrwt beam="1">  1        1 0.37110010E+00 0.63890649E+03</pdfrwt>
<pdfrwt beam="2">0</pdfrwt>
<totfact> 0.17995773E+00</totfact>
</mgrwt>
</event>
<event>
 6      1 +5.6466785e-02 6.47394200e+02 7.81860800e-03 9.81168100e-02
        1 -1    0    0  502    0 +0.0000000000e+00 +0.0000000000e+00 +1.0676707465e+02 1.0676707465e+02 0.0000000000e+00 0.0000e+00 1.0000e+00
       13 -1    0    0    0    0 -0.0000000000e+00 -0.0000000000e+00 -1.0000000000e+03 1.0000000000e+03 0.0000000000e+00 0.0000e+00 1.0000e+00
  9000005  2    1    2  501    0 -9.5566182573e-02 -1.1363640085e-01 -8.9521712859e+02 1.1047773238e+03 6.4739416565e+02 0.0000e+00 0.0000e+00
       13  1    3    3    0    0 -8.9037693582e+01 +2.5066876263e+02 -7.6221610274e+02 8.0730163304e+02 0.0000000000e+00 0.0000e+00 1.0000e+00
        3  1    3    3  501    0 +8.8942127400e+01 -2.5078239903e+02 -1.3300102585e+02 2.9747569072e+02 0.0000000000e+00 0.0000e+00 1.0000e+00
       21  1    1    2  502  501 +9.5566182573e-02 +1.1363640085e-01 +1.9842032409e+00 1.9897508960e+00 0.0000000000e+00 0.0000e+00 1.0000e+00
<mgrwt>
<rscale>  1 0.64739418E+03</rscale>
<asrwt>0</asrwt>
<pdfrwt beam="1">  1        1 0.38824473E+00 0.64739418E+03</pdfrwt>
<pdfrwt beam="2">0</pdfrwt>
<totfact> 0.15095929E+00</totfact>
</mgrwt>
</event>
<event>
 6      1 +5.6466785e-02 6.49695700e+02 7.81860800e-03 9.80735000e-02
        1 -1    0    0  502    0 +0.0000000000e+00 +0.0000000000e+00 +1.0552847784e+02 1.0552847784e+02 0.0000000000e+00 0.0000e+00 1.0000e+00
       13 -1    0    0    0    0 -0.0000000000e+00 -0.0000000000e+00 -1.0000000000e+03 1.0000000000e+03 0.0000000000e+00 0.0000e+00 1.0000e+00
  9000005  2    1    2  501    0 +9.2027970894e-05 +3.9545979826e-04 -8.9447383983e+02 1.1055261249e+03 6.4969574620e+02 0.0000e+00 0.0000e+00
       13  1    3    3    0    0 -8.5074262704e+01 +3.0900988393e+02 -3.5717226079e+02 4.7989244880e+02 0.0000000000e+00 0.0000e+00 1.0000e+00
        3  1    3    3  501    0 +8.5074354732e+01 -3.0900948847e+02 -5.3730157904e+02 6.2563367607e+02 0.0000000000e+00 0.0000e+00 1.0000e+00
       21  1    1    2  502  501 -9.2027970895e-05 -3.9545979825e-04 +2.3176739370e-03 2.3529704796e-03 0.0000000000e+00 0.0000e+00 -1.0000e+00
<mgrwt>
<rscale>  1 0.64969575E+03</rscale>
<asrwt>0</asrwt>
<pdfrwt beam="1">  1        1 0.38374073E+00 0.64969575E+03</pdfrwt>
<pdfrwt beam="2">0</pdfrwt>
<totfact> 0.15798101E+00</totfact>
</mgrwt>
</event>
<event>
 6      1 +5.6466785e-02 6.47240800e+02 7.81860800e-03 9.81197000e-02
        1 -1    0    0  502    0 +0.0000000000e+00 +0.0000000000e+00 +1.0481086258e+02 1.0481086258e+02 0.0000000000e+00 0.0000e+00 1.0000e+00
       13 -1    0    0    0    0 -0.0000000000e+00 -0.0000000000e+00 -1.0000000000e+03 1.0000000000e+03 0.0000000000e+00 0.0000e+00 1.0000e+00
  9000005  2    1    2  501    0 +2.6212924930e-03 +1.0650033103e-02 -8.9526942073e+02 1.1047298335e+03 6.4724081245e+02 0.0000e+00 0.0000e+00
       13  1    3    3    0    0 -5.0704022480e+01 +6.9622419294e+01 +8.4808947074e+01 1.2087488022e+02 0.0000000000e+00 0.0000e+00 1.0000e+00
        1  1    3    3  501    0 +5.0706643772e+01 -6.9611769261e+01 -9.8007836781e+02 9.8385495333e+02 0.0000000000e+00 0.0000e+00 1.0000e+00
       21  1    1    2  502  501 -2.6212924930e-03 -1.0650033103e-02 +8.0283311680e-02 8.1029035004e-02 0.0000000000e+00 0.0000e+00 1.0000e+00
<mgrwt>
<rscale>  1 0.64724081E+03</rscale>
<asrwt>0</asrwt>
<pdfrwt beam="1">  1        1 0.38113121E+00 0.64724081E+03</pdfrwt>
<pdfrwt beam="2">0</pdfrwt>
<totfact> 0.16230389E+00</totfact>
</mgrwt>
</event>
<event>
 6      1 +5.6466785e-02 5.36292900e+02 7.81860800e-03 1.00471700e-01
        1 -1    0    0  502    0 +0.0000000000e+00 +0.0000000000e+00 +7.1905028310e+01 7.1905028310e+01 0.0000000000e+00 0.0000e+00 1.0000e+00
       13 -1    0    0    0    0 -0.0000000000e+00 -0.0000000000e+00 -1.0000000000e+03 1.0000000000e+03 0.0000000000e+00 0.0000e+00 1.0000e+00
  9000005  2    1    2  501    0 -9.5587117329e-05 +4.7472984866e-04 -9.2809745718e+02 1.0719024961e+03 5.3629289675e+02 0.0000e+00 0.0000e+00
       13  1    3    3    0    0 +2.0227201187e+02 +1.3834784382e+02 -6.8161155848e+02 7.2432617606e+02 0.0000000000e+00 0.0000e+00 1.0000e+00
        3  1    3    3  501    0 -2.0227210745e+02 -1.3834736909e+02 -2.4648589870e+02 3.4757632003e+02 0.0000000000e+00 0.0000e+00 1.0000e+00
       21  1    1    2  502  501 +9.5587117326e-05 -4.7472984864e-04 +2.4854848640e-03 2.5322204357e-03 0.0000000000e+00 0.0000e+00 -1.0000e+00
<mgrwt>
<rscale>  1 0.53629290E+03</rscale>
<asrwt>0</asrwt>
<pdfrwt beam="1">  1        1 0.26147338E+00 0.53629290E+03</pdfrwt>
<pdfrwt beam="2">0</pdfrwt>
<totfact> 0.54730636E+00</totfact>
</mgrwt>
</event>
<event>
 6      1 +5.6466785e-02 6.51323600e+02 7.81860800e-03 9.80429900e-02
        1 -1    0    0  502    0 +0.0000000000e+00 +0.0000000000e+00 +1.0832148525e+02 1.0832148525e+02 0.0000000000e+00 0.0000e+00 1.0000e+00
       13 -1    0    0    0    0 -0.0000000000e+00 -0.0000000000e+00 -1.0000000000e+03 1.0000000000e+03 0.0000000000e+00 0.0000e+00 1.0000e+00
  9000005  2    1    2  501    0 +6.5686636379e+00 +1.8508688832e+00 -8.8037498801e+02 1.0951175929e+03 6.5128783928e+02 0.0000e+00 0.0000e+00
       13  1    3    3    0    0 +2.7882753381e+02 +1.1515459106e+02 -6.6412971851e+02 7.2943379169e+02 0.0000000000e+00 0.0000e+00 1.0000e+00
        3  1    3    3  501    0 -2.7225887017e+02 -1.1330372218e+02 -2.1624526950e+02 3.6568380116e+02 0.0000000000e+00 0.0000e+00 1.0000e+00
       21  1    1    2  502  501 -6.5686636379e+00 -1.8508688832e+00 -1.1303526742e+01 1.3203892396e+01 0.0000000000e+00 0.0000e+00 1.0000e+00
<mgrwt>
<rscale>  1 0.65132359E+03</rscale>
<asrwt>0</asrwt>
<pdfrwt beam="1">  1        1 0.39389714E+00 0.65132359E+03</pdfrwt>
<pdfrwt beam="2">0</pdfrwt>
<totfact> 0.14238507E+00</totfact>
</mgrwt>
</event>
<event>
 6      1 +5.6466785e-02 6.29875800e+02 7.81860800e-03 9.84529100e-02
        1 -1    0    0  502    0 +0.0000000000e+00 +0.0000000000e+00 +9.9578479923e+01 9.9578479923e+01 0.0000000000e+00 0.0000e+00 1.0000e+00
       13 -1    0    0    0    0 -0.0000000000e+00 -0.0000000000e+00 -1.0000000000e+03 1.0000000000e+03 0.0000000000e+00 0.0000e+00 1.0000e+00
  9000005  2    1    2  501    0 +4.7077501793e-02 -1.3014283191e-01 -9.0080066776e+02 1.0991748633e+03 6.2987579557e+02 0.0000e+00 0.0000e+00
       13  1    3    3    0    0 +1.4846513020e+01 +3.0451085505e+02 -3.1290896742e+02 4.3687446902e+02 0.0000000000e+00 0.0000e+00 1.0000e+00
        1  1    3    3  501    0 -1.4799435518e+01 -3.0464099788e+02 -5.8789170034e+02 6.6230039424e+02 0.0000000000e+00 0.0000e+00 1.0000e+00
       21  1    1    2  502  501 -4.7077501793e-02 +1.3014283191e-01 +3.7914767870e-01 4.0361666236e-01 0.0000000000e+00 0.0000e+00 1.0000e+00
<mgrwt>
<rscale>  1 0.62987581E+03</rscale>
<asrwt>0</asrwt>
<pdfrwt beam="1">  1        1 0.36210433E+00 0.62987581E+03</pdfrwt>
<pdfrwt beam="2">0</pdfrwt>
<totfact> 0.19739336E+00</totfact>
</mgrwt>
</event>
<event>
 6      1 +5.6466785e-02 6.25748500e+02 7.81860800e-03 9.85338100e-02
        1 -1    0    0  502    0 +0.0000000000e+00 +0.0000000000e+00 +9.8542371768e+01 9.8542371768e+01 0.0000000000e+00 0.0000e+00 1.0000e+00
       13 -1    0    0    0    0 -0.0000000000e+00 -0.0000000000e+00 -1.0000000000e+03 1.0000000000e+03 0.0000000000e+00 0.0000e+00 1.0000e+00
  9000005  2    1    2  501    0 -4.5919782524e-02 -7.4506352186e-03 -9.0210878232e+02 1.0978895580e+03 6.2574853121e+02 0.0000e+00 0.0000e+00
       13  1    3    3    0    0 -2.3026926075e+02 -1.4861495955e+02 -1.8620281616e+02 3.3133340821e+02 0.0000000000e+00 0.0000e+00 1.0000e+00
        3  1    3    3  501    0 +2.3022334097e+02 +1.4860750892e+02 -7.1590596616e+02 7.6655614981e+02 0.0000000000e+00 0.0000e+00 1.0000e+00
       21  1    1    2  502  501 +4.5919782524e-02 +7.4506352185e-03 +6.5115408761e-01 6.5281374389e-01 0.0000000000e+00 0.0000e+00 1.0000e+00
<mgrwt>
<rscale>  1 0.62574853E+03</rscale>
<asrwt>0</asrwt>
<pdfrwt beam="1">  1        1 0.35833665E+00 0.62574853E+03</pdfrwt>
<pdfrwt beam="2">0</pdfrwt>
<totfact> 0.20517998E+00</totfact>
</mgrwt>
</event>
<event>
 6      1 +5.6466785e-02 6.37894600e+02 7.81860800e-03 9.82976300e-02
        1 -1    0    0  502    0 +0.0000000000e+00 +0.0000000000e+00 +1.0173830669e+02 1.0173830669e+02 0.0000000000e+00 0.0000e+00 1.0000e+00
       13 -1    0    0    0    0 -0.0000000000e+00 -0.0000000000e+00 -1.0000000000e+03 1.0000000000e+03 0.0000000000e+00 0.0000e+00 1.0000e+00
  9000005  2    1    2  501    0 +1.9402707832e-02 +7.7649839993e-03 -8.9826036853e+02 1.1017173659e+03 6.3789455579e+02 0.0000e+00 0.0000e+00
       13  1    3    3    0    0 +4.9698306038e+01 -2.1504921968e+02 -5.1477200392e+01 2.2664066420e+02 0.0000000000e+00 0.0000e+00 1.0000e+00
        3  1    3    3  501    0 -4.9678903331e+01 +2.1505698466e+02 -8.4678316814e+02 8.7507670174e+02 0.0000000000e+00 0.0000e+00 1.0000e+00
       21  1    1    2  502  501 -1.9402707832e-02 -7.7649839993e-03 -1.3247723458e-03 2.0940751407e-02 0.0000000000e+00 0.0000e+00 1.0000e+00
<mgrwt>
<rscale>  1 0.63789456E+03</rscale>
<asrwt>0</asrwt>
<pdfrwt beam="1">  1        1 0.36995826E+00 0.63789456E+03</pdfrwt>
<pdfrwt beam="2">0</pdfrwt>
<totfact> 0.18208180E+00</totfact>
</mgrwt>
</event>
<event>
 6      1 +5.6466785e-02 6.50646700e+02 7.81860800e-03 9.80556600e-02
        1 -1    0    0  502    0 +0.0000000000e+00 +0.0000000000e+00 +1.1245140268e+02 1.1245140268e+02 0.0000000000e+00 0.0000e+00 1.0000e+00
       13 -1    0    0    0    0 -0.0000000000e+00 -0.0000000000e+00 -1.0000000000e+03 1.0000000000e+03 0.0000000000e+00 0.0000e+00 1.0000e+00
  9000005  2    1    2  501    0 +2.3357447981e+00 -5.4592053649e+00 -8.9265834041e+02 1.1046176232e+03 6.5061964472e+02 0.0000e+00 0.0000e+00
       13  1    3    3    0    0 -2.2592397112e+02 +1.4324735969e+02 -1.3535433984e+02 2.9980367593e+02 0.0000000000e+00 0.0000e+00 1.0000e+00
        1  1    3    3  501    0 +2.2825971592e+02 -1.4870656506e+02 -7.5730400057e+02 8.0481394725e+02 0.0000000000e+00 0.0000e+00 1.0000e+00
       21  1    1    2  502  501 -2.3357447981e+00 +5.4592053649e+00 +5.1097430867e+00 7.8337795086e+00 0.0000000000e+00 0.0000e+00 -1.0000e+00
<mgrwt>
<rscale>  1 0.65064674E+03</rscale>
<asrwt>0</asrwt>
<pdfrwt beam="1">  1        1 0.40891505E+00 0.65064674E+03</pdfrwt>
<pdfrwt beam="2">0</pdfrwt>
<totfact> 0.12204640E+00</totfact>
</mgrwt>
</event>
<event>
 6      1 +5.6466785e-02 6.49117500e+02 7.81860800e-03 9.80843700e-02
        1 -1    0    0  502    0 +0.0000000000e+00 +0.0000000000e+00 +1.0534935693e+02 1.0534935693e+02 0.0000000000e+00 0.0000e+00 1.0000e+00
       13 -1    0    0    0    0 -0.0000000000e+00 -0.0000000000e+00 -1.0000000000e+03 1.0000000000e+03 0.0000000000e+00 0.0000e+00 1.0000e+00
  9000005  2    1    2  501    0 -2.4777224257e-03 -4.1244004850e-03 -8.9466102589e+02 1.1053379135e+03 6.4911751763e+02 0.0000e+00 0.0000e+00
       13  1    3    3    0    0 -1.1283563588e+02 +8.1316058221e+01 -9.4668170198e+02 9.5684399298e+02 0.0000000000e+00 0.0000e+00 1.0000e+00
        3  1    3    3  501    0 +1.1283315816e+02 -8.1320182621e+01 +5.2020676088e+01 1.4849392049e+02 0.0000000000e+00 0.0000e+00 1.0000e+00
       21  1    1    2  502  501 +2.4777224257e-03 +4.1244004850e-03 +1.0382823563e-02 1.1443461579e-02 0.0000000000e+00 0.0000e+00 -1.0000e+00
<mgrwt>
<rscale>  1 0.64911752E+03</rscale>
<asrwt>0</asrwt>
<pdfrwt beam="1">  1        1 0.38308938E+00 0.64911752E+03</pdfrwt>
<pdfrwt beam="2">0</pdfrwt>
<totfact> 0.15904864E+00</totfact>
</mgrwt>
</event>
<event>
 6      1 +5.6466785e-02 6.48919800e+02 7.81860800e-03 9.80880800e-02
        1 -1    0    0  502    0 +0.0000000000e+00 +0.0000000000e+00 +1.0527553692e+02 1.0527553692e+02 0.0000000000e+00 0.0000e+00 1.0000e+00
       13 -1    0    0    0    0 -0.0000000000e+00 -0.0000000000e+00 -1.0000000000e+03 1.0000000000e+03 0.0000000000e+00 0.0000e+00 1.0000e+00
  9000005  2    1    2  501    0 -4.4431070123e-04 -7.5833120633e-04 -8.9472559508e+02 1.1052741038e+03 6.4891983634e+02 0.0000e+00 0.0000e+00
       13  1    3    3    0    0 +1.5524175707e+01 +2.8085851041e+02 -7.2280256353e+02 7.7560689060e+02 0.0000000000e+00 0.0000e+00 1.0000e+00
        1  1    3    3  501    0 -1.5524620018e+01 -2.8085926875e+02 -1.7192303155e+02 3.2966721318e+02 0.0000000000e+00 0.0000e+00 1.0000e+00
       21  1    1    2  502  501 +4.4431070123e-04 +7.5833120632e-04 +1.1319920351e-03 1.4331378808e-03 0.0000000000e+00 0.0000e+00 -1.0000e+00
<mgrwt>
<rscale>  1 0.64891984E+03</rscale>
<asrwt>0</asrwt>
<pdfrwt beam="1">  1        1 0.38282094E+00 0.64891984E+03</pdfrwt>
<pdfrwt beam="2">0</pdfrwt>
<totfact> 0.15948944E+00</totfact>
</mgrwt>
</event>
<event>
 6      1 +5.6466785e-02 5.89314500e+02 7.81860800e-03 9.92782600e-02
        1 -1    0    0  502    0 +0.0000000000e+00 +0.0000000000e+00 +8.7609066468e+01 8.7609066468e+01 0.0000000000e+00 0.0000e+00 1.0000e+00
       13 -1    0    0    0    0 -0.0000000000e+00 -0.0000000000e+00 -1.0000000000e+03 1.0000000000e+03 0.0000000000e+00 0.0000e+00 1.0000e+00
  9000005  2    1    2  501    0 -2.1535622832e-02 -8.2349718114e-03 -9.1317692384e+02 1.0868227381e+03 5.8931449092e+02 0.0000e+00 0.0000e+00
       13  1    3    3    0    0 +9.6288522193e+01 -9.7564954780e+01 -9.3760799845e+02 9.4757541054e+02 0.0000000000e+00 0.0000e+00 1.0000e+00
        3  1    3    3  501    0 -9.6310057816e+01 +9.7556719809e+01 +2.4431074606e+01 1.3924732752e+02 0.0000000000e+00 0.0000e+00 1.0000e+00
       21  1    1    2  502  501 +2.1535622832e-02 +8.2349718114e-03 +7.8599030732e-01 7.8632840532e-01 0.0000000000e+00 0.0000e+00 1.0000e+00
<mgrwt>
<rscale>  1 0.58931449E+03</rscale>
<asrwt>0</asrwt>
<pdfrwt beam="1">  1        1 0.31857910E+00 0.58931449E+03</pdfrwt>
<pdfrwt beam="2">0</pdfrwt>
<totfact> 0.30733976E+00</totfact>
</mgrwt>
</event>
<event>
 6      1 +5.6466785e-02 6.68179600e+02 7.81860800e-03 9.77325200e-02
        1 -1    0    0  502    0 +0.0000000000e+00 +0.0000000000e+00 +1.1161600183e+02 1.1161600183e+02 0.0000000000e+00 0.0000e+00 1.0000e+00
       13 -1    0    0    0    0 -0.0000000000e+00 -0.0000000000e+00 -1.0000000000e+03 1.0000000000e+03 0.0000000000e+00 0.0000e+00 1.0000e+00
  9000005  2    1    2  501    0 -1.6209786224e-06 -2.8169538382e-06 -8.8838401490e+02 1.1116159848e+03 6.6817957145e+02 0.0000e+00 0.0000e+00
       13  1    3    3    0    0 +4.6377645999e+01 +3.2426533336e+02 -3.3488267994e+02 4.6844989251e+02 0.0000000000e+00 0.0000e+00 1.0000e+00
        1  1    3    3  501    0 -4.6377647620e+01 -3.2426533618e+02 -5.5350133496e+02 6.4316609228e+02 0.0000000000e+00 0.0000e+00 1.0000e+00
       21  1    1    2  502  501 +1.6209786209e-06 +2.8169538426e-06 +1.6729315310e-05 1.7042088821e-05 0.0000000000e+00 0.0000e+00 1.0000e+00
<mgrwt>
<rscale>  1 0.66817957E+03</rscale>
<asrwt>0</asrwt>
<pdfrwt beam="1">  1        1 0.40587723E+00 0.66817957E+03</pdfrwt>
<pdfrwt beam="2">0</pdfrwt>
<totfact> 0.12550890E+00</totfact>
</mgrwt>
</event>
<event>
 6      1 +5.6466785e-02 6.43180000e+02 7.81860800e-03 9.81966100e-02
        1 -1    0    0  502    0 +0.0000000000e+00 +0.0000000000e+00 +1.1250220103e+02 1.1250220103e+02 0.0000000000e+00 0.0000e+00 1.0000e+00
       13 -1    0    0    0    0 -0.0000000000e+00 -0.0000000000e+00 -1.0000000000e+03 1.0000000000e+03 0.0000000000e+00 0.0000e+00 1.0000e+00
  9000005  2    1    2  501    0 -3.0681183967e+00 -1.3921109695e+00 -8.9623384225e+02 1.1031389871e+03 6.4317118521e+02 0.0000e+00 0.0000e+00
       13  1    3    3    0    0 +3.0278746090e+02 -8.0623874553e+01 -5.6034805323e+02 6.4200498159e+02 0.0000000000e+00 0.0000e+00 1.0000e+00
        3  1    3    3  501    0 -3.0585557930e+02 +7.9231763583e+01 -3.3588578901e+02 4.6113400548e+02 0.0000000000e+00 0.0000e+00 1.0000e+00
       21  1    1    2  502  501 +3.0681183967e+00 +1.3921109695e+00 +8.7360432755e+00 9.3632139545e+00 0.0000000000e+00 0.0000e+00 1.0000e+00
<mgrwt>
<rscale>  1 0.64318001E+03</rscale>
<asrwt>0</asrwt>
<pdfrwt beam="1">  1        1 0.40909978E+00 0.64318001E+03</pdfrwt>
<pdfrwt beam="2">0</pdfrwt>
<totfact> 0.12199107E+00</totfact>
</mgrwt>
</event>
<event>
 6      1 +5.6466785e-02 6.48587800e+02 7.81860800e-03 9.80943300e-02
        1 -1    0    0  502    0 +0.0000000000e+00 +0.0000000000e+00 +1.0516656515e+02 1.0516656515e+02 0.0000000000e+00 0.0000e+00 1.0000e+00
       13 -1    0    0    0    0 -0.0000000000e+00 -0.0000000000e+00 -1.0000000000e+03 1.0000000000e+03 0.0000000000e+00 0.0000e+00 1.0000e+00
  9000005  2    1    2  501    0 -7.6574406478e-06 +5.5698241681e-06 -8.9483346750e+02 1.1051665312e+03 6.4858779438e+02 0.0000e+00 0.0000e+00
       13  1    3    3    0    0 +9.3876249327e+01 +3.0197328134e+02 -3.2494587052e+02 4.5342081072e+02 0.0000000000e+00 0.0000e+00 1.0000e+00
        1  1    3    3  501    0 -9.3876256984e+01 -3.0197327577e+02 -5.6988759698e+02 6.5174572043e+02 0.0000000000e+00 0.0000e+00 1.0000e+00
       21  1    1    2  502  501 +7.6574406379e-06 -5.5698241763e-06 +3.2649689013e-05 3.3995022152e-05 0.0000000000e+00 0.0000e+00 1.0000e+00
<mgrwt>
<rscale>  1 0.64858779E+03</rscale>
<asrwt>0</asrwt>
<pdfrwt beam="1">  1        1 0.38242468E+00 0.64858779E+03</pdfrwt>
<pdfrwt beam="2">0</pdfrwt>
<totfact> 0.16014344E+00</totfact>
</mgrwt>
</event>
<event>
 6      1 +5.6466785e-02 6.43471300e+02 7.81860800e-03 9.81910700e-02
        3 -1    0    0  502    0 +0.0000000000e+00 +0.0000000000e+00 +1.0355242810e+02 1.0355242810e+02 0.0000000000e+00 0.0000e+00 1.0000e+00
       13 -1    0    0    0    0 -0.0000000000e+00 -0.0000000000e+00 -1.0000000000e+03 1.0000000000e+03 0.0000000000e+00 0.0000e+00 1.0000e+00
  9000005  2    1    2  501    0 +8.0693785174e-03 -1.4429089564e-03 -8.9648567445e+02 1.1035134537e+03 6.4347134980e+02 0.0000e+00 0.0000e+00
       13  1    3    3    0    0 -2.2381098738e+02 +1.2574868792e+02 -1.1566538097e+02 2.8157160891e+02 0.0000000000e+00 0.0000e+00 1.0000e+00
        3  1    3    3  501    0 +2.2381905676e+02 -1.2575013083e+02 -7.8082029348e+02 8.2194184483e+02 0.0000000000e+00 0.0000e+00 1.0000e+00
       21  1    1    2  502  501 -8.0693785174e-03 +1.4429089564e-03 +3.8102553816e-02 3.8974369311e-02 0.0000000000e+00 0.0000e+00 -1.0000e+00
<mgrwt>
<rscale>  1 0.64347135E+03</rscale>
<asrwt>0</asrwt>
<pdfrwt beam="1">  1        3 0.37655508E+00 0.64347135E+03</pdfrwt>
<pdfrwt beam="2">0</pdfrwt>
<totfact> 0.78795724E-02</totfact>
</mgrwt>
</event>
<event>
 6      1 +5.6466785e-02 6.30628700e+02 7.81860800e-03 9.84382300e-02
        1 -1    0    0  502    0 +0.0000000000e+00 +0.0000000000e+00 +9.9806479803e+01 9.9806479803e+01 0.0000000000e+00 0.0000e+00 1.0000e+00
       13 -1    0    0    0    0 -0.0000000000e+00 -0.0000000000e+00 -1.0000000000e+03 1.0000000000e+03 0.0000000000e+00 0.0000e+00 1.0000e+00
  9000005  2    1    2  501    0 -7.0018769965e-01 -2.0346029713e-01 -9.0015331902e+02 1.0990762230e+03 6.3062826966e+02 0.0000e+00 0.0000e+00
       13  1    3    3    0    0 +7.1152555718e+01 +2.2801932037e+02 -8.0818261373e+02 8.4274232941e+02 0.0000000000e+00 0.0000e+00 1.0000e+00
        1  1    3    3  501    0 -7.1852743418e+01 -2.2822278067e+02 -9.1970705291e+01 2.5633389356e+02 0.0000000000e+00 0.0000e+00 1.0000e+00
       21  1    1    2  502  501 +7.0018769965e-01 +2.0346029713e-01 -4.0201175670e-02 7.3025683275e-01 0.0000000000e+00 0.0000e+00 -1.0000e+00
<mgrwt>
<rscale>  1 0.63062869E+03</rscale>
<asrwt>0</asrwt>
<pdfrwt beam="1">  1        1 0.36293342E+00 0.63062869E+03</pdfrwt>
<pdfrwt beam="2">0</pdfrwt>
<totfact> 0.19572387E+00</totfact>
</mgrwt>
</event>
<event>
 6      1 +5.6466785e-02 6.78495000e+02 7.81860800e-03 9.75473200e-02
        1 -1    0    0  502    0 +0.0000000000e+00 +0.0000000000e+00 +1.1512573821e+02 1.1512573821e+02 0.0000000000e+00 0.0000e+00 1.0000e+00
       13 -1    0    0    0    0 -0.0000000000e+00 -0.0000000000e+00 -1.0000000000e+03 1.0000000000e+03 0.0000000000e+00 0.0000e+00 1.0000e+00
  9000005  2    1    2  501    0 -2.2243331697e-03 -4.4660420810e-03 -8.8491094354e+02 1.1150887187e+03 6.7849500554e+02 0.0000e+00 0.0000e+00
       13  1    3    3    0    0 -1.4245216940e+02 -2.6897860866e+02 -1.9622086220e+02 3.6213911588e+02 0.0000000000e+00 0.0000e+00 1.0000e+00
        3  1    3    3  501    0 +1.4244994507e+02 +2.6897414262e+02 -6.8869008134e+02 7.5294960282e+02 0.0000000000e+00 0.0000e+00 1.0000e+00
       21  1    1    2  502  501 +2.2243331697e-03 +4.4660420810e-03 +3.6681757519e-02 3.7019515456e-02 0.0000000000e+00 0.0000e+00 1.0000e+00
<mgrwt>
<rscale>  1 0.67849501E+03</rscale>
<asrwt>0</asrwt>
<pdfrwt beam="1">  1        1 0.41863993E+00 0.67849501E+03</pdfrwt>
<pdfrwt beam="2">0</pdfrwt>
<totfact> 0.10977233E+00</totfact>
</mgrwt>
</event>
<event>
 6      1 +5.6466785e-02 6.16242800e+02 7.81860800e-03 9.87226900e-02
        1 -1    0    0  502    0 +0.0000000000e+00 +0.0000000000e+00 +9.4994662773e+01 9.4994662773e+01 0.0000000000e+00 0.0000e+00 1.0000e+00
       13 -1    0    0    0    0 -0.0000000000e+00 -0.0000000000e+00 -1.0000000000e+03 1.0000000000e+03 0.0000000000e+00 0.0000e+00 1.0000e+00
  9000005  2    1    2  501    0 -9.3943531096e-02 -7.0211506752e-02 -9.0449372044e+02 1.0944697754e+03 6.1624279723e+02 0.0000e+00 0.0000e+00
       13  1    3    3    0    0 -6.5512347415e+01 -2.8347036504e+02 -2.7190750212e+02 3.9822230630e+02 0.0000000000e+00 0.0000e+00 1.0000e+00
        3  1    3    3  501    0 +6.5418403884e+01 +2.8340015354e+02 -6.3258621832e+02 6.9624746908e+02 0.0000000000e+00 0.0000e+00 1.0000e+00
       21  1    1    2  502  501 +9.3943531096e-02 +7.0211506752e-02 -5.1161679035e-01 5.2488740020e-01 0.0000000000e+00 0.0000e+00 -1.0000e+00
<mgrwt>
<rscale>  1 0.61624281E+03</rscale>
<asrwt>0</asrwt>
<pdfrwt beam="1">  1        1 0.34543587E+00 0.61624281E+03</pdfrwt>
<pdfrwt beam="2">0</pdfrwt>
<totfact> 0.23395138E+00</totfact>
</mgrwt>
</event>
<event>
 6      1 +5.6466785e-02 6.30712100e+02 7.81860800e-03 9.84366000e-02
        1 -1    0    0  502    0 +0.0000000000e+00 +0.0000000000e+00 +9.9453529935e+01 9.9453529935e+01 0.0000000000e+00 0.0000e+00 1.0000e+00
       13 -1    0    0    0    0 -0.0000000000e+00 -0.0000000000e+00 -1.0000000000e+03 1.0000000000e+03 0.0000000000e+00 0.0000e+00 1.0000e+00
  9000005  2    1    2  501    0 -3.2894217202e-04 -4.0318096042e-04 -9.0055053518e+02 1.0994494316e+03 6.3071212635e+02 0.0000e+00 0.0000e+00
       13  1    3    3    0    0 +2.7718336146e+02 -1.8317488194e+01 -1.9005966400e+02 3.3658404912e+02 0.0000000000e+00 0.0000e+00 1.0000e+00
        1  1    3    3  501    0 -2.7718369040e+02 +1.8317085013e+01 -7.1049087118e+02 7.6286538253e+02 0.0000000000e+00 0.0000e+00 1.0000e+00
       21  1    1    2  502  501 +3.2894217202e-04 +4.0318096042e-04 +4.0651197592e-03 4.0982870197e-03 0.0000000000e+00 0.0000e+00 1.0000e+00
<mgrwt>
<rscale>  1 0.63071213E+03</rscale>
<asrwt>0</asrwt>
<pdfrwt beam="1">  1        1 0.36164996E+00 0.63071213E+03</pdfrwt>
<pdfrwt beam="2">0</pdfrwt>
<totfact> 0.19826927E+00</totfact>
</mgrwt>
</event>
<event>
 6      1 +5.6466785e-02 6.22576700e+02 7.81860800e-03 9.85964300e-02
        1 -1    0    0  502    0 +0.0000000000e+00 +0.0000000000e+00 +9.6900763623e+01 9.6900763623e+01 0.0000000000e+00 0.0000e+00 1.0000e+00
       13 -1    0    0    0    0 -0.0000000000e+00 -0.0000000000e+00 -1.0000000000e+03 1.0000000000e+03 0.0000000000e+00 0.0000e+00 1.0000e+00
  9000005  2    1    2  501    0 -1.0559692939e-05 -2.9739486308e-05 -9.0309955396e+02 1.0969004445e+03 6.2257672679e+02 0.0000e+00 0.0000e+00
       13  1    3    3    0    0 -1.2074188251e+02 +2.8606150418e+02 -4.1252314075e+02 5.1631882400e+02 0.0000000000e+00 0.0000e+00 1.0000e+00
        1  1    3    3  501    0 +1.2074187195e+02 -2.8606153392e+02 -4.9057641321e+02 5.8058162047e+02 0.0000000000e+00 0.0000e+00 1.0000e+00
       21  1    1    2  502  501 +1.0559692944e-05 +2.9739486275e-05 +3.1758084974e-04 3.1914501450e-04 0.0000000000e+00 0.0000e+00 -1.0000e+00
<mgrwt>
<rscale>  1 0.62257673E+03</rscale>
<asrwt>0</asrwt>
<pdfrwt beam="1">  1        1 0.35236716E+00 0.62257673E+03</pdfrwt>
<pdfrwt beam="2">0</pdfrwt>
<totfact> 0.21799340E+00</totfact>
</mgrwt>
</event>
<event>
 6      1 +5.6466785e-02 6.44757700e+02 7.81860800e-03 9.81666600e-02
        3 -1    0    0  502    0 +0.0000000000e+00 +0.0000000000e+00 +1.0393533986e+02 1.0393533986e+02 0.0000000000e+00 0.0000e+00 1.0000e+00
       13 -1    0    0    0    0 -0.0000000000e+00 -0.0000000000e+00 -1.0000000000e+03 1.0000000000e+03 0.0000000000e+00 0.0000e+00 1.0000e+00
  9000005  2    1    2  501    0 +1.0619818097e-02 -1.9713044094e-02 -8.9603506946e+02 1.1038982320e+03 6.4475767575e+02 0.0000e+00 0.0000e+00
       13  1    3    3    0    0 +2.4021907414e+02 -2.1330745542e+02 -4.0178611108e+02 5.1442915273e+02 0.0000000000e+00 0.0000e+00 1.0000e+00
        1  1    3    3  501    0 -2.4020845432e+02 +2.1328774237e+02 -4.9424895838e+02 5.8946907928e+02 0.0000000000e+00 0.0000e+00 1.0000e+00
       21  1    1    2  502  501 -1.0619818097e-02 +1.9713044094e-02 -2.9590679793e-02 3.7107855967e-02 0.0000000000e+00 0.0000e+00 -1.0000e+00
<mgrwt>
<rscale>  1 0.64475768E+03</rscale>
<asrwt>0</asrwt>
<pdfrwt beam="1">  1        3 0.37794749E+00 0.64475768E+03</pdfrwt>
<pdfrwt beam="2">0</pdfrwt>
<totfact> 0.77454890E-02</totfact>
</mgrwt>
</event>
<event>
 6      1 +5.6466785e-02 6.53421700e+02 7.81860800e-03 9.80038000e-02
        1 -1    0    0  502    0 +0.0000000000e+00 +0.0000000000e+00 +1.0680128386e+02 1.0680128386e+02 0.0000000000e+00 0.0000e+00 1.0000e+00
       13 -1    0    0    0    0 -0.0000000000e+00 -0.0000000000e+00 -1.0000000000e+03 1.0000000000e+03 0.0000000000e+00 0.0000e+00 1.0000e+00
  9000005  2    1    2  501    0 +4.4937636324e-03 -9.8550567567e-03 -8.9325949169e+02 1.1067395507e+03 6.5342169650e+02 0.0000e+00 0.0000e+00
       13  1    3    3    0    0 -1.2784077250e+02 -1.9420741501e+02 -5.7872982485e+01 2.3960188910e+02 0.0000000000e+00 0.0000e+00 1.0000e+00
        3  1    3    3  501    0 +1.2784526626e+02 +1.9419755995e+02 -8.3538650921e+02 8.6713766160e+02 0.0000000000e+00 0.0000e+00 1.0000e+00
       21  1    1    2  502  501 -4.4937636324e-03 +9.8550567567e-03 +6.0775554574e-02 6.1733168468e-02 0.0000000000e+00 0.0000e+00 -1.0000e+00
<mgrwt>
<rscale>  1 0.65342170E+03</rscale>
<asrwt>0</asrwt>
<pdfrwt beam="1">  1        1 0.38836912E+00 0.65342170E+03</pdfrwt>
<pdfrwt beam="2">0</pdfrwt>
<totfact> 0.15059902E+00</totfact>
</mgrwt>
</event>
<event>
 6      1 +5.6466785e-02 6.53743500e+02 7.81860800e-03 9.79978000e-02
        1 -1    0    0  502    0 +0.0000000000e+00 +0.0000000000e+00 +1.0684713075e+02 1.0684713075e+02 0.0000000000e+00 0.0000e+00 1.0000e+00
       13 -1    0    0    0    0 -0.0000000000e+00 -0.0000000000e+00 -1.0000000000e+03 1.0000000000e+03 0.0000000000e+00 0.0000e+00 1.0000e+00
  9000005  2    1    2  501    0 +3.7561966025e-04 +1.5373446563e-04 -8.9315483763e+02 1.1068451210e+03 6.5374349543e+02 0.0000e+00 0.0000e+00
       13  1    3    3    0    0 -2.8277093126e+02 -7.1439613985e+01 -1.9669895976e+02 3.5178615490e+02 0.0000000000e+00 0.0000e+00 1.0000e+00
        1  1    3    3  501    0 +2.8277130688e+02 +7.1439767719e+01 -6.9645587787e+02 7.5505896606e+02 0.0000000000e+00 0.0000e+00 1.0000e+00
       21  1    1    2  502  501 -3.7561966024e-04 -1.5373446563e-04 +1.9683792220e-03 2.0097863510e-03 0.0000000000e+00 0.0000e+00 -1.0000e+00
<mgrwt>
<rscale>  1 0.65374350E+03</rscale>
<asrwt>0</asrwt>
<pdfrwt beam="1">  1        1 0.38853584E+00 0.65374350E+03</pdfrwt>
<pdfrwt beam="2">0</pdfrwt>
<totfact> 0.15033411E+00</totfact>
</mgrwt>
</event>
<event>
 6      1 +5.6466785e-02 6.39016900e+02 7.81860800e-03 9.82760900e-02
        1 -1    0    0  502    0 +0.0000000000e+00 +0.0000000000e+00 +1.0209228412e+02 1.0209228412e+02 0.0000000000e+00 0.0000e+00 1.0000e+00
       13 -1    0    0    0    0 -0.0000000000e+00 -0.0000000000e+00 -1.0000000000e+03 1.0000000000e+03 0.0000000000e+00 0.0000e+00 1.0000e+00
  9000005  2    1    2  501    0 -1.5271951150e-04 -7.7077034518e-05 -8.9791435215e+02 1.1020856456e+03 6.3901689065e+02 0.0000e+00 0.0000e+00
       13  1    3    3    0    0 +1.0771774532e+02 -2.9659563677e+02 -3.6249059010e+02 4.8059495661e+02 0.0000000000e+00 0.0000e+00 1.0000e+00
        1  1    3    3  501    0 -1.0771789804e+02 +2.9659555969e+02 -5.3542376205e+02 6.2149068904e+02 0.0000000000e+00 0.0000e+00 1.0000e+00
       21  1    1    2  502  501 +1.5271951150e-04 +7.7077034528e-05 +6.6362702840e-03 6.6384747797e-03 0.0000000000e+00 0.0000e+00 1.0000e+00
<mgrwt>
<rscale>  1 0.63901689E+03</rscale>
<asrwt>0</asrwt>
<pdfrwt beam="1">  1        1 0.37124545E+00 0.63901689E+03</pdfrwt>
<pdfrwt beam="2">0</pdfrwt>
<totfact> 0.17968964E+00</totfact>
</mgrwt>
</event>
<event>
 6      1 +5.6466785e-02 6.57101900e+02 7.81860800e-03 9.79354300e-02
        1 -1    0    0  502    0 +0.0000000000e+00 +0.0000000000e+00 +1.0794645543e+02 1.0794645543e+02 0.0000000000e+00 0.0000e+00 1.0000e+00
       13 -1    0    0    0    0 -0.0000000000e+00 -0.0000000000e+00 -1.0000000000e+03 1.0000000000e+03 0.0000000000e+00 0.0000e+00 1.0000e+00
  9000005  2    1    2  501    0 +2.7223498648e-04 -3.6118841997e-04 -8.9205419478e+02 1.1079456634e+03 6.5710189970e+02 0.0000e+00 0.0000e+00
       13  1    3    3    0    0 -3.1819950780e+02 +1.5340011797e+01 -5.8154009166e+02 6.6308002604e+02 0.0000000000e+00 0.0000e+00 1.0000e+00
        3  1    3    3  501    0 +3.1819978003e+02 -1.5340372986e+01 -3.1051410311e+02 4.4486563734e+02 0.0000000000e+00 0.0000e+00 1.0000e+00
       21  1    1    2  502  501 -2.7223498646e-04 +3.6118841997e-04 +6.5020321178e-04 7.9204367252e-04 0.0000000000e+00 0.0000e+00 1.0000e+00
<mgrwt>
<rscale>  1 0.65710190E+03</rscale>
<asrwt>0</asrwt>
<pdfrwt beam="1">  1        1 0.39253339E+00 0.65710190E+03</pdfrwt>
<pdfrwt beam="2">0</pdfrwt>
<totfact> 0.14422931E+00</totfact>
</mgrwt>
</event>
<event>
 6      1 +5.6466785e-02 6.05018000e+02 7.81860800e-03 9.89505000e-02
        1 -1    0    0  502    0 +0.0000000000e+00 +0.0000000000e+00 +9.1511735496e+01 9.1511735496e+01 0.0000000000e+00 0.0000e+00 1.0000e+00
       13 -1    0    0    0    0 -0.0000000000e+00 -0.0000000000e+00 -1.0000000000e+03 1.0000000000e+03 0.0000000000e+00 0.0000e+00 1.0000e+00
  9000005  2    1    2  501    0 +1.7234330159e-05 -4.4321346707e-05 -9.0848827312e+02 1.0915116872e+03 6.0501803348e+02 0.0000e+00 0.0000e+00
       13  1    3    3    0    0 -9.5349384737e+01 -2.7770686081e+02 -3.2291488868e+02 4.3644774148e+02 0.0000000000e+00 0.0000e+00 1.0000e+00
        3  1    3    3  501    0 +9.5349401971e+01 +2.7770681649e+02 -5.8557338444e+02 6.5506394569e+02 0.0000000000e+00 0.0000e+00 1.0000e+00
       21  1    1    2  502  501 -1.7234330159e-05 +4.4321346719e-05 +8.6126408571e-06 4.8327854220e-05 0.0000000000e+00 0.0000e+00 -1.0000e+00
<mgrwt>
<rscale>  1 0.60501803E+03</rscale>
<asrwt>0</asrwt>
<pdfrwt beam="1">  1        1 0.33277065E+00 0.60501803E+03</pdfrwt>
<pdfrwt beam="2">0</pdfrwt>
<totfact> 0.26606450E+00</totfact>
</mgrwt>
</event>
<event>
 6      1 +5.6466785e-02 5.50925100e+02 7.81860800e-03 1.00128000e-01
        1 -1    0    0  502    0 +0.0000000000e+00 +0.0000000000e+00 +7.5977862454e+01 7.5977862454e+01 0.0000000000e+00 0.0000e+00 1.0000e+00
       13 -1    0    0    0    0 -0.0000000000e+00 -0.0000000000e+00 -1.0000000000e+03 1.0000000000e+03 0.0000000000e+00 0.0000e+00 1.0000e+00
  9000005  2    1    2  501    0 +2.1320082651e-01 +1.4169865936e-02 -9.2398155068e+02 1.0757603707e+03 5.5092506158e+02 0.0000e+00 0.0000e+00
       13  1    3    3    0    0 +2.4224544656e+02 -5.2144533403e+01 -2.2678446670e+02 3.3590639036e+02 0.0000000000e+00 0.0000e+00 1.0000e+00
        3  1    3    3  501    0 -2.4203224574e+02 +5.2158703269e+01 -6.9719708397e+02 7.3985398032e+02 0.0000000000e+00 0.0000e+00 1.0000e+00
       21  1    1    2  502  501 -2.1320082651e-01 -1.4169865936e-02 -4.0586868678e-02 2.1749177326e-01 0.0000000000e+00 0.0000e+00 1.0000e+00
<mgrwt>
<rscale>  1 0.55092510E+03</rscale>
<asrwt>0</asrwt>
<pdfrwt beam="1">  1        1 0.27628372E+00 0.55092510E+03</pdfrwt>
<pdfrwt beam="2">0</pdfrwt>
<totfact> 0.47106619E+00</totfact>
</mgrwt>
</event>
<event>
 6      1 +5.6466785e-02 6.16887100e+02 7.81860800e-03 9.87097700e-02
        1 -1    0    0  502    0 +0.0000000000e+00 +0.0000000000e+00 +9.5137569879e+01 9.5137569879e+01 0.0000000000e+00 0.0000e+00 1.0000e+00
       13 -1    0    0    0    0 -0.0000000000e+00 -0.0000000000e+00 -1.0000000000e+03 1.0000000000e+03 0.0000000000e+00 0.0000e+00 1.0000e+00
  9000005  2    1    2  501    0 +1.3114906494e-06 -5.9242736555e-05 -9.0486257916e+02 1.0951374095e+03 6.1688707110e+02 0.0000e+00 0.0000e+00
       13  1    3    3    0    0 -2.1799801526e+02 -1.1383311243e+02 -1.2194451900e+02 2.7450241868e+02 0.0000000000e+00 0.0000e+00 1.0000e+00
        1  1    3    3  501    0 +2.1799801658e+02 +1.1383305318e+02 -7.8291806016e+02 8.2063499081e+02 0.0000000000e+00 0.0000e+00 1.0000e+00
       21  1    1    2  502  501 -1.3114906403e-06 +5.9242736548e-05 +1.4904154135e-04 1.6038953485e-04 0.0000000000e+00 0.0000e+00 -1.0000e+00
<mgrwt>
<rscale>  1 0.61688707E+03</rscale>
<asrwt>0</asrwt>
<pdfrwt beam="1">  1        1 0.34595553E+00 0.61688707E+03</pdfrwt>
<pdfrwt beam="2">0</pdfrwt>
<totfact> 0.23270982E+00</totfact>
</mgrwt>
</event>
<event>
 6      1 +5.6466785e-02 6.45940300e+02 7.81860800e-03 9.81442700e-02
        1 -1    0    0  502    0 +0.0000000000e+00 +0.0000000000e+00 +1.0431011263e+02 1.0431011263e+02 0.0000000000e+00 0.0000e+00 1.0000e+00
       13 -1    0    0    0    0 -0.0000000000e+00 -0.0000000000e+00 -1.0000000000e+03 1.0000000000e+03 0.0000000000e+00 0.0000e+00 1.0000e+00
  9000005  2    1    2  501    0 -7.0062927136e-05 -4.0013518628e-05 -8.9569027687e+02 1.1043097149e+03 6.4594030238e+02 0.0000e+00 0.0000e+00
       13  1    3    3    0    0 +2.8682547912e+02 +1.4477670761e+02 -3.9164727652e+02 5.0657352847e+02 0.0000000000e+00 0.0000e+00 1.0000e+00
        3  1    3    3  501    0 -2.8682554918e+02 -1.4477674762e+02 -5.0404300035e+02 5.9773618639e+02 0.0000000000e+00 0.0000e+00 1.0000e+00
       21  1    1    2  502  501 +7.0062927116e-05 +4.0013518637e-05 +3.8950741659e-04 3.9777622228e-04 0.0000000000e+00 0.0000e+00 1.0000e+00
<mgrwt>
<rscale>  1 0.64594030E+03</rscale>
<asrwt>0</asrwt>
<pdfrwt beam="1">  1        1 0.37931030E+00 0.64594030E+03</pdfrwt>
<pdfrwt beam="2">0</pdfrwt>
<totfact> 0.16537427E+00</totfact>
</mgrwt>
</event>
<event>
 6      1 +5.6466785e-02 6.51066700e+02 7.81860800e-03 9.80478000e-02
        1 -1    0    0  502    0 +0.0000000000e+00 +0.0000000000e+00 +1.0597200714e+02 1.0597200714e+02 0.0000000000e+00 0.0000e+00 1.0000e+00
       13 -1    0    0    0    0 -0.0000000000e+00 -0.0000000000e+00 -1.0000000000e+03 1.0000000000e+03 0.0000000000e+00 0.0000e+00 1.0000e+00
  9000005  2    1    2  501    0 -4.6434771406e-06 -1.5291565092e-05 -8.9402803338e+02 1.1059719636e+03 6.5106670914e+02 0.0000e+00 0.0000e+00
       13  1    3    3    0    0 -9.8736097394e+01 -1.5195779880e+02 +1.2366194890e+01 1.8163951201e+02 0.0000000000e+00 0.0000e+00 1.0000e+00
        3  1    3    3  501    0 +9.8736092751e+01 +1.5195778351e+02 -9.0639422827e+02 9.2433245157e+02 0.0000000000e+00 0.0000e+00 1.0000e+00
       21  1    1    2  502  501 +4.6434771462e-06 +1.5291565097e-05 +4.0529281822e-05 4.3566231512e-05 0.0000000000e+00 0.0000e+00 -1.0000e+00
<mgrwt>
<rscale>  1 0.65106671E+03</rscale>
<asrwt>0</asrwt>
<pdfrwt beam="1">  1        1 0.38535357E+00 0.65106671E+03</pdfrwt>
<pdfrwt beam="2">0</pdfrwt>
<totfact> 0.15536838E+00</totfact>
</mgrwt>
</event>
<event>
 6      1 +5.6466785e-02 6.54460100e+02 7.81860800e-03 9.79844600e-02
        1 -1    0    0  502    0 +0.0000000000e+00 +0.0000000000e+00 +1.0707964081e+02 1.0707964081e+02 0.0000000000e+00 0.0000e+00 1.0000e+00
       13 -1    0    0    0    0 -0.0000000000e+00 -0.0000000000e+00 -1.0000000000e+03 1.0000000000e+03 0.0000000000e+00 0.0000e+00 1.0000e+00
  9000005  2    1    2  501    0 -4.5881453082e-04 -3.5877324535e-05 -8.9291977350e+02 1.1070788959e+03 6.5446005222e+02 0.0000e+00 0.0000e+00
       13  1    3    3    0    0 +2.6319477349e+02 +1.3988621011e+02 -2.1800257895e+02 3.6927600112e+02 0.0000000000e+00 0.0000e+00 1.0000e+00
        1  1    3    3  501    0 -2.6319523230e+02 -1.3988624599e+02 -6.7491719455e+02 7.3780289483e+02 0.0000000000e+00 0.0000e+00 1.0000e+00
       21  1    1    2  502  501 +4.5881453083e-04 +3.5877324532e-05 -5.8568712299e-04 7.4486734534e-04 0.0000000000e+00 0.0000e+00 -1.0000e+00
<mgrwt>
<rscale>  1 0.65446005E+03</rscale>
<asrwt>0</asrwt>
<pdfrwt beam="1">  1        1 0.38938133E+00 0.65446005E+03</pdfrwt>
<pdfrwt beam="2">0</pdfrwt>
<totfact> 0.14902267E+00</totfact>
</mgrwt>
</event>
<event>
 6      1 +5.6466785e-02 6.59082400e+02 7.81860800e-03 9.78988400e-02
        1 -1    0    0  502    0 +0.0000000000e+00 +0.0000000000e+00 +1.0860931176e+02 1.0860931176e+02 0.0000000000e+00 0.0000e+00 1.0000e+00
       13 -1    0    0    0    0 -0.0000000000e+00 -0.0000000000e+00 -1.0000000000e+03 1.0000000000e+03 0.0000000000e+00 0.0000e+00 1.0000e+00
  9000005  2    1    2  501    0 -9.4733261364e-03 -5.6233478925e-03 -8.9139968500e+02 1.1085950883e+03 6.5908244644e+02 0.0000e+00 0.0000e+00
       13  1    3    3    0    0 +8.4143104581e+01 +2.3220160542e+02 -8.1266170581e+02 8.4936252313e+02 0.0000000000e+00 0.0000e+00 1.0000e+00
        1  1    3    3  501    0 -8.4152577907e+01 -2.3220722877e+02 -7.8737979183e+01 2.5923256514e+02 0.0000000000e+00 0.0000e+00 1.0000e+00
       21  1    1    2  502  501 +9.4733261364e-03 +5.6233478925e-03 +8.9967546544e-03 1.4223485646e-02 0.0000000000e+00 0.0000e+00 -1.0000e+00
<mgrwt>
<rscale>  1 0.65908245E+03</rscale>
<asrwt>0</asrwt>
<pdfrwt beam="1">  1        1 0.39494378E+00 0.65908245E+03</pdfrwt>
<pdfrwt beam="2">0</pdfrwt>
<totfact> 0.14066380E+00</totfact>
</mgrwt>
</event>
<event>
 6      1 +5.6466785e-02 6.47121400e+02 7.81860800e-03 9.81219600e-02
        1 -1    0    0  502    0 +0.0000000000e+00 +0.0000000000e+00 +1.0473384802e+02 1.0473384802e+02 0.0000000000e+00 0.0000e+00 1.0000e+00
       13 -1    0    0    0    0 -0.0000000000e+00 -0.0000000000e+00 -1.0000000000e+03 1.0000000000e+03 0.0000000000e+00 0.0000e+00 1.0000e+00
  9000005  2    1    2  501    0 -8.4609278920e-03 -1.1328239671e-04 -8.9530799828e+02 1.1046911548e+03 6.4712142260e+02 0.0000e+00 0.0000e+00
       13  1    3    3    0    0 +1.5350898563e+02 -5.5868196366e+01 +2.9123762498e+01 1.6593510050e+02 0.0000000000e+00 0.0000e+00 1.0000e+00
        3  1    3    3  501    0 -1.5351744656e+02 +5.5868083084e+01 -9.2443176078e+02 9.3875605428e+02 0.0000000000e+00 0.0000e+00 1.0000e+00
       21  1    1    2  502  501 +8.4609278920e-03 +1.1328239671e-04 +4.1846302148e-02 4.2693244632e-02 0.0000000000e+00 0.0000e+00 -1.0000e+00
<mgrwt>
<rscale>  1 0.64712142E+03</rscale>
<asrwt>0</asrwt>
<pdfrwt beam="1">  1        1 0.38085116E+00 0.64712142E+03</pdfrwt>
<pdfrwt beam="2">0</pdfrwt>
<totfact> 0.16277014E+00</totfact>
</mgrwt>
</event>
<event>
 6      1 +5.6466785e-02 6.52785200e+02 7.81860800e-03 9.80156700e-02
        1 -1    0    0  502    0 +0.0000000000e+00 +0.0000000000e+00 +1.0808146519e+02 1.0808146519e+02 0.0000000000e+00 0.0000e+00 1.0000e+00
       13 -1    0    0    0    0 -0.0000000000e+00 -0.0000000000e+00 -1.0000000000e+03 1.0000000000e+03 0.0000000000e+00 0.0000e+00 1.0000e+00
  9000005  2    1    2  501    0 +5.3267678101e-03 -3.4416059300e-02 -8.9346764168e+02 1.1065319669e+03 6.5278523716e+02 0.0000e+00 0.0000e+00
       13  1    3    3    0    0 +1.0819712890e+02 -3.0673418353e+02 -4.0031047845e+02 5.1579158311e+02 0.0000000000e+00 0.0000e+00 1.0000e+00
        3  1    3    3  501    0 -1.0819180213e+02 +3.0669976747e+02 -4.9315716323e+02 5.9074038380e+02 0.0000000000e+00 0.0000e+00 1.0000e+00
       21  1    1    2  502  501 -5.3267678101e-03 +3.4416059300e-02 +1.5491068683e+00 1.5494982830e+00 0.0000000000e+00 0.0000e+00 1.0000e+00
<mgrwt>
<rscale>  1 0.65278524E+03</rscale>
<asrwt>0</asrwt>
<pdfrwt beam="1">  1        1 0.39302434E+00 0.65278524E+03</pdfrwt>
<pdfrwt beam="2">0</pdfrwt>
<totfact> 0.14362255E+00</totfact>
</mgrwt>
</event>
<event>
 6      1 +5.6466785e-02 6.39154700e+02 7.81860800e-03 9.82734500e-02
        1 -1    0    0  502    0 +0.0000000000e+00 +0.0000000000e+00 +1.0626470239e+02 1.0626470239e+02 0.0000000000e+00 0.0000e+00 1.0000e+00
       13 -1    0    0    0    0 -0.0000000000e+00 -0.0000000000e+00 -1.0000000000e+03 1.0000000000e+03 0.0000000000e+00 0.0000e+00 1.0000e+00
  9000005  2    1    2  501    0 -1.8759427194e-01 +2.1386916971e-01 -8.9786491591e+02 1.1021252968e+03 6.3915466174e+02 0.0000e+00 0.0000e+00
       13  1    3    3    0    0 +2.8576796931e+01 +1.7099767621e+02 +1.4024332256e+01 1.7393539170e+02 0.0000000000e+00 0.0000e+00 1.0000e+00
        3  1    3    3  501    0 -2.8764391203e+01 -1.7078380704e+02 -9.1188924816e+02 9.2818990506e+02 0.0000000000e+00 0.0000e+00 1.0000e+00
       21  1    1    2  502  501 +1.8759427194e-01 -2.1386916971e-01 +4.1296182946e+00 4.1394056206e+00 0.0000000000e+00 0.0000e+00 1.0000e+00
<mgrwt>
<rscale>  1 0.63915473E+03</rscale>
<asrwt>0</asrwt>
<pdfrwt beam="1">  1        1 0.38641791E+00 0.63915473E+03</pdfrwt>
<pdfrwt beam="2">0</pdfrwt>
<totfact> 0.15403434E+00</totfact>
</mgrwt>
</event>
<event>
 6      1 +5.6466785e-02 6.54368400e+02 7.81860800e-03 9.79861700e-02
        1 -1    0    0  502    0 +0.0000000000e+00 +0.0000000000e+00 +1.1176965226e+02 1.1176965226e+02 0.0000000000e+00 0.0000e+00 1.0000e+00
       13 -1    0    0    0    0 -0.0000000000e+00 -0.0000000000e+00 -1.0000000000e+03 1.0000000000e+03 0.0000000000e+00 0.0000e+00 1.0000e+00
  9000005  2    1    2  501    0 +5.3229366358e-01 -6.1619032480e-01 -8.9291160085e+02 1.1070181096e+03 6.5436786673e+02 0.0000e+00 0.0000e+00
       13  1    3    3    0    0 +3.2178429694e+02 +3.6748558984e+01 -5.2793771275e+02 6.1936565846e+02 0.0000000000e+00 0.0000e+00 1.0000e+00
        3  1    3    3  501    0 -3.2125200327e+02 -3.7364749309e+01 -3.6497388810e+02 4.8765245113e+02 0.0000000000e+00 0.0000e+00 1.0000e+00
       21  1    1    2  502  501 -5.3229366358e-01 +6.1619032480e-01 +4.6812531063e+00 4.7515426659e+00 0.0000000000e+00 0.0000e+00 -1.0000e+00
<mgrwt>
<rscale>  1 0.65436837E+03</rscale>
<asrwt>0</asrwt>
<pdfrwt beam="1">  1        1 0.40643596E+00 0.65436837E+03</pdfrwt>
<pdfrwt beam="2">0</pdfrwt>
<totfact> 0.12511590E+00</totfact>
</mgrwt>
</event>
<event>
 6      1 +5.6466785e-02 6.81164200e+02 7.81860800e-03 9.74999700e-02
        1 -1    0    0  502    0 +0.0000000000e+00 +0.0000000000e+00 +1.1600996293e+02 1.1600996293e+02 0.0000000000e+00 0.0000e+00 1.0000e+00
       13 -1    0    0    0    0 -0.0000000000e+00 -0.0000000000e+00 -1.0000000000e+03 1.0000000000e+03 0.0000000000e+00 0.0000e+00 1.0000e+00
  9000005  2    1    2  501    0 +3.0069424638e-04 -3.0986855984e-04 -8.8400381325e+02 1.1159961800e+03 6.8116424738e+02 0.0000e+00 0.0000e+00
       13  1    3    3    0    0 +4.7223748575e+01 +2.7021232336e+02 -1.1126555005e+02 2.9601487252e+02 0.0000000000e+00 0.0000e+00 1.0000e+00
        1  1    3    3  501    0 -4.7223447881e+01 -2.7021263323e+02 -7.7273826320e+02 8.1998130747e+02 0.0000000000e+00 0.0000e+00 1.0000e+00
       21  1    1    2  502  501 -3.0069424637e-04 +3.0986855983e-04 +1.3776173326e-02 1.3782938259e-02 0.0000000000e+00 0.0000e+00 -1.0000e+00
<mgrwt>
<rscale>  1 0.68116425E+03</rscale>
<asrwt>0</asrwt>
<pdfrwt beam="1">  1        1 0.42185530E+00 0.68116425E+03</pdfrwt>
<pdfrwt beam="2">0</pdfrwt>
<totfact> 0.10610939E+00</totfact>
</mgrwt>
</event>
<event>
 6      1 +5.6466785e-02 6.58135500e+02 7.81860800e-03 9.79163200e-02
        1 -1    0    0  502    0 +0.0000000000e+00 +0.0000000000e+00 +1.1510493698e+02 1.1510493698e+02 0.0000000000e+00 0.0000e+00 1.0000e+00
       13 -1    0    0    0    0 -0.0000000000e+00 -0.0000000000e+00 -1.0000000000e+03 1.0000000000e+03 0.0000000000e+00 0.0000e+00 1.0000e+00
  9000005  2    1    2  501    0 -1.2355050527e+01 -5.2820431904e+00 -8.8336855218e+02 1.1015817166e+03 6.5799827670e+02 0.0000e+00 0.0000e+00
       13  1    3    3    0    0 -1.7828182465e+02 -1.7601949439e+02 -8.1681374356e+02 8.5437226258e+02 0.0000000000e+00 0.0000e+00 1.0000e+00
        3  1    3    3  501    0 +1.6592677412e+02 +1.7073745120e+02 -6.6554808625e+01 2.4720945403e+02 0.0000000000e+00 0.0000e+00 1.0000e+00
       21  1    1    2  502  501 +1.2355050527e+01 +5.2820431904e+00 -1.5265108314e+00 1.3523220367e+01 0.0000000000e+00 0.0000e+00 -1.0000e+00
<mgrwt>
<rscale>  1 0.65813546E+03</rscale>
<asrwt>0</asrwt>
<pdfrwt beam="1">  1        1 0.41856429E+00 0.65813546E+03</pdfrwt>
<pdfrwt beam="2">0</pdfrwt>
<totfact> 0.11028987E+00</totfact>
</mgrwt>
</event>
<event>
 6      1 +5.6466785e-02 6.48165600e+02 7.81860800e-03 9.81022700e-02
        1 -1    0    0  502    0 +0.0000000000e+00 +0.0000000000e+00 +1.0502967917e+02 1.0502967917e+02 0.0000000000e+00 0.0000e+00 1.0000e+00
       13 -1    0    0    0    0 -0.0000000000e+00 -0.0000000000e+00 -1.0000000000e+03 1.0000000000e+03 0.0000000000e+00 0.0000e+00 1.0000e+00
  9000005  2    1    2  501    0 -1.5677672792e-05 -3.8680500438e-06 -8.9497032402e+02 1.1050296627e+03 6.4816562282e+02 0.0000e+00 0.0000e+00
       13  1    3    3    0    0 -2.3191813883e+02 -2.0614403204e+02 -2.8802600882e+02 4.2336788591e+02 0.0000000000e+00 0.0000e+00 1.0000e+00
        1  1    3    3  501    0 +2.3191812316e+02 +2.0614402817e+02 -6.0694431520e+02 6.8166177680e+02 0.0000000000e+00 0.0000e+00 1.0000e+00
       21  1    1    2  502  501 +1.5677672788e-05 +3.8680500558e-06 +3.1948993612e-06 1.6460820672e-05 0.0000000000e+00 0.0000e+00 -1.0000e+00
<mgrwt>
<rscale>  1 0.64816562E+03</rscale>
<asrwt>0</asrwt>
<pdfrwt beam="1">  1        1 0.38192691E+00 0.64816562E+03</pdfrwt>
<pdfrwt beam="2">0</pdfrwt>
<totfact> 0.16096874E+00</totfact>
</mgrwt>
</event>
<event>
 6      1 +5.6466785e-02 6.57458200e+02 7.81860800e-03 9.79288400e-02
        1 -1    0    0  502    0 +0.0000000000e+00 +0.0000000000e+00 +1.0806320385e+02 1.0806320385e+02 0.0000000000e+00 0.0000e+00 1.0000e+00
       13 -1    0    0    0    0 -0.0000000000e+00 -0.0000000000e+00 -1.0000000000e+03 1.0000000000e+03 0.0000000000e+00 0.0000e+00 1.0000e+00
  9000005  2    1    2  501    0 +3.2804617624e-04 +2.6216336198e-04 -8.9193705138e+02 1.1080627124e+03 6.5745818959e+02 0.0000e+00 0.0000e+00
       13  1    3    3    0    0 -2.2067905378e+02 +7.3560633924e+01 -8.3744103952e+02 8.6914780464e+02 0.0000000000e+00 0.0000e+00 1.0000e+00
        1  1    3    3  501    0 +2.2067938183e+02 -7.3560371761e+01 -5.4496011858e+01 2.3891490779e+02 0.0000000000e+00 0.0000e+00 1.0000e+00
       21  1    1    2  502  501 -3.2804617625e-04 -2.6216336199e-04 +2.5522996491e-04 4.9141251216e-04 0.0000000000e+00 0.0000e+00 -1.0000e+00
<mgrwt>
<rscale>  1 0.65745819E+03</rscale>
<asrwt>0</asrwt>
<pdfrwt beam="1">  1        1 0.39295793E+00 0.65745819E+03</pdfrwt>
<pdfrwt beam="2">0</pdfrwt>
<totfact> 0.14359498E+00</totfact>
</mgrwt>
</event>
<event>
 6      1 +5.6466785e-02 6.57663700e+02 7.81860800e-03 9.79250400e-02
        1 -1    0    0  502    0 +0.0000000000e+00 +0.0000000000e+00 +1.0813088573e+02 1.0813088573e+02 0.0000000000e+00 0.0000e+00 1.0000e+00
       13 -1    0    0    0    0 -0.0000000000e+00 -0.0000000000e+00 -1.0000000000e+03 1.0000000000e+03 0.0000000000e+00 0.0000e+00 1.0000e+00
  9000005  2    1    2  501    0 +1.6226831946e-05 -5.2976632702e-05 -8.9186961496e+02 1.1081303820e+03 6.5766369323e+02 0.0000e+00 0.0000e+00
       13  1    3    3    0    0 -1.5243961769e+02 -8.4617733493e+01 +2.3838130446e+01 1.7597231125e+02 0.0000000000e+00 0.0000e+00 1.0000e+00
        3  1    3    3  501    0 +1.5243963392e+02 +8.4617680517e+01 -9.1570774540e+02 9.3215807074e+02 0.0000000000e+00 0.0000e+00 1.0000e+00
       21  1    1    2  502  501 -1.6226831945e-05 +5.2976632702e-05 +5.0068712899e-04 5.0374342162e-04 0.0000000000e+00 0.0000e+00 1.0000e+00
<mgrwt>
<rscale>  1 0.65766369E+03</rscale>
<asrwt>0</asrwt>
<pdfrwt beam="1">  1        1 0.39320405E+00 0.65766369E+03</pdfrwt>
<pdfrwt beam="2">0</pdfrwt>
<totfact> 0.14322848E+00</totfact>
</mgrwt>
</event>
<event>
 6      1 +5.6466785e-02 6.59165300e+02 7.81860800e-03 9.78973200e-02
        1 -1    0    0  502    0 +0.0000000000e+00 +0.0000000000e+00 +1.0915683347e+02 1.0915683347e+02 0.0000000000e+00 0.0000e+00 1.0000e+00
       13 -1    0    0    0    0 -0.0000000000e+00 -0.0000000000e+00 -1.0000000000e+03 1.0000000000e+03 0.0000000000e+00 0.0000e+00 1.0000e+00
  9000005  2    1    2  501    0 +7.2849468223e-03 +2.2659492573e-03 -8.9137525638e+02 1.1086246889e+03 6.5916526999e+02 0.0000e+00 0.0000e+00
       13  1    3    3    0    0 -1.9065398080e+02 +8.6658640706e+01 -8.7370112389e+02 8.9844995091e+02 0.0000000000e+00 0.0000e+00 1.0000e+00
        1  1    3    3  501    0 +1.9066126575e+02 -8.6656374757e+01 -1.7674132487e+01 2.1017473802e+02 0.0000000000e+00 0.0000e+00 1.0000e+00
       21  1    1    2  502  501 -7.2849468223e-03 -2.2659492573e-03 +5.3208984410e-01 5.3214453598e-01 0.0000000000e+00 0.0000e+00 -1.0000e+00
<mgrwt>
<rscale>  1 0.65916527E+03</rscale>
<asrwt>0</asrwt>
<pdfrwt beam="1">  1        1 0.39693478E+00 0.65916527E+03</pdfrwt>
<pdfrwt beam="2">0</pdfrwt>
<totfact> 0.13782172E+00</totfact>
</mgrwt>
</event>
<event>
 6      1 +5.6466785e-02 6.39949500e+02 7.81860800e-03 9.82582300e-02
        1 -1    0    0  502    0 +0.0000000000e+00 +0.0000000000e+00 +1.0238382716e+02 1.0238382716e+02 0.0000000000e+00 0.0000e+00 1.0000e+00
       13 -1    0    0    0    0 -0.0000000000e+00 -0.0000000000e+00 -1.0000000000e+03 1.0000000000e+03 0.0000000000e+00 0.0000e+00 1.0000e+00
  9000005  2    1    2  501    0 +1.2184227103e-06 -2.1764873566e-06 -8.9761617348e+02 1.1023838246e+03 6.3994945255e+02 0.0000e+00 0.0000e+00
       13  1    3    3    0    0 +1.9544297354e+02 +2.2396270343e+01 -1.4094443427e+01 1.9722627149e+02 0.0000000000e+00 0.0000e+00 1.0000e+00
        3  1    3    3  501    0 -1.9544297232e+02 -2.2396272520e+01 -8.8352173005e+02 9.0515755309e+02 0.0000000000e+00 0.0000e+00 1.0000e+00
       21  1    1    2  502  501 -1.2184227039e-06 +2.1764873533e-06 +6.3724217844e-07 2.5744375460e-06 0.0000000000e+00 0.0000e+00 1.0000e+00
<mgrwt>
<rscale>  1 0.63994945E+03</rscale>
<asrwt>0</asrwt>
<pdfrwt beam="1">  1        1 0.37230561E+00 0.63994945E+03</pdfrwt>
<pdfrwt beam="2">0</pdfrwt>
<totfact> 0.17774173E+00</totfact>
</mgrwt>
</event>
<event>
 6      1 +5.6466785e-02 6.33778300e+02 7.81860800e-03 9.83770300e-02
        1 -1    0    0  502    0 +0.0000000000e+00 +0.0000000000e+00 +1.0043929410e+02 1.0043929410e+02 0.0000000000e+00 0.0000e+00 1.0000e+00
       13 -1    0    0    0    0 -0.0000000000e+00 -0.0000000000e+00 -1.0000000000e+03 1.0000000000e+03 0.0000000000e+00 0.0000e+00 1.0000e+00
  9000005  2    1    2  501    0 -1.0808067879e-03 -6.3507524084e-02 -8.9949153255e+02 1.1003453828e+03 6.3377830536e+02 0.0000e+00 0.0000e+00
       13  1    3    3    0    0 -2.9073550393e+02 +7.7398878686e+01 -2.7702025562e+02 4.0897181039e+02 0.0000000000e+00 0.0000e+00 1.0000e+00
        1  1    3    3  501    0 +2.9073442312e+02 -7.7462386210e+01 -6.2247127693e+02 6.9137357244e+02 0.0000000000e+00 0.0000e+00 1.0000e+00
       21  1    1    2  502  501 +1.0808067879e-03 +6.3507524084e-02 -6.9173355894e-02 9.3911271550e-02 0.0000000000e+00 0.0000e+00 -1.0000e+00
<mgrwt>
<rscale>  1 0.63377831E+03</rscale>
<asrwt>0</asrwt>
<pdfrwt beam="1">  1        1 0.36523457E+00 0.63377831E+03</pdfrwt>
<pdfrwt beam="2">0</pdfrwt>
<totfact> 0.19112408E+00</totfact>
</mgrwt>
</event>
<event>
 6      1 +5.6466785e-02 6.49511800e+02 7.81860800e-03 9.80769600e-02
        1 -1    0    0  502    0 +0.0000000000e+00 +0.0000000000e+00 +1.0572331245e+02 1.0572331245e+02 0.0000000000e+00 0.0000e+00 1.0000e+00
       13 -1    0    0    0    0 -0.0000000000e+00 -0.0000000000e+00 -1.0000000000e+03 1.0000000000e+03 0.0000000000e+00 0.0000e+00 1.0000e+00
  9000005  2    1    2  501    0 -4.1175292515e-02 +1.0708023481e-01 -8.9451935551e+02 1.1054548924e+03 6.4951183869e+02 0.0000e+00 0.0000e+00
       13  1    3    3    0    0 -1.1501379573e+02 -1.6242529464e+02 -8.8396051277e+02 9.0608848226e+02 0.0000000000e+00 0.0000e+00 1.0000e+00
        3  1    3    3  501    0 +1.1497262043e+02 +1.6253237488e+02 -1.0558842737e+01 1.9936641014e+02 0.0000000000e+00 0.0000e+00 1.0000e+00
       21  1    1    2  502  501 +4.1175292515e-02 -1.0708023481e-01 +2.4266795890e-01 2.6842004336e-01 0.0000000000e+00 0.0000e+00 -1.0000e+00
<mgrwt>
<rscale>  1 0.64951185E+03</rscale>
<asrwt>0</asrwt>
<pdfrwt beam="1">  1        1 0.38444922E+00 0.64951185E+03</pdfrwt>
<pdfrwt beam="2">0</pdfrwt>
<totfact> 0.15685098E+00</totfact>
</mgrwt>
</event>
<event>
 6      1 +5.6466785e-02 6.47873700e+02 7.81860800e-03 9.81077700e-02
        1 -1    0    0  502    0 +0.0000000000e+00 +0.0000000000e+00 +1.0493522633e+02 1.0493522633e+02 0.0000000000e+00 0.0000e+00 1.0000e+00
       13 -1    0    0    0    0 -0.0000000000e+00 -0.0000000000e+00 -1.0000000000e+03 1.0000000000e+03 0.0000000000e+00 0.0000e+00 1.0000e+00
  9000005  2    1    2  501    0 +8.1682892414e-06 -1.2924645823e-05 -8.9506492795e+02 1.1049350713e+03 6.4787366556e+02 0.0000e+00 0.0000e+00
       13  1    3    3    0    0 +3.1267630265e+02 +5.2450359257e+01 -3.3417821709e+02 4.6064367054e+02 0.0000000000e+00 0.0000e+00 1.0000e+00
        1  1    3    3  501    0 -3.1267629448e+02 -5.2450372182e+01 -5.6088671086e+02 6.4429140076e+02 0.0000000000e+00 0.0000e+00 1.0000e+00
       21  1    1    2  502  501 -8.1682892436e-06 +1.2924645826e-05 +1.5427786728e-04 1.5503363426e-04 0.0000000000e+00 0.0000e+00 1.0000e+00
<mgrwt>
<rscale>  1 0.64787367E+03</rscale>
<asrwt>0</asrwt>
<pdfrwt beam="1">  1        1 0.38158345E+00 0.64787367E+03</pdfrwt>
<pdfrwt beam="2">0</pdfrwt>
<totfact> 0.16154059E+00</totfact>
</mgrwt>
</event>
<event>
 6      1 +5.6466785e-02 6.47282000e+02 7.81860800e-03 9.81189300e-02
        1 -1    0    0  502    0 +0.0000000000e+00 +0.0000000000e+00 +1.0474379505e+02 1.0474379505e+02 0.0000000000e+00 0.0000e+00 1.0000e+00
       13 -1    0    0    0    0 -0.0000000000e+00 -0.0000000000e+00 -1.0000000000e+03 1.0000000000e+03 0.0000000000e+00 0.0000e+00 1.0000e+00
  9000005  2    1    2  501    0 +2.1753627752e-04 -8.4897445583e-04 -8.9525446142e+02 1.1047418437e+03 6.4728200224e+02 0.0000e+00 0.0000e+00
       13  1    3    3    0    0 -2.2724086814e+02 +1.3109323034e+02 -7.7109565288e+02 8.1450129103e+02 0.0000000000e+00 0.0000e+00 1.0000e+00
        3  1    3    3  501    0 +2.2724108567e+02 -1.3109407931e+02 -1.2415880854e+02 2.9024055263e+02 0.0000000000e+00 0.0000e+00 1.0000e+00
       21  1    1    2  502  501 -2.1753627752e-04 +8.4897445586e-04 -1.7435251163e-03 1.9513993671e-03 0.0000000000e+00 0.0000e+00 1.0000e+00
<mgrwt>
<rscale>  1 0.64728200E+03</rscale>
<asrwt>0</asrwt>
<pdfrwt beam="1">  1        1 0.38088733E+00 0.64728200E+03</pdfrwt>
<pdfrwt beam="2">0</pdfrwt>
<totfact> 0.16270550E+00</totfact>
</mgrwt>
</event>
<event>
 6      1 +5.6466785e-02 6.45288900e+02 7.81860800e-03 9.81566000e-02
        1 -1    0    0  502    0 +0.0000000000e+00 +0.0000000000e+00 +1.0410395672e+02 1.0410395672e+02 0.0000000000e+00 0.0000e+00 1.0000e+00
       13 -1    0    0    0    0 -0.0000000000e+00 -0.0000000000e+00 -1.0000000000e+03 1.0000000000e+03 0.0000000000e+00 0.0000e+00 1.0000e+00
  9000005  2    1    2  501    0 +1.4707672614e-04 +2.2263523510e-04 -8.9590055203e+02 1.1040994401e+03 6.4528890775e+02 0.0000e+00 0.0000e+00
       13  1    3    3    0    0 -2.3710961645e+02 +2.1866198181e+02 -4.6178997143e+02 5.6327969093e+02 0.0000000000e+00 0.0000e+00 1.0000e+00
        1  1    3    3  501    0 +2.3710976353e+02 -2.1866175918e+02 -4.3411058059e+02 5.4081974915e+02 0.0000000000e+00 0.0000e+00 1.0000e+00
       21  1    1    2  502  501 -1.4707672613e-04 -2.2263523509e-04 +4.5087439958e-03 4.5166326429e-03 0.0000000000e+00 0.0000e+00 1.0000e+00
<mgrwt>
<rscale>  1 0.64528891E+03</rscale>
<asrwt>0</asrwt>
<pdfrwt beam="1">  1        1 0.37856064E+00 0.64528891E+03</pdfrwt>
<pdfrwt beam="2">0</pdfrwt>
<totfact> 0.16665788E+00</totfact>
</mgrwt>
</event>
<event>
 6      1 +5.6466785e-02 6.67293500e+02 7.81860800e-03 9.77486000e-02
        1 -1    0    0  502    0 +0.0000000000e+00 +0.0000000000e+00 +1.1194966628e+02 1.1194966628e+02 0.0000000000e+00 0.0000e+00 1.0000e+00
       13 -1    0    0    0    0 -0.0000000000e+00 -0.0000000000e+00 -1.0000000000e+03 1.0000000000e+03 0.0000000000e+00 0.0000e+00 1.0000e+00
  9000005  2    1    2  501    0 +8.6127345657e-02 +1.3369767255e-01 -8.8866866412e+02 1.1113112107e+03 6.6729347909e+02 0.0000e+00 0.0000e+00
       13  1    3    3    0    0 -1.5188475495e+01 -2.6005179634e+02 -7.9131539951e+02 8.3308924375e+02 0.0000000000e+00 0.0000e+00 1.0000e+00
        1  1    3    3  501    0 +1.5274602841e+01 +2.6018549401e+02 -9.7353264615e+01 2.7822196699e+02 0.0000000000e+00 0.0000e+00 1.0000e+00
       21  1    1    2  502  501 -8.6127345657e-02 -1.3369767255e-01 +6.1833040287e-01 6.3845553834e-01 0.0000000000e+00 0.0000e+00 -1.0000e+00
<mgrwt>
<rscale>  1 0.66729350E+03</rscale>
<asrwt>0</asrwt>
<pdfrwt beam="1">  1        1 0.40709055E+00 0.66729350E+03</pdfrwt>
<pdfrwt beam="2">0</pdfrwt>
<totfact> 0.12396977E+00</totfact>
</mgrwt>
</event>
<event>
 6      1 +5.6466785e-02 6.49695200e+02 7.81860800e-03 9.80735100e-02
        1 -1    0    0  502    0 +0.0000000000e+00 +0.0000000000e+00 +1.1209394272e+02 1.1209394272e+02 0.0000000000e+00 0.0000e+00 1.0000e+00
       13 -1    0    0    0    0 -0.0000000000e+00 -0.0000000000e+00 -1.0000000000e+03 1.0000000000e+03 0.0000000000e+00 0.0000e+00 1.0000e+00
  9000005  2    1    2  501    0 +3.8389579435e-01 -2.4540098759e-01 -8.9446529113e+02 1.1055189031e+03 6.4969506727e+02 0.0000e+00 0.0000e+00
       13  1    3    3    0    0 -3.1080961742e+02 -1.2859458796e+01 -6.0516840445e+02 6.8043866859e+02 0.0000000000e+00 0.0000e+00 1.0000e+00
        3  1    3    3  501    0 +3.1119351321e+02 +1.2614057809e+01 -2.8929688667e+02 4.2508023449e+02 0.0000000000e+00 0.0000e+00 1.0000e+00
       21  1    1    2  502  501 -3.8389579435e-01 +2.4540098759e-01 +6.5592338480e+00 6.5750396424e+00 0.0000000000e+00 0.0000e+00 1.0000e+00
<mgrwt>
<rscale>  1 0.64969523E+03</rscale>
<asrwt>0</asrwt>
<pdfrwt beam="1">  1        1 0.40761520E+00 0.64969523E+03</pdfrwt>
<pdfrwt beam="2">0</pdfrwt>
<totfact> 0.12371594E+00</totfact>
</mgrwt>
</event>
<event>
 6      1 +5.6466785e-02 6.51622600e+02 7.81860800e-03 9.80373900e-02
        1 -1    0    0  502    0 +0.0000000000e+00 +0.0000000000e+00 +1.0668621899e+02 1.0668621899e+02 0.0000000000e+00 0.0000e+00 1.0000e+00
       13 -1    0    0    0    0 -0.0000000000e+00 -0.0000000000e+00 -1.0000000000e+03 1.0000000000e+03 0.0000000000e+00 0.0000e+00 1.0000e+00
  9000005  2    1    2  501    0 +3.3034320124e-02 +1.1712716276e-01 -8.9383930120e+02 1.1061467920e+03 6.5162260104e+02 0.0000e+00 0.0000e+00
       13  1    3    3    0    0 +4.8705912417e+01 -2.8855243043e+02 -2.0388579074e+02 3.5665695939e+02 0.0000000000e+00 0.0000e+00 1.0000e+00
        1  1    3    3  501    0 -4.8672878097e+01 +2.8866955759e+02 -6.8995351046e+02 7.4948983258e+02 0.0000000000e+00 0.0000e+00 1.0000e+00
       21  1    1    2  502  501 -3.3034320124e-02 -1.1712716276e-01 +5.2552019593e-01 5.3942702462e-01 0.0000000000e+00 0.0000e+00 1.0000e+00
<mgrwt>
<rscale>  1 0.65162261E+03</rscale>
<asrwt>0</asrwt>
<pdfrwt beam="1">  1        1 0.38795071E+00 0.65162261E+03</pdfrwt>
<pdfrwt beam="2">0</pdfrwt>
<totfact> 0.15129364E+00</totfact>
</mgrwt>
</event>
<event>
 6      1 +5.6466785e-02 6.52098000e+02 7.81860800e-03 9.80285000e-02
        1 -1    0    0  502    0 +0.0000000000e+00 +0.0000000000e+00 +1.0630847772e+02 1.0630847772e+02 0.0000000000e+00 0.0000e+00 1.0000e+00
       13 -1    0    0    0    0 -0.0000000000e+00 -0.0000000000e+00 -1.0000000000e+03 1.0000000000e+03 0.0000000000e+00 0.0000e+00 1.0000e+00
  9000005  2    1    2  501    0 -1.0565551665e-03 -7.9146542133e-04 -8.9369087964e+02 1.1063070095e+03 6.5209800711e+02 0.0000e+00 0.0000e+00
       13  1    3    3    0    0 +2.4187600546e+02 +2.7291433436e+01 -7.8814662457e+01 2.5585264386e+02 0.0000000000e+00 0.0000e+00 1.0000e+00
        3  1    3    3  501    0 -2.4187706201e+02 -2.7292224902e+01 -8.1487621718e+02 8.5045436562e+02 0.0000000000e+00 0.0000e+00 1.0000e+00
       21  1    1    2  502  501 +1.0565551665e-03 +7.9146542133e-04 -6.4264044304e-04 1.4682346788e-03 0.0000000000e+00 0.0000e+00 -1.0000e+00
<mgrwt>
<rscale>  1 0.65209801E+03</rscale>
<asrwt>0</asrwt>
<pdfrwt beam="1">  1        1 0.38657710E+00 0.65209801E+03</pdfrwt>
<pdfrwt beam="2">0</pdfrwt>
<totfact> 0.15341408E+00</totfact>
</mgrwt>
</event>
<event>
 6      1 +5.6466785e-02 6.44222600e+02 7.81860800e-03 9.81768100e-02
        1 -1    0    0  502    0 +0.0000000000e+00 +0.0000000000e+00 +1.0375579340e+02 1.0375579340e+02 0.0000000000e+00 0.0000e+00 1.0000e+00
       13 -1    0    0    0    0 -0.0000000000e+00 -0.0000000000e+00 -1.0000000000e+03 1.0000000000e+03 0.0000000000e+00 0.0000e+00 1.0000e+00
  9000005  2    1    2  501    0 -1.8438854056e-05 +6.0184055556e-05 -8.9624431563e+02 1.1037556675e+03 6.4422255489e+02 0.0000e+00 0.0000e+00
       13  1    3    3    0    0 +2.7451775201e+02 +3.1016786773e+01 -1.6434416900e+02 3.2145146308e+02 0.0000000000e+00 0.0000e+00 1.0000e+00
        3  1    3    3  501    0 -2.7451777045e+02 -3.1016726588e+01 -7.3190014663e+02 7.8230420443e+02 0.0000000000e+00 0.0000e+00 1.0000e+00
       21  1    1    2  502  501 +1.8438854077e-05 -6.0184055559e-05 +1.0903706377e-04 1.2590152167e-04 0.0000000000e+00 0.0000e+00 1.0000e+00
<mgrwt>
<rscale>  1 0.64422255E+03</rscale>
<asrwt>0</asrwt>
<pdfrwt beam="1">  1        1 0.37729459E+00 0.64422255E+03</pdfrwt>
<pdfrwt beam="2">0</pdfrwt>
<totfact> 0.16884622E+00</totfact>
</mgrwt>
</event>
<event>
 6      1 +5.6466785e-02 6.59126500e+02 7.81860800e-03 9.78980300e-02
        1 -1    0    0  502    0 +0.0000000000e+00 +0.0000000000e+00 +1.0866793947e+02 1.0866793947e+02 0.0000000000e+00 0.0000e+00 1.0000e+00
       13 -1    0    0    0    0 -0.0000000000e+00 -0.0000000000e+00 -1.0000000000e+03 1.0000000000e+03 0.0000000000e+00 0.0000e+00 1.0000e+00
  9000005  2    1    2  501    0 +6.8162274537e-02 +1.0268506287e-01 -8.9129901956e+02 1.1085403384e+03 6.5912648596e+02 0.0000e+00 0.0000e+00
       13  1    3    3    0    0 +2.9157683001e+02 +9.7329921942e+01 -6.4578265830e+02 7.1521004136e+02 0.0000000000e+00 0.0000e+00 1.0000e+00
        3  1    3    3  501    0 -2.9150866773e+02 -9.7227236880e+01 -2.4551636126e+02 3.9333029708e+02 0.0000000000e+00 0.0000e+00 1.0000e+00
       21  1    1    2  502  501 -6.8162274537e-02 -1.0268506287e-01 -3.3040974420e-02 1.2760103368e-01 0.0000000000e+00 0.0000e+00 -1.0000e+00
<mgrwt>
<rscale>  1 0.65912650E+03</rscale>
<asrwt>0</asrwt>
<pdfrwt beam="1">  1        1 0.39515698E+00 0.65912650E+03</pdfrwt>
<pdfrwt beam="2">0</pdfrwt>
<totfact> 0.14035592E+00</totfact>
</mgrwt>
</event>
<event>
 6      1 +5.6466785e-02 6.36552500e+02 7.81860800e-03 9.83234500e-02
        1 -1    0    0  502    0 +0.0000000000e+00 +0.0000000000e+00 +1.0130070498e+02 1.0130070498e+02 0.0000000000e+00 0.0000e+00 1.0000e+00
       13 -1    0    0    0    0 -0.0000000000e+00 -0.0000000000e+00 -1.0000000000e+03 1.0000000000e+03 0.0000000000e+00 0.0000e+00 1.0000e+00
  9000005  2    1    2  501    0 -1.8560092360e-03 +1.7288950656e-03 -8.9869263370e+02 1.1012935771e+03 6.3655250612e+02 0.0000e+00 0.0000e+00
       13  1    3    3    0    0 +7.0791325756e+01 -2.6452197011e+02 -7.3000337446e+02 7.7967186123e+02 0.0000000000e+00 0.0000e+00 1.0000e+00
        1  1    3    3  501    0 -7.0793181765e+01 +2.6452369901e+02 -1.6868925924e+02 3.2162171585e+02 0.0000000000e+00 0.0000e+00 1.0000e+00
       21  1    1    2  502  501 +1.8560092360e-03 -1.7288950656e-03 -6.6613136827e-03 7.1278992987e-03 0.0000000000e+00 0.0000e+00 -1.0000e+00
<mgrwt>
<rscale>  1 0.63655251E+03</rscale>
<asrwt>0</asrwt>
<pdfrwt beam="1">  1        1 0.36836698E+00 0.63655251E+03</pdfrwt>
<pdfrwt beam="2">0</pdfrwt>
<totfact> 0.18507966E+00</totfact>
</mgrwt>
</event>
<event>
 6      1 +5.6466785e-02 6.33877600e+02 7.81860800e-03 9.83751100e-02
        1 -1    0    0  502    0 +0.0000000000e+00 +0.0000000000e+00 +1.0049529527e+02 1.0049529527e+02 0.0000000000e+00 0.0000e+00 1.0000e+00
       13 -1    0    0    0    0 -0.0000000000e+00 -0.0000000000e+00 -1.0000000000e+03 1.0000000000e+03 0.0000000000e+00 0.0000e+00 1.0000e+00
  9000005  2    1    2  501    0 +5.7593384680e-04 +6.9239175116e-04 -8.9954978796e+02 1.1004502030e+03 6.3387761306e+02 0.0000e+00 0.0000e+00
       13  1    3    3    0    0 -1.0894307501e+02 +2.1862022976e+02 -9.9164271603e+01 2.6362274412e+02 0.0000000000e+00 0.0000e+00 1.0000e+00
        1  1    3    3  501    0 +1.0894365095e+02 -2.1861953737e+02 -8.0038551636e+02 8.3682745892e+02 0.0000000000e+00 0.0000e+00 1.0000e+00
       21  1    1    2  502  501 -5.7593384681e-04 -6.9239175114e-04 +4.5083232032e-02 4.5092226787e-02 0.0000000000e+00 0.0000e+00 1.0000e+00
<mgrwt>
<rscale>  1 0.63387761E+03</rscale>
<asrwt>0</asrwt>
<pdfrwt beam="1">  1        1 0.36543821E+00 0.63387761E+03</pdfrwt>
<pdfrwt beam="2">0</pdfrwt>
<totfact> 0.19072825E+00</totfact>
</mgrwt>
</event>
<event>
 6      1 +5.6466785e-02 6.46013400e+02 7.81860800e-03 9.81428900e-02
        1 -1    0    0  502    0 +0.0000000000e+00 +0.0000000000e+00 +1.0433349537e+02 1.0433349537e+02 0.0000000000e+00 0.0000e+00 1.0000e+00
       13 -1    0    0    0    0 -0.0000000000e+00 -0.0000000000e+00 -1.0000000000e+03 1.0000000000e+03 0.0000000000e+00 0.0000e+00 1.0000e+00
  9000005  2    1    2  501    0 -9.6489083035e-07 +1.0907963700e-05 -8.9566666054e+02 1.1043333391e+03 6.4601343408e+02 0.0000e+00 0.0000e+00
       13  1    3    3    0    0 +3.1855579089e+02 -1.2151477484e+01 -3.5887757987e+02 4.8001934091e+02 0.0000000000e+00 0.0000e+00 1.0000e+00
        1  1    3    3  501    0 -3.1855579185e+02 +1.2151488392e+01 -5.3678908066e+02 6.2431399817e+02 0.0000000000e+00 0.0000e+00 1.0000e+00
       21  1    1    2  502  501 +9.6489085643e-07 -1.0907963701e-05 +1.5590460223e-04 1.5628870619e-04 0.0000000000e+00 0.0000e+00 1.0000e+00
<mgrwt>
<rscale>  1 0.64601343E+03</rscale>
<asrwt>0</asrwt>
<pdfrwt beam="1">  1        1 0.37939533E+00 0.64601343E+03</pdfrwt>
<pdfrwt beam="2">0</pdfrwt>
<totfact> 0.16522929E+00</totfact>
</mgrwt>
</event>
<event>
 6      1 +5.6466785e-02 6.52249700e+02 7.81860800e-03 9.80256700e-02
        1 -1    0    0  502    0 +0.0000000000e+00 +0.0000000000e+00 +1.0635742957e+02 1.0635742957e+02 0.0000000000e+00 0.0000e+00 1.0000e+00
       13 -1    0    0    0    0 -0.0000000000e+00 -0.0000000000e+00 -1.0000000000e+03 1.0000000000e+03 0.0000000000e+00 0.0000e+00 1.0000e+00
  9000005  2    1    2  501    0 -6.3365172309e-07 -1.3529824798e-06 -8.9364257564e+02 1.1063574241e+03 6.5224971979e+02 0.0000e+00 0.0000e+00
       13  1    3    3    0    0 +1.4488163585e+02 -2.0447406152e+02 -9.2814978492e+01 2.6723575822e+02 0.0000000000e+00 0.0000e+00 1.0000e+00
        3  1    3    3  501    0 -1.4488163648e+02 +2.0447406016e+02 -8.0082759715e+02 8.3912166593e+02 0.0000000000e+00 0.0000e+00 1.0000e+00
       21  1    1    2  502  501 +6.3365170810e-07 +1.3529824690e-06 +5.2141744429e-06 5.4239921801e-06 0.0000000000e+00 0.0000e+00 1.0000e+00
<mgrwt>
<rscale>  1 0.65224972E+03</rscale>
<asrwt>0</asrwt>
<pdfrwt beam="1">  1        1 0.38675510E+00 0.65224972E+03</pdfrwt>
<pdfrwt beam="2">0</pdfrwt>
<totfact> 0.15313166E+00</totfact>
</mgrwt>
</event>
<event>
 6      1 +5.6466785e-02 6.58859800e+02 7.81860800e-03 9.79029500e-02
        1 -1    0    0  502    0 +0.0000000000e+00 +0.0000000000e+00 +1.0852407351e+02 1.0852407351e+02 0.0000000000e+00 0.0000e+00 1.0000e+00
       13 -1    0    0    0    0 -0.0000000000e+00 -0.0000000000e+00 -1.0000000000e+03 1.0000000000e+03 0.0000000000e+00 0.0000e+00 1.0000e+00
  9000005  2    1    2  501    0 -2.6333745637e-06 +5.0728162648e-06 -8.9147594174e+02 1.1085240572e+03 6.5885979598e+02 0.0000e+00 0.0000e+00
       13  1    3    3    0    0 +8.7213169431e+01 -1.0233210130e+02 +6.0257868167e+01 1.4733976569e+02 0.0000000000e+00 0.0000e+00 1.0000e+00
        1  1    3    3  501    0 -8.7213172064e+01 +1.0233210637e+02 -9.5173380990e+02 9.6118429153e+02 0.0000000000e+00 0.0000e+00 1.0000e+00
       21  1    1    2  502  501 +2.6333745562e-06 -5.0728162640e-06 +1.5243222604e-05 1.6279556559e-05 0.0000000000e+00 0.0000e+00 1.0000e+00
<mgrwt>
<rscale>  1 0.65885980E+03</rscale>
<asrwt>0</asrwt>
<pdfrwt beam="1">  1        1 0.39463383E+00 0.65885980E+03</pdfrwt>
<pdfrwt beam="2">0</pdfrwt>
<totfact> 0.14111674E+00</totfact>
</mgrwt>
</event>
<event>
 6      1 +5.6466785e-02 6.04929200e+02 7.81860800e-03 9.89523200e-02
        1 -1    0    0  502    0 +0.0000000000e+00 +0.0000000000e+00 +9.2042973841e+01 9.2042973841e+01 0.0000000000e+00 0.0000e+00 1.0000e+00
       13 -1    0    0    0    0 -0.0000000000e+00 -0.0000000000e+00 -1.0000000000e+03 1.0000000000e+03 0.0000000000e+00 0.0000e+00 1.0000e+00
  9000005  2    1    2  501    0 -2.2732934083e-01 -1.6899138142e-02 -9.0848967364e+02 1.0914635970e+03 6.0492912348e+02 0.0000e+00 0.0000e+00
       13  1    3    3    0    0 -1.2010344349e+02 -3.7859684500e+01 +4.1960696105e+01 1.3273617768e+02 0.0000000000e+00 0.0000e+00 1.0000e+00
        1  1    3    3  501    0 +1.1987611415e+02 +3.7842785362e+01 -9.5045036975e+02 9.5872741929e+02 0.0000000000e+00 0.0000e+00 1.0000e+00
       21  1    1    2  502  501 +2.2732934083e-01 +1.6899138142e-02 +5.3264748531e-01 5.7937686671e-01 0.0000000000e+00 0.0000e+00 1.0000e+00
<mgrwt>
<rscale>  1 0.60492917E+03</rscale>
<asrwt>0</asrwt>
<pdfrwt beam="1">  1        1 0.33470243E+00 0.60492917E+03</pdfrwt>
<pdfrwt beam="2">0</pdfrwt>
<totfact> 0.26098629E+00</totfact>
</mgrwt>
</event>
<event>
 6      1 +5.6466785e-02 6.45595700e+02 7.81860800e-03 9.81507900e-02
        1 -1    0    0  502    0 +0.0000000000e+00 +0.0000000000e+00 +1.0420419708e+02 1.0420419708e+02 0.0000000000e+00 0.0000e+00 1.0000e+00
       13 -1    0    0    0    0 -0.0000000000e+00 -0.0000000000e+00 -1.0000000000e+03 1.0000000000e+03 0.0000000000e+00 0.0000e+00 1.0000e+00
  9000005  2    1    2  501    0 +1.9044913309e-03 -2.0777454886e-03 -8.9580116128e+02 1.1041981426e+03 6.4559570760e+02 0.0000e+00 0.0000e+00
       13  1    3    3    0    0 -2.0799617675e+02 -2.4487139996e+02 -5.0128350749e+02 5.9540705987e+02 0.0000000000e+00 0.0000e+00 1.0000e+00
        3  1    3    3  501    0 +2.0799808124e+02 +2.4486932221e+02 -3.9451765379e+02 5.0879108278e+02 0.0000000000e+00 0.0000e+00 1.0000e+00
       21  1    1    2  502  501 -1.9044913309e-03 +2.0777454887e-03 +5.3583620350e-03 6.0544328590e-03 0.0000000000e+00 0.0000e+00 -1.0000e+00
<mgrwt>
<rscale>  1 0.64559571E+03</rscale>
<asrwt>0</asrwt>
<pdfrwt beam="1">  1        1 0.37892515E+00 0.64559571E+03</pdfrwt>
<pdfrwt beam="2">0</pdfrwt>
<totfact> 0.16603286E+00</totfact>
</mgrwt>
</event>
<event>
 6      1 +5.6466785e-02 6.56671200e+02 7.81860800e-03 9.79434100e-02
        1 -1    0    0  502    0 +0.0000000000e+00 +0.0000000000e+00 +1.0781226964e+02 1.0781226964e+02 0.0000000000e+00 0.0000e+00 1.0000e+00
       13 -1    0    0    0    0 -0.0000000000e+00 -0.0000000000e+00 -1.0000000000e+03 1.0000000000e+03 0.0000000000e+00 0.0000e+00 1.0000e+00
  9000005  2    1    2  501    0 -1.4587098507e-02 -2.2985754996e-03 -8.9218734422e+02 1.1077974975e+03 6.5667117956e+02 0.0000e+00 0.0000e+00
       13  1    3    3    0    0 -7.5450327878e+01 -2.6423773134e+01 -9.8332866422e+02 9.8657297228e+02 0.0000000000e+00 0.0000e+00 1.0000e+00
        3  1    3    3  501    0 +7.5435740779e+01 +2.6421474559e+01 +9.1141319994e+01 1.2122452522e+02 0.0000000000e+00 0.0000e+00 1.0000e+00
       21  1    1    2  502  501 +1.4587098507e-02 +2.2985754996e-03 -3.8613768836e-04 1.4772135746e-02 0.0000000000e+00 0.0000e+00 1.0000e+00
<mgrwt>
<rscale>  1 0.65667118E+03</rscale>
<asrwt>0</asrwt>
<pdfrwt beam="1">  1        1 0.39204544E+00 0.65667118E+03</pdfrwt>
<pdfrwt beam="2">0</pdfrwt>
<totfact> 0.14496224E+00</totfact>
</mgrwt>
</event>
<event>
 6      1 +5.6466785e-02 6.52793500e+02 7.81860800e-03 9.80155100e-02
        1 -1    0    0  502    0 +0.0000000000e+00 +0.0000000000e+00 +1.0653686206e+02 1.0653686206e+02 0.0000000000e+00 0.0000e+00 1.0000e+00
       13 -1    0    0    0    0 -0.0000000000e+00 -0.0000000000e+00 -1.0000000000e+03 1.0000000000e+03 0.0000000000e+00 0.0000e+00 1.0000e+00
  9000005  2    1    2  501    0 +1.3259151102e-04 -2.2183377382e-05 -8.9346515049e+02 1.1065348450e+03 6.5279352639e+02 0.0000e+00 0.0000e+00
       13  1    3    3    0    0 +7.8281706385e+01 +1.4709347770e+02 -9.2247362006e+02 9.3740177963e+02 0.0000000000e+00 0.0000e+00 1.0000e+00
        1  1    3    3  501    0 -7.8281573794e+01 -1.4709349988e+02 +2.9008469567e+01 1.6913306539e+02 0.0000000000e+00 0.0000e+00 1.0000e+00
       21  1    1    2  502  501 -1.3259151103e-04 +2.2183377380e-05 +2.0125554908e-03 2.0170404594e-03 0.0000000000e+00 0.0000e+00 1.0000e+00
<mgrwt>
<rscale>  1 0.65279353E+03</rscale>
<asrwt>0</asrwt>
<pdfrwt beam="1">  1        1 0.38740759E+00 0.65279353E+03</pdfrwt>
<pdfrwt beam="2">0</pdfrwt>
<totfact> 0.15210101E+00</totfact>
</mgrwt>
</event>
<event>
 6      1 +5.6466785e-02 6.65788800e+02 7.81860800e-03 9.77759600e-02
        1 -1    0    0  502    0 +0.0000000000e+00 +0.0000000000e+00 +1.1087051847e+02 1.1087051847e+02 0.0000000000e+00 0.0000e+00 1.0000e+00
       13 -1    0    0    0    0 -0.0000000000e+00 -0.0000000000e+00 -1.0000000000e+03 1.0000000000e+03 0.0000000000e+00 0.0000e+00 1.0000e+00
  9000005  2    1    2  501    0 +3.2543464059e-03 -1.2355986576e-03 -8.8918126346e+02 1.1108186197e+03 6.6578877019e+02 0.0000e+00 0.0000e+00
       13  1    3    3    0    0 +3.0405019702e+02 -4.5176320499e+01 -6.5781388223e+02 7.2608988830e+02 0.0000000000e+00 0.0000e+00 1.0000e+00
        3  1    3    3  501    0 -3.0404694267e+02 +4.5175084900e+01 -2.3136738123e+02 3.8472873137e+02 0.0000000000e+00 0.0000e+00 1.0000e+00
       21  1    1    2  502  501 -3.2543464059e-03 +1.2355986576e-03 +5.1781930240e-02 5.1898803203e-02 0.0000000000e+00 0.0000e+00 1.0000e+00
<mgrwt>
<rscale>  1 0.66578877E+03</rscale>
<asrwt>0</asrwt>
<pdfrwt beam="1">  1        1 0.40316637E+00 0.66578877E+03</pdfrwt>
<pdfrwt beam="2">0</pdfrwt>
<totfact> 0.12911896E+00</totfact>
</mgrwt>
</event>
<event>
 6      1 +5.6466785e-02 6.77913000e+02 7.81860800e-03 9.75576800e-02
        1 -1    0    0  502    0 +0.0000000000e+00 +0.0000000000e+00 +1.3175695895e+02 1.3175695895e+02 0.0000000000e+00 0.0000e+00 1.0000e+00
       13 -1    0    0    0    0 -0.0000000000e+00 -0.0000000000e+00 -1.0000000000e+03 1.0000000000e+03 0.0000000000e+00 0.0000e+00 1.0000e+00
  9000005  2    1    2  501    0 +9.0513849127e+00 -3.2305138910e+01 -8.6359091727e+02 1.0978867386e+03 6.7708232062e+02 0.0000e+00 0.0000e+00
       13  1    3    3    0    0 +3.1206468362e+02 -1.2239430085e+02 -5.9562923158e+02 6.8347561270e+02 0.0000000000e+00 0.0000e+00 1.0000e+00
        1  1    3    3  501    0 -3.0301329871e+02 +9.0089161943e+01 -2.6796168569e+02 4.1441112593e+02 0.0000000000e+00 0.0000e+00 1.0000e+00
       21  1    1    2  502  501 -9.0513849127e+00 +3.2305138910e+01 -4.6521237842e+00 3.3870220320e+01 0.0000000000e+00 0.0000e+00 -1.0000e+00
<mgrwt>
<rscale>  1 0.67791299E+03</rscale>
<asrwt>0</asrwt>
<pdfrwt beam="1">  1        1 0.47911722E+00 0.67791299E+03</pdfrwt>
<pdfrwt beam="2">0</pdfrwt>
<totfact> 0.57785022E-01</totfact>
</mgrwt>
</event>
<event>
 6      1 +5.6466785e-02 6.39688600e+02 7.81860800e-03 9.82632200e-02
        1 -1    0    0  502    0 +0.0000000000e+00 +0.0000000000e+00 +1.0503839050e+02 1.0503839050e+02 0.0000000000e+00 0.0000e+00 1.0000e+00
       13 -1    0    0    0    0 -0.0000000000e+00 -0.0000000000e+00 -1.0000000000e+03 1.0000000000e+03 0.0000000000e+00 0.0000e+00 1.0000e+00
  9000005  2    1    2  501    0 -3.2630049422e-01 +1.0892776461e+00 -8.9756889875e+02 1.1021939301e+03 6.3968761011e+02 0.0000e+00 0.0000e+00
       13  1    3    3    0    0 -2.3134125326e+02 -1.3146776261e+02 -7.5409706213e+02 7.9966550956e+02 0.0000000000e+00 0.0000e+00 1.0000e+00
        1  1    3    3  501    0 +2.3101495277e+02 +1.3255704026e+02 -1.4347183662e+02 3.0252842053e+02 0.0000000000e+00 0.0000e+00 1.0000e+00
       21  1    1    2  502  501 +3.2630049422e-01 -1.0892776461e+00 +2.6072892494e+00 2.8444604115e+00 0.0000000000e+00 0.0000e+00 1.0000e+00
<mgrwt>
<rscale>  1 0.63968862E+03</rscale>
<asrwt>0</asrwt>
<pdfrwt beam="1">  1        1 0.38195859E+00 0.63968862E+03</pdfrwt>
<pdfrwt beam="2">0</pdfrwt>
<totfact> 0.16116964E+00</totfact>
</mgrwt>
</event>
<event>
 6      1 +5.6466785e-02 6.45622700e+02 7.81860800e-03 9.81502800e-02
        1 -1    0    0  502    0 +0.0000000000e+00 +0.0000000000e+00 +1.0785169563e+02 1.0785169563e+02 0.0000000000e+00 0.0000e+00 1.0000e+00
       13 -1    0    0    0    0 -0.0000000000e+00 -0.0000000000e+00 -1.0000000000e+03 1.0000000000e+03 0.0000000000e+00 0.0000e+00 1.0000e+00
  9000005  2    1    2  501    0 +9.0281327165e+00 -1.1904820461e+00 -8.8787254844e+02 1.0977915507e+03 6.4555844198e+02 0.0000e+00 0.0000e+00
       13  1    3    3    0    0 +1.5876367839e+02 -1.4413411990e+02 -8.6305935099e+02 8.8929859632e+02 0.0000000000e+00 0.0000e+00 1.0000e+00
        1  1    3    3  501    0 -1.4973554568e+02 +1.4294363786e+02 -2.4813197455e+01 2.0849295434e+02 0.0000000000e+00 0.0000e+00 1.0000e+00
       21  1    1    2  502  501 -9.0281327165e+00 +1.1904820461e+00 -4.2757559319e+00 1.0060144961e+01 0.0000000000e+00 0.0000e+00 -1.0000e+00
<mgrwt>
<rscale>  1 0.64562267E+03</rscale>
<asrwt>0</asrwt>
<pdfrwt beam="1">  1        1 0.39218881E+00 0.64562267E+03</pdfrwt>
<pdfrwt beam="2">0</pdfrwt>
<totfact> 0.14504952E+00</totfact>
</mgrwt>
</event>
<event>
 6      1 +5.6466785e-02 6.31216600e+02 7.81860800e-03 9.84267800e-02
        1 -1    0    0  502    0 +0.0000000000e+00 +0.0000000000e+00 +9.9632251111e+01 9.9632251111e+01 0.0000000000e+00 0.0000e+00 1.0000e+00
       13 -1    0    0    0    0 -0.0000000000e+00 -0.0000000000e+00 -1.0000000000e+03 1.0000000000e+03 0.0000000000e+00 0.0000e+00 1.0000e+00
  9000005  2    1    2  501    0 -1.7133207066e-02 +2.6780249670e-02 -9.0037908433e+02 1.0995984988e+03 6.3121657295e+02 0.0000e+00 0.0000e+00
       13  1    3    3    0    0 -7.3825574589e+01 -2.8331047927e+02 -2.4488729358e+02 3.8168682147e+02 0.0000000000e+00 0.0000e+00 1.0000e+00
        3  1    3    3  501    0 +7.3808441382e+01 +2.8333725952e+02 -6.5549179076e+02 7.1791167730e+02 0.0000000000e+00 0.0000e+00 1.0000e+00
       21  1    1    2  502  501 +1.7133207066e-02 -2.6780249670e-02 +1.1335444129e-02 3.3752345850e-02 0.0000000000e+00 0.0000e+00 1.0000e+00
<mgrwt>
<rscale>  1 0.63121657E+03</rscale>
<asrwt>0</asrwt>
<pdfrwt beam="1">  1        1 0.36229986E+00 0.63121657E+03</pdfrwt>
<pdfrwt beam="2">0</pdfrwt>
<totfact> 0.19695693E+00</totfact>
</mgrwt>
</event>
<event>
 6      1 +5.6466785e-02 6.53605100e+02 7.81860800e-03 9.80003800e-02
        1 -1    0    0  502    0 +0.0000000000e+00 +0.0000000000e+00 +1.0680739293e+02 1.0680739293e+02 0.0000000000e+00 0.0000e+00 1.0000e+00
       13 -1    0    0    0    0 -0.0000000000e+00 -0.0000000000e+00 -1.0000000000e+03 1.0000000000e+03 0.0000000000e+00 0.0000e+00 1.0000e+00
  9000005  2    1    2  501    0 -3.2655950974e-05 -3.0140958319e-04 -8.9320007765e+02 1.1067999162e+03 6.5360513752e+02 0.0000e+00 0.0000e+00
       13  1    3    3    0    0 +1.3921197658e+02 -2.4677384745e+02 -1.7082042810e+02 3.3084274945e+02 0.0000000000e+00 0.0000e+00 1.0000e+00
        3  1    3    3  501    0 -1.3921200924e+02 +2.4677354604e+02 -7.2237964955e+02 7.7595716675e+02 0.0000000000e+00 0.0000e+00 1.0000e+00
       21  1    1    2  502  501 +3.2655950960e-05 +3.0140958318e-04 +7.4705763346e-03 7.4767255479e-03 0.0000000000e+00 0.0000e+00 1.0000e+00
<mgrwt>
<rscale>  1 0.65360514E+03</rscale>
<asrwt>0</asrwt>
<pdfrwt beam="1">  1        1 0.38839134E+00 0.65360514E+03</pdfrwt>
<pdfrwt beam="2">0</pdfrwt>
<totfact> 0.15055978E+00</totfact>
</mgrwt>
</event>
<event>
 6      1 +5.6466785e-02 6.96830400e+02 7.81860800e-03 9.72266800e-02
        1 -1    0    0  502    0 +0.0000000000e+00 +0.0000000000e+00 +1.2158598097e+02 1.2158598097e+02 0.0000000000e+00 0.0000e+00 1.0000e+00
       13 -1    0    0    0    0 -0.0000000000e+00 -0.0000000000e+00 -1.0000000000e+03 1.0000000000e+03 0.0000000000e+00 0.0000e+00 1.0000e+00
  9000005  2    1    2  501    0 -9.8152139432e-02 +7.6860798549e-02 -8.7858396212e+02 1.1213752155e+03 6.9683038103e+02 0.0000e+00 0.0000e+00
       13  1    3    3    0    0 -1.0213183285e+02 +1.8964604979e+02 -8.8011040374e+02 9.0608545858e+02 0.0000000000e+00 0.0000e+00 1.0000e+00
        1  1    3    3  501    0 +1.0203368071e+02 -1.8956918900e+02 +1.5264416165e+00 2.1528975693e+02 0.0000000000e+00 0.0000e+00 1.0000e+00
       21  1    1    2  502  501 +9.8152139432e-02 -7.6860798549e-02 +1.6994309095e-01 2.1076545967e-01 0.0000000000e+00 0.0000e+00 -1.0000e+00
<mgrwt>
<rscale>  1 0.69683039E+03</rscale>
<asrwt>0</asrwt>
<pdfrwt beam="1">  1        1 0.44213177E+00 0.69683039E+03</pdfrwt>
<pdfrwt beam="2">0</pdfrwt>
<totfact> 0.85535740E-01</totfact>
</mgrwt>
</event>
<event>
 6      1 +5.6466785e-02 6.50063700e+02 7.81860800e-03 9.80666000e-02
        1 -1    0    0  502    0 +0.0000000000e+00 +0.0000000000e+00 +1.0564936293e+02 1.0564936293e+02 0.0000000000e+00 0.0000e+00 1.0000e+00
       13 -1    0    0    0    0 -0.0000000000e+00 -0.0000000000e+00 -1.0000000000e+03 1.0000000000e+03 0.0000000000e+00 0.0000e+00 1.0000e+00
  9000005  2    1    2  501    0 -2.7405297186e-04 +1.2266159847e-04 -8.9435429999e+02 1.1056456877e+03 6.5006366831e+02 0.0000e+00 0.0000e+00
       13  1    3    3    0    0 +2.4151071070e+02 -1.2678719851e+02 -1.4654318306e+02 3.0964063298e+02 0.0000000000e+00 0.0000e+00 1.0000e+00
        1  1    3    3  501    0 -2.4151098475e+02 +1.2678732117e+02 -7.4781111693e+02 7.9600505474e+02 0.0000000000e+00 0.0000e+00 1.0000e+00
       21  1    1    2  502  501 +2.7405297184e-04 -1.2266159847e-04 +3.6629244785e-03 3.6752097402e-03 0.0000000000e+00 0.0000e+00 -1.0000e+00
<mgrwt>
<rscale>  1 0.65006367E+03</rscale>
<asrwt>0</asrwt>
<pdfrwt beam="1">  1        1 0.38418031E+00 0.65006367E+03</pdfrwt>
<pdfrwt beam="2">0</pdfrwt>
<totfact> 0.15726499E+00</totfact>
</mgrwt>
</event>
<event>
 6      1 +5.6466785e-02 5.78693800e+02 7.81860800e-03 9.95062300e-02
        1 -1    0    0  502    0 +0.0000000000e+00 +0.0000000000e+00 +8.3725245271e+01 8.3725245271e+01 0.0000000000e+00 0.0000e+00 1.0000e+00
       13 -1    0    0    0    0 -0.0000000000e+00 -0.0000000000e+00 -1.0000000000e+03 1.0000000000e+03 0.0000000000e+00 0.0000e+00 1.0000e+00
  9000005  2    1    2  501    0 +4.0004441530e-05 -1.6189529093e-04 -9.1627837948e+02 1.0837216167e+03 5.7869376509e+02 0.0000e+00 0.0000e+00
       13  1    3    3    0    0 -2.1162601835e+02 +3.4366726172e+01 -9.4261028732e+01 2.3420457947e+02 0.0000000000e+00 0.0000e+00 1.0000e+00
        1  1    3    3  501    0 +2.1162605835e+02 -3.4366888067e+01 -8.2201735075e+02 8.4951703721e+02 0.0000000000e+00 0.0000e+00 1.0000e+00
       21  1    1    2  502  501 -4.0004441536e-05 +1.6189529093e-04 +3.6247549854e-03 3.6285891397e-03 0.0000000000e+00 0.0000e+00 1.0000e+00
<mgrwt>
<rscale>  1 0.57869377E+03</rscale>
<asrwt>0</asrwt>
<pdfrwt beam="1">  1        1 0.30445608E+00 0.57869377E+03</pdfrwt>
<pdfrwt beam="2">0</pdfrwt>
<totfact> 0.35434193E+00</totfact>
</mgrwt>
</event>
<event>
 6      1 +5.6466785e-02 6.56660100e+02 7.81860800e-03 9.79436200e-02
        1 -1    0    0  502    0 +0.0000000000e+00 +0.0000000000e+00 +1.4979085873e+02 1.4979085873e+02 0.0000000000e+00 0.0000e+00 1.0000e+00
       13 -1    0    0    0    0 -0.0000000000e+00 -0.0000000000e+00 -1.0000000000e+03 1.0000000000e+03 0.0000000000e+00 0.0000e+00 1.0000e+00
  9000005  2    1    2  501    0 +6.7025596975e+00 -2.1724787453e+01 -8.8876168520e+02 1.1050338555e+03 6.5626640778e+02 0.0000e+00 0.0000e+00
       13  1    3    3    0    0 +4.5724952665e+01 -1.7371651288e+02 +2.1888744806e+01 1.8096219299e+02 0.0000000000e+00 0.0000e+00 1.0000e+00
        3  1    3    3  501    0 -3.9022392968e+01 +1.5199172542e+02 -9.1065043001e+02 9.2407166249e+02 0.0000000000e+00 0.0000e+00 1.0000e+00
       21  1    1    2  502  501 -6.7025596975e+00 +2.1724787453e+01 +3.8552543933e+01 4.4757003251e+01 0.0000000000e+00 0.0000e+00 1.0000e+00
<mgrwt>
<rscale>  1 0.65666010E+03</rscale>
<asrwt>0</asrwt>
<pdfrwt beam="1">  1        1 0.54469518E+00 0.65666010E+03</pdfrwt>
<pdfrwt beam="2">0</pdfrwt>
<totfact> 0.27808919E-01</totfact>
</mgrwt>
</event>
<event>
 6      1 +5.6466785e-02 6.50345100e+02 7.81860800e-03 9.80613200e-02
        1 -1    0    0  502    0 +0.0000000000e+00 +0.0000000000e+00 +1.0573722867e+02 1.0573722867e+02 0.0000000000e+00 0.0000e+00 1.0000e+00
       13 -1    0    0    0    0 -0.0000000000e+00 -0.0000000000e+00 -1.0000000000e+03 1.0000000000e+03 0.0000000000e+00 0.0000e+00 1.0000e+00
  9000005  2    1    2  501    0 -2.5336610832e-05 -6.2007671573e-05 -8.9426277030e+02 1.1057371617e+03 6.5034511482e+02 0.0000e+00 0.0000e+00
       13  1    3    3    0    0 +2.2730638907e+02 -7.1268881456e+01 -8.2345424428e+02 8.5721895709e+02 0.0000000000e+00 0.0000e+00 1.0000e+00
        3  1    3    3  501    0 -2.2730641440e+02 +7.1268819448e+01 -7.0808526021e+01 2.4851820459e+02 0.0000000000e+00 0.0000e+00 1.0000e+00
       21  1    1    2  502  501 +2.5336610830e-05 +6.2007671580e-05 -1.0362777938e-06 6.6992305937e-05 0.0000000000e+00 0.0000e+00 -1.0000e+00
<mgrwt>
<rscale>  1 0.65034511E+03</rscale>
<asrwt>0</asrwt>
<pdfrwt beam="1">  1        1 0.38449982E+00 0.65034511E+03</pdfrwt>
<pdfrwt beam="2">0</pdfrwt>
<totfact> 0.15674608E+00</totfact>
</mgrwt>
</event>
<event>
 6      1 +5.6466785e-02 6.35909700e+02 7.81860800e-03 9.83358400e-02
        1 -1    0    0  502    0 +0.0000000000e+00 +0.0000000000e+00 +1.0109527835e+02 1.0109527835e+02 0.0000000000e+00 0.0000e+00 1.0000e+00
       13 -1    0    0    0    0 -0.0000000000e+00 -0.0000000000e+00 -1.0000000000e+03 1.0000000000e+03 0.0000000000e+00 0.0000e+00 1.0000e+00
  9000005  2    1    2  501    0 +1.4117942584e-06 +9.8051795447e-06 -8.9890472056e+02 1.1010952684e+03 6.3590965822e+02 0.0000e+00 0.0000e+00
       13  1    3    3    0    0 +6.6525673663e+01 +1.2589596163e+02 +4.2800674284e+01 1.4868542676e+02 0.0000000000e+00 0.0000e+00 1.0000e+00
        3  1    3    3  501    0 -6.6525672251e+01 -1.2589595183e+02 -9.4170539484e+02 9.5240984163e+02 0.0000000000e+00 0.0000e+00 1.0000e+00
       21  1    1    2  502  501 -1.4117942554e-06 -9.8051795426e-06 -1.0893675916e-06 9.9660137784e-06 0.0000000000e+00 0.0000e+00 -1.0000e+00
<mgrwt>
<rscale>  1 0.63590966E+03</rscale>
<asrwt>0</asrwt>
<pdfrwt beam="1">  1        1 0.36761997E+00 0.63590966E+03</pdfrwt>
<pdfrwt beam="2">0</pdfrwt>
<totfact> 0.18650364E+00</totfact>
</mgrwt>
</event>
<event>
 6      1 +5.6466785e-02 6.56894300e+02 7.81860800e-03 9.79392800e-02
        1 -1    0    0  502    0 +0.0000000000e+00 +0.0000000000e+00 +1.0789338771e+02 1.0789338771e+02 0.0000000000e+00 0.0000e+00 1.0000e+00
       13 -1    0    0    0    0 -0.0000000000e+00 -0.0000000000e+00 -1.0000000000e+03 1.0000000000e+03 0.0000000000e+00 0.0000e+00 1.0000e+00
  9000005  2    1    2  501    0 -8.4647689575e-04 +1.7198501858e-04 -8.9212245403e+02 1.1078775224e+03 6.5689430788e+02 0.0000e+00 0.0000e+00
       13  1    3    3    0    0 +5.3304209035e+01 +6.6185739178e+01 -9.8113687369e+02 9.8481036534e+02 0.0000000000e+00 0.0000e+00 1.0000e+00
        3  1    3    3  501    0 -5.3305055512e+01 -6.6185567193e+01 +8.9014419656e+01 1.2306715709e+02 0.0000000000e+00 0.0000e+00 1.0000e+00
       21  1    1    2  502  501 +8.4647689574e-04 -1.7198501858e-04 +1.5841749295e-02 1.5865280417e-02 0.0000000000e+00 0.0000e+00 -1.0000e+00
<mgrwt>
<rscale>  1 0.65689431E+03</rscale>
<asrwt>0</asrwt>
<pdfrwt beam="1">  1        1 0.39234042E+00 0.65689431E+03</pdfrwt>
<pdfrwt beam="2">0</pdfrwt>
<totfact> 0.14451975E+00</totfact>
</mgrwt>
</event>
<event>
 6      1 +5.6466785e-02 6.51514200e+02 7.81860800e-03 9.80394200e-02
        1 -1    0    0  502    0 +0.0000000000e+00 +0.0000000000e+00 +1.1391657679e+02 1.1391657679e+02 0.0000000000e+00 0.0000e+00 1.0000e+00
       13 -1    0    0    0    0 -0.0000000000e+00 -0.0000000000e+00 -1.0000000000e+03 1.0000000000e+03 0.0000000000e+00 0.0000e+00 1.0000e+00
  9000005  2    1    2  501    0 -4.5111287329e+00 -1.3408680760e+00 -8.9308921097e+02 1.1054768332e+03 6.5149715410e+02 0.0000e+00 0.0000e+00
       13  1    3    3    0    0 +3.1777362469e+02 +5.9377743072e+01 -4.5971341756e+02 5.6199841566e+02 0.0000000000e+00 0.0000e+00 1.0000e+00
        3  1    3    3  501    0 -3.2228475342e+02 -6.0718611148e+01 -4.3337579341e+02 5.4347841755e+02 0.0000000000e+00 0.0000e+00 1.0000e+00
       21  1    1    2  502  501 +4.5111287329e+00 +1.3408680760e+00 +7.0057877532e+00 8.4397435794e+00 0.0000000000e+00 0.0000e+00 -1.0000e+00
<mgrwt>
<rscale>  1 0.65151415E+03</rscale>
<asrwt>0</asrwt>
<pdfrwt beam="1">  1        1 0.41424297E+00 0.65151415E+03</pdfrwt>
<pdfrwt beam="2">0</pdfrwt>
<totfact> 0.11549032E+00</totfact>
</mgrwt>
</event>
<event>
 6      1 +5.6466785e-02 6.63743800e+02 7.81860800e-03 9.78132600e-02
        1 -1    0    0  502    0 +0.0000000000e+00 +0.0000000000e+00 +1.1015138243e+02 1.1015138243e+02 0.0000000000e+00 0.0000e+00 1.0000e+00
       13 -1    0    0    0    0 -0.0000000000e+00 -0.0000000000e+00 -1.0000000000e+03 1.0000000000e+03 0.0000000000e+00 0.0000e+00 1.0000e+00
  9000005  2    1    2  501    0 +1.1692450158e-04 -8.1341110085e-04 -8.8986101293e+02 1.1101389599e+03 6.6374384204e+02 0.0000e+00 0.0000e+00
       13  1    3    3    0    0 -2.4364275218e+02 -4.4111138924e+01 -7.5335246887e+01 2.5881070822e+02 0.0000000000e+00 0.0000e+00 1.0000e+00
        1  1    3    3  501    0 +2.4364286910e+02 +4.4110325513e+01 -8.1452576605e+02 8.5132825164e+02 0.0000000000e+00 0.0000e+00 1.0000e+00
       21  1    1    2  502  501 -1.1692450158e-04 +8.1341110085e-04 +1.2395367226e-02 1.2422577737e-02 0.0000000000e+00 0.0000e+00 1.0000e+00
<mgrwt>
<rscale>  1 0.66374384E+03</rscale>
<asrwt>0</asrwt>
<pdfrwt beam="1">  1        1 0.40055133E+00 0.66374384E+03</pdfrwt>
<pdfrwt beam="2">0</pdfrwt>
<totfact> 0.13268759E+00</totfact>
</mgrwt>
</event>
<event>
 6      1 +5.6466785e-02 6.49212200e+02 7.81860800e-03 9.80825900e-02
        1 -1    0    0  502    0 +0.0000000000e+00 +0.0000000000e+00 +1.0537544605e+02 1.0537544605e+02 0.0000000000e+00 0.0000e+00 1.0000e+00
       13 -1    0    0    0    0 -0.0000000000e+00 -0.0000000000e+00 -1.0000000000e+03 1.0000000000e+03 0.0000000000e+00 0.0000e+00 1.0000e+00
  9000005  2    1    2  501    0 +4.6526924736e-04 -6.8299693058e-04 -8.9463085356e+02 1.1053690925e+03 6.4921218908e+02 0.0000e+00 0.0000e+00
       13  1    3    3    0    0 +3.5358281006e+01 -1.8470929417e+02 +3.1631263218e+00 1.8808970402e+02 0.0000000000e+00 0.0000e+00 1.0000e+00
        3  1    3    3  501    0 -3.5357815737e+01 +1.8470861117e+02 -8.9779397988e+02 9.1727938845e+02 0.0000000000e+00 0.0000e+00 1.0000e+00
       21  1    1    2  502  501 -4.6526924736e-04 +6.8299693057e-04 +6.2996079190e-03 6.3535832577e-03 0.0000000000e+00 0.0000e+00 1.0000e+00
<mgrwt>
<rscale>  1 0.64921219E+03</rscale>
<asrwt>0</asrwt>
<pdfrwt beam="1">  1        1 0.38318425E+00 0.64921219E+03</pdfrwt>
<pdfrwt beam="2">0</pdfrwt>
<totfact> 0.15889241E+00</totfact>
</mgrwt>
</event>
<event>
 6      1 +5.6466785e-02 6.54839700e+02 7.81860800e-03 9.79774000e-02
        1 -1    0    0  502    0 +0.0000000000e+00 +0.0000000000e+00 +1.0754940087e+02 1.0754940087e+02 0.0000000000e+00 0.0000e+00 1.0000e+00
       13 -1    0    0    0    0 -0.0000000000e+00 -0.0000000000e+00 -1.0000000000e+03 1.0000000000e+03 0.0000000000e+00 0.0000e+00 1.0000e+00
  9000005  2    1    2  501    0 +7.1002344669e-04 +6.2549706187e-02 -8.9279311535e+02 1.1072012194e+03 6.5483966703e+02 0.0000e+00 0.0000e+00
       13  1    3    3    0    0 +2.5681645461e+02 +6.5516050428e+01 -7.7146531368e+02 8.1572407984e+02 0.0000000000e+00 0.0000e+00 1.0000e+00
        1  1    3    3  501    0 -2.5681574459e+02 -6.5453500722e+01 -1.2132780167e+02 2.9147713956e+02 0.0000000000e+00 0.0000e+00 1.0000e+00
       21  1    1    2  502  501 -7.1002344673e-04 -6.2549706187e-02 +3.4251621953e-01 3.4818146205e-01 0.0000000000e+00 0.0000e+00 1.0000e+00
<mgrwt>
<rscale>  1 0.65483967E+03</rscale>
<asrwt>0</asrwt>
<pdfrwt beam="1">  1        1 0.39108956E+00 0.65483967E+03</pdfrwt>
<pdfrwt beam="2">0</pdfrwt>
<totfact> 0.14643514E+00</totfact>
</mgrwt>
</event>
<event>
 6      1 +5.6466785e-02 6.27080700e+02 7.81860800e-03 9.85076200e-02
        1 -1    0    0  502    0 +0.0000000000e+00 +0.0000000000e+00 +9.8844109997e+01 9.8844109997e+01 0.0000000000e+00 0.0000e+00 1.0000e+00
       13 -1    0    0    0    0 -0.0000000000e+00 -0.0000000000e+00 -1.0000000000e+03 1.0000000000e+03 0.0000000000e+00 0.0000e+00 1.0000e+00
  9000005  2    1    2  501    0 +3.8775465339e-01 -1.0786028306e+00 -9.0092073581e+02 1.0976740522e+03 6.2707961132e+02 0.0000e+00 0.0000e+00
       13  1    3    3    0    0 +1.9739257821e+02 +1.4293651006e+02 -1.0532846020e+02 2.6549719465e+02 0.0000000000e+00 0.0000e+00 1.0000e+00
        1  1    3    3  501    0 -1.9700482355e+02 -1.4401511289e+02 -7.9559227561e+02 8.3217685756e+02 0.0000000000e+00 0.0000e+00 1.0000e+00
       21  1    1    2  502  501 -3.8775465339e-01 +1.0786028306e+00 -2.3515418920e-01 1.1700577893e+00 0.0000000000e+00 0.0000e+00 1.0000e+00
<mgrwt>
<rscale>  1 0.62708066E+03</rscale>
<asrwt>0</asrwt>
<pdfrwt beam="1">  1        1 0.35943389E+00 0.62708066E+03</pdfrwt>
<pdfrwt beam="2">0</pdfrwt>
<totfact> 0.20287764E+00</totfact>
</mgrwt>
</event>
<event>
 6      1 +5.6466785e-02 6.48965600e+02 7.81860800e-03 9.80872200e-02
        1 -1    0    0  502    0 +0.0000000000e+00 +0.0000000000e+00 +1.0528914500e+02 1.0528914500e+02 0.0000000000e+00 0.0000e+00 1.0000e+00
       13 -1    0    0    0    0 -0.0000000000e+00 -0.0000000000e+00 -1.0000000000e+03 1.0000000000e+03 0.0000000000e+00 0.0000e+00 1.0000e+00
  9000005  2    1    2  501    0 -1.7697947754e-05 -1.2455769706e-05 -8.9471091519e+02 1.1052890810e+03 6.4896558530e+02 0.0000e+00 0.0000e+00
       13  1    3    3    0    0 -2.3362697613e+02 +2.1421634278e+02 -5.6558533028e+02 6.4834942069e+02 0.0000000000e+00 0.0000e+00 1.0000e+00
        3  1    3    3  501    0 +2.3362695843e+02 -2.1421635523e+02 -3.2912558491e+02 4.5693966034e+02 0.0000000000e+00 0.0000e+00 1.0000e+00
       21  1    1    2  502  501 +1.7697947750e-05 +1.2455769712e-05 +6.0184912503e-05 6.3957698885e-05 0.0000000000e+00 0.0000e+00 1.0000e+00
<mgrwt>
<rscale>  1 0.64896559E+03</rscale>
<asrwt>0</asrwt>
<pdfrwt beam="1">  1        1 0.38287043E+00 0.64896559E+03</pdfrwt>
<pdfrwt beam="2">0</pdfrwt>
<totfact> 0.15940782E+00</totfact>
</mgrwt>
</event>
<event>
 6      1 +5.6466785e-02 6.60084600e+02 7.81860800e-03 9.78803800e-02
        1 -1    0    0  502    0 +0.0000000000e+00 +0.0000000000e+00 +1.0893827861e+02 1.0893827861e+02 0.0000000000e+00 0.0000e+00 1.0000e+00
       13 -1    0    0    0    0 -0.0000000000e+00 -0.0000000000e+00 -1.0000000000e+03 1.0000000000e+03 0.0000000000e+00 0.0000e+00 1.0000e+00
  9000005  2    1    2  501    0 -1.2879244266e-02 -1.7848482300e-02 -8.9105693947e+02 1.1089157551e+03 6.6008460213e+02 0.0000e+00 0.0000e+00
       13  1    3    3    0    0 +2.8794348751e+02 -8.6623074213e+01 -6.7408968879e+02 7.3811375649e+02 0.0000000000e+00 0.0000e+00 1.0000e+00
        1  1    3    3  501    0 -2.8795636676e+02 +8.6605225731e+01 -2.1696725068e+02 3.7080199857e+02 0.0000000000e+00 0.0000e+00 1.0000e+00
       21  1    1    2  502  501 +1.2879244266e-02 +1.7848482300e-02 -4.7819246218e-03 2.2523544489e-02 0.0000000000e+00 0.0000e+00 -1.0000e+00
<mgrwt>
<rscale>  1 0.66008460E+03</rscale>
<asrwt>0</asrwt>
<pdfrwt beam="1">  1        1 0.39614003E+00 0.66008460E+03</pdfrwt>
<pdfrwt beam="2">0</pdfrwt>
<totfact> 0.13892493E+00</totfact>
</mgrwt>
</event>
<event>
 6      1 +5.6466785e-02 6.63688600e+02 7.81860800e-03 9.78142700e-02
        1 -1    0    0  502    0 +0.0000000000e+00 +0.0000000000e+00 +1.1012066546e+02 1.1012066546e+02 0.0000000000e+00 0.0000e+00 1.0000e+00
       13 -1    0    0    0    0 -0.0000000000e+00 -0.0000000000e+00 -1.0000000000e+03 1.0000000000e+03 0.0000000000e+00 0.0000e+00 1.0000e+00
  9000005  2    1    2  501    0 -1.2115843777e-05 +3.5116322255e-05 -8.8987936101e+02 1.1101206198e+03 6.6368856662e+02 0.0000e+00 0.0000e+00
       13  1    3    3    0    0 -1.1918574660e+01 +2.6702523149e+01 +1.0796143263e+02 1.1185145552e+02 0.0000000000e+00 0.0000e+00 1.0000e+00
        3  1    3    3  501    0 +1.1918562544e+01 -2.6702488032e+01 -9.9784079364e+02 9.9826916433e+02 0.0000000000e+00 0.0000e+00 1.0000e+00
       21  1    1    2  502  501 +1.2115843778e-05 -3.5116322254e-05 +2.6467676013e-05 4.5612362717e-05 0.0000000000e+00 0.0000e+00 1.0000e+00
<mgrwt>
<rscale>  1 0.66368857E+03</rscale>
<asrwt>0</asrwt>
<pdfrwt beam="1">  1        1 0.40043963E+00 0.66368857E+03</pdfrwt>
<pdfrwt beam="2">0</pdfrwt>
<totfact> 0.13284128E+00</totfact>
</mgrwt>
</event>
<event>
 6      1 +5.6466785e-02 6.44107300e+02 7.81860800e-03 9.81790000e-02
        3 -1    0    0  502    0 +0.0000000000e+00 +0.0000000000e+00 +1.0388673427e+02 1.0388673427e+02 0.0000000000e+00 0.0000e+00 1.0000e+00
       13 -1    0    0    0    0 -0.0000000000e+00 -0.0000000000e+00 -1.0000000000e+03 1.0000000000e+03 0.0000000000e+00 0.0000e+00 1.0000e+00
  9000005  2    1    2  501    0 +2.0696242802e-03 +1.3562576623e-03 -8.9628144403e+02 1.1037185378e+03 6.4410727656e+02 0.0000e+00 0.0000e+00
       13  1    3    3    0    0 -2.6500757030e+02 -1.5808697976e+02 -6.0609649478e+02 6.8012753691e+02 0.0000000000e+00 0.0000e+00 1.0000e+00
        3  1    3    3  501    0 +2.6500963993e+02 +1.5808833602e+02 -2.9018494925e+02 4.2359100086e+02 0.0000000000e+00 0.0000e+00 1.0000e+00
       21  1    1    2  502  501 -2.0696242803e-03 -1.3562576623e-03 +1.6817829895e-01 1.6819650121e-01 0.0000000000e+00 0.0000e+00 1.0000e+00
<mgrwt>
<rscale>  1 0.64410728E+03</rscale>
<asrwt>0</asrwt>
<pdfrwt beam="1">  1        3 0.37777074E+00 0.64410728E+03</pdfrwt>
<pdfrwt beam="2">0</pdfrwt>
<totfact> 0.77630018E-02</totfact>
</mgrwt>
</event>
<event>
 6      1 +5.6466785e-02 6.44167100e+02 7.81860800e-03 9.81778600e-02
        1 -1    0    0  502    0 +0.0000000000e+00 +0.0000000000e+00 +1.0373785786e+02 1.0373785786e+02 0.0000000000e+00 0.0000e+00 1.0000e+00
       13 -1    0    0    0    0 -0.0000000000e+00 -0.0000000000e+00 -1.0000000000e+03 1.0000000000e+03 0.0000000000e+00 0.0000e+00 1.0000e+00
  9000005  2    1    2  501    0 +2.0246750154e-05 +1.0059724133e-05 -8.9626216831e+02 1.1037378233e+03 6.4416714306e+02 0.0000e+00 0.0000e+00
       13  1    3    3    0    0 +1.4296044698e+02 -2.1210887277e+02 -7.8350032920e+02 8.2419696018e+02 0.0000000000e+00 0.0000e+00 1.0000e+00
        1  1    3    3  501    0 -1.4296042673e+02 +2.1210888283e+02 -1.1276183911e+02 2.7954086310e+02 0.0000000000e+00 0.0000e+00 1.0000e+00
       21  1    1    2  502  501 -2.0246750157e-05 -1.0059724137e-05 +2.6167818008e-05 3.4581550586e-05 0.0000000000e+00 0.0000e+00 1.0000e+00
<mgrwt>
<rscale>  1 0.64416714E+03</rscale>
<asrwt>0</asrwt>
<pdfrwt beam="1">  1        1 0.37722937E+00 0.64416714E+03</pdfrwt>
<pdfrwt beam="2">0</pdfrwt>
<totfact> 0.16895971E+00</totfact>
</mgrwt>
</event>
<event>
 6      1 +5.6466785e-02 6.61164900e+02 7.81860800e-03 9.78605200e-02
        1 -1    0    0  502    0 +0.0000000000e+00 +0.0000000000e+00 +1.0928476444e+02 1.0928476444e+02 0.0000000000e+00 0.0000e+00 1.0000e+00
       13 -1    0    0    0    0 -0.0000000000e+00 -0.0000000000e+00 -1.0000000000e+03 1.0000000000e+03 0.0000000000e+00 0.0000e+00 1.0000e+00
  9000005  2    1    2  501    0 -3.8014281927e-06 -2.3781830123e-06 -8.9071523666e+02 1.1092847598e+03 6.6116491554e+02 0.0000e+00 0.0000e+00
       13  1    3    3    0    0 -4.5716486987e+01 +2.3608571877e+02 -8.2595075400e+02 8.6024479761e+02 0.0000000000e+00 0.0000e+00 1.0000e+00
        3  1    3    3  501    0 +4.5716483186e+01 -2.3608572114e+02 -6.4764482667e+01 2.4903996221e+02 0.0000000000e+00 0.0000e+00 1.0000e+00
       21  1    1    2  502  501 +3.8014281991e-06 +2.3781830069e-06 +1.1029652540e-06 4.6176988987e-06 0.0000000000e+00 0.0000e+00 1.0000e+00
<mgrwt>
<rscale>  1 0.66116492E+03</rscale>
<asrwt>0</asrwt>
<pdfrwt beam="1">  1        1 0.39739998E+00 0.66116492E+03</pdfrwt>
<pdfrwt beam="2">0</pdfrwt>
<totfact> 0.13711481E+00</totfact>
</mgrwt>
</event>
<event>
 6      1 +5.6466785e-02 6.32855300e+02 7.81860800e-03 9.83949300e-02
        1 -1    0    0  502    0 +0.0000000000e+00 +0.0000000000e+00 +1.1216475982e+02 1.1216475982e+02 0.0000000000e+00 0.0000e+00 1.0000e+00
       13 -1    0    0    0    0 -0.0000000000e+00 -0.0000000000e+00 -1.0000000000e+03 1.0000000000e+03 0.0000000000e+00 0.0000e+00 1.0000e+00
  9000005  2    1    2  501    0 +2.6975064220e+00 -5.7673469424e+00 -8.9894072620e+02 1.0993635626e+03 6.3282325701e+02 0.0000e+00 0.0000e+00
       13  1    3    3    0    0 +4.9681521692e+01 -2.6820607290e+02 -1.6569466610e+02 3.1915117657e+02 0.0000000000e+00 0.0000e+00 1.0000e+00
        3  1    3    3  501    0 -4.6984015271e+01 +2.6243872595e+02 -7.3324606011e+02 7.8021238598e+02 0.0000000000e+00 0.0000e+00 1.0000e+00
       21  1    1    2  502  501 -2.6975064220e+00 +5.7673469424e+00 +1.1105486022e+01 1.2801197266e+01 0.0000000000e+00 0.0000e+00 1.0000e+00
<mgrwt>
<rscale>  1 0.63285529E+03</rscale>
<asrwt>0</asrwt>
<pdfrwt beam="1">  1        1 0.40787271E+00 0.63285529E+03</pdfrwt>
<pdfrwt beam="2">0</pdfrwt>
<totfact> 0.12379492E+00</totfact>
</mgrwt>
</event>
<event>
 6      1 +5.6466785e-02 6.56763100e+02 7.81860800e-03 9.79417100e-02
        1 -1    0    0  502    0 +0.0000000000e+00 +0.0000000000e+00 +1.5110027036e+02 1.5110027036e+02 0.0000000000e+00 0.0000e+00 1.0000e+00
       13 -1    0    0    0    0 -0.0000000000e+00 -0.0000000000e+00 -1.0000000000e+03 1.0000000000e+03 0.0000000000e+00 0.0000e+00 1.0000e+00
  9000005  2    1    2  501    0 +2.0925939207e+00 +6.3395346965e-01 -8.9213496249e+02 1.1078097840e+03 6.5675942740e+02 0.0000e+00 0.0000e+00
       13  1    3    3    0    0 +1.2434679414e+02 +2.2324242148e+02 -9.7381999237e+01 2.7346399715e+02 0.0000000000e+00 0.0000e+00 1.0000e+00
        1  1    3    3  501    0 -1.2225420022e+02 -2.2260846801e+02 -7.9475296325e+02 8.3434578689e+02 0.0000000000e+00 0.0000e+00 1.0000e+00
       21  1    1    2  502  501 -2.0925939207e+00 -6.3395346965e-01 +4.3235232847e+01 4.3290486318e+01 0.0000000000e+00 0.0000e+00 1.0000e+00
<mgrwt>
<rscale>  1 0.65676307E+03</rscale>
<asrwt>0</asrwt>
<pdfrwt beam="1">  1        1 0.54945669E+00 0.65676307E+03</pdfrwt>
<pdfrwt beam="2">0</pdfrwt>
<totfact> 0.26305701E-01</totfact>
</mgrwt>
</event>
<event>
 6      1 +5.6466785e-02 6.44112000e+02 7.81860800e-03 9.81789100e-02
        1 -1    0    0  502    0 +0.0000000000e+00 +0.0000000000e+00 +1.2060804536e+02 1.2060804536e+02 0.0000000000e+00 0.0000e+00 1.0000e+00
       13 -1    0    0    0    0 -0.0000000000e+00 -0.0000000000e+00 -1.0000000000e+03 1.0000000000e+03 0.0000000000e+00 0.0000e+00 1.0000e+00
  9000005  2    1    2  501    0 -7.2652752989e-01 -1.1512698553e+01 -8.9407830366e+02 1.1019329572e+03 6.4400866378e+02 0.0000e+00 0.0000e+00
       13  1    3    3    0    0 +2.9162035485e+02 +5.3550001738e+00 -6.7779415306e+02 7.3788618452e+02 0.0000000000e+00 0.0000e+00 1.0000e+00
        1  1    3    3  501    0 -2.9234688238e+02 -1.6867698726e+01 -2.1628415060e+02 3.6404677268e+02 0.0000000000e+00 0.0000e+00 1.0000e+00
       21  1    1    2  502  501 +7.2652752989e-01 +1.1512698553e+01 +1.4686349024e+01 1.8675088162e+01 0.0000000000e+00 0.0000e+00 1.0000e+00
<mgrwt>
<rscale>  1 0.64411197E+03</rscale>
<asrwt>0</asrwt>
<pdfrwt beam="1">  1        1 0.43857564E+00 0.64411197E+03</pdfrwt>
<pdfrwt beam="2">0</pdfrwt>
<totfact> 0.89741247E-01</totfact>
</mgrwt>
</event>
<event>
 6      1 +5.6466785e-02 6.47172800e+02 7.81860800e-03 9.81209900e-02
        1 -1    0    0  502    0 +0.0000000000e+00 +0.0000000000e+00 +1.0470856313e+02 1.0470856313e+02 0.0000000000e+00 0.0000e+00 1.0000e+00
       13 -1    0    0    0    0 -0.0000000000e+00 -0.0000000000e+00 -1.0000000000e+03 1.0000000000e+03 0.0000000000e+00 0.0000e+00 1.0000e+00
  9000005  2    1    2  501    0 +4.6486769065e-05 -4.7241798853e-05 -8.9529184029e+02 1.1047081543e+03 6.4717279523e+02 0.0000e+00 0.0000e+00
       13  1    3    3    0    0 +1.5274536156e+02 +1.9188338388e+02 -8.7325341561e+01 2.6033842161e+02 0.0000000000e+00 0.0000e+00 1.0000e+00
        1  1    3    3  501    0 -1.5274531507e+02 -1.9188343112e+02 -8.0796649873e+02 8.4436973269e+02 0.0000000000e+00 0.0000e+00 1.0000e+00
       21  1    1    2  502  501 -4.6486769077e-05 +4.7241798840e-05 +4.0341778048e-04 4.0882601784e-04 0.0000000000e+00 0.0000e+00 1.0000e+00
<mgrwt>
<rscale>  1 0.64717280E+03</rscale>
<asrwt>0</asrwt>
<pdfrwt beam="1">  1        1 0.38075921E+00 0.64717280E+03</pdfrwt>
<pdfrwt beam="2">0</pdfrwt>
<totfact> 0.16292078E+00</totfact>
</mgrwt>
</event>
<event>
 6      1 +5.6466785e-02 5.91740700e+02 7.81860800e-03 9.92269100e-02
        1 -1    0    0  502    0 +0.0000000000e+00 +0.0000000000e+00 +8.8438370538e+01 8.8438370538e+01 0.0000000000e+00 0.0000e+00 1.0000e+00
       13 -1    0    0    0    0 -0.0000000000e+00 -0.0000000000e+00 -1.0000000000e+03 1.0000000000e+03 0.0000000000e+00 0.0000e+00 1.0000e+00
  9000005  2    1    2  501    0 -5.0002345650e-01 -2.0112739468e+00 -9.1095975912e+02 1.0862802477e+03 5.9173710254e+02 0.0000e+00 0.0000e+00
       13  1    3    3    0    0 +1.8213354897e+02 -1.6773508609e+02 -1.5741466277e+02 2.9340597271e+02 0.0000000000e+00 0.0000e+00 1.0000e+00
        3  1    3    3  501    0 -1.8263357242e+02 +1.6572381214e+02 -7.5354509635e+02 7.9287427498e+02 0.0000000000e+00 0.0000e+00 1.0000e+00
       21  1    1    2  502  501 +5.0002345650e-01 +2.0112739468e+00 -6.0187034421e-01 2.1581228551e+00 0.0000000000e+00 0.0000e+00 -1.0000e+00
<mgrwt>
<rscale>  1 0.59174073E+03</rscale>
<asrwt>0</asrwt>
<pdfrwt beam="1">  1        1 0.32159475E+00 0.59174073E+03</pdfrwt>
<pdfrwt beam="2">0</pdfrwt>
<totfact> 0.29812079E+00</totfact>
</mgrwt>
</event>
<event>
 6      1 +5.6466785e-02 6.43083200e+02 7.81860800e-03 9.81984500e-02
        1 -1    0    0  502    0 +0.0000000000e+00 +0.0000000000e+00 +1.0605304181e+02 1.0605304181e+02 0.0000000000e+00 0.0000e+00 1.0000e+00
       13 -1    0    0    0    0 -0.0000000000e+00 -0.0000000000e+00 -1.0000000000e+03 1.0000000000e+03 0.0000000000e+00 0.0000e+00 1.0000e+00
  9000005  2    1    2  501    0 -1.6661399702e+00 -3.9657235699e+00 -8.9454429132e+02 1.1017102555e+03 6.4306881048e+02 0.0000e+00 0.0000e+00
       13  1    3    3    0    0 -2.9589578632e+02 -1.2960315017e+02 -4.3889237253e+02 5.4495670246e+02 0.0000000000e+00 0.0000e+00 1.0000e+00
        1  1    3    3  501    0 +2.9422964635e+02 +1.2563742660e+02 -4.5565191879e+02 5.5675355306e+02 0.0000000000e+00 0.0000e+00 1.0000e+00
       21  1    1    2  502  501 +1.6661399702e+00 +3.9657235699e+00 +5.9733312568e-01 4.3427862826e+00 0.0000000000e+00 0.0000e+00 -1.0000e+00
<mgrwt>
<rscale>  1 0.64308320E+03</rscale>
<asrwt>0</asrwt>
<pdfrwt beam="1">  1        1 0.38564824E+00 0.64308320E+03</pdfrwt>
<pdfrwt beam="2">0</pdfrwt>
<totfact> 0.15513252E+00</totfact>
</mgrwt>
</event>
<event>
 6      1 +5.6466785e-02 6.78792000e+02 7.81860800e-03 9.75420400e-02
        1 -1    0    0  502    0 +0.0000000000e+00 +0.0000000000e+00 +1.1519004924e+02 1.1519004924e+02 0.0000000000e+00 0.0000e+00 1.0000e+00
       13 -1    0    0    0    0 -0.0000000000e+00 -0.0000000000e+00 -1.0000000000e+03 1.0000000000e+03 0.0000000000e+00 0.0000e+00 1.0000e+00
  9000005  2    1    2  501    0 +1.1639155582e-04 +4.3444582380e-04 -8.8481021239e+02 1.1151895289e+03 6.7879199571e+02 0.0000e+00 0.0000e+00
       13  1    3    3    0    0 -2.4631162275e+02 +2.8417496135e+00 -8.2598732450e+02 8.6193535214e+02 0.0000000000e+00 0.0000e+00 1.0000e+00
        1  1    3    3  501    0 +2.4631173914e+02 -2.8413151677e+00 -5.8822887891e+01 2.5325417677e+02 0.0000000000e+00 0.0000e+00 1.0000e+00
       21  1    1    2  502  501 -1.1639155581e-04 -4.3444582380e-04 +2.6162983038e-04 5.2032714347e-04 0.0000000000e+00 0.0000e+00 -1.0000e+00
<mgrwt>
<rscale>  1 0.67879200E+03</rscale>
<asrwt>0</asrwt>
<pdfrwt beam="1">  1        1 0.41887379E+00 0.67879200E+03</pdfrwt>
<pdfrwt beam="2">0</pdfrwt>
<totfact> 0.10949983E+00</totfact>
</mgrwt>
</event>
<event>
 6      1 +5.6466785e-02 6.59751100e+02 7.81860800e-03 9.78865200e-02
        1 -1    0    0  502    0 +0.0000000000e+00 +0.0000000000e+00 +1.0889056195e+02 1.0889056195e+02 0.0000000000e+00 0.0000e+00 1.0000e+00
       13 -1    0    0    0    0 -0.0000000000e+00 -0.0000000000e+00 -1.0000000000e+03 1.0000000000e+03 0.0000000000e+00 0.0000e+00 1.0000e+00
  9000005  2    1    2  501    0 -1.7114265814e-02 -5.5974190870e-03 -8.9118089610e+02 1.1088168701e+03 6.5975106035e+02 0.0000e+00 0.0000e+00
       13  1    3    3    0    0 +1.1121910082e+02 +2.6230085029e+02 -7.2501343396e+02 7.7898389192e+02 0.0000000000e+00 0.0000e+00 1.0000e+00
        1  1    3    3  501    0 -1.1123621509e+02 -2.6230644771e+02 -1.6616746214e+02 3.2983297823e+02 0.0000000000e+00 0.0000e+00 1.0000e+00
       21  1    1    2  502  501 +1.7114265814e-02 +5.5974190870e-03 +7.1458048859e-02 7.3691803761e-02 0.0000000000e+00 0.0000e+00 1.0000e+00
<mgrwt>
<rscale>  1 0.65975106E+03</rscale>
<asrwt>0</asrwt>
<pdfrwt beam="1">  1        1 0.39596651E+00 0.65975106E+03</pdfrwt>
<pdfrwt beam="2">0</pdfrwt>
<totfact> 0.13918077E+00</totfact>
</mgrwt>
</event>
<event>
 6      1 +5.6466785e-02 6.61366900e+02 7.81860800e-03 9.78568100e-02
        1 -1    0    0  502    0 +0.0000000000e+00 +0.0000000000e+00 +1.1162886651e+02 1.1162886651e+02 0.0000000000e+00 0.0000e+00 1.0000e+00
       13 -1    0    0    0    0 -0.0000000000e+00 -0.0000000000e+00 -1.0000000000e+03 1.0000000000e+03 0.0000000000e+00 0.0000e+00 1.0000e+00
  9000005  2    1    2  501    0 -4.1104399107e-02 -2.8106026863e-01 -8.9063862326e+02 1.1093436544e+03 6.6136684651e+02 0.0000e+00 0.0000e+00
       13  1    3    3    0    0 +2.7149968216e+02 +1.7044362846e+02 -5.8073610913e+02 6.6333817646e+02 0.0000000000e+00 0.0000e+00 1.0000e+00
        3  1    3    3  501    0 -2.7154078656e+02 -1.7072468873e+02 -3.0990251413e+02 4.4600547796e+02 0.0000000000e+00 0.0000e+00 1.0000e+00
       21  1    1    2  502  501 +4.1104399107e-02 +2.8106026863e-01 +2.2674897741e+00 2.2852120956e+00 0.0000000000e+00 0.0000e+00 -1.0000e+00
<mgrwt>
<rscale>  1 0.66136691E+03</rscale>
<asrwt>0</asrwt>
<pdfrwt beam="1">  1        1 0.40592401E+00 0.66136691E+03</pdfrwt>
<pdfrwt beam="2">0</pdfrwt>
<totfact> 0.12560984E+00</totfact>
</mgrwt>
</event>
<event>
 6      1 +5.6466785e-02 6.43368300e+02 7.81860800e-03 9.81930300e-02
        1 -1    0    0  502    0 +0.0000000000e+00 +0.0000000000e+00 +1.0448521659e+02 1.0448521659e+02 0.0000000000e+00 0.0000e+00 1.0000e+00
       13 -1    0    0    0    0 -0.0000000000e+00 -0.0000000000e+00 -1.0000000000e+03 1.0000000000e+03 0.0000000000e+00 0.0000e+00 1.0000e+00
  9000005  2    1    2  501    0 +2.1743464052e-01 +1.0559954232e-01 -8.9650323031e+02 1.1034676428e+03 6.4336827586e+02 0.0000e+00 0.0000e+00
       13  1    3    3    0    0 +6.9398974005e+01 +2.1315087027e+02 -8.4418806847e+02 8.7344318994e+02 0.0000000000e+00 0.0000e+00 1.0000e+00
        1  1    3    3  501    0 -6.9181539364e+01 -2.1304527073e+02 -5.2315161837e+01 2.3002445289e+02 0.0000000000e+00 0.0000e+00 1.0000e+00
       21  1    1    2  502  501 -2.1743464052e-01 -1.0559954232e-01 +9.8844689708e-01 1.0175737588e+00 0.0000000000e+00 0.0000e+00 1.0000e+00
<mgrwt>
<rscale>  1 0.64336832E+03</rscale>
<asrwt>0</asrwt>
<pdfrwt beam="1">  1        1 0.37994704E+00 0.64336832E+03</pdfrwt>
<pdfrwt beam="2">0</pdfrwt>
<totfact> 0.16438596E+00</totfact>
</mgrwt>
</event>
<event>
 6      1 +5.6466785e-02 6.48999600e+02 7.81860800e-03 9.80865800e-02
        1 -1    0    0  502    0 +0.0000000000e+00 +0.0000000000e+00 +1.0533048370e+02 1.0533048370e+02 0.0000000000e+00 0.0000e+00 1.0000e+00
       13 -1    0    0    0    0 -0.0000000000e+00 -0.0000000000e+00 -1.0000000000e+03 1.0000000000e+03 0.0000000000e+00 0.0000e+00 1.0000e+00
  9000005  2    1    2  501    0 -5.3858348366e-04 -6.4840455152e-03 -8.9469950139e+02 1.1052998008e+03 6.4899957772e+02 0.0000e+00 0.0000e+00
       13  1    3    3    0    0 +3.9997362314e+01 -9.7708181080e+01 -9.6993392612e+02 9.7566310716e+02 0.0000000000e+00 0.0000e+00 1.0000e+00
        1  1    3    3  501    0 -3.9997900898e+01 +9.7701697034e+01 +7.5234424728e+01 1.2963669366e+02 0.0000000000e+00 0.0000e+00 1.0000e+00
       21  1    1    2  502  501 +5.3858348366e-04 +6.4840455152e-03 +2.9985094249e-02 3.0682874630e-02 0.0000000000e+00 0.0000e+00 1.0000e+00
<mgrwt>
<rscale>  1 0.64899958E+03</rscale>
<asrwt>0</asrwt>
<pdfrwt beam="1">  1        1 0.38302075E+00 0.64899958E+03</pdfrwt>
<pdfrwt beam="2">0</pdfrwt>
<totfact> 0.15916320E+00</totfact>
</mgrwt>
</event>
<event>
 6      1 +5.6466785e-02 6.33986800e+02 7.81860800e-03 9.83730000e-02
        1 -1    0    0  502    0 +0.0000000000e+00 +0.0000000000e+00 +1.0048513449e+02 1.0048513449e+02 0.0000000000e+00 0.0000e+00 1.0000e+00
       13 -1    0    0    0    0 -0.0000000000e+00 -0.0000000000e+00 -1.0000000000e+03 1.0000000000e+03 0.0000000000e+00 0.0000e+00 1.0000e+00
  9000005  2    1    2  501    0 -2.9369543080e-04 +3.2895924311e-04 -8.9951501126e+02 1.1004846700e+03 6.3398679285e+02 0.0000e+00 0.0000e+00
       13  1    3    3    0    0 -3.0323554109e+02 -2.6658483707e+00 -2.8947875364e+02 4.1923364481e+02 0.0000000000e+00 0.0000e+00 1.0000e+00
        3  1    3    3  501    0 +3.0323524740e+02 +2.6661773299e+00 -6.1003625762e+02 6.8125102523e+02 0.0000000000e+00 0.0000e+00 1.0000e+00
       21  1    1    2  502  501 +2.9369543076e-04 -3.2895924311e-04 +1.4575005053e-04 4.6445049995e-04 0.0000000000e+00 0.0000e+00 -1.0000e+00
<mgrwt>
<rscale>  1 0.63398679E+03</rscale>
<asrwt>0</asrwt>
<pdfrwt beam="1">  1        1 0.36540126E+00 0.63398679E+03</pdfrwt>
<pdfrwt beam="2">0</pdfrwt>
<totfact> 0.19079561E+00</totfact>
</mgrwt>
</event>
<event>
 6      1 +5.6466785e-02 6.57589800e+02 7.81860800e-03 9.79264100e-02
        1 -1    0    0  502    0 +0.0000000000e+00 +0.0000000000e+00 +1.1818792958e+02 1.1818792958e+02 0.0000000000e+00 0.0000e+00 1.0000e+00
       13 -1    0    0    0    0 -0.0000000000e+00 -0.0000000000e+00 -1.0000000000e+03 1.0000000000e+03 0.0000000000e+00 0.0000e+00 1.0000e+00
  9000005  2    1    2  501    0 -9.0260898695e+00 -7.2626038011e-01 -8.8958884437e+02 1.1062515999e+03 6.5752740821e+02 0.0000e+00 0.0000e+00
       13  1    3    3    0    0 -1.1564456256e+02 +2.1466801575e+02 -8.2081568268e+02 8.5626771910e+02 0.0000000000e+00 0.0000e+00 1.0000e+00
        3  1    3    3  501    0 +1.0661847269e+02 -2.1539427613e+02 -6.8773161696e+01 2.4998388083e+02 0.0000000000e+00 0.0000e+00 1.0000e+00
       21  1    1    2  502  501 +9.0260898695e+00 +7.2626038011e-01 +7.7767739586e+00 1.1936329657e+01 0.0000000000e+00 0.0000e+00 1.0000e+00
<mgrwt>
<rscale>  1 0.65758976E+03</rscale>
<asrwt>0</asrwt>
<pdfrwt beam="1">  1        1 0.42977520E+00 0.65758976E+03</pdfrwt>
<pdfrwt beam="2">0</pdfrwt>
<totfact> 0.98145755E-01</totfact>
</mgrwt>
</event>
<event>
 6      1 +5.6466785e-02 6.60989400e+02 7.81860800e-03 9.78637400e-02
        1 -1    0    0  502    0 +0.0000000000e+00 +0.0000000000e+00 +1.0924985456e+02 1.0924985456e+02 0.0000000000e+00 0.0000e+00 1.0000e+00
       13 -1    0    0    0    0 -0.0000000000e+00 -0.0000000000e+00 -1.0000000000e+03 1.0000000000e+03 0.0000000000e+00 0.0000e+00 1.0000e+00
  9000005  2    1    2  501    0 -6.0238906445e-04 -1.6019850018e-03 -8.9077320995e+02 1.1092267266e+03 6.6098942466e+02 0.0000e+00 0.0000e+00
       13  1    3    3    0    0 +1.6678150335e+02 -2.6051506335e+02 -2.5009648511e+02 3.9778438878e+02 0.0000000000e+00 0.0000e+00 1.0000e+00
        3  1    3    3  501    0 -1.6678210574e+02 +2.6051346136e+02 -6.4067672484e+02 7.1144233786e+02 0.0000000000e+00 0.0000e+00 1.0000e+00
       21  1    1    2  502  501 +6.0238906445e-04 +1.6019850018e-03 +2.3064509791e-02 2.3127923392e-02 0.0000000000e+00 0.0000e+00 1.0000e+00
<mgrwt>
<rscale>  1 0.66098942E+03</rscale>
<asrwt>0</asrwt>
<pdfrwt beam="1">  1        1 0.39727304E+00 0.66098942E+03</pdfrwt>
<pdfrwt beam="2">0</pdfrwt>
<totfact> 0.13729788E+00</totfact>
</mgrwt>
</event>
<event>
 6      1 +5.6466785e-02 5.35109600e+02 7.81860800e-03 1.00500000e-01
        1 -1    0    0  502    0 +0.0000000000e+00 +0.0000000000e+00 +7.1921926371e+01 7.1921926371e+01 0.0000000000e+00 0.0000e+00 1.0000e+00
       13 -1    0    0    0    0 -0.0000000000e+00 -0.0000000000e+00 -1.0000000000e+03 1.0000000000e+03 0.0000000000e+00 0.0000e+00 1.0000e+00
  9000005  2    1    2  501    0 -1.3268610469e-02 +5.7877444091e-03 -9.2841427113e+02 1.0715854174e+03 5.3510956601e+02 0.0000e+00 0.0000e+00
       13  1    3    3    0    0 -1.2583772138e+02 +1.3581550521e+02 -7.7421353111e+01 2.0068644572e+02 0.0000000000e+00 0.0000e+00 1.0000e+00
        1  1    3    3  501    0 +1.2582445277e+02 -1.3580971746e+02 -8.5099291802e+02 8.7089897164e+02 0.0000000000e+00 0.0000e+00 1.0000e+00
       21  1    1    2  502  501 +1.3268610469e-02 -5.7877444091e-03 +3.3619750615e-01 3.3650901496e-01 0.0000000000e+00 0.0000e+00 -1.0000e+00
<mgrwt>
<rscale>  1 0.53510957E+03</rscale>
<asrwt>0</asrwt>
<pdfrwt beam="1">  1        1 0.26153483E+00 0.53510957E+03</pdfrwt>
<pdfrwt beam="2">0</pdfrwt>
<totfact> 0.54707936E+00</totfact>
</mgrwt>
</event>
<event>
 6      1 +5.6466785e-02 6.46797200e+02 7.81860800e-03 9.81280800e-02
        3 -1    0    0  502    0 +0.0000000000e+00 +0.0000000000e+00 +1.2520883623e+02 1.2520883623e+02 0.0000000000e+00 0.0000e+00 1.0000e+00
       13 -1    0    0    0    0 -0.0000000000e+00 -0.0000000000e+00 -1.0000000000e+03 1.0000000000e+03 0.0000000000e+00 0.0000e+00 1.0000e+00
  9000005  2    1    2  501    0 -2.1882322502e-01 +2.4291298742e+00 -8.9533366400e+02 1.1045220561e+03 6.4679258965e+02 0.0000e+00 0.0000e+00
       13  1    3    3    0    0 -2.4158905038e+02 +6.3947662560e+01 -7.9947906307e+02 8.3762840514e+02 0.0000000000e+00 0.0000e+00 1.0000e+00
        1  1    3    3  501    0 +2.4137022715e+02 -6.1518532686e+01 -9.5854600928e+01 2.6689365099e+02 0.0000000000e+00 0.0000e+00 1.0000e+00
       21  1    1    2  502  501 +2.1882322502e-01 -2.4291298742e+00 +2.0542500224e+01 2.0686780102e+01 0.0000000000e+00 0.0000e+00 1.0000e+00
<mgrwt>
<rscale>  1 0.64679719E+03</rscale>
<asrwt>0</asrwt>
<pdfrwt beam="1">  1        3 0.45530582E+00 0.64679719E+03</pdfrwt>
<pdfrwt beam="2">0</pdfrwt>
<totfact> 0.30755035E-02</totfact>
</mgrwt>
</event>
<event>
 6      1 +5.6466785e-02 6.55091200e+02 7.81860800e-03 9.79727300e-02
        1 -1    0    0  502    0 +0.0000000000e+00 +0.0000000000e+00 +1.0728626856e+02 1.0728626856e+02 0.0000000000e+00 0.0000e+00 1.0000e+00
       13 -1    0    0    0    0 -0.0000000000e+00 -0.0000000000e+00 -1.0000000000e+03 1.0000000000e+03 0.0000000000e+00 0.0000e+00 1.0000e+00
  9000005  2    1    2  501    0 +2.0969912867e-05 -1.1872320698e-05 -8.9271387355e+02 1.1072861244e+03 6.5509121603e+02 0.0000e+00 0.0000e+00
       13  1    3    3    0    0 -2.5320088231e+02 -1.7963339297e+02 -6.2288602823e+02 6.9596396949e+02 0.0000000000e+00 0.0000e+00 1.0000e+00
        1  1    3    3  501    0 +2.5320090328e+02 +1.7963338110e+02 -2.6982784532e+02 4.1132215493e+02 0.0000000000e+00 0.0000e+00 1.0000e+00
       21  1    1    2  502  501 -2.0969912888e-05 +1.1872320692e-05 +1.4210578538e-04 1.4413446321e-04 0.0000000000e+00 0.0000e+00 1.0000e+00
<mgrwt>
<rscale>  1 0.65509122E+03</rscale>
<asrwt>0</asrwt>
<pdfrwt beam="1">  1        1 0.39013271E+00 0.65509122E+03</pdfrwt>
<pdfrwt beam="2">0</pdfrwt>
<totfact> 0.14786649E+00</totfact>
</mgrwt>
</event>
<event>
 6      1 +5.6466785e-02 6.47147800e+02 7.81860800e-03 9.81214600e-02
        1 -1    0    0  502    0 +0.0000000000e+00 +0.0000000000e+00 +1.0478421964e+02 1.0478421964e+02 0.0000000000e+00 0.0000e+00 1.0000e+00
       13 -1    0    0    0    0 -0.0000000000e+00 -0.0000000000e+00 -1.0000000000e+03 1.0000000000e+03 0.0000000000e+00 0.0000e+00 1.0000e+00
  9000005  2    1    2  501    0 -2.2675466902e-03 +4.4198048457e-05 -8.9529989825e+02 1.1047000712e+03 6.4714784976e+02 0.0000e+00 0.0000e+00
       13  1    3    3    0    0 +3.9248959929e+01 -6.9641232873e+01 -9.8287779215e+02 9.8612328665e+02 0.0000000000e+00 0.0000e+00 1.0000e+00
        3  1    3    3  501    0 -3.9251227476e+01 +6.9641277071e+01 +8.7577893896e+01 1.1857678453e+02 0.0000000000e+00 0.0000e+00 1.0000e+00
       21  1    1    2  502  501 +2.2675466902e-03 -4.4198048453e-05 +8.4117890786e-02 8.4148459711e-02 0.0000000000e+00 0.0000e+00 1.0000e+00
<mgrwt>
<rscale>  1 0.64714785E+03</rscale>
<asrwt>0</asrwt>
<pdfrwt beam="1">  1        1 0.38103433E+00 0.64714785E+03</pdfrwt>
<pdfrwt beam="2">0</pdfrwt>
<totfact> 0.16246658E+00</totfact>
</mgrwt>
</event>
<event>
 6      1 +5.6466785e-02 6.49189000e+02 7.81860800e-03 9.80830200e-02
        1 -1    0    0  502    0 +0.0000000000e+00 +0.0000000000e+00 +1.0536160584e+02 1.0536160584e+02 0.0000000000e+00 0.0000e+00 1.0000e+00
       13 -1    0    0    0    0 -0.0000000000e+00 -0.0000000000e+00 -1.0000000000e+03 1.0000000000e+03 0.0000000000e+00 0.0000e+00 1.0000e+00
  9000005  2    1    2  501    0 -1.8318211517e-05 +2.1854617103e-05 -8.9463839602e+02 1.1053615773e+03 6.4918899932e+02 0.0000e+00 0.0000e+00
       13  1    3    3    0    0 +1.3907474131e+02 +2.8083082365e+02 -3.0330565486e+02 4.3612160627e+02 0.0000000000e+00 0.0000e+00 1.0000e+00
        3  1    3    3  501    0 -1.3907475963e+02 -2.8083080180e+02 -5.9133274116e+02 6.6923997099e+02 0.0000000000e+00 0.0000e+00 1.0000e+00
       21  1    1    2  502  501 +1.8318211532e-05 -2.1854617064e-05 +1.8564510618e-06 2.8576696297e-05 0.0000000000e+00 0.0000e+00 -1.0000e+00
<mgrwt>
<rscale>  1 0.64918900E+03</rscale>
<asrwt>0</asrwt>
<pdfrwt beam="1">  1        1 0.38313392E+00 0.64918900E+03</pdfrwt>
<pdfrwt beam="2">0</pdfrwt>
<totfact> 0.15897448E+00</totfact>
</mgrwt>
</event>
<event>
 6      1 +5.6466785e-02 6.24524000e+02 7.81860800e-03 9.85579300e-02
        1 -1    0    0  502    0 +0.0000000000e+00 +0.0000000000e+00 +9.7507678768e+01 9.7507678768e+01 0.0000000000e+00 0.0000e+00 1.0000e+00
       13 -1    0    0    0    0 -0.0000000000e+00 -0.0000000000e+00 -1.0000000000e+03 1.0000000000e+03 0.0000000000e+00 0.0000e+00 1.0000e+00
  9000005  2    1    2  501    0 -3.6935801688e-06 -6.9926473195e-05 -9.0249243105e+02 1.0975075485e+03 6.2452400350e+02 0.0000e+00 0.0000e+00
       13  1    3    3    0    0 +2.1209846271e+02 +5.9808266068e+01 -8.4003300276e+02 8.6845738657e+02 0.0000000000e+00 0.0000e+00 1.0000e+00
        1  1    3    3  501    0 -2.1209846640e+02 -5.9808335994e+01 -6.2459428296e+01 2.2905016195e+02 0.0000000000e+00 0.0000e+00 1.0000e+00
       21  1    1    2  502  501 +3.6935801794e-06 +6.9926473198e-05 +1.0982223962e-04 1.3024699038e-04 0.0000000000e+00 0.0000e+00 -1.0000e+00
<mgrwt>
<rscale>  1 0.62452400E+03</rscale>
<asrwt>0</asrwt>
<pdfrwt beam="1">  1        1 0.35457413E+00 0.62452400E+03</pdfrwt>
<pdfrwt beam="2">0</pdfrwt>
<totfact> 0.21313913E+00</totfact>
</mgrwt>
</event>
<event>
 6      1 +5.6466785e-02 6.48226200e+02 7.81860800e-03 9.81011300e-02
        1 -1    0    0  502    0 +0.0000000000e+00 +0.0000000000e+00 +1.0505190347e+02 1.0505190347e+02 0.0000000000e+00 0.0000e+00 1.0000e+00
       13 -1    0    0    0    0 -0.0000000000e+00 -0.0000000000e+00 -1.0000000000e+03 1.0000000000e+03 0.0000000000e+00 0.0000e+00 1.0000e+00
  9000005  2    1    2  501    0 +8.5668110842e-05 +2.8142121567e-04 -8.9495069816e+02 1.1050492853e+03 6.4822617250e+02 0.0000e+00 0.0000e+00
       13  1    3    3    0    0 +2.0858832936e+02 -2.0013403334e+02 -6.9735915027e+02 7.5489900445e+02 0.0000000000e+00 0.0000e+00 1.0000e+00
        1  1    3    3  501    0 -2.0858824370e+02 +2.0013431477e+02 -1.9759154789e+02 3.5015028081e+02 0.0000000000e+00 0.0000e+00 1.0000e+00
       21  1    1    2  502  501 -8.5668110856e-05 -2.8142121568e-04 +2.6016278480e-03 2.6182063298e-03 0.0000000000e+00 0.0000e+00 1.0000e+00
<mgrwt>
<rscale>  1 0.64822617E+03</rscale>
<asrwt>0</asrwt>
<pdfrwt beam="1">  1        1 0.38200773E+00 0.64822617E+03</pdfrwt>
<pdfrwt beam="2">0</pdfrwt>
<totfact> 0.16083471E+00</totfact>
</mgrwt>
</event>
<event>
 6      1 +5.6466785e-02 6.53076000e+02 7.81860800e-03 9.80102400e-02
        1 -1    0    0  502    0 +0.0000000000e+00 +0.0000000000e+00 +1.0662807158e+02 1.0662807158e+02 0.0000000000e+00 0.0000e+00 1.0000e+00
       13 -1    0    0    0    0 -0.0000000000e+00 -0.0000000000e+00 -1.0000000000e+03 1.0000000000e+03 0.0000000000e+00 0.0000e+00 1.0000e+00
  9000005  2    1    2  501    0 -4.6404102719e-04 +2.9791796942e-04 -8.9337283326e+02 1.1066270119e+03 6.5307604792e+02 0.0000e+00 0.0000e+00
       13  1    3    3    0    0 +8.8831829966e+01 +1.9018678915e+02 -8.7052767066e+02 8.9547782450e+02 0.0000000000e+00 0.0000e+00 1.0000e+00
        3  1    3    3  501    0 -8.8832294007e+01 -1.9018649123e+02 -2.2845162596e+01 2.1114918745e+02 0.0000000000e+00 0.0000e+00 1.0000e+00
       21  1    1    2  502  501 +4.6404102719e-04 -2.9791796943e-04 +9.0484135373e-04 1.0596353462e-03 0.0000000000e+00 0.0000e+00 -1.0000e+00
<mgrwt>
<rscale>  1 0.65307605E+03</rscale>
<asrwt>0</asrwt>
<pdfrwt beam="1">  1        1 0.38773926E+00 0.65307605E+03</pdfrwt>
<pdfrwt beam="2">0</pdfrwt>
<totfact> 0.15157947E+00</totfact>
</mgrwt>
</event>
<event>
 6      1 +5.6466785e-02 6.43473100e+02 7.81860800e-03 9.81910400e-02
        1 -1    0    0  502    0 +0.0000000000e+00 +0.0000000000e+00 +1.0356998243e+02 1.0356998243e+02 0.0000000000e+00 0.0000e+00 1.0000e+00
       13 -1    0    0    0    0 -0.0000000000e+00 -0.0000000000e+00 -1.0000000000e+03 1.0000000000e+03 0.0000000000e+00 0.0000e+00 1.0000e+00
  9000005  2    1    2  501    0 +4.6691772615e-03 -1.6755792049e-03 -8.9648548036e+02 1.1035142982e+03 6.4347306850e+02 0.0000e+00 0.0000e+00
       13  1    3    3    0    0 +1.4949218705e+02 +7.0569140146e+01 -9.2160033319e+02 9.3630929273e+02 0.0000000000e+00 0.0000e+00 1.0000e+00
        1  1    3    3  501    0 -1.4948751787e+02 -7.0570815726e+01 +2.5114852827e+01 1.6720500550e+02 0.0000000000e+00 0.0000e+00 1.0000e+00
       21  1    1    2  502  501 -4.6691772615e-03 +1.6755792049e-03 +5.5462789732e-02 5.5684197281e-02 0.0000000000e+00 0.0000e+00 -1.0000e+00
<mgrwt>
<rscale>  1 0.64347307E+03</rscale>
<asrwt>0</asrwt>
<pdfrwt beam="1">  1        1 0.37661891E+00 0.64347307E+03</pdfrwt>
<pdfrwt beam="2">0</pdfrwt>
<totfact> 0.17003092E+00</totfact>
</mgrwt>
</event>
<event>
 6      1 +5.6466785e-02 6.57428200e+02 7.81860800e-03 9.79294000e-02
        1 -1    0    0  502    0 +0.0000000000e+00 +0.0000000000e+00 +1.0885022876e+02 1.0885022876e+02 0.0000000000e+00 0.0000e+00 1.0000e+00
       13 -1    0    0    0    0 -0.0000000000e+00 -0.0000000000e+00 -1.0000000000e+03 1.0000000000e+03 0.0000000000e+00 0.0000e+00 1.0000e+00
  9000005  2    1    2  501    0 +1.3207595243e-01 +2.3850056922e-01 -8.9192114703e+02 1.1080320924e+03 6.5742810317e+02 0.0000e+00 0.0000e+00
       13  1    3    3    0    0 +1.6297413730e+02 -2.2330781522e+02 -1.4631839543e+02 3.1278750392e+02 0.0000000000e+00 0.0000e+00 1.0000e+00
        3  1    3    3  501    0 -1.6284206134e+02 +2.2354631579e+02 -7.4560275159e+02 7.9524458843e+02 0.0000000000e+00 0.0000e+00 1.0000e+00
       21  1    1    2  502  501 -1.3207595243e-01 -2.3850056922e-01 +7.7137578705e-01 8.1813640890e-01 0.0000000000e+00 0.0000e+00 -1.0000e+00
<mgrwt>
<rscale>  1 0.65742816E+03</rscale>
<asrwt>0</asrwt>
<pdfrwt beam="1">  1        1 0.39581985E+00 0.65742816E+03</pdfrwt>
<pdfrwt beam="2">0</pdfrwt>
<totfact> 0.13945047E+00</totfact>
</mgrwt>
</event>
<event>
 6      1 +5.6466785e-02 6.59104200e+02 7.81860800e-03 9.78984400e-02
        1 -1    0    0  502    0 +0.0000000000e+00 +0.0000000000e+00 +1.1004630246e+02 1.1004630246e+02 0.0000000000e+00 0.0000e+00 1.0000e+00
       13 -1    0    0    0    0 -0.0000000000e+00 -0.0000000000e+00 -1.0000000000e+03 1.0000000000e+03 0.0000000000e+00 0.0000e+00 1.0000e+00
  9000005  2    1    2  501    0 -4.6909402025e-01 +1.4852390514e+00 -8.9091320641e+02 1.1082169196e+03 6.5910239996e+02 0.0000e+00 0.0000e+00
       13  1    3    3    0    0 +2.1276933802e+02 -1.9441411725e+02 -1.7802149095e+02 3.3876140782e+02 0.0000000000e+00 0.0000e+00 1.0000e+00
        1  1    3    3  501    0 -2.1323843204e+02 +1.9589935631e+02 -7.1289171546e+02 7.6945551182e+02 0.0000000000e+00 0.0000e+00 1.0000e+00
       21  1    1    2  502  501 +4.6909402025e-01 -1.4852390514e+00 +9.5950887509e-01 1.8293828252e+00 0.0000000000e+00 0.0000e+00 -1.0000e+00
<mgrwt>
<rscale>  1 0.65910424E+03</rscale>
<asrwt>0</asrwt>
<pdfrwt beam="1">  1        1 0.40016922E+00 0.65910424E+03</pdfrwt>
<pdfrwt beam="2">0</pdfrwt>
<totfact> 0.13332526E+00</totfact>
</mgrwt>
</event>
<event>
 6      1 +5.6466785e-02 6.48642000e+02 7.81860800e-03 9.80933100e-02
        1 -1    0    0  502    0 +0.0000000000e+00 +0.0000000000e+00 +1.0518432444e+02 1.0518432444e+02 0.0000000000e+00 0.0000e+00 1.0000e+00
       13 -1    0    0    0    0 -0.0000000000e+00 -0.0000000000e+00 -1.0000000000e+03 1.0000000000e+03 0.0000000000e+00 0.0000e+00 1.0000e+00
  9000005  2    1    2  501    0 +2.3536711993e-06 -3.6050588221e-05 -8.9481587647e+02 1.1051841203e+03 6.4864203303e+02 0.0000e+00 0.0000e+00
       13  1    3    3    0    0 +3.8802117533e+01 -3.2185132580e+02 -4.3122116843e+02 5.3948640052e+02 0.0000000000e+00 0.0000e+00 1.0000e+00
        1  1    3    3  501    0 -3.8802115179e+01 +3.2185128975e+02 -4.6359470804e+02 5.6569771979e+02 0.0000000000e+00 0.0000e+00 1.0000e+00
       21  1    1    2  502  501 -2.3536712001e-06 +3.6050588247e-05 +2.0090872323e-04 2.0413108472e-04 0.0000000000e+00 0.0000e+00 -1.0000e+00
<mgrwt>
<rscale>  1 0.64864203E+03</rscale>
<asrwt>0</asrwt>
<pdfrwt beam="1">  1        1 0.38248926E+00 0.64864203E+03</pdfrwt>
<pdfrwt beam="2">0</pdfrwt>
<totfact> 0.16003668E+00</totfact>
</mgrwt>
</event>
<event>
 6      1 +5.6466785e-02 6.45427400e+02 7.81860800e-03 9.81539700e-02
        1 -1    0    0  502    0 +0.0000000000e+00 +0.0000000000e+00 +1.0416608030e+02 1.0416608030e+02 0.0000000000e+00 0.0000e+00 1.0000e+00
       13 -1    0    0    0    0 -0.0000000000e+00 -0.0000000000e+00 -1.0000000000e+03 1.0000000000e+03 0.0000000000e+00 0.0000e+00 1.0000e+00
  9000005  2    1    2  501    0 +8.5149003210e-04 -2.2232334601e-05 -8.9585585474e+02 1.1041441287e+03 6.4542741230e+02 0.0000e+00 0.0000e+00
       13  1    3    3    0    0 +2.4060474774e+01 -1.3960178238e+02 -9.4396708850e+02 9.5453728490e+02 0.0000000000e+00 0.0000e+00 1.0000e+00
        1  1    3    3  501    0 -2.4059623284e+01 +1.3960176015e+02 +4.8111233761e+01 1.4960684384e+02 0.0000000000e+00 0.0000e+00 1.0000e+00
       21  1    1    2  502  501 -8.5149003210e-04 +2.2232334590e-05 +2.1935037742e-02 2.1951569655e-02 0.0000000000e+00 0.0000e+00 -1.0000e+00
<mgrwt>
<rscale>  1 0.64542741E+03</rscale>
<asrwt>0</asrwt>
<pdfrwt beam="1">  1        1 0.37878655E+00 0.64542741E+03</pdfrwt>
<pdfrwt beam="2">0</pdfrwt>
<totfact> 0.16627184E+00</totfact>
</mgrwt>
</event>
<event>
 6      1 +5.6466785e-02 6.54433100e+02 7.81860800e-03 9.79849600e-02
        1 -1    0    0  502    0 +0.0000000000e+00 +0.0000000000e+00 +1.0787686009e+02 1.0787686009e+02 0.0000000000e+00 0.0000e+00 1.0000e+00
       13 -1    0    0    0    0 -0.0000000000e+00 -0.0000000000e+00 -1.0000000000e+03 1.0000000000e+03 0.0000000000e+00 0.0000e+00 1.0000e+00
  9000005  2    1    2  501    0 -4.5391928635e-01 -1.0635729107e-01 -8.9285402803e+02 1.1070099391e+03 6.5443293964e+02 0.0000e+00 0.0000e+00
       13  1    3    3    0    0 -3.1437857929e+02 +6.6119446098e+01 -3.3971817251e+02 4.6756187719e+02 0.0000000000e+00 0.0000e+00 1.0000e+00
        1  1    3    3  501    0 +3.1392466000e+02 -6.6225803389e+01 -5.5313585552e+02 6.3944806189e+02 0.0000000000e+00 0.0000e+00 1.0000e+00
       21  1    1    2  502  501 +4.5391928635e-01 +1.0635729107e-01 +7.3088812133e-01 8.6692101012e-01 0.0000000000e+00 0.0000e+00 -1.0000e+00
<mgrwt>
<rscale>  1 0.65443311E+03</rscale>
<asrwt>0</asrwt>
<pdfrwt beam="1">  1        1 0.39228032E+00 0.65443311E+03</pdfrwt>
<pdfrwt beam="2">0</pdfrwt>
<totfact> 0.14467481E+00</totfact>
</mgrwt>
</event>
<event>
 6      1 +5.6466785e-02 6.49737200e+02 7.81860800e-03 9.80727200e-02
        1 -1    0    0  502    0 +0.0000000000e+00 +0.0000000000e+00 +1.0554075247e+02 1.0554075247e+02 0.0000000000e+00 0.0000e+00 1.0000e+00
       13 -1    0    0    0    0 -0.0000000000e+00 -0.0000000000e+00 -1.0000000000e+03 1.0000000000e+03 0.0000000000e+00 0.0000e+00 1.0000e+00
  9000005  2    1    2  501    0 +3.3291158701e-05 -2.2376808059e-04 -8.9446038627e+02 1.1055395915e+03 6.4973718202e+02 0.0000e+00 0.0000e+00
       13  1    3    3    0    0 +1.6574293367e+02 -1.8499004177e+02 -8.0352515174e+02 8.4103787376e+02 0.0000000000e+00 0.0000e+00 1.0000e+00
        3  1    3    3  501    0 -1.6574290038e+02 +1.8498981801e+02 -9.0935234535e+01 2.6450171771e+02 0.0000000000e+00 0.0000e+00 1.0000e+00
       21  1    1    2  502  501 -3.3291158712e-05 +2.2376808060e-04 +1.1387468266e-03 1.1610016323e-03 0.0000000000e+00 0.0000e+00 -1.0000e+00
<mgrwt>
<rscale>  1 0.64973718E+03</rscale>
<asrwt>0</asrwt>
<pdfrwt beam="1">  1        1 0.38378536E+00 0.64973718E+03</pdfrwt>
<pdfrwt beam="2">0</pdfrwt>
<totfact> 0.15790805E+00</totfact>
</mgrwt>
</event>
<event>
 6      1 +5.6466785e-02 6.54550400e+02 7.81860800e-03 9.79827800e-02
        1 -1    0    0  502    0 +0.0000000000e+00 +0.0000000000e+00 +1.0710907783e+02 1.0710907783e+02 0.0000000000e+00 0.0000e+00 1.0000e+00
       13 -1    0    0    0    0 -0.0000000000e+00 -0.0000000000e+00 -1.0000000000e+03 1.0000000000e+03 0.0000000000e+00 0.0000e+00 1.0000e+00
  9000005  2    1    2  501    0 +1.1542529137e-06 -3.0093860914e-06 -8.9289093028e+02 1.1071090691e+03 6.5455043924e+02 0.0000e+00 0.0000e+00
       13  1    3    3    0    0 -2.3817215104e+02 -2.2255021401e+02 -4.9588825244e+02 5.9343047629e+02 0.0000000000e+00 0.0000e+00 1.0000e+00
        3  1    3    3  501    0 +2.3817215220e+02 +2.2255021100e+02 -3.9700267784e+02 5.1367859281e+02 0.0000000000e+00 0.0000e+00 1.0000e+00
       21  1    1    2  502  501 -1.1542528912e-06 +3.0093861020e-06 +8.1050978029e-06 8.7224603664e-06 0.0000000000e+00 0.0000e+00 -1.0000e+00
<mgrwt>
<rscale>  1 0.65455044E+03</rscale>
<asrwt>0</asrwt>
<pdfrwt beam="1">  1        1 0.38948838E+00 0.65455044E+03</pdfrwt>
<pdfrwt beam="2">0</pdfrwt>
<totfact> 0.14885742E+00</totfact>
</mgrwt>
</event>
<event>
 6      1 +5.6466785e-02 6.55417800e+02 7.81860800e-03 9.79666600e-02
        1 -1    0    0  502    0 +0.0000000000e+00 +0.0000000000e+00 +1.0739404754e+02 1.0739404754e+02 0.0000000000e+00 0.0000e+00 1.0000e+00
       13 -1    0    0    0    0 -0.0000000000e+00 -0.0000000000e+00 -1.0000000000e+03 1.0000000000e+03 0.0000000000e+00 0.0000e+00 1.0000e+00
  9000005  2    1    2  501    0 -2.4494517448e-03 -7.9549242827e-04 -8.9260413951e+02 1.1073908980e+03 6.5541776841e+02 0.0000e+00 0.0000e+00
       13  1    3    3    0    0 +2.7582035480e+02 -1.3592424619e+02 -6.3775730719e+02 7.0801599678e+02 0.0000000000e+00 0.0000e+00 1.0000e+00
        1  1    3    3  501    0 -2.7582280426e+02 +1.3592345070e+02 -2.5484683232e+02 3.9937490124e+02 0.0000000000e+00 0.0000e+00 1.0000e+00
       21  1    1    2  502  501 +2.4494517449e-03 +7.9549242825e-04 -1.8129497522e-03 3.1495093043e-03 0.0000000000e+00 0.0000e+00 -1.0000e+00
<mgrwt>
<rscale>  1 0.65541777E+03</rscale>
<asrwt>0</asrwt>
<pdfrwt beam="1">  1        1 0.39052463E+00 0.65541777E+03</pdfrwt>
<pdfrwt beam="2">0</pdfrwt>
<totfact> 0.14726687E+00</totfact>
</mgrwt>
</event>
<event>
 6      1 +5.6466785e-02 6.42963200e+02 7.81860800e-03 9.82007400e-02
        1 -1    0    0  502    0 +0.0000000000e+00 +0.0000000000e+00 +1.0335138274e+02 1.0335138274e+02 0.0000000000e+00 0.0000e+00 1.0000e+00
       13 -1    0    0    0    0 -0.0000000000e+00 -0.0000000000e+00 -1.0000000000e+03 1.0000000000e+03 0.0000000000e+00 0.0000e+00 1.0000e+00
  9000005  2    1    2  501    0 -5.7542159755e-04 -2.9136393028e-03 -8.9664455151e+02 1.1033463478e+03 6.4296322711e+02 0.0000e+00 0.0000e+00
       13  1    3    3    0    0 +2.0842007928e+02 -4.8726857526e+01 -3.6698843079e+01 2.1716362765e+02 0.0000000000e+00 0.0000e+00 1.0000e+00
        3  1    3    3  501    0 -2.0842065470e+02 +4.8723943887e+01 -8.5994570843e+02 8.8618272013e+02 0.0000000000e+00 0.0000e+00 1.0000e+00
       21  1    1    2  502  501 +5.7542159753e-04 +2.9136393028e-03 -4.0657555904e-03 5.0349550666e-03 0.0000000000e+00 0.0000e+00 1.0000e+00
<mgrwt>
<rscale>  1 0.64296323E+03</rscale>
<asrwt>0</asrwt>
<pdfrwt beam="1">  1        1 0.37582400E+00 0.64296323E+03</pdfrwt>
<pdfrwt beam="2">0</pdfrwt>
<totfact> 0.17142314E+00</totfact>
</mgrwt>
</event>
<event>
 6      1 +5.6466785e-02 6.41796600e+02 7.81860800e-03 9.82229500e-02
        1 -1    0    0  502    0 +0.0000000000e+00 +0.0000000000e+00 +1.0297584126e+02 1.0297584126e+02 0.0000000000e+00 0.0000e+00 1.0000e+00
       13 -1    0    0    0    0 -0.0000000000e+00 -0.0000000000e+00 -1.0000000000e+03 1.0000000000e+03 0.0000000000e+00 0.0000e+00 1.0000e+00
  9000005  2    1    2  501    0 +1.5155881044e-05 +2.1271140383e-05 -8.9702427120e+02 1.1029757258e+03 6.4179662556e+02 0.0000e+00 0.0000e+00
       13  1    3    3    0    0 +4.6852747677e+01 +2.9357481614e+02 -6.5612841487e+02 7.2033731643e+02 0.0000000000e+00 0.0000e+00 1.0000e+00
        1  1    3    3  501    0 -4.6852732521e+01 -2.9357479487e+02 -2.4089585634e+02 3.8263840938e+02 0.0000000000e+00 0.0000e+00 1.0000e+00
       21  1    1    2  502  501 -1.5155881039e-05 -2.1271140343e-05 +1.1246827908e-04 1.1546114473e-04 0.0000000000e+00 0.0000e+00 -1.0000e+00
<mgrwt>
<rscale>  1 0.64179663E+03</rscale>
<asrwt>0</asrwt>
<pdfrwt beam="1">  1        1 0.37445839E+00 0.64179663E+03</pdfrwt>
<pdfrwt beam="2">0</pdfrwt>
<totfact> 0.17384961E+00</totfact>
</mgrwt>
</event>
<event>
 6      1 +5.6466785e-02 6.53024200e+02 7.81860800e-03 9.80112100e-02
        1 -1    0    0  502    0 +0.0000000000e+00 +0.0000000000e+00 +1.0664265501e+02 1.0664265501e+02 0.0000000000e+00 0.0000e+00 1.0000e+00
       13 -1    0    0    0    0 -0.0000000000e+00 -0.0000000000e+00 -1.0000000000e+03 1.0000000000e+03 0.0000000000e+00 0.0000e+00 1.0000e+00
  9000005  2    1    2  501    0 +5.1486397682e-03 -5.5648421564e-03 -8.9338935344e+02 1.1066097610e+03 6.5302421564e+02 0.0000e+00 0.0000e+00
       13  1    3    3    0    0 +1.2793149572e+01 +1.8873915934e+02 -8.9766763158e+02 9.1738395001e+02 0.0000000000e+00 0.0000e+00 1.0000e+00
        1  1    3    3  501    0 -1.2788000932e+01 -1.8874472419e+02 +4.2782781418e+00 1.8922581098e+02 0.0000000000e+00 0.0000e+00 1.0000e+00
       21  1    1    2  502  501 -5.1486397682e-03 +5.5648421564e-03 +3.2008455033e-02 3.2894029143e-02 0.0000000000e+00 0.0000e+00 -1.0000e+00
<mgrwt>
<rscale>  1 0.65302422E+03</rscale>
<asrwt>0</asrwt>
<pdfrwt beam="1">  1        1 0.38779229E+00 0.65302422E+03</pdfrwt>
<pdfrwt beam="2">0</pdfrwt>
<totfact> 0.15149896E+00</totfact>
</mgrwt>
</event>
<event>
 6      1 +5.6466785e-02 6.49966400e+02 7.81860800e-03 9.80684200e-02
        1 -1    0    0  502    0 +0.0000000000e+00 +0.0000000000e+00 +1.0562055829e+02 1.0562055829e+02 0.0000000000e+00 0.0000e+00 1.0000e+00
       13 -1    0    0    0    0 -0.0000000000e+00 -0.0000000000e+00 -1.0000000000e+03 1.0000000000e+03 0.0000000000e+00 0.0000e+00 1.0000e+00
  9000005  2    1    2  501    0 -1.1497086468e-03 -1.1913191742e-04 -8.9438586802e+02 1.1056140289e+03 6.4996638365e+02 0.0000e+00 0.0000e+00
       13  1    3    3    0    0 -7.0416894506e+01 +3.0589922904e+02 -3.0405093387e+02 4.3701241144e+02 0.0000000000e+00 0.0000e+00 1.0000e+00
        1  1    3    3  501    0 +7.0415744797e+01 -3.0589934818e+02 -5.9033493415e+02 6.6860161742e+02 0.0000000000e+00 0.0000e+00 1.0000e+00
       21  1    1    2  502  501 +1.1497086468e-03 +1.1913191738e-04 +6.4263152918e-03 6.5294372358e-03 0.0000000000e+00 0.0000e+00 1.0000e+00
<mgrwt>
<rscale>  1 0.64996638E+03</rscale>
<asrwt>0</asrwt>
<pdfrwt beam="1">  1        1 0.38407557E+00 0.64996638E+03</pdfrwt>
<pdfrwt beam="2">0</pdfrwt>
<totfact> 0.15743560E+00</totfact>
</mgrwt>
</event>
<event>
 6      1 +5.6466785e-02 5.69342800e+02 7.81860800e-03 9.97113400e-02
        3 -1    0    0  502    0 +0.0000000000e+00 +0.0000000000e+00 +8.1245309867e+01 8.1245309867e+01 0.0000000000e+00 0.0000e+00 1.0000e+00
       13 -1    0    0    0    0 -0.0000000000e+00 -0.0000000000e+00 -1.0000000000e+03 1.0000000000e+03 0.0000000000e+00 0.0000e+00 1.0000e+00
  9000005  2    1    2  501    0 -2.5593593521e-02 +2.0524280926e-03 -9.1896134328e+02 1.0810370678e+03 5.6934277092e+02 0.0000e+00 0.0000e+00
       13  1    3    3    0    0 -1.1845594523e+02 -1.3244323794e+02 -3.7182826888e+01 1.8153673142e+02 0.0000000000e+00 0.0000e+00 1.0000e+00
        1  1    3    3  501    0 +1.1843035164e+02 +1.3244529037e+02 -8.8177851639e+02 8.9950033636e+02 0.0000000000e+00 0.0000e+00 1.0000e+00
       21  1    1    2  502  501 +2.5593593521e-02 -2.0524280926e-03 +2.0665315018e-01 2.0824209222e-01 0.0000000000e+00 0.0000e+00 -1.0000e+00
<mgrwt>
<rscale>  1 0.56934277E+03</rscale>
<asrwt>0</asrwt>
<pdfrwt beam="1">  1        3 0.29543811E+00 0.56934277E+03</pdfrwt>
<pdfrwt beam="2">0</pdfrwt>
<totfact> 0.21641559E-01</totfact>
</mgrwt>
</event>
<event>
 6      1 +5.6466785e-02 6.46645100e+02 7.81860800e-03 9.81309500e-02
        1 -1    0    0  502    0 +0.0000000000e+00 +0.0000000000e+00 +1.0453939807e+02 1.0453939807e+02 0.0000000000e+00 0.0000e+00 1.0000e+00
       13 -1    0    0    0    0 -0.0000000000e+00 -0.0000000000e+00 -1.0000000000e+03 1.0000000000e+03 0.0000000000e+00 0.0000e+00 1.0000e+00
  9000005  2    1    2  501    0 +1.7456774287e-05 +1.2690157094e-03 -8.9546228485e+02 1.1045372902e+03 6.4664512831e+02 0.0000e+00 0.0000e+00
       13  1    3    3    0    0 +3.9724915598e+01 -2.6594952640e+02 -7.5438115940e+02 8.0087336900e+02 0.0000000000e+00 0.0000e+00 1.0000e+00
        3  1    3    3  501    0 -3.9724898141e+01 +2.6595079541e+02 -1.4108112545e+02 3.0366392125e+02 0.0000000000e+00 0.0000e+00 1.0000e+00
       21  1    1    2  502  501 -1.7456774292e-05 -1.2690157094e-03 +1.6829183263e-03 2.1078234515e-03 0.0000000000e+00 0.0000e+00 1.0000e+00
<mgrwt>
<rscale>  1 0.64664513E+03</rscale>
<asrwt>0</asrwt>
<pdfrwt beam="1">  1        1 0.38014407E+00 0.64664513E+03</pdfrwt>
<pdfrwt beam="2">0</pdfrwt>
<totfact> 0.16395829E+00</totfact>
</mgrwt>
</event>
<event>
 6      1 +5.6466785e-02 6.58075600e+02 7.81860800e-03 9.79174300e-02
        1 -1    0    0  502    0 +0.0000000000e+00 +0.0000000000e+00 +1.0827409467e+02 1.0827409467e+02 0.0000000000e+00 0.0000e+00 1.0000e+00
       13 -1    0    0    0    0 -0.0000000000e+00 -0.0000000000e+00 -1.0000000000e+03 1.0000000000e+03 0.0000000000e+00 0.0000e+00 1.0000e+00
  9000005  2    1    2  501    0 +1.4620135877e-04 +1.4147179350e-04 -8.9173411419e+02 1.1082658833e+03 6.5807563218e+02 0.0000e+00 0.0000e+00
       13  1    3    3    0    0 +2.4156527070e+02 -1.2401368996e+02 -7.5882331649e+02 8.0594416739e+02 0.0000000000e+00 0.0000e+00 1.0000e+00
        1  1    3    3  501    0 -2.4156512450e+02 +1.2401383143e+02 -1.3291079770e+02 3.0232171590e+02 0.0000000000e+00 0.0000e+00 1.0000e+00
       21  1    1    2  502  501 -1.4620135878e-04 -1.4147179351e-04 +8.2088579124e-03 8.2113785281e-03 0.0000000000e+00 0.0000e+00 -1.0000e+00
<mgrwt>
<rscale>  1 0.65807563E+03</rscale>
<asrwt>0</asrwt>
<pdfrwt beam="1">  1        1 0.39372481E+00 0.65807563E+03</pdfrwt>
<pdfrwt beam="2">0</pdfrwt>
<totfact> 0.14245651E+00</totfact>
</mgrwt>
</event>
<event>
 6      1 +5.6466785e-02 6.38849100e+02 7.81860800e-03 9.82793100e-02
        1 -1    0    0  502    0 +0.0000000000e+00 +0.0000000000e+00 +1.0742846437e+02 1.0742846437e+02 0.0000000000e+00 0.0000e+00 1.0000e+00
       13 -1    0    0    0    0 -0.0000000000e+00 -0.0000000000e+00 -1.0000000000e+03 1.0000000000e+03 0.0000000000e+00 0.0000e+00 1.0000e+00
  9000005  2    1    2  501    0 -1.3938734684e+00 +1.0964229599e+00 -8.9780695951e+02 1.1019008347e+03 6.3884659187e+02 0.0000e+00 0.0000e+00
       13  1    3    3    0    0 +4.1850597749e+01 -2.8882214664e+02 -6.6953906881e+02 7.3037816889e+02 0.0000000000e+00 0.0000e+00 1.0000e+00
        3  1    3    3  501    0 -4.3244471218e+01 +2.8991856960e+02 -2.2826789070e+02 3.7152266581e+02 0.0000000000e+00 0.0000e+00 1.0000e+00
       21  1    1    2  502  501 +1.3938734684e+00 -1.0964229599e+00 +5.2354238863e+00 5.5276296748e+00 0.0000000000e+00 0.0000e+00 -1.0000e+00
<mgrwt>
<rscale>  1 0.63884905E+03</rscale>
<asrwt>0</asrwt>
<pdfrwt beam="1">  1        1 0.39064979E+00 0.63884905E+03</pdfrwt>
<pdfrwt beam="2">0</pdfrwt>
<totfact> 0.14753656E+00</totfact>
</mgrwt>
</event>
<event>
 6      1 +5.6466785e-02 6.49974100e+02 7.81860800e-03 9.80682800e-02
        1 -1    0    0  502    0 +0.0000000000e+00 +0.0000000000e+00 +1.0563141488e+02 1.0563141488e+02 0.0000000000e+00 0.0000e+00 1.0000e+00
       13 -1    0    0    0    0 -0.0000000000e+00 -0.0000000000e+00 -1.0000000000e+03 1.0000000000e+03 0.0000000000e+00 0.0000e+00 1.0000e+00
  9000005  2    1    2  501    0 -1.4845195038e-02 -7.4494073223e-03 -8.9437807196e+02 1.1056122871e+03 6.4997414826e+02 0.0000e+00 0.0000e+00
       13  1    3    3    0    0 -2.5389726939e+02 -2.0269040316e+02 -4.3250300730e+02 5.4093074812e+02 0.0000000000e+00 0.0000e+00 1.0000e+00
        1  1    3    3  501    0 +2.5388242420e+02 +2.0268295375e+02 -4.6187506466e+02 5.6468153894e+02 0.0000000000e+00 0.0000e+00 1.0000e+00
       21  1    1    2  502  501 +1.4845195038e-02 +7.4494073223e-03 +9.4868402632e-03 1.9127823278e-02 0.0000000000e+00 0.0000e+00 1.0000e+00
<mgrwt>
<rscale>  1 0.64997415E+03</rscale>
<asrwt>0</asrwt>
<pdfrwt beam="1">  1        1 0.38411505E+00 0.64997415E+03</pdfrwt>
<pdfrwt beam="2">0</pdfrwt>
<totfact> 0.15737212E+00</totfact>
</mgrwt>
</event>
<event>
 6      1 +5.6466785e-02 6.39042700e+02 7.81860800e-03 9.82756000e-02
        1 -1    0    0  502    0 +0.0000000000e+00 +0.0000000000e+00 +1.0251806520e+02 1.0251806520e+02 0.0000000000e+00 0.0000e+00 1.0000e+00
       13 -1    0    0    0    0 -0.0000000000e+00 -0.0000000000e+00 -1.0000000000e+03 1.0000000000e+03 0.0000000000e+00 0.0000e+00 1.0000e+00
  9000005  2    1    2  501    0 -4.1883426437e-03 +4.2460502306e-02 -8.9790492681e+02 1.1020929268e+03 6.3904269015e+02 0.0000e+00 0.0000e+00
       13  1    3    3    0    0 +2.6297491672e+02 +1.0478939030e+02 -7.0453024207e+02 7.5927563186e+02 0.0000000000e+00 0.0000e+00 1.0000e+00
        3  1    3    3  501    0 -2.6297910506e+02 -1.0474692979e+02 -1.9337468474e+02 3.4281729492e+02 0.0000000000e+00 0.0000e+00 1.0000e+00
       21  1    1    2  502  501 +4.1883426436e-03 -4.2460502306e-02 +4.2299201372e-01 4.2513842468e-01 0.0000000000e+00 0.0000e+00 1.0000e+00
<mgrwt>
<rscale>  1 0.63904269E+03</rscale>
<asrwt>0</asrwt>
<pdfrwt beam="1">  1        1 0.37279375E+00 0.63904269E+03</pdfrwt>
<pdfrwt beam="2">0</pdfrwt>
<totfact> 0.17689482E+00</totfact>
</mgrwt>
</event>
<event>
 6      1 +5.6466785e-02 6.63137900e+02 7.81860800e-03 9.78243400e-02
        1 -1    0    0  502    0 +0.0000000000e+00 +0.0000000000e+00 +1.1004262758e+02 1.1004262758e+02 0.0000000000e+00 0.0000e+00 1.0000e+00
       13 -1    0    0    0    0 -0.0000000000e+00 -0.0000000000e+00 -1.0000000000e+03 1.0000000000e+03 0.0000000000e+00 0.0000e+00 1.0000e+00
  9000005  2    1    2  501    0 +1.2585040900e-01 -3.1768345842e-02 -8.9001527437e+02 1.1099005002e+03 6.6313793053e+02 0.0000e+00 0.0000e+00
       13  1    3    3    0    0 -1.5424611632e+01 +1.4569968299e+02 -9.4280720156e+02 9.5412354314e+02 0.0000000000e+00 0.0000e+00 1.0000e+00
        3  1    3    3  501    0 +1.5550462041e+01 -1.4573145133e+02 +5.2791927190e+01 1.5577695707e+02 0.0000000000e+00 0.0000e+00 1.0000e+00
       21  1    1    2  502  501 -1.2585040900e-01 +3.1768345842e-02 +5.7901943864e-02 1.4212736663e-01 0.0000000000e+00 0.0000e+00 -1.0000e+00
<mgrwt>
<rscale>  1 0.66313794E+03</rscale>
<asrwt>0</asrwt>
<pdfrwt beam="1">  1        1 0.40015585E+00 0.66313794E+03</pdfrwt>
<pdfrwt beam="2">0</pdfrwt>
<totfact> 0.13324271E+00</totfact>
</mgrwt>
</event>
<event>
 6      1 +5.6466785e-02 6.27807000e+02 7.81860800e-03 9.84933800e-02
        1 -1    0    0  502    0 +0.0000000000e+00 +0.0000000000e+00 +1.0157501447e+02 1.0157501447e+02 0.0000000000e+00 0.0000e+00 1.0000e+00
       13 -1    0    0    0    0 -0.0000000000e+00 -0.0000000000e+00 -1.0000000000e+03 1.0000000000e+03 0.0000000000e+00 0.0000e+00 1.0000e+00
  9000005  2    1    2  501    0 -6.9725217930e-01 -8.3577876119e-01 -9.0135722021e+02 1.0984472858e+03 6.2780603411e+02 0.0000e+00 0.0000e+00
       13  1    3    3    0    0 +1.6589733602e+02 +6.5238496157e+00 +1.5315210026e+01 1.6673044824e+02 0.0000000000e+00 0.0000e+00 1.0000e+00
        1  1    3    3  501    0 -1.6659458820e+02 -7.3596283769e+00 -9.1667243023e+02 9.3171683751e+02 0.0000000000e+00 0.0000e+00 1.0000e+00
       21  1    1    2  502  501 +6.9725217930e-01 +8.3577876119e-01 +2.9322346762e+00 3.1277287183e+00 0.0000000000e+00 0.0000e+00 -1.0000e+00
<mgrwt>
<rscale>  1 0.62780698E+03</rscale>
<asrwt>0</asrwt>
<pdfrwt beam="1">  1        1 0.36936447E+00 0.62780698E+03</pdfrwt>
<pdfrwt beam="2">0</pdfrwt>
<totfact> 0.18351707E+00</totfact>
</mgrwt>
</event>
<event>
 6      1 +5.6466785e-02 6.70304300e+02 7.81860800e-03 9.76940800e-02
        1 -1    0    0  502    0 +0.0000000000e+00 +0.0000000000e+00 +1.1304074266e+02 1.1304074266e+02 0.0000000000e+00 0.0000e+00 1.0000e+00
       13 -1    0    0    0    0 -0.0000000000e+00 -0.0000000000e+00 -1.0000000000e+03 1.0000000000e+03 0.0000000000e+00 0.0000e+00 1.0000e+00
  9000005  2    1    2  501    0 -2.5050777822e-02 -3.9841585948e-01 -8.8761039477e+02 1.1122769739e+03 6.7030418053e+02 0.0000e+00 0.0000e+00
       13  1    3    3    0    0 +7.7599597881e+01 +1.7176634422e+01 -9.8404003066e+02 9.8724440556e+02 0.0000000000e+00 0.0000e+00 1.0000e+00
        1  1    3    3  501    0 -7.7624648659e+01 -1.7575050281e+01 +9.6429635892e+01 1.2503256836e+02 0.0000000000e+00 0.0000e+00 1.0000e+00
       21  1    1    2  502  501 +2.5050777822e-02 +3.9841585948e-01 +6.5113743372e-01 7.6376874521e-01 0.0000000000e+00 0.0000e+00 -1.0000e+00
<mgrwt>
<rscale>  1 0.67030430E+03</rscale>
<asrwt>0</asrwt>
<pdfrwt beam="1">  1        1 0.41105811E+00 0.67030430E+03</pdfrwt>
<pdfrwt beam="2">0</pdfrwt>
<totfact> 0.11892737E+00</totfact>
</mgrwt>
</event>
<event>
 6      1 +5.6466785e-02 6.69595200e+02 7.81860800e-03 9.77068900e-02
        1 -1    0    0  502    0 +0.0000000000e+00 +0.0000000000e+00 +1.1208953009e+02 1.1208953009e+02 0.0000000000e+00 0.0000e+00 1.0000e+00
       13 -1    0    0    0    0 -0.0000000000e+00 -0.0000000000e+00 -1.0000000000e+03 1.0000000000e+03 0.0000000000e+00 0.0000e+00 1.0000e+00
  9000005  2    1    2  501    0 -2.0368175404e-04 +9.0441920520e-05 -8.8791040723e+02 1.1120892986e+03 6.6959518873e+02 0.0000e+00 0.0000e+00
       13  1    3    3    0    0 -2.4772082186e+02 -2.2072312153e+02 -5.1832591904e+02 6.1542348047e+02 0.0000000000e+00 0.0000e+00 1.0000e+00
        1  1    3    3  501    0 +2.4772061818e+02 +2.2072321197e+02 -3.6958448819e+02 4.9666581812e+02 0.0000000000e+00 0.0000e+00 1.0000e+00
       21  1    1    2  502  501 +2.0368175402e-04 -9.0441920514e-05 -6.2672864945e-05 2.3150353325e-04 0.0000000000e+00 0.0000e+00 -1.0000e+00
<mgrwt>
<rscale>  1 0.66959519E+03</rscale>
<asrwt>0</asrwt>
<pdfrwt beam="1">  1        1 0.40759915E+00 0.66959519E+03</pdfrwt>
<pdfrwt beam="2">0</pdfrwt>
<totfact> 0.12326783E+00</totfact>
</mgrwt>
</event>
<event>
 6      1 +5.6466785e-02 6.51385100e+02 7.81860800e-03 9.80418400e-02
        1 -1    0    0  502    0 +0.0000000000e+00 +0.0000000000e+00 +1.0607989651e+02 1.0607989651e+02 0.0000000000e+00 0.0000e+00 1.0000e+00
       13 -1    0    0    0    0 -0.0000000000e+00 -0.0000000000e+00 -1.0000000000e+03 1.0000000000e+03 0.0000000000e+00 0.0000e+00 1.0000e+00
  9000005  2    1    2  501    0 +5.2854461311e-03 -1.0521387750e-02 -8.9391186399e+02 1.1060655255e+03 6.5138508276e+02 0.0000e+00 0.0000e+00
       13  1    3    3    0    0 -1.9441165472e+02 +2.2303461496e+02 -2.1579380271e+02 3.6620663053e+02 0.0000000000e+00 0.0000e+00 1.0000e+00
        3  1    3    3  501    0 +1.9441694016e+02 -2.2304513635e+02 -6.7811806128e+02 7.3985889499e+02 0.0000000000e+00 0.0000e+00 1.0000e+00
       21  1    1    2  502  501 -5.2854461311e-03 +1.0521387750e-02 -8.2395046624e-03 1.4370976935e-02 0.0000000000e+00 0.0000e+00 -1.0000e+00
<mgrwt>
<rscale>  1 0.65138508E+03</rscale>
<asrwt>0</asrwt>
<pdfrwt beam="1">  1        1 0.38574589E+00 0.65138508E+03</pdfrwt>
<pdfrwt beam="2">0</pdfrwt>
<totfact> 0.15473953E+00</totfact>
</mgrwt>
</event>
<event>
 6      1 +5.6466785e-02 6.44806500e+02 7.81860800e-03 9.81657400e-02
        1 -1    0    0  502    0 +0.0000000000e+00 +0.0000000000e+00 +1.0398836089e+02 1.0398836089e+02 0.0000000000e+00 0.0000e+00 1.0000e+00
       13 -1    0    0    0    0 -0.0000000000e+00 -0.0000000000e+00 -1.0000000000e+03 1.0000000000e+03 0.0000000000e+00 0.0000e+00 1.0000e+00
  9000005  2    1    2  501    0 +4.8219677815e-03 +8.4053327360e-03 -8.9605556894e+02 1.1039433750e+03 6.4480647677e+02 0.0000e+00 0.0000e+00
       13  1    3    3    0    0 +2.3071294547e+02 +2.2519881950e+02 -4.5140747142e+02 5.5471765500e+02 0.0000000000e+00 0.0000e+00 1.0000e+00
        1  1    3    3  501    0 -2.3070812350e+02 -2.2519041417e+02 -4.4464809752e+02 5.4922572000e+02 0.0000000000e+00 0.0000e+00 1.0000e+00
       21  1    1    2  502  501 -4.8219677815e-03 -8.4053327361e-03 +4.3929830913e-02 4.4985898188e-02 0.0000000000e+00 0.0000e+00 -1.0000e+00
<mgrwt>
<rscale>  1 0.64480648E+03</rscale>
<asrwt>0</asrwt>
<pdfrwt beam="1">  1        1 0.37814029E+00 0.64480648E+03</pdfrwt>
<pdfrwt beam="2">0</pdfrwt>
<totfact> 0.16738537E+00</totfact>
</mgrwt>
</event>
<event>
 6      1 +5.6466785e-02 6.50012300e+02 7.81860800e-03 9.80675600e-02
        1 -1    0    0  502    0 +0.0000000000e+00 +0.0000000000e+00 +1.0586304816e+02 1.0586304816e+02 0.0000000000e+00 0.0000e+00 1.0000e+00
       13 -1    0    0    0    0 -0.0000000000e+00 -0.0000000000e+00 -1.0000000000e+03 1.0000000000e+03 0.0000000000e+00 0.0000e+00 1.0000e+00
  9000005  2    1    2  501    0 -1.5743221935e-02 +1.4293486703e-02 -8.9437045977e+02 1.1056285741e+03 6.5001232604e+02 0.0000e+00 0.0000e+00
       13  1    3    3    0    0 +5.3210051521e+01 +2.4285149675e+02 -8.0326548528e+02 8.4085884601e+02 0.0000000000e+00 0.0000e+00 1.0000e+00
        1  1    3    3  501    0 -5.3225794743e+01 -2.4283720326e+02 -9.1104974486e+01 2.6476972805e+02 0.0000000000e+00 0.0000e+00 1.0000e+00
       21  1    1    2  502  501 +1.5743221935e-02 -1.4293486703e-02 +2.3350793098e-01 2.3447410652e-01 0.0000000000e+00 0.0000e+00 -1.0000e+00
<mgrwt>
<rscale>  1 0.65001233E+03</rscale>
<asrwt>0</asrwt>
<pdfrwt beam="1">  1        1 0.38495735E+00 0.65001233E+03</pdfrwt>
<pdfrwt beam="2">0</pdfrwt>
<totfact> 0.15602705E+00</totfact>
</mgrwt>
</event>
<event>
 6      1 +5.6466785e-02 6.31534200e+02 7.81860800e-03 9.84206000e-02
        3 -1    0    0  502    0 +0.0000000000e+00 +0.0000000000e+00 +9.9732307650e+01 9.9732307650e+01 0.0000000000e+00 0.0000e+00 1.0000e+00
       13 -1    0    0    0    0 -0.0000000000e+00 -0.0000000000e+00 -1.0000000000e+03 1.0000000000e+03 0.0000000000e+00 0.0000e+00 1.0000e+00
  9000005  2    1    2  501    0 -3.2019696619e-06 +5.8036108933e-04 -9.0029113810e+02 1.0997088547e+03 6.3153418895e+02 0.0000e+00 0.0000e+00
       13  1    3    3    0    0 +2.5839523588e+02 -3.8029250731e+01 -1.4111717989e+02 2.9686424557e+02 0.0000000000e+00 0.0000e+00 1.0000e+00
        1  1    3    3  501    0 -2.5839523908e+02 +3.8029831092e+01 -7.5917395821e+02 8.0284460915e+02 0.0000000000e+00 0.0000e+00 1.0000e+00
       21  1    1    2  502  501 +3.2019696674e-06 -5.8036108932e-04 +2.3445746933e-02 2.3452928996e-02 0.0000000000e+00 0.0000e+00 -1.0000e+00
<mgrwt>
<rscale>  1 0.63153419E+03</rscale>
<asrwt>0</asrwt>
<pdfrwt beam="1">  1        3 0.36266370E+00 0.63153419E+03</pdfrwt>
<pdfrwt beam="2">0</pdfrwt>
<totfact> 0.93529520E-02</totfact>
</mgrwt>
</event>
<event>
 6      1 +5.6466785e-02 6.49268700e+02 7.81860800e-03 9.80815200e-02
        1 -1    0    0  502    0 +0.0000000000e+00 +0.0000000000e+00 +1.0538745808e+02 1.0538745808e+02 0.0000000000e+00 0.0000e+00 1.0000e+00
       13 -1    0    0    0    0 -0.0000000000e+00 -0.0000000000e+00 -1.0000000000e+03 1.0000000000e+03 0.0000000000e+00 0.0000e+00 1.0000e+00
  9000005  2    1    2  501    0 +1.5058055283e-06 +7.1316622723e-06 -8.9461254380e+02 1.1053874506e+03 6.4926867498e+02 0.0000e+00 0.0000e+00
       13  1    3    3    0    0 +2.1666488558e+02 -2.3229913591e+02 -3.3334107144e+02 4.6045936965e+02 0.0000000000e+00 0.0000e+00 1.0000e+00
        1  1    3    3  501    0 -2.1666488407e+02 +2.3229914304e+02 -5.6127147237e+02 6.4492808091e+02 0.0000000000e+00 0.0000e+00 1.0000e+00
       21  1    1    2  502  501 -1.5058055434e-06 -7.1316622931e-06 +1.8871822949e-06 7.5292439468e-06 0.0000000000e+00 0.0000e+00 -1.0000e+00
<mgrwt>
<rscale>  1 0.64926867E+03</rscale>
<asrwt>0</asrwt>
<pdfrwt beam="1">  1        1 0.38322793E+00 0.64926867E+03</pdfrwt>
<pdfrwt beam="2">0</pdfrwt>
<totfact> 0.15882015E+00</totfact>
</mgrwt>
</event>
<event>
 6      1 +5.6466785e-02 6.45067800e+02 7.81860800e-03 9.81607800e-02
        1 -1    0    0  502    0 +0.0000000000e+00 +0.0000000000e+00 +1.0402812170e+02 1.0402812170e+02 0.0000000000e+00 0.0000e+00 1.0000e+00
       13 -1    0    0    0    0 -0.0000000000e+00 -0.0000000000e+00 -1.0000000000e+03 1.0000000000e+03 0.0000000000e+00 0.0000e+00 1.0000e+00
  9000005  2    1    2  501    0 +1.1173205792e-05 +2.6423148512e-05 -8.9597187905e+02 1.1040280930e+03 6.4506776550e+02 0.0000e+00 0.0000e+00
       13  1    3    3    0    0 +2.4106067945e+02 -2.7382583268e+01 -8.4246450814e+01 2.5682196463e+02 0.0000000000e+00 0.0000e+00 1.0000e+00
        3  1    3    3  501    0 -2.4106066828e+02 +2.7382609691e+01 -8.1172542824e+02 8.4720612837e+02 0.0000000000e+00 0.0000e+00 1.0000e+00
       21  1    1    2  502  501 -1.1173205790e-05 -2.6423148509e-05 +7.5954645573e-07 2.8698435769e-05 0.0000000000e+00 0.0000e+00 1.0000e+00
<mgrwt>
<rscale>  1 0.64506777E+03</rscale>
<asrwt>0</asrwt>
<pdfrwt beam="1">  1        1 0.37828488E+00 0.64506777E+03</pdfrwt>
<pdfrwt beam="2">0</pdfrwt>
<totfact> 0.16713188E+00</totfact>
</mgrwt>
</event>
<event>
 6      1 +5.6466785e-02 6.54099300e+02 7.81860800e-03 9.79911700e-02
        1 -1    0    0  502    0 +0.0000000000e+00 +0.0000000000e+00 +1.0696523512e+02 1.0696523512e+02 0.0000000000e+00 0.0000e+00 1.0000e+00
       13 -1    0    0    0    0 -0.0000000000e+00 -0.0000000000e+00 -1.0000000000e+03 1.0000000000e+03 0.0000000000e+00 0.0000e+00 1.0000e+00
  9000005  2    1    2  501    0 -5.4455076247e-04 -4.4592104536e-04 -8.9303847378e+02 1.1069614600e+03 6.5409934897e+02 0.0000e+00 0.0000e+00
       13  1    3    3    0    0 +3.2198005964e+02 +4.2725050860e+01 -3.8175029583e+02 5.0122836826e+02 0.0000000000e+00 0.0000e+00 1.0000e+00
        3  1    3    3  501    0 -3.2198060419e+02 -4.2725496781e+01 -5.1128817795e+02 6.0573309177e+02 0.0000000000e+00 0.0000e+00 1.0000e+00
       21  1    1    2  502  501 +5.4455076245e-04 +4.4592104536e-04 +3.7089036446e-03 3.7750956751e-03 0.0000000000e+00 0.0000e+00 -1.0000e+00
<mgrwt>
<rscale>  1 0.65409935E+03</rscale>
<asrwt>0</asrwt>
<pdfrwt beam="1">  1        1 0.38896531E+00 0.65409935E+03</pdfrwt>
<pdfrwt beam="2">0</pdfrwt>
<totfact> 0.14966682E+00</totfact>
</mgrwt>
</event>
<event>
 6      1 +5.6466785e-02 6.40780600e+02 7.81860800e-03 9.82423400e-02
        1 -1    0    0  502    0 +0.0000000000e+00 +0.0000000000e+00 +1.0269003442e+02 1.0269003442e+02 0.0000000000e+00 0.0000e+00 1.0000e+00
       13 -1    0    0    0    0 -0.0000000000e+00 -0.0000000000e+00 -1.0000000000e+03 1.0000000000e+03 0.0000000000e+00 0.0000e+00 1.0000e+00
  9000005  2    1    2  501    0 +1.0662052671e-04 +3.6137297544e-03 -8.9734997226e+02 1.1026498647e+03 6.4078057980e+02 0.0000e+00 0.0000e+00
       13  1    3    3    0    0 +1.9525937407e+02 -1.7011777843e+01 -1.2549181143e+01 1.9640037091e+02 0.0000000000e+00 0.0000e+00 1.0000e+00
        3  1    3    3  501    0 -1.9525926745e+02 +1.7015391573e+01 -8.8480079112e+02 9.0624949381e+02 0.0000000000e+00 0.0000e+00 1.0000e+00
       21  1    1    2  502  501 -1.0662052672e-04 -3.6137297544e-03 +4.0006676655e-02 4.0169697381e-02 0.0000000000e+00 0.0000e+00 1.0000e+00
<mgrwt>
<rscale>  1 0.64078058E+03</rscale>
<asrwt>0</asrwt>
<pdfrwt beam="1">  1        1 0.37341909E+00 0.64078058E+03</pdfrwt>
<pdfrwt beam="2">0</pdfrwt>
<totfact> 0.17572233E+00</totfact>
</mgrwt>
</event>
<event>
 6      1 +5.6466785e-02 6.52348100e+02 7.81860800e-03 9.80238300e-02
        1 -1    0    0  502    0 +0.0000000000e+00 +0.0000000000e+00 +1.0665882877e+02 1.0665882877e+02 0.0000000000e+00 0.0000e+00 1.0000e+00
       13 -1    0    0    0    0 -0.0000000000e+00 -0.0000000000e+00 -1.0000000000e+03 1.0000000000e+03 0.0000000000e+00 0.0000e+00 1.0000e+00
  9000005  2    1    2  501    0 +1.3214751049e-02 +9.8567684727e-03 -8.9361021014e+02 1.1063892852e+03 6.5234809921e+02 0.0000e+00 0.0000e+00
       13  1    3    3    0    0 +3.1400180606e+02 +6.6032328613e+01 -5.4624406149e+02 6.3351399144e+02 0.0000000000e+00 0.0000e+00 1.0000e+00
        3  1    3    3  501    0 -3.1398859131e+02 -6.6022471845e+01 -3.4736614864e+02 4.7287529380e+02 0.0000000000e+00 0.0000e+00 1.0000e+00
       21  1    1    2  502  501 -1.3214751049e-02 -9.8567684727e-03 +2.6903890795e-01 2.6954353920e-01 0.0000000000e+00 0.0000e+00 -1.0000e+00
<mgrwt>
<rscale>  1 0.65234810E+03</rscale>
<asrwt>0</asrwt>
<pdfrwt beam="1">  1        1 0.38785110E+00 0.65234810E+03</pdfrwt>
<pdfrwt beam="2">0</pdfrwt>
<totfact> 0.15142706E+00</totfact>
</mgrwt>
</event>
<event>
 6      1 +5.6466785e-02 6.53880100e+02 7.81860800e-03 9.79952600e-02
        1 -1    0    0  502    0 +0.0000000000e+00 +0.0000000000e+00 +1.0689316620e+02 1.0689316620e+02 0.0000000000e+00 0.0000e+00 1.0000e+00
       13 -1    0    0    0    0 -0.0000000000e+00 -0.0000000000e+00 -1.0000000000e+03 1.0000000000e+03 0.0000000000e+00 0.0000e+00 1.0000e+00
  9000005  2    1    2  501    0 -2.7254952613e-04 +2.5771419439e-04 -8.9311020000e+02 1.1068897792e+03 6.5388007607e+02 0.0000e+00 0.0000e+00
       13  1    3    3    0    0 +6.6780363067e+01 -2.8173378875e+02 -7.0359430865e+02 7.6084065071e+02 0.0000000000e+00 0.0000e+00 1.0000e+00
        3  1    3    3  501    0 -6.6780635616e+01 +2.8173404646e+02 -1.8951589135e+02 3.4604912845e+02 0.0000000000e+00 0.0000e+00 1.0000e+00
       21  1    1    2  502  501 +2.7254952614e-04 -2.5771419442e-04 +3.3662004793e-03 3.3870349152e-03 0.0000000000e+00 0.0000e+00 1.0000e+00
<mgrwt>
<rscale>  1 0.65388008E+03</rscale>
<asrwt>0</asrwt>
<pdfrwt beam="1">  1        1 0.38870324E+00 0.65388008E+03</pdfrwt>
<pdfrwt beam="2">0</pdfrwt>
<totfact> 0.15007373E+00</totfact>
</mgrwt>
</event>
<event>
 6      1 +5.6466785e-02 6.55104300e+02 7.81860800e-03 9.79724800e-02
        1 -1    0    0  502    0 +0.0000000000e+00 +0.0000000000e+00 +1.1185807050e+02 1.1185807050e+02 0.0000000000e+00 0.0000e+00 1.0000e+00
       13 -1    0    0    0    0 -0.0000000000e+00 -0.0000000000e+00 -1.0000000000e+03 1.0000000000e+03 0.0000000000e+00 0.0000e+00 1.0000e+00
  9000005  2    1    2  501    0 -1.6837265550e-01 -1.1986753040e+01 -8.8110928878e+02 1.0979595586e+03 6.5499458238e+02 0.0000e+00 0.0000e+00
       13  1    3    3    0    0 +7.9978644438e+00 -1.7182816972e+02 -9.1778142278e+02 9.3376208198e+02 0.0000000000e+00 0.0000e+00 1.0000e+00
        1  1    3    3  501    0 -8.1662370993e+00 +1.5984141668e+02 +3.6672133997e+01 1.6419747662e+02 0.0000000000e+00 0.0000e+00 1.0000e+00
       21  1    1    2  502  501 +1.6837265550e-01 +1.1986753040e+01 -7.0326407110e+00 1.3898511904e+01 0.0000000000e+00 0.0000e+00 -1.0000e+00
<mgrwt>
<rscale>  1 0.65510428E+03</rscale>
<asrwt>0</asrwt>
<pdfrwt beam="1">  1        1 0.40675748E+00 0.65510428E+03</pdfrwt>
<pdfrwt beam="2">0</pdfrwt>
<totfact> 0.12468455E+00</totfact>
</mgrwt>
</event>
<event>
 6      1 +5.6466785e-02 6.52644700e+02 7.81860800e-03 9.80182900e-02
        1 -1    0    0  502    0 +0.0000000000e+00 +0.0000000000e+00 +1.1237157944e+02 1.1237157944e+02 0.0000000000e+00 0.0000e+00 1.0000e+00
       13 -1    0    0    0    0 -0.0000000000e+00 -0.0000000000e+00 -1.0000000000e+03 1.0000000000e+03 0.0000000000e+00 0.0000e+00 1.0000e+00
  9000005  2    1    2  501    0 +1.6390374794e+00 +6.6539170463e+00 -8.9121982254e+02 1.1046347051e+03 6.5260868722e+02 0.0000e+00 0.0000e+00
       13  1    3    3    0    0 +1.4541643904e+01 -1.1270408412e+02 +7.1629591071e+01 1.3432970000e+02 0.0000000000e+00 0.0000e+00 1.0000e+00
        1  1    3    3  501    0 -1.2902606424e+01 +1.1935800117e+02 -9.6284941361e+02 9.7030500513e+02 0.0000000000e+00 0.0000e+00 1.0000e+00
       21  1    1    2  502  501 -1.6390374794e+00 -6.6539170463e+00 +3.5914019819e+00 7.7368743115e+00 0.0000000000e+00 0.0000e+00 1.0000e+00
<mgrwt>
<rscale>  1 0.65264467E+03</rscale>
<asrwt>0</asrwt>
<pdfrwt beam="1">  1        1 0.40862479E+00 0.65264467E+03</pdfrwt>
<pdfrwt beam="2">0</pdfrwt>
<totfact> 0.12236513E+00</totfact>
</mgrwt>
</event>
<event>
 6      1 +5.6466785e-02 6.57173800e+02 7.81860800e-03 9.79341000e-02
        1 -1    0    0  502    0 +0.0000000000e+00 +0.0000000000e+00 +1.0796943007e+02 1.0796943007e+02 0.0000000000e+00 0.0000e+00 1.0000e+00
       13 -1    0    0    0    0 -0.0000000000e+00 -0.0000000000e+00 -1.0000000000e+03 1.0000000000e+03 0.0000000000e+00 0.0000e+00 1.0000e+00
  9000005  2    1    2  501    0 -2.0110589389e-06 +1.3427910073e-04 -8.9203059688e+02 1.1079692931e+03 6.5717377358e+02 0.0000e+00 0.0000e+00
       13  1    3    3    0    0 -2.4322688240e+02 -2.2050115022e+02 -4.6920804861e+02 5.7265719802e+02 0.0000000000e+00 0.0000e+00 1.0000e+00
        1  1    3    3  501    0 +2.4322688039e+02 +2.2050128450e+02 -4.2282254827e+02 5.3531209507e+02 0.0000000000e+00 0.0000e+00 1.0000e+00
       21  1    1    2  502  501 +2.0110589286e-06 -1.3427910073e-04 +2.6942269713e-05 1.3697009581e-04 0.0000000000e+00 0.0000e+00 1.0000e+00
<mgrwt>
<rscale>  1 0.65717377E+03</rscale>
<asrwt>0</asrwt>
<pdfrwt beam="1">  1        1 0.39261694E+00 0.65717377E+03</pdfrwt>
<pdfrwt beam="2">0</pdfrwt>
<totfact> 0.14410423E+00</totfact>
</mgrwt>
</event>
<event>
 6      1 +5.6466785e-02 6.48163000e+02 7.81860800e-03 9.81023200e-02
        1 -1    0    0  502    0 +0.0000000000e+00 +0.0000000000e+00 +1.0502885170e+02 1.0502885170e+02 0.0000000000e+00 0.0000e+00 1.0000e+00
       13 -1    0    0    0    0 -0.0000000000e+00 -0.0000000000e+00 -1.0000000000e+03 1.0000000000e+03 0.0000000000e+00 0.0000e+00 1.0000e+00
  9000005  2    1    2  501    0 +4.7545414645e-06 -1.0045307477e-05 -8.9497116649e+02 1.1050288304e+03 6.4816304055e+02 0.0000e+00 0.0000e+00
       13  1    3    3    0    0 -1.1221515150e+02 +2.4904662695e+02 -7.4479895455e+02 7.9331074953e+02 0.0000000000e+00 0.0000e+00 1.0000e+00
        3  1    3    3  501    0 +1.1221515626e+02 -2.4904663699e+02 -1.5017221194e+02 3.1171808085e+02 0.0000000000e+00 0.0000e+00 1.0000e+00
       21  1    1    2  502  501 -4.7545414702e-06 +1.0045307475e-05 +1.8194158591e-05 2.1319973586e-05 0.0000000000e+00 0.0000e+00 -1.0000e+00
<mgrwt>
<rscale>  1 0.64816304E+03</rscale>
<asrwt>0</asrwt>
<pdfrwt beam="1">  1        1 0.38192390E+00 0.64816304E+03</pdfrwt>
<pdfrwt beam="2">0</pdfrwt>
<totfact> 0.16097375E+00</totfact>
</mgrwt>
</event>
<event>
 6      1 +5.6466785e-02 6.46780200e+02 7.81860800e-03 9.81284000e-02
        1 -1    0    0  502    0 +0.0000000000e+00 +0.0000000000e+00 +1.0459694367e+02 1.0459694367e+02 0.0000000000e+00 0.0000e+00 1.0000e+00
       13 -1    0    0    0    0 -0.0000000000e+00 -0.0000000000e+00 -1.0000000000e+03 1.0000000000e+03 0.0000000000e+00 0.0000e+00 1.0000e+00
  9000005  2    1    2  501    0 +3.4946861760e-04 -8.9945166198e-04 -8.9541884051e+02 1.1045811300e+03 6.4678015806e+02 0.0000e+00 0.0000e+00
       13  1    3    3    0    0 +1.7419831328e+02 +2.1301329959e+02 -1.5757500146e+02 3.1709556798e+02 0.0000000000e+00 0.0000e+00 1.0000e+00
        3  1    3    3  501    0 -1.7419796381e+02 -2.1301419904e+02 -7.3784383905e+02 7.8748556204e+02 0.0000000000e+00 0.0000e+00 1.0000e+00
       21  1    1    2  502  501 -3.4946861759e-04 +8.9945166198e-04 +1.5784180814e-02 1.5813649344e-02 0.0000000000e+00 0.0000e+00 1.0000e+00
<mgrwt>
<rscale>  1 0.64678016E+03</rscale>
<asrwt>0</asrwt>
<pdfrwt beam="1">  1        1 0.38035332E+00 0.64678016E+03</pdfrwt>
<pdfrwt beam="2">0</pdfrwt>
<totfact> 0.16360599E+00</totfact>
</mgrwt>
</event>
<event>
 6      1 +5.6466785e-02 6.46996300e+02 7.81860800e-03 9.81243200e-02
        1 -1    0    0  502    0 +0.0000000000e+00 +0.0000000000e+00 +1.0465104088e+02 1.0465104088e+02 0.0000000000e+00 0.0000e+00 1.0000e+00
       13 -1    0    0    0    0 -0.0000000000e+00 -0.0000000000e+00 -1.0000000000e+03 1.0000000000e+03 0.0000000000e+00 0.0000e+00 1.0000e+00
  9000005  2    1    2  501    0 +1.3707308142e-06 +4.1692802597e-06 -8.9534895671e+02 1.1046510359e+03 6.4699625715e+02 0.0000e+00 0.0000e+00
       13  1    3    3    0    0 +8.4883331181e+01 +2.8327598764e+02 -2.2375348186e+02 3.7083161372e+02 0.0000000000e+00 0.0000e+00 1.0000e+00
        1  1    3    3  501    0 -8.4883329810e+01 -2.8327598347e+02 -6.7159547485e+02 7.3381942215e+02 0.0000000000e+00 0.0000e+00 1.0000e+00
       21  1    1    2  502  501 -1.3707308277e-06 -4.1692802548e-06 -2.4150371963e-06 5.0094116924e-06 0.0000000000e+00 0.0000e+00 1.0000e+00
<mgrwt>
<rscale>  1 0.64699626E+03</rscale>
<asrwt>0</asrwt>
<pdfrwt beam="1">  1        1 0.38055004E+00 0.64699626E+03</pdfrwt>
<pdfrwt beam="2">0</pdfrwt>
<totfact> 0.16327278E+00</totfact>
</mgrwt>
</event>
<event>
 6      1 +5.6466785e-02 7.24170400e+02 7.81860800e-03 9.67676800e-02
        1 -1    0    0  502    0 +0.0000000000e+00 +0.0000000000e+00 +1.3111330804e+02 1.3111330804e+02 0.0000000000e+00 0.0000e+00 1.0000e+00
       13 -1    0    0    0    0 -0.0000000000e+00 -0.0000000000e+00 -1.0000000000e+03 1.0000000000e+03 0.0000000000e+00 0.0000e+00 1.0000e+00
  9000005  2    1    2  501    0 +4.2819516235e-03 +3.7306235355e-03 -8.6889306968e+02 1.1311047683e+03 7.2417044278e+02 0.0000e+00 0.0000e+00
       13  1    3    3    0    0 +2.8896560794e+02 +1.7226926638e+01 -9.4718243933e+01 3.0458075335e+02 0.0000000000e+00 0.0000e+00 1.0000e+00
        1  1    3    3  501    0 -2.8896132599e+02 -1.7223196014e+01 -7.7417482575e+02 8.2652401491e+02 0.0000000000e+00 0.0000e+00 1.0000e+00
       21  1    1    2  502  501 -4.2819516235e-03 -3.7306235355e-03 +6.3777186085e-03 8.5397866670e-03 0.0000000000e+00 0.0000e+00 1.0000e+00
<mgrwt>
<rscale>  1 0.72417044E+03</rscale>
<asrwt>0</asrwt>
<pdfrwt beam="1">  1        1 0.47677667E+00 0.72417044E+03</pdfrwt>
<pdfrwt beam="2">0</pdfrwt>
<totfact> 0.58715979E-01</totfact>
</mgrwt>
</event>
<event>
 6      1 +5.6466785e-02 6.92252400e+02 7.81860800e-03 9.73057400e-02
        1 -1    0    0  502    0 +0.0000000000e+00 +0.0000000000e+00 +1.2316759716e+02 1.2316759716e+02 0.0000000000e+00 0.0000e+00 1.0000e+00
       13 -1    0    0    0    0 -0.0000000000e+00 -0.0000000000e+00 -1.0000000000e+03 1.0000000000e+03 0.0000000000e+00 0.0000e+00 1.0000e+00
  9000005  2    1    2  501    0 -1.5171429864e+00 +3.4754847526e-01 -8.7999376297e+02 1.1196438618e+03 6.9225062800e+02 0.0000e+00 0.0000e+00
       13  1    3    3    0    0 +3.4497417950e+02 +3.2044311054e+00 -4.1280667005e+02 5.3798401439e+02 0.0000000000e+00 0.0000e+00 1.0000e+00
        3  1    3    3  501    0 -3.4649132249e+02 -2.8568826302e+00 -4.6718709292e+02 5.8165984744e+02 0.0000000000e+00 0.0000e+00 1.0000e+00
       21  1    1    2  502  501 +1.5171429864e+00 -3.4754847526e-01 +3.1613601287e+00 3.5237353260e+00 0.0000000000e+00 0.0000e+00 -1.0000e+00
<mgrwt>
<rscale>  1 0.69225238E+03</rscale>
<asrwt>0</asrwt>
<pdfrwt beam="1">  1        1 0.44788312E+00 0.69225238E+03</pdfrwt>
<pdfrwt beam="2">0</pdfrwt>
<totfact> 0.80558410E-01</totfact>
</mgrwt>
</event>
<event>
 6      1 +5.6466785e-02 6.58579700e+02 7.81860800e-03 9.79081200e-02
        1 -1    0    0  502    0 +0.0000000000e+00 +0.0000000000e+00 +1.0843185891e+02 1.0843185891e+02 0.0000000000e+00 0.0000e+00 1.0000e+00
       13 -1    0    0    0    0 -0.0000000000e+00 -0.0000000000e+00 -1.0000000000e+03 1.0000000000e+03 0.0000000000e+00 0.0000e+00 1.0000e+00
  9000005  2    1    2  501    0 -2.5896729227e-05 +1.0378790989e-05 -8.9156817937e+02 1.1084318115e+03 6.5857973121e+02 0.0000e+00 0.0000e+00
       13  1    3    3    0    0 -1.3114586404e+02 +2.9586182343e+02 -5.4813827636e+02 6.3654459878e+02 0.0000000000e+00 0.0000e+00 1.0000e+00
        1  1    3    3  501    0 +1.3114583815e+02 -2.9586181305e+02 -3.4342990301e+02 4.7188721276e+02 0.0000000000e+00 0.0000e+00 1.0000e+00
       21  1    1    2  502  501 +2.5896729223e-05 -1.0378790939e-05 +3.8284081127e-05 4.7371201732e-05 0.0000000000e+00 0.0000e+00 -1.0000e+00
<mgrwt>
<rscale>  1 0.65857973E+03</rscale>
<asrwt>0</asrwt>
<pdfrwt beam="1">  1        1 0.39429850E+00 0.65857973E+03</pdfrwt>
<pdfrwt beam="2">0</pdfrwt>
<totfact> 0.14160933E+00</totfact>
</mgrwt>
</event>
<event>
 6      1 +5.6466785e-02 6.56810000e+02 7.81860800e-03 9.79408400e-02
        1 -1    0    0  502    0 +0.0000000000e+00 +0.0000000000e+00 +1.0866351006e+02 1.0866351006e+02 0.0000000000e+00 0.0000e+00 1.0000e+00
       13 -1    0    0    0    0 -0.0000000000e+00 -0.0000000000e+00 -1.0000000000e+03 1.0000000000e+03 0.0000000000e+00 0.0000e+00 1.0000e+00
  9000005  2    1    2  501    0 +1.1266714017e-02 +1.8541058745e-03 -8.9215010765e+02 1.1078498122e+03 6.5681001192e+02 0.0000e+00 0.0000e+00
       13  1    3    3    0    0 +1.0879616564e+02 +2.1039533493e+01 -9.6751978994e+02 9.7384486010e+02 0.0000000000e+00 0.0000e+00 1.0000e+00
        3  1    3    3  501    0 -1.0878489892e+02 -2.1037679387e+01 +7.5369682288e+01 1.3400495213e+02 0.0000000000e+00 0.0000e+00 1.0000e+00
       21  1    1    2  502  501 -1.1266714017e-02 -1.8541058745e-03 +8.1361770471e-01 8.1369782228e-01 0.0000000000e+00 0.0000e+00 1.0000e+00
<mgrwt>
<rscale>  1 0.65681001E+03</rscale>
<asrwt>0</asrwt>
<pdfrwt beam="1">  1        1 0.39514087E+00 0.65681001E+03</pdfrwt>
<pdfrwt beam="2">0</pdfrwt>
<totfact> 0.14043974E+00</totfact>
</mgrwt>
</event>
<event>
 6      1 +5.6466785e-02 6.50193900e+02 7.81860800e-03 9.80641500e-02
        1 -1    0    0  502    0 +0.0000000000e+00 +0.0000000000e+00 +1.0568815597e+02 1.0568815597e+02 0.0000000000e+00 0.0000e+00 1.0000e+00
       13 -1    0    0    0    0 -0.0000000000e+00 -0.0000000000e+00 -1.0000000000e+03 1.0000000000e+03 0.0000000000e+00 0.0000e+00 1.0000e+00
  9000005  2    1    2  501    0 -2.2320871835e-05 -3.4538361462e-05 -8.9431195685e+02 1.1056880359e+03 6.5019393763e+02 0.0000e+00 0.0000e+00
       13  1    3    3    0    0 +3.0949301866e+02 -6.7615715118e+01 -5.7131042257e+02 6.5326366229e+02 0.0000000000e+00 0.0000e+00 1.0000e+00
        1  1    3    3  501    0 -3.0949304098e+02 +6.7615680579e+01 -3.2300153428e+02 4.5242437360e+02 0.0000000000e+00 0.0000e+00 1.0000e+00
       21  1    1    2  502  501 +2.2320871807e-05 +3.4538361461e-05 +1.1281905906e-04 1.2008022242e-04 0.0000000000e+00 0.0000e+00 1.0000e+00
<mgrwt>
<rscale>  1 0.65019394E+03</rscale>
<asrwt>0</asrwt>
<pdfrwt beam="1">  1        1 0.38432138E+00 0.65019394E+03</pdfrwt>
<pdfrwt beam="2">0</pdfrwt>
<totfact> 0.15703551E+00</totfact>
</mgrwt>
</event>
<event>
 6      1 +5.6466785e-02 6.44453900e+02 7.81860800e-03 9.81724200e-02
        1 -1    0    0  502    0 +0.0000000000e+00 +0.0000000000e+00 +1.0387620602e+02 1.0387620602e+02 0.0000000000e+00 0.0000e+00 1.0000e+00
       13 -1    0    0    0    0 -0.0000000000e+00 -0.0000000000e+00 -1.0000000000e+03 1.0000000000e+03 0.0000000000e+00 0.0000e+00 1.0000e+00
  9000005  2    1    2  501    0 +4.2353710377e-03 +1.7426677089e-03 -8.9616967174e+02 1.1038301002e+03 6.4445388477e+02 0.0000e+00 0.0000e+00
       13  1    3    3    0    0 -1.2855072588e+02 -1.1059016545e+02 +2.1221710026e+01 1.7089714683e+02 0.0000000000e+00 0.0000e+00 1.0000e+00
        3  1    3    3  501    0 +1.2855496125e+02 +1.1059190811e+02 -9.1739138177e+02 9.3293295340e+02 0.0000000000e+00 0.0000e+00 1.0000e+00
       21  1    1    2  502  501 -4.2353710377e-03 -1.7426677089e-03 +4.5877757133e-02 4.6105789855e-02 0.0000000000e+00 0.0000e+00 1.0000e+00
<mgrwt>
<rscale>  1 0.64445388E+03</rscale>
<asrwt>0</asrwt>
<pdfrwt beam="1">  1        1 0.37773245E+00 0.64445388E+03</pdfrwt>
<pdfrwt beam="2">0</pdfrwt>
<totfact> 0.16809054E+00</totfact>
</mgrwt>
</event>
<event>
 6      1 +5.6466785e-02 6.58425100e+02 7.81860800e-03 9.79109700e-02
        1 -1    0    0  502    0 +0.0000000000e+00 +0.0000000000e+00 +1.0844473191e+02 1.0844473191e+02 0.0000000000e+00 0.0000e+00 1.0000e+00
       13 -1    0    0    0    0 -0.0000000000e+00 -0.0000000000e+00 -1.0000000000e+03 1.0000000000e+03 0.0000000000e+00 0.0000e+00 1.0000e+00
  9000005  2    1    2  501    0 -4.3314636043e-03 -8.6130003922e-03 -8.9161868935e+02 1.1083805821e+03 6.5842511146e+02 0.0000e+00 0.0000e+00
       13  1    3    3    0    0 +3.7221500361e+01 +3.0912452417e+02 -6.2581259993e+02 6.9898842749e+02 0.0000000000e+00 0.0000e+00 1.0000e+00
        1  1    3    3  501    0 -3.7225831824e+01 -3.0913313717e+02 -2.6580608942e+02 4.0939215457e+02 0.0000000000e+00 0.0000e+00 1.0000e+00
       21  1    1    2  502  501 +4.3314636043e-03 +8.6130003922e-03 +6.3421262112e-02 6.4149838975e-02 0.0000000000e+00 0.0000e+00 1.0000e+00
<mgrwt>
<rscale>  1 0.65842511E+03</rscale>
<asrwt>0</asrwt>
<pdfrwt beam="1">  1        1 0.39434531E+00 0.65842511E+03</pdfrwt>
<pdfrwt beam="2">0</pdfrwt>
<totfact> 0.14154557E+00</totfact>
</mgrwt>
</event>
<event>
 6      1 +5.6466785e-02 6.41238100e+02 7.81860800e-03 9.82336100e-02
        1 -1    0    0  502    0 +0.0000000000e+00 +0.0000000000e+00 +1.0291294850e+02 1.0291294850e+02 0.0000000000e+00 0.0000e+00 1.0000e+00
       13 -1    0    0    0    0 -0.0000000000e+00 -0.0000000000e+00 -1.0000000000e+03 1.0000000000e+03 0.0000000000e+00 0.0000e+00 1.0000e+00
  9000005  2    1    2  501    0 +3.2747905326e-02 +1.6164954629e-01 -8.9713525317e+02 1.1027411160e+03 6.4123808313e+02 0.0000e+00 0.0000e+00
       13  1    3    3    0    0 -1.2192602177e+02 +3.5637111087e+01 -9.5482669614e+02 9.6323931509e+02 0.0000000000e+00 0.0000e+00 1.0000e+00
        1  1    3    3  501    0 +1.2195876967e+02 -3.5475461541e+01 +5.7691442963e+01 1.3950180093e+02 0.0000000000e+00 0.0000e+00 1.0000e+00
       21  1    1    2  502  501 -3.2747905326e-02 -1.6164954629e-01 +4.8201670440e-02 1.7183248282e-01 0.0000000000e+00 0.0000e+00 -1.0000e+00
<mgrwt>
<rscale>  1 0.64123810E+03</rscale>
<asrwt>0</asrwt>
<pdfrwt beam="1">  1        1 0.37422969E+00 0.64123810E+03</pdfrwt>
<pdfrwt beam="2">0</pdfrwt>
<totfact> 0.17427074E+00</totfact>
</mgrwt>
</event>
<event>
 6      1 +5.6466785e-02 6.49895600e+02 7.81860800e-03 9.80697500e-02
        1 -1    0    0  502    0 +0.0000000000e+00 +0.0000000000e+00 +1.0559204879e+02 1.0559204879e+02 0.0000000000e+00 0.0000e+00 1.0000e+00
       13 -1    0    0    0    0 -0.0000000000e+00 -0.0000000000e+00 -1.0000000000e+03 1.0000000000e+03 0.0000000000e+00 0.0000e+00 1.0000e+00
  9000005  2    1    2  501    0 -8.3489117486e-05 -9.8246443812e-05 -8.9440891166e+02 1.1055910797e+03 6.4989563341e+02 0.0000e+00 0.0000e+00
       13  1    3    3    0    0 +1.3809907646e+02 -5.3874018776e+01 -9.3912957322e+02 9.5075660404e+02 0.0000000000e+00 0.0000e+00 1.0000e+00
        1  1    3    3  501    0 -1.3809915995e+02 +5.3873920530e+01 +4.4720661568e+01 1.5483447569e+02 0.0000000000e+00 0.0000e+00 1.0000e+00
       21  1    1    2  502  501 +8.3489117485e-05 +9.8246443811e-05 +9.6044876015e-04 9.6906378394e-04 0.0000000000e+00 0.0000e+00 -1.0000e+00
<mgrwt>
<rscale>  1 0.64989563E+03</rscale>
<asrwt>0</asrwt>
<pdfrwt beam="1">  1        1 0.38397190E+00 0.64989563E+03</pdfrwt>
<pdfrwt beam="2">0</pdfrwt>
<totfact> 0.15760390E+00</totfact>
</mgrwt>
</event>
<event>
 6      1 +5.6466785e-02 6.56813900e+02 7.81860800e-03 9.79407700e-02
        1 -1    0    0  502    0 +0.0000000000e+00 +0.0000000000e+00 +1.4043951250e+02 1.4043951250e+02 0.0000000000e+00 0.0000e+00 1.0000e+00
       13 -1    0    0    0    0 -0.0000000000e+00 -0.0000000000e+00 -1.0000000000e+03 1.0000000000e+03 0.0000000000e+00 0.0000e+00 1.0000e+00
  9000005  2    1    2  501    0 -6.8140297257e+00 -1.7597408340e+01 -8.8909367342e+02 1.1053922751e+03 6.5654277993e+02 0.0000e+00 0.0000e+00
       13  1    3    3    0    0 +1.4124995731e+02 +2.5181329334e+02 -6.6498176667e+02 7.2495671261e+02 0.0000000000e+00 0.0000e+00 1.0000e+00
        3  1    3    3  501    0 -1.4806398704e+02 -2.6941070168e+02 -2.2411190675e+02 3.8043556246e+02 0.0000000000e+00 0.0000e+00 1.0000e+00
       21  1    1    2  502  501 +6.8140297257e+00 +1.7597408340e+01 +2.9533185923e+01 3.5047237440e+01 0.0000000000e+00 0.0000e+00 -1.0000e+00
<mgrwt>
<rscale>  1 0.65681392E+03</rscale>
<asrwt>0</asrwt>
<pdfrwt beam="1">  1        1 0.51069021E+00 0.65681392E+03</pdfrwt>
<pdfrwt beam="2">0</pdfrwt>
<totfact> 0.40984593E-01</totfact>
</mgrwt>
</event>
<event>
 6      1 +5.6466785e-02 6.50037100e+02 7.81860800e-03 9.80671000e-02
        1 -1    0    0  502    0 +0.0000000000e+00 +0.0000000000e+00 +1.0651869337e+02 1.0651869337e+02 0.0000000000e+00 0.0000e+00 1.0000e+00
       13 -1    0    0    0    0 -0.0000000000e+00 -0.0000000000e+00 -1.0000000000e+03 1.0000000000e+03 0.0000000000e+00 0.0000e+00 1.0000e+00
  9000005  2    1    2  501    0 +1.0247090567e-03 +3.0389722126e-02 -8.9436264986e+02 1.1056368258e+03 6.5003710670e+02 0.0000e+00 0.0000e+00
       13  1    3    3    0    0 -9.4876893877e+01 -4.2050410553e+01 -9.7105529649e+02 9.7658499418e+02 0.0000000000e+00 0.0000e+00 1.0000e+00
        1  1    3    3  501    0 +9.4877918586e+01 +4.2080800275e+01 +7.6692646629e+01 1.2905183158e+02 0.0000000000e+00 0.0000e+00 1.0000e+00
       21  1    1    2  502  501 -1.0247090567e-03 -3.0389722126e-02 +8.8134323315e-01 8.8186760903e-01 0.0000000000e+00 0.0000e+00 1.0000e+00
<mgrwt>
<rscale>  1 0.65003711E+03</rscale>
<asrwt>0</asrwt>
<pdfrwt beam="1">  1        1 0.38734152E+00 0.65003711E+03</pdfrwt>
<pdfrwt beam="2">0</pdfrwt>
<totfact> 0.15228127E+00</totfact>
</mgrwt>
</event>
<event>
 6      1 +5.6466785e-02 6.50404200e+02 7.81860800e-03 9.80602100e-02
        1 -1    0    0  502    0 +0.0000000000e+00 +0.0000000000e+00 +1.0575640500e+02 1.0575640500e+02 0.0000000000e+00 0.0000e+00 1.0000e+00
       13 -1    0    0    0    0 -0.0000000000e+00 -0.0000000000e+00 -1.0000000000e+03 1.0000000000e+03 0.0000000000e+00 0.0000e+00 1.0000e+00
  9000005  2    1    2  501    0 -1.5710015219e-05 +1.6862374963e-05 -8.9424359625e+02 1.1057563819e+03 6.5040415645e+02 0.0000e+00 0.0000e+00
       13  1    3    3    0    0 -2.1056980908e+02 -2.4782143008e+02 -4.4904908105e+02 5.5443681596e+02 0.0000000000e+00 0.0000e+00 1.0000e+00
        3  1    3    3  501    0 +2.1056979337e+02 +2.4782144694e+02 -4.4519451520e+02 5.5131956596e+02 0.0000000000e+00 0.0000e+00 1.0000e+00
       21  1    1    2  502  501 +1.5710015202e-05 -1.6862374985e-05 +1.2503397511e-06 2.3080459642e-05 0.0000000000e+00 0.0000e+00 -1.0000e+00
<mgrwt>
<rscale>  1 0.65040416E+03</rscale>
<asrwt>0</asrwt>
<pdfrwt beam="1">  1        1 0.38456956E+00 0.65040416E+03</pdfrwt>
<pdfrwt beam="2">0</pdfrwt>
<totfact> 0.15663311E+00</totfact>
</mgrwt>
</event>
<event>
 6      1 +5.6466785e-02 6.46483600e+02 7.81860800e-03 9.81340000e-02
        1 -1    0    0  502    0 +0.0000000000e+00 +0.0000000000e+00 +1.0531496717e+02 1.0531496717e+02 0.0000000000e+00 0.0000e+00 1.0000e+00
       13 -1    0    0    0    0 -0.0000000000e+00 -0.0000000000e+00 -1.0000000000e+03 1.0000000000e+03 0.0000000000e+00 0.0000e+00 1.0000e+00
  9000005  2    1    2  501    0 -1.4340937523e-02 +8.0104195055e-03 -8.9551464549e+02 1.1044851919e+03 6.4648361043e+02 0.0000e+00 0.0000e+00
       13  1    3    3    0    0 +2.8665147303e+02 -1.4731984704e+02 -4.0562759353e+02 5.1807909527e+02 0.0000000000e+00 0.0000e+00 1.0000e+00
        1  1    3    3  501    0 -2.8666581397e+02 +1.4732785746e+02 -4.8988705196e+02 5.8640609663e+02 0.0000000000e+00 0.0000e+00 1.0000e+00
       21  1    1    2  502  501 +1.4340937523e-02 -8.0104195055e-03 +8.2961266279e-01 8.2977527052e-01 0.0000000000e+00 0.0000e+00 -1.0000e+00
<mgrwt>
<rscale>  1 0.64648361E+03</rscale>
<asrwt>0</asrwt>
<pdfrwt beam="1">  1        1 0.38296432E+00 0.64648361E+03</pdfrwt>
<pdfrwt beam="2">0</pdfrwt>
<totfact> 0.15932857E+00</totfact>
</mgrwt>
</event>
<event>
 6      1 +5.6466785e-02 6.55331100e+02 7.81860800e-03 9.79682700e-02
        1 -1    0    0  502    0 +0.0000000000e+00 +0.0000000000e+00 +1.0738445170e+02 1.0738445170e+02 0.0000000000e+00 0.0000e+00 1.0000e+00
       13 -1    0    0    0    0 -0.0000000000e+00 -0.0000000000e+00 -1.0000000000e+03 1.0000000000e+03 0.0000000000e+00 0.0000e+00 1.0000e+00
  9000005  2    1    2  501    0 +2.7121239519e-03 -2.4372033541e-03 -8.9263508443e+02 1.1073645782e+03 6.5533114919e+02 0.0000e+00 0.0000e+00
       13  1    3    3    0    0 -1.3217135198e+01 +2.8738432708e+02 -7.1134500293e+02 7.6731750750e+02 0.0000000000e+00 0.0000e+00 1.0000e+00
        1  1    3    3  501    0 +1.3219847322e+01 -2.8738676428e+02 -1.8129008149e+02 3.4004707071e+02 0.0000000000e+00 0.0000e+00 1.0000e+00
       21  1    1    2  502  501 -2.7121239519e-03 +2.4372033541e-03 +1.9536129698e-02 1.9873498436e-02 0.0000000000e+00 0.0000e+00 1.0000e+00
<mgrwt>
<rscale>  1 0.65533115E+03</rscale>
<asrwt>0</asrwt>
<pdfrwt beam="1">  1        1 0.39048974E+00 0.65533115E+03</pdfrwt>
<pdfrwt beam="2">0</pdfrwt>
<totfact> 0.14732174E+00</totfact>
</mgrwt>
</event>
<event>
 6      1 +5.6466785e-02 7.02760900e+02 7.81860800e-03 9.71252200e-02
        1 -1    0    0  502    0 +0.0000000000e+00 +0.0000000000e+00 +1.2346830275e+02 1.2346830275e+02 0.0000000000e+00 0.0000e+00 1.0000e+00
       13 -1    0    0    0    0 -0.0000000000e+00 -0.0000000000e+00 -1.0000000000e+03 1.0000000000e+03 0.0000000000e+00 0.0000e+00 1.0000e+00
  9000005  2    1    2  501    0 +4.6543520966e-06 +5.0795954962e-05 -8.7653177679e+02 1.1234682083e+03 7.0276088340e+02 0.0000e+00 0.0000e+00
       13  1    3    3    0    0 +3.0309653133e+02 +1.4760335042e+02 -5.9663685057e+02 6.8529540186e+02 0.0000000000e+00 0.0000e+00 1.0000e+00
        1  1    3    3  501    0 -3.0309652667e+02 -1.4760329963e+02 -2.7989492622e+02 4.3817280640e+02 0.0000000000e+00 0.0000e+00 1.0000e+00
       21  1    1    2  502  501 -4.6543520862e-06 -5.0795954969e-05 +7.9540140537e-05 9.4490877820e-05 0.0000000000e+00 0.0000e+00 -1.0000e+00
<mgrwt>
<rscale>  1 0.70276088E+03</rscale>
<asrwt>0</asrwt>
<pdfrwt beam="1">  1        1 0.44897659E+00 0.70276088E+03</pdfrwt>
<pdfrwt beam="2">0</pdfrwt>
<totfact> 0.79465789E-01</totfact>
</mgrwt>
</event>
<event>
 6      1 +5.6466785e-02 6.50524800e+02 7.81860800e-03 9.80579500e-02
        1 -1    0    0  502    0 +0.0000000000e+00 +0.0000000000e+00 +1.0583571170e+02 1.0583571170e+02 0.0000000000e+00 0.0000e+00 1.0000e+00
       13 -1    0    0    0    0 -0.0000000000e+00 -0.0000000000e+00 -1.0000000000e+03 1.0000000000e+03 0.0000000000e+00 0.0000e+00 1.0000e+00
  9000005  2    1    2  501    0 +1.7855838064e-02 +1.5599927394e-02 -8.9420044817e+02 1.1057924714e+03 6.5052482482e+02 0.0000e+00 0.0000e+00
       13  1    3    3    0    0 +8.1506118547e+01 -2.3224179063e+02 -8.5647425960e+01 2.6060502345e+02 0.0000000000e+00 0.0000e+00 1.0000e+00
        3  1    3    3  501    0 -8.1488262709e+01 +2.3225739056e+02 -8.0855302221e+02 8.4518744794e+02 0.0000000000e+00 0.0000e+00 1.0000e+00
       21  1    1    2  502  501 -1.7855838064e-02 -1.5599927394e-02 +3.6159866309e-02 4.3240312431e-02 0.0000000000e+00 0.0000e+00 -1.0000e+00
<mgrwt>
<rscale>  1 0.65052483E+03</rscale>
<asrwt>0</asrwt>
<pdfrwt beam="1">  1        1 0.38485795E+00 0.65052483E+03</pdfrwt>
<pdfrwt beam="2">0</pdfrwt>
<totfact> 0.15617031E+00</totfact>
</mgrwt>
</event>
<event>
 6      1 +5.6466785e-02 6.55735800e+02 7.81860800e-03 9.79607500e-02
        1 -1    0    0  502    0 +0.0000000000e+00 +0.0000000000e+00 +1.0749996443e+02 1.0749996443e+02 0.0000000000e+00 0.0000e+00 1.0000e+00
       13 -1    0    0    0    0 -0.0000000000e+00 -0.0000000000e+00 -1.0000000000e+03 1.0000000000e+03 0.0000000000e+00 0.0000e+00 1.0000e+00
  9000005  2    1    2  501    0 -2.0226005837e-04 -1.0725904206e-03 -8.9250250002e+02 1.1074972691e+03 6.5573583744e+02 0.0000e+00 0.0000e+00
       13  1    3    3    0    0 -1.1738404987e+02 -2.3322851295e+02 -1.1133452575e+02 2.8384842970e+02 0.0000000000e+00 0.0000e+00 1.0000e+00
        1  1    3    3  501    0 +1.1738384761e+02 +2.3322744036e+02 -7.8116797427e+02 8.2364883939e+02 0.0000000000e+00 0.0000e+00 1.0000e+00
       21  1    1    2  502  501 +2.0226005838e-04 +1.0725904206e-03 +2.4644456412e-03 2.6953388767e-03 0.0000000000e+00 0.0000e+00 1.0000e+00
<mgrwt>
<rscale>  1 0.65573584E+03</rscale>
<asrwt>0</asrwt>
<pdfrwt beam="1">  1        1 0.39090979E+00 0.65573584E+03</pdfrwt>
<pdfrwt beam="2">0</pdfrwt>
<totfact> 0.14667993E+00</totfact>
</mgrwt>
</event>
<event>
 6      1 +5.6466785e-02 6.52750900e+02 7.81860800e-03 9.80163100e-02
        1 -1    0    0  502    0 +0.0000000000e+00 +0.0000000000e+00 +1.0654845733e+02 1.0654845733e+02 0.0000000000e+00 0.0000e+00 1.0000e+00
       13 -1    0    0    0    0 -0.0000000000e+00 -0.0000000000e+00 -1.0000000000e+03 1.0000000000e+03 0.0000000000e+00 0.0000e+00 1.0000e+00
  9000005  2    1    2  501    0 -2.6530766260e-04 -2.7788908338e-04 -8.9347907568e+02 1.1065209216e+03 6.5275086469e+02 0.0000e+00 0.0000e+00
       13  1    3    3    0    0 +9.1519151026e+01 -1.8138157808e+02 -8.7974053739e+02 9.0289448165e+02 0.0000000000e+00 0.0000e+00 1.0000e+00
        3  1    3    3  501    0 -9.1519416333e+01 +1.8138130020e+02 -1.3738538288e+01 2.0362643998e+02 0.0000000000e+00 0.0000e+00 1.0000e+00
       21  1    1    2  502  501 +2.6530766261e-04 +2.7788908339e-04 +2.7533013340e-02 2.7535693819e-02 0.0000000000e+00 0.0000e+00 -1.0000e+00
<mgrwt>
<rscale>  1 0.65275086E+03</rscale>
<asrwt>0</asrwt>
<pdfrwt beam="1">  1        1 0.38744975E+00 0.65275086E+03</pdfrwt>
<pdfrwt beam="2">0</pdfrwt>
<totfact> 0.15203683E+00</totfact>
</mgrwt>
</event>
<event>
 6      1 +5.6466785e-02 6.90979100e+02 7.81860800e-03 9.73278500e-02
        1 -1    0    0  502    0 +0.0000000000e+00 +0.0000000000e+00 +1.2195549829e+02 1.2195549829e+02 0.0000000000e+00 0.0000e+00 1.0000e+00
       13 -1    0    0    0    0 -0.0000000000e+00 -0.0000000000e+00 -1.0000000000e+03 1.0000000000e+03 0.0000000000e+00 0.0000e+00 1.0000e+00
  9000005  2    1    2  501    0 -2.6048957979e-01 +7.3335959804e-01 -8.8057139802e+02 1.1193114718e+03 6.9097871038e+02 0.0000e+00 0.0000e+00
       13  1    3    3    0    0 +6.4117205266e+01 +1.2390344029e+02 +7.1765842505e+01 1.5688663002e+02 0.0000000000e+00 0.0000e+00 1.0000e+00
        3  1    3    3  501    0 -6.4377694846e+01 -1.2317008069e+02 -9.5233724053e+02 9.6242484178e+02 0.0000000000e+00 0.0000e+00 1.0000e+00
       21  1    1    2  502  501 +2.6048957979e-01 -7.3335959804e-01 +2.5268963138e+00 2.6440264941e+00 0.0000000000e+00 0.0000e+00 1.0000e+00
<mgrwt>
<rscale>  1 0.69097915E+03</rscale>
<asrwt>0</asrwt>
<pdfrwt beam="1">  1        1 0.44347547E+00 0.69097915E+03</pdfrwt>
<pdfrwt beam="2">0</pdfrwt>
<totfact> 0.84426473E-01</totfact>
</mgrwt>
</event>
<event>
 6      1 +5.6466785e-02 6.40044400e+02 7.81860800e-03 9.82564200e-02
        1 -1    0    0  502    0 +0.0000000000e+00 +0.0000000000e+00 +1.0245852968e+02 1.0245852968e+02 0.0000000000e+00 0.0000e+00 1.0000e+00
       13 -1    0    0    0    0 -0.0000000000e+00 -0.0000000000e+00 -1.0000000000e+03 1.0000000000e+03 0.0000000000e+00 0.0000e+00 1.0000e+00
  9000005  2    1    2  501    0 -5.0890334732e-03 +3.2484049000e-03 -8.9758557272e+02 1.1024140159e+03 6.4004437514e+02 0.0000e+00 0.0000e+00
       13  1    3    3    0    0 -2.9126046485e+02 +8.0488542097e+00 -2.2082477595e+02 3.6559680539e+02 0.0000000000e+00 0.0000e+00 1.0000e+00
        3  1    3    3  501    0 +2.9125537582e+02 -8.0456058048e+00 -6.7676079677e+02 7.3681721055e+02 0.0000000000e+00 0.0000e+00 1.0000e+00
       21  1    1    2  502  501 +5.0890334731e-03 -3.2484049000e-03 +4.4102409487e-02 4.4513738538e-02 0.0000000000e+00 0.0000e+00 -1.0000e+00
<mgrwt>
<rscale>  1 0.64004438E+03</rscale>
<asrwt>0</asrwt>
<pdfrwt beam="1">  1        1 0.37257726E+00 0.64004438E+03</pdfrwt>
<pdfrwt beam="2">0</pdfrwt>
<totfact> 0.17725053E+00</totfact>
</mgrwt>
</event>
<event>
 6      1 +5.6466785e-02 5.89920900e+02 7.81860800e-03 9.92654000e-02
        1 -1    0    0  502    0 +0.0000000000e+00 +0.0000000000e+00 +8.7075872254e+01 8.7075872254e+01 0.0000000000e+00 0.0000e+00 1.0000e+00
       13 -1    0    0    0    0 -0.0000000000e+00 -0.0000000000e+00 -1.0000000000e+03 1.0000000000e+03 0.0000000000e+00 0.0000e+00 1.0000e+00
  9000005  2    1    2  501    0 -4.7361637077e-03 +6.9391846146e-04 -9.1299824770e+02 1.0870015979e+03 5.8992090443e+02 0.0000e+00 0.0000e+00
       13  1    3    3    0    0 -2.7170333057e+02 +1.3005808073e+00 -6.6803176400e+02 7.2117323097e+02 0.0000000000e+00 0.0000e+00 1.0000e+00
        1  1    3    3  501    0 +2.7169859441e+02 -1.2998868889e+00 -2.4496648371e+02 3.6582836693e+02 0.0000000000e+00 0.0000e+00 1.0000e+00
       21  1    1    2  502  501 +4.7361637077e-03 -6.9391846146e-04 +7.4119957019e-02 7.4274361647e-02 0.0000000000e+00 0.0000e+00 -1.0000e+00
<mgrwt>
<rscale>  1 0.58992090E+03</rscale>
<asrwt>0</asrwt>
<pdfrwt beam="1">  1        1 0.31664020E+00 0.58992090E+03</pdfrwt>
<pdfrwt beam="2">0</pdfrwt>
<totfact> 0.31329234E+00</totfact>
</mgrwt>
</event>
<event>
 6      1 +5.6466785e-02 6.56946900e+02 7.81860800e-03 9.79383100e-02
        1 -1    0    0  502    0 +0.0000000000e+00 +0.0000000000e+00 +1.0789657252e+02 1.0789657252e+02 0.0000000000e+00 0.0000e+00 1.0000e+00
       13 -1    0    0    0    0 -0.0000000000e+00 -0.0000000000e+00 -1.0000000000e+03 1.0000000000e+03 0.0000000000e+00 0.0000e+00 1.0000e+00
  9000005  2    1    2  501    0 -9.0176398942e-05 +9.6597366422e-05 -8.9210520338e+02 1.1078947917e+03 6.5694685904e+02 0.0000e+00 0.0000e+00
       13  1    3    3    0    0 -2.9404988289e+02 -1.0727529588e+02 -6.1403228469e+02 6.8920894464e+02 0.0000000000e+00 0.0000e+00 1.0000e+00
        1  1    3    3  501    0 +2.9404979271e+02 +1.0727539248e+02 -2.7807291870e+02 4.1868584707e+02 0.0000000000e+00 0.0000e+00 1.0000e+00
       21  1    1    2  502  501 +9.0176398944e-05 -9.6597366425e-05 +1.7758992683e-03 1.7808090985e-03 0.0000000000e+00 0.0000e+00 1.0000e+00
<mgrwt>
<rscale>  1 0.65694686E+03</rscale>
<asrwt>0</asrwt>
<pdfrwt beam="1">  1        1 0.39235200E+00 0.65694686E+03</pdfrwt>
<pdfrwt beam="2">0</pdfrwt>
<totfact> 0.14450123E+00</totfact>
</mgrwt>
</event>
<event>
 6      1 +5.6466785e-02 6.55956100e+02 7.81860800e-03 9.79566700e-02
        1 -1    0    0  502    0 +0.0000000000e+00 +0.0000000000e+00 +1.0772263102e+02 1.0772263102e+02 0.0000000000e+00 0.0000e+00 1.0000e+00
       13 -1    0    0    0    0 -0.0000000000e+00 -0.0000000000e+00 -1.0000000000e+03 1.0000000000e+03 0.0000000000e+00 0.0000e+00 1.0000e+00
  9000005  2    1    2  501    0 +8.3185665709e-02 +9.6136585843e-02 -8.9240058898e+02 1.1075455851e+03 6.5595609276e+02 0.0000e+00 0.0000e+00
       13  1    3    3    0    0 -9.4253311030e+01 -3.1192419360e+02 -3.8405267797e+02 5.0366342795e+02 0.0000000000e+00 0.0000e+00 1.0000e+00
        3  1    3    3  501    0 +9.4336496696e+01 +3.1202033019e+02 -5.0834791102e+02 6.0388215713e+02 0.0000000000e+00 0.0000e+00 1.0000e+00
       21  1    1    2  502  501 -8.3185665709e-02 -9.6136585843e-02 +1.2322000150e-01 1.7704594569e-01 0.0000000000e+00 0.0000e+00 -1.0000e+00
<mgrwt>
<rscale>  1 0.65595611E+03</rscale>
<asrwt>0</asrwt>
<pdfrwt beam="1">  1        1 0.39171948E+00 0.65595611E+03</pdfrwt>
<pdfrwt beam="2">0</pdfrwt>
<totfact> 0.14546536E+00</totfact>
</mgrwt>
</event>
<event>
 6      1 +5.6466785e-02 6.52701100e+02 7.81860800e-03 9.80172400e-02
        1 -1    0    0  502    0 +0.0000000000e+00 +0.0000000000e+00 +1.0673429251e+02 1.0673429251e+02 0.0000000000e+00 0.0000e+00 1.0000e+00
       13 -1    0    0    0    0 -0.0000000000e+00 -0.0000000000e+00 -1.0000000000e+03 1.0000000000e+03 0.0000000000e+00 0.0000e+00 1.0000e+00
  9000005  2    1    2  501    0 -1.0425543346e-01 -5.7904990655e-02 -8.9347806468e+02 1.1064907401e+03 6.5270107379e+02 0.0000e+00 0.0000e+00
       13  1    3    3    0    0 -2.0877323407e+02 +1.8127055530e+02 -7.4073395703e+02 7.9065294066e+02 0.0000000000e+00 0.0000e+00 1.0000e+00
        3  1    3    3  501    0 +2.0866897864e+02 -1.8132846029e+02 -1.5274410765e+02 3.1583779947e+02 0.0000000000e+00 0.0000e+00 1.0000e+00
       21  1    1    2  502  501 +1.0425543346e-01 +5.7904990655e-02 +2.1235719006e-01 2.4355237531e-01 0.0000000000e+00 0.0000e+00 -1.0000e+00
<mgrwt>
<rscale>  1 0.65270108E+03</rscale>
<asrwt>0</asrwt>
<pdfrwt beam="1">  1        1 0.38812552E+00 0.65270108E+03</pdfrwt>
<pdfrwt beam="2">0</pdfrwt>
<totfact> 0.15099391E+00</totfact>
</mgrwt>
</event>
<event>
 6      1 +5.6466785e-02 6.60643700e+02 7.81860800e-03 9.78700900e-02
        1 -1    0    0  502    0 +0.0000000000e+00 +0.0000000000e+00 +1.1576997559e+02 1.1576997559e+02 0.0000000000e+00 0.0000e+00 1.0000e+00
       13 -1    0    0    0    0 -0.0000000000e+00 -0.0000000000e+00 -1.0000000000e+03 1.0000000000e+03 0.0000000000e+00 0.0000e+00 1.0000e+00
  9000005  2    1    2  501    0 +4.2473162732e+00 +3.4465984943e+00 -8.8961736950e+02 1.1080925917e+03 6.6062107813e+02 0.0000e+00 0.0000e+00
       13  1    3    3    0    0 +1.6534991981e+01 +1.8430386852e+02 +1.4849507773e+01 1.8563897703e+02 0.0000000000e+00 0.0000e+00 1.0000e+00
        1  1    3    3  501    0 -1.2287675708e+01 -1.8085727002e+02 -9.0446687727e+02 9.2245361465e+02 0.0000000000e+00 0.0000e+00 1.0000e+00
       21  1    1    2  502  501 -4.2473162732e+00 -3.4465984943e+00 +5.3873450897e+00 7.6773839177e+00 0.0000000000e+00 0.0000e+00 1.0000e+00
<mgrwt>
<rscale>  1 0.66064372E+03</rscale>
<asrwt>0</asrwt>
<pdfrwt beam="1">  1        1 0.42098262E+00 0.66064372E+03</pdfrwt>
<pdfrwt beam="2">0</pdfrwt>
<totfact> 0.10750146E+00</totfact>
</mgrwt>
</event>
<event>
 6      1 +5.6466785e-02 6.16067000e+02 7.81860800e-03 9.87262200e-02
        1 -1    0    0  502    0 +0.0000000000e+00 +0.0000000000e+00 +9.4884994573e+01 9.4884994573e+01 0.0000000000e+00 0.0000e+00 1.0000e+00
       13 -1    0    0    0    0 -0.0000000000e+00 -0.0000000000e+00 -1.0000000000e+03 1.0000000000e+03 0.0000000000e+00 0.0000e+00 1.0000e+00
  9000005  2    1    2  501    0 +5.7097253730e-05 -1.0679703422e-05 -9.0511535847e+02 1.0948846368e+03 6.1606700587e+02 0.0000e+00 0.0000e+00
       13  1    3    3    0    0 +2.5228361002e+01 +2.1012441398e+02 -5.4779002060e+01 2.1860804792e+02 0.0000000000e+00 0.0000e+00 1.0000e+00
        3  1    3    3  501    0 -2.5228303905e+01 -2.1012442466e+02 -8.5033635641e+02 8.7627658886e+02 0.0000000000e+00 0.0000e+00 1.0000e+00
       21  1    1    2  502  501 -5.7097253731e-05 +1.0679703417e-05 +3.5304452527e-04 3.5779126494e-04 0.0000000000e+00 0.0000e+00 1.0000e+00
<mgrwt>
<rscale>  1 0.61606701E+03</rscale>
<asrwt>0</asrwt>
<pdfrwt beam="1">  1        1 0.34503707E+00 0.61606701E+03</pdfrwt>
<pdfrwt beam="2">0</pdfrwt>
<totfact> 0.23489519E+00</totfact>
</mgrwt>
</event>
<event>
 6      1 +5.6466785e-02 6.76840600e+02 7.81860800e-03 9.75767900e-02
        1 -1    0    0  502    0 +0.0000000000e+00 +0.0000000000e+00 +1.1452882617e+02 1.1452882617e+02 0.0000000000e+00 0.0000e+00 1.0000e+00
       13 -1    0    0    0    0 -0.0000000000e+00 -0.0000000000e+00 -1.0000000000e+03 1.0000000000e+03 0.0000000000e+00 0.0000e+00 1.0000e+00
  9000005  2    1    2  501    0 -2.0516752414e-05 -5.1699460982e-05 -8.8547168660e+02 1.1145283104e+03 6.7684063626e+02 0.0000e+00 0.0000e+00
       13  1    3    3    0    0 -1.3656464208e+02 +3.0397181627e+02 -3.4560319616e+02 4.8009409051e+02 0.0000000000e+00 0.0000e+00 1.0000e+00
        1  1    3    3  501    0 +1.3656462156e+02 -3.0397186797e+02 -5.3986849044e+02 6.3443421988e+02 0.0000000000e+00 0.0000e+00 1.0000e+00
       21  1    1    2  502  501 +2.0516752418e-05 +5.1699460996e-05 +5.1276852356e-04 5.1577643427e-04 0.0000000000e+00 0.0000e+00 -1.0000e+00
<mgrwt>
<rscale>  1 0.67684064E+03</rscale>
<asrwt>0</asrwt>
<pdfrwt beam="1">  1        1 0.41646934E+00 0.67684064E+03</pdfrwt>
<pdfrwt beam="2">0</pdfrwt>
<totfact> 0.11230861E+00</totfact>
</mgrwt>
</event>
<event>
 6      1 +5.6466785e-02 6.46551000e+02 7.81860800e-03 9.81327300e-02
        1 -1    0    0  502    0 +0.0000000000e+00 +0.0000000000e+00 +1.0450706501e+02 1.0450706501e+02 0.0000000000e+00 0.0000e+00 1.0000e+00
       13 -1    0    0    0    0 -0.0000000000e+00 -0.0000000000e+00 -1.0000000000e+03 1.0000000000e+03 0.0000000000e+00 0.0000e+00 1.0000e+00
  9000005  2    1    2  501    0 +2.4561106784e-06 +1.8737974301e-06 -8.9549293680e+02 1.1045070614e+03 6.4655104121e+02 0.0000e+00 0.0000e+00
       13  1    3    3    0    0 +2.8723575407e+02 +1.2992390962e+02 -3.2548064796e+02 4.5312498596e+02 0.0000000000e+00 0.0000e+00 1.0000e+00
        1  1    3    3  501    0 -2.8723575161e+02 -1.2992390774e+02 -5.7001228884e+02 6.5138207547e+02 0.0000000000e+00 0.0000e+00 1.0000e+00
       21  1    1    2  502  501 -2.4561106757e-06 -1.8737974354e-06 +1.8147324662e-06 3.5828550632e-06 0.0000000000e+00 0.0000e+00 -1.0000e+00
<mgrwt>
<rscale>  1 0.64655104E+03</rscale>
<asrwt>0</asrwt>
<pdfrwt beam="1">  1        1 0.38002649E+00 0.64655104E+03</pdfrwt>
<pdfrwt beam="2">0</pdfrwt>
<totfact> 0.16415711E+00</totfact>
</mgrwt>
</event>
<event>
 6      1 +5.6466785e-02 6.49533100e+02 7.81860800e-03 9.80765600e-02
        1 -1    0    0  502    0 +0.0000000000e+00 +0.0000000000e+00 +1.0936629448e+02 1.0936629448e+02 0.0000000000e+00 0.0000e+00 1.0000e+00
       13 -1    0    0    0    0 -0.0000000000e+00 -0.0000000000e+00 -1.0000000000e+03 1.0000000000e+03 0.0000000000e+00 0.0000e+00 1.0000e+00
  9000005  2    1    2  501    0 -4.3666303062e+00 -2.6077771078e-01 -8.9311947808e+02 1.1043349397e+03 6.4951837662e+02 0.0000e+00 0.0000e+00
       13  1    3    3    0    0 -3.2337886176e+02 +4.6897624837e+01 -4.6606549796e+02 5.6920147913e+02 0.0000000000e+00 0.0000e+00 1.0000e+00
        1  1    3    3  501    0 +3.1901223145e+02 -4.7158402547e+01 -4.2705398011e+02 5.3513346062e+02 0.0000000000e+00 0.0000e+00 1.0000e+00
       21  1    1    2  502  501 +4.3666303062e+00 +2.6077771078e-01 +2.4857725578e+00 5.0313547335e+00 0.0000000000e+00 0.0000e+00 -1.0000e+00
<mgrwt>
<rscale>  1 0.64953311E+03</rscale>
<asrwt>0</asrwt>
<pdfrwt beam="1">  1        1 0.39769645E+00 0.64953311E+03</pdfrwt>
<pdfrwt beam="2">0</pdfrwt>
<totfact> 0.13699805E+00</totfact>
</mgrwt>
</event>
<event>
 6      1 +5.6466785e-02 6.51130200e+02 7.81860800e-03 9.80466100e-02
        1 -1    0    0  502    0 +0.0000000000e+00 +0.0000000000e+00 +1.0630494252e+02 1.0630494252e+02 0.0000000000e+00 0.0000e+00 1.0000e+00
       13 -1    0    0    0    0 -0.0000000000e+00 -0.0000000000e+00 -1.0000000000e+03 1.0000000000e+03 0.0000000000e+00 0.0000e+00 1.0000e+00
  9000005  2    1    2  501    0 -1.7126042879e-01 -6.4061401186e-01 -8.9355534042e+02 1.1056272720e+03 6.5112984766e+02 0.0000e+00 0.0000e+00
       13  1    3    3    0    0 +6.9222238516e+01 +1.6121862451e+02 +1.8777122814e+01 1.7645323328e+02 0.0000000000e+00 0.0000e+00 1.0000e+00
        3  1    3    3  501    0 -6.9393498944e+01 -1.6185923852e+02 -9.1233246324e+02 9.2917403874e+02 0.0000000000e+00 0.0000e+00 1.0000e+00
       21  1    1    2  502  501 +1.7126042879e-01 +6.4061401186e-01 -1.3971705692e-01 6.7767049712e-01 0.0000000000e+00 0.0000e+00 1.0000e+00
<mgrwt>
<rscale>  1 0.65113019E+03</rscale>
<asrwt>0</asrwt>
<pdfrwt beam="1">  1        1 0.38656424E+00 0.65113019E+03</pdfrwt>
<pdfrwt beam="2">0</pdfrwt>
<totfact> 0.15346164E+00</totfact>
</mgrwt>
</event>
<event>
 6      1 +5.6466785e-02 6.40106600e+02 7.81860800e-03 9.82552300e-02
        1 -1    0    0  502    0 +0.0000000000e+00 +0.0000000000e+00 +1.0259055995e+02 1.0259055995e+02 0.0000000000e+00 0.0000e+00 1.0000e+00
       13 -1    0    0    0    0 -0.0000000000e+00 -0.0000000000e+00 -1.0000000000e+03 1.0000000000e+03 0.0000000000e+00 0.0000e+00 1.0000e+00
  9000005  2    1    2  501    0 +5.4730954672e-03 +1.1233337892e-02 -8.9756561598e+02 1.1024338849e+03 6.4010658135e+02 0.0000e+00 0.0000e+00
       13  1    3    3    0    0 -2.0586003182e+02 -9.2863368550e+01 -5.8199455695e+01 2.3321478204e+02 0.0000000000e+00 0.0000e+00 1.0000e+00
        3  1    3    3  501    0 +2.0586550491e+02 +9.2874601888e+01 -8.3936616029e+02 8.6921910289e+02 0.0000000000e+00 0.0000e+00 1.0000e+00
       21  1    1    2  502  501 -5.4730954672e-03 -1.1233337892e-02 +1.5617593036e-01 1.5667502634e-01 0.0000000000e+00 0.0000e+00 1.0000e+00
<mgrwt>
<rscale>  1 0.64010658E+03</rscale>
<asrwt>0</asrwt>
<pdfrwt beam="1">  1        1 0.37305737E+00 0.64010658E+03</pdfrwt>
<pdfrwt beam="2">0</pdfrwt>
<totfact> 0.17638895E+00</totfact>
</mgrwt>
</event>
<event>
 6      1 +5.6466785e-02 6.39480400e+02 7.81860800e-03 9.82672100e-02
        1 -1    0    0  502    0 +0.0000000000e+00 +0.0000000000e+00 +1.0223385001e+02 1.0223385001e+02 0.0000000000e+00 0.0000e+00 1.0000e+00
       13 -1    0    0    0    0 -0.0000000000e+00 -0.0000000000e+00 -1.0000000000e+03 1.0000000000e+03 0.0000000000e+00 0.0000e+00 1.0000e+00
  9000005  2    1    2  501    0 -4.7837726243e-06 +1.6589021797e-05 -8.9776621849e+02 1.1022337794e+03 6.3948035256e+02 0.0000e+00 0.0000e+00
       13  1    3    3    0    0 +3.0082533815e+02 +1.0764167285e+02 -4.2769097010e+02 5.3385595409e+02 0.0000000000e+00 0.0000e+00 1.0000e+00
        1  1    3    3  501    0 -3.0082534294e+02 -1.0764165626e+02 -4.7007524839e+02 5.6837782527e+02 0.0000000000e+00 0.0000e+00 1.0000e+00
       21  1    1    2  502  501 +4.7837726081e-06 -1.6589021800e-05 +6.8500791238e-05 7.0643035926e-05 0.0000000000e+00 0.0000e+00 -1.0000e+00
<mgrwt>
<rscale>  1 0.63948035E+03</rscale>
<asrwt>0</asrwt>
<pdfrwt beam="1">  1        1 0.37176024E+00 0.63948035E+03</pdfrwt>
<pdfrwt beam="2">0</pdfrwt>
<totfact> 0.17874090E+00</totfact>
</mgrwt>
</event>
<event>
 6      1 +5.6466785e-02 6.25737000e+02 7.81860800e-03 9.85340300e-02
        1 -1    0    0  502    0 +0.0000000000e+00 +0.0000000000e+00 +9.8256226938e+01 9.8256226938e+01 0.0000000000e+00 0.0000e+00 1.0000e+00
       13 -1    0    0    0    0 -0.0000000000e+00 -0.0000000000e+00 -1.0000000000e+03 1.0000000000e+03 0.0000000000e+00 0.0000e+00 1.0000e+00
  9000005  2    1    2  501    0 +7.9104162493e-04 -1.7741847601e-02 -9.0211307473e+02 1.0978864985e+03 6.2573697643e+02 0.0000e+00 0.0000e+00
       13  1    3    3    0    0 -4.2066126438e+01 +8.1776191123e+01 +7.3637281969e+01 1.1781066897e+02 0.0000000000e+00 0.0000e+00 1.0000e+00
        1  1    3    3  501    0 +4.2066917479e+01 -8.1793932970e+01 -9.7575035670e+02 9.8007582952e+02 0.0000000000e+00 0.0000e+00 1.0000e+00
       21  1    1    2  502  501 -7.9104162492e-04 +1.7741847601e-02 +3.6930166744e-01 3.6972844153e-01 0.0000000000e+00 0.0000e+00 -1.0000e+00
<mgrwt>
<rscale>  1 0.62573698E+03</rscale>
<asrwt>0</asrwt>
<pdfrwt beam="1">  1        1 0.35729612E+00 0.62573698E+03</pdfrwt>
<pdfrwt beam="2">0</pdfrwt>
<totfact> 0.20733968E+00</totfact>
</mgrwt>
</event>
<event>
 6      1 +5.6466785e-02 6.44643600e+02 7.81860800e-03 9.81688200e-02
        1 -1    0    0  502    0 +0.0000000000e+00 +0.0000000000e+00 +1.0393530460e+02 1.0393530460e+02 0.0000000000e+00 0.0000e+00 1.0000e+00
       13 -1    0    0    0    0 -0.0000000000e+00 -0.0000000000e+00 -1.0000000000e+03 1.0000000000e+03 0.0000000000e+00 0.0000e+00 1.0000e+00
  9000005  2    1    2  501    0 +8.3702103412e-03 +1.5960416151e-02 -8.9610662615e+02 1.1038896649e+03 6.4464354996e+02 0.0000e+00 0.0000e+00
       13  1    3    3    0    0 -1.3499321175e+02 -1.3886092212e+02 -8.8924323701e+02 9.1008739002e+02 0.0000000000e+00 0.0000e+00 1.0000e+00
        1  1    3    3  501    0 +1.3500158196e+02 +1.3887688254e+02 -6.8633891366e+00 1.9380227487e+02 0.0000000000e+00 0.0000e+00 1.0000e+00
       21  1    1    2  502  501 -8.3702103412e-03 -1.5960416151e-02 +4.1930749470e-02 4.5639709201e-02 0.0000000000e+00 0.0000e+00 1.0000e+00
<mgrwt>
<rscale>  1 0.64464355E+03</rscale>
<asrwt>0</asrwt>
<pdfrwt beam="1">  1        1 0.37794736E+00 0.64464355E+03</pdfrwt>
<pdfrwt beam="2">0</pdfrwt>
<totfact> 0.16771849E+00</totfact>
</mgrwt>
</event>
<event>
 6      1 +5.6466785e-02 5.74053500e+02 7.81860800e-03 9.96074900e-02
        1 -1    0    0  502    0 +0.0000000000e+00 +0.0000000000e+00 +8.4711633273e+01 8.4711633273e+01 0.0000000000e+00 0.0000e+00 1.0000e+00
       13 -1    0    0    0    0 -0.0000000000e+00 -0.0000000000e+00 -1.0000000000e+03 1.0000000000e+03 0.0000000000e+00 0.0000e+00 1.0000e+00
  9000005  2    1    2  501    0 -2.0484701830e-01 +3.0262557031e-01 -9.1760010200e+02 1.0823711922e+03 5.7405340947e+02 0.0000e+00 0.0000e+00
       13  1    3    3    0    0 +1.6181006617e+02 +3.7169833485e+01 -1.7364225743e+01 1.6692995648e+02 0.0000000000e+00 0.0000e+00 1.0000e+00
        3  1    3    3  501    0 -1.6201491319e+02 -3.6867207915e+01 -9.0023587626e+02 9.1544123570e+02 0.0000000000e+00 0.0000e+00 1.0000e+00
       21  1    1    2  502  501 +2.0484701830e-01 -3.0262557031e-01 +2.3117352752e+00 2.3404410950e+00 0.0000000000e+00 0.0000e+00 1.0000e+00
<mgrwt>
<rscale>  1 0.57405353E+03</rscale>
<asrwt>0</asrwt>
<pdfrwt beam="1">  1        1 0.30804295E+00 0.57405353E+03</pdfrwt>
<pdfrwt beam="2">0</pdfrwt>
<totfact> 0.34222083E+00</totfact>
</mgrwt>
</event>
<event>
 6      1 +5.6466785e-02 6.52318900e+02 7.81860800e-03 9.80243800e-02
        1 -1    0    0  502    0 +0.0000000000e+00 +0.0000000000e+00 +1.2173755659e+02 1.2173755659e+02 0.0000000000e+00 0.0000e+00 1.0000e+00
       13 -1    0    0    0    0 -0.0000000000e+00 -0.0000000000e+00 -1.0000000000e+03 1.0000000000e+03 0.0000000000e+00 0.0000e+00 1.0000e+00
  9000005  2    1    2  501    0 +3.5595366032e-02 +9.4384779101e+00 -8.9199883818e+02 1.1050709831e+03 6.5225061452e+02 0.0000e+00 0.0000e+00
       13  1    3    3    0    0 -1.0730482724e+01 +2.2974797832e+02 -8.4995903953e+02 8.8052804934e+02 0.0000000000e+00 0.0000e+00 1.0000e+00
        1  1    3    3  501    0 +1.0766078090e+01 -2.2030950041e+02 -4.2039798652e+01 2.2454293371e+02 0.0000000000e+00 0.0000e+00 1.0000e+00
       21  1    1    2  502  501 -3.5595366032e-02 -9.4384779101e+00 +1.3736394766e+01 1.6666573537e+01 0.0000000000e+00 0.0000e+00 1.0000e+00
<mgrwt>
<rscale>  1 0.65231890E+03</rscale>
<asrwt>0</asrwt>
<pdfrwt beam="1">  1        1 0.44268296E+00 0.65231890E+03</pdfrwt>
<pdfrwt beam="2">0</pdfrwt>
<totfact> 0.85797890E-01</totfact>
</mgrwt>
</event>
<event>
 6      1 +5.6466785e-02 6.43626400e+02 7.81860800e-03 9.81881300e-02
        1 -1    0    0  502    0 +0.0000000000e+00 +0.0000000000e+00 +1.2684578014e+02 1.2684578014e+02 0.0000000000e+00 0.0000e+00 1.0000e+00
       13 -1    0    0    0    0 -0.0000000000e+00 -0.0000000000e+00 -1.0000000000e+03 1.0000000000e+03 0.0000000000e+00 0.0000e+00 1.0000e+00
  9000005  2    1    2  501    0 +4.2969146684e+00 -3.6819523340e-01 -8.9621565303e+02 1.1033845623e+03 6.4361199220e+02 0.0000e+00 0.0000e+00
       13  1    3    3    0    0 +1.2463901876e+02 +2.9276386755e+02 -3.5932475724e+02 4.7995817350e+02 0.0000000000e+00 0.0000e+00 1.0000e+00
        3  1    3    3  501    0 -1.2034210409e+02 -2.9313206279e+02 -5.3689089579e+02 6.2342638879e+02 0.0000000000e+00 0.0000e+00 1.0000e+00
       21  1    1    2  502  501 -4.2969146684e+00 +3.6819523340e-01 +2.3061433170e+01 2.3461217856e+01 0.0000000000e+00 0.0000e+00 -1.0000e+00
<mgrwt>
<rscale>  1 0.64362644E+03</rscale>
<asrwt>0</asrwt>
<pdfrwt beam="1">  1        1 0.46125835E+00 0.64362644E+03</pdfrwt>
<pdfrwt beam="2">0</pdfrwt>
<totfact> 0.70567147E-01</totfact>
</mgrwt>
</event>
<event>
 6      1 +5.6466785e-02 6.47376100e+02 7.81860800e-03 9.81171500e-02
        1 -1    0    0  502    0 +0.0000000000e+00 +0.0000000000e+00 +1.0477511789e+02 1.0477511789e+02 0.0000000000e+00 0.0000e+00 1.0000e+00
       13 -1    0    0    0    0 -0.0000000000e+00 -0.0000000000e+00 -1.0000000000e+03 1.0000000000e+03 0.0000000000e+00 0.0000e+00 1.0000e+00
  9000005  2    1    2  501    0 +2.5528422682e-04 -8.0256824006e-04 -8.9522588653e+02 1.1047738071e+03 6.4737607073e+02 0.0000e+00 0.0000e+00
       13  1    3    3    0    0 -2.1709114157e+02 -1.6437454643e+02 -7.4626492703e+02 7.9439215541e+02 0.0000000000e+00 0.0000e+00 1.0000e+00
        3  1    3    3  501    0 +2.1709139685e+02 +1.6437374386e+02 -1.4896095950e+02 3.1038165170e+02 0.0000000000e+00 0.0000e+00 1.0000e+00
       21  1    1    2  502  501 -2.5528422682e-04 +8.0256824007e-04 +1.0044162385e-03 1.3107775542e-03 0.0000000000e+00 0.0000e+00 1.0000e+00
<mgrwt>
<rscale>  1 0.64737607E+03</rscale>
<asrwt>0</asrwt>
<pdfrwt beam="1">  1        1 0.38100123E+00 0.64737607E+03</pdfrwt>
<pdfrwt beam="2">0</pdfrwt>
<totfact> 0.16251443E+00</totfact>
</mgrwt>
</event>
<event>
 6      1 +5.6466785e-02 6.47331500e+02 7.81860800e-03 9.81179900e-02
        1 -1    0    0  502    0 +0.0000000000e+00 +0.0000000000e+00 +1.0556237599e+02 1.0556237599e+02 0.0000000000e+00 0.0000e+00 1.0000e+00
       13 -1    0    0    0    0 -0.0000000000e+00 -0.0000000000e+00 -1.0000000000e+03 1.0000000000e+03 0.0000000000e+00 0.0000e+00 1.0000e+00
  9000005  2    1    2  501    0 -2.0612866102e+00 -2.5582527204e-02 -8.9336004193e+02 1.1032362762e+03 6.4732825298e+02 0.0000e+00 0.0000e+00
       13  1    3    3    0    0 +2.0829516433e+02 -1.8601371358e+02 -7.2239631334e+02 7.7449623024e+02 0.0000000000e+00 0.0000e+00 1.0000e+00
        3  1    3    3  501    0 -2.1035645094e+02 +1.8598813105e+02 -1.7096372859e+02 3.2874004599e+02 0.0000000000e+00 0.0000e+00 1.0000e+00
       21  1    1    2  502  501 +2.0612866102e+00 +2.5582527204e-02 -1.0775820807e+00 2.3260997605e+00 0.0000000000e+00 0.0000e+00 1.0000e+00
<mgrwt>
<rscale>  1 0.64733154E+03</rscale>
<asrwt>0</asrwt>
<pdfrwt beam="1">  1        1 0.38386399E+00 0.64733154E+03</pdfrwt>
<pdfrwt beam="2">0</pdfrwt>
<totfact> 0.15785183E+00</totfact>
</mgrwt>
</event>
<event>
 6      1 +5.6466785e-02 6.53078400e+02 7.81860800e-03 9.80102000e-02
        1 -1    0    0  502    0 +0.0000000000e+00 +0.0000000000e+00 +1.0671086962e+02 1.0671086962e+02 0.0000000000e+00 0.0000e+00 1.0000e+00
       13 -1    0    0    0    0 -0.0000000000e+00 -0.0000000000e+00 -1.0000000000e+03 1.0000000000e+03 0.0000000000e+00 0.0000e+00 1.0000e+00
  9000005  2    1    2  501    0 -5.2923535577e-02 -4.9668127793e-02 -8.9335421098e+02 1.1066133847e+03 6.5307842688e+02 0.0000e+00 0.0000e+00
       13  1    3    3    0    0 +2.0330635160e+02 +1.4417625074e+02 -8.0404420214e+02 8.4178818171e+02 0.0000000000e+00 0.0000e+00 1.0000e+00
        1  1    3    3  501    0 -2.0335927514e+02 -1.4422591887e+02 -8.9310008848e+01 2.6482520299e+02 0.0000000000e+00 0.0000e+00 1.0000e+00
       21  1    1    2  502  501 +5.2923535577e-02 +4.9668127793e-02 +6.5080601220e-02 9.7484912635e-02 0.0000000000e+00 0.0000e+00 -1.0000e+00
<mgrwt>
<rscale>  1 0.65307843E+03</rscale>
<asrwt>0</asrwt>
<pdfrwt beam="1">  1        1 0.38804034E+00 0.65307843E+03</pdfrwt>
<pdfrwt beam="2">0</pdfrwt>
<totfact> 0.15111460E+00</totfact>
</mgrwt>
</event>
<event>
 6      1 +5.6466785e-02 6.50397900e+02 7.81860800e-03 9.80603300e-02
        1 -1    0    0  502    0 +0.0000000000e+00 +0.0000000000e+00 +1.0576159897e+02 1.0576159897e+02 0.0000000000e+00 0.0000e+00 1.0000e+00
       13 -1    0    0    0    0 -0.0000000000e+00 -0.0000000000e+00 -1.0000000000e+03 1.0000000000e+03 0.0000000000e+00 0.0000e+00 1.0000e+00
  9000005  2    1    2  501    0 -2.8315145627e-04 -4.9244236121e-04 -8.9424561615e+02 1.1057543615e+03 6.5039794436e+02 0.0000e+00 0.0000e+00
       13  1    3    3    0    0 -2.3436723659e+02 -2.2440208750e+02 -4.1025566721e+02 5.2306214826e+02 0.0000000000e+00 0.0000e+00 1.0000e+00
        3  1    3    3  501    0 +2.3436695344e+02 +2.2440159506e+02 -4.8398994894e+02 5.8269221327e+02 0.0000000000e+00 0.0000e+00 1.0000e+00
       21  1    1    2  502  501 +2.8315145628e-04 +4.9244236120e-04 +7.2151136935e-03 7.2374401439e-03 0.0000000000e+00 0.0000e+00 -1.0000e+00
<mgrwt>
<rscale>  1 0.65039794E+03</rscale>
<asrwt>0</asrwt>
<pdfrwt beam="1">  1        1 0.38458844E+00 0.65039794E+03</pdfrwt>
<pdfrwt beam="2">0</pdfrwt>
<totfact> 0.15660317E+00</totfact>
</mgrwt>
</event>
<event>
 6      1 +5.6466785e-02 6.81880600e+02 7.81860800e-03 9.74873100e-02
        1 -1    0    0  502    0 +0.0000000000e+00 +0.0000000000e+00 +1.1624147267e+02 1.1624147267e+02 0.0000000000e+00 0.0000e+00 1.0000e+00
       13 -1    0    0    0    0 -0.0000000000e+00 -0.0000000000e+00 -1.0000000000e+03 1.0000000000e+03 0.0000000000e+00 0.0000e+00 1.0000e+00
  9000005  2    1    2  501    0 +4.0518782910e-04 -3.1398626242e-03 -8.8375639457e+02 1.1162376554e+03 6.8188058951e+02 0.0000e+00 0.0000e+00
       13  1    3    3    0    0 +8.5360239279e+01 +1.5583816363e+02 -9.1820718750e+02 9.3524132868e+02 0.0000000000e+00 0.0000e+00 1.0000e+00
        3  1    3    3  501    0 -8.5359834091e+01 -1.5584130349e+02 +3.4450792927e+01 1.8099632671e+02 0.0000000000e+00 0.0000e+00 1.0000e+00
       21  1    1    2  502  501 -4.0518782909e-04 +3.1398626241e-03 -2.1327625510e-03 3.8172752814e-03 0.0000000000e+00 0.0000e+00 1.0000e+00
<mgrwt>
<rscale>  1 0.68188059E+03</rscale>
<asrwt>0</asrwt>
<pdfrwt beam="1">  1        1 0.42269716E+00 0.68188059E+03</pdfrwt>
<pdfrwt beam="2">0</pdfrwt>
<totfact> 0.10516910E+00</totfact>
</mgrwt>
</event>
<event>
 6      1 +5.6466785e-02 6.56092000e+02 7.81860800e-03 9.79541500e-02
        1 -1    0    0  502    0 +0.0000000000e+00 +0.0000000000e+00 +1.1336870366e+02 1.1336870366e+02 0.0000000000e+00 0.0000e+00 1.0000e+00
       13 -1    0    0    0    0 -0.0000000000e+00 -0.0000000000e+00 -1.0000000000e+03 1.0000000000e+03 0.0000000000e+00 0.0000e+00 1.0000e+00
  9000005  2    1    2  501    0 +1.0405236999e-01 +1.1266887026e-01 -8.9238467586e+02 1.1076132804e+03 6.5609202531e+02 0.0000e+00 0.0000e+00
       13  1    3    3    0    0 +3.1416901849e+02 +6.6259753979e+01 -5.6029846518e+02 6.4577619750e+02 0.0000000000e+00 0.0000e+00 1.0000e+00
        3  1    3    3  501    0 -3.1406496612e+02 -6.6147085109e+01 -3.3208621068e+02 4.6183708289e+02 0.0000000000e+00 0.0000e+00 1.0000e+00
       21  1    1    2  502  501 -1.0405236999e-01 -1.1266887026e-01 +5.7533795118e+00 5.7554232665e+00 0.0000000000e+00 0.0000e+00 1.0000e+00
<mgrwt>
<rscale>  1 0.65609204E+03</rscale>
<asrwt>0</asrwt>
<pdfrwt beam="1">  1        1 0.41225070E+00 0.65609204E+03</pdfrwt>
<pdfrwt beam="2">0</pdfrwt>
<totfact> 0.11779004E+00</totfact>
</mgrwt>
</event>
<event>
 6      1 +5.6466785e-02 6.19248300e+02 7.81860800e-03 9.86625800e-02
        1 -1    0    0  502    0 +0.0000000000e+00 +0.0000000000e+00 +9.7457784627e+01 9.7457784627e+01 0.0000000000e+00 0.0000e+00 1.0000e+00
       13 -1    0    0    0    0 -0.0000000000e+00 -0.0000000000e+00 -1.0000000000e+03 1.0000000000e+03 0.0000000000e+00 0.0000e+00 1.0000e+00
  9000005  2    1    2  501    0 +3.4499926380e-01 +1.2102860918e+00 -9.0385587616e+02 1.0956385756e+03 6.1924701017e+02 0.0000e+00 0.0000e+00
       13  1    3    3    0    0 +8.5848163212e+01 -6.1686372756e+01 -9.6658151847e+02 9.7234507638e+02 0.0000000000e+00 0.0000e+00 1.0000e+00
        1  1    3    3  501    0 -8.5503163948e+01 +6.2896658848e+01 +6.2725642315e+01 1.2329349919e+02 0.0000000000e+00 0.0000e+00 1.0000e+00
       21  1    1    2  502  501 -3.4499926380e-01 -1.2102860918e+00 +1.3136607854e+00 1.8192090521e+00 0.0000000000e+00 0.0000e+00 -1.0000e+00
<mgrwt>
<rscale>  1 0.61924829E+03</rscale>
<asrwt>0</asrwt>
<pdfrwt beam="1">  1        1 0.35439269E+00 0.61924829E+03</pdfrwt>
<pdfrwt beam="2">0</pdfrwt>
<totfact> 0.21373114E+00</totfact>
</mgrwt>
</event>
<event>
 6      1 +5.6466785e-02 6.55817900e+02 7.81860800e-03 9.79592300e-02
        1 -1    0    0  502    0 +0.0000000000e+00 +0.0000000000e+00 +1.0752447314e+02 1.0752447314e+02 0.0000000000e+00 0.0000e+00 1.0000e+00
       13 -1    0    0    0    0 -0.0000000000e+00 -0.0000000000e+00 -1.0000000000e+03 1.0000000000e+03 0.0000000000e+00 0.0000e+00 1.0000e+00
  9000005  2    1    2  501    0 -9.9358944240e-05 +1.5825797277e-05 -8.9247571997e+02 1.1075242554e+03 6.5581786004e+02 0.0000e+00 0.0000e+00
       13  1    3    3    0    0 +8.0430076895e+01 +2.9232208003e+02 -2.3529005460e+02 3.8377415955e+02 0.0000000000e+00 0.0000e+00 1.0000e+00
        1  1    3    3  501    0 -8.0430176254e+01 -2.9232206420e+02 -6.5718566537e+02 7.2375009584e+02 0.0000000000e+00 0.0000e+00 1.0000e+00
       21  1    1    2  502  501 +9.9358944239e-05 -1.5825797273e-05 +1.9310717866e-04 2.1774535152e-04 0.0000000000e+00 0.0000e+00 -1.0000e+00
<mgrwt>
<rscale>  1 0.65581786E+03</rscale>
<asrwt>0</asrwt>
<pdfrwt beam="1">  1        1 0.39099891E+00 0.65581786E+03</pdfrwt>
<pdfrwt beam="2">0</pdfrwt>
<totfact> 0.14654421E+00</totfact>
</mgrwt>
</event>
<event>
 6      1 +5.6466785e-02 6.58623500e+02 7.81860800e-03 9.79073100e-02
        1 -1    0    0  502    0 +0.0000000000e+00 +0.0000000000e+00 +1.0845213412e+02 1.0845213412e+02 0.0000000000e+00 0.0000e+00 1.0000e+00
       13 -1    0    0    0    0 -0.0000000000e+00 -0.0000000000e+00 -1.0000000000e+03 1.0000000000e+03 0.0000000000e+00 0.0000e+00 1.0000e+00
  9000005  2    1    2  501    0 +2.4790001131e-03 +6.4200799352e-04 -8.9155345439e+02 1.1084459868e+03 6.5862352198e+02 0.0000e+00 0.0000e+00
       13  1    3    3    0    0 +9.9265470237e+01 +2.6775221471e+02 -1.6974030526e+02 3.3219971898e+02 0.0000000000e+00 0.0000e+00 1.0000e+00
        1  1    3    3  501    0 -9.9262991237e+01 -2.6775157270e+02 -7.2181314913e+02 7.7624626786e+02 0.0000000000e+00 0.0000e+00 1.0000e+00
       21  1    1    2  502  501 -2.4790001131e-03 -6.4200799354e-04 +5.5885079302e-03 6.1472788053e-03 0.0000000000e+00 0.0000e+00 -1.0000e+00
<mgrwt>
<rscale>  1 0.65862352E+03</rscale>
<asrwt>0</asrwt>
<pdfrwt beam="1">  1        1 0.39437223E+00 0.65862352E+03</pdfrwt>
<pdfrwt beam="2">0</pdfrwt>
<totfact> 0.14150135E+00</totfact>
</mgrwt>
</event>
<event>
 6      1 +5.6466785e-02 6.42449100e+02 7.81860800e-03 9.82105200e-02
        1 -1    0    0  502    0 +0.0000000000e+00 +0.0000000000e+00 +1.0318678678e+02 1.0318678678e+02 0.0000000000e+00 0.0000e+00 1.0000e+00
       13 -1    0    0    0    0 -0.0000000000e+00 -0.0000000000e+00 -1.0000000000e+03 1.0000000000e+03 0.0000000000e+00 0.0000e+00 1.0000e+00
  9000005  2    1    2  501    0 +9.9136462670e-04 -4.4380600078e-03 -8.9680956740e+02 1.1031809583e+03 6.4244908478e+02 0.0000e+00 0.0000e+00
       13  1    3    3    0    0 -8.5137045755e+01 -3.0672165482e+02 -3.7435096270e+02 4.9139101882e+02 0.0000000000e+00 0.0000e+00 1.0000e+00
        3  1    3    3  501    0 +8.5138037119e+01 +3.0671721676e+02 -5.2245860470e+02 6.1178993948e+02 0.0000000000e+00 0.0000e+00 1.0000e+00
       21  1    1    2  502  501 -9.9136462669e-04 +4.4380600078e-03 -3.6458220069e-03 5.8284816687e-03 0.0000000000e+00 0.0000e+00 -1.0000e+00
<mgrwt>
<rscale>  1 0.64244908E+03</rscale>
<asrwt>0</asrwt>
<pdfrwt beam="1">  1        1 0.37522547E+00 0.64244908E+03</pdfrwt>
<pdfrwt beam="2">0</pdfrwt>
<totfact> 0.17248272E+00</totfact>
</mgrwt>
</event>
<event>
 6      1 +5.6466785e-02 6.45686200e+02 7.81860800e-03 9.81490800e-02
        1 -1    0    0  502    0 +0.0000000000e+00 +0.0000000000e+00 +1.0422894272e+02 1.0422894272e+02 0.0000000000e+00 0.0000e+00 1.0000e+00
       13 -1    0    0    0    0 -0.0000000000e+00 -0.0000000000e+00 -1.0000000000e+03 1.0000000000e+03 0.0000000000e+00 0.0000e+00 1.0000e+00
  9000005  2    1    2  501    0 -1.1720560746e-03 +6.7004393077e-04 -8.9577191425e+02 1.1042273436e+03 6.4568622725e+02 0.0000e+00 0.0000e+00
       13  1    3    3    0    0 +7.4074085076e+01 +3.1397838873e+02 -4.6940986684e+02 5.6957442161e+02 0.0000000000e+00 0.0000e+00 1.0000e+00
        1  1    3    3  501    0 -7.4075257133e+01 -3.1397771869e+02 -4.2636204741e+02 5.3465292202e+02 0.0000000000e+00 0.0000e+00 1.0000e+00
       21  1    1    2  502  501 +1.1720560746e-03 -6.7004393079e-04 +8.5697007210e-04 1.5990847431e-03 0.0000000000e+00 0.0000e+00 -1.0000e+00
<mgrwt>
<rscale>  1 0.64568623E+03</rscale>
<asrwt>0</asrwt>
<pdfrwt beam="1">  1        1 0.37901514E+00 0.64568623E+03</pdfrwt>
<pdfrwt beam="2">0</pdfrwt>
<totfact> 0.16587846E+00</totfact>
</mgrwt>
</event>
<event>
 6      1 +5.6466785e-02 6.39656300e+02 7.81860800e-03 9.82638400e-02
        1 -1    0    0  502    0 +0.0000000000e+00 +0.0000000000e+00 +1.0300426685e+02 1.0300426685e+02 0.0000000000e+00 0.0000e+00 1.0000e+00
       13 -1    0    0    0    0 -0.0000000000e+00 -0.0000000000e+00 -1.0000000000e+03 1.0000000000e+03 0.0000000000e+00 0.0000e+00 1.0000e+00
  9000005  2    1    2  501    0 -2.1770053022e-02 -5.9592086174e-02 -8.9770839683e+02 1.1022887847e+03 6.3965631020e+02 0.0000e+00 0.0000e+00
       13  1    3    3    0    0 -3.3657965500e+01 +3.1492240989e+02 -5.2516520596e+02 6.1327601979e+02 0.0000000000e+00 0.0000e+00 1.0000e+00
        3  1    3    3  501    0 +3.3636195447e+01 -3.1498200198e+02 -3.7254319086e+02 4.8901276494e+02 0.0000000000e+00 0.0000e+00 1.0000e+00
       21  1    1    2  502  501 +2.1770053022e-02 +5.9592086174e-02 +7.1266368022e-01 7.1548212630e-01 0.0000000000e+00 0.0000e+00 -1.0000e+00
<mgrwt>
<rscale>  1 0.63965631E+03</rscale>
<asrwt>0</asrwt>
<pdfrwt beam="1">  1        1 0.37456176E+00 0.63965631E+03</pdfrwt>
<pdfrwt beam="2">0</pdfrwt>
<totfact> 0.17373570E+00</totfact>
</mgrwt>
</event>
<event>
 6      1 +5.6466785e-02 6.38275000e+02 7.81860800e-03 9.82903300e-02
        3 -1    0    0  502    0 +0.0000000000e+00 +0.0000000000e+00 +1.0184876028e+02 1.0184876028e+02 0.0000000000e+00 0.0000e+00 1.0000e+00
       13 -1    0    0    0    0 -0.0000000000e+00 -0.0000000000e+00 -1.0000000000e+03 1.0000000000e+03 0.0000000000e+00 0.0000e+00 1.0000e+00
  9000005  2    1    2  501    0 -3.5355087107e-06 +4.5272598754e-06 -8.9815126490e+02 1.1018487345e+03 6.3827497129e+02 0.0000e+00 0.0000e+00
       13  1    3    3    0    0 +1.9935721293e+02 +2.3740296765e+02 -3.1822696771e+02 4.4426554038e+02 0.0000000000e+00 0.0000e+00 1.0000e+00
        3  1    3    3  501    0 -1.9935721646e+02 -2.3740296312e+02 -5.7992429719e+02 6.5758319407e+02 0.0000000000e+00 0.0000e+00 1.0000e+00
       21  1    1    2  502  501 +3.5355087317e-06 -4.5272598959e-06 +2.5174746223e-05 2.5821768947e-05 0.0000000000e+00 0.0000e+00 -1.0000e+00
<mgrwt>
<rscale>  1 0.63827497E+03</rscale>
<asrwt>0</asrwt>
<pdfrwt beam="1">  1        3 0.37035991E+00 0.63827497E+03</pdfrwt>
<pdfrwt beam="2">0</pdfrwt>
<totfact> 0.85046747E-02</totfact>
</mgrwt>
</event>
<event>
 6      1 +5.6466785e-02 6.43680800e+02 7.81860800e-03 9.81871000e-02
        1 -1    0    0  502    0 +0.0000000000e+00 +0.0000000000e+00 +1.0653982814e+02 1.0653982814e+02 0.0000000000e+00 0.0000e+00 1.0000e+00
       13 -1    0    0    0    0 -0.0000000000e+00 -0.0000000000e+00 -1.0000000000e+03 1.0000000000e+03 0.0000000000e+00 0.0000e+00 1.0000e+00
  9000005  2    1    2  501    0 +1.7669012051e+00 +1.8395499030e+00 -8.9579989572e+02 1.1030785868e+03 6.4367570225e+02 0.0000e+00 0.0000e+00
       13  1    3    3    0    0 +9.2780985071e+01 +2.2016287523e+02 -7.7333314980e+01 2.5111838727e+02 0.0000000000e+00 0.0000e+00 1.0000e+00
        1  1    3    3  501    0 -9.1014083866e+01 -2.1832332533e+02 -8.1846658074e+02 8.5196019955e+02 0.0000000000e+00 0.0000e+00 1.0000e+00
       21  1    1    2  502  501 -1.7669012051e+00 -1.8395499030e+00 +2.3397238535e+00 3.4612413127e+00 0.0000000000e+00 0.0000e+00 1.0000e+00
<mgrwt>
<rscale>  1 0.64368076E+03</rscale>
<asrwt>0</asrwt>
<pdfrwt beam="1">  1        1 0.38741837E+00 0.64368076E+03</pdfrwt>
<pdfrwt beam="2">0</pdfrwt>
<totfact> 0.15234241E+00</totfact>
</mgrwt>
</event>
<event>
 6      1 +5.6466785e-02 6.42267100e+02 7.81860800e-03 9.82139800e-02
        1 -1    0    0  502    0 +0.0000000000e+00 +0.0000000000e+00 +1.0313380733e+02 1.0313380733e+02 0.0000000000e+00 0.0000e+00 1.0000e+00
       13 -1    0    0    0    0 -0.0000000000e+00 -0.0000000000e+00 -1.0000000000e+03 1.0000000000e+03 0.0000000000e+00 0.0000e+00 1.0000e+00
  9000005  2    1    2  501    0 +1.7493926110e-03 -2.5154818931e-03 -8.9687285720e+02 1.1031264722e+03 6.4226714979e+02 0.0000e+00 0.0000e+00
       13  1    3    3    0    0 -2.8768201898e+02 +3.9606318905e+01 -2.1295792591e+02 3.6011204194e+02 0.0000000000e+00 0.0000e+00 1.0000e+00
        3  1    3    3  501    0 +2.8768376837e+02 -3.9608834387e+01 -6.8391493129e+02 7.4301443027e+02 0.0000000000e+00 0.0000e+00 1.0000e+00
       21  1    1    2  502  501 -1.7493926111e-03 +2.5154818931e-03 +6.6645325393e-03 7.3351221960e-03 0.0000000000e+00 0.0000e+00 -1.0000e+00
<mgrwt>
<rscale>  1 0.64226715E+03</rscale>
<asrwt>0</asrwt>
<pdfrwt beam="1">  1        1 0.37503282E+00 0.64226715E+03</pdfrwt>
<pdfrwt beam="2">0</pdfrwt>
<totfact> 0.17282562E+00</totfact>
</mgrwt>
</event>
<event>
 6      1 +5.6466785e-02 6.35390000e+02 7.81860800e-03 9.83458700e-02
        1 -1    0    0  502    0 +0.0000000000e+00 +0.0000000000e+00 +1.0093030860e+02 1.0093030860e+02 0.0000000000e+00 0.0000e+00 1.0000e+00
       13 -1    0    0    0    0 -0.0000000000e+00 -0.0000000000e+00 -1.0000000000e+03 1.0000000000e+03 0.0000000000e+00 0.0000e+00 1.0000e+00
  9000005  2    1    2  501    0 -3.3327315194e-04 -2.3944762304e-05 -8.9906973782e+02 1.1009299713e+03 6.3538996541e+02 0.0000e+00 0.0000e+00
       13  1    3    3    0    0 -1.5318219596e+02 -3.7869783580e+01 +2.8231195241e+01 1.6029942624e+02 0.0000000000e+00 0.0000e+00 1.0000e+00
        1  1    3    3  501    0 +1.5318186269e+02 +3.7869759635e+01 -9.2730093306e+02 9.4063054501e+02 0.0000000000e+00 0.0000e+00 1.0000e+00
       21  1    1    2  502  501 +3.3327315193e-04 +2.3944762308e-05 +4.6416639335e-05 3.3734085114e-04 0.0000000000e+00 0.0000e+00 -1.0000e+00
<mgrwt>
<rscale>  1 0.63538997E+03</rscale>
<asrwt>0</asrwt>
<pdfrwt beam="1">  1        1 0.36702008E+00 0.63538997E+03</pdfrwt>
<pdfrwt beam="2">0</pdfrwt>
<totfact> 0.18765488E+00</totfact>
</mgrwt>
</event>
<event>
 6      1 +5.6466785e-02 5.99220700e+02 7.81860800e-03 9.90702400e-02
        1 -1    0    0  502    0 +0.0000000000e+00 +0.0000000000e+00 +8.9766508955e+01 8.9766508955e+01 0.0000000000e+00 0.0000e+00 1.0000e+00
       13 -1    0    0    0    0 -0.0000000000e+00 -0.0000000000e+00 -1.0000000000e+03 1.0000000000e+03 0.0000000000e+00 0.0000e+00 1.0000e+00
  9000005  2    1    2  501    0 -7.1904303809e-05 +1.8860889489e-04 -9.1023358011e+02 1.0897662883e+03 5.9922065452e+02 0.0000e+00 0.0000e+00
       13  1    3    3    0    0 +1.4111057924e+02 -1.7682362069e+00 -9.3577120132e+02 9.4635250486e+02 0.0000000000e+00 0.0000e+00 1.0000e+00
        1  1    3    3  501    0 -1.4111065114e+02 +1.7684248158e+00 +2.5537621206e+01 1.4341378347e+02 0.0000000000e+00 0.0000e+00 1.0000e+00
       21  1    1    2  502  501 +7.1904303793e-05 -1.8860889489e-04 +8.9068065530e-05 2.2062788679e-04 0.0000000000e+00 0.0000e+00 1.0000e+00
<mgrwt>
<rscale>  1 0.59922065E+03</rscale>
<asrwt>0</asrwt>
<pdfrwt beam="1">  1        1 0.32642436E+00 0.59922065E+03</pdfrwt>
<pdfrwt beam="2">0</pdfrwt>
<totfact> 0.28373850E+00</totfact>
</mgrwt>
</event>
<event>
 6      1 +5.6466785e-02 6.59849300e+02 7.81860800e-03 9.78847100e-02
        1 -1    0    0  502    0 +0.0000000000e+00 +0.0000000000e+00 +1.0885027735e+02 1.0885027735e+02 0.0000000000e+00 0.0000e+00 1.0000e+00
       13 -1    0    0    0    0 -0.0000000000e+00 -0.0000000000e+00 -1.0000000000e+03 1.0000000000e+03 0.0000000000e+00 0.0000e+00 1.0000e+00
  9000005  2    1    2  501    0 -1.2603448852e-05 -2.7869543999e-05 -8.9114970774e+02 1.1088502433e+03 6.5984927105e+02 0.0000e+00 0.0000e+00
       13  1    3    3    0    0 +2.2602314847e+02 +2.4009209729e+02 -4.2719881039e+02 5.3965683765e+02 0.0000000000e+00 0.0000e+00 1.0000e+00
        1  1    3    3  501    0 -2.2602316107e+02 -2.4009212516e+02 -4.6395089735e+02 5.6919340567e+02 0.0000000000e+00 0.0000e+00 1.0000e+00
       21  1    1    2  502  501 +1.2603448857e-05 +2.7869543994e-05 -1.4908618265e-05 3.4026832120e-05 0.0000000000e+00 0.0000e+00 -1.0000e+00
<mgrwt>
<rscale>  1 0.65984927E+03</rscale>
<asrwt>0</asrwt>
<pdfrwt beam="1">  1        1 0.39582003E+00 0.65984927E+03</pdfrwt>
<pdfrwt beam="2">0</pdfrwt>
<totfact> 0.13938724E+00</totfact>
</mgrwt>
</event>
<event>
 6      1 +5.6466785e-02 6.47243300e+02 7.81860800e-03 9.81196600e-02
        1 -1    0    0  502    0 +0.0000000000e+00 +0.0000000000e+00 +1.0722872459e+02 1.0722872459e+02 0.0000000000e+00 0.0000e+00 1.0000e+00
       13 -1    0    0    0    0 -0.0000000000e+00 -0.0000000000e+00 -1.0000000000e+03 1.0000000000e+03 0.0000000000e+00 0.0000e+00 1.0000e+00
  9000005  2    1    2  501    0 +2.1801724132e-01 -2.2065076652e-03 -8.9526378352e+02 1.1047266988e+03 6.4724322278e+02 0.0000e+00 0.0000e+00
       13  1    3    3    0    0 -8.4290975554e+01 -1.8626859482e+02 -8.7570219496e+02 8.9925262982e+02 0.0000000000e+00 0.0000e+00 1.0000e+00
        3  1    3    3  501    0 +8.4508992796e+01 +1.8626638831e+02 -1.9561588556e+01 2.0547406899e+02 0.0000000000e+00 0.0000e+00 1.0000e+00
       21  1    1    2  502  501 -2.1801724132e-01 +2.2065076653e-03 +2.4925081033e+00 2.5020257854e+00 0.0000000000e+00 0.0000e+00 1.0000e+00
<mgrwt>
<rscale>  1 0.64724326E+03</rscale>
<asrwt>0</asrwt>
<pdfrwt beam="1">  1        1 0.38992346E+00 0.64724326E+03</pdfrwt>
<pdfrwt beam="2">0</pdfrwt>
<totfact> 0.14839959E+00</totfact>
</mgrwt>
</event>
<event>
 6      1 +5.6466785e-02 6.33299100e+02 7.81860800e-03 9.83863200e-02
        1 -1    0    0  502    0 +0.0000000000e+00 +0.0000000000e+00 +1.0037677254e+02 1.0037677254e+02 0.0000000000e+00 0.0000e+00 1.0000e+00
       13 -1    0    0    0    0 -0.0000000000e+00 -0.0000000000e+00 -1.0000000000e+03 1.0000000000e+03 0.0000000000e+00 0.0000e+00 1.0000e+00
  9000005  2    1    2  501    0 -1.7790599779e-02 -5.8779450672e-03 -8.9973216896e+02 1.1002662316e+03 6.3329914269e+02 0.0000e+00 0.0000e+00
       13  1    3    3    0    0 -3.3067134526e+01 +1.5258945327e+02 +2.8742883839e+01 1.5875493695e+02 0.0000000000e+00 0.0000e+00 1.0000e+00
        3  1    3    3  501    0 +3.3049343926e+01 -1.5259533121e+02 -9.2847505280e+02 9.4151129463e+02 0.0000000000e+00 0.0000e+00 1.0000e+00
       21  1    1    2  502  501 +1.7790599779e-02 +5.8779450672e-03 +1.0894149864e-01 1.1054096890e-01 0.0000000000e+00 0.0000e+00 -1.0000e+00
<mgrwt>
<rscale>  1 0.63329914E+03</rscale>
<asrwt>0</asrwt>
<pdfrwt beam="1">  1        1 0.36500722E+00 0.63329914E+03</pdfrwt>
<pdfrwt beam="2">0</pdfrwt>
<totfact> 0.19157972E+00</totfact>
</mgrwt>
</event>
<event>
 6      1 +5.6466785e-02 6.51416100e+02 7.81860800e-03 9.80412600e-02
        3 -1    0    0  502    0 +0.0000000000e+00 +0.0000000000e+00 +1.1677485366e+02 1.1677485366e+02 0.0000000000e+00 0.0000e+00 1.0000e+00
       13 -1    0    0    0    0 -0.0000000000e+00 -0.0000000000e+00 -1.0000000000e+03 1.0000000000e+03 0.0000000000e+00 0.0000e+00 1.0000e+00
  9000005  2    1    2  501    0 -5.9005443123e-01 +8.4193898707e-01 -8.9388691914e+02 1.1060636248e+03 6.5141527520e+02 0.0000e+00 0.0000e+00
       13  1    3    3    0    0 -3.0741794912e+02 +8.8963613935e+01 -5.5380796022e+02 6.3962768611e+02 0.0000000000e+00 0.0000e+00 1.0000e+00
        3  1    3    3  501    0 +3.0682789468e+02 -8.8121674948e+01 -3.4007895892e+02 4.6643593864e+02 0.0000000000e+00 0.0000e+00 1.0000e+00
       21  1    1    2  502  501 +5.9005443123e-01 -8.4193898707e-01 +1.0661772796e+01 1.0711228904e+01 0.0000000000e+00 0.0000e+00 -1.0000e+00
<mgrwt>
<rscale>  1 0.65141609E+03</rscale>
<asrwt>0</asrwt>
<pdfrwt beam="1">  1        3 0.42463673E+00 0.65141609E+03</pdfrwt>
<pdfrwt beam="2">0</pdfrwt>
<totfact> 0.44084710E-02</totfact>
</mgrwt>
</event>
<event>
 6      1 +5.6466785e-02 6.58526600e+02 7.81860800e-03 9.79091000e-02
        1 -1    0    0  502    0 +0.0000000000e+00 +0.0000000000e+00 +1.0849701892e+02 1.0849701892e+02 0.0000000000e+00 0.0000e+00 1.0000e+00
       13 -1    0    0    0    0 -0.0000000000e+00 -0.0000000000e+00 -1.0000000000e+03 1.0000000000e+03 0.0000000000e+00 0.0000e+00 1.0000e+00
  9000005  2    1    2  501    0 +1.2938781349e-01 -9.5861592363e-02 -8.9148731991e+02 1.1083352292e+03 6.5852662263e+02 0.0000e+00 0.0000e+00
       13  1    3    3    0    0 -1.1970570071e+02 -2.6590079213e+02 -1.8835260360e+02 3.4714462306e+02 0.0000000000e+00 0.0000e+00 1.0000e+00
        1  1    3    3  501    0 +1.1983508853e+02 +2.6580493054e+02 -7.0313471631e+02 7.6119060610e+02 0.0000000000e+00 0.0000e+00 1.0000e+00
       21  1    1    2  502  501 -1.2938781349e-01 +9.5861592363e-02 -1.5661173587e-02 1.6178975100e-01 0.0000000000e+00 0.0000e+00 -1.0000e+00
<mgrwt>
<rscale>  1 0.65852664E+03</rscale>
<asrwt>0</asrwt>
<pdfrwt beam="1">  1        1 0.39453545E+00 0.65852664E+03</pdfrwt>
<pdfrwt beam="2">0</pdfrwt>
<totfact> 0.14126769E+00</totfact>
</mgrwt>
</event>
<event>
 6      1 +5.6466785e-02 6.47675200e+02 7.81860800e-03 9.81115100e-02
        1 -1    0    0  502    0 +0.0000000000e+00 +0.0000000000e+00 +1.0489113782e+02 1.0489113782e+02 0.0000000000e+00 0.0000e+00 1.0000e+00
       13 -1    0    0    0    0 -0.0000000000e+00 -0.0000000000e+00 -1.0000000000e+03 1.0000000000e+03 0.0000000000e+00 0.0000e+00 1.0000e+00
  9000005  2    1    2  501    0 +3.6614309591e-02 +6.1064852908e-03 -8.9510850694e+02 1.1048540161e+03 6.4767519351e+02 0.0000e+00 0.0000e+00
       13  1    3    3    0    0 -6.1552594283e+01 +4.0442966039e+01 +9.0395009228e+01 1.1660022752e+02 0.0000000000e+00 0.0000e+00 1.0000e+00
        3  1    3    3  501    0 +6.1589208593e+01 -4.0436859554e+01 -9.8550351617e+02 9.8825378856e+02 0.0000000000e+00 0.0000e+00 1.0000e+00
       21  1    1    2  502  501 -3.6614309591e-02 -6.1064852908e-03 -3.5524035316e-04 3.7121732518e-02 0.0000000000e+00 0.0000e+00 1.0000e+00
<mgrwt>
<rscale>  1 0.64767519E+03</rscale>
<asrwt>0</asrwt>
<pdfrwt beam="1">  1        1 0.38142312E+00 0.64767519E+03</pdfrwt>
<pdfrwt beam="2">0</pdfrwt>
<totfact> 0.16181003E+00</totfact>
</mgrwt>
</event>
<event>
 6      1 +5.6466785e-02 6.50902700e+02 7.81860800e-03 9.80508700e-02
        1 -1    0    0  502    0 +0.0000000000e+00 +0.0000000000e+00 +1.0592076823e+02 1.0592076823e+02 0.0000000000e+00 0.0000e+00 1.0000e+00
       13 -1    0    0    0    0 -0.0000000000e+00 -0.0000000000e+00 -1.0000000000e+03 1.0000000000e+03 0.0000000000e+00 0.0000e+00 1.0000e+00
  9000005  2    1    2  501    0 +1.1763512959e-03 -1.1232772010e-03 -8.9408107654e+02 1.1059183088e+03 6.5090270728e+02 0.0000e+00 0.0000e+00
       13  1    3    3    0    0 +1.1121833710e+02 +4.4447453602e+01 +6.7111898327e+01 1.3729203013e+02 0.0000000000e+00 0.0000e+00 1.0000e+00
        1  1    3    3  501    0 -1.1121716075e+02 -4.4448576879e+01 -9.6119297487e+02 9.6862627869e+02 0.0000000000e+00 0.0000e+00 1.0000e+00
       21  1    1    2  502  501 -1.1763512960e-03 +1.1232772010e-03 +1.8447740450e-03 2.4594197118e-03 0.0000000000e+00 0.0000e+00 -1.0000e+00
<mgrwt>
<rscale>  1 0.65090271E+03</rscale>
<asrwt>0</asrwt>
<pdfrwt beam="1">  1        1 0.38516724E+00 0.65090271E+03</pdfrwt>
<pdfrwt beam="2">0</pdfrwt>
<totfact> 0.15566826E+00</totfact>
</mgrwt>
</event>
<event>
 6      1 +5.6466785e-02 6.51946300e+02 7.81860800e-03 9.80313400e-02
        1 -1    0    0  502    0 +0.0000000000e+00 +0.0000000000e+00 +1.1996114964e+02 1.1996114964e+02 0.0000000000e+00 0.0000e+00 1.0000e+00
       13 -1    0    0    0    0 -0.0000000000e+00 -0.0000000000e+00 -1.0000000000e+03 1.0000000000e+03 0.0000000000e+00 0.0000e+00 1.0000e+00
  9000005  2    1    2  501    0 +1.6441629358e-01 -4.4363857864e-01 -8.9373700161e+02 1.1062548301e+03 6.5194608459e+02 0.0000e+00 0.0000e+00
       13  1    3    3    0    0 -1.3986389803e+02 -2.6285652626e+02 -2.2133599214e+02 3.7100550506e+02 0.0000000000e+00 0.0000e+00 1.0000e+00
        1  1    3    3  501    0 +1.4002831432e+02 +2.6241288768e+02 -6.7240100947e+02 7.3524932504e+02 0.0000000000e+00 0.0000e+00 1.0000e+00
       21  1    1    2  502  501 -1.6441629358e-01 +4.4363857864e-01 +1.3698151252e+01 1.3706319550e+01 0.0000000000e+00 0.0000e+00 1.0000e+00
<mgrwt>
<rscale>  1 0.65194626E+03</rscale>
<asrwt>0</asrwt>
<pdfrwt beam="1">  1        1 0.43622328E+00 0.65194626E+03</pdfrwt>
<pdfrwt beam="2">0</pdfrwt>
<totfact> 0.91839267E-01</totfact>
</mgrwt>
</event>
<event>
 6      1 +5.6466785e-02 5.96857900e+02 7.81860800e-03 9.91194700e-02
        1 -1    0    0  502    0 +0.0000000000e+00 +0.0000000000e+00 +8.9060265716e+01 8.9060265716e+01 0.0000000000e+00 0.0000e+00 1.0000e+00
       13 -1    0    0    0    0 -0.0000000000e+00 -0.0000000000e+00 -1.0000000000e+03 1.0000000000e+03 0.0000000000e+00 0.0000e+00 1.0000e+00
  9000005  2    1    2  501    0 -2.1022878466e-04 -6.7617582829e-04 -9.1093984615e+02 1.0890595488e+03 5.9685785376e+02 0.0000e+00 0.0000e+00
       13  1    3    3    0    0 -4.5354325410e+01 +2.5798443750e+02 -1.9455870058e+02 3.2629139247e+02 0.0000000000e+00 0.0000e+00 1.0000e+00
        1  1    3    3  501    0 +4.5354115181e+01 -2.5798511367e+02 -7.1638114557e+02 7.6276815637e+02 0.0000000000e+00 0.0000e+00 1.0000e+00
       21  1    1    2  502  501 +2.1022878466e-04 +6.7617582824e-04 +1.1186721940e-04 7.1688504475e-04 0.0000000000e+00 0.0000e+00 -1.0000e+00
<mgrwt>
<rscale>  1 0.59685785E+03</rscale>
<asrwt>0</asrwt>
<pdfrwt beam="1">  1        1 0.32385619E+00 0.59685785E+03</pdfrwt>
<pdfrwt beam="2">0</pdfrwt>
<totfact> 0.29121292E+00</totfact>
</mgrwt>
</event>
<event>
 6      1 +5.6466785e-02 6.46792000e+02 7.81860800e-03 9.81281700e-02
        1 -1    0    0  502    0 +0.0000000000e+00 +0.0000000000e+00 +1.0590658719e+02 1.0590658719e+02 0.0000000000e+00 0.0000e+00 1.0000e+00
       13 -1    0    0    0    0 -0.0000000000e+00 -0.0000000000e+00 -1.0000000000e+03 1.0000000000e+03 0.0000000000e+00 0.0000e+00 1.0000e+00
  9000005  2    1    2  501    0 +1.0295902219e-01 +1.4615549444e-01 -8.9540834125e+02 1.1045795609e+03 6.4679198881e+02 0.0000e+00 0.0000e+00
       13  1    3    3    0    0 +9.3475727723e+01 -2.9068576892e+01 +7.8679201115e+01 1.2559104476e+02 0.0000000000e+00 0.0000e+00 1.0000e+00
        3  1    3    3  501    0 -9.3372768701e+01 +2.9214732386e+01 -9.7408754237e+02 9.7898851613e+02 0.0000000000e+00 0.0000e+00 1.0000e+00
       21  1    1    2  502  501 -1.0295902219e-01 -1.4615549444e-01 +1.3149284393e+00 1.3270262956e+00 0.0000000000e+00 0.0000e+00 1.0000e+00
<mgrwt>
<rscale>  1 0.64679201E+03</rscale>
<asrwt>0</asrwt>
<pdfrwt beam="1">  1        1 0.38511567E+00 0.64679201E+03</pdfrwt>
<pdfrwt beam="2">0</pdfrwt>
<totfact> 0.15586859E+00</totfact>
</mgrwt>
</event>
<event>
 6      1 +5.6466785e-02 6.73729500e+02 7.81860800e-03 9.76324400e-02
        1 -1    0    0  502    0 +0.0000000000e+00 +0.0000000000e+00 +1.1347964564e+02 1.1347964564e+02 0.0000000000e+00 0.0000e+00 1.0000e+00
       13 -1    0    0    0    0 -0.0000000000e+00 -0.0000000000e+00 -1.0000000000e+03 1.0000000000e+03 0.0000000000e+00 0.0000e+00 1.0000e+00
  9000005  2    1    2  501    0 -1.4249943499e-03 -5.6019443929e-04 -8.8652176141e+02 1.1134775662e+03 6.7372951315e+02 0.0000e+00 0.0000e+00
       13  1    3    3    0    0 -2.2550051325e+02 -8.0381209980e+01 -5.1578340493e+01 2.4489170178e+02 0.0000000000e+00 0.0000e+00 1.0000e+00
        3  1    3    3  501    0 +2.2549908826e+02 +8.0380649786e+01 -8.3494342092e+02 8.6858586438e+02 0.0000000000e+00 0.0000e+00 1.0000e+00
       21  1    1    2  502  501 +1.4249943499e-03 +5.6019443928e-04 +1.4070495975e-03 2.0794747599e-03 0.0000000000e+00 0.0000e+00 1.0000e+00
<mgrwt>
<rscale>  1 0.67372951E+03</rscale>
<asrwt>0</asrwt>
<pdfrwt beam="1">  1        1 0.41265413E+00 0.67372951E+03</pdfrwt>
<pdfrwt beam="2">0</pdfrwt>
<totfact> 0.11690494E+00</totfact>
</mgrwt>
</event>
<event>
 6      1 +5.6466785e-02 6.72168900e+02 7.81860800e-03 9.76604800e-02
        1 -1    0    0  502    0 +0.0000000000e+00 +0.0000000000e+00 +1.1295276330e+02 1.1295276330e+02 0.0000000000e+00 0.0000e+00 1.0000e+00
       13 -1    0    0    0    0 -0.0000000000e+00 -0.0000000000e+00 -1.0000000000e+03 1.0000000000e+03 0.0000000000e+00 0.0000e+00 1.0000e+00
  9000005  2    1    2  501    0 -4.0861163484e-06 +7.3534727676e-06 -8.8704724306e+02 1.1129527528e+03 6.7216889131e+02 0.0000e+00 0.0000e+00
       13  1    3    3    0    0 -5.4021383535e+01 -2.4687888893e+02 -7.6686008562e+01 2.6409892008e+02 0.0000000000e+00 0.0000e+00 1.0000e+00
        3  1    3    3  501    0 +5.4021379448e+01 +2.4687889629e+02 -8.1036123450e+02 8.4885383267e+02 0.0000000000e+00 0.0000e+00 1.0000e+00
       21  1    1    2  502  501 +4.0861163529e-06 -7.3534727757e-06 +6.3558844439e-06 1.0543584579e-05 0.0000000000e+00 0.0000e+00 -1.0000e+00
<mgrwt>
<rscale>  1 0.67216889E+03</rscale>
<asrwt>0</asrwt>
<pdfrwt beam="1">  1        1 0.41073819E+00 0.67216889E+03</pdfrwt>
<pdfrwt beam="2">0</pdfrwt>
<totfact> 0.11927920E+00</totfact>
</mgrwt>
</event>
<event>
 6      1 +5.6466785e-02 6.70176500e+02 7.81860800e-03 9.76963900e-02
        1 -1    0    0  502    0 +0.0000000000e+00 +0.0000000000e+00 +1.1228504079e+02 1.1228504079e+02 0.0000000000e+00 0.0000e+00 1.0000e+00
       13 -1    0    0    0    0 -0.0000000000e+00 -0.0000000000e+00 -1.0000000000e+03 1.0000000000e+03 0.0000000000e+00 0.0000e+00 1.0000e+00
  9000005  2    1    2  501    0 -3.3740091396e-05 +5.3398036339e-05 -8.8771585122e+02 1.1122841465e+03 6.7017653655e+02 0.0000e+00 0.0000e+00
       13  1    3    3    0    0 +3.0101154793e+02 +1.5359319903e+01 -6.8687774657e+02 7.5009659340e+02 0.0000000000e+00 0.0000e+00 1.0000e+00
        1  1    3    3  501    0 -3.0101158167e+02 -1.5359266505e+01 -2.0083810465e+02 3.6218755314e+02 0.0000000000e+00 0.0000e+00 1.0000e+00
       21  1    1    2  502  501 +3.3740091383e-05 -5.3398036339e-05 +8.9201772987e-04 8.9425129268e-04 0.0000000000e+00 0.0000e+00 -1.0000e+00
<mgrwt>
<rscale>  1 0.67017654E+03</rscale>
<asrwt>0</asrwt>
<pdfrwt beam="1">  1        1 0.40831010E+00 0.67017654E+03</pdfrwt>
<pdfrwt beam="2">0</pdfrwt>
<totfact> 0.12235365E+00</totfact>
</mgrwt>
</event>
<event>
 6      1 +5.6466785e-02 6.53707000e+02 7.81860800e-03 9.79984800e-02
        1 -1    0    0  502    0 +0.0000000000e+00 +0.0000000000e+00 +1.0949558025e+02 1.0949558025e+02 0.0000000000e+00 0.0000e+00 1.0000e+00
       13 -1    0    0    0    0 -0.0000000000e+00 -0.0000000000e+00 -1.0000000000e+03 1.0000000000e+03 0.0000000000e+00 0.0000e+00 1.0000e+00
  9000005  2    1    2  501    0 +1.0974154244e+00 +2.2506226447e+00 -8.9249894102e+02 1.1062943714e+03 6.5370223104e+02 0.0000e+00 0.0000e+00
       13  1    3    3    0    0 -2.1494602290e+02 +2.4590508472e+02 -4.8385836308e+02 5.8377223210e+02 0.0000000000e+00 0.0000e+00 1.0000e+00
        1  1    3    3  501    0 +2.1604343832e+02 -2.4365446207e+02 -4.0864057795e+02 5.2252213932e+02 0.0000000000e+00 0.0000e+00 1.0000e+00
       21  1    1    2  502  501 -1.0974154244e+00 -2.2506226447e+00 +1.9945212685e+00 3.2012088331e+00 0.0000000000e+00 0.0000e+00 -1.0000e+00
<mgrwt>
<rscale>  1 0.65370703E+03</rscale>
<asrwt>0</asrwt>
<pdfrwt beam="1">  1        1 0.39816659E+00 0.65370703E+03</pdfrwt>
<pdfrwt beam="2">0</pdfrwt>
<totfact> 0.13623173E+00</totfact>
</mgrwt>
</event>
<event>
 6      1 +5.6466785e-02 6.50059600e+02 7.81860800e-03 9.80666700e-02
        1 -1    0    0  502    0 +0.0000000000e+00 +0.0000000000e+00 +1.0566103627e+02 1.0566103627e+02 0.0000000000e+00 0.0000e+00 1.0000e+00
       13 -1    0    0    0    0 -0.0000000000e+00 -0.0000000000e+00 -1.0000000000e+03 1.0000000000e+03 0.0000000000e+00 0.0000e+00 1.0000e+00
  9000005  2    1    2  501    0 +3.6503932364e-05 +8.6229527014e-04 -8.9435560439e+02 1.1056443732e+03 6.5005963803e+02 0.0000e+00 0.0000e+00
       13  1    3    3    0    0 +2.3778278256e+02 -5.9233072158e+01 -8.1035735652e+02 8.4659804735e+02 0.0000000000e+00 0.0000e+00 1.0000e+00
        1  1    3    3  501    0 -2.3778274606e+02 +5.9233934453e+01 -8.3998247868e+01 2.5904632589e+02 0.0000000000e+00 0.0000e+00 1.0000e+00
       21  1    1    2  502  501 -3.6503932351e-05 -8.6229527013e-04 +1.6640653153e-02 1.6663019625e-02 0.0000000000e+00 0.0000e+00 -1.0000e+00
<mgrwt>
<rscale>  1 0.65005964E+03</rscale>
<asrwt>0</asrwt>
<pdfrwt beam="1">  1        1 0.38422276E+00 0.65005964E+03</pdfrwt>
<pdfrwt beam="2">0</pdfrwt>
<totfact> 0.15719716E+00</totfact>
</mgrwt>
</event>
<event>
 6      1 +5.6466785e-02 6.61222500e+02 7.81860800e-03 9.78594600e-02
        1 -1    0    0  502    0 +0.0000000000e+00 +0.0000000000e+00 +1.0931301394e+02 1.0931301394e+02 0.0000000000e+00 0.0000e+00 1.0000e+00
       13 -1    0    0    0    0 -0.0000000000e+00 -0.0000000000e+00 -1.0000000000e+03 1.0000000000e+03 0.0000000000e+00 0.0000e+00 1.0000e+00
  9000005  2    1    2  501    0 +1.4447191332e-04 -4.9414991480e-05 -8.9069620810e+02 1.1093037906e+03 6.6122247755e+02 0.0000e+00 0.0000e+00
       13  1    3    3    0    0 -1.1776404323e+02 -2.2086627802e+02 -8.0771206678e+02 8.4560573878e+02 0.0000000000e+00 0.0000e+00 1.0000e+00
        1  1    3    3  501    0 +1.1776418770e+02 +2.2086622861e+02 -8.2984141320e+01 2.6369805186e+02 0.0000000000e+00 0.0000e+00 1.0000e+00
       21  1    1    2  502  501 -1.4447191333e-04 +4.9414991464e-05 +9.2220377979e-03 9.2233017473e-03 0.0000000000e+00 0.0000e+00 -1.0000e+00
<mgrwt>
<rscale>  1 0.66122248E+03</rscale>
<asrwt>0</asrwt>
<pdfrwt beam="1">  1        1 0.39750271E+00 0.66122248E+03</pdfrwt>
<pdfrwt beam="2">0</pdfrwt>
<totfact> 0.13696900E+00</totfact>
</mgrwt>
</event>
<event>
 6      1 +5.6466785e-02 6.54702400e+02 7.81860800e-03 9.79799500e-02
        1 -1    0    0  502    0 +0.0000000000e+00 +0.0000000000e+00 +1.0725144596e+02 1.0725144596e+02 0.0000000000e+00 0.0000e+00 1.0000e+00
       13 -1    0    0    0    0 -0.0000000000e+00 -0.0000000000e+00 -1.0000000000e+03 1.0000000000e+03 0.0000000000e+00 0.0000e+00 1.0000e+00
  9000005  2    1    2  501    0 +9.3652680857e-03 +4.8084464454e-03 -8.9284084717e+02 1.1071585543e+03 6.5470244079e+02 0.0000e+00 0.0000e+00
       13  1    3    3    0    0 +1.0893810844e+02 -2.9023202570e+01 -9.6613873178e+02 9.7269414864e+02 0.0000000000e+00 0.0000e+00 1.0000e+00
        1  1    3    3  501    0 -1.0892874318e+02 +2.9028011016e+01 +7.3297884609e+01 1.3446440570e+02 0.0000000000e+00 0.0000e+00 1.0000e+00
       21  1    1    2  502  501 -9.3652680857e-03 -4.8084464454e-03 +9.2293134396e-02 9.2891614585e-02 0.0000000000e+00 0.0000e+00 1.0000e+00
<mgrwt>
<rscale>  1 0.65470244E+03</rscale>
<asrwt>0</asrwt>
<pdfrwt beam="1">  1        1 0.39000608E+00 0.65470244E+03</pdfrwt>
<pdfrwt beam="2">0</pdfrwt>
<totfact> 0.14806850E+00</totfact>
</mgrwt>
</event>
<event>
 6      1 +5.6466785e-02 6.54707600e+02 7.81860800e-03 9.79798600e-02
        1 -1    0    0  502    0 +0.0000000000e+00 +0.0000000000e+00 +1.0725104624e+02 1.0725104624e+02 0.0000000000e+00 0.0000e+00 1.0000e+00
       13 -1    0    0    0    0 -0.0000000000e+00 -0.0000000000e+00 -1.0000000000e+03 1.0000000000e+03 0.0000000000e+00 0.0000e+00 1.0000e+00
  9000005  2    1    2  501    0 +3.8698486164e-03 +6.0197578050e-04 -8.9283944028e+02 1.1071604750e+03 6.5470760748e+02 0.0000e+00 0.0000e+00
       13  1    3    3    0    0 +2.8210403706e+02 -7.6682374073e+01 -1.9731836614e+02 3.5270017272e+02 0.0000000000e+00 0.0000e+00 1.0000e+00
        3  1    3    3  501    0 -2.8210016722e+02 +7.6682976049e+01 -6.9552107414e+02 7.5446030229e+02 0.0000000000e+00 0.0000e+00 1.0000e+00
       21  1    1    2  502  501 -3.8698486164e-03 -6.0197578050e-04 +9.0486519027e-02 9.0571232898e-02 0.0000000000e+00 0.0000e+00 -1.0000e+00
<mgrwt>
<rscale>  1 0.65470761E+03</rscale>
<asrwt>0</asrwt>
<pdfrwt beam="1">  1        1 0.39000463E+00 0.65470761E+03</pdfrwt>
<pdfrwt beam="2">0</pdfrwt>
<totfact> 0.14807055E+00</totfact>
</mgrwt>
</event>
<event>
 6      1 +5.6466785e-02 6.43959300e+02 7.81860800e-03 9.81818100e-02
        1 -1    0    0  502    0 +0.0000000000e+00 +0.0000000000e+00 +1.0383244622e+02 1.0383244622e+02 0.0000000000e+00 0.0000e+00 1.0000e+00
       13 -1    0    0    0    0 -0.0000000000e+00 -0.0000000000e+00 -1.0000000000e+03 1.0000000000e+03 0.0000000000e+00 0.0000e+00 1.0000e+00
  9000005  2    1    2  501    0 -3.4997244873e-02 -9.4687078771e-02 -8.9631151824e+02 1.1036566161e+03 6.4395929873e+02 0.0000e+00 0.0000e+00
       13  1    3    3    0    0 +2.3415392129e+02 -1.5546103972e+02 -1.7891788056e+02 3.3317833319e+02 0.0000000000e+00 0.0000e+00 1.0000e+00
        3  1    3    3  501    0 -2.3418891854e+02 +1.5536635264e+02 -7.1739363769e+02 7.7047828295e+02 0.0000000000e+00 0.0000e+00 1.0000e+00
       21  1    1    2  502  501 +3.4997244873e-02 +9.4687078771e-02 +1.4396446727e-01 1.7583008239e-01 0.0000000000e+00 0.0000e+00 -1.0000e+00
<mgrwt>
<rscale>  1 0.64395931E+03</rscale>
<asrwt>0</asrwt>
<pdfrwt beam="1">  1        1 0.37757333E+00 0.64395931E+03</pdfrwt>
<pdfrwt beam="2">0</pdfrwt>
<totfact> 0.16837747E+00</totfact>
</mgrwt>
</event>
<event>
 6      1 +5.6466785e-02 6.68985900e+02 7.81860800e-03 9.77179100e-02
        1 -1    0    0  502    0 +0.0000000000e+00 +0.0000000000e+00 +1.1193516313e+02 1.1193516313e+02 0.0000000000e+00 0.0000e+00 1.0000e+00
       13 -1    0    0    0    0 -0.0000000000e+00 -0.0000000000e+00 -1.0000000000e+03 1.0000000000e+03 0.0000000000e+00 0.0000e+00 1.0000e+00
  9000005  2    1    2  501    0 +7.1379141011e-02 -1.2803008275e-01 -8.8790553077e+02 1.1117186796e+03 6.6898592624e+02 0.0000e+00 0.0000e+00
       13  1    3    3    0    0 -2.5160337160e+01 +3.1374812435e+02 -6.3167934230e+02 7.0575471631e+02 0.0000000000e+00 0.0000e+00 1.0000e+00
        1  1    3    3  501    0 +2.5231716301e+01 -3.1387615444e+02 -2.5622618848e+02 4.0596396329e+02 0.0000000000e+00 0.0000e+00 1.0000e+00
       21  1    1    2  502  501 -7.1379141011e-02 +1.2803008275e-01 -1.5930609992e-01 2.1648352670e-01 0.0000000000e+00 0.0000e+00 -1.0000e+00
<mgrwt>
<rscale>  1 0.66898594E+03</rscale>
<asrwt>0</asrwt>
<pdfrwt beam="1">  1        1 0.40703782E+00 0.66898594E+03</pdfrwt>
<pdfrwt beam="2">0</pdfrwt>
<totfact> 0.12399767E+00</totfact>
</mgrwt>
</event>
<event>
 6      1 +5.6466785e-02 6.32070900e+02 7.81860800e-03 9.84101600e-02
        1 -1    0    0  502    0 +0.0000000000e+00 +0.0000000000e+00 +1.0196394170e+02 1.0196394170e+02 0.0000000000e+00 0.0000e+00 1.0000e+00
       13 -1    0    0    0    0 -0.0000000000e+00 -0.0000000000e+00 -1.0000000000e+03 1.0000000000e+03 0.0000000000e+00 0.0000e+00 1.0000e+00
  9000005  2    1    2  501    0 -9.7947352242e-02 +3.3114034257e-02 -9.0012020027e+02 1.0998772366e+03 6.3207084260e+02 0.0000e+00 0.0000e+00
       13  1    3    3    0    0 -2.4609912810e+02 +1.9585650093e+02 -3.9553180929e+02 5.0534143108e+02 0.0000000000e+00 0.0000e+00 1.0000e+00
        3  1    3    3  501    0 +2.4600118075e+02 -1.9582338689e+02 -5.0458839098e+02 5.9453580557e+02 0.0000000000e+00 0.0000e+00 1.0000e+00
       21  1    1    2  502  501 +9.7947352242e-02 -3.3114034257e-02 +2.0841419754e+00 2.0867050574e+00 0.0000000000e+00 0.0000e+00 1.0000e+00
<mgrwt>
<rscale>  1 0.63207085E+03</rscale>
<asrwt>0</asrwt>
<pdfrwt beam="1">  1        1 0.37077875E+00 0.63207085E+03</pdfrwt>
<pdfrwt beam="2">0</pdfrwt>
<totfact> 0.18076976E+00</totfact>
</mgrwt>
</event>
<event>
 6      1 +5.6466785e-02 6.58534100e+02 7.81860800e-03 9.79089600e-02
        1 -1    0    0  502    0 +0.0000000000e+00 +0.0000000000e+00 +1.1668533826e+02 1.1668533826e+02 0.0000000000e+00 0.0000e+00 1.0000e+00
       13 -1    0    0    0    0 -0.0000000000e+00 -0.0000000000e+00 -1.0000000000e+03 1.0000000000e+03 0.0000000000e+00 0.0000e+00 1.0000e+00
  9000005  2    1    2  501    0 -8.6591123997e+00 -3.1056837444e+00 -8.8864396311e+02 1.1060539248e+03 6.5846986711e+02 0.0000e+00 0.0000e+00
       13  1    3    3    0    0 -1.4948777584e+02 -2.1796968547e+02 -1.1028028189e+02 2.8638980339e+02 0.0000000000e+00 0.0000e+00 1.0000e+00
        3  1    3    3  501    0 +1.4082866344e+02 +2.1486400173e+02 -7.7836368122e+02 8.1966412141e+02 0.0000000000e+00 0.0000e+00 1.0000e+00
       21  1    1    2  502  501 +8.6591123997e+00 +3.1056837444e+00 +5.3293013676e+00 1.0631413459e+01 0.0000000000e+00 0.0000e+00 1.0000e+00
<mgrwt>
<rscale>  1 0.65853412E+03</rscale>
<asrwt>0</asrwt>
<pdfrwt beam="1">  1        1 0.42431122E+00 0.65853412E+03</pdfrwt>
<pdfrwt beam="2">0</pdfrwt>
<totfact> 0.10388475E+00</totfact>
</mgrwt>
</event>
<event>
 6      1 +5.6466785e-02 7.11714900e+02 7.81860800e-03 9.69740500e-02
        1 -1    0    0  502    0 +0.0000000000e+00 +0.0000000000e+00 +1.2663482973e+02 1.2663482973e+02 0.0000000000e+00 0.0000e+00 1.0000e+00
       13 -1    0    0    0    0 -0.0000000000e+00 -0.0000000000e+00 -1.0000000000e+03 1.0000000000e+03 0.0000000000e+00 0.0000e+00 1.0000e+00
  9000005  2    1    2  501    0 +7.4925795360e-05 -7.3930367847e-05 -8.7336545837e+02 1.1266345230e+03 7.1171491804e+02 0.0000e+00 0.0000e+00
       13  1    3    3    0    0 -1.3594391600e+02 +1.3533170791e+02 +3.7788293045e+01 1.9550799103e+02 0.0000000000e+00 0.0000e+00 1.0000e+00
        3  1    3    3  501    0 +1.3594399093e+02 -1.3533178184e+02 -9.1115375141e+02 9.3112653198e+02 0.0000000000e+00 0.0000e+00 1.0000e+00
       21  1    1    2  502  501 -7.4925795354e-05 +7.3930367867e-05 +2.8809989312e-04 3.0672646205e-04 0.0000000000e+00 0.0000e+00 1.0000e+00
<mgrwt>
<rscale>  1 0.71171492E+03</rscale>
<asrwt>0</asrwt>
<pdfrwt beam="1">  1        1 0.46049126E+00 0.71171492E+03</pdfrwt>
<pdfrwt beam="2">0</pdfrwt>
<totfact> 0.70161536E-01</totfact>
</mgrwt>
</event>
<event>
 6      1 +5.6466785e-02 6.50499900e+02 7.81860800e-03 9.80584200e-02
        1 -1    0    0  502    0 +0.0000000000e+00 +0.0000000000e+00 +1.0578784848e+02 1.0578784848e+02 0.0000000000e+00 0.0000e+00 1.0000e+00
       13 -1    0    0    0    0 -0.0000000000e+00 -0.0000000000e+00 -1.0000000000e+03 1.0000000000e+03 0.0000000000e+00 0.0000e+00 1.0000e+00
  9000005  2    1    2  501    0 -5.2879758591e-05 +3.9125462763e-05 -8.9421245735e+02 1.1057875357e+03 6.5049992707e+02 0.0000e+00 0.0000e+00
       13  1    3    3    0    0 -3.5729140221e+01 -2.8378235568e+02 -1.8387599313e+02 3.4002849543e+02 0.0000000000e+00 0.0000e+00 1.0000e+00
        3  1    3    3  501    0 +3.5729087342e+01 +2.8378239480e+02 -7.1033646422e+02 7.6575904023e+02 0.0000000000e+00 0.0000e+00 1.0000e+00
       21  1    1    2  502  501 +5.2879758593e-05 -3.9125462783e-05 +3.0583221422e-04 3.1282649178e-04 0.0000000000e+00 0.0000e+00 -1.0000e+00
<mgrwt>
<rscale>  1 0.65049993E+03</rscale>
<asrwt>0</asrwt>
<pdfrwt beam="1">  1        1 0.38468390E+00 0.65049993E+03</pdfrwt>
<pdfrwt beam="2">0</pdfrwt>
<totfact> 0.15644808E+00</totfact>
</mgrwt>
</event>
<event>
 6      1 +5.6466785e-02 6.32757100e+02 7.81860800e-03 9.83968300e-02
        1 -1    0    0  502    0 +0.0000000000e+00 +0.0000000000e+00 +1.0030522117e+02 1.0030522117e+02 0.0000000000e+00 0.0000e+00 1.0000e+00
       13 -1    0    0    0    0 -0.0000000000e+00 -0.0000000000e+00 -1.0000000000e+03 1.0000000000e+03 0.0000000000e+00 0.0000e+00 1.0000e+00
  9000005  2    1    2  501    0 +6.9031873520e-02 -5.1329449302e-02 -8.9989488592e+02 1.1000874071e+03 6.3275705466e+02 0.0000e+00 0.0000e+00
       13  1    3    3    0    0 -2.0817455860e+02 +2.2879946329e+02 -3.3478311236e+02 4.5581309061e+02 0.0000000000e+00 0.0000e+00 1.0000e+00
        3  1    3    3  501    0 +2.0824359047e+02 -2.2885079274e+02 -5.6511177355e+02 6.4427431651e+02 0.0000000000e+00 0.0000e+00 1.0000e+00
       21  1    1    2  502  501 -6.9031873520e-02 +5.1329449302e-02 +2.0010708621e-01 2.1781404427e-01 0.0000000000e+00 0.0000e+00 1.0000e+00
<mgrwt>
<rscale>  1 0.63275706E+03</rscale>
<asrwt>0</asrwt>
<pdfrwt beam="1">  1        1 0.36474703E+00 0.63275706E+03</pdfrwt>
<pdfrwt beam="2">0</pdfrwt>
<totfact> 0.19210222E+00</totfact>
</mgrwt>
</event>
<event>
 6      1 +5.6466785e-02 6.45734600e+02 7.81860800e-03 9.81481600e-02
        1 -1    0    0  502    0 +0.0000000000e+00 +0.0000000000e+00 +1.0525853922e+02 1.0525853922e+02 0.0000000000e+00 0.0000e+00 1.0000e+00
       13 -1    0    0    0    0 -0.0000000000e+00 -0.0000000000e+00 -1.0000000000e+03 1.0000000000e+03 0.0000000000e+00 0.0000e+00 1.0000e+00
  9000005  2    1    2  501    0 +9.7208311997e-03 -1.7163529672e-02 -8.9575661321e+02 1.1042431952e+03 6.4573456124e+02 0.0000e+00 0.0000e+00
       13  1    3    3    0    0 -7.8870928449e+00 -3.0158337444e+02 -6.4461011400e+02 7.1171408377e+02 0.0000000000e+00 0.0000e+00 1.0000e+00
        1  1    3    3  501    0 +7.8968136761e+00 +3.0156621091e+02 -2.5114649921e+02 3.9252911140e+02 0.0000000000e+00 0.0000e+00 1.0000e+00
       21  1    1    2  502  501 -9.7208311997e-03 +1.7163529672e-02 +1.0151524346e+00 1.0153440534e+00 0.0000000000e+00 0.0000e+00 -1.0000e+00
<mgrwt>
<rscale>  1 0.64573456E+03</rscale>
<asrwt>0</asrwt>
<pdfrwt beam="1">  1        1 0.38275913E+00 0.64573456E+03</pdfrwt>
<pdfrwt beam="2">0</pdfrwt>
<totfact> 0.15968362E+00</totfact>
</mgrwt>
</event>
<event>
 6      1 +5.6466785e-02 6.43700100e+02 7.81860800e-03 9.81867300e-02
        1 -1    0    0  502    0 +0.0000000000e+00 +0.0000000000e+00 +1.0409871143e+02 1.0409871143e+02 0.0000000000e+00 0.0000e+00 1.0000e+00
       13 -1    0    0    0    0 -0.0000000000e+00 -0.0000000000e+00 -1.0000000000e+03 1.0000000000e+03 0.0000000000e+00 0.0000e+00 1.0000e+00
  9000005  2    1    2  501    0 +4.0674933581e-02 -1.3762948287e-02 -8.9641154229e+02 1.1035866541e+03 6.4370012280e+02 0.0000e+00 0.0000e+00
       13  1    3    3    0    0 -7.5348940808e+01 -2.4667130202e+01 -9.8298165316e+02 9.8617384910e+02 0.0000000000e+00 0.0000e+00 1.0000e+00
        3  1    3    3  501    0 +7.5389615741e+01 +2.4653367253e+01 +8.6570110875e+01 1.1741280499e+02 0.0000000000e+00 0.0000e+00 1.0000e+00
       21  1    1    2  502  501 -4.0674933581e-02 +1.3762948287e-02 +5.1025371952e-01 5.1205734762e-01 0.0000000000e+00 0.0000e+00 -1.0000e+00
<mgrwt>
<rscale>  1 0.64370012E+03</rscale>
<asrwt>0</asrwt>
<pdfrwt beam="1">  1        1 0.37854157E+00 0.64370012E+03</pdfrwt>
<pdfrwt beam="2">0</pdfrwt>
<totfact> 0.16673881E+00</totfact>
</mgrwt>
</event>
<event>
 6      1 +5.6466785e-02 6.68840600e+02 7.81860800e-03 9.77205500e-02
        1 -1    0    0  502    0 +0.0000000000e+00 +0.0000000000e+00 +1.2520705239e+02 1.2520705239e+02 0.0000000000e+00 0.0000e+00 1.0000e+00
       13 -1    0    0    0    0 -0.0000000000e+00 -0.0000000000e+00 -1.0000000000e+03 1.0000000000e+03 0.0000000000e+00 0.0000e+00 1.0000e+00
  9000005  2    1    2  501    0 -3.1455813563e+00 -1.0660423872e+01 -8.8554233800e+02 1.1097445586e+03 6.6874824390e+02 0.0000e+00 0.0000e+00
       13  1    3    3    0    0 +2.6483350379e+01 +2.6928914064e+02 -1.2363974469e+02 2.9749755559e+02 0.0000000000e+00 0.0000e+00 1.0000e+00
        3  1    3    3  501    0 -2.9628931736e+01 -2.7994956451e+02 -7.6190259331e+02 8.1224700305e+02 0.0000000000e+00 0.0000e+00 1.0000e+00
       21  1    1    2  502  501 +3.1455813563e+00 +1.0660423872e+01 +1.0749390397e+01 1.5462493754e+01 0.0000000000e+00 0.0000e+00 -1.0000e+00
<mgrwt>
<rscale>  1 0.66884060E+03</rscale>
<asrwt>0</asrwt>
<pdfrwt beam="1">  1        1 0.45529933E+00 0.66884060E+03</pdfrwt>
<pdfrwt beam="2">0</pdfrwt>
<totfact> 0.74804386E-01</totfact>
</mgrwt>
</event>
<event>
 6      1 +5.6466785e-02 6.39107900e+02 7.81860800e-03 9.82743500e-02
        1 -1    0    0  502    0 +0.0000000000e+00 +0.0000000000e+00 +1.0221270295e+02 1.0221270295e+02 0.0000000000e+00 0.0000e+00 1.0000e+00
       13 -1    0    0    0    0 -0.0000000000e+00 -0.0000000000e+00 -1.0000000000e+03 1.0000000000e+03 0.0000000000e+00 0.0000e+00 1.0000e+00
  9000005  2    1    2  501    0 -4.2059402386e-04 +3.4279316772e-03 -8.9788524787e+02 1.1021146913e+03 6.3910787379e+02 0.0000e+00 0.0000e+00
       13  1    3    3    0    0 +2.2945398109e+02 +8.2105910775e+00 -6.5669870258e+01 2.3880761107e+02 0.0000000000e+00 0.0000e+00 1.0000e+00
        3  1    3    3  501    0 -2.2945440168e+02 -8.2071631459e+00 -8.3221537761e+02 8.6330708020e+02 0.0000000000e+00 0.0000e+00 1.0000e+00
       21  1    1    2  502  501 +4.2059402388e-04 -3.4279316772e-03 +9.7950824601e-02 9.8011691420e-02 0.0000000000e+00 0.0000e+00 -1.0000e+00
<mgrwt>
<rscale>  1 0.63910787E+03</rscale>
<asrwt>0</asrwt>
<pdfrwt beam="1">  1        1 0.37168334E+00 0.63910787E+03</pdfrwt>
<pdfrwt beam="2">0</pdfrwt>
<totfact> 0.17889222E+00</totfact>
</mgrwt>
</event>
<event>
 6      1 +5.6466785e-02 6.40048700e+02 7.81860800e-03 9.82563300e-02
        1 -1    0    0  502    0 +0.0000000000e+00 +0.0000000000e+00 +1.0242143341e+02 1.0242143341e+02 0.0000000000e+00 0.0000e+00 1.0000e+00
       13 -1    0    0    0    0 -0.0000000000e+00 -0.0000000000e+00 -1.0000000000e+03 1.0000000000e+03 0.0000000000e+00 0.0000e+00 1.0000e+00
  9000005  2    1    2  501    0 +1.7739191216e-04 -1.8915602055e-04 -8.9758442723e+02 1.1024155670e+03 6.4004865317e+02 0.0000e+00 0.0000e+00
       13  1    3    3    0    0 +1.4179981699e+02 +8.0702059235e+01 +2.5399803191e+01 1.6512165353e+02 0.0000000000e+00 0.0000e+00 1.0000e+00
        1  1    3    3  501    0 -1.4179963959e+02 -8.0702248391e+01 -9.2298423042e+02 9.3729391351e+02 0.0000000000e+00 0.0000e+00 1.0000e+00
       21  1    1    2  502  501 -1.7739191216e-04 +1.8915602055e-04 +5.8606400430e-03 5.8663744855e-03 0.0000000000e+00 0.0000e+00 -1.0000e+00
<mgrwt>
<rscale>  1 0.64004865E+03</rscale>
<asrwt>0</asrwt>
<pdfrwt beam="1">  1        1 0.37244236E+00 0.64004865E+03</pdfrwt>
<pdfrwt beam="2">0</pdfrwt>
<totfact> 0.17749263E+00</totfact>
</mgrwt>
</event>
<event>
 6      1 +5.6466785e-02 6.23775300e+02 7.81860800e-03 9.85727200e-02
        1 -1    0    0  502    0 +0.0000000000e+00 +0.0000000000e+00 +1.0099384402e+02 1.0099384402e+02 0.0000000000e+00 0.0000e+00 1.0000e+00
       13 -1    0    0    0    0 -0.0000000000e+00 -0.0000000000e+00 -1.0000000000e+03 1.0000000000e+03 0.0000000000e+00 0.0000e+00 1.0000e+00
  9000005  2    1    2  501    0 +1.2120131003e-01 +3.7250682169e-02 -9.0272490804e+02 1.0972729309e+03 6.2377528749e+02 0.0000e+00 0.0000e+00
       13  1    3    3    0    0 -1.1264696138e+02 -2.1646024586e+02 -7.9289967929e+02 8.2959886533e+02 0.0000000000e+00 0.0000e+00 1.0000e+00
        3  1    3    3  501    0 +1.1276816269e+02 +2.1649749654e+02 -1.0982522875e+02 2.6767406560e+02 0.0000000000e+00 0.0000e+00 1.0000e+00
       21  1    1    2  502  501 -1.2120131003e-01 -3.7250682169e-02 +3.7187520608e+00 3.7209130950e+00 0.0000000000e+00 0.0000e+00 1.0000e+00
<mgrwt>
<rscale>  1 0.62377530E+03</rscale>
<asrwt>0</asrwt>
<pdfrwt beam="1">  1        1 0.36725112E+00 0.62377530E+03</pdfrwt>
<pdfrwt beam="2">0</pdfrwt>
<totfact> 0.18761628E+00</totfact>
</mgrwt>
</event>
<event>
 6      1 +5.6466785e-02 6.42034000e+02 7.81860800e-03 9.82184300e-02
        1 -1    0    0  502    0 +0.0000000000e+00 +0.0000000000e+00 +1.0775861322e+02 1.0775861322e+02 0.0000000000e+00 0.0000e+00 1.0000e+00
       13 -1    0    0    0    0 -0.0000000000e+00 -0.0000000000e+00 -1.0000000000e+03 1.0000000000e+03 0.0000000000e+00 0.0000e+00 1.0000e+00
  9000005  2    1    2  501    0 -3.2469341962e+00 +6.1985343565e-01 -8.9629951814e+02 1.1025245679e+03 6.4202544331e+02 0.0000e+00 0.0000e+00
       13  1    3    3    0    0 -2.2224098477e+02 +1.9600835725e+02 -2.3220738618e+02 3.7647124939e+02 0.0000000000e+00 0.0000e+00 1.0000e+00
        1  1    3    3  501    0 +2.1899405057e+02 -1.9538850382e+02 -6.6409213197e+02 7.2605331853e+02 0.0000000000e+00 0.0000e+00 1.0000e+00
       21  1    1    2  502  501 +3.2469341962e+00 -6.1985343565e-01 +4.0581313631e+00 5.2340452918e+00 0.0000000000e+00 0.0000e+00 1.0000e+00
<mgrwt>
<rscale>  1 0.64203395E+03</rscale>
<asrwt>0</asrwt>
<pdfrwt beam="1">  1        1 0.39185033E+00 0.64203395E+03</pdfrwt>
<pdfrwt beam="2">0</pdfrwt>
<totfact> 0.14565077E+00</totfact>
</mgrwt>
</event>
<event>
 6      1 +5.6466785e-02 6.45151000e+02 7.81860800e-03 9.81592100e-02
        1 -1    0    0  502    0 +0.0000000000e+00 +0.0000000000e+00 +1.0405494369e+02 1.0405494369e+02 0.0000000000e+00 0.0000e+00 1.0000e+00
       13 -1    0    0    0    0 -0.0000000000e+00 -0.0000000000e+00 -1.0000000000e+03 1.0000000000e+03 0.0000000000e+00 0.0000e+00 1.0000e+00
  9000005  2    1    2  501    0 +8.6295865174e-06 +1.1470865559e-05 -8.9594504807e+02 1.1040549271e+03 6.4515095365e+02 0.0000e+00 0.0000e+00
       13  1    3    3    0    0 +1.8401628176e+02 -2.2333771761e+02 -2.0406869902e+02 3.5409852016e+02 0.0000000000e+00 0.0000e+00 1.0000e+00
        1  1    3    3  501    0 -1.8401627313e+02 +2.2333772908e+02 -6.9187634905e+02 7.4995640699e+02 0.0000000000e+00 0.0000e+00 1.0000e+00
       21  1    1    2  502  501 -8.6295865168e-06 -1.1470865564e-05 -8.2359976699e-06 1.6549386027e-05 0.0000000000e+00 0.0000e+00 1.0000e+00
<mgrwt>
<rscale>  1 0.64515095E+03</rscale>
<asrwt>0</asrwt>
<pdfrwt beam="1">  1        1 0.37838241E+00 0.64515095E+03</pdfrwt>
<pdfrwt beam="2">0</pdfrwt>
<totfact> 0.16696393E+00</totfact>
</mgrwt>
</event>
<event>
 6      1 +5.6466785e-02 6.46583600e+02 7.81860800e-03 9.81321100e-02
        1 -1    0    0  502    0 +0.0000000000e+00 +0.0000000000e+00 +1.0476889966e+02 1.0476889966e+02 0.0000000000e+00 0.0000e+00 1.0000e+00
       13 -1    0    0    0    0 -0.0000000000e+00 -0.0000000000e+00 -1.0000000000e+03 1.0000000000e+03 0.0000000000e+00 0.0000e+00 1.0000e+00
  9000005  2    1    2  501    0 +2.2606798734e-01 -1.5194065360e-01 -8.9539823263e+02 1.1044493282e+03 6.4658352084e+02 0.0000e+00 0.0000e+00
       13  1    3    3    0    0 +4.2554962929e+01 +2.5916881619e+02 -1.2576078038e+02 2.9119610924e+02 0.0000000000e+00 0.0000e+00 1.0000e+00
        1  1    3    3  501    0 -4.2328894942e+01 -2.5932075685e+02 -7.6963745225e+02 8.1325321899e+02 0.0000000000e+00 0.0000e+00 1.0000e+00
       21  1    1    2  502  501 -2.2606798734e-01 +1.5194065360e-01 +1.6713229777e-01 3.1957143501e-01 0.0000000000e+00 0.0000e+00 1.0000e+00
<mgrwt>
<rscale>  1 0.64658358E+03</rscale>
<asrwt>0</asrwt>
<pdfrwt beam="1">  1        1 0.38097862E+00 0.64658358E+03</pdfrwt>
<pdfrwt beam="2">0</pdfrwt>
<totfact> 0.16257549E+00</totfact>
</mgrwt>
</event>
<event>
 6      1 +5.6466785e-02 6.45790800e+02 7.81860800e-03 9.81471000e-02
        1 -1    0    0  502    0 +0.0000000000e+00 +0.0000000000e+00 +1.0426144351e+02 1.0426144351e+02 0.0000000000e+00 0.0000e+00 1.0000e+00
       13 -1    0    0    0    0 -0.0000000000e+00 -0.0000000000e+00 -1.0000000000e+03 1.0000000000e+03 0.0000000000e+00 0.0000e+00 1.0000e+00
  9000005  2    1    2  501    0 -1.4853498456e-05 -3.5381654868e-05 -8.9573850356e+02 1.1042613781e+03 6.4579077454e+02 0.0000e+00 0.0000e+00
       13  1    3    3    0    0 -6.4587891993e+01 -2.2973277066e+02 -8.1980586188e+02 8.5383276634e+02 0.0000000000e+00 0.0000e+00 1.0000e+00
        1  1    3    3  501    0 +6.4587877139e+01 +2.2973273528e+02 -7.5932641685e+01 2.5042861180e+02 0.0000000000e+00 0.0000e+00 1.0000e+00
       21  1    1    2  502  501 +1.4853498465e-05 +3.5381654866e-05 -5.2926774013e-05 6.5373781634e-05 0.0000000000e+00 0.0000e+00 1.0000e+00
<mgrwt>
<rscale>  1 0.64579077E+03</rscale>
<asrwt>0</asrwt>
<pdfrwt beam="1">  1        1 0.37913332E+00 0.64579077E+03</pdfrwt>
<pdfrwt beam="2">0</pdfrwt>
<totfact> 0.16567632E+00</totfact>
</mgrwt>
</event>
<event>
 6      1 +5.6466785e-02 5.10004500e+02 7.81860800e-03 1.01120000e-01
        1 -1    0    0  502    0 +0.0000000000e+00 +0.0000000000e+00 +6.6879465443e+01 6.6879465443e+01 0.0000000000e+00 0.0000e+00 1.0000e+00
       13 -1    0    0    0    0 -0.0000000000e+00 -0.0000000000e+00 -1.0000000000e+03 1.0000000000e+03 0.0000000000e+00 0.0000e+00 1.0000e+00
  9000005  2    1    2  501    0 -1.9952664524e+00 -6.5010051608e+00 -9.2505974344e+02 1.0563333520e+03 5.0995919185e+02 0.0000e+00 0.0000e+00
       13  1    3    3    0    0 -7.2013888839e+01 +1.5525275908e+02 -8.4603405835e+02 8.6317034662e+02 0.0000000000e+00 0.0000e+00 1.0000e+00
        3  1    3    3  501    0 +7.0018622386e+01 -1.6175376424e+02 -7.9025685090e+01 1.9316300534e+02 0.0000000000e+00 0.0000e+00 1.0000e+00
       21  1    1    2  502  501 +1.9952664524e+00 +6.5010051608e+00 -8.0607911177e+00 1.0546113491e+01 0.0000000000e+00 0.0000e+00 1.0000e+00
<mgrwt>
<rscale>  1 0.51000453E+03</rscale>
<asrwt>0</asrwt>
<pdfrwt beam="1">  1        1 0.24319857E+00 0.51000453E+03</pdfrwt>
<pdfrwt beam="2">0</pdfrwt>
<totfact> 0.66008325E+00</totfact>
</mgrwt>
</event>
<event>
 6      1 +5.6466785e-02 6.59351000e+02 7.81860800e-03 9.78938900e-02
        1 -1    0    0  502    0 +0.0000000000e+00 +0.0000000000e+00 +1.2162550581e+02 1.2162550581e+02 0.0000000000e+00 0.0000e+00 1.0000e+00
       13 -1    0    0    0    0 -0.0000000000e+00 -0.0000000000e+00 -1.0000000000e+03 1.0000000000e+03 0.0000000000e+00 0.0000e+00 1.0000e+00
  9000005  2    1    2  501    0 +3.6697756815e+01 +8.9593443140e+00 -8.3865254467e+02 1.0668091900e+03 6.5826800162e+02 0.0000e+00 0.0000e+00
       13  1    3    3    0    0 +2.2999679381e+02 +1.9961575909e+02 -6.9688295899e+02 7.6052010820e+02 0.0000000000e+00 0.0000e+00 1.0000e+00
        3  1    3    3  501    0 -1.9329903700e+02 -1.9065641478e+02 -1.4176958568e+02 3.0628908179e+02 0.0000000000e+00 0.0000e+00 1.0000e+00
       21  1    1    2  502  501 -3.6697756815e+01 -8.9593443140e+00 -3.9721949525e+01 5.4816315818e+01 0.0000000000e+00 0.0000e+00 -1.0000e+00
<mgrwt>
<rscale>  1 0.65935101E+03</rscale>
<asrwt>0</asrwt>
<pdfrwt beam="1">  1        1 0.44227550E+00 0.65935101E+03</pdfrwt>
<pdfrwt beam="2">0</pdfrwt>
<totfact> 0.86043659E-01</totfact>
</mgrwt>
</event>
<event>
 6      1 +5.6466785e-02 6.51293600e+02 7.81860800e-03 9.80435500e-02
        1 -1    0    0  502    0 +0.0000000000e+00 +0.0000000000e+00 +1.0604605397e+02 1.0604605397e+02 0.0000000000e+00 0.0000e+00 1.0000e+00
       13 -1    0    0    0    0 -0.0000000000e+00 -0.0000000000e+00 -1.0000000000e+03 1.0000000000e+03 0.0000000000e+00 0.0000e+00 1.0000e+00
  9000005  2    1    2  501    0 +3.1376993377e-05 -3.5356003337e-05 -8.9395415504e+02 1.1060458397e+03 6.5129361132e+02 0.0000e+00 0.0000e+00
       13  1    3    3    0    0 -2.9547129742e+02 +6.0767984100e+01 -6.5531174902e+02 7.2140801485e+02 0.0000000000e+00 0.0000e+00 1.0000e+00
        3  1    3    3  501    0 +2.9547132880e+02 -6.0768019456e+01 -2.3864240603e+02 3.8463782482e+02 0.0000000000e+00 0.0000e+00 1.0000e+00
       21  1    1    2  502  501 -3.1376993411e-05 +3.5356003338e-05 +2.0901440082e-04 2.1429321603e-04 0.0000000000e+00 0.0000e+00 1.0000e+00
<mgrwt>
<rscale>  1 0.65129361E+03</rscale>
<asrwt>0</asrwt>
<pdfrwt beam="1">  1        1 0.38562283E+00 0.65129361E+03</pdfrwt>
<pdfrwt beam="2">0</pdfrwt>
<totfact> 0.15493628E+00</totfact>
</mgrwt>
</event>
<event>
 6      1 +5.6466785e-02 5.86239800e+02 7.81860800e-03 9.93437200e-02
        1 -1    0    0  502    0 +0.0000000000e+00 +0.0000000000e+00 +8.5935778555e+01 8.5935778555e+01 0.0000000000e+00 0.0000e+00 1.0000e+00
       13 -1    0    0    0    0 -0.0000000000e+00 -0.0000000000e+00 -1.0000000000e+03 1.0000000000e+03 0.0000000000e+00 0.0000e+00 1.0000e+00
  9000005  2    1    2  501    0 -5.2635014370e-02 -1.1387932408e-02 -9.1400664198e+02 1.0858569400e+03 5.8623983963e+02 0.0000e+00 0.0000e+00
       13  1    3    3    0    0 +9.7131224023e+01 +4.3865920769e+01 +4.8761283455e+01 1.1720220326e+02 0.0000000000e+00 0.0000e+00 1.0000e+00
        1  1    3    3  501    0 -9.7183859037e+01 -4.3877308702e+01 -9.6276792543e+02 9.6865473669e+02 0.0000000000e+00 0.0000e+00 1.0000e+00
       21  1    1    2  502  501 +5.2635014370e-02 +1.1387932408e-02 -5.7579466980e-02 7.8838599429e-02 0.0000000000e+00 0.0000e+00 1.0000e+00
<mgrwt>
<rscale>  1 0.58623984E+03</rscale>
<asrwt>0</asrwt>
<pdfrwt beam="1">  1        1 0.31249440E+00 0.58623984E+03</pdfrwt>
<pdfrwt beam="2">0</pdfrwt>
<totfact> 0.32669602E+00</totfact>
</mgrwt>
</event>
<event>
 6      1 +5.6466785e-02 6.52007800e+02 7.81860800e-03 9.80301900e-02
        1 -1    0    0  502    0 +0.0000000000e+00 +0.0000000000e+00 +1.0628172244e+02 1.0628172244e+02 0.0000000000e+00 0.0000e+00 1.0000e+00
       13 -1    0    0    0    0 -0.0000000000e+00 -0.0000000000e+00 -1.0000000000e+03 1.0000000000e+03 0.0000000000e+00 0.0000e+00 1.0000e+00
  9000005  2    1    2  501    0 +2.7895688967e-04 +1.1108189361e-04 -8.9372146554e+02 1.1062785204e+03 6.5200775043e+02 0.0000e+00 0.0000e+00
       13  1    3    3    0    0 -1.6349852665e+02 +7.5285331547e+01 +1.4320716435e+01 1.8056780522e+02 0.0000000000e+00 0.0000e+00 1.0000e+00
        1  1    3    3  501    0 +1.6349880561e+02 -7.5285220465e+01 -9.0804218198e+02 9.2571071513e+02 0.0000000000e+00 0.0000e+00 1.0000e+00
       21  1    1    2  502  501 -2.7895688966e-04 -1.1108189359e-04 +3.1879792627e-03 3.2020880551e-03 0.0000000000e+00 0.0000e+00 1.0000e+00
<mgrwt>
<rscale>  1 0.65200775E+03</rscale>
<asrwt>0</asrwt>
<pdfrwt beam="1">  1        1 0.38647981E+00 0.65200775E+03</pdfrwt>
<pdfrwt beam="2">0</pdfrwt>
<totfact> 0.15356885E+00</totfact>
</mgrwt>
</event>
<event>
 6      1 +5.6466785e-02 6.50591400e+02 7.81860800e-03 9.80567000e-02
        1 -1    0    0  502    0 +0.0000000000e+00 +0.0000000000e+00 +1.0632940774e+02 1.0632940774e+02 0.0000000000e+00 0.0000e+00 1.0000e+00
       13 -1    0    0    0    0 -0.0000000000e+00 -0.0000000000e+00 -1.0000000000e+03 1.0000000000e+03 0.0000000000e+00 0.0000e+00 1.0000e+00
  9000005  2    1    2  501    0 -2.2454421501e-02 -9.9408394181e-04 -8.9418243798e+02 1.1058170688e+03 6.5059138995e+02 0.0000e+00 0.0000e+00
       13  1    3    3    0    0 -2.3889274782e+02 +1.7201255608e+02 -6.8240265893e+02 7.4319005195e+02 0.0000000000e+00 0.0000e+00 1.0000e+00
        1  1    3    3  501    0 +2.3887029340e+02 -1.7201355016e+02 -2.1177977905e+02 3.6262701681e+02 0.0000000000e+00 0.0000e+00 1.0000e+00
       21  1    1    2  502  501 +2.2454421501e-02 +9.9408394180e-04 +5.1184571179e-01 5.1233897170e-01 0.0000000000e+00 0.0000e+00 1.0000e+00
<mgrwt>
<rscale>  1 0.65059139E+03</rscale>
<asrwt>0</asrwt>
<pdfrwt beam="1">  1        1 0.38665321E+00 0.65059139E+03</pdfrwt>
<pdfrwt beam="2">0</pdfrwt>
<totfact> 0.15333784E+00</totfact>
</mgrwt>
</event>
<event>
 6      1 +5.6466785e-02 6.48965000e+02 7.81860800e-03 9.80872300e-02
        3 -1    0    0  502    0 +0.0000000000e+00 +0.0000000000e+00 +1.0536280673e+02 1.0536280673e+02 0.0000000000e+00 0.0000e+00 1.0000e+00
       13 -1    0    0    0    0 -0.0000000000e+00 -0.0000000000e+00 -1.0000000000e+03 1.0000000000e+03 0.0000000000e+00 0.0000e+00 1.0000e+00
  9000005  2    1    2  501    0 -1.8490154416e-01 -1.3151318430e-01 -8.9435631640e+02 1.1050017304e+03 6.4896498520e+02 0.0000e+00 0.0000e+00
       13  1    3    3    0    0 +2.0670225142e+02 -2.3944141848e+02 -3.2409479645e+02 4.5287465232e+02 0.0000000000e+00 0.0000e+00 1.0000e+00
        3  1    3    3  501    0 -2.0688715296e+02 +2.3930990530e+02 -5.7026151995e+02 6.5212707808e+02 0.0000000000e+00 0.0000e+00 1.0000e+00
       21  1    1    2  502  501 +1.8490154416e-01 +1.3151318430e-01 -2.8087687155e-01 3.6107632939e-01 0.0000000000e+00 0.0000e+00 1.0000e+00
<mgrwt>
<rscale>  1 0.64896502E+03</rscale>
<asrwt>0</asrwt>
<pdfrwt beam="1">  1        3 0.38313829E+00 0.64896502E+03</pdfrwt>
<pdfrwt beam="2">0</pdfrwt>
<totfact> 0.72666464E-02</totfact>
</mgrwt>
</event>
<event>
 6      1 +5.6466785e-02 6.53879900e+02 7.81860800e-03 9.79952600e-02
        1 -1    0    0  502    0 +0.0000000000e+00 +0.0000000000e+00 +1.0689398447e+02 1.0689398447e+02 0.0000000000e+00 0.0000e+00 1.0000e+00
       13 -1    0    0    0    0 -0.0000000000e+00 -0.0000000000e+00 -1.0000000000e+03 1.0000000000e+03 0.0000000000e+00 0.0000e+00 1.0000e+00
  9000005  2    1    2  501    0 -1.6149328331e-03 -1.7852861271e-04 -8.9311009289e+02 1.1068895953e+03 6.5387991113e+02 0.0000e+00 0.0000e+00
       13  1    3    3    0    0 +2.5956155693e+02 +1.9876231666e+02 -4.5207053583e+02 5.5789464035e+02 0.0000000000e+00 0.0000e+00 1.0000e+00
        3  1    3    3  501    0 -2.5956317187e+02 -1.9876249519e+02 -4.4103955706e+02 5.4899495496e+02 0.0000000000e+00 0.0000e+00 1.0000e+00
       21  1    1    2  502  501 +1.6149328332e-03 +1.7852861271e-04 +4.0773562426e-03 4.3891587406e-03 0.0000000000e+00 0.0000e+00 -1.0000e+00
<mgrwt>
<rscale>  1 0.65387991E+03</rscale>
<asrwt>0</asrwt>
<pdfrwt beam="1">  1        1 0.38870622E+00 0.65387991E+03</pdfrwt>
<pdfrwt beam="2">0</pdfrwt>
<totfact> 0.15006918E+00</totfact>
</mgrwt>
</event>
<event>
 6      1 +5.6466785e-02 6.86681000e+02 7.81860800e-03 9.74028500e-02
        1 -1    0    0  502    0 +0.0000000000e+00 +0.0000000000e+00 +1.1793291739e+02 1.1793291739e+02 0.0000000000e+00 0.0000e+00 1.0000e+00
       13 -1    0    0    0    0 -0.0000000000e+00 -0.0000000000e+00 -1.0000000000e+03 1.0000000000e+03 0.0000000000e+00 0.0000e+00 1.0000e+00
  9000005  2    1    2  501    0 -9.0340038467e-02 +1.1392326657e-01 -8.8190507666e+02 1.1177152347e+03 6.8668097431e+02 0.0000e+00 0.0000e+00
       13  1    3    3    0    0 -9.0136329539e-01 +7.7228443416e+01 -9.8552524925e+02 9.8854694468e+02 0.0000000000e+00 0.0000e+00 1.0000e+00
        1  1    3    3  501    0 +8.1102325693e-01 -7.7114520150e+01 +1.0362017259e+02 1.2916829001e+02 0.0000000000e+00 0.0000e+00 1.0000e+00
       21  1    1    2  502  501 +9.0340038467e-02 -1.1392326657e-01 -1.6200594850e-01 2.1768270617e-01 0.0000000000e+00 0.0000e+00 -1.0000e+00
<mgrwt>
<rscale>  1 0.68668099E+03</rscale>
<asrwt>0</asrwt>
<pdfrwt beam="1">  1        1 0.42884788E+00 0.68668099E+03</pdfrwt>
<pdfrwt beam="2">0</pdfrwt>
<totfact> 0.98540391E-01</totfact>
</mgrwt>
</event>
<event>
 6      1 +5.6466785e-02 5.05400100e+02 7.81860800e-03 1.01237900e-01
        1 -1    0    0  502    0 +0.0000000000e+00 +0.0000000000e+00 +6.3859252066e+01 6.3859252066e+01 0.0000000000e+00 0.0000e+00 1.0000e+00
       13 -1    0    0    0    0 -0.0000000000e+00 -0.0000000000e+00 -1.0000000000e+03 1.0000000000e+03 0.0000000000e+00 0.0000e+00 1.0000e+00
  9000005  2    1    2  501    0 -2.7513894445e-04 -2.1896086654e-04 -9.3614267501e+02 1.0638572932e+03 5.0540007148e+02 0.0000e+00 0.0000e+00
       13  1    3    3    0    0 -4.4504424102e+01 -3.9865731531e+01 -9.8491768258e+02 9.8672831204e+02 0.0000000000e+00 0.0000e+00 1.0000e+00
        1  1    3    3  501    0 +4.4504148963e+01 +3.9865512571e+01 +4.8775007567e+01 7.7128981133e+01 0.0000000000e+00 0.0000e+00 1.0000e+00
       21  1    1    2  502  501 +2.7513894445e-04 +2.1896086654e-04 +1.9270790988e-03 1.9588974330e-03 0.0000000000e+00 0.0000e+00 1.0000e+00
<mgrwt>
<rscale>  1 0.50540007E+03</rscale>
<asrwt>0</asrwt>
<pdfrwt beam="1">  1        1 0.23221595E+00 0.50540007E+03</pdfrwt>
<pdfrwt beam="2">0</pdfrwt>
<totfact> 0.73795425E+00</totfact>
</mgrwt>
</event>
<event>
 6      1 +5.6466785e-02 6.47723600e+02 7.81860800e-03 9.81106000e-02
        3 -1    0    0  502    0 +0.0000000000e+00 +0.0000000000e+00 +1.0489227830e+02 1.0489227830e+02 0.0000000000e+00 0.0000e+00 1.0000e+00
       13 -1    0    0    0    0 -0.0000000000e+00 -0.0000000000e+00 -1.0000000000e+03 1.0000000000e+03 0.0000000000e+00 0.0000e+00 1.0000e+00
  9000005  2    1    2  501    0 +7.6878156055e-03 -3.8738165710e-03 -8.9510976983e+02 1.1048834294e+03 6.4772362343e+02 0.0000e+00 0.0000e+00
       13  1    3    3    0    0 +2.9048530988e+02 -1.1461957353e+02 -3.0112244693e+02 4.3381342756e+02 0.0000000000e+00 0.0000e+00 1.0000e+00
        1  1    3    3  501    0 -2.9047762206e+02 +1.1461569971e+02 -5.9398732290e+02 6.7107000179e+02 0.0000000000e+00 0.0000e+00 1.0000e+00
       21  1    1    2  502  501 -7.6878156056e-03 +3.8738165710e-03 +2.0481244160e-03 8.8489421534e-03 0.0000000000e+00 0.0000e+00 1.0000e+00
<mgrwt>
<rscale>  1 0.64772362E+03</rscale>
<asrwt>0</asrwt>
<pdfrwt beam="1">  1        3 0.38142727E+00 0.64772362E+03</pdfrwt>
<pdfrwt beam="2">0</pdfrwt>
<totfact> 0.74208487E-02</totfact>
</mgrwt>
</event>
<event>
 6      1 +5.6466785e-02 6.49372900e+02 7.81860800e-03 9.80795700e-02
        1 -1    0    0  502    0 +0.0000000000e+00 +0.0000000000e+00 +1.0564493950e+02 1.0564493950e+02 0.0000000000e+00 0.0000e+00 1.0000e+00
       13 -1    0    0    0    0 -0.0000000000e+00 -0.0000000000e+00 -1.0000000000e+03 1.0000000000e+03 0.0000000000e+00 0.0000e+00 1.0000e+00
  9000005  2    1    2  501    0 +1.6350184987e-02 +1.0690105827e-02 -8.9457822135e+02 1.1054209253e+03 6.4937294950e+02 0.0000e+00 0.0000e+00
       13  1    3    3    0    0 -7.5708517099e+01 -2.9958569942e+02 -6.1694167280e+02 6.9000028877e+02 0.0000000000e+00 0.0000e+00 1.0000e+00
        1  1    3    3  501    0 +7.5724867284e+01 +2.9959638953e+02 -2.7763654855e+02 4.1542063651e+02 0.0000000000e+00 0.0000e+00 1.0000e+00
       21  1    1    2  502  501 -1.6350184987e-02 -1.0690105827e-02 +2.2316085172e-01 2.2401422422e-01 0.0000000000e+00 0.0000e+00 1.0000e+00
<mgrwt>
<rscale>  1 0.64937295E+03</rscale>
<asrwt>0</asrwt>
<pdfrwt beam="1">  1        1 0.38416423E+00 0.64937295E+03</pdfrwt>
<pdfrwt beam="2">0</pdfrwt>
<totfact> 0.15731079E+00</totfact>
</mgrwt>
</event>
<event>
 6      1 +5.6466785e-02 6.54872300e+02 7.81860800e-03 9.79767900e-02
        1 -1    0    0  502    0 +0.0000000000e+00 +0.0000000000e+00 +1.0722637662e+02 1.0722637662e+02 0.0000000000e+00 0.0000e+00 1.0000e+00
       13 -1    0    0    0    0 -0.0000000000e+00 -0.0000000000e+00 -1.0000000000e+03 1.0000000000e+03 0.0000000000e+00 0.0000e+00 1.0000e+00
  9000005  2    1    2  501    0 -1.8434388285e-03 -1.1490992631e-03 -8.9278544356e+02 1.1072143585e+03 6.5487234437e+02 0.0000e+00 0.0000e+00
       13  1    3    3    0    0 +1.0674508378e+02 -1.8187457984e+02 -8.6989214397e+02 8.9508950270e+02 0.0000000000e+00 0.0000e+00 1.0000e+00
        3  1    3    3  501    0 -1.0674692722e+02 +1.8187343074e+02 -2.2893299588e+01 2.1212485579e+02 0.0000000000e+00 0.0000e+00 1.0000e+00
       21  1    1    2  502  501 +1.8434388285e-03 +1.1490992631e-03 +1.1820178216e-02 1.2018124183e-02 0.0000000000e+00 0.0000e+00 1.0000e+00
<mgrwt>
<rscale>  1 0.65487234E+03</rscale>
<asrwt>0</asrwt>
<pdfrwt beam="1">  1        1 0.38991492E+00 0.65487234E+03</pdfrwt>
<pdfrwt beam="2">0</pdfrwt>
<totfact> 0.14820172E+00</totfact>
</mgrwt>
</event>
<event>
 6      1 +5.6466785e-02 6.27444900e+02 7.81860800e-03 9.85004800e-02
        1 -1    0    0  502    0 +0.0000000000e+00 +0.0000000000e+00 +9.8421781181e+01 9.8421781181e+01 0.0000000000e+00 0.0000e+00 1.0000e+00
       13 -1    0    0    0    0 -0.0000000000e+00 -0.0000000000e+00 -1.0000000000e+03 1.0000000000e+03 0.0000000000e+00 0.0000e+00 1.0000e+00
  9000005  2    1    2  501    0 +5.9915043948e-07 +4.7523694917e-06 -9.0157823314e+02 1.0984217661e+03 6.2744487065e+02 0.0000e+00 0.0000e+00
       13  1    3    3    0    0 -2.6801097101e+02 +9.5308993182e+01 -2.1914949803e+02 3.5908242404e+02 0.0000000000e+00 0.0000e+00 1.0000e+00
        1  1    3    3  501    0 +2.6801097161e+02 -9.5308988429e+01 -6.8242873511e+02 7.3933934204e+02 0.0000000000e+00 0.0000e+00 1.0000e+00
       21  1    1    2  502  501 -5.9915041510e-07 -4.7523694800e-06 +1.4325652943e-05 1.5105241777e-05 0.0000000000e+00 0.0000e+00 1.0000e+00
<mgrwt>
<rscale>  1 0.62744487E+03</rscale>
<asrwt>0</asrwt>
<pdfrwt beam="1">  1        1 0.35789814E+00 0.62744487E+03</pdfrwt>
<pdfrwt beam="2">0</pdfrwt>
<totfact> 0.20602428E+00</totfact>
</mgrwt>
</event>
<event>
 6      1 +5.6466785e-02 6.47752800e+02 7.81860800e-03 9.81100500e-02
        1 -1    0    0  502    0 +0.0000000000e+00 +0.0000000000e+00 +1.0629544157e+02 1.0629544157e+02 0.0000000000e+00 0.0000e+00 1.0000e+00
       13 -1    0    0    0    0 -0.0000000000e+00 -0.0000000000e+00 -1.0000000000e+03 1.0000000000e+03 0.0000000000e+00 0.0000e+00 1.0000e+00
  9000005  2    1    2  501    0 -5.7943352800e-02 -3.4653196205e-04 -8.9510341906e+02 1.1048953813e+03 6.4775278428e+02 0.0000e+00 0.0000e+00
       13  1    3    3    0    0 -2.0188538464e+01 -1.0074948467e+02 -9.7146549557e+02 9.7688445828e+02 0.0000000000e+00 0.0000e+00 1.0000e+00
        1  1    3    3  501    0 +2.0130595111e+01 +1.0074913814e+02 +7.6362076508e+01 1.2801092306e+02 0.0000000000e+00 0.0000e+00 1.0000e+00
       21  1    1    2  502  501 +5.7943352800e-02 +3.4653196204e-04 +1.3988606315e+00 1.4000602196e+00 0.0000000000e+00 0.0000e+00 1.0000e+00
<mgrwt>
<rscale>  1 0.64775279E+03</rscale>
<asrwt>0</asrwt>
<pdfrwt beam="1">  1        1 0.38652969E+00 0.64775279E+03</pdfrwt>
<pdfrwt beam="2">0</pdfrwt>
<totfact> 0.15361188E+00</totfact>
</mgrwt>
</event>
<event>
 6      1 +5.6466785e-02 6.34668300e+02 7.81860800e-03 9.83598100e-02
        1 -1    0    0  502    0 +0.0000000000e+00 +0.0000000000e+00 +1.0104137707e+02 1.0104137707e+02 0.0000000000e+00 0.0000e+00 1.0000e+00
       13 -1    0    0    0    0 -0.0000000000e+00 -0.0000000000e+00 -1.0000000000e+03 1.0000000000e+03 0.0000000000e+00 0.0000e+00 1.0000e+00
  9000005  2    1    2  501    0 +3.6868812542e-03 -1.5419011338e-02 -8.9929882025e+02 1.1007008105e+03 6.3466834329e+02 0.0000e+00 0.0000e+00
       13  1    3    3    0    0 +7.7252080999e+01 +2.1715875791e+02 -8.2790971693e+02 8.5939531622e+02 0.0000000000e+00 0.0000e+00 1.0000e+00
        1  1    3    3  501    0 -7.7248394118e+01 -2.1717417693e+02 -7.1389103324e+01 2.4130549432e+02 0.0000000000e+00 0.0000e+00 1.0000e+00
       21  1    1    2  502  501 -3.6868812542e-03 +1.5419011338e-02 +3.4019732174e-01 3.4056652320e-01 0.0000000000e+00 0.0000e+00 -1.0000e+00
<mgrwt>
<rscale>  1 0.63466834E+03</rscale>
<asrwt>0</asrwt>
<pdfrwt beam="1">  1        1 0.36742396E+00 0.63466834E+03</pdfrwt>
<pdfrwt beam="2">0</pdfrwt>
<totfact> 0.18691545E+00</totfact>
</mgrwt>
</event>
<event>
 6      1 +5.6466785e-02 6.52822100e+02 7.81860800e-03 9.80149800e-02
        1 -1    0    0  502    0 +0.0000000000e+00 +0.0000000000e+00 +1.1075054884e+02 1.1075054884e+02 0.0000000000e+00 0.0000e+00 1.0000e+00
       13 -1    0    0    0    0 -0.0000000000e+00 -0.0000000000e+00 -1.0000000000e+03 1.0000000000e+03 0.0000000000e+00 0.0000e+00 1.0000e+00
  9000005  2    1    2  501    0 -2.8593952970e-01 -1.0377431281e+00 -8.9337948087e+02 1.1064825496e+03 6.5282124430e+02 0.0000e+00 0.0000e+00
       13  1    3    3    0    0 +2.1380395974e+02 -1.2509044012e+02 -8.6277771669e+01 2.6230441341e+02 0.0000000000e+00 0.0000e+00 1.0000e+00
        3  1    3    3  501    0 -2.1408989927e+02 +1.2405269699e+02 -8.0710170920e+02 8.4417813618e+02 0.0000000000e+00 0.0000e+00 1.0000e+00
       21  1    1    2  502  501 +2.8593952970e-01 +1.0377431281e+00 +4.1300297146e+00 4.2679992571e+00 0.0000000000e+00 0.0000e+00 -1.0000e+00
<mgrwt>
<rscale>  1 0.65282213E+03</rscale>
<asrwt>0</asrwt>
<pdfrwt beam="1">  1        1 0.40273012E+00 0.65282213E+03</pdfrwt>
<pdfrwt beam="2">0</pdfrwt>
<totfact> 0.13001782E+00</totfact>
</mgrwt>
</event>
<event>
 6      1 +5.6466785e-02 6.49172100e+02 7.81860800e-03 9.80833400e-02
        1 -1    0    0  502    0 +0.0000000000e+00 +0.0000000000e+00 +1.0544725790e+02 1.0544725790e+02 0.0000000000e+00 0.0000e+00 1.0000e+00
       13 -1    0    0    0    0 -0.0000000000e+00 -0.0000000000e+00 -1.0000000000e+03 1.0000000000e+03 0.0000000000e+00 0.0000e+00 1.0000e+00
  9000005  2    1    2  501    0 -3.3932948628e-02 +5.5935437863e-02 -8.9463073333e+02 1.1053454598e+03 6.4917211296e+02 0.0000e+00 0.0000e+00
       13  1    3    3    0    0 -1.3056230794e+02 +1.1174832001e+02 +2.1546709835e+01 1.7320064660e+02 0.0000000000e+00 0.0000e+00 1.0000e+00
        3  1    3    3  501    0 +1.3052837499e+02 -1.1169238457e+02 -9.1617744316e+02 9.3214481322e+02 0.0000000000e+00 0.0000e+00 1.0000e+00
       21  1    1    2  502  501 +3.3932948628e-02 -5.5935437862e-02 +7.7991222390e-02 1.0179807946e-01 0.0000000000e+00 0.0000e+00 1.0000e+00
<mgrwt>
<rscale>  1 0.64917212E+03</rscale>
<asrwt>0</asrwt>
<pdfrwt beam="1">  1        1 0.38344538E+00 0.64917212E+03</pdfrwt>
<pdfrwt beam="2">0</pdfrwt>
<totfact> 0.15847190E+00</totfact>
</mgrwt>
</event>
<event>
 6      1 +5.6466785e-02 6.58177800e+02 7.81860800e-03 9.79155400e-02
        1 -1    0    0  502    0 +0.0000000000e+00 +0.0000000000e+00 +1.0835338996e+02 1.0835338996e+02 0.0000000000e+00 0.0000e+00 1.0000e+00
       13 -1    0    0    0    0 -0.0000000000e+00 -0.0000000000e+00 -1.0000000000e+03 1.0000000000e+03 0.0000000000e+00 0.0000e+00 1.0000e+00
  9000005  2    1    2  501    0 +2.0982936688e-02 -2.6263161785e-02 -8.9169462507e+02 1.1082947770e+03 6.5817779299e+02 0.0000e+00 0.0000e+00
       13  1    3    3    0    0 -1.9880873846e+02 +2.3917619060e+02 -6.2686390753e+02 6.9977748120e+02 0.0000000000e+00 0.0000e+00 1.0000e+00
        3  1    3    3  501    0 +1.9882972140e+02 -2.3920245377e+02 -2.6483071754e+02 4.0851729578e+02 0.0000000000e+00 0.0000e+00 1.0000e+00
       21  1    1    2  502  501 -2.0982936688e-02 +2.6263161785e-02 +4.8015028079e-02 5.8612969729e-02 0.0000000000e+00 0.0000e+00 -1.0000e+00
<mgrwt>
<rscale>  1 0.65817779E+03</rscale>
<asrwt>0</asrwt>
<pdfrwt beam="1">  1        1 0.39401316E+00 0.65817779E+03</pdfrwt>
<pdfrwt beam="2">0</pdfrwt>
<totfact> 0.14203410E+00</totfact>
</mgrwt>
</event>
<event>
 6      1 +5.6466785e-02 7.01101200e+02 7.81860800e-03 9.71535100e-02
        1 -1    0    0  502    0 +0.0000000000e+00 +0.0000000000e+00 +1.2288668694e+02 1.2288668694e+02 0.0000000000e+00 0.0000e+00 1.0000e+00
       13 -1    0    0    0    0 -0.0000000000e+00 -0.0000000000e+00 -1.0000000000e+03 1.0000000000e+03 0.0000000000e+00 0.0000e+00 1.0000e+00
  9000005  2    1    2  501    0 -8.4504190809e-05 +5.8414666256e-05 -8.7711425629e+02 1.1228857381e+03 7.0110124969e+02 0.0000e+00 0.0000e+00
       13  1    3    3    0    0 -9.9759019109e+01 +2.1303268138e+02 -8.5482287754e+02 8.8659852086e+02 0.0000000000e+00 0.0000e+00 1.0000e+00
        3  1    3    3  501    0 +9.9758934604e+01 -2.1303262296e+02 -2.2291378754e+01 2.3628721727e+02 0.0000000000e+00 0.0000e+00 1.0000e+00
       21  1    1    2  502  501 +8.4504190811e-05 -5.8414666241e-05 +9.4322804379e-04 9.4880576204e-04 0.0000000000e+00 0.0000e+00 -1.0000e+00
<mgrwt>
<rscale>  1 0.70110125E+03</rscale>
<asrwt>0</asrwt>
<pdfrwt beam="1">  1        1 0.44686162E+00 0.70110125E+03</pdfrwt>
<pdfrwt beam="2">0</pdfrwt>
<totfact> 0.81294474E-01</totfact>
</mgrwt>
</event>
<event>
 6      1 +5.6466785e-02 6.51323300e+02 7.81860800e-03 9.80429900e-02
        1 -1    0    0  502    0 +0.0000000000e+00 +0.0000000000e+00 +1.0700213007e+02 1.0700213007e+02 0.0000000000e+00 0.0000e+00 1.0000e+00
       13 -1    0    0    0    0 -0.0000000000e+00 -0.0000000000e+00 -1.0000000000e+03 1.0000000000e+03 0.0000000000e+00 0.0000e+00 1.0000e+00
  9000005  2    1    2  501    0 -1.2720240559e+00 +1.3758036725e+00 -8.9278172314e+02 1.1051159698e+03 6.5132065126e+02 0.0000e+00 0.0000e+00
       13  1    3    3    0    0 -3.0871789701e+02 +7.5778777649e+01 -3.2157613363e+02 4.5217294567e+02 0.0000000000e+00 0.0000e+00 1.0000e+00
        3  1    3    3  501    0 +3.0744587295e+02 -7.4402973977e+01 -5.7120558951e+02 6.5294302418e+02 0.0000000000e+00 0.0000e+00 1.0000e+00
       21  1    1    2  502  501 +1.2720240559e+00 -1.3758036725e+00 -2.1614679678e-01 1.8861602217e+00 0.0000000000e+00 0.0000e+00 -1.0000e+00
<mgrwt>
<rscale>  1 0.65132335E+03</rscale>
<asrwt>0</asrwt>
<pdfrwt beam="1">  1        1 0.38909948E+00 0.65132335E+03</pdfrwt>
<pdfrwt beam="2">0</pdfrwt>
<totfact> 0.14953904E+00</totfact>
</mgrwt>
</event>
<event>
 6      1 +5.6466785e-02 6.42887500e+02 7.81860800e-03 9.82021700e-02
        1 -1    0    0  502    0 +0.0000000000e+00 +0.0000000000e+00 +1.0334492452e+02 1.0334492452e+02 0.0000000000e+00 0.0000e+00 1.0000e+00
       13 -1    0    0    0    0 -0.0000000000e+00 -0.0000000000e+00 -1.0000000000e+03 1.0000000000e+03 0.0000000000e+00 0.0000e+00 1.0000e+00
  9000005  2    1    2  501    0 +1.5932812352e-02 +2.9049288424e-02 -8.9665627240e+02 1.1033117711e+03 6.4288754254e+02 0.0000e+00 0.0000e+00
       13  1    3    3    0    0 -7.6114121824e+01 -2.2887900832e+02 -8.3691036982e+01 2.5530990906e+02 0.0000000000e+00 0.0000e+00 1.0000e+00
        1  1    3    3  501    0 +7.6130054636e+01 +2.2890805761e+02 -8.1296523542e+02 8.4800186206e+02 0.0000000000e+00 0.0000e+00 1.0000e+00
       21  1    1    2  502  501 -1.5932812352e-02 -2.9049288424e-02 +1.1969234540e-03 3.3153405453e-02 0.0000000000e+00 0.0000e+00 1.0000e+00
<mgrwt>
<rscale>  1 0.64288754E+03</rscale>
<asrwt>0</asrwt>
<pdfrwt beam="1">  1        1 0.37580052E+00 0.64288754E+03</pdfrwt>
<pdfrwt beam="2">0</pdfrwt>
<totfact> 0.17146634E+00</totfact>
</mgrwt>
</event>
<event>
 6      1 +5.6466785e-02 6.58050000e+02 7.81860800e-03 9.79179000e-02
        1 -1    0    0  502    0 +0.0000000000e+00 +0.0000000000e+00 +1.1322528221e+02 1.1322528221e+02 0.0000000000e+00 0.0000e+00 1.0000e+00
       13 -1    0    0    0    0 -0.0000000000e+00 -0.0000000000e+00 -1.0000000000e+03 1.0000000000e+03 0.0000000000e+00 0.0000e+00 1.0000e+00
  9000005  2    1    2  501    0 +8.5943765324e+00 +1.0640028005e+01 -8.7692626648e+02 1.0963710395e+03 6.5790782479e+02 0.0000e+00 0.0000e+00
       13  1    3    3    0    0 +8.1242282278e+01 -8.9138253689e+01 +7.1326757095e+01 1.4011938830e+02 0.0000000000e+00 0.0000e+00 1.0000e+00
        1  1    3    3  501    0 -7.2647905746e+01 +9.9778281693e+01 -9.4825302357e+02 9.5625165120e+02 0.0000000000e+00 0.0000e+00 1.0000e+00
       21  1    1    2  502  501 -8.5943765324e+00 -1.0640028005e+01 -9.8484513167e+00 1.6854242708e+01 0.0000000000e+00 0.0000e+00 1.0000e+00
<mgrwt>
<rscale>  1 0.65804998E+03</rscale>
<asrwt>0</asrwt>
<pdfrwt beam="1">  1        1 0.41172917E+00 0.65804998E+03</pdfrwt>
<pdfrwt beam="2">0</pdfrwt>
<totfact> 0.11838201E+00</totfact>
</mgrwt>
</event>
<event>
 6      1 +5.6466785e-02 6.04906300e+02 7.81860800e-03 9.89527900e-02
        1 -1    0    0  502    0 +0.0000000000e+00 +0.0000000000e+00 +9.1481370601e+01 9.1481370601e+01 0.0000000000e+00 0.0000e+00 1.0000e+00
       13 -1    0    0    0    0 -0.0000000000e+00 -0.0000000000e+00 -1.0000000000e+03 1.0000000000e+03 0.0000000000e+00 0.0000e+00 1.0000e+00
  9000005  2    1    2  501    0 -1.3878406219e-04 -6.5550544596e-03 -9.0851836370e+02 1.0914748087e+03 6.0490630745e+02 0.0000e+00 0.0000e+00
       13  1    3    3    0    0 -2.2177725637e+02 -1.5109478303e+02 -7.0599653423e+02 7.5527868449e+02 0.0000000000e+00 0.0000e+00 1.0000e+00
        1  1    3    3  501    0 +2.2177711758e+02 +1.5108822798e+02 -2.0252182947e+02 3.3619612420e+02 0.0000000000e+00 0.0000e+00 1.0000e+00
       21  1    1    2  502  501 +1.3878406218e-04 +6.5550544596e-03 -2.6569510018e-04 6.5619047440e-03 0.0000000000e+00 0.0000e+00 1.0000e+00
<mgrwt>
<rscale>  1 0.60490631E+03</rscale>
<asrwt>0</asrwt>
<pdfrwt beam="1">  1        1 0.33266023E+00 0.60490631E+03</pdfrwt>
<pdfrwt beam="2">0</pdfrwt>
<totfact> 0.26636314E+00</totfact>
</mgrwt>
</event>
<event>
 6      1 +5.6466785e-02 6.22118800e+02 7.81860800e-03 9.86055000e-02
        1 -1    0    0  502    0 +0.0000000000e+00 +0.0000000000e+00 +9.6758156534e+01 9.6758156534e+01 0.0000000000e+00 0.0000e+00 1.0000e+00
       13 -1    0    0    0    0 -0.0000000000e+00 -0.0000000000e+00 -1.0000000000e+03 1.0000000000e+03 0.0000000000e+00 0.0000e+00 1.0000e+00
  9000005  2    1    2  501    0 +2.6705054182e-05 -5.4825652001e-06 -9.0324204697e+02 1.0967579512e+03 6.2211880547e+02 0.0000e+00 0.0000e+00
       13  1    3    3    0    0 +2.2433135667e+02 -1.8734524425e+02 -6.3931543633e+02 7.0295591986e+02 0.0000000000e+00 0.0000e+00 1.0000e+00
        3  1    3    3  501    0 -2.2433132997e+02 +1.8734523876e+02 -2.6392661064e+02 3.9380203135e+02 0.0000000000e+00 0.0000e+00 1.0000e+00
       21  1    1    2  502  501 -2.6705054200e-05 +5.4825652109e-06 +2.0350727956e-04 2.0532518422e-04 0.0000000000e+00 0.0000e+00 -1.0000e+00
<mgrwt>
<rscale>  1 0.62211881E+03</rscale>
<asrwt>0</asrwt>
<pdfrwt beam="1">  1        1 0.35184858E+00 0.62211881E+03</pdfrwt>
<pdfrwt beam="2">0</pdfrwt>
<totfact> 0.21914938E+00</totfact>
</mgrwt>
</event>
<event>
 6      1 +5.6466785e-02 6.53374900e+02 7.81860800e-03 9.80046700e-02
        1 -1    0    0  502    0 +0.0000000000e+00 +0.0000000000e+00 +1.2013406364e+02 1.2013406364e+02 0.0000000000e+00 0.0000e+00 1.0000e+00
       13 -1    0    0    0    0 -0.0000000000e+00 -0.0000000000e+00 -1.0000000000e+03 1.0000000000e+03 0.0000000000e+00 0.0000e+00 1.0000e+00
  9000005  2    1    2  501    0 -4.9101129460e-01 -2.9493927156e-01 -8.9326854218e+02 1.1067192239e+03 6.5337464300e+02 0.0000e+00 0.0000e+00
       13  1    3    3    0    0 +2.8148715857e+02 +8.7972244297e+00 -7.2606239563e+02 7.7876762513e+02 0.0000000000e+00 0.0000e+00 1.0000e+00
        1  1    3    3  501    0 -2.8197816987e+02 -9.0921637013e+00 -1.6720614655e+02 3.2795159882e+02 0.0000000000e+00 0.0000e+00 1.0000e+00
       21  1    1    2  502  501 +4.9101129460e-01 +2.9493927156e-01 +1.3402605821e+01 1.3414839695e+01 0.0000000000e+00 0.0000e+00 -1.0000e+00
<mgrwt>
<rscale>  1 0.65337489E+03</rscale>
<asrwt>0</asrwt>
<pdfrwt beam="1">  1        1 0.43685206E+00 0.65337489E+03</pdfrwt>
<pdfrwt beam="2">0</pdfrwt>
<totfact> 0.91208430E-01</totfact>
</mgrwt>
</event>
<event>
 6      1 +5.6466785e-02 6.33265900e+02 7.81860800e-03 9.83869600e-02
        1 -1    0    0  502    0 +0.0000000000e+00 +0.0000000000e+00 +1.0025828972e+02 1.0025828972e+02 0.0000000000e+00 0.0000e+00 1.0000e+00
       13 -1    0    0    0    0 -0.0000000000e+00 -0.0000000000e+00 -1.0000000000e+03 1.0000000000e+03 0.0000000000e+00 0.0000e+00 1.0000e+00
  9000005  2    1    2  501    0 +7.3687113914e-04 -7.6136174903e-04 -8.9974339139e+02 1.1002563026e+03 6.3326594808e+02 0.0000e+00 0.0000e+00
       13  1    3    3    0    0 -1.0667730720e+02 +2.8507736953e+02 -6.0140645161e+02 6.7404664121e+02 0.0000000000e+00 0.0000e+00 1.0000e+00
        1  1    3    3  501    0 +1.0667804407e+02 -2.8507813089e+02 -2.9833693977e+02 4.2620966136e+02 0.0000000000e+00 0.0000e+00 1.0000e+00
       21  1    1    2  502  501 -7.3687113915e-04 +7.6136174901e-04 +1.6811089035e-03 1.9871532236e-03 0.0000000000e+00 0.0000e+00 1.0000e+00
<mgrwt>
<rscale>  1 0.63326595E+03</rscale>
<asrwt>0</asrwt>
<pdfrwt beam="1">  1        1 0.36457637E+00 0.63326595E+03</pdfrwt>
<pdfrwt beam="2">0</pdfrwt>
<totfact> 0.19241552E+00</totfact>
</mgrwt>
</event>
<event>
 6      1 +5.6466785e-02 6.46158800e+02 7.81860800e-03 9.81401400e-02
        1 -1    0    0  502    0 +0.0000000000e+00 +0.0000000000e+00 +1.0438038337e+02 1.0438038337e+02 0.0000000000e+00 0.0000e+00 1.0000e+00
       13 -1    0    0    0    0 -0.0000000000e+00 -0.0000000000e+00 -1.0000000000e+03 1.0000000000e+03 0.0000000000e+00 0.0000e+00 1.0000e+00
  9000005  2    1    2  501    0 +4.1618170599e-07 -1.1089924158e-05 -8.9561968701e+02 1.1043803121e+03 6.4615884273e+02 0.0000e+00 0.0000e+00
       13  1    3    3    0    0 -2.8356135193e+02 -1.5328721028e+02 -4.8511097024e+02 5.8244026526e+02 0.0000000000e+00 0.0000e+00 1.0000e+00
        3  1    3    3  501    0 +2.8356135235e+02 +1.5328719919e+02 -4.1050871676e+02 5.2194004686e+02 0.0000000000e+00 0.0000e+00 1.0000e+00
       21  1    1    2  502  501 -4.1618167848e-07 +1.1089924180e-05 +7.0375503480e-05 7.1245148014e-05 0.0000000000e+00 0.0000e+00 1.0000e+00
<mgrwt>
<rscale>  1 0.64615884E+03</rscale>
<asrwt>0</asrwt>
<pdfrwt beam="1">  1        1 0.37956583E+00 0.64615884E+03</pdfrwt>
<pdfrwt beam="2">0</pdfrwt>
<totfact> 0.16493899E+00</totfact>
</mgrwt>
</event>
<event>
 6      1 +5.6466785e-02 6.48027500e+02 7.81860800e-03 9.81048700e-02
        1 -1    0    0  502    0 +0.0000000000e+00 +0.0000000000e+00 +1.0498845713e+02 1.0498845713e+02 0.0000000000e+00 0.0000e+00 1.0000e+00
       13 -1    0    0    0    0 -0.0000000000e+00 -0.0000000000e+00 -1.0000000000e+03 1.0000000000e+03 0.0000000000e+00 0.0000e+00 1.0000e+00
  9000005  2    1    2  501    0 +7.9147973591e-04 +3.5882746627e-04 -8.9501501939e+02 1.1049848736e+03 6.4802753495e+02 0.0000e+00 0.0000e+00
       13  1    3    3    0    0 -1.8382111209e+02 -2.1716455871e+02 -7.1185523814e+02 7.6660845735e+02 0.0000000000e+00 0.0000e+00 1.0000e+00
        1  1    3    3  501    0 +1.8382190357e+02 +2.1716491754e+02 -1.8315978125e+02 3.3837641630e+02 0.0000000000e+00 0.0000e+00 1.0000e+00
       21  1    1    2  502  501 -7.9147973589e-04 -3.5882746628e-04 +3.4765165570e-03 3.5834849928e-03 0.0000000000e+00 0.0000e+00 1.0000e+00
<mgrwt>
<rscale>  1 0.64802753E+03</rscale>
<asrwt>0</asrwt>
<pdfrwt beam="1">  1        1 0.38177701E+00 0.64802753E+03</pdfrwt>
<pdfrwt beam="2">0</pdfrwt>
<totfact> 0.16121839E+00</totfact>
</mgrwt>
</event>
<event>
 6      1 +5.6466785e-02 6.43403200e+02 7.81860800e-03 9.81923700e-02
        1 -1    0    0  502    0 +0.0000000000e+00 +0.0000000000e+00 +1.0349202536e+02 1.0349202536e+02 0.0000000000e+00 0.0000e+00 1.0000e+00
       13 -1    0    0    0    0 -0.0000000000e+00 -0.0000000000e+00 -1.0000000000e+03 1.0000000000e+03 0.0000000000e+00 0.0000e+00 1.0000e+00
  9000005  2    1    2  501    0 -4.7706689458e-05 -1.6985483160e-04 -8.9650799068e+02 1.1034918482e+03 6.4340320305e+02 0.0000e+00 0.0000e+00
       13  1    3    3    0    0 +1.7062778688e+02 +2.1046379876e+02 -7.4572628693e+02 7.9342078827e+02 0.0000000000e+00 0.0000e+00 1.0000e+00
        3  1    3    3  501    0 -1.7062783458e+02 -2.1046396862e+02 -1.5078170375e+02 3.1007105993e+02 0.0000000000e+00 0.0000e+00 1.0000e+00
       21  1    1    2  502  501 +4.7706689435e-05 +1.6985483159e-04 +1.6039328952e-05 1.7715488169e-04 0.0000000000e+00 0.0000e+00 1.0000e+00
<mgrwt>
<rscale>  1 0.64340320E+03</rscale>
<asrwt>0</asrwt>
<pdfrwt beam="1">  1        1 0.37633543E+00 0.64340320E+03</pdfrwt>
<pdfrwt beam="2">0</pdfrwt>
<totfact> 0.17052268E+00</totfact>
</mgrwt>
</event>
<event>
 6      1 +5.6466785e-02 6.50142900e+02 7.81860800e-03 9.80651100e-02
        1 -1    0    0  502    0 +0.0000000000e+00 +0.0000000000e+00 +1.0570289031e+02 1.0570289031e+02 0.0000000000e+00 0.0000e+00 1.0000e+00
       13 -1    0    0    0    0 -0.0000000000e+00 -0.0000000000e+00 -1.0000000000e+03 1.0000000000e+03 0.0000000000e+00 0.0000e+00 1.0000e+00
  9000005  2    1    2  501    0 -1.0655989214e-03 +2.8037305576e-03 -8.9432846975e+02 1.1056713871e+03 6.5014291085e+02 0.0000e+00 0.0000e+00
       13  1    3    3    0    0 -2.8559254814e+02 -1.1952594674e+02 -2.7861981279e+02 4.1650756965e+02 0.0000000000e+00 0.0000e+00 1.0000e+00
        1  1    3    3  501    0 +2.8559148254e+02 +1.1952875047e+02 -6.1570865696e+02 6.8916381749e+02 0.0000000000e+00 0.0000e+00 1.0000e+00
       21  1    1    2  502  501 +1.0655989214e-03 -2.8037305576e-03 +3.1360055748e-02 3.1503166549e-02 0.0000000000e+00 0.0000e+00 -1.0000e+00
<mgrwt>
<rscale>  1 0.65014291E+03</rscale>
<asrwt>0</asrwt>
<pdfrwt beam="1">  1        1 0.38437496E+00 0.65014291E+03</pdfrwt>
<pdfrwt beam="2">0</pdfrwt>
<totfact> 0.15695135E+00</totfact>
</mgrwt>
</event>
<event>
 6      1 +5.6466785e-02 6.28346800e+02 7.81860800e-03 9.84828000e-02
        1 -1    0    0  502    0 +0.0000000000e+00 +0.0000000000e+00 +9.8704920360e+01 9.8704920360e+01 0.0000000000e+00 0.0000e+00 1.0000e+00
       13 -1    0    0    0    0 -0.0000000000e+00 -0.0000000000e+00 -1.0000000000e+03 1.0000000000e+03 0.0000000000e+00 0.0000e+00 1.0000e+00
  9000005  2    1    2  501    0 -2.2843454985e-06 -4.3382713208e-06 -9.0129507905e+02 1.0987049154e+03 6.2834677659e+02 0.0000e+00 0.0000e+00
       13  1    3    3    0    0 -1.8812289204e+02 +3.1777703563e+01 -1.4189312903e+01 1.9131487542e+02 0.0000000000e+00 0.0000e+00 1.0000e+00
        1  1    3    3  501    0 +1.8812288976e+02 -3.1777707902e+01 -8.8710576615e+02 9.0739004001e+02 0.0000000000e+00 0.0000e+00 1.0000e+00
       21  1    1    2  502  501 +2.2843454958e-06 +4.3382713181e-06 -5.8951003203e-07 4.9382541907e-06 0.0000000000e+00 0.0000e+00 -1.0000e+00
<mgrwt>
<rscale>  1 0.62834678E+03</rscale>
<asrwt>0</asrwt>
<pdfrwt beam="1">  1        1 0.35892774E+00 0.62834678E+03</pdfrwt>
<pdfrwt beam="2">0</pdfrwt>
<totfact> 0.20386737E+00</totfact>
</mgrwt>
</event>
<event>
 6      1 +5.6466785e-02 6.44241900e+02 7.81860800e-03 9.81764400e-02
        1 -1    0    0  502    0 +0.0000000000e+00 +0.0000000000e+00 +1.0994736674e+02 1.0994736674e+02 0.0000000000e+00 0.0000e+00 1.0000e+00
       13 -1    0    0    0    0 -0.0000000000e+00 -0.0000000000e+00 -1.0000000000e+03 1.0000000000e+03 0.0000000000e+00 0.0000e+00 1.0000e+00
  9000005  2    1    2  501    0 -1.4964453096e+00 +2.7404946092e+00 -8.9580022764e+02 1.1034063805e+03 6.4423430762e+02 0.0000e+00 0.0000e+00
       13  1    3    3    0    0 +1.5802268593e+02 +1.9104611552e+02 -8.0190503293e+02 8.3935777197e+02 0.0000000000e+00 0.0000e+00 1.0000e+00
        1  1    3    3  501    0 -1.5951913124e+02 -1.8830562091e+02 -9.3895194713e+01 2.6404860858e+02 0.0000000000e+00 0.0000e+00 1.0000e+00
       21  1    1    2  502  501 +1.4964453096e+00 -2.7404946092e+00 +5.7475943809e+00 6.5409861974e+00 0.0000000000e+00 0.0000e+00 1.0000e+00
<mgrwt>
<rscale>  1 0.64424187E+03</rscale>
<asrwt>0</asrwt>
<pdfrwt beam="1">  1        1 0.39980945E+00 0.64424187E+03</pdfrwt>
<pdfrwt beam="2">0</pdfrwt>
<totfact> 0.13419667E+00</totfact>
</mgrwt>
</event>
<event>
 6      1 +5.6466785e-02 6.04798000e+02 7.81860800e-03 9.89550100e-02
        1 -1    0    0  502    0 +0.0000000000e+00 +0.0000000000e+00 +9.1446039642e+01 9.1446039642e+01 0.0000000000e+00 0.0000e+00 1.0000e+00
       13 -1    0    0    0    0 -0.0000000000e+00 -0.0000000000e+00 -1.0000000000e+03 1.0000000000e+03 0.0000000000e+00 0.0000e+00 1.0000e+00
  9000005  2    1    2  501    0 -1.5423568286e-05 +2.2544813987e-05 -9.0855483147e+02 1.0914451681e+03 6.0479804330e+02 0.0000e+00 0.0000e+00
       13  1    3    3    0    0 -6.4582828941e+01 -2.1952898473e+02 -8.1103707611e+02 8.4270104767e+02 0.0000000000e+00 0.0000e+00 1.0000e+00
        3  1    3    3  501    0 +6.4582813517e+01 +2.1952900727e+02 -9.7517755363e+01 2.4874412043e+02 0.0000000000e+00 0.0000e+00 1.0000e+00
       21  1    1    2  502  501 +1.5423568284e-05 -2.2544813990e-05 +8.7111293395e-04 8.7154110562e-04 0.0000000000e+00 0.0000e+00 1.0000e+00
<mgrwt>
<rscale>  1 0.60479804E+03</rscale>
<asrwt>0</asrwt>
<pdfrwt beam="1">  1        1 0.33253175E+00 0.60479804E+03</pdfrwt>
<pdfrwt beam="2">0</pdfrwt>
<totfact> 0.26671000E+00</totfact>
</mgrwt>
</event>
<event>
 6      1 +5.6466785e-02 6.01857900e+02 7.81860800e-03 9.90155900e-02
        1 -1    0    0  502    0 +0.0000000000e+00 +0.0000000000e+00 +9.0563544737e+01 9.0563544737e+01 0.0000000000e+00 0.0000e+00 1.0000e+00
       13 -1    0    0    0    0 -0.0000000000e+00 -0.0000000000e+00 -1.0000000000e+03 1.0000000000e+03 0.0000000000e+00 0.0000e+00 1.0000e+00
  9000005  2    1    2  501    0 +2.1765726159e-03 -1.2989148277e-03 -9.0944144496e+02 1.0905579482e+03 6.0185787065e+02 0.0000e+00 0.0000e+00
       13  1    3    3    0    0 +6.4591313360e+01 -2.3432760898e+00 -9.8727491274e+02 9.8938833733e+02 0.0000000000e+00 0.0000e+00 1.0000e+00
        1  1    3    3  501    0 -6.4589136788e+01 +2.3419771750e+00 +7.7833467781e+01 1.0116961083e+02 0.0000000000e+00 0.0000e+00 1.0000e+00
       21  1    1    2  502  501 -2.1765726159e-03 +1.2989148277e-03 +4.9896997618e-03 5.5965839398e-03 0.0000000000e+00 0.0000e+00 -1.0000e+00
<mgrwt>
<rscale>  1 0.60185787E+03</rscale>
<asrwt>0</asrwt>
<pdfrwt beam="1">  1        1 0.32932268E+00 0.60185787E+03</pdfrwt>
<pdfrwt beam="2">0</pdfrwt>
<totfact> 0.27552969E+00</totfact>
</mgrwt>
</event>
<event>
 6      1 +5.6466785e-02 6.57430200e+02 7.81860800e-03 9.79293600e-02
        1 -1    0    0  502    0 +0.0000000000e+00 +0.0000000000e+00 +1.0805377749e+02 1.0805377749e+02 0.0000000000e+00 0.0000e+00 1.0000e+00
       13 -1    0    0    0    0 -0.0000000000e+00 -0.0000000000e+00 -1.0000000000e+03 1.0000000000e+03 0.0000000000e+00 0.0000e+00 1.0000e+00
  9000005  2    1    2  501    0 +4.8720806390e-05 -2.9885783825e-05 -8.9194637178e+02 1.1080536176e+03 6.5743021641e+02 0.0000e+00 0.0000e+00
       13  1    3    3    0    0 -5.0364820097e+01 +6.3849362863e+01 +9.0831505757e+01 1.2191685150e+02 0.0000000000e+00 0.0000e+00 1.0000e+00
        3  1    3    3  501    0 +5.0364868817e+01 -6.3849392749e+01 -9.8277787754e+02 9.8613676615e+02 0.0000000000e+00 0.0000e+00 1.0000e+00
       21  1    1    2  502  501 -4.8720806385e-05 +2.9885783824e-05 +1.4927464442e-04 1.5984303712e-04 0.0000000000e+00 0.0000e+00 1.0000e+00
<mgrwt>
<rscale>  1 0.65743022E+03</rscale>
<asrwt>0</asrwt>
<pdfrwt beam="1">  1        1 0.39292366E+00 0.65743022E+03</pdfrwt>
<pdfrwt beam="2">0</pdfrwt>
<totfact> 0.14364607E+00</totfact>
</mgrwt>
</event>
<event>
 6      1 +5.6466785e-02 6.48667400e+02 7.81860800e-03 9.80928300e-02
        1 -1    0    0  502    0 +0.0000000000e+00 +0.0000000000e+00 +1.0564050799e+02 1.0564050799e+02 0.0000000000e+00 0.0000e+00 1.0000e+00
       13 -1    0    0    0    0 -0.0000000000e+00 -0.0000000000e+00 -1.0000000000e+03 1.0000000000e+03 0.0000000000e+00 0.0000e+00 1.0000e+00
  9000005  2    1    2  501    0 -2.2744831599e-01 -3.8678711357e-02 -8.9477459077e+02 1.1051656019e+03 6.4866739256e+02 0.0000e+00 0.0000e+00
       13  1    3    3    0    0 -2.0988834120e+02 -9.6386605382e+01 -5.9355029743e+01 2.3846700615e+02 0.0000000000e+00 0.0000e+00 1.0000e+00
        1  1    3    3  501    0 +2.0966089288e+02 +9.6347926670e+01 -8.3541956103e+02 8.6669859578e+02 0.0000000000e+00 0.0000e+00 1.0000e+00
       21  1    1    2  502  501 +2.2744831599e-01 +3.8678711357e-02 +4.1509876619e-01 4.7490605898e-01 0.0000000000e+00 0.0000e+00 1.0000e+00
<mgrwt>
<rscale>  1 0.64866743E+03</rscale>
<asrwt>0</asrwt>
<pdfrwt beam="1">  1        1 0.38414811E+00 0.64866743E+03</pdfrwt>
<pdfrwt beam="2">0</pdfrwt>
<totfact> 0.15735710E+00</totfact>
</mgrwt>
</event>
<event>
 6      1 +5.6466785e-02 6.57514900e+02 7.81860800e-03 9.79277900e-02
        1 -1    0    0  502    0 +0.0000000000e+00 +0.0000000000e+00 +1.0815618471e+02 1.0815618471e+02 0.0000000000e+00 0.0000e+00 1.0000e+00
       13 -1    0    0    0    0 -0.0000000000e+00 -0.0000000000e+00 -1.0000000000e+03 1.0000000000e+03 0.0000000000e+00 0.0000e+00 1.0000e+00
  9000005  2    1    2  501    0 +2.6401528450e-03 -2.0168771819e-03 -8.9191848685e+02 1.1080814393e+03 6.5751493433e+02 0.0000e+00 0.0000e+00
       13  1    3    3    0    0 -1.0584026737e+02 -2.2997689581e+02 -7.9942236496e+02 8.3855092416e+02 0.0000000000e+00 0.0000e+00 1.0000e+00
        3  1    3    3  501    0 +1.0584290752e+02 +2.2997487893e+02 -9.2496121887e+01 2.6953051511e+02 0.0000000000e+00 0.0000e+00 1.0000e+00
       21  1    1    2  502  501 -2.6401528450e-03 +2.0168771819e-03 +7.4671561557e-02 7.4745436690e-02 0.0000000000e+00 0.0000e+00 -1.0000e+00
<mgrwt>
<rscale>  1 0.65751493E+03</rscale>
<asrwt>0</asrwt>
<pdfrwt beam="1">  1        1 0.39329605E+00 0.65751493E+03</pdfrwt>
<pdfrwt beam="2">0</pdfrwt>
<totfact> 0.14309771E+00</totfact>
</mgrwt>
</event>
<event>
 6      1 +5.6466785e-02 6.44708500e+02 7.81860800e-03 9.81675900e-02
        1 -1    0    0  502    0 +0.0000000000e+00 +0.0000000000e+00 +1.0391923535e+02 1.0391923535e+02 0.0000000000e+00 0.0000e+00 1.0000e+00
       13 -1    0    0    0    0 -0.0000000000e+00 -0.0000000000e+00 -1.0000000000e+03 1.0000000000e+03 0.0000000000e+00 0.0000e+00 1.0000e+00
  9000005  2    1    2  501    0 -9.5346100060e-04 +2.1603305667e-02 -8.9605090959e+02 1.1038823716e+03 6.4470850567e+02 0.0000e+00 0.0000e+00
       13  1    3    3    0    0 +5.1254907285e+01 +2.0144292831e+02 -2.6153307352e+01 2.0950015364e+02 0.0000000000e+00 0.0000e+00 1.0000e+00
        1  1    3    3  501    0 -5.1255860746e+01 -2.0142132501e+02 -8.6989760224e+02 8.9438221796e+02 0.0000000000e+00 0.0000e+00 1.0000e+00
       21  1    1    2  502  501 +9.5346100060e-04 -2.1603305667e-02 -2.9855058962e-02 3.6863755224e-02 0.0000000000e+00 0.0000e+00 1.0000e+00
<mgrwt>
<rscale>  1 0.64470851E+03</rscale>
<asrwt>0</asrwt>
<pdfrwt beam="1">  1        1 0.37788893E+00 0.64470851E+03</pdfrwt>
<pdfrwt beam="2">0</pdfrwt>
<totfact> 0.16781599E+00</totfact>
</mgrwt>
</event>
<event>
 6      1 +5.6466785e-02 6.57223700e+02 7.81860800e-03 9.79331800e-02
        1 -1    0    0  502    0 +0.0000000000e+00 +0.0000000000e+00 +1.0798972689e+02 1.0798972689e+02 0.0000000000e+00 0.0000e+00 1.0000e+00
       13 -1    0    0    0    0 -0.0000000000e+00 -0.0000000000e+00 -1.0000000000e+03 1.0000000000e+03 0.0000000000e+00 0.0000e+00 1.0000e+00
  9000005  2    1    2  501    0 -9.5642234052e-04 -8.1063228407e-05 -8.9201419401e+02 1.1079856902e+03 6.5722368142e+02 0.0000e+00 0.0000e+00
       13  1    3    3    0    0 +2.1906783281e+02 +2.4173196895e+02 -5.1260233056e+02 6.0760695312e+02 0.0000000000e+00 0.0000e+00 1.0000e+00
        3  1    3    3  501    0 -2.1906878923e+02 -2.4173205001e+02 -3.7941186344e+02 5.0037873710e+02 0.0000000000e+00 0.0000e+00 1.0000e+00
       21  1    1    2  502  501 +9.5642234053e-04 +8.1063228412e-05 +3.9208918471e-03 4.0366703875e-03 0.0000000000e+00 0.0000e+00 -1.0000e+00
<mgrwt>
<rscale>  1 0.65722368E+03</rscale>
<asrwt>0</asrwt>
<pdfrwt beam="1">  1        1 0.39269074E+00 0.65722368E+03</pdfrwt>
<pdfrwt beam="2">0</pdfrwt>
<totfact> 0.14399417E+00</totfact>
</mgrwt>
</event>
<event>
 6      1 +5.6466785e-02 6.39711900e+02 7.81860800e-03 9.82627800e-02
        1 -1    0    0  502    0 +0.0000000000e+00 +0.0000000000e+00 +1.0230817045e+02 1.0230817045e+02 0.0000000000e+00 0.0000e+00 1.0000e+00
       13 -1    0    0    0    0 -0.0000000000e+00 -0.0000000000e+00 -1.0000000000e+03 1.0000000000e+03 0.0000000000e+00 0.0000e+00 1.0000e+00
  9000005  2    1    2  501    0 -2.2745700591e-05 -1.5461776336e-05 -8.9769215485e+02 1.1023078440e+03 6.3971194929e+02 0.0000e+00 0.0000e+00
       13  1    3    3    0    0 -1.7008052072e+02 +2.3254682566e+01 +1.6206927421e+01 1.7242629813e+02 0.0000000000e+00 0.0000e+00 1.0000e+00
        3  1    3    3  501    0 +1.7008049798e+02 -2.3254698027e+01 -9.1389908227e+02 9.2988154586e+02 0.0000000000e+00 0.0000e+00 1.0000e+00
       21  1    1    2  502  501 +2.2745700573e-05 +1.5461776337e-05 +3.2529434214e-04 3.2645496236e-04 0.0000000000e+00 0.0000e+00 -1.0000e+00
<mgrwt>
<rscale>  1 0.63971195E+03</rscale>
<asrwt>0</asrwt>
<pdfrwt beam="1">  1        1 0.37203050E+00 0.63971195E+03</pdfrwt>
<pdfrwt beam="2">0</pdfrwt>
<totfact> 0.17824513E+00</totfact>
</mgrwt>
</event>
<event>
 6      1 +5.6466785e-02 6.59019400e+02 7.81860800e-03 9.79000100e-02
        1 -1    0    0  502    0 +0.0000000000e+00 +0.0000000000e+00 +1.0894489929e+02 1.0894489929e+02 0.0000000000e+00 0.0000e+00 1.0000e+00
       13 -1    0    0    0    0 -0.0000000000e+00 -0.0000000000e+00 -1.0000000000e+03 1.0000000000e+03 0.0000000000e+00 0.0000e+00 1.0000e+00
  9000005  2    1    2  501    0 -1.6440325123e-01 -2.3995810936e-02 -8.9140246180e+02 1.1085598487e+03 6.5901939398e+02 0.0000e+00 0.0000e+00
       13  1    3    3    0    0 +2.2047279712e+02 +1.1661838396e+02 -8.0768869267e+02 8.4532190674e+02 0.0000000000e+00 0.0000e+00 1.0000e+00
        1  1    3    3  501    0 -2.2063720037e+02 -1.1664237977e+02 -8.3713769136e+01 2.6323794196e+02 0.0000000000e+00 0.0000e+00 1.0000e+00
       21  1    1    2  502  501 +1.6440325123e-01 +2.3995810936e-02 +3.4736109466e-01 3.8505059153e-01 0.0000000000e+00 0.0000e+00 -1.0000e+00
<mgrwt>
<rscale>  1 0.65901941E+03</rscale>
<asrwt>0</asrwt>
<pdfrwt beam="1">  1        1 0.39616411E+00 0.65901941E+03</pdfrwt>
<pdfrwt beam="2">0</pdfrwt>
<totfact> 0.13891826E+00</totfact>
</mgrwt>
</event>
<event>
 6      1 +5.6466785e-02 6.55149300e+02 7.81860800e-03 9.79716500e-02
        1 -1    0    0  502    0 +0.0000000000e+00 +0.0000000000e+00 +1.0730516367e+02 1.0730516367e+02 0.0000000000e+00 0.0000e+00 1.0000e+00
       13 -1    0    0    0    0 -0.0000000000e+00 -0.0000000000e+00 -1.0000000000e+03 1.0000000000e+03 0.0000000000e+00 0.0000e+00 1.0000e+00
  9000005  2    1    2  501    0 -1.4753234154e-06 -2.8941099188e-06 -8.9269484383e+02 1.1073051555e+03 6.5514931367e+02 0.0000e+00 0.0000e+00
       13  1    3    3    0    0 -3.1729528944e+02 +5.4840416476e+01 -3.4463726464e+02 4.7165518778e+02 0.0000000000e+00 0.0000e+00 1.0000e+00
        3  1    3    3  501    0 +3.1729528796e+02 -5.4840419370e+01 -5.4805757918e+02 6.3564996772e+02 0.0000000000e+00 0.0000e+00 1.0000e+00
       21  1    1    2  502  501 +1.4753234103e-06 +2.8941099195e-06 +7.4931375665e-06 8.1669799793e-06 0.0000000000e+00 0.0000e+00 1.0000e+00
<mgrwt>
<rscale>  1 0.65514931E+03</rscale>
<asrwt>0</asrwt>
<pdfrwt beam="1">  1        1 0.39020142E+00 0.65514931E+03</pdfrwt>
<pdfrwt beam="2">0</pdfrwt>
<totfact> 0.14776118E+00</totfact>
</mgrwt>
</event>
<event>
 6      1 +5.6466785e-02 6.69225400e+02 7.81860800e-03 9.77135800e-02
        1 -1    0    0  502    0 +0.0000000000e+00 +0.0000000000e+00 +1.1196569090e+02 1.1196569090e+02 0.0000000000e+00 0.0000e+00 1.0000e+00
       13 -1    0    0    0    0 -0.0000000000e+00 -0.0000000000e+00 -1.0000000000e+03 1.0000000000e+03 0.0000000000e+00 0.0000e+00 1.0000e+00
  9000005  2    1    2  501    0 -7.5582929071e-07 +3.1766845296e-06 -8.8803432574e+02 1.1119656739e+03 6.6922544508e+02 0.0000e+00 0.0000e+00
       13  1    3    3    0    0 -1.3516389502e+02 +1.1041256153e+02 -9.1838178707e+02 9.3481833480e+02 0.0000000000e+00 0.0000e+00 1.0000e+00
        1  1    3    3  501    0 +1.3516389427e+02 -1.1041255835e+02 +3.0347461333e+01 1.7714733914e+02 0.0000000000e+00 0.0000e+00 1.0000e+00
       21  1    1    2  502  501 +7.5582926800e-07 -3.1766845296e-06 +1.6639193603e-05 1.6956572951e-05 0.0000000000e+00 0.0000e+00 -1.0000e+00
<mgrwt>
<rscale>  1 0.66922545E+03</rscale>
<asrwt>0</asrwt>
<pdfrwt beam="1">  1        1 0.40714883E+00 0.66922545E+03</pdfrwt>
<pdfrwt beam="2">0</pdfrwt>
<totfact> 0.12385024E+00</totfact>
</mgrwt>
</event>
<event>
 6      1 +5.6466785e-02 5.64408100e+02 7.81860800e-03 9.98213000e-02
        1 -1    0    0  502    0 +0.0000000000e+00 +0.0000000000e+00 +7.9742607536e+01 7.9742607536e+01 0.0000000000e+00 0.0000e+00 1.0000e+00
       13 -1    0    0    0    0 -0.0000000000e+00 -0.0000000000e+00 -1.0000000000e+03 1.0000000000e+03 0.0000000000e+00 0.0000e+00 1.0000e+00
  9000005  2    1    2  501    0 -3.9432695016e-04 -1.3589381607e-03 -9.2036086027e+02 1.0796391301e+03 5.6440813072e+02 0.0000e+00 0.0000e+00
       13  1    3    3    0    0 -1.6429615838e+02 +8.7385252342e+01 -5.4355764929e+01 1.9386582775e+02 0.0000000000e+00 0.0000e+00 1.0000e+00
        1  1    3    3  501    0 +1.6429576406e+02 -8.7386611280e+01 -8.6600509534e+02 8.8577330231e+02 0.0000000000e+00 0.0000e+00 1.0000e+00
       21  1    1    2  502  501 +3.9432695018e-04 +1.3589381607e-03 +1.0346780849e-01 1.0347748354e-01 0.0000000000e+00 0.0000e+00 1.0000e+00
<mgrwt>
<rscale>  1 0.56440813E+03</rscale>
<asrwt>0</asrwt>
<pdfrwt beam="1">  1        1 0.28997373E+00 0.56440813E+03</pdfrwt>
<pdfrwt beam="2">0</pdfrwt>
<totfact> 0.41018941E+00</totfact>
</mgrwt>
</event>
<event>
 6      1 +5.6466785e-02 6.57809500e+02 7.81860800e-03 9.79223500e-02
        1 -1    0    0  502    0 +0.0000000000e+00 +0.0000000000e+00 +1.0817929445e+02 1.0817929445e+02 0.0000000000e+00 0.0000e+00 1.0000e+00
       13 -1    0    0    0    0 -0.0000000000e+00 -0.0000000000e+00 -1.0000000000e+03 1.0000000000e+03 0.0000000000e+00 0.0000e+00 1.0000e+00
  9000005  2    1    2  501    0 +4.2946270440e-05 +1.6052325293e-05 -8.9182166030e+02 1.1081783386e+03 6.5780951374e+02 0.0000e+00 0.0000e+00
       13  1    3    3    0    0 +2.3512522265e+02 -1.9644743134e+02 -6.4738590314e+02 7.1622899355e+02 0.0000000000e+00 0.0000e+00 1.0000e+00
        1  1    3    3  501    0 -2.3512517970e+02 +1.9644744739e+02 -2.4443575715e+02 3.9194934506e+02 0.0000000000e+00 0.0000e+00 1.0000e+00
       21  1    1    2  502  501 -4.2946270429e-05 -1.6052325292e-05 +9.5474838652e-04 9.5584859725e-04 0.0000000000e+00 0.0000e+00 1.0000e+00
<mgrwt>
<rscale>  1 0.65780951E+03</rscale>
<asrwt>0</asrwt>
<pdfrwt beam="1">  1        1 0.39338008E+00 0.65780951E+03</pdfrwt>
<pdfrwt beam="2">0</pdfrwt>
<totfact> 0.14296691E+00</totfact>
</mgrwt>
</event>
<event>
 6      1 +5.6466785e-02 6.40261600e+02 7.81860800e-03 9.82522600e-02
        1 -1    0    0  502    0 +0.0000000000e+00 +0.0000000000e+00 +1.0310325074e+02 1.0310325074e+02 0.0000000000e+00 0.0000e+00 1.0000e+00
       13 -1    0    0    0    0 -0.0000000000e+00 -0.0000000000e+00 -1.0000000000e+03 1.0000000000e+03 0.0000000000e+00 0.0000e+00 1.0000e+00
  9000005  2    1    2  501    0 +2.4095632826e-01 -4.0640642712e-01 -8.9741542117e+02 1.1024016478e+03 6.4026145573e+02 0.0000e+00 0.0000e+00
       13  1    3    3    0    0 +2.0729013280e+02 -1.4660002357e+02 -1.1272259204e+02 2.7778975651e+02 0.0000000000e+00 0.0000e+00 1.0000e+00
        3  1    3    3  501    0 -2.0704917647e+02 +1.4619361715e+02 -7.8469282913e+02 8.2461189129e+02 0.0000000000e+00 0.0000e+00 1.0000e+00
       21  1    1    2  502  501 -2.4095632826e-01 +4.0640642712e-01 +5.1867190657e-01 7.0160293813e-01 0.0000000000e+00 0.0000e+00 1.0000e+00
<mgrwt>
<rscale>  1 0.64026163E+03</rscale>
<asrwt>0</asrwt>
<pdfrwt beam="1">  1        1 0.37492170E+00 0.64026163E+03</pdfrwt>
<pdfrwt beam="2">0</pdfrwt>
<totfact> 0.17308393E+00</totfact>
</mgrwt>
</event>
<event>
 6      1 +5.6466785e-02 6.53324800e+02 7.81860800e-03 9.80056000e-02
        1 -1    0    0  502    0 +0.0000000000e+00 +0.0000000000e+00 +1.0670998174e+02 1.0670998174e+02 0.0000000000e+00 0.0000e+00 1.0000e+00
       13 -1    0    0    0    0 -0.0000000000e+00 -0.0000000000e+00 -1.0000000000e+03 1.0000000000e+03 0.0000000000e+00 0.0000e+00 1.0000e+00
  9000005  2    1    2  501    0 -3.3198704596e-03 +2.7210605034e-03 -8.9327866958e+02 1.1066978484e+03 6.5332483962e+02 0.0000e+00 0.0000e+00
       13  1    3    3    0    0 -2.8547898599e+02 +1.5693173573e+02 -4.8757444855e+02 5.8639122094e+02 0.0000000000e+00 0.0000e+00 1.0000e+00
        1  1    3    3  501    0 +2.8547566612e+02 -1.5692901467e+02 -4.0570422103e+02 5.2030662744e+02 0.0000000000e+00 0.0000e+00 1.0000e+00
       21  1    1    2  502  501 +3.3198704596e-03 -2.7210605034e-03 -1.1348684101e-02 1.2133356541e-02 0.0000000000e+00 0.0000e+00 -1.0000e+00
<mgrwt>
<rscale>  1 0.65332484E+03</rscale>
<asrwt>0</asrwt>
<pdfrwt beam="1">  1        1 0.38803712E+00 0.65332484E+03</pdfrwt>
<pdfrwt beam="2">0</pdfrwt>
<totfact> 0.15111269E+00</totfact>
</mgrwt>
</event>
<event>
 6      1 +5.6466785e-02 6.75936600e+02 7.81860800e-03 9.75929200e-02
        1 -1    0    0  502    0 +0.0000000000e+00 +0.0000000000e+00 +1.1422265309e+02 1.1422265309e+02 0.0000000000e+00 0.0000e+00 1.0000e+00
       13 -1    0    0    0    0 -0.0000000000e+00 -0.0000000000e+00 -1.0000000000e+03 1.0000000000e+03 0.0000000000e+00 0.0000e+00 1.0000e+00
  9000005  2    1    2  501    0 +7.7881291958e-06 +1.0410552420e-05 -8.8577744312e+02 1.1142225560e+03 6.7593655439e+02 0.0000e+00 0.0000e+00
       13  1    3    3    0    0 +8.8890827891e+01 +2.7656333074e+02 -7.2760979791e+02 7.8345700151e+02 0.0000000000e+00 0.0000e+00 1.0000e+00
        3  1    3    3  501    0 -8.8890820103e+01 -2.7656332033e+02 -1.5816764521e+02 3.3076555450e+02 0.0000000000e+00 0.0000e+00 1.0000e+00
       21  1    1    2  502  501 -7.7881291969e-06 -1.0410552386e-05 +9.6213563920e-05 9.7088024182e-05 0.0000000000e+00 0.0000e+00 1.0000e+00
<mgrwt>
<rscale>  1 0.67593655E+03</rscale>
<asrwt>0</asrwt>
<pdfrwt beam="1">  1        1 0.41535598E+00 0.67593655E+03</pdfrwt>
<pdfrwt beam="2">0</pdfrwt>
<totfact> 0.11363199E+00</totfact>
</mgrwt>
</event>
<event>
 6      1 +5.6466785e-02 6.49519800e+02 7.81860800e-03 9.80768100e-02
        1 -1    0    0  502    0 +0.0000000000e+00 +0.0000000000e+00 +1.0566469749e+02 1.0566469749e+02 0.0000000000e+00 0.0000e+00 1.0000e+00
       13 -1    0    0    0    0 -0.0000000000e+00 -0.0000000000e+00 -1.0000000000e+03 1.0000000000e+03 0.0000000000e+00 0.0000e+00 1.0000e+00
  9000005  2    1    2  501    0 +1.4461807449e-01 +1.6867709221e-02 -8.9450061556e+02 1.1054444083e+03 6.4951979761e+02 0.0000e+00 0.0000e+00
       13  1    3    3    0    0 +8.4089203866e+01 +2.4997520192e+02 -1.2469301784e+02 2.9173094536e+02 0.0000000000e+00 0.0000e+00 1.0000e+00
        3  1    3    3  501    0 -8.3944585792e+01 -2.4995833421e+02 -7.6980759772e+02 8.1371346297e+02 0.0000000000e+00 0.0000e+00 1.0000e+00
       21  1    1    2  502  501 -1.4461807449e-01 -1.6867709221e-02 +1.6531304604e-01 2.2028915152e-01 0.0000000000e+00 0.0000e+00 -1.0000e+00
<mgrwt>
<rscale>  1 0.64951981E+03</rscale>
<asrwt>0</asrwt>
<pdfrwt beam="1">  1        1 0.38423607E+00 0.64951981E+03</pdfrwt>
<pdfrwt beam="2">0</pdfrwt>
<totfact> 0.15719151E+00</totfact>
</mgrwt>
</event>
<event>
 6      1 +5.6466785e-02 6.45398300e+02 7.81860800e-03 9.81545300e-02
        1 -1    0    0  502    0 +0.0000000000e+00 +0.0000000000e+00 +1.0413473524e+02 1.0413473524e+02 0.0000000000e+00 0.0000e+00 1.0000e+00
       13 -1    0    0    0    0 -0.0000000000e+00 -0.0000000000e+00 -1.0000000000e+03 1.0000000000e+03 0.0000000000e+00 0.0000e+00 1.0000e+00
  9000005  2    1    2  501    0 -2.0634795987e-06 -2.0728351728e-06 -8.9586526862e+02 1.1041347304e+03 6.4539826724e+02 0.0000e+00 0.0000e+00
       13  1    3    3    0    0 -8.1793605674e+01 -2.8696945567e+02 -6.5810860431e+02 7.2259850366e+02 0.0000000000e+00 0.0000e+00 1.0000e+00
        1  1    3    3  501    0 +8.1793603610e+01 +2.8696945360e+02 -2.3775666431e+02 3.8153622674e+02 0.0000000000e+00 0.0000e+00 1.0000e+00
       21  1    1    2  502  501 +2.0634795975e-06 +2.0728352160e-06 +3.8640077372e-06 4.8461479213e-06 0.0000000000e+00 0.0000e+00 1.0000e+00
<mgrwt>
<rscale>  1 0.64539827E+03</rscale>
<asrwt>0</asrwt>
<pdfrwt beam="1">  1        1 0.37867256E+00 0.64539827E+03</pdfrwt>
<pdfrwt beam="2">0</pdfrwt>
<totfact> 0.16646527E+00</totfact>
</mgrwt>
</event>
<event>
 6      1 +5.6466785e-02 6.22199500e+02 7.81860800e-03 9.86039000e-02
        1 -1    0    0  502    0 +0.0000000000e+00 +0.0000000000e+00 +9.6898312837e+01 9.6898312837e+01 0.0000000000e+00 0.0000e+00 1.0000e+00
       13 -1    0    0    0    0 -0.0000000000e+00 -0.0000000000e+00 -1.0000000000e+03 1.0000000000e+03 0.0000000000e+00 0.0000e+00 1.0000e+00
  9000005  2    1    2  501    0 +1.0425655820e-01 +9.3395916206e-02 -9.0316854200e+02 1.0967431942e+03 6.2219948501e+02 0.0000e+00 0.0000e+00
       13  1    3    3    0    0 +1.2005820969e+01 +2.3551749452e+02 -8.0939743166e+02 8.4305209349e+02 0.0000000000e+00 0.0000e+00 1.0000e+00
        3  1    3    3  501    0 -1.1901564411e+01 -2.3542409860e+02 -9.3771110340e+01 2.5369110070e+02 0.0000000000e+00 0.0000e+00 1.0000e+00
       21  1    1    2  502  501 -1.0425655820e-01 -9.3395916206e-02 +6.6854836689e-02 1.5511865226e-01 0.0000000000e+00 0.0000e+00 1.0000e+00
<mgrwt>
<rscale>  1 0.62219950E+03</rscale>
<asrwt>0</asrwt>
<pdfrwt beam="1">  1        1 0.35235824E+00 0.62219950E+03</pdfrwt>
<pdfrwt beam="2">0</pdfrwt>
<totfact> 0.21802764E+00</totfact>
</mgrwt>
</event>
<event>
 6      1 +5.6466785e-02 6.50493600e+02 7.81860800e-03 9.80585300e-02
        1 -1    0    0  502    0 +0.0000000000e+00 +0.0000000000e+00 +1.0591327692e+02 1.0591327692e+02 0.0000000000e+00 0.0000e+00 1.0000e+00
       13 -1    0    0    0    0 -0.0000000000e+00 -0.0000000000e+00 -1.0000000000e+03 1.0000000000e+03 0.0000000000e+00 0.0000e+00 1.0000e+00
  9000005  2    1    2  501    0 +3.2826942521e-04 -3.6993581455e-02 -8.9421156315e+02 1.1057830706e+03 6.5049356512e+02 0.0000e+00 0.0000e+00
       13  1    3    3    0    0 -3.0971555014e+02 +5.1719111772e+01 -5.9119232467e+02 6.6940791246e+02 0.0000000000e+00 0.0000e+00 1.0000e+00
        1  1    3    3  501    0 +3.0971587841e+02 -5.1756105353e+01 -3.0301923848e+02 4.3637515817e+02 0.0000000000e+00 0.0000e+00 1.0000e+00
       21  1    1    2  502  501 -3.2826942524e-04 +3.6993581455e-02 +1.2484006889e-01 1.3020628107e-01 0.0000000000e+00 0.0000e+00 1.0000e+00
<mgrwt>
<rscale>  1 0.65049357E+03</rscale>
<asrwt>0</asrwt>
<pdfrwt beam="1">  1        1 0.38514000E+00 0.65049357E+03</pdfrwt>
<pdfrwt beam="2">0</pdfrwt>
<totfact> 0.15572322E+00</totfact>
</mgrwt>
</event>
<event>
 6      1 +5.6466785e-02 6.49809400e+02 7.81860800e-03 9.80713700e-02
        1 -1    0    0  502    0 +0.0000000000e+00 +0.0000000000e+00 +1.0751553066e+02 1.0751553066e+02 0.0000000000e+00 0.0000e+00 1.0000e+00
       13 -1    0    0    0    0 -0.0000000000e+00 -0.0000000000e+00 -1.0000000000e+03 1.0000000000e+03 0.0000000000e+00 0.0000e+00 1.0000e+00
  9000005  2    1    2  501    0 -5.9159071469e-02 +9.8336180778e-03 -8.9443641447e+02 1.1055626645e+03 6.4980943513e+02 0.0000e+00 0.0000e+00
       13  1    3    3    0    0 -6.5868822025e+00 -2.6908170483e+02 -1.3761900667e+02 3.0230339378e+02 0.0000000000e+00 0.0000e+00 1.0000e+00
        1  1    3    3  501    0 +6.5277231311e+00 +2.6909153845e+02 -7.5681740780e+02 8.0325927071e+02 0.0000000000e+00 0.0000e+00 1.0000e+00
       21  1    1    2  502  501 +5.9159071469e-02 -9.8336180777e-03 +1.9519451342e+00 1.9528661764e+00 0.0000000000e+00 0.0000e+00 -1.0000e+00
<mgrwt>
<rscale>  1 0.64980944E+03</rscale>
<asrwt>0</asrwt>
<pdfrwt beam="1">  1        1 0.39096639E+00 0.64980944E+03</pdfrwt>
<pdfrwt beam="2">0</pdfrwt>
<totfact> 0.14675705E+00</totfact>
</mgrwt>
</event>
<event>
 6      1 +5.6466785e-02 6.25548000e+02 7.81860800e-03 9.85377500e-02
        1 -1    0    0  502    0 +0.0000000000e+00 +0.0000000000e+00 +9.8019000143e+01 9.8019000143e+01 0.0000000000e+00 0.0000e+00 1.0000e+00
       13 -1    0    0    0    0 -0.0000000000e+00 -0.0000000000e+00 -1.0000000000e+03 1.0000000000e+03 0.0000000000e+00 0.0000e+00 1.0000e+00
  9000005  2    1    2  501    0 +1.6964852951e-03 +2.1902567346e-03 -9.0217242405e+02 1.0978275559e+03 6.2554796761e+02 0.0000e+00 0.0000e+00
       13  1    3    3    0    0 -2.5903847549e+02 +1.2564049874e+02 -2.3656850309e+02 3.7262732503e+02 0.0000000000e+00 0.0000e+00 1.0000e+00
        3  1    3    3  501    0 +2.5904017198e+02 -1.2563830848e+02 -6.6560392096e+02 7.2520023087e+02 0.0000000000e+00 0.0000e+00 1.0000e+00
       21  1    1    2  502  501 -1.6964852951e-03 -2.1902567346e-03 +1.9142419170e-01 1.9144423850e-01 0.0000000000e+00 0.0000e+00 1.0000e+00
<mgrwt>
<rscale>  1 0.62554797E+03</rscale>
<asrwt>0</asrwt>
<pdfrwt beam="1">  1        1 0.35643348E+00 0.62554797E+03</pdfrwt>
<pdfrwt beam="2">0</pdfrwt>
<totfact> 0.20915359E+00</totfact>
</mgrwt>
</event>
<event>
 6      1 +5.6466785e-02 6.55892800e+02 7.81860800e-03 9.79578400e-02
        1 -1    0    0  502    0 +0.0000000000e+00 +0.0000000000e+00 +1.0754895812e+02 1.0754895812e+02 0.0000000000e+00 0.0000e+00 1.0000e+00
       13 -1    0    0    0    0 -0.0000000000e+00 -0.0000000000e+00 -1.0000000000e+03 1.0000000000e+03 0.0000000000e+00 0.0000e+00 1.0000e+00
  9000005  2    1    2  501    0 -8.0490613641e-06 -1.3149045941e-06 -8.9245116639e+02 1.1075488333e+03 6.5589277618e+02 0.0000e+00 0.0000e+00
       13  1    3    3    0    0 +2.5043166243e+02 +7.0075829054e+01 -1.0883167938e+02 2.8190596624e+02 0.0000000000e+00 0.0000e+00 1.0000e+00
        3  1    3    3  501    0 -2.5043167048e+02 -7.0075830369e+01 -7.8361948701e+02 8.2564286711e+02 0.0000000000e+00 0.0000e+00 1.0000e+00
       21  1    1    2  502  501 +8.0490613619e-06 +1.3149045906e-06 +1.2450970750e-04 1.2477653475e-04 0.0000000000e+00 0.0000e+00 -1.0000e+00
<mgrwt>
<rscale>  1 0.65589278E+03</rscale>
<asrwt>0</asrwt>
<pdfrwt beam="1">  1        1 0.39108795E+00 0.65589278E+03</pdfrwt>
<pdfrwt beam="2">0</pdfrwt>
<totfact> 0.14640892E+00</totfact>
</mgrwt>
</event>
<event>
 6      1 +5.6466785e-02 6.42444100e+02 7.81860800e-03 9.82106100e-02
        1 -1    0    0  502    0 +0.0000000000e+00 +0.0000000000e+00 +1.0318652484e+02 1.0318652484e+02 0.0000000000e+00 0.0000e+00 1.0000e+00
       13 -1    0    0    0    0 -0.0000000000e+00 -0.0000000000e+00 -1.0000000000e+03 1.0000000000e+03 0.0000000000e+00 0.0000e+00 1.0000e+00
  9000005  2    1    2  501    0 +4.1549622551e-05 +8.2874662496e-05 -8.9681638753e+02 1.1031836110e+03 6.4244411945e+02 0.0000e+00 0.0000e+00
       13  1    3    3    0    0 +1.5809731102e+02 -2.7330136301e+02 -3.4688888355e+02 4.6906320715e+02 0.0000000000e+00 0.0000e+00 1.0000e+00
        3  1    3    3  501    0 -1.5809726947e+02 +2.7330144588e+02 -5.4992750398e+02 6.3412040384e+02 0.0000000000e+00 0.0000e+00 1.0000e+00
       21  1    1    2  502  501 -4.1549622560e-05 -8.2874662527e-05 +2.9123683653e-03 2.9138435229e-03 0.0000000000e+00 0.0000e+00 -1.0000e+00
<mgrwt>
<rscale>  1 0.64244412E+03</rscale>
<asrwt>0</asrwt>
<pdfrwt beam="1">  1        1 0.37522452E+00 0.64244412E+03</pdfrwt>
<pdfrwt beam="2">0</pdfrwt>
<totfact> 0.17248454E+00</totfact>
</mgrwt>
</event>
<event>
 6      1 +5.6466785e-02 6.48134600e+02 7.81860800e-03 9.81028600e-02
        1 -1    0    0  502    0 +0.0000000000e+00 +0.0000000000e+00 +1.1106588694e+02 1.1106588694e+02 0.0000000000e+00 0.0000e+00 1.0000e+00
       13 -1    0    0    0    0 -0.0000000000e+00 -0.0000000000e+00 -1.0000000000e+03 1.0000000000e+03 0.0000000000e+00 0.0000e+00 1.0000e+00
  9000005  2    1    2  501    0 -7.7538821928e+00 -1.4142171007e+00 -8.9200145533e+02 1.1026082698e+03 6.4808662818e+02 0.0000e+00 0.0000e+00
       13  1    3    3    0    0 -2.4310769192e+02 +2.0517596508e+02 -5.7422598274e+02 6.5645563884e+02 0.0000000000e+00 0.0000e+00 1.0000e+00
        1  1    3    3  501    0 +2.3535380973e+02 -2.0659018218e+02 -3.1777547259e+02 4.4615263096e+02 0.0000000000e+00 0.0000e+00 1.0000e+00
       21  1    1    2  502  501 +7.7538821928e+00 +1.4142171007e+00 +3.0673422689e+00 8.4576171386e+00 0.0000000000e+00 0.0000e+00 1.0000e+00
<mgrwt>
<rscale>  1 0.64813455E+03</rscale>
<asrwt>0</asrwt>
<pdfrwt beam="1">  1        1 0.40387680E+00 0.64813455E+03</pdfrwt>
<pdfrwt beam="2">0</pdfrwt>
<totfact> 0.12860920E+00</totfact>
</mgrwt>
</event>
<event>
 6      1 +5.6466785e-02 6.76080800e+02 7.81860800e-03 9.75903500e-02
        1 -1    0    0  502    0 +0.0000000000e+00 +0.0000000000e+00 +1.1434662086e+02 1.1434662086e+02 0.0000000000e+00 0.0000e+00 1.0000e+00
       13 -1    0    0    0    0 -0.0000000000e+00 -0.0000000000e+00 -1.0000000000e+03 1.0000000000e+03 0.0000000000e+00 0.0000e+00 1.0000e+00
  9000005  2    1    2  501    0 -1.1410873649e-02 +3.7423652327e-03 -8.8572815364e+02 1.1142708882e+03 6.7608080134e+02 0.0000e+00 0.0000e+00
       13  1    3    3    0    0 -4.6114122365e+01 -3.3440576072e+02 -4.7220045682e+02 5.8045412955e+02 0.0000000000e+00 0.0000e+00 1.0000e+00
        3  1    3    3  501    0 +4.6102711491e+01 +3.3440950308e+02 -4.1352769682e+02 5.3381675863e+02 0.0000000000e+00 0.0000e+00 1.0000e+00
       21  1    1    2  502  501 +1.1410873649e-02 -3.7423652327e-03 +7.4774496361e-02 7.5732678818e-02 0.0000000000e+00 0.0000e+00 1.0000e+00
<mgrwt>
<rscale>  1 0.67608080E+03</rscale>
<asrwt>0</asrwt>
<pdfrwt beam="1">  1        1 0.41580677E+00 0.67608080E+03</pdfrwt>
<pdfrwt beam="2">0</pdfrwt>
<totfact> 0.11309916E+00</totfact>
</mgrwt>
</event>
<event>
 6      1 +5.6466785e-02 6.41379700e+02 7.81860800e-03 9.82309000e-02
        1 -1    0    0  502    0 +0.0000000000e+00 +0.0000000000e+00 +1.0284201236e+02 1.0284201236e+02 0.0000000000e+00 0.0000e+00 1.0000e+00
       13 -1    0    0    0    0 -0.0000000000e+00 -0.0000000000e+00 -1.0000000000e+03 1.0000000000e+03 0.0000000000e+00 0.0000e+00 1.0000e+00
  9000005  2    1    2  501    0 -8.4085622376e-06 +4.9398204851e-06 -8.9715801592e+02 1.1028419824e+03 6.4137971025e+02 0.0000e+00 0.0000e+00
       13  1    3    3    0    0 +1.0185082336e+02 -2.4414332635e+02 -1.3687104481e+02 2.9784767403e+02 0.0000000000e+00 0.0000e+00 1.0000e+00
        3  1    3    3  501    0 -1.0185083177e+02 +2.4414333129e+02 -7.6028697111e+02 8.0499430841e+02 0.0000000000e+00 0.0000e+00 1.0000e+00
       21  1    1    2  502  501 +8.4085622420e-06 -4.9398205050e-06 +2.8278738551e-05 2.9913087431e-05 0.0000000000e+00 0.0000e+00 1.0000e+00
<mgrwt>
<rscale>  1 0.64137971E+03</rscale>
<asrwt>0</asrwt>
<pdfrwt beam="1">  1        1 0.37397174E+00 0.64137971E+03</pdfrwt>
<pdfrwt beam="2">0</pdfrwt>
<totfact> 0.17472225E+00</totfact>
</mgrwt>
</event>
<event>
 6      1 +5.6466785e-02 6.13650700e+02 7.81860800e-03 9.87748300e-02
        1 -1    0    0  502    0 +0.0000000000e+00 +0.0000000000e+00 +9.4210616910e+01 9.4210616910e+01 0.0000000000e+00 0.0000e+00 1.0000e+00
       13 -1    0    0    0    0 -0.0000000000e+00 -0.0000000000e+00 -1.0000000000e+03 1.0000000000e+03 0.0000000000e+00 0.0000e+00 1.0000e+00
  9000005  2    1    2  501    0 -1.0400045649e-03 -3.1071526377e-03 -9.0585816991e+02 1.0941417521e+03 6.1365067399e+02 0.0000e+00 0.0000e+00
       13  1    3    3    0    0 +2.3271922646e+02 +1.7587851932e+02 -2.8331196222e+02 4.0664131598e+02 0.0000000000e+00 0.0000e+00 1.0000e+00
        3  1    3    3  501    0 -2.3272026647e+02 -1.7588162648e+02 -6.2254620769e+02 6.8750043612e+02 0.0000000000e+00 0.0000e+00 1.0000e+00
       21  1    1    2  502  501 +1.0400045649e-03 +3.1071526377e-03 +6.8786818586e-02 6.8864812627e-02 0.0000000000e+00 0.0000e+00 -1.0000e+00
<mgrwt>
<rscale>  1 0.61365067E+03</rscale>
<asrwt>0</asrwt>
<pdfrwt beam="1">  1        1 0.34258478E+00 0.61365067E+03</pdfrwt>
<pdfrwt beam="2">0</pdfrwt>
<totfact> 0.24083758E+00</totfact>
</mgrwt>
</event>
<event>
 6      1 +5.6466785e-02 6.47268900e+02 7.81860800e-03 9.81191700e-02
        1 -1    0    0  502    0 +0.0000000000e+00 +0.0000000000e+00 +1.0474016936e+02 1.0474016936e+02 0.0000000000e+00 0.0000e+00 1.0000e+00
       13 -1    0    0    0    0 -0.0000000000e+00 -0.0000000000e+00 -1.0000000000e+03 1.0000000000e+03 0.0000000000e+00 0.0000e+00 1.0000e+00
  9000005  2    1    2  501    0 +1.0299094512e-03 +1.2654301866e-03 -8.9525985344e+02 1.1047385376e+03 6.4726890189e+02 0.0000e+00 0.0000e+00
       13  1    3    3    0    0 -1.4233632836e+01 +2.3522257299e+02 -8.2623825321e+02 8.5918677028e+02 0.0000000000e+00 0.0000e+00 1.0000e+00
        3  1    3    3  501    0 +1.4234662746e+01 -2.3522130756e+02 -6.9021600228e+01 2.4555176736e+02 0.0000000000e+00 0.0000e+00 1.0000e+00
       21  1    1    2  502  501 -1.0299094512e-03 -1.2654301866e-03 +2.2802519401e-05 1.6317312860e-03 0.0000000000e+00 0.0000e+00 1.0000e+00
<mgrwt>
<rscale>  1 0.64726890E+03</rscale>
<asrwt>0</asrwt>
<pdfrwt beam="1">  1        1 0.38087415E+00 0.64726890E+03</pdfrwt>
<pdfrwt beam="2">0</pdfrwt>
<totfact> 0.16272770E+00</totfact>
</mgrwt>
</event>
<event>
 6      1 +5.6466785e-02 6.64942300e+02 7.81860800e-03 9.77913800e-02
        1 -1    0    0  502    0 +0.0000000000e+00 +0.0000000000e+00 +1.1053817772e+02 1.1053817772e+02 0.0000000000e+00 0.0000e+00 1.0000e+00
       13 -1    0    0    0    0 -0.0000000000e+00 -0.0000000000e+00 -1.0000000000e+03 1.0000000000e+03 0.0000000000e+00 0.0000e+00 1.0000e+00
  9000005  2    1    2  501    0 -1.6565404527e-03 +2.8316968657e-03 -8.8945850958e+02 1.1105335155e+03 6.6494228976e+02 0.0000e+00 0.0000e+00
       13  1    3    3    0    0 -1.0707923521e+02 +8.7409143420e+01 +6.0273921456e+01 1.5079544613e+02 0.0000000000e+00 0.0000e+00 1.0000e+00
        1  1    3    3  501    0 +1.0707757866e+02 -8.7406311723e+01 -9.4973243103e+02 9.5973806934e+02 0.0000000000e+00 0.0000e+00 1.0000e+00
       21  1    1    2  502  501 +1.6565404527e-03 -2.8316968657e-03 -3.3127009968e-03 4.6622549592e-03 0.0000000000e+00 0.0000e+00 -1.0000e+00
<mgrwt>
<rscale>  1 0.66494229E+03</rscale>
<asrwt>0</asrwt>
<pdfrwt beam="1">  1        1 0.40195786E+00 0.66494229E+03</pdfrwt>
<pdfrwt beam="2">0</pdfrwt>
<totfact> 0.13075434E+00</totfact>
</mgrwt>
</event>
<event>
 6      1 +5.6466785e-02 6.57216800e+02 7.81860800e-03 9.79333100e-02
        1 -1    0    0  502    0 +0.0000000000e+00 +0.0000000000e+00 +1.0856018780e+02 1.0856018780e+02 0.0000000000e+00 0.0000e+00 1.0000e+00
       13 -1    0    0    0    0 -0.0000000000e+00 -0.0000000000e+00 -1.0000000000e+03 1.0000000000e+03 0.0000000000e+00 0.0000e+00 1.0000e+00
  9000005  2    1    2  501    0 -5.0028454180e-01 +2.0154891722e-01 -8.9187332034e+02 1.1078682081e+03 6.5721659755e+02 0.0000e+00 0.0000e+00
       13  1    3    3    0    0 -2.6987924341e+02 -3.6166483196e+01 -7.5688220457e+02 8.0437148888e+02 0.0000000000e+00 0.0000e+00 1.0000e+00
        3  1    3    3  501    0 +2.6937895887e+02 +3.6368032113e+01 -1.3499111577e+02 3.0349671922e+02 0.0000000000e+00 0.0000e+00 1.0000e+00
       21  1    1    2  502  501 +5.0028454180e-01 -2.0154891722e-01 +4.3350813541e-01 6.9197969064e-01 0.0000000000e+00 0.0000e+00 -1.0000e+00
<mgrwt>
<rscale>  1 0.65721682E+03</rscale>
<asrwt>0</asrwt>
<pdfrwt beam="1">  1        1 0.39476515E+00 0.65721682E+03</pdfrwt>
<pdfrwt beam="2">0</pdfrwt>
<totfact> 0.14097030E+00</totfact>
</mgrwt>
</event>
<event>
 6      1 +5.6466785e-02 6.45939100e+02 7.81860800e-03 9.81442900e-02
        1 -1    0    0  502    0 +0.0000000000e+00 +0.0000000000e+00 +1.0437817117e+02 1.0437817117e+02 0.0000000000e+00 0.0000e+00 1.0000e+00
       13 -1    0    0    0    0 -0.0000000000e+00 -0.0000000000e+00 -1.0000000000e+03 1.0000000000e+03 0.0000000000e+00 0.0000e+00 1.0000e+00
  9000005  2    1    2  501    0 +3.4351891418e-04 -1.5034586730e-03 -8.9569064467e+02 1.1043093380e+03 6.4593914817e+02 0.0000e+00 0.0000e+00
       13  1    3    3    0    0 +2.8479161762e+02 +1.4342375073e+02 -3.6012665526e+02 4.8100711593e+02 0.0000000000e+00 0.0000e+00 1.0000e+00
        3  1    3    3  501    0 -2.8479127410e+02 -1.4342525419e+02 -5.3556398941e+02 6.2330222212e+02 0.0000000000e+00 0.0000e+00 1.0000e+00
       21  1    1    2  502  501 -3.4351891416e-04 +1.5034586730e-03 +6.8815846692e-02 6.8833125377e-02 0.0000000000e+00 0.0000e+00 -1.0000e+00
<mgrwt>
<rscale>  1 0.64593915E+03</rscale>
<asrwt>0</asrwt>
<pdfrwt beam="1">  1        1 0.37955779E+00 0.64593915E+03</pdfrwt>
<pdfrwt beam="2">0</pdfrwt>
<totfact> 0.16495913E+00</totfact>
</mgrwt>
</event>
<event>
 6      1 +5.6466785e-02 6.57061200e+02 7.81860800e-03 9.79361900e-02
        1 -1    0    0  502    0 +0.0000000000e+00 +0.0000000000e+00 +1.0793918210e+02 1.0793918210e+02 0.0000000000e+00 0.0000e+00 1.0000e+00
       13 -1    0    0    0    0 -0.0000000000e+00 -0.0000000000e+00 -1.0000000000e+03 1.0000000000e+03 0.0000000000e+00 0.0000e+00 1.0000e+00
  9000005  2    1    2  501    0 +1.9225289464e-05 -1.8789027284e-03 -8.9206751285e+02 1.1079322285e+03 6.5706116563e+02 0.0000e+00 0.0000e+00
       13  1    3    3    0    0 -2.7119451265e+02 +1.1806202573e+02 -6.8714722366e+02 7.4810187314e+02 0.0000000000e+00 0.0000e+00 1.0000e+00
        1  1    3    3  501    0 +2.7119453187e+02 -1.1806390463e+02 -2.0492028919e+02 3.5983035533e+02 0.0000000000e+00 0.0000e+00 1.0000e+00
       21  1    1    2  502  501 -1.9225289474e-05 +1.8789027284e-03 +6.6949471119e-03 6.9536294053e-03 0.0000000000e+00 0.0000e+00 1.0000e+00
<mgrwt>
<rscale>  1 0.65706117E+03</rscale>
<asrwt>0</asrwt>
<pdfrwt beam="1">  1        1 0.39250694E+00 0.65706117E+03</pdfrwt>
<pdfrwt beam="2">0</pdfrwt>
<totfact> 0.14426942E+00</totfact>
</mgrwt>
</event>
<event>
 6      1 +5.6466785e-02 6.52600500e+02 7.81860800e-03 9.80191200e-02
        1 -1    0    0  502    0 +0.0000000000e+00 +0.0000000000e+00 +1.0869920900e+02 1.0869920900e+02 0.0000000000e+00 0.0000e+00 1.0000e+00
       13 -1    0    0    0    0 -0.0000000000e+00 -0.0000000000e+00 -1.0000000000e+03 1.0000000000e+03 0.0000000000e+00 0.0000e+00 1.0000e+00
  9000005  2    1    2  501    0 +4.2193043568e-02 +4.8145825319e-02 -8.9352763911e+02 1.1064714409e+03 6.5260049305e+02 0.0000e+00 0.0000e+00
       13  1    3    3    0    0 +2.9033333653e+02 -7.8527840035e+01 -6.6138047425e+02 7.2655639814e+02 0.0000000000e+00 0.0000e+00 1.0000e+00
        3  1    3    3  501    0 -2.9029114349e+02 +7.8575985860e+01 -2.3214716487e+02 3.7991504274e+02 0.0000000000e+00 0.0000e+00 1.0000e+00
       21  1    1    2  502  501 -4.2193043568e-02 -4.8145825319e-02 +2.2268481147e+00 2.2277681206e+00 0.0000000000e+00 0.0000e+00 -1.0000e+00
<mgrwt>
<rscale>  1 0.65260050E+03</rscale>
<asrwt>0</asrwt>
<pdfrwt beam="1">  1        1 0.39527068E+00 0.65260050E+03</pdfrwt>
<pdfrwt beam="2">0</pdfrwt>
<totfact> 0.14036385E+00</totfact>
</mgrwt>
</event>
<event>
 6      1 +5.6466785e-02 6.41619200e+02 7.81860800e-03 9.82263300e-02
        1 -1    0    0  502    0 +0.0000000000e+00 +0.0000000000e+00 +1.0291912902e+02 1.0291912902e+02 0.0000000000e+00 0.0000e+00 1.0000e+00
       13 -1    0    0    0    0 -0.0000000000e+00 -0.0000000000e+00 -1.0000000000e+03 1.0000000000e+03 0.0000000000e+00 0.0000e+00 1.0000e+00
  9000005  2    1    2  501    0 +4.1512512132e-04 +3.1671938119e-04 -8.9708095139e+02 1.1029186007e+03 6.4161920674e+02 0.0000e+00 0.0000e+00
       13  1    3    3    0    0 +1.3942088345e+02 -1.0954189451e+02 -9.0812152994e+02 9.2526878394e+02 0.0000000000e+00 0.0000e+00 1.0000e+00
        3  1    3    3  501    0 -1.3942046832e+02 +1.0954221123e+02 +1.1040578547e+01 1.7764981678e+02 0.0000000000e+00 0.0000e+00 1.0000e+00
       21  1    1    2  502  501 -4.1512512131e-04 -3.1671938118e-04 +8.0409736042e-05 5.2830460760e-04 0.0000000000e+00 0.0000e+00 1.0000e+00
<mgrwt>
<rscale>  1 0.64161921E+03</rscale>
<asrwt>0</asrwt>
<pdfrwt beam="1">  1        1 0.37425217E+00 0.64161921E+03</pdfrwt>
<pdfrwt beam="2">0</pdfrwt>
<totfact> 0.17421892E+00</totfact>
</mgrwt>
</event>
<event>
 6      1 +5.6466785e-02 6.27654500e+02 7.81860800e-03 9.84963700e-02
        1 -1    0    0  502    0 +0.0000000000e+00 +0.0000000000e+00 +1.0296570201e+02 1.0296570201e+02 0.0000000000e+00 0.0000e+00 1.0000e+00
       13 -1    0    0    0    0 -0.0000000000e+00 -0.0000000000e+00 -1.0000000000e+03 1.0000000000e+03 0.0000000000e+00 0.0000e+00 1.0000e+00
  9000005  2    1    2  501    0 +1.0043867159e-01 +2.2388804189e-01 -9.0150875721e+02 1.0984845192e+03 6.2765447457e+02 0.0000e+00 0.0000e+00
       13  1    3    3    0    0 -6.0488383936e+01 +8.3022500609e+01 -9.6980686970e+02 9.7523173899e+02 0.0000000000e+00 0.0000e+00 1.0000e+00
        3  1    3    3  501    0 +6.0588822607e+01 -8.2798612567e+01 +6.8298112493e+01 1.2325278024e+02 0.0000000000e+00 0.0000e+00 1.0000e+00
       21  1    1    2  502  501 -1.0043867159e-01 -2.2388804189e-01 +4.4744592227e+00 4.4811827811e+00 0.0000000000e+00 0.0000e+00 1.0000e+00
<mgrwt>
<rscale>  1 0.62765452E+03</rscale>
<asrwt>0</asrwt>
<pdfrwt beam="1">  1        1 0.37442152E+00 0.62765452E+03</pdfrwt>
<pdfrwt beam="2">0</pdfrwt>
<totfact> 0.17436927E+00</totfact>
</mgrwt>
</event>
<event>
 6      1 +5.6466785e-02 6.38631100e+02 7.81860800e-03 9.82834900e-02
        1 -1    0    0  502    0 +0.0000000000e+00 +0.0000000000e+00 +1.0196273832e+02 1.0196273832e+02 0.0000000000e+00 0.0000e+00 1.0000e+00
       13 -1    0    0    0    0 -0.0000000000e+00 -0.0000000000e+00 -1.0000000000e+03 1.0000000000e+03 0.0000000000e+00 0.0000e+00 1.0000e+00
  9000005  2    1    2  501    0 +7.4958950336e-07 +8.3337914219e-05 -8.9803756899e+02 1.1019624199e+03 6.3863111386e+02 0.0000e+00 0.0000e+00
       13  1    3    3    0    0 -2.9258544929e+02 +4.9539172530e+01 -2.4556949443e+02 3.8518145250e+02 0.0000000000e+00 0.0000e+00 1.0000e+00
        3  1    3    3  501    0 +2.9258545004e+02 -4.9539089192e+01 -6.5246807455e+02 7.1678096741e+02 0.0000000000e+00 0.0000e+00 1.0000e+00
       21  1    1    2  502  501 -7.4958948149e-07 -8.3337914223e-05 +3.0730967034e-04 3.1841011811e-04 0.0000000000e+00 0.0000e+00 -1.0000e+00
<mgrwt>
<rscale>  1 0.63863111E+03</rscale>
<asrwt>0</asrwt>
<pdfrwt beam="1">  1        1 0.37077438E+00 0.63863111E+03</pdfrwt>
<pdfrwt beam="2">0</pdfrwt>
<totfact> 0.18056078E+00</totfact>
</mgrwt>
</event>
<event>
 6      1 +5.6466785e-02 6.48357200e+02 7.81860800e-03 9.80986700e-02
        1 -1    0    0  502    0 +0.0000000000e+00 +0.0000000000e+00 +1.0509179108e+02 1.0509179108e+02 0.0000000000e+00 0.0000e+00 1.0000e+00
       13 -1    0    0    0    0 -0.0000000000e+00 -0.0000000000e+00 -1.0000000000e+03 1.0000000000e+03 0.0000000000e+00 0.0000e+00 1.0000e+00
  9000005  2    1    2  501    0 +3.6260473735e-06 +2.8649529469e-06 -8.9490824651e+02 1.1050917532e+03 6.4835716495e+02 0.0000e+00 0.0000e+00
       13  1    3    3    0    0 -2.9206095149e+02 -1.2092095034e+02 -3.2489633615e+02 4.5329803095e+02 0.0000000000e+00 0.0000e+00 1.0000e+00
        1  1    3    3  501    0 +2.9206095512e+02 +1.2092095321e+02 -5.7001191036e+02 6.5179372226e+02 0.0000000000e+00 0.0000e+00 1.0000e+00
       21  1    1    2  502  501 -3.6260473673e-06 -2.8649529494e-06 +3.7593171574e-05 3.7876149803e-05 0.0000000000e+00 0.0000e+00 -1.0000e+00
<mgrwt>
<rscale>  1 0.64835716E+03</rscale>
<asrwt>0</asrwt>
<pdfrwt beam="1">  1        1 0.38215277E+00 0.64835716E+03</pdfrwt>
<pdfrwt beam="2">0</pdfrwt>
<totfact> 0.16059377E+00</totfact>
</mgrwt>
</event>
<event>
 6      1 +5.6466785e-02 6.83519800e+02 7.81860800e-03 9.74583800e-02
        1 -1    0    0  502    0 +0.0000000000e+00 +0.0000000000e+00 +1.1680008127e+02 1.1680008127e+02 0.0000000000e+00 0.0000e+00 1.0000e+00
       13 -1    0    0    0    0 -0.0000000000e+00 -0.0000000000e+00 -1.0000000000e+03 1.0000000000e+03 0.0000000000e+00 0.0000e+00 1.0000e+00
  9000005  2    1    2  501    0 +1.4499801523e-05 +1.0471283645e-06 -8.8320016036e+02 1.1167998392e+03 6.8351982970e+02 0.0000e+00 0.0000e+00
       13  1    3    3    0    0 -1.4318638688e+02 +3.0894963869e+02 -4.8916908062e+02 5.9601896788e+02 0.0000000000e+00 0.0000e+00 1.0000e+00
        1  1    3    3  501    0 +1.4318640138e+02 -3.0894963765e+02 -3.9403107974e+02 5.2078087133e+02 0.0000000000e+00 0.0000e+00 1.0000e+00
       21  1    1    2  502  501 -1.4499801532e-05 -1.0471283366e-06 +2.4162194608e-04 2.4205888860e-04 0.0000000000e+00 0.0000e+00 -1.0000e+00
<mgrwt>
<rscale>  1 0.68351983E+03</rscale>
<asrwt>0</asrwt>
<pdfrwt beam="1">  1        1 0.42472846E+00 0.68351983E+03</pdfrwt>
<pdfrwt beam="2">0</pdfrwt>
<totfact> 0.10293407E+00</totfact>
</mgrwt>
</event>
<event>
 6      1 +5.6466785e-02 6.45571600e+02 7.81860800e-03 9.81512400e-02
        1 -1    0    0  502    0 +0.0000000000e+00 +0.0000000000e+00 +1.0419318394e+02 1.0419318394e+02 0.0000000000e+00 0.0000e+00 1.0000e+00
       13 -1    0    0    0    0 -0.0000000000e+00 -0.0000000000e+00 -1.0000000000e+03 1.0000000000e+03 0.0000000000e+00 0.0000e+00 1.0000e+00
  9000005  2    1    2  501    0 +7.8805342503e-04 +5.7022385955e-03 -8.9580498109e+02 1.1041871421e+03 6.4557159219e+02 0.0000e+00 0.0000e+00
       13  1    3    3    0    0 -3.0535948884e+02 -1.4621206161e+01 -2.7071080925e+02 4.0834120456e+02 0.0000000000e+00 0.0000e+00 1.0000e+00
        1  1    3    3  501    0 +3.0536027689e+02 +1.4626908400e+01 -6.2509417184e+02 6.9584593756e+02 0.0000000000e+00 0.0000e+00 1.0000e+00
       21  1    1    2  502  501 -7.8805342498e-04 -5.7022385955e-03 -1.8349700407e-03 6.0418265658e-03 0.0000000000e+00 0.0000e+00 -1.0000e+00
<mgrwt>
<rscale>  1 0.64557159E+03</rscale>
<asrwt>0</asrwt>
<pdfrwt beam="1">  1        1 0.37888510E+00 0.64557159E+03</pdfrwt>
<pdfrwt beam="2">0</pdfrwt>
<totfact> 0.16610113E+00</totfact>
</mgrwt>
</event>
<event>
 6      1 +5.6466785e-02 6.49522500e+02 7.81860800e-03 9.80767600e-02
        1 -1    0    0  502    0 +0.0000000000e+00 +0.0000000000e+00 +1.0546995634e+02 1.0546995634e+02 0.0000000000e+00 0.0000e+00 1.0000e+00
       13 -1    0    0    0    0 -0.0000000000e+00 -0.0000000000e+00 -1.0000000000e+03 1.0000000000e+03 0.0000000000e+00 0.0000e+00 1.0000e+00
  9000005  2    1    2  501    0 +6.6248264233e-05 -7.6004446505e-06 -8.9453011099e+02 1.1054698616e+03 6.4952251338e+02 0.0000e+00 0.0000e+00
       13  1    3    3    0    0 +1.5763386421e+02 -3.1869198940e+01 +3.2938136677e+01 1.6416151143e+02 0.0000000000e+00 0.0000e+00 1.0000e+00
        1  1    3    3  501    0 -1.5763379796e+02 +3.1869191339e+01 -9.2746824767e+02 9.4130835014e+02 0.0000000000e+00 0.0000e+00 1.0000e+00
       21  1    1    2  502  501 -6.6248264241e-05 +7.6004446523e-06 +6.7329738762e-05 9.4762297332e-05 0.0000000000e+00 0.0000e+00 1.0000e+00
<mgrwt>
<rscale>  1 0.64952251E+03</rscale>
<asrwt>0</asrwt>
<pdfrwt beam="1">  1        1 0.38352792E+00 0.64952251E+03</pdfrwt>
<pdfrwt beam="2">0</pdfrwt>
<totfact> 0.15832861E+00</totfact>
</mgrwt>
</event>
<event>
 6      1 +5.6466785e-02 6.48486300e+02 7.81860800e-03 9.80962400e-02
        1 -1    0    0  502    0 +0.0000000000e+00 +0.0000000000e+00 +1.0539581386e+02 1.0539581386e+02 0.0000000000e+00 0.0000e+00 1.0000e+00
       13 -1    0    0    0    0 -0.0000000000e+00 -0.0000000000e+00 -1.0000000000e+03 1.0000000000e+03 0.0000000000e+00 0.0000e+00 1.0000e+00
  9000005  2    1    2  501    0 +5.8083369005e-03 +3.1198727523e-02 -8.9486531386e+02 1.1051327648e+03 6.4848631210e+02 0.0000e+00 0.0000e+00
       13  1    3    3    0    0 -2.7377693154e+02 -1.5827777934e+02 -5.6937650013e+02 6.5130274264e+02 0.0000000000e+00 0.0000e+00 1.0000e+00
        1  1    3    3  501    0 +2.7378273987e+02 +1.5830897807e+02 -3.2548881373e+02 4.5383002220e+02 0.0000000000e+00 0.0000e+00 1.0000e+00
       21  1    1    2  502  501 -5.8083369005e-03 -3.1198727523e-02 +2.6112771841e-01 2.6304901197e-01 0.0000000000e+00 0.0000e+00 -1.0000e+00
<mgrwt>
<rscale>  1 0.64848631E+03</rscale>
<asrwt>0</asrwt>
<pdfrwt beam="1">  1        1 0.38325831E+00 0.64848631E+03</pdfrwt>
<pdfrwt beam="2">0</pdfrwt>
<totfact> 0.15879395E+00</totfact>
</mgrwt>
</event>
<event>
 6      1 +5.6466785e-02 6.68017600e+02 7.81860800e-03 9.77354600e-02
        1 -1    0    0  502    0 +0.0000000000e+00 +0.0000000000e+00 +1.1159085524e+02 1.1159085524e+02 0.0000000000e+00 0.0000e+00 1.0000e+00
       13 -1    0    0    0    0 -0.0000000000e+00 -0.0000000000e+00 -1.0000000000e+03 1.0000000000e+03 0.0000000000e+00 0.0000e+00 1.0000e+00
  9000005  2    1    2  501    0 +3.8607370607e-02 +1.1951614864e-02 -8.8842147574e+02 1.1115486010e+03 6.6801764359e+02 0.0000e+00 0.0000e+00
       13  1    3    3    0    0 -2.9096228575e+02 +1.6268468113e+02 -4.7858601995e+02 5.8324088993e+02 0.0000000000e+00 0.0000e+00 1.0000e+00
        1  1    3    3  501    0 +2.9100089312e+02 -1.6267272951e+02 -4.0983545579e+02 5.2830771104e+02 0.0000000000e+00 0.0000e+00 1.0000e+00
       21  1    1    2  502  501 -3.8607370607e-02 -1.1951614864e-02 +1.2330981024e-02 4.2254269087e-02 0.0000000000e+00 0.0000e+00 -1.0000e+00
<mgrwt>
<rscale>  1 0.66801764E+03</rscale>
<asrwt>0</asrwt>
<pdfrwt beam="1">  1        1 0.40578578E+00 0.66801764E+03</pdfrwt>
<pdfrwt beam="2">0</pdfrwt>
<totfact> 0.12563102E+00</totfact>
</mgrwt>
</event>
<event>
 6      1 +5.6466785e-02 6.57237700e+02 7.81860800e-03 9.79329200e-02
        1 -1    0    0  502    0 +0.0000000000e+00 +0.0000000000e+00 +1.0799211537e+02 1.0799211537e+02 0.0000000000e+00 0.0000e+00 1.0000e+00
       13 -1    0    0    0    0 -0.0000000000e+00 -0.0000000000e+00 -1.0000000000e+03 1.0000000000e+03 0.0000000000e+00 0.0000e+00 1.0000e+00
  9000005  2    1    2  501    0 +3.9232911209e-04 -2.6388175968e-05 -8.9200961937e+02 1.1079903366e+03 6.5723772336e+02 0.0000e+00 0.0000e+00
       13  1    3    3    0    0 -1.6535074253e+02 +1.4562832054e+02 -3.4987928977e+01 2.2309780584e+02 0.0000000000e+00 0.0000e+00 1.0000e+00
        1  1    3    3  501    0 +1.6535113485e+02 -1.4562834693e+02 -8.5702169039e+02 8.8489253078e+02 0.0000000000e+00 0.0000e+00 1.0000e+00
       21  1    1    2  502  501 -3.9232911207e-04 +2.6388175972e-05 +1.7347425752e-03 1.7787496368e-03 0.0000000000e+00 0.0000e+00 -1.0000e+00
<mgrwt>
<rscale>  1 0.65723772E+03</rscale>
<asrwt>0</asrwt>
<pdfrwt beam="1">  1        1 0.39269943E+00 0.65723772E+03</pdfrwt>
<pdfrwt beam="2">0</pdfrwt>
<totfact> 0.14398100E+00</totfact>
</mgrwt>
</event>
<event>
 6      1 +5.6466785e-02 6.73505600e+02 7.81860800e-03 9.76364600e-02
        1 -1    0    0  502    0 +0.0000000000e+00 +0.0000000000e+00 +1.1340352596e+02 1.1340352596e+02 0.0000000000e+00 0.0000e+00 1.0000e+00
       13 -1    0    0    0    0 -0.0000000000e+00 -0.0000000000e+00 -1.0000000000e+03 1.0000000000e+03 0.0000000000e+00 0.0000e+00 1.0000e+00
  9000005  2    1    2  501    0 -4.6266768877e-05 -1.5934975835e-05 -8.8659755833e+02 1.1134024406e+03 6.7350557846e+02 0.0000e+00 0.0000e+00
       13  1    3    3    0    0 +9.3661310558e+01 +2.2566738116e+02 -8.2640145153e+02 8.6176421781e+02 0.0000000000e+00 0.0000e+00 1.0000e+00
        3  1    3    3  501    0 -9.3661356825e+01 -2.2566739710e+02 -6.0196106805e+01 2.5163822275e+02 0.0000000000e+00 0.0000e+00 1.0000e+00
       21  1    1    2  502  501 +4.6266768870e-05 +1.5934975820e-05 +1.0842867146e-03 1.0853903522e-03 0.0000000000e+00 0.0000e+00 1.0000e+00
<mgrwt>
<rscale>  1 0.67350558E+03</rscale>
<asrwt>0</asrwt>
<pdfrwt beam="1">  1        1 0.41237733E+00 0.67350558E+03</pdfrwt>
<pdfrwt beam="2">0</pdfrwt>
<totfact> 0.11724516E+00</totfact>
</mgrwt>
</event>
<event>
 6      1 +5.6466785e-02 6.57059400e+02 7.81860800e-03 9.79362200e-02
        1 -1    0    0  502    0 +0.0000000000e+00 +0.0000000000e+00 +1.0793580451e+02 1.0793580451e+02 0.0000000000e+00 0.0000e+00 1.0000e+00
       13 -1    0    0    0    0 -0.0000000000e+00 -0.0000000000e+00 -1.0000000000e+03 1.0000000000e+03 0.0000000000e+00 0.0000e+00 1.0000e+00
  9000005  2    1    2  501    0 +6.5208200051e-04 -3.3291765362e-06 -8.9206821768e+02 1.1079317298e+03 6.5705936786e+02 0.0000e+00 0.0000e+00
       13  1    3    3    0    0 -2.9458457375e+01 -1.7017648065e+02 -9.1727689103e+02 9.3339419866e+02 0.0000000000e+00 0.0000e+00 1.0000e+00
        1  1    3    3  501    0 +2.9459109457e+01 +1.7017647732e+02 +2.5208673345e+01 1.7453753114e+02 0.0000000000e+00 0.0000e+00 1.0000e+00
       21  1    1    2  502  501 -6.5208200051e-04 +3.3291765407e-06 +4.0221904079e-03 4.0747070688e-03 0.0000000000e+00 0.0000e+00 1.0000e+00
<mgrwt>
<rscale>  1 0.65705937E+03</rscale>
<asrwt>0</asrwt>
<pdfrwt beam="1">  1        1 0.39249466E+00 0.65705937E+03</pdfrwt>
<pdfrwt beam="2">0</pdfrwt>
<totfact> 0.14428758E+00</totfact>
</mgrwt>
</event>
<event>
 6      1 +5.6466785e-02 6.54256000e+02 7.81860800e-03 9.79882600e-02
        1 -1    0    0  502    0 +0.0000000000e+00 +0.0000000000e+00 +1.0832134193e+02 1.0832134193e+02 0.0000000000e+00 0.0000e+00 1.0000e+00
       13 -1    0    0    0    0 -0.0000000000e+00 -0.0000000000e+00 -1.0000000000e+03 1.0000000000e+03 0.0000000000e+00 0.0000e+00 1.0000e+00
  9000005  2    1    2  501    0 -1.1357727298e-01 -8.8904461974e-02 -8.9298287862e+02 1.1070091701e+03 6.5425595929e+02 0.0000e+00 0.0000e+00
       13  1    3    3    0    0 -1.4277277053e+02 -2.3906487042e+01 +4.9883399879e+01 1.5311413296e+02 0.0000000000e+00 0.0000e+00 1.0000e+00
        1  1    3    3  501    0 +1.4265919326e+02 +2.3817582580e+01 -9.4286627850e+02 9.5389503709e+02 0.0000000000e+00 0.0000e+00 1.0000e+00
       21  1    1    2  502  501 +1.1357727298e-01 +8.8904461974e-02 +1.3042205492e+00 1.3121718795e+00 0.0000000000e+00 0.0000e+00 1.0000e+00
<mgrwt>
<rscale>  1 0.65425598E+03</rscale>
<asrwt>0</asrwt>
<pdfrwt beam="1">  1        1 0.39389662E+00 0.65425598E+03</pdfrwt>
<pdfrwt beam="2">0</pdfrwt>
<totfact> 0.14230763E+00</totfact>
</mgrwt>
</event>
<event>
 6      1 +5.6466785e-02 6.39391600e+02 7.81860800e-03 9.82689100e-02
        1 -1    0    0  502    0 +0.0000000000e+00 +0.0000000000e+00 +1.0220544275e+02 1.0220544275e+02 0.0000000000e+00 0.0000e+00 1.0000e+00
       13 -1    0    0    0    0 -0.0000000000e+00 -0.0000000000e+00 -1.0000000000e+03 1.0000000000e+03 0.0000000000e+00 0.0000e+00 1.0000e+00
  9000005  2    1    2  501    0 +7.7163961549e-06 +1.3573434217e-05 -8.9779460133e+02 1.1022053960e+03 6.3939157702e+02 0.0000e+00 0.0000e+00
       13  1    3    3    0    0 -1.1437527915e+02 +2.9625188086e+02 -3.8536004939e+02 4.9934882503e+02 0.0000000000e+00 0.0000e+00 1.0000e+00
        3  1    3    3  501    0 +1.1437528687e+02 -2.9625186729e+02 -5.1243455194e+02 6.0285657096e+02 0.0000000000e+00 0.0000e+00 1.0000e+00
       21  1    1    2  502  501 -7.7163961584e-06 -1.3573434223e-05 +4.4082763168e-05 4.6766129782e-05 0.0000000000e+00 0.0000e+00 1.0000e+00
<mgrwt>
<rscale>  1 0.63939158E+03</rscale>
<asrwt>0</asrwt>
<pdfrwt beam="1">  1        1 0.37165694E+00 0.63939158E+03</pdfrwt>
<pdfrwt beam="2">0</pdfrwt>
<totfact> 0.17893076E+00</totfact>
</mgrwt>
</event>
<event>
 6      1 +5.6466785e-02 6.48521400e+02 7.81860800e-03 9.80955800e-02
        1 -1    0    0  502    0 +0.0000000000e+00 +0.0000000000e+00 +1.0514526889e+02 1.0514526889e+02 0.0000000000e+00 0.0000e+00 1.0000e+00
       13 -1    0    0    0    0 -0.0000000000e+00 -0.0000000000e+00 -1.0000000000e+03 1.0000000000e+03 0.0000000000e+00 0.0000e+00 1.0000e+00
  9000005  2    1    2  501    0 -7.2073079025e-06 -1.1794179478e-05 -8.9485499324e+02 1.1051450064e+03 6.4852141540e+02 0.0000e+00 0.0000e+00
       13  1    3    3    0    0 -2.2141848030e+02 +3.5078687780e+01 -8.4666840429e+02 8.7584476055e+02 0.0000000000e+00 0.0000e+00 1.0000e+00
        1  1    3    3  501    0 +2.2141847309e+02 -3.5078699574e+01 -4.8186588948e+01 2.2930024584e+02 0.0000000000e+00 0.0000e+00 1.0000e+00
       21  1    1    2  502  501 +7.2073078747e-06 +1.1794179474e-05 +2.6213537953e-04 2.6249953363e-04 0.0000000000e+00 0.0000e+00 -1.0000e+00
<mgrwt>
<rscale>  1 0.64852142E+03</rscale>
<asrwt>0</asrwt>
<pdfrwt beam="1">  1        1 0.38234724E+00 0.64852142E+03</pdfrwt>
<pdfrwt beam="2">0</pdfrwt>
<totfact> 0.16027160E+00</totfact>
</mgrwt>
</event>
<event>
 6      1 +5.6466785e-02 5.01360200e+02 7.81860800e-03 1.01342400e-01
        1 -1    0    0  502    0 +0.0000000000e+00 +0.0000000000e+00 +6.2871220887e+01 6.2871220887e+01 0.0000000000e+00 0.0000e+00 1.0000e+00
       13 -1    0    0    0    0 -0.0000000000e+00 -0.0000000000e+00 -1.0000000000e+03 1.0000000000e+03 0.0000000000e+00 0.0000e+00 1.0000e+00
  9000005  2    1    2  501    0 +2.0000542432e-04 -6.3919054219e-04 -9.3715947417e+02 1.0628405185e+03 5.0136023753e+02 0.0000e+00 0.0000e+00
       13  1    3    3    0    0 +1.9982055175e+02 +7.2899137205e+01 -7.4980191335e+02 7.7938786645e+02 0.0000000000e+00 0.0000e+00 1.0000e+00
        3  1    3    3  501    0 -1.9982035174e+02 -7.2899776395e+01 -1.8735756082e+02 2.8345265207e+02 0.0000000000e+00 0.0000e+00 1.0000e+00
       21  1    1    2  502  501 -2.0000542434e-04 +6.3919054219e-04 +3.0695061174e-02 3.0702367127e-02 0.0000000000e+00 0.0000e+00 -1.0000e+00
<mgrwt>
<rscale>  1 0.50136024E+03</rscale>
<asrwt>0</asrwt>
<pdfrwt beam="1">  1        1 0.22862310E+00 0.50136024E+03</pdfrwt>
<pdfrwt beam="2">0</pdfrwt>
<totfact> 0.76581422E+00</totfact>
</mgrwt>
</event>
<event>
 6      1 +5.6466785e-02 6.23130600e+02 7.81860800e-03 9.85854600e-02
        1 -1    0    0  502    0 +0.0000000000e+00 +0.0000000000e+00 +1.2252179569e+02 1.2252179569e+02 0.0000000000e+00 0.0000e+00 1.0000e+00
       13 -1    0    0    0    0 -0.0000000000e+00 -0.0000000000e+00 -1.0000000000e+03 1.0000000000e+03 0.0000000000e+00 0.0000e+00 1.0000e+00
  9000005  2    1    2  501    0 +4.7873983312e+00 -1.3348048108e+01 -9.0074288197e+02 1.0952759740e+03 6.2296920493e+02 0.0000e+00 0.0000e+00
       13  1    3    3    0    0 -2.9186961574e+02 +9.0401502551e+01 -5.0042461655e+02 5.8633190354e+02 0.0000000000e+00 0.0000e+00 1.0000e+00
        1  1    3    3  501    0 +2.9665701407e+02 -1.0374955066e+02 -4.0031826543e+02 5.0894407050e+02 0.0000000000e+00 0.0000e+00 1.0000e+00
       21  1    1    2  502  501 -4.7873983312e+00 +1.3348048108e+01 +2.3264677666e+01 2.7245821661e+01 0.0000000000e+00 0.0000e+00 -1.0000e+00
<mgrwt>
<rscale>  1 0.62313058E+03</rscale>
<asrwt>0</asrwt>
<pdfrwt beam="1">  1        1 0.44553474E+00 0.62313058E+03</pdfrwt>
<pdfrwt beam="2">0</pdfrwt>
<totfact> 0.83766285E-01</totfact>
</mgrwt>
</event>
<event>
 6      1 +5.6466785e-02 6.52235900e+02 7.81860800e-03 9.80259300e-02
        1 -1    0    0  502    0 +0.0000000000e+00 +0.0000000000e+00 +1.0638350979e+02 1.0638350979e+02 0.0000000000e+00 0.0000e+00 1.0000e+00
       13 -1    0    0    0    0 -0.0000000000e+00 -0.0000000000e+00 -1.0000000000e+03 1.0000000000e+03 0.0000000000e+00 0.0000e+00 1.0000e+00
  9000005  2    1    2  501    0 +2.1293740565e-02 -3.7831803159e-03 -8.9364280773e+02 1.1063494459e+03 6.5223586853e+02 0.0000e+00 0.0000e+00
       13  1    3    3    0    0 +5.9960856700e+01 -5.3122215454e+01 -9.8305442253e+02 9.8631296847e+02 0.0000000000e+00 0.0000e+00 1.0000e+00
        1  1    3    3  501    0 -5.9939562959e+01 +5.3118432274e+01 +8.9411614802e+01 1.2003647744e+02 0.0000000000e+00 0.0000e+00 1.0000e+00
       21  1    1    2  502  501 -2.1293740565e-02 +3.7831803159e-03 +2.6317519995e-02 3.4063876750e-02 0.0000000000e+00 0.0000e+00 -1.0000e+00
<mgrwt>
<rscale>  1 0.65223587E+03</rscale>
<asrwt>0</asrwt>
<pdfrwt beam="1">  1        1 0.38684994E+00 0.65223587E+03</pdfrwt>
<pdfrwt beam="2">0</pdfrwt>
<totfact> 0.15298407E+00</totfact>
</mgrwt>
</event>
<event>
 6      1 +5.6466785e-02 6.58292800e+02 7.81860800e-03 9.79134200e-02
        1 -1    0    0  502    0 +0.0000000000e+00 +0.0000000000e+00 +1.0956367195e+02 1.0956367195e+02 0.0000000000e+00 0.0000e+00 1.0000e+00
       13 -1    0    0    0    0 -0.0000000000e+00 -0.0000000000e+00 -1.0000000000e+03 1.0000000000e+03 0.0000000000e+00 0.0000e+00 1.0000e+00
  9000005  2    1    2  501    0 +1.8043805103e-01 +1.1473447554e-01 -8.9165231048e+02 1.1083290323e+03 6.5829275800e+02 0.0000e+00 0.0000e+00
       13  1    3    3    0    0 -9.8251306929e+01 +2.3883154976e+02 -7.8946223206e+02 8.3062894503e+02 0.0000000000e+00 0.0000e+00 1.0000e+00
        1  1    3    3  501    0 +9.8431744980e+01 -2.3871681528e+02 -1.0219007843e+02 2.7770008723e+02 0.0000000000e+00 0.0000e+00 1.0000e+00
       21  1    1    2  502  501 -1.8043805103e-01 -1.1473447554e-01 +1.2159824311e+00 1.2346396895e+00 0.0000000000e+00 0.0000e+00 -1.0000e+00
<mgrwt>
<rscale>  1 0.65829279E+03</rscale>
<asrwt>0</asrwt>
<pdfrwt beam="1">  1        1 0.39841419E+00 0.65829279E+03</pdfrwt>
<pdfrwt beam="2">0</pdfrwt>
<totfact> 0.13576902E+00</totfact>
</mgrwt>
</event>
<event>
 6      1 +5.6466785e-02 6.69880700e+02 7.81860800e-03 9.77017300e-02
        1 -1    0    0  502    0 +0.0000000000e+00 +0.0000000000e+00 +1.1218617041e+02 1.1218617041e+02 0.0000000000e+00 0.0000e+00 1.0000e+00
       13 -1    0    0    0    0 -0.0000000000e+00 -0.0000000000e+00 -1.0000000000e+03 1.0000000000e+03 0.0000000000e+00 0.0000e+00 1.0000e+00
  9000005  2    1    2  501    0 -2.7477079620e-03 +2.5787354588e-05 -8.8781268048e+02 1.1121831920e+03 6.6988065870e+02 0.0000e+00 0.0000e+00
       13  1    3    3    0    0 +1.9553141637e+01 +2.4393552708e+02 -6.4222604908e+01 2.5300476221e+02 0.0000000000e+00 0.0000e+00 1.0000e+00
        1  1    3    3  501    0 -1.9555889345e+01 -2.4393550130e+02 -8.2359007557e+02 8.5917842977e+02 0.0000000000e+00 0.0000e+00 1.0000e+00
       21  1    1    2  502  501 +2.7477079620e-03 -2.5787354581e-05 -1.1491149625e-03 2.9784273080e-03 0.0000000000e+00 0.0000e+00 1.0000e+00
<mgrwt>
<rscale>  1 0.66988066E+03</rscale>
<asrwt>0</asrwt>
<pdfrwt beam="1">  1        1 0.40795057E+00 0.66988066E+03</pdfrwt>
<pdfrwt beam="2">0</pdfrwt>
<totfact> 0.12281519E+00</totfact>
</mgrwt>
</event>
<event>
 6      1 +5.6466785e-02 6.44763100e+02 7.81860800e-03 9.81665600e-02
        1 -1    0    0  502    0 +0.0000000000e+00 +0.0000000000e+00 +1.0392996097e+02 1.0392996097e+02 0.0000000000e+00 0.0000e+00 1.0000e+00
       13 -1    0    0    0    0 -0.0000000000e+00 -0.0000000000e+00 -1.0000000000e+03 1.0000000000e+03 0.0000000000e+00 0.0000e+00 1.0000e+00
  9000005  2    1    2  501    0 -7.2012895373e-05 -1.2167687828e-04 -8.9607006908e+02 1.1039298164e+03 6.4476311222e+02 0.0000e+00 0.0000e+00
       13  1    3    3    0    0 +1.8136525926e+02 +1.3980031261e+02 -8.3655431608e+02 8.6732958466e+02 0.0000000000e+00 0.0000e+00 1.0000e+00
        3  1    3    3  501    0 -1.8136533127e+02 -1.3980043429e+02 -5.9515753006e+01 2.3660023176e+02 0.0000000000e+00 0.0000e+00 1.0000e+00
       21  1    1    2  502  501 +7.2012895392e-05 +1.2167687827e-04 +3.0057367574e-05 1.4454952491e-04 0.0000000000e+00 0.0000e+00 1.0000e+00
<mgrwt>
<rscale>  1 0.64476311E+03</rscale>
<asrwt>0</asrwt>
<pdfrwt beam="1">  1        1 0.37792793E+00 0.64476311E+03</pdfrwt>
<pdfrwt beam="2">0</pdfrwt>
<totfact> 0.16774789E+00</totfact>
</mgrwt>
</event>
<event>
 6      1 +5.6466785e-02 6.55253400e+02 7.81860800e-03 9.79697100e-02
        1 -1    0    0  502    0 +0.0000000000e+00 +0.0000000000e+00 +1.0743592354e+02 1.0743592354e+02 0.0000000000e+00 0.0000e+00 1.0000e+00
       13 -1    0    0    0    0 -0.0000000000e+00 -0.0000000000e+00 -1.0000000000e+03 1.0000000000e+03 0.0000000000e+00 0.0000e+00 1.0000e+00
  9000005  2    1    2  501    0 -9.0369287656e-02 +1.1698894943e-01 -8.9259364021e+02 1.1072851686e+03 6.5525339853e+02 0.0000e+00 0.0000e+00
       13  1    3    3    0    0 +2.3395998761e+02 -2.2526704535e+02 -3.7431968071e+02 4.9557818848e+02 0.0000000000e+00 0.0000e+00 1.0000e+00
        3  1    3    3  501    0 -2.3405035690e+02 +2.2538403430e+02 -5.1827395950e+02 6.1170698016e+02 0.0000000000e+00 0.0000e+00 1.0000e+00
       21  1    1    2  502  501 +9.0369287656e-02 -1.1698894943e-01 +2.9563749325e-02 1.5075489284e-01 0.0000000000e+00 0.0000e+00 -1.0000e+00
<mgrwt>
<rscale>  1 0.65525342E+03</rscale>
<asrwt>0</asrwt>
<pdfrwt beam="1">  1        1 0.39067691E+00 0.65525342E+03</pdfrwt>
<pdfrwt beam="2">0</pdfrwt>
<totfact> 0.14704246E+00</totfact>
</mgrwt>
</event>
<event>
 6      1 +5.6466785e-02 6.47580300e+02 7.81860800e-03 9.81133000e-02
        1 -1    0    0  502    0 +0.0000000000e+00 +0.0000000000e+00 +1.0484520952e+02 1.0484520952e+02 0.0000000000e+00 0.0000e+00 1.0000e+00
       13 -1    0    0    0    0 -0.0000000000e+00 -0.0000000000e+00 -1.0000000000e+03 1.0000000000e+03 0.0000000000e+00 0.0000e+00 1.0000e+00
  9000005  2    1    2  501    0 -1.3263972801e-03 +1.4535974128e-03 -8.9515971925e+02 1.1048399024e+03 6.4758033251e+02 0.0000e+00 0.0000e+00
       13  1    3    3    0    0 +1.3113424300e+02 +2.2688322809e+02 -1.2311495049e+02 2.8953321037e+02 0.0000000000e+00 0.0000e+00 1.0000e+00
        3  1    3    3  501    0 -1.3113556940e+02 -2.2688177449e+02 -7.7204476876e+02 8.1530669207e+02 0.0000000000e+00 0.0000e+00 1.0000e+00
       21  1    1    2  502  501 +1.3263972801e-03 -1.4535974128e-03 +4.9287733881e-03 5.3070785084e-03 0.0000000000e+00 0.0000e+00 1.0000e+00
<mgrwt>
<rscale>  1 0.64758033E+03</rscale>
<asrwt>0</asrwt>
<pdfrwt beam="1">  1        1 0.38125611E+00 0.64758033E+03</pdfrwt>
<pdfrwt beam="2">0</pdfrwt>
<totfact> 0.16208782E+00</totfact>
</mgrwt>
</event>
<event>
 6      1 +5.6466785e-02 6.43962300e+02 7.81860800e-03 9.81817500e-02
        1 -1    0    0  502    0 +0.0000000000e+00 +0.0000000000e+00 +1.0445614283e+02 1.0445614283e+02 0.0000000000e+00 0.0000e+00 1.0000e+00
       13 -1    0    0    0    0 -0.0000000000e+00 -0.0000000000e+00 -1.0000000000e+03 1.0000000000e+03 0.0000000000e+00 0.0000e+00 1.0000e+00
  9000005  2    1    2  501    0 +4.9400703979e-02 -6.8346968877e-02 -8.9632564927e+02 1.1036698155e+03 6.4396225437e+02 0.0000e+00 0.0000e+00
       13  1    3    3    0    0 -6.4961841907e+01 -3.0532432414e+02 -5.8365685421e+02 6.6188995103e+02 0.0000000000e+00 0.0000e+00 1.0000e+00
        3  1    3    3  501    0 +6.5011242611e+01 +3.0525597717e+02 -3.1266879506e+02 4.4177986450e+02 0.0000000000e+00 0.0000e+00 1.0000e+00
       21  1    1    2  502  501 -4.9400703979e-02 +6.8346968877e-02 +7.8179210403e-01 7.8632730566e-01 0.0000000000e+00 0.0000e+00 1.0000e+00
<mgrwt>
<rscale>  1 0.64396226E+03</rscale>
<asrwt>0</asrwt>
<pdfrwt beam="1">  1        1 0.37984132E+00 0.64396226E+03</pdfrwt>
<pdfrwt beam="2">0</pdfrwt>
<totfact> 0.16454457E+00</totfact>
</mgrwt>
</event>
<event>
 6      1 +5.6466785e-02 6.62708800e+02 7.81860800e-03 9.78322000e-02
        1 -1    0    0  502    0 +0.0000000000e+00 +0.0000000000e+00 +1.0980908170e+02 1.0980908170e+02 0.0000000000e+00 0.0000e+00 1.0000e+00
       13 -1    0    0    0    0 -0.0000000000e+00 -0.0000000000e+00 -1.0000000000e+03 1.0000000000e+03 0.0000000000e+00 0.0000e+00 1.0000e+00
  9000005  2    1    2  501    0 +1.0433364114e-02 +1.8493015339e-02 -8.9019409930e+02 1.1097876116e+03 6.6270884101e+02 0.0000e+00 0.0000e+00
       13  1    3    3    0    0 +4.4135082983e+01 -3.2388844178e+02 -5.3586516441e+02 6.2769666456e+02 0.0000000000e+00 0.0000e+00 1.0000e+00
        3  1    3    3  501    0 -4.4124649619e+01 +3.2390693479e+02 -3.5432893489e+02 4.8209094703e+02 0.0000000000e+00 0.0000e+00 1.0000e+00
       21  1    1    2  502  501 -1.0433364114e-02 -1.8493015339e-02 +3.1810011698e-03 2.1470106462e-02 0.0000000000e+00 0.0000e+00 -1.0000e+00
<mgrwt>
<rscale>  1 0.66270884E+03</rscale>
<asrwt>0</asrwt>
<pdfrwt beam="1">  1        1 0.39930659E+00 0.66270884E+03</pdfrwt>
<pdfrwt beam="2">0</pdfrwt>
<totfact> 0.13442030E+00</totfact>
</mgrwt>
</event>
<event>
 6      1 +5.6466785e-02 5.65611500e+02 7.81860800e-03 9.97943700e-02
        1 -1    0    0  502    0 +0.0000000000e+00 +0.0000000000e+00 +8.2562385960e+01 8.2562385960e+01 0.0000000000e+00 0.0000e+00 1.0000e+00
       13 -1    0    0    0    0 -0.0000000000e+00 -0.0000000000e+00 -1.0000000000e+03 1.0000000000e+03 0.0000000000e+00 0.0000e+00 1.0000e+00
  9000005  2    1    2  501    0 -3.2325735964e-01 -8.3472276759e-01 -9.1993697319e+02 1.0799075689e+03 5.6561075085e+02 0.0000e+00 0.0000e+00
       13  1    3    3    0    0 -4.7054807193e+01 +2.9984984054e+01 +6.9366105786e+01 8.9021967966e+01 0.0000000000e+00 0.0000e+00 1.0000e+00
        3  1    3    3  501    0 +4.6731549833e+01 -3.0819706821e+01 -9.8930307898e+02 9.9088560094e+02 0.0000000000e+00 0.0000e+00 1.0000e+00
       21  1    1    2  502  501 +3.2325735964e-01 +8.3472276759e-01 +2.4993591512e+00 2.6548170532e+00 0.0000000000e+00 0.0000e+00 1.0000e+00
<mgrwt>
<rscale>  1 0.56561146E+03</rscale>
<asrwt>0</asrwt>
<pdfrwt beam="1">  1        1 0.30022749E+00 0.56561146E+03</pdfrwt>
<pdfrwt beam="2">0</pdfrwt>
<totfact> 0.37040086E+00</totfact>
</mgrwt>
</event>
<event>
 6      1 +5.6466785e-02 6.49037400e+02 7.81860800e-03 9.80858700e-02
        1 -1    0    0  502    0 +0.0000000000e+00 +0.0000000000e+00 +1.0536046043e+02 1.0536046043e+02 0.0000000000e+00 0.0000e+00 1.0000e+00
       13 -1    0    0    0    0 -0.0000000000e+00 -0.0000000000e+00 -1.0000000000e+03 1.0000000000e+03 0.0000000000e+00 0.0000e+00 1.0000e+00
  9000005  2    1    2  501    0 -4.0075253352e-03 +6.9832725248e-04 -8.9468751517e+02 1.1053123127e+03 6.4903740935e+02 0.0000e+00 0.0000e+00
       13  1    3    3    0    0 +1.6012121601e+02 -2.3817244458e+02 -7.0531552091e+02 7.6146891020e+02 0.0000000000e+00 0.0000e+00 1.0000e+00
        3  1    3    3  501    0 -1.6012522353e+02 +2.3817314291e+02 -1.8937199427e+02 3.4384340247e+02 0.0000000000e+00 0.0000e+00 1.0000e+00
       21  1    1    2  502  501 +4.0075253352e-03 -6.9832725247e-04 +4.7975604956e-02 4.8147757904e-02 0.0000000000e+00 0.0000e+00 1.0000e+00
<mgrwt>
<rscale>  1 0.64903741E+03</rscale>
<asrwt>0</asrwt>
<pdfrwt beam="1">  1        1 0.38312975E+00 0.64903741E+03</pdfrwt>
<pdfrwt beam="2">0</pdfrwt>
<totfact> 0.15898566E+00</totfact>
</mgrwt>
</event>
<event>
 6      1 +5.6466785e-02 6.50580800e+02 7.81860800e-03 9.80569000e-02
        1 -1    0    0  502    0 +0.0000000000e+00 +0.0000000000e+00 +1.0583351241e+02 1.0583351241e+02 0.0000000000e+00 0.0000e+00 1.0000e+00
       13 -1    0    0    0    0 -0.0000000000e+00 -0.0000000000e+00 -1.0000000000e+03 1.0000000000e+03 0.0000000000e+00 0.0000e+00 1.0000e+00
  9000005  2    1    2  501    0 -2.4801586856e-03 -7.4853151182e-03 -8.9418528279e+02 1.1058131300e+03 6.5058078557e+02 0.0000e+00 0.0000e+00
       13  1    3    3    0    0 +9.1537440911e+00 +3.1973469817e+02 -5.4760705387e+02 6.3418258703e+02 0.0000000000e+00 0.0000e+00 1.0000e+00
        3  1    3    3  501    0 -9.1562242498e+00 -3.1974218348e+02 -3.4657822892e+02 4.7163054301e+02 0.0000000000e+00 0.0000e+00 1.0000e+00
       21  1    1    2  502  501 +2.4801586856e-03 +7.4853151182e-03 +1.8795199782e-02 2.0382361600e-02 0.0000000000e+00 0.0000e+00 -1.0000e+00
<mgrwt>
<rscale>  1 0.65058079E+03</rscale>
<asrwt>0</asrwt>
<pdfrwt beam="1">  1        1 0.38484995E+00 0.65058079E+03</pdfrwt>
<pdfrwt beam="2">0</pdfrwt>
<totfact> 0.15618142E+00</totfact>
</mgrwt>
</event>
<event>
 6      1 +5.6466785e-02 6.50746800e+02 7.81860800e-03 9.80537900e-02
        1 -1    0    0  502    0 +0.0000000000e+00 +0.0000000000e+00 +1.1935460868e+02 1.1935460868e+02 0.0000000000e+00 0.0000e+00 1.0000e+00
       13 -1    0    0    0    0 -0.0000000000e+00 -0.0000000000e+00 -1.0000000000e+03 1.0000000000e+03 0.0000000000e+00 0.0000e+00 1.0000e+00
  9000005  2    1    2  501    0 +1.2605126628e+01 +3.0449409877e+01 -8.6610899410e+02 1.0833356883e+03 6.4991181569e+02 0.0000e+00 0.0000e+00
       13  1    3    3    0    0 -1.7389261648e+02 -2.4421468876e+02 -2.8264068747e+02 4.1202574493e+02 0.0000000000e+00 0.0000e+00 1.0000e+00
        3  1    3    3  501    0 +1.8649774311e+02 +2.7466409864e+02 -5.8346830663e+02 6.7130994340e+02 0.0000000000e+00 0.0000e+00 1.0000e+00
       21  1    1    2  502  501 -1.2605126628e+01 -3.0449409877e+01 -1.4536397213e+01 3.6018920349e+01 0.0000000000e+00 0.0000e+00 -1.0000e+00
<mgrwt>
<rscale>  1 0.65074682E+03</rscale>
<asrwt>0</asrwt>
<pdfrwt beam="1">  1        1 0.43401767E+00 0.65074682E+03</pdfrwt>
<pdfrwt beam="2">0</pdfrwt>
<totfact> 0.94011747E-01</totfact>
</mgrwt>
</event>
<event>
 6      1 +5.6466785e-02 7.10265700e+02 7.81860800e-03 9.69983600e-02
        1 -1    0    0  502    0 +0.0000000000e+00 +0.0000000000e+00 +1.2615477208e+02 1.2615477208e+02 0.0000000000e+00 0.0000e+00 1.0000e+00
       13 -1    0    0    0    0 -0.0000000000e+00 -0.0000000000e+00 -1.0000000000e+03 1.0000000000e+03 0.0000000000e+00 0.0000e+00 1.0000e+00
  9000005  2    1    2  501    0 -9.0486959266e-04 -5.9917051102e-03 -8.7388037424e+02 1.1261191072e+03 7.1026567925e+02 0.0000e+00 0.0000e+00
       13  1    3    3    0    0 +9.2117699529e+01 +2.1726690584e+02 -1.6177995375e+01 2.3654239889e+02 0.0000000000e+00 0.0000e+00 1.0000e+00
        3  1    3    3  501    0 -9.2118604398e+01 -2.1727289754e+02 -8.5770237886e+02 8.8957670832e+02 0.0000000000e+00 0.0000e+00 1.0000e+00
       21  1    1    2  502  501 +9.0486959265e-04 +5.9917051102e-03 +3.5146312919e-02 3.5664865496e-02 0.0000000000e+00 0.0000e+00 -1.0000e+00
<mgrwt>
<rscale>  1 0.71026568E+03</rscale>
<asrwt>0</asrwt>
<pdfrwt beam="1">  1        1 0.45874559E+00 0.71026568E+03</pdfrwt>
<pdfrwt beam="2">0</pdfrwt>
<totfact> 0.71505263E-01</totfact>
</mgrwt>
</event>
<event>
 6      1 +5.6466785e-02 6.52838500e+02 7.81860800e-03 9.80146700e-02
        1 -1    0    0  502    0 +0.0000000000e+00 +0.0000000000e+00 +1.0655066847e+02 1.0655066847e+02 0.0000000000e+00 0.0000e+00 1.0000e+00
       13 -1    0    0    0    0 -0.0000000000e+00 -0.0000000000e+00 -1.0000000000e+03 1.0000000000e+03 0.0000000000e+00 0.0000e+00 1.0000e+00
  9000005  2    1    2  501    0 +4.3278414242e-04 -3.4255818665e-04 -8.9345040300e+02 1.1065494632e+03 6.5283848835e+02 0.0000e+00 0.0000e+00
       13  1    3    3    0    0 -1.0999364954e+02 -8.9897717543e+01 -9.4485756606e+02 9.5547685618e+02 0.0000000000e+00 0.0000e+00 1.0000e+00
        1  1    3    3  501    0 +1.0999408232e+02 +8.9897374985e+01 +5.1407163063e+01 1.5107260701e+02 0.0000000000e+00 0.0000e+00 1.0000e+00
       21  1    1    2  502  501 -4.3278414243e-04 +3.4255818665e-04 +1.0714719620e-03 1.2052802124e-03 0.0000000000e+00 0.0000e+00 -1.0000e+00
<mgrwt>
<rscale>  1 0.65283849E+03</rscale>
<asrwt>0</asrwt>
<pdfrwt beam="1">  1        1 0.38745779E+00 0.65283849E+03</pdfrwt>
<pdfrwt beam="2">0</pdfrwt>
<totfact> 0.15202190E+00</totfact>
</mgrwt>
</event>
<event>
 6      1 +5.6466785e-02 6.59504900e+02 7.81860800e-03 9.78910600e-02
        1 -1    0    0  502    0 +0.0000000000e+00 +0.0000000000e+00 +1.1045412958e+02 1.1045412958e+02 0.0000000000e+00 0.0000e+00 1.0000e+00
       13 -1    0    0    0    0 -0.0000000000e+00 -0.0000000000e+00 -1.0000000000e+03 1.0000000000e+03 0.0000000000e+00 0.0000e+00 1.0000e+00
  9000005  2    1    2  501    0 +1.3739439035e-01 -2.7712693774e-01 -8.9124786285e+02 1.1087242583e+03 6.5950483861e+02 0.0000e+00 0.0000e+00
       13  1    3    3    0    0 -1.6093611727e+02 -2.5596840136e+02 -2.2418727072e+02 3.7640428888e+02 0.0000000000e+00 0.0000e+00 1.0000e+00
        1  1    3    3  501    0 +1.6107351166e+02 +2.5569127442e+02 -6.6706059213e+02 7.3231996938e+02 0.0000000000e+00 0.0000e+00 1.0000e+00
       21  1    1    2  502  501 -1.3739439035e-01 +2.7712693774e-01 +1.7019924260e+00 1.7298713178e+00 0.0000000000e+00 0.0000e+00 -1.0000e+00
<mgrwt>
<rscale>  1 0.65950491E+03</rscale>
<asrwt>0</asrwt>
<pdfrwt beam="1">  1        1 0.40165223E+00 0.65950491E+03</pdfrwt>
<pdfrwt beam="2">0</pdfrwt>
<totfact> 0.13129979E+00</totfact>
</mgrwt>
</event>
<event>
 6      1 +5.6466785e-02 6.61141800e+02 7.81860800e-03 9.78609400e-02
        1 -1    0    0  502    0 +0.0000000000e+00 +0.0000000000e+00 +1.1591238626e+02 1.1591238626e+02 0.0000000000e+00 0.0000e+00 1.0000e+00
       13 -1    0    0    0    0 -0.0000000000e+00 -0.0000000000e+00 -1.0000000000e+03 1.0000000000e+03 0.0000000000e+00 0.0000e+00 1.0000e+00
  9000005  2    1    2  501    0 +1.1345048434e+00 -3.3065033723e-01 -8.9066446231e+02 1.1092302183e+03 6.6114075388e+02 0.0000e+00 0.0000e+00
       13  1    3    3    0    0 -1.3185543119e+02 +7.0954191772e+01 -9.3894101550e+02 9.5080522856e+02 0.0000000000e+00 0.0000e+00 1.0000e+00
        3  1    3    3  501    0 +1.3298993603e+02 -7.1284842109e+01 +4.8276553192e+01 1.5842498979e+02 0.0000000000e+00 0.0000e+00 1.0000e+00
       21  1    1    2  502  501 -1.1345048434e+00 +3.3065033723e-01 +6.5768485729e+00 6.6821679144e+00 0.0000000000e+00 0.0000e+00 -1.0000e+00
<mgrwt>
<rscale>  1 0.66114181E+03</rscale>
<asrwt>0</asrwt>
<pdfrwt beam="1">  1        1 0.42150048E+00 0.66114181E+03</pdfrwt>
<pdfrwt beam="2">0</pdfrwt>
<totfact> 0.10691383E+00</totfact>
</mgrwt>
</event>
<event>
 6      1 +5.6466785e-02 6.46618300e+02 7.81860800e-03 9.81314600e-02
        1 -1    0    0  502    0 +0.0000000000e+00 +0.0000000000e+00 +1.0459696063e+02 1.0459696063e+02 0.0000000000e+00 0.0000e+00 1.0000e+00
       13 -1    0    0    0    0 -0.0000000000e+00 -0.0000000000e+00 -1.0000000000e+03 1.0000000000e+03 0.0000000000e+00 0.0000e+00 1.0000e+00
  9000005  2    1    2  501    0 +5.4537780598e-03 +1.7759938472e-02 -8.9546980021e+02 1.1045276629e+03 6.4661827593e+02 0.0000e+00 0.0000e+00
       13  1    3    3    0    0 +2.0702943897e+02 -2.2428133340e+02 -6.2981129798e+02 6.9987540047e+02 0.0000000000e+00 0.0000e+00 1.0000e+00
        3  1    3    3  501    0 -2.0702398520e+02 +2.2429909334e+02 -2.6565850223e+02 4.0465226248e+02 0.0000000000e+00 0.0000e+00 1.0000e+00
       21  1    1    2  502  501 -5.4537780598e-03 -1.7759938472e-02 +6.6760841424e-02 6.9297684358e-02 0.0000000000e+00 0.0000e+00 1.0000e+00
<mgrwt>
<rscale>  1 0.64661828E+03</rscale>
<asrwt>0</asrwt>
<pdfrwt beam="1">  1        1 0.38035339E+00 0.64661828E+03</pdfrwt>
<pdfrwt beam="2">0</pdfrwt>
<totfact> 0.16361075E+00</totfact>
</mgrwt>
</event>
<event>
 6      1 +5.6466785e-02 6.40939900e+02 7.81860800e-03 9.82393000e-02
        1 -1    0    0  502    0 +0.0000000000e+00 +0.0000000000e+00 +1.0276337384e+02 1.0276337384e+02 0.0000000000e+00 0.0000e+00 1.0000e+00
       13 -1    0    0    0    0 -0.0000000000e+00 -0.0000000000e+00 -1.0000000000e+03 1.0000000000e+03 0.0000000000e+00 0.0000e+00 1.0000e+00
  9000005  2    1    2  501    0 +1.0104001398e-03 +3.1698039680e-04 -8.9729900979e+02 1.1027009812e+03 6.4093988877e+02 0.0000e+00 0.0000e+00
       13  1    3    3    0    0 -2.5439991597e+01 -3.1635793294e+02 -3.7226222069e+02 4.8919188040e+02 0.0000000000e+00 0.0000e+00 1.0000e+00
        3  1    3    3  501    0 +2.5441001997e+01 +3.1635824992e+02 -5.2503678910e+02 6.1350910082e+02 0.0000000000e+00 0.0000e+00 1.0000e+00
       21  1    1    2  502  501 -1.0104001398e-03 -3.1698039679e-04 +6.2383626187e-02 6.2392613355e-02 0.0000000000e+00 0.0000e+00 1.0000e+00
<mgrwt>
<rscale>  1 0.64093989E+03</rscale>
<asrwt>0</asrwt>
<pdfrwt beam="1">  1        1 0.37368578E+00 0.64093989E+03</pdfrwt>
<pdfrwt beam="2">0</pdfrwt>
<totfact> 0.17524320E+00</totfact>
</mgrwt>
</event>
<event>
 6      1 +5.6466785e-02 6.32734800e+02 7.81860800e-03 9.83972600e-02
        1 -1    0    0  502    0 +0.0000000000e+00 +0.0000000000e+00 +1.0008842398e+02 1.0008842398e+02 0.0000000000e+00 0.0000e+00 1.0000e+00
       13 -1    0    0    0    0 -0.0000000000e+00 -0.0000000000e+00 -1.0000000000e+03 1.0000000000e+03 0.0000000000e+00 0.0000e+00 1.0000e+00
  9000005  2    1    2  501    0 -2.7061842061e-05 -2.4899334107e-05 -8.9991164777e+02 1.1000883434e+03 6.3273484920e+02 0.0000e+00 0.0000e+00
       13  1    3    3    0    0 -1.2010793015e+02 -1.6196275768e+02 -2.6107469676e+01 2.0332105088e+02 0.0000000000e+00 0.0000e+00 1.0000e+00
        3  1    3    3  501    0 +1.2010790309e+02 +1.6196273278e+02 -8.7380417809e+02 8.9676729247e+02 0.0000000000e+00 0.0000e+00 1.0000e+00
       21  1    1    2  502  501 +2.7061842056e-05 +2.4899334128e-05 +7.1745754955e-05 8.0621172713e-05 0.0000000000e+00 0.0000e+00 1.0000e+00
<mgrwt>
<rscale>  1 0.63273485E+03</rscale>
<asrwt>0</asrwt>
<pdfrwt beam="1">  1        1 0.36395867E+00 0.63273485E+03</pdfrwt>
<pdfrwt beam="2">0</pdfrwt>
<totfact> 0.19363686E+00</totfact>
</mgrwt>
</event>
<event>
 6      1 +5.6466785e-02 6.70257000e+02 7.81860800e-03 9.76949400e-02
        1 -1    0    0  502    0 +0.0000000000e+00 +0.0000000000e+00 +1.1231164767e+02 1.1231164767e+02 0.0000000000e+00 0.0000e+00 1.0000e+00
       13 -1    0    0    0    0 -0.0000000000e+00 -0.0000000000e+00 -1.0000000000e+03 1.0000000000e+03 0.0000000000e+00 0.0000e+00 1.0000e+00
  9000005  2    1    2  501    0 -8.0083809340e-04 -1.1490158785e-03 -8.8768496485e+02 1.1123079821e+03 6.7025700308e+02 0.0000e+00 0.0000e+00
       13  1    3    3    0    0 +1.7035505821e+02 +2.7087494926e+02 -6.0910042748e+02 6.8803881776e+02 0.0000000000e+00 0.0000e+00 1.0000e+00
        3  1    3    3  501    0 -1.7035585904e+02 -2.7087609828e+02 -2.7858453737e+02 4.2426916432e+02 0.0000000000e+00 0.0000e+00 1.0000e+00
       21  1    1    2  502  501 +8.0083809340e-04 +1.1490158785e-03 -3.3874775181e-03 3.6655945052e-03 0.0000000000e+00 0.0000e+00 -1.0000e+00
<mgrwt>
<rscale>  1 0.67025700E+03</rscale>
<asrwt>0</asrwt>
<pdfrwt beam="1">  1        1 0.40840685E+00 0.67025700E+03</pdfrwt>
<pdfrwt beam="2">0</pdfrwt>
<totfact> 0.12222970E+00</totfact>
</mgrwt>
</event>
<event>
 6      1 +5.6466785e-02 6.46874400e+02 7.81860800e-03 9.81266200e-02
        1 -1    0    0  502    0 +0.0000000000e+00 +0.0000000000e+00 +1.0461449969e+02 1.0461449969e+02 0.0000000000e+00 0.0000e+00 1.0000e+00
       13 -1    0    0    0    0 -0.0000000000e+00 -0.0000000000e+00 -1.0000000000e+03 1.0000000000e+03 0.0000000000e+00 0.0000e+00 1.0000e+00
  9000005  2    1    2  501    0 +5.5053523477e-04 -2.8715794399e-03 -8.9538753711e+02 1.1046109363e+03 6.4687439198e+02 0.0000e+00 0.0000e+00
       13  1    3    3    0    0 +3.2066869783e+02 +3.1788401038e+00 -3.7578622558e+02 4.9401802207e+02 0.0000000000e+00 0.0000e+00 1.0000e+00
        3  1    3    3  501    0 -3.2066814730e+02 -3.1817116833e+00 -5.1960131154e+02 6.1059291425e+02 0.0000000000e+00 0.0000e+00 1.0000e+00
       21  1    1    2  502  501 -5.5053523474e-04 +2.8715794399e-03 +2.0368082725e-03 3.5633755715e-03 0.0000000000e+00 0.0000e+00 1.0000e+00
<mgrwt>
<rscale>  1 0.64687439E+03</rscale>
<asrwt>0</asrwt>
<pdfrwt beam="1">  1        1 0.38041716E+00 0.64687439E+03</pdfrwt>
<pdfrwt beam="2">0</pdfrwt>
<totfact> 0.16349706E+00</totfact>
</mgrwt>
</event>
<event>
 6      1 +5.6466785e-02 6.27425600e+02 7.81860800e-03 9.85008600e-02
        1 -1    0    0  502    0 +0.0000000000e+00 +0.0000000000e+00 +9.8427919169e+01 9.8427919169e+01 0.0000000000e+00 0.0000e+00 1.0000e+00
       13 -1    0    0    0    0 -0.0000000000e+00 -0.0000000000e+00 -1.0000000000e+03 1.0000000000e+03 0.0000000000e+00 0.0000e+00 1.0000e+00
  9000005  2    1    2  501    0 +1.2051549390e-05 +2.5013946387e-04 -9.0158428833e+02 1.0984157091e+03 6.2742556613e+02 0.0000e+00 0.0000e+00
       13  1    3    3    0    0 -2.3426259629e+02 +2.0809049495e+02 -4.7763760567e+02 5.7124276841e+02 0.0000000000e+00 0.0000e+00 1.0000e+00
        1  1    3    3  501    0 +2.3426260834e+02 -2.0809024481e+02 -4.2394668266e+02 5.2717294069e+02 0.0000000000e+00 0.0000e+00 1.0000e+00
       21  1    1    2  502  501 -1.2051549405e-05 -2.5013946387e-04 +1.2207501169e-02 1.2210069606e-02 0.0000000000e+00 0.0000e+00 1.0000e+00
<mgrwt>
<rscale>  1 0.62742557E+03</rscale>
<asrwt>0</asrwt>
<pdfrwt beam="1">  1        1 0.35792046E+00 0.62742557E+03</pdfrwt>
<pdfrwt beam="2">0</pdfrwt>
<totfact> 0.20597873E+00</totfact>
</mgrwt>
</event>
<event>
 6      1 +5.6466785e-02 6.58912300e+02 7.81860800e-03 9.79019800e-02
        3 -1    0    0  502    0 +0.0000000000e+00 +0.0000000000e+00 +1.0854300540e+02 1.0854300540e+02 0.0000000000e+00 0.0000e+00 1.0000e+00
       13 -1    0    0    0    0 -0.0000000000e+00 -0.0000000000e+00 -1.0000000000e+03 1.0000000000e+03 0.0000000000e+00 0.0000e+00 1.0000e+00
  9000005  2    1    2  501    0 -3.3882237602e-05 -3.2792878642e-05 -8.9145863583e+02 1.1085413635e+03 6.5891232739e+02 0.0000e+00 0.0000e+00
       13  1    3    3    0    0 +1.5603283949e+02 -2.8491037548e+02 -3.5325654457e+02 4.7990661105e+02 0.0000000000e+00 0.0000e+00 1.0000e+00
        1  1    3    3  501    0 -1.5603287337e+02 +2.8491034269e+02 -5.3820209126e+02 6.2863475244e+02 0.0000000000e+00 0.0000e+00 1.0000e+00
       21  1    1    2  502  501 +3.3882237605e-05 +3.2792878633e-05 +1.6412319552e-03 1.6419091661e-03 0.0000000000e+00 0.0000e+00 -1.0000e+00
<mgrwt>
<rscale>  1 0.65891233E+03</rscale>
<asrwt>0</asrwt>
<pdfrwt beam="1">  1        3 0.39470267E+00 0.65891233E+03</pdfrwt>
<pdfrwt beam="2">0</pdfrwt>
<totfact> 0.63057669E-02</totfact>
</mgrwt>
</event>
<event>
 6      1 +5.6466785e-02 6.53819500e+02 7.81860800e-03 9.79963800e-02
        1 -1    0    0  502    0 +0.0000000000e+00 +0.0000000000e+00 +1.1085160661e+02 1.1085160661e+02 0.0000000000e+00 0.0000e+00 1.0000e+00
       13 -1    0    0    0    0 -0.0000000000e+00 -0.0000000000e+00 -1.0000000000e+03 1.0000000000e+03 0.0000000000e+00 0.0000e+00 1.0000e+00
  9000005  2    1    2  501    0 +1.3707152341e+00 -4.6549119636e+00 -8.9142249278e+02 1.1054926334e+03 6.5380146440e+02 0.0000e+00 0.0000e+00
       13  1    3    3    0    0 +2.9076346877e+02 +5.8658580039e+01 -2.1288761198e+02 3.6511006439e+02 0.0000000000e+00 0.0000e+00 1.0000e+00
        1  1    3    3  501    0 -2.8939275354e+02 -6.3313492003e+01 -6.7853488079e+02 7.4038256903e+02 0.0000000000e+00 0.0000e+00 1.0000e+00
       21  1    1    2  502  501 -1.3707152341e+00 +4.6549119636e+00 +2.2740993839e+00 5.3589731898e+00 0.0000000000e+00 0.0000e+00 1.0000e+00
<mgrwt>
<rscale>  1 0.65381947E+03</rscale>
<asrwt>0</asrwt>
<pdfrwt beam="1">  1        1 0.40309760E+00 0.65381947E+03</pdfrwt>
<pdfrwt beam="2">0</pdfrwt>
<totfact> 0.12950291E+00</totfact>
</mgrwt>
</event>
<event>
 6      1 +5.6466785e-02 6.57456000e+02 7.81860800e-03 9.79288800e-02
        1 -1    0    0  502    0 +0.0000000000e+00 +0.0000000000e+00 +1.0806398675e+02 1.0806398675e+02 0.0000000000e+00 0.0000e+00 1.0000e+00
       13 -1    0    0    0    0 -0.0000000000e+00 -0.0000000000e+00 -1.0000000000e+03 1.0000000000e+03 0.0000000000e+00 0.0000e+00 1.0000e+00
  9000005  2    1    2  501    0 +1.3250087147e-04 +5.7301123675e-05 -8.9193790830e+02 1.1080620862e+03 6.5745597164e+02 0.0000e+00 0.0000e+00
       13  1    3    3    0    0 -3.1009366888e+02 -8.2426482597e+01 -5.6644494042e+02 6.5100850919e+02 0.0000000000e+00 0.0000e+00 1.0000e+00
        3  1    3    3  501    0 +3.1009380138e+02 +8.2426539898e+01 -3.2549296787e+02 4.5705357702e+02 0.0000000000e+00 0.0000e+00 1.0000e+00
       21  1    1    2  502  501 -1.3250087145e-04 -5.7301123677e-05 +1.8950476815e-03 1.9005382435e-03 0.0000000000e+00 0.0000e+00 -1.0000e+00
<mgrwt>
<rscale>  1 0.65745597E+03</rscale>
<asrwt>0</asrwt>
<pdfrwt beam="1">  1        1 0.39296078E+00 0.65745597E+03</pdfrwt>
<pdfrwt beam="2">0</pdfrwt>
<totfact> 0.14359085E+00</totfact>
</mgrwt>
</event>
<event>
 6      1 +5.6466785e-02 6.57651100e+02 7.81860800e-03 9.79252700e-02
        1 -1    0    0  502    0 +0.0000000000e+00 +0.0000000000e+00 +1.0813038646e+02 1.0813038646e+02 0.0000000000e+00 0.0000e+00 1.0000e+00
       13 -1    0    0    0    0 -0.0000000000e+00 -0.0000000000e+00 -1.0000000000e+03 1.0000000000e+03 0.0000000000e+00 0.0000e+00 1.0000e+00
  9000005  2    1    2  501    0 -1.2993960682e-03 -5.3711862627e-03 -8.9187162107e+02 1.1081245070e+03 6.5765107350e+02 0.0000e+00 0.0000e+00
       13  1    3    3    0    0 +1.7956496554e+02 -1.9496092723e+02 -1.1802199552e+02 2.9014226066e+02 0.0000000000e+00 0.0000e+00 1.0000e+00
        3  1    3    3  501    0 -1.7956626493e+02 +1.9495555604e+02 -7.7384962556e+02 8.1798224633e+02 0.0000000000e+00 0.0000e+00 1.0000e+00
       21  1    1    2  502  501 +1.2993960682e-03 +5.3711862627e-03 +2.0075375125e-03 5.8794794731e-03 0.0000000000e+00 0.0000e+00 1.0000e+00
<mgrwt>
<rscale>  1 0.65765107E+03</rscale>
<asrwt>0</asrwt>
<pdfrwt beam="1">  1        1 0.39320223E+00 0.65765107E+03</pdfrwt>
<pdfrwt beam="2">0</pdfrwt>
<totfact> 0.14323147E+00</totfact>
</mgrwt>
</event>
<event>
 6      1 +5.6466785e-02 6.65719000e+02 7.81860800e-03 9.77772300e-02
        1 -1    0    0  502    0 +0.0000000000e+00 +0.0000000000e+00 +1.2621405484e+02 1.2621405484e+02 0.0000000000e+00 0.0000e+00 1.0000e+00
       13 -1    0    0    0    0 -0.0000000000e+00 -0.0000000000e+00 -1.0000000000e+03 1.0000000000e+03 0.0000000000e+00 0.0000e+00 1.0000e+00
  9000005  2    1    2  501    0 -1.1578818466e+00 +2.4828292840e-01 -8.8917929899e+02 1.1107752182e+03 6.6571792620e+02 0.0000e+00 0.0000e+00
       13  1    3    3    0    0 -2.0841721678e+02 -1.4052818703e+02 -8.0985628250e+02 8.4796999116e+02 0.0000000000e+00 0.0000e+00 1.0000e+00
        1  1    3    3  501    0 +2.0725933493e+02 +1.4077646996e+02 -7.9323016495e+01 2.6280522704e+02 0.0000000000e+00 0.0000e+00 1.0000e+00
       21  1    1    2  502  501 +1.1578818466e+00 -2.4828292840e-01 +1.5393353835e+01 1.5438836649e+01 0.0000000000e+00 0.0000e+00 1.0000e+00
<mgrwt>
<rscale>  1 0.66571898E+03</rscale>
<asrwt>0</asrwt>
<pdfrwt beam="1">  1        1 0.45896117E+00 0.66571898E+03</pdfrwt>
<pdfrwt beam="2">0</pdfrwt>
<totfact> 0.71984892E-01</totfact>
</mgrwt>
</event>
<event>
 6      1 +5.6466785e-02 5.99474200e+02 7.81860800e-03 9.90649700e-02
        1 -1    0    0  502    0 +0.0000000000e+00 +0.0000000000e+00 +8.9842534162e+01 8.9842534162e+01 0.0000000000e+00 0.0000e+00 1.0000e+00
       13 -1    0    0    0    0 -0.0000000000e+00 -0.0000000000e+00 -1.0000000000e+03 1.0000000000e+03 0.0000000000e+00 0.0000e+00 1.0000e+00
  9000005  2    1    2  501    0 -1.5439551305e-05 -1.4704685611e-06 -9.1015766365e+02 1.0898423357e+03 5.9947422302e+02 0.0000e+00 0.0000e+00
       13  1    3    3    0    0 -2.6560467396e+02 +1.2992679785e+02 -5.4442972824e+02 6.1954059158e+02 0.0000000000e+00 0.0000e+00 1.0000e+00
        1  1    3    3  501    0 +2.6560465852e+02 -1.2992679932e+02 -3.6572793542e+02 4.7030174416e+02 0.0000000000e+00 0.0000e+00 1.0000e+00
       21  1    1    2  502  501 +1.5439551294e-05 +1.4704685411e-06 +1.9781620956e-04 1.9842327179e-04 0.0000000000e+00 0.0000e+00 -1.0000e+00
<mgrwt>
<rscale>  1 0.59947422E+03</rscale>
<asrwt>0</asrwt>
<pdfrwt beam="1">  1        1 0.32670081E+00 0.59947422E+03</pdfrwt>
<pdfrwt beam="2">0</pdfrwt>
<totfact> 0.28294521E+00</totfact>
</mgrwt>
</event>
<event>
 6      1 +5.6466785e-02 6.47358600e+02 7.81860800e-03 9.81174800e-02
        3 -1    0    0  502    0 +0.0000000000e+00 +0.0000000000e+00 +1.0476830585e+02 1.0476830585e+02 0.0000000000e+00 0.0000e+00 1.0000e+00
       13 -1    0    0    0    0 -0.0000000000e+00 -0.0000000000e+00 -1.0000000000e+03 1.0000000000e+03 0.0000000000e+00 0.0000e+00 1.0000e+00
  9000005  2    1    2  501    0 -2.5464528445e-05 -5.9839148690e-05 -8.9523167319e+02 1.1047682375e+03 6.4735856368e+02 0.0000e+00 0.0000e+00
       13  1    3    3    0    0 -1.6566543006e+01 +2.2494347370e+02 -8.4380031675e+02 8.7342600789e+02 0.0000000000e+00 0.0000e+00 1.0000e+00
        3  1    3    3  501    0 +1.6566517542e+01 -2.2494353354e+02 -5.1431356434e+01 2.3134222963e+02 0.0000000000e+00 0.0000e+00 1.0000e+00
       21  1    1    2  502  501 +2.5464528445e-05 +5.9839148691e-05 -2.0960417917e-05 6.8326459327e-05 0.0000000000e+00 0.0000e+00 1.0000e+00
<mgrwt>
<rscale>  1 0.64735856E+03</rscale>
<asrwt>0</asrwt>
<pdfrwt beam="1">  1        3 0.38097646E+00 0.64735856E+03</pdfrwt>
<pdfrwt beam="2">0</pdfrwt>
<totfact> 0.74620817E-02</totfact>
</mgrwt>
</event>
<event>
 6      1 +5.6466785e-02 6.46305100e+02 7.81860800e-03 9.81373700e-02
        1 -1    0    0  502    0 +0.0000000000e+00 +0.0000000000e+00 +1.0446826385e+02 1.0446826385e+02 0.0000000000e+00 0.0000e+00 1.0000e+00
       13 -1    0    0    0    0 -0.0000000000e+00 -0.0000000000e+00 -1.0000000000e+03 1.0000000000e+03 0.0000000000e+00 0.0000e+00 1.0000e+00
  9000005  2    1    2  501    0 -1.5632471520e-03 -4.6870962322e-05 -8.9557242450e+02 1.1044275455e+03 6.4630506390e+02 0.0000e+00 0.0000e+00
       13  1    3    3    0    0 -2.6088698297e+02 -9.1930314684e+01 -1.6228013495e+02 3.2069930284e+02 0.0000000000e+00 0.0000e+00 1.0000e+00
        1  1    3    3  501    0 +2.6088541972e+02 +9.1930267813e+01 -7.3329228955e+02 7.8372824262e+02 0.0000000000e+00 0.0000e+00 1.0000e+00
       21  1    1    2  502  501 +1.5632471520e-03 +4.6870962327e-05 +4.0688349373e-02 4.0718395268e-02 0.0000000000e+00 0.0000e+00 -1.0000e+00
<mgrwt>
<rscale>  1 0.64630506E+03</rscale>
<asrwt>0</asrwt>
<pdfrwt beam="1">  1        1 0.37988540E+00 0.64630506E+03</pdfrwt>
<pdfrwt beam="2">0</pdfrwt>
<totfact> 0.16440001E+00</totfact>
</mgrwt>
</event>
<event>
 6      1 +5.6466785e-02 6.50360200e+02 7.81860800e-03 9.80610300e-02
        1 -1    0    0  502    0 +0.0000000000e+00 +0.0000000000e+00 +1.0578382040e+02 1.0578382040e+02 0.0000000000e+00 0.0000e+00 1.0000e+00
       13 -1    0    0    0    0 -0.0000000000e+00 -0.0000000000e+00 -1.0000000000e+03 1.0000000000e+03 0.0000000000e+00 0.0000e+00 1.0000e+00
  9000005  2    1    2  501    0 +5.8387591365e-02 -3.7333537550e-02 -8.9422332950e+02 1.1057141496e+03 6.5036021768e+02 0.0000e+00 0.0000e+00
       13  1    3    3    0    0 +8.1560160232e+01 -1.4462280977e+02 -9.2252209028e+02 9.3734455986e+02 0.0000000000e+00 0.0000e+00 1.0000e+00
        1  1    3    3  501    0 -8.1501772640e+01 +1.4458547623e+02 +2.8298760781e+01 1.6836958972e+02 0.0000000000e+00 0.0000e+00 1.0000e+00
       21  1    1    2  502  501 -5.8387591365e-02 +3.7333537550e-02 +7.1499003280e-03 6.9670832679e-02 0.0000000000e+00 0.0000e+00 -1.0000e+00
<mgrwt>
<rscale>  1 0.65036022E+03</rscale>
<asrwt>0</asrwt>
<pdfrwt beam="1">  1        1 0.38466925E+00 0.65036022E+03</pdfrwt>
<pdfrwt beam="2">0</pdfrwt>
<totfact> 0.15647545E+00</totfact>
</mgrwt>
</event>
<event>
 6      1 +5.6466785e-02 6.05109500e+02 7.81860800e-03 9.89486200e-02
        1 -1    0    0  502    0 +0.0000000000e+00 +0.0000000000e+00 +9.2292201582e+01 9.2292201582e+01 0.0000000000e+00 0.0000e+00 1.0000e+00
       13 -1    0    0    0    0 -0.0000000000e+00 -0.0000000000e+00 -1.0000000000e+03 1.0000000000e+03 0.0000000000e+00 0.0000e+00 1.0000e+00
  9000005  2    1    2  501    0 +1.0242946649e-01 +1.1429675156e+00 -9.0795472105e+02 1.0911183884e+03 6.0510845741e+02 0.0000e+00 0.0000e+00
       13  1    3    3    0    0 +1.1692016533e+02 +2.7915449019e+02 -4.8456353949e+02 5.7131373015e+02 0.0000000000e+00 0.0000e+00 1.0000e+00
        1  1    3    3  501    0 -1.1681773586e+02 -2.7801152267e+02 -4.2339118156e+02 5.1980465828e+02 0.0000000000e+00 0.0000e+00 1.0000e+00
       21  1    1    2  502  501 -1.0242946649e-01 -1.1429675156e+00 +2.4692262921e-01 1.1738131547e+00 0.0000000000e+00 0.0000e+00 1.0000e+00
<mgrwt>
<rscale>  1 0.60510955E+03</rscale>
<asrwt>0</asrwt>
<pdfrwt beam="1">  1        1 0.33560871E+00 0.60510955E+03</pdfrwt>
<pdfrwt beam="2">0</pdfrwt>
<totfact> 0.25862649E+00</totfact>
</mgrwt>
</event>
<event>
 6      1 +5.6466785e-02 6.44415500e+02 7.81860800e-03 9.81731500e-02
        1 -1    0    0  502    0 +0.0000000000e+00 +0.0000000000e+00 +1.0381806490e+02 1.0381806490e+02 0.0000000000e+00 0.0000e+00 1.0000e+00
       13 -1    0    0    0    0 -0.0000000000e+00 -0.0000000000e+00 -1.0000000000e+03 1.0000000000e+03 0.0000000000e+00 0.0000e+00 1.0000e+00
  9000005  2    1    2  501    0 +3.8842902612e-05 -2.7099207074e-06 -8.9618215269e+02 1.1038178439e+03 6.4441553490e+02 0.0000e+00 0.0000e+00
       13  1    3    3    0    0 +6.2599547331e+01 -2.4010985749e+01 -9.8791918040e+02 9.9019166719e+02 0.0000000000e+00 0.0000e+00 1.0000e+00
        1  1    3    3  501    0 -6.2599508489e+01 +2.4010983040e+01 +9.1737027718e+01 1.1362617667e+02 0.0000000000e+00 0.0000e+00 1.0000e+00
       21  1    1    2  502  501 -3.8842902611e-05 +2.7099207087e-06 +2.1758199728e-04 2.2103854934e-04 0.0000000000e+00 0.0000e+00 -1.0000e+00
<mgrwt>
<rscale>  1 0.64441553E+03</rscale>
<asrwt>0</asrwt>
<pdfrwt beam="1">  1        1 0.37752103E+00 0.64441553E+03</pdfrwt>
<pdfrwt beam="2">0</pdfrwt>
<totfact> 0.16845275E+00</totfact>
</mgrwt>
</event>
<event>
 6      1 +5.6466785e-02 6.58394400e+02 7.81860800e-03 9.79115400e-02
        1 -1    0    0  502    0 +0.0000000000e+00 +0.0000000000e+00 +1.0870882426e+02 1.0870882426e+02 0.0000000000e+00 0.0000e+00 1.0000e+00
       13 -1    0    0    0    0 -0.0000000000e+00 -0.0000000000e+00 -1.0000000000e+03 1.0000000000e+03 0.0000000000e+00 0.0000e+00 1.0000e+00
  9000005  2    1    2  501    0 +1.9297593380e-02 +4.2592664260e-02 -8.9162741770e+02 1.1083693464e+03 6.5839437570e+02 0.0000e+00 0.0000e+00
       13  1    3    3    0    0 +4.9533937464e+01 +3.8126793799e+01 -9.8992824259e+02 9.9189978771e+02 0.0000000000e+00 0.0000e+00 1.0000e+00
        3  1    3    3  501    0 -4.9514639870e+01 -3.8084201134e+01 +9.8300824893e+01 1.1646955874e+02 0.0000000000e+00 0.0000e+00 1.0000e+00
       21  1    1    2  502  501 -1.9297593380e-02 -4.2592664260e-02 +3.3624196084e-01 3.3947781722e-01 0.0000000000e+00 0.0000e+00 -1.0000e+00
<mgrwt>
<rscale>  1 0.65839438E+03</rscale>
<asrwt>0</asrwt>
<pdfrwt beam="1">  1        1 0.39530565E+00 0.65839438E+03</pdfrwt>
<pdfrwt beam="2">0</pdfrwt>
<totfact> 0.14016152E+00</totfact>
</mgrwt>
</event>
<event>
 6      1 +5.6466785e-02 6.50916600e+02 7.81860800e-03 9.80506100e-02
        1 -1    0    0  502    0 +0.0000000000e+00 +0.0000000000e+00 +1.0632893540e+02 1.0632893540e+02 0.0000000000e+00 0.0000e+00 1.0000e+00
       13 -1    0    0    0    0 -0.0000000000e+00 -0.0000000000e+00 -1.0000000000e+03 1.0000000000e+03 0.0000000000e+00 0.0000e+00 1.0000e+00
  9000005  2    1    2  501    0 -3.1276165266e-02 -3.4612781474e-02 -8.9407542756e+02 1.1059218904e+03 6.5091655018e+02 0.0000e+00 0.0000e+00
       13  1    3    3    0    0 +2.2187455294e+02 -2.3158961992e+02 -3.5302252427e+02 4.7695594339e+02 0.0000000000e+00 0.0000e+00 1.0000e+00
        3  1    3    3  501    0 -2.2190582910e+02 +2.3155500714e+02 -5.4105290329e+02 6.2896594699e+02 0.0000000000e+00 0.0000e+00 1.0000e+00
       21  1    1    2  502  501 +3.1276165266e-02 +3.4612781474e-02 +4.0436295647e-01 4.0704501437e-01 0.0000000000e+00 0.0000e+00 1.0000e+00
<mgrwt>
<rscale>  1 0.65091655E+03</rscale>
<asrwt>0</asrwt>
<pdfrwt beam="1">  1        1 0.38665149E+00 0.65091655E+03</pdfrwt>
<pdfrwt beam="2">0</pdfrwt>
<totfact> 0.15333129E+00</totfact>
</mgrwt>
</event>
<event>
 6      1 +5.6466785e-02 6.53923300e+02 7.81860800e-03 9.79944500e-02
        1 -1    0    0  502    0 +0.0000000000e+00 +0.0000000000e+00 +1.1191837326e+02 1.1191837326e+02 0.0000000000e+00 0.0000e+00 1.0000e+00
       13 -1    0    0    0    0 -0.0000000000e+00 -0.0000000000e+00 -1.0000000000e+03 1.0000000000e+03 0.0000000000e+00 0.0000e+00 1.0000e+00
  9000005  2    1    2  501    0 +2.8164866635e-01 +4.8815398087e-02 -8.9309156505e+02 1.1069002869e+03 6.5392325226e+02 0.0000e+00 0.0000e+00
       13  1    3    3    0    0 +2.0922665293e+02 -2.5132944766e+02 -4.5150970761e+02 5.5749735391e+02 0.0000000000e+00 0.0000e+00 1.0000e+00
        1  1    3    3  501    0 -2.0894500427e+02 +2.5137826306e+02 -4.4158185744e+02 5.4940293298e+02 0.0000000000e+00 0.0000e+00 1.0000e+00
       21  1    1    2  502  501 -2.8164866635e-01 -4.8815398087e-02 +5.0099383106e+00 5.0180863674e+00 0.0000000000e+00 0.0000e+00 1.0000e+00
<mgrwt>
<rscale>  1 0.65392331E+03</rscale>
<asrwt>0</asrwt>
<pdfrwt beam="1">  1        1 0.40697676E+00 0.65392331E+03</pdfrwt>
<pdfrwt beam="2">0</pdfrwt>
<totfact> 0.12443130E+00</totfact>
</mgrwt>
</event>
<event>
 6      1 +5.6466785e-02 6.52954400e+02 7.81860800e-03 9.80125100e-02
        1 -1    0    0  502    0 +0.0000000000e+00 +0.0000000000e+00 +1.0829207787e+02 1.0829207787e+02 0.0000000000e+00 0.0000e+00 1.0000e+00
       13 -1    0    0    0    0 -0.0000000000e+00 -0.0000000000e+00 -1.0000000000e+03 1.0000000000e+03 0.0000000000e+00 0.0000e+00 1.0000e+00
  9000005  2    1    2  501    0 +2.7341638895e-02 -9.3336852081e-03 -8.9341251665e+02 1.1065872385e+03 6.5295435578e+02 0.0000e+00 0.0000e+00
       13  1    3    3    0    0 -2.9695887530e+02 +8.9456478246e+01 -6.1944582186e+02 6.9274826693e+02 0.0000000000e+00 0.0000e+00 1.0000e+00
        1  1    3    3  501    0 +2.9698621694e+02 -8.9465811931e+01 -2.7396669480e+02 4.1383897160e+02 0.0000000000e+00 0.0000e+00 1.0000e+00
       21  1    1    2  502  501 -2.7341638895e-02 +9.3336852081e-03 +1.7045945262e+00 1.7048393419e+00 0.0000000000e+00 0.0000e+00 1.0000e+00
<mgrwt>
<rscale>  1 0.65295436E+03</rscale>
<asrwt>0</asrwt>
<pdfrwt beam="1">  1        1 0.39379020E+00 0.65295436E+03</pdfrwt>
<pdfrwt beam="2">0</pdfrwt>
<totfact> 0.14249735E+00</totfact>
</mgrwt>
</event>
<event>
 6      1 +5.6466785e-02 4.80193900e+02 7.81860800e-03 1.01908200e-01
        1 -1    0    0  502    0 +0.0000000000e+00 +0.0000000000e+00 +5.7689027291e+01 5.7689027291e+01 0.0000000000e+00 0.0000e+00 1.0000e+00
       13 -1    0    0    0    0 -0.0000000000e+00 -0.0000000000e+00 -1.0000000000e+03 1.0000000000e+03 0.0000000000e+00 0.0000e+00 1.0000e+00
  9000005  2    1    2  501    0 +5.0280979136e-02 -1.8575833462e-03 -9.4233736967e+02 1.0576322080e+03 4.8019388445e+02 0.0000e+00 0.0000e+00
       13  1    3    3    0    0 -1.4174584677e+02 -1.3930128386e+02 -1.7447181111e+02 2.6445632084e+02 0.0000000000e+00 0.0000e+00 1.0000e+00
        1  1    3    3  501    0 +1.4179612775e+02 +1.3929942628e+02 -7.6786555857e+02 7.9317588720e+02 0.0000000000e+00 0.0000e+00 1.0000e+00
       21  1    1    2  502  501 -5.0280979136e-02 +1.8575833462e-03 +2.6396964851e-02 5.6819250542e-02 0.0000000000e+00 0.0000e+00 -1.0000e+00
<mgrwt>
<rscale>  1 0.48019389E+03</rscale>
<asrwt>0</asrwt>
<pdfrwt beam="1">  1        1 0.20977872E+00 0.48019389E+03</pdfrwt>
<pdfrwt beam="2">0</pdfrwt>
<totfact> 0.93175052E+00</totfact>
</mgrwt>
</event>
<event>
 6      1 +5.6466785e-02 6.42859800e+02 7.81860800e-03 9.82027000e-02
        1 -1    0    0  502    0 +0.0000000000e+00 +0.0000000000e+00 +1.0418009559e+02 1.0418009559e+02 0.0000000000e+00 0.0000e+00 1.0000e+00
       13 -1    0    0    0    0 -0.0000000000e+00 -0.0000000000e+00 -1.0000000000e+03 1.0000000000e+03 0.0000000000e+00 0.0000e+00 1.0000e+00
  9000005  2    1    2  501    0 -5.5114783218e-02 +4.0650850782e-01 -8.9662871524e+02 1.1032731988e+03 6.4285965025e+02 0.0000e+00 0.0000e+00
       13  1    3    3    0    0 -2.9377378288e+00 -3.1849310419e+02 -3.7641797205e+02 4.9308921850e+02 0.0000000000e+00 0.0000e+00 1.0000e+00
        1  1    3    3  501    0 +2.8826230456e+00 +3.1889961269e+02 -5.2021074319e+02 6.1018398031e+02 0.0000000000e+00 0.0000e+00 1.0000e+00
       21  1    1    2  502  501 +5.5114783218e-02 -4.0650850782e-01 +8.0881083061e-01 9.0689677801e-01 0.0000000000e+00 0.0000e+00 1.0000e+00
<mgrwt>
<rscale>  1 0.64285978E+03</rscale>
<asrwt>0</asrwt>
<pdfrwt beam="1">  1        1 0.37883751E+00 0.64285978E+03</pdfrwt>
<pdfrwt beam="2">0</pdfrwt>
<totfact> 0.16626431E+00</totfact>
</mgrwt>
</event>
<event>
 6      1 +5.6466785e-02 6.45719700e+02 7.81860800e-03 9.81484400e-02
        1 -1    0    0  502    0 +0.0000000000e+00 +0.0000000000e+00 +1.0466155009e+02 1.0466155009e+02 0.0000000000e+00 0.0000e+00 1.0000e+00
       13 -1    0    0    0    0 -0.0000000000e+00 -0.0000000000e+00 -1.0000000000e+03 1.0000000000e+03 0.0000000000e+00 0.0000e+00 1.0000e+00
  9000005  2    1    2  501    0 +6.5198092976e-03 +4.1151006582e-04 -8.9576149698e+02 1.1042384526e+03 6.4571967651e+02 0.0000e+00 0.0000e+00
       13  1    3    3    0    0 -9.2312874736e+01 -2.6402896982e+02 -1.7211011534e+02 3.2841263001e+02 0.0000000000e+00 0.0000e+00 1.0000e+00
        3  1    3    3  501    0 +9.2319394546e+01 +2.6402938133e+02 -7.2365138164e+02 7.7582582257e+02 0.0000000000e+00 0.0000e+00 1.0000e+00
       21  1    1    2  502  501 -6.5198092976e-03 -4.1151006583e-04 +4.2304707536e-01 4.2309751266e-01 0.0000000000e+00 0.0000e+00 1.0000e+00
<mgrwt>
<rscale>  1 0.64571968E+03</rscale>
<asrwt>0</asrwt>
<pdfrwt beam="1">  1        1 0.38058826E+00 0.64571968E+03</pdfrwt>
<pdfrwt beam="2">0</pdfrwt>
<totfact> 0.16324772E+00</totfact>
</mgrwt>
</event>
<event>
 6      1 +5.6466785e-02 6.47359300e+02 7.81860800e-03 9.81174700e-02
        1 -1    0    0  502    0 +0.0000000000e+00 +0.0000000000e+00 +1.0476850599e+02 1.0476850599e+02 0.0000000000e+00 0.0000e+00 1.0000e+00
       13 -1    0    0    0    0 -0.0000000000e+00 -0.0000000000e+00 -1.0000000000e+03 1.0000000000e+03 0.0000000000e+00 0.0000e+00 1.0000e+00
  9000005  2    1    2  501    0 +2.3015520583e-06 -1.3918803106e-06 -8.9523149457e+02 1.1047685032e+03 6.4735926415e+02 0.0000e+00 0.0000e+00
       13  1    3    3    0    0 +3.0895688144e+02 -3.0714289690e+01 -2.9147762628e+02 4.2586022214e+02 0.0000000000e+00 0.0000e+00 1.0000e+00
        3  1    3    3  501    0 -3.0895687914e+02 +3.0714288298e+01 -6.0375386829e+02 6.7890828110e+02 0.0000000000e+00 0.0000e+00 1.0000e+00
       21  1    1    2  502  501 -2.3015520257e-06 +1.3918803122e-06 +5.5791848678e-07 2.7469520507e-06 0.0000000000e+00 0.0000e+00 -1.0000e+00
<mgrwt>
<rscale>  1 0.64735926E+03</rscale>
<asrwt>0</asrwt>
<pdfrwt beam="1">  1        1 0.38097719E+00 0.64735926E+03</pdfrwt>
<pdfrwt beam="2">0</pdfrwt>
<totfact> 0.16255465E+00</totfact>
</mgrwt>
</event>
<event>
 6      1 +5.6466785e-02 4.94531400e+02 7.81860800e-03 1.01521600e-01
        1 -1    0    0  502    0 +0.0000000000e+00 +0.0000000000e+00 +6.2770279951e+01 6.2770279951e+01 0.0000000000e+00 0.0000e+00 1.0000e+00
       13 -1    0    0    0    0 -0.0000000000e+00 -0.0000000000e+00 -1.0000000000e+03 1.0000000000e+03 0.0000000000e+00 0.0000e+00 1.0000e+00
  9000005  2    1    2  501    0 -1.1944939528e-01 +6.6354353877e-02 -9.3885662966e+02 1.0611376422e+03 4.9453140045e+02 0.0000e+00 0.0000e+00
       13  1    3    3    0    0 +1.3931255905e+02 +2.0382104750e+02 -4.9869584849e+02 5.5646074238e+02 0.0000000000e+00 0.0000e+00 1.0000e+00
        1  1    3    3  501    0 -1.3943200845e+02 -2.0375469314e+02 -4.4016078117e+02 5.0467689985e+02 0.0000000000e+00 0.0000e+00 1.0000e+00
       21  1    1    2  502  501 +1.1944939528e-01 -6.6354353877e-02 +1.6269096089e+00 1.6326377228e+00 0.0000000000e+00 0.0000e+00 1.0000e+00
<mgrwt>
<rscale>  1 0.49453142E+03</rscale>
<asrwt>0</asrwt>
<pdfrwt beam="1">  1        1 0.22825604E+00 0.49453142E+03</pdfrwt>
<pdfrwt beam="2">0</pdfrwt>
<totfact> 0.76951332E+00</totfact>
</mgrwt>
</event>
<event>
 6      1 +5.6466785e-02 6.47743800e+02 7.81860800e-03 9.81102200e-02
        1 -1    0    0  502    0 +0.0000000000e+00 +0.0000000000e+00 +1.0490948899e+02 1.0490948899e+02 0.0000000000e+00 0.0000e+00 1.0000e+00
       13 -1    0    0    0    0 -0.0000000000e+00 -0.0000000000e+00 -1.0000000000e+03 1.0000000000e+03 0.0000000000e+00 0.0000e+00 1.0000e+00
  9000005  2    1    2  501    0 -5.7304194817e-03 +1.3187110829e-03 -8.9510642272e+02 1.1048925255e+03 6.4774376487e+02 0.0000e+00 0.0000e+00
       13  1    3    3    0    0 -3.0655395019e+01 +3.1378504687e+02 -3.2113534666e+02 4.5003190971e+02 0.0000000000e+00 0.0000e+00 1.0000e+00
        1  1    3    3  501    0 +3.0649664599e+01 -3.1378372816e+02 -5.7397107606e+02 6.5486061581e+02 0.0000000000e+00 0.0000e+00 1.0000e+00
       21  1    1    2  502  501 +5.7304194817e-03 -1.3187110829e-03 +1.5911705927e-02 1.6963463439e-02 0.0000000000e+00 0.0000e+00 1.0000e+00
<mgrwt>
<rscale>  1 0.64774376E+03</rscale>
<asrwt>0</asrwt>
<pdfrwt beam="1">  1        1 0.38148986E+00 0.64774376E+03</pdfrwt>
<pdfrwt beam="2">0</pdfrwt>
<totfact> 0.16169824E+00</totfact>
</mgrwt>
</event>
<event>
 6      1 +5.6466785e-02 6.54255000e+02 7.81860800e-03 9.79882800e-02
        1 -1    0    0  502    0 +0.0000000000e+00 +0.0000000000e+00 +1.0701314980e+02 1.0701314980e+02 0.0000000000e+00 0.0000e+00 1.0000e+00
       13 -1    0    0    0    0 -0.0000000000e+00 -0.0000000000e+00 -1.0000000000e+03 1.0000000000e+03 0.0000000000e+00 0.0000e+00 1.0000e+00
  9000005  2    1    2  501    0 +1.6248418660e-05 -7.2312692055e-05 -8.9298759884e+02 1.1070123975e+03 6.5425499352e+02 0.0000e+00 0.0000e+00
       13  1    3    3    0    0 +1.0809461350e+02 -2.7896714576e+02 -2.2262672804e+02 3.7292060002e+02 0.0000000000e+00 0.0000e+00 1.0000e+00
        3  1    3    3  501    0 -1.0809459726e+02 +2.7896707345e+02 -6.7036087080e+02 7.3409179748e+02 0.0000000000e+00 0.0000e+00 1.0000e+00
       21  1    1    2  502  501 -1.6248418670e-05 +7.2312692069e-05 +7.4863744778e-04 7.5229725824e-04 0.0000000000e+00 0.0000e+00 1.0000e+00
<mgrwt>
<rscale>  1 0.65425499E+03</rscale>
<asrwt>0</asrwt>
<pdfrwt beam="1">  1        1 0.38913955E+00 0.65425499E+03</pdfrwt>
<pdfrwt beam="2">0</pdfrwt>
<totfact> 0.14939660E+00</totfact>
</mgrwt>
</event>
<event>
 6      1 +5.6466785e-02 6.44919800e+02 7.81860800e-03 9.81635900e-02
        1 -1    0    0  502    0 +0.0000000000e+00 +0.0000000000e+00 +1.0398050513e+02 1.0398050513e+02 0.0000000000e+00 0.0000e+00 1.0000e+00
       13 -1    0    0    0    0 -0.0000000000e+00 -0.0000000000e+00 -1.0000000000e+03 1.0000000000e+03 0.0000000000e+00 0.0000e+00 1.0000e+00
  9000005  2    1    2  501    0 -1.4602756274e-05 -3.9103472261e-05 -8.9601960115e+02 1.1039803909e+03 6.4491982289e+02 0.0000e+00 0.0000e+00
       13  1    3    3    0    0 -5.6851975975e+01 -2.8308406699e+02 -6.9377040785e+02 7.5145599669e+02 0.0000000000e+00 0.0000e+00 1.0000e+00
        3  1    3    3  501    0 +5.6851961372e+01 +2.8308402788e+02 -2.0224919330e+02 3.5252439425e+02 0.0000000000e+00 0.0000e+00 1.0000e+00
       21  1    1    2  502  501 +1.4602756273e-05 +3.9103472250e-05 +1.0627735525e-04 1.1418055119e-04 0.0000000000e+00 0.0000e+00 -1.0000e+00
<mgrwt>
<rscale>  1 0.64491982E+03</rscale>
<asrwt>0</asrwt>
<pdfrwt beam="1">  1        1 0.37811173E+00 0.64491982E+03</pdfrwt>
<pdfrwt beam="2">0</pdfrwt>
<totfact> 0.16743043E+00</totfact>
</mgrwt>
</event>
<event>
 6      1 +5.6466785e-02 6.53034800e+02 7.81860800e-03 9.80110100e-02
        1 -1    0    0  502    0 +0.0000000000e+00 +0.0000000000e+00 +1.0661362451e+02 1.0661362451e+02 0.0000000000e+00 0.0000e+00 1.0000e+00
       13 -1    0    0    0    0 -0.0000000000e+00 -0.0000000000e+00 -1.0000000000e+03 1.0000000000e+03 0.0000000000e+00 0.0000e+00 1.0000e+00
  9000005  2    1    2  501    0 +5.6106816260e-06 -7.5892461723e-05 -8.9338632543e+02 1.1066135334e+03 6.5303475091e+02 0.0000e+00 0.0000e+00
       13  1    3    3    0    0 -1.5832486132e+02 -2.7270977668e+02 -3.0314164036e+02 4.3741540682e+02 0.0000000000e+00 0.0000e+00 1.0000e+00
        1  1    3    3  501    0 +1.5832486693e+02 +2.7270970079e+02 -5.9024468507e+02 6.6919812660e+02 0.0000000000e+00 0.0000e+00 1.0000e+00
       21  1    1    2  502  501 -5.6106816198e-06 +7.5892461690e-05 -5.0060021840e-05 9.1088700047e-05 0.0000000000e+00 0.0000e+00 1.0000e+00
<mgrwt>
<rscale>  1 0.65303475E+03</rscale>
<asrwt>0</asrwt>
<pdfrwt beam="1">  1        1 0.38768672E+00 0.65303475E+03</pdfrwt>
<pdfrwt beam="2">0</pdfrwt>
<totfact> 0.15166187E+00</totfact>
</mgrwt>
</event>
<event>
 6      1 +5.6466785e-02 5.71551300e+02 7.81860800e-03 9.96625200e-02
        1 -1    0    0  502    0 +0.0000000000e+00 +0.0000000000e+00 +8.1669848199e+01 8.1669848199e+01 0.0000000000e+00 0.0000e+00 1.0000e+00
       13 -1    0    0    0    0 -0.0000000000e+00 -0.0000000000e+00 -1.0000000000e+03 1.0000000000e+03 0.0000000000e+00 0.0000e+00 1.0000e+00
  9000005  2    1    2  501    0 +6.2473827285e-05 +3.7549711806e-05 -9.1833227037e+02 1.0816677284e+03 5.7155132385e+02 0.0000e+00 0.0000e+00
       13  1    3    3    0    0 -1.1578754986e+02 +2.6122274224e+02 -4.6837039933e+02 5.4864825593e+02 0.0000000000e+00 0.0000e+00 1.0000e+00
        3  1    3    3  501    0 +1.1578761233e+02 -2.6122270469e+02 -4.4996187104e+02 5.3301947245e+02 0.0000000000e+00 0.0000e+00 1.0000e+00
       21  1    1    2  502  501 -6.2473827298e-05 -3.7549711845e-05 +2.1185726172e-03 2.1198261472e-03 0.0000000000e+00 0.0000e+00 1.0000e+00
<mgrwt>
<rscale>  1 0.57155132E+03</rscale>
<asrwt>0</asrwt>
<pdfrwt beam="1">  1        1 0.29698189E+00 0.57155132E+03</pdfrwt>
<pdfrwt beam="2">0</pdfrwt>
<totfact> 0.38213160E+00</totfact>
</mgrwt>
</event>
<event>
 6      1 +5.6466785e-02 6.43554700e+02 7.81860800e-03 9.81894900e-02
        1 -1    0    0  502    0 +0.0000000000e+00 +0.0000000000e+00 +1.0357747286e+02 1.0357747286e+02 0.0000000000e+00 0.0000e+00 1.0000e+00
       13 -1    0    0    0    0 -0.0000000000e+00 -0.0000000000e+00 -1.0000000000e+03 1.0000000000e+03 0.0000000000e+00 0.0000e+00 1.0000e+00
  9000005  2    1    2  501    0 +3.9063254302e-03 +1.3582207011e-02 -8.9645784655e+02 1.1035394308e+03 6.4355466320e+02 0.0000e+00 0.0000e+00
       13  1    3    3    0    0 +7.8664879056e+01 -1.3035552227e+02 -9.3431747577e+02 9.4664136341e+02 0.0000000000e+00 0.0000e+00 1.0000e+00
        1  1    3    3  501    0 -7.8660972731e+01 +1.3036910448e+02 +3.7859629216e+01 1.5689806741e+02 0.0000000000e+00 0.0000e+00 1.0000e+00
       21  1    1    2  502  501 -3.9063254302e-03 -1.3582207011e-02 +3.5319411087e-02 3.8042036291e-02 0.0000000000e+00 0.0000e+00 1.0000e+00
<mgrwt>
<rscale>  1 0.64355466E+03</rscale>
<asrwt>0</asrwt>
<pdfrwt beam="1">  1        1 0.37664615E+00 0.64355466E+03</pdfrwt>
<pdfrwt beam="2">0</pdfrwt>
<totfact> 0.16998141E+00</totfact>
</mgrwt>
</event>
<event>
 6      1 +5.6466785e-02 6.47424400e+02 7.81860800e-03 9.81162400e-02
        1 -1    0    0  502    0 +0.0000000000e+00 +0.0000000000e+00 +1.0479244932e+02 1.0479244932e+02 0.0000000000e+00 0.0000e+00 1.0000e+00
       13 -1    0    0    0    0 -0.0000000000e+00 -0.0000000000e+00 -1.0000000000e+03 1.0000000000e+03 0.0000000000e+00 0.0000e+00 1.0000e+00
  9000005  2    1    2  501    0 -1.0850819557e-04 +9.3248651353e-05 -8.9521040005e+02 1.1047895964e+03 6.4742442947e+02 0.0000e+00 0.0000e+00
       13  1    3    3    0    0 +1.7263719247e+01 +3.1151217533e+02 -3.0029949402e+02 4.3303309052e+02 0.0000000000e+00 0.0000e+00 1.0000e+00
        1  1    3    3  501    0 -1.7263827755e+01 -3.1151208208e+02 -5.9491090603e+02 6.7175650584e+02 0.0000000000e+00 0.0000e+00 1.0000e+00
       21  1    1    2  502  501 +1.0850819556e-04 -9.3248651355e-05 +2.8493716510e-03 2.8529612940e-03 0.0000000000e+00 0.0000e+00 1.0000e+00
<mgrwt>
<rscale>  1 0.64742443E+03</rscale>
<asrwt>0</asrwt>
<pdfrwt beam="1">  1        1 0.38106426E+00 0.64742443E+03</pdfrwt>
<pdfrwt beam="2">0</pdfrwt>
<totfact> 0.16240891E+00</totfact>
</mgrwt>
</event>
<event>
 6      1 +5.6466785e-02 6.47162100e+02 7.81860800e-03 9.81211900e-02
        1 -1    0    0  502    0 +0.0000000000e+00 +0.0000000000e+00 +1.0470917138e+02 1.0470917138e+02 0.0000000000e+00 0.0000e+00 1.0000e+00
       13 -1    0    0    0    0 -0.0000000000e+00 -0.0000000000e+00 -1.0000000000e+03 1.0000000000e+03 0.0000000000e+00 0.0000e+00 1.0000e+00
  9000005  2    1    2  501    0 -3.2993816715e-03 +6.1534600349e-05 -8.9529462022e+02 1.1047041449e+03 6.4716210539e+02 0.0000e+00 0.0000e+00
       13  1    3    3    0    0 +1.0240562998e+02 +6.4307111560e+01 +6.4686043981e+01 1.3713716467e+02 0.0000000000e+00 0.0000e+00 1.0000e+00
        1  1    3    3  501    0 -1.0240892936e+02 -6.4307050025e+01 -9.5998066420e+02 9.6756698018e+02 0.0000000000e+00 0.0000e+00 1.0000e+00
       21  1    1    2  502  501 +3.2993816715e-03 -6.1534600345e-05 +3.7916044000e-03 5.0265266186e-03 0.0000000000e+00 0.0000e+00 -1.0000e+00
<mgrwt>
<rscale>  1 0.64716211E+03</rscale>
<asrwt>0</asrwt>
<pdfrwt beam="1">  1        1 0.38076143E+00 0.64716211E+03</pdfrwt>
<pdfrwt beam="2">0</pdfrwt>
<totfact> 0.16291743E+00</totfact>
</mgrwt>
</event>
<event>
 6      1 +5.6466785e-02 6.43532300e+02 7.81860800e-03 9.81899200e-02
        1 -1    0    0  502    0 +0.0000000000e+00 +0.0000000000e+00 +1.0354275140e+02 1.0354275140e+02 0.0000000000e+00 0.0000e+00 1.0000e+00
       13 -1    0    0    0    0 -0.0000000000e+00 -0.0000000000e+00 -1.0000000000e+03 1.0000000000e+03 0.0000000000e+00 0.0000e+00 1.0000e+00
  9000005  2    1    2  501    0 +4.7312442373e-03 -3.3842558159e-03 -8.9646554760e+02 1.1035326167e+03 6.4353225107e+02 0.0000e+00 0.0000e+00
       13  1    3    3    0    0 +2.9872880182e+02 +1.1249601782e+02 -3.7878599951e+02 4.9535147570e+02 0.0000000000e+00 0.0000e+00 1.0000e+00
        3  1    3    3  501    0 -2.9872407058e+02 -1.1249940207e+02 -5.1767954809e+02 6.0818114104e+02 0.0000000000e+00 0.0000e+00 1.0000e+00
       21  1    1    2  502  501 -4.7312442373e-03 +3.3842558159e-03 +8.2989994969e-03 1.0134655994e-02 0.0000000000e+00 0.0000e+00 1.0000e+00
<mgrwt>
<rscale>  1 0.64353225E+03</rscale>
<asrwt>0</asrwt>
<pdfrwt beam="1">  1        1 0.37651989E+00 0.64353225E+03</pdfrwt>
<pdfrwt beam="2">0</pdfrwt>
<totfact> 0.17019993E+00</totfact>
</mgrwt>
</event>
<event>
 6      1 +5.6466785e-02 6.49393700e+02 7.81860800e-03 9.80791700e-02
        3 -1    0    0  502    0 +0.0000000000e+00 +0.0000000000e+00 +1.0578272765e+02 1.0578272765e+02 0.0000000000e+00 0.0000e+00 1.0000e+00
       13 -1    0    0    0    0 -0.0000000000e+00 -0.0000000000e+00 -1.0000000000e+03 1.0000000000e+03 0.0000000000e+00 0.0000e+00 1.0000e+00
  9000005  2    1    2  501    0 +2.7107811864e-02 -1.2473411992e-02 -8.9457125291e+02 1.1054274916e+03 6.4939372630e+02 0.0000e+00 0.0000e+00
       13  1    3    3    0    0 -4.9185352532e+00 +2.0380491213e+02 -1.7097432701e+01 2.0457995112e+02 0.0000000000e+00 0.0000e+00 1.0000e+00
        3  1    3    3  501    0 +4.9456430650e+00 -2.0381738554e+02 -8.7747382021e+02 9.0084754047e+02 0.0000000000e+00 0.0000e+00 1.0000e+00
       21  1    1    2  502  501 -2.7107811864e-02 +1.2473411992e-02 +3.5398056117e-01 3.5523605836e-01 0.0000000000e+00 0.0000e+00 1.0000e+00
<mgrwt>
<rscale>  1 0.64939373E+03</rscale>
<asrwt>0</asrwt>
<pdfrwt beam="1">  1        3 0.38466528E+00 0.64939373E+03</pdfrwt>
<pdfrwt beam="2">0</pdfrwt>
<totfact> 0.71326215E-02</totfact>
</mgrwt>
</event>
<event>
 6      1 +5.6466785e-02 6.43603500e+02 7.81860800e-03 9.81885600e-02
        1 -1    0    0  502    0 +0.0000000000e+00 +0.0000000000e+00 +1.0355724165e+02 1.0355724165e+02 0.0000000000e+00 0.0000e+00 1.0000e+00
       13 -1    0    0    0    0 -0.0000000000e+00 -0.0000000000e+00 -1.0000000000e+03 1.0000000000e+03 0.0000000000e+00 0.0000e+00 1.0000e+00
  9000005  2    1    2  501    0 +7.4963392899e-04 -2.8100229133e-04 -8.9644344608e+02 1.1035561862e+03 6.4360345259e+02 0.0000e+00 0.0000e+00
       13  1    3    3    0    0 -4.6951638608e+01 -1.2561796432e+02 -9.4980376744e+02 9.5922443984e+02 0.0000000000e+00 0.0000e+00 1.0000e+00
        3  1    3    3  501    0 +4.6952388242e+01 +1.2561768332e+02 +5.3360321367e+01 1.4433174641e+02 0.0000000000e+00 0.0000e+00 1.0000e+00
       21  1    1    2  502  501 -7.4963392899e-04 +2.8100229133e-04 +6.8772195095e-04 1.0554026706e-03 0.0000000000e+00 0.0000e+00 1.0000e+00
<mgrwt>
<rscale>  1 0.64360345E+03</rscale>
<asrwt>0</asrwt>
<pdfrwt beam="1">  1        1 0.37657258E+00 0.64360345E+03</pdfrwt>
<pdfrwt beam="2">0</pdfrwt>
<totfact> 0.17010678E+00</totfact>
</mgrwt>
</event>
<event>
 6      1 +5.6466785e-02 6.48463300e+02 7.81860800e-03 9.80966700e-02
        1 -1    0    0  502    0 +0.0000000000e+00 +0.0000000000e+00 +1.0592224483e+02 1.0592224483e+02 0.0000000000e+00 0.0000e+00 1.0000e+00
       13 -1    0    0    0    0 -0.0000000000e+00 -0.0000000000e+00 -1.0000000000e+03 1.0000000000e+03 0.0000000000e+00 0.0000e+00 1.0000e+00
  9000005  2    1    2  501    0 +5.2932468775e-02 +1.3987780498e-02 -8.9487280962e+02 1.1051253075e+03 6.4846325795e+02 0.0000e+00 0.0000e+00
       13  1    3    3    0    0 -9.5376517568e+01 -2.0334333164e+01 -9.7438703621e+02 9.7925495227e+02 0.0000000000e+00 0.0000e+00 1.0000e+00
        3  1    3    3  501    0 +9.5429450037e+01 +2.0348320944e+01 +7.9514226587e+01 1.2587035524e+02 0.0000000000e+00 0.0000e+00 1.0000e+00
       21  1    1    2  502  501 -5.2932468775e-02 -1.3987780498e-02 +7.9505445674e-01 7.9693732089e-01 0.0000000000e+00 0.0000e+00 -1.0000e+00
<mgrwt>
<rscale>  1 0.64846326E+03</rscale>
<asrwt>0</asrwt>
<pdfrwt beam="1">  1        1 0.38517261E+00 0.64846326E+03</pdfrwt>
<pdfrwt beam="2">0</pdfrwt>
<totfact> 0.15572997E+00</totfact>
</mgrwt>
</event>
<event>
 6      1 +5.6466785e-02 6.44968200e+02 7.81860800e-03 9.81626700e-02
        1 -1    0    0  502    0 +0.0000000000e+00 +0.0000000000e+00 +1.0399826007e+02 1.0399826007e+02 0.0000000000e+00 0.0000e+00 1.0000e+00
       13 -1    0    0    0    0 -0.0000000000e+00 -0.0000000000e+00 -1.0000000000e+03 1.0000000000e+03 0.0000000000e+00 0.0000e+00 1.0000e+00
  9000005  2    1    2  501    0 +2.1237243516e-05 +8.4956144360e-05 -8.9600400252e+02 1.1039959958e+03 6.4496820555e+02 0.0000e+00 0.0000e+00
       13  1    3    3    0    0 +2.9566967332e+02 -6.2911888842e+00 -6.6811348861e+02 7.3064065616e+02 0.0000000000e+00 0.0000e+00 1.0000e+00
        3  1    3    3  501    0 -2.9566965208e+02 +6.2912738404e+00 -2.2789051391e+02 3.7335533962e+02 0.0000000000e+00 0.0000e+00 1.0000e+00
       21  1    1    2  502  501 -2.1237243514e-05 -8.4956144360e-05 +2.2625952522e-03 2.2642892576e-03 0.0000000000e+00 0.0000e+00 -1.0000e+00
<mgrwt>
<rscale>  1 0.64496821E+03</rscale>
<asrwt>0</asrwt>
<pdfrwt beam="1">  1        1 0.37817629E+00 0.64496821E+03</pdfrwt>
<pdfrwt beam="2">0</pdfrwt>
<totfact> 0.16731926E+00</totfact>
</mgrwt>
</event>
<event>
 6      1 +5.6466785e-02 4.73863600e+02 7.81860800e-03 1.02083500e-01
        1 -1    0    0  502    0 +0.0000000000e+00 +0.0000000000e+00 +5.6136691134e+01 5.6136691134e+01 0.0000000000e+00 0.0000e+00 1.0000e+00
       13 -1    0    0    0    0 -0.0000000000e+00 -0.0000000000e+00 -1.0000000000e+03 1.0000000000e+03 0.0000000000e+00 0.0000e+00 1.0000e+00
  9000005  2    1    2  501    0 -3.4285577897e-06 +1.0153693779e-06 -9.4386331285e+02 1.0561366858e+03 4.7386363620e+02 0.0000e+00 0.0000e+00
       13  1    3    3    0    0 +2.0580079762e+02 +1.1739478116e+02 -4.6950761264e+02 5.2590198827e+02 0.0000000000e+00 0.0000e+00 1.0000e+00
        1  1    3    3  501    0 -2.0580080105e+02 -1.1739478014e+02 -4.7435570021e+02 5.3023469751e+02 0.0000000000e+00 0.0000e+00 1.0000e+00
       21  1    1    2  502  501 +3.4285577914e-06 -1.0153693774e-06 +3.9836524608e-06 5.3530804618e-06 0.0000000000e+00 0.0000e+00 1.0000e+00
<mgrwt>
<rscale>  1 0.47386364E+03</rscale>
<asrwt>0</asrwt>
<pdfrwt beam="1">  1        1 0.20413385E+00 0.47386364E+03</pdfrwt>
<pdfrwt beam="2">0</pdfrwt>
<totfact> 0.98880448E+00</totfact>
</mgrwt>
</event>
<event>
 6      1 +5.6466785e-02 6.58164100e+02 7.81860800e-03 9.79157900e-02
        1 -1    0    0  502    0 +0.0000000000e+00 +0.0000000000e+00 +1.0829507379e+02 1.0829507379e+02 0.0000000000e+00 0.0000e+00 1.0000e+00
       13 -1    0    0    0    0 -0.0000000000e+00 -0.0000000000e+00 -1.0000000000e+03 1.0000000000e+03 0.0000000000e+00 0.0000e+00 1.0000e+00
  9000005  2    1    2  501    0 +1.0701994057e-05 +1.7652872941e-06 -8.9170500603e+02 1.1082949932e+03 6.5816409373e+02 0.0000e+00 0.0000e+00
       13  1    3    3    0    0 -2.1732330384e+02 -1.5819587834e+02 -1.2617550010e+02 2.9694378448e+02 0.0000000000e+00 0.0000e+00 1.0000e+00
        3  1    3    3  501    0 +2.1732331454e+02 +1.5819588010e+02 -7.6552950592e+02 8.1135120876e+02 0.0000000000e+00 0.0000e+00 1.0000e+00
       21  1    1    2  502  501 -1.0701994057e-05 -1.7652872734e-06 +7.9813811153e-05 8.0547460337e-05 0.0000000000e+00 0.0000e+00 -1.0000e+00
<mgrwt>
<rscale>  1 0.65816409E+03</rscale>
<asrwt>0</asrwt>
<pdfrwt beam="1">  1        1 0.39380110E+00 0.65816409E+03</pdfrwt>
<pdfrwt beam="2">0</pdfrwt>
<totfact> 0.14234302E+00</totfact>
</mgrwt>
</event>
<event>
 6      1 +5.6466785e-02 6.51928600e+02 7.81860800e-03 9.80316700e-02
        1 -1    0    0  502    0 +0.0000000000e+00 +0.0000000000e+00 +1.1960712121e+02 1.1960712121e+02 0.0000000000e+00 0.0000e+00 1.0000e+00
       13 -1    0    0    0    0 -0.0000000000e+00 -0.0000000000e+00 -1.0000000000e+03 1.0000000000e+03 0.0000000000e+00 0.0000e+00 1.0000e+00
  9000005  2    1    2  501    0 +1.3906311767e+00 +1.2806465341e+00 -8.9367321709e+02 1.1061929013e+03 6.5192587155e+02 0.0000e+00 0.0000e+00
       13  1    3    3    0    0 -1.1984617023e+02 +1.6346042416e+02 -1.3619341292e+01 2.0314502515e+02 0.0000000000e+00 0.0000e+00 1.0000e+00
        1  1    3    3  501    0 +1.2123680141e+02 -1.6217977762e+02 -8.8005387580e+02 9.0304787614e+02 0.0000000000e+00 0.0000e+00 1.0000e+00
       21  1    1    2  502  501 -1.3906311767e+00 -1.2806465341e+00 +1.3280338303e+01 1.3414219919e+01 0.0000000000e+00 0.0000e+00 1.0000e+00
<mgrwt>
<rscale>  1 0.65192861E+03</rscale>
<asrwt>0</asrwt>
<pdfrwt beam="1">  1        1 0.43493590E+00 0.65192861E+03</pdfrwt>
<pdfrwt beam="2">0</pdfrwt>
<totfact> 0.93088672E-01</totfact>
</mgrwt>
</event>
<event>
 6      1 +5.6466785e-02 6.29380500e+02 7.81860800e-03 9.84625900e-02
        1 -1    0    0  502    0 +0.0000000000e+00 +0.0000000000e+00 +9.9601266709e+01 9.9601266709e+01 0.0000000000e+00 0.0000e+00 1.0000e+00
       13 -1    0    0    0    0 -0.0000000000e+00 -0.0000000000e+00 -1.0000000000e+03 1.0000000000e+03 0.0000000000e+00 0.0000e+00 1.0000e+00
  9000005  2    1    2  501    0 +9.1587016019e-02 -8.2054385411e-01 -9.0062324699e+02 1.0987456460e+03 6.2937991698e+02 0.0000e+00 0.0000e+00
       13  1    3    3    0    0 +1.6756944598e+02 +5.3431185307e+01 -9.0570711391e+02 9.2262656962e+02 0.0000000000e+00 0.0000e+00 1.0000e+00
        3  1    3    3  501    0 -1.6747785897e+02 -5.4251729161e+01 +5.0838669172e+00 1.7611907638e+02 0.0000000000e+00 0.0000e+00 1.0000e+00
       21  1    1    2  502  501 -9.1587016019e-02 +8.2054385411e-01 +2.2451369907e-01 8.5562070983e-01 0.0000000000e+00 0.0000e+00 1.0000e+00
<mgrwt>
<rscale>  1 0.62938046E+03</rscale>
<asrwt>0</asrwt>
<pdfrwt beam="1">  1        1 0.36218719E+00 0.62938046E+03</pdfrwt>
<pdfrwt beam="2">0</pdfrwt>
<totfact> 0.19724629E+00</totfact>
</mgrwt>
</event>
<event>
 6      1 +5.6466785e-02 6.44502100e+02 7.81860800e-03 9.81715100e-02
        1 -1    0    0  502    0 +0.0000000000e+00 +0.0000000000e+00 +1.0384574853e+02 1.0384574853e+02 0.0000000000e+00 0.0000e+00 1.0000e+00
       13 -1    0    0    0    0 -0.0000000000e+00 -0.0000000000e+00 -1.0000000000e+03 1.0000000000e+03 0.0000000000e+00 0.0000e+00 1.0000e+00
  9000005  2    1    2  501    0 -1.8255586895e-05 +5.2378646842e-06 -8.9615426519e+02 1.1038457251e+03 6.4450206966e+02 0.0000e+00 0.0000e+00
       13  1    3    3    0    0 -1.9663228026e+02 +4.0970054944e+01 -1.6477613746e+01 2.0152992532e+02 0.0000000000e+00 0.0000e+00 1.0000e+00
        3  1    3    3  501    0 +1.9663226201e+02 -4.0970049706e+01 -8.7967665145e+02 9.0231579978e+02 0.0000000000e+00 0.0000e+00 1.0000e+00
       21  1    1    2  502  501 +1.8255586907e-05 -5.2378646869e-06 +1.3724072578e-05 2.3431855409e-05 0.0000000000e+00 0.0000e+00 1.0000e+00
<mgrwt>
<rscale>  1 0.64450207E+03</rscale>
<asrwt>0</asrwt>
<pdfrwt beam="1">  1        1 0.37762170E+00 0.64450207E+03</pdfrwt>
<pdfrwt beam="2">0</pdfrwt>
<totfact> 0.16827809E+00</totfact>
</mgrwt>
</event>
<event>
 6      1 +5.6466785e-02 6.46495500e+02 7.81860800e-03 9.81337700e-02
        1 -1    0    0  502    0 +0.0000000000e+00 +0.0000000000e+00 +1.0448921818e+02 1.0448921818e+02 0.0000000000e+00 0.0000e+00 1.0000e+00
       13 -1    0    0    0    0 -0.0000000000e+00 -0.0000000000e+00 -1.0000000000e+03 1.0000000000e+03 0.0000000000e+00 0.0000e+00 1.0000e+00
  9000005  2    1    2  501    0 -4.4237784778e-05 -2.5758934953e-05 -8.9551087871e+02 1.1044891086e+03 6.4649551980e+02 0.0000e+00 0.0000e+00
       13  1    3    3    0    0 +2.4064960099e+02 -2.1113151639e+02 -3.7134543676e+02 4.9029193454e+02 0.0000000000e+00 0.0000e+00 1.0000e+00
        1  1    3    3  501    0 -2.4064964523e+02 +2.1113149063e+02 -5.2416544195e+02 6.1419717406e+02 0.0000000000e+00 0.0000e+00 1.0000e+00
       21  1    1    2  502  501 +4.4237784759e-05 +2.5758934927e-05 +9.6894695910e-05 1.0958597732e-04 0.0000000000e+00 0.0000e+00 1.0000e+00
<mgrwt>
<rscale>  1 0.64649552E+03</rscale>
<asrwt>0</asrwt>
<pdfrwt beam="1">  1        1 0.37996159E+00 0.64649552E+03</pdfrwt>
<pdfrwt beam="2">0</pdfrwt>
<totfact> 0.16426705E+00</totfact>
</mgrwt>
</event>
<event>
 6      1 +5.6466785e-02 6.72958700e+02 7.81860800e-03 9.76462800e-02
        1 -1    0    0  502    0 +0.0000000000e+00 +0.0000000000e+00 +1.1338355363e+02 1.1338355363e+02 0.0000000000e+00 0.0000e+00 1.0000e+00
       13 -1    0    0    0    0 -0.0000000000e+00 -0.0000000000e+00 -1.0000000000e+03 1.0000000000e+03 0.0000000000e+00 0.0000e+00 1.0000e+00
  9000005  2    1    2  501    0 -1.1734303439e-01 -6.1665768830e-02 -8.8675148170e+02 1.1131943273e+03 6.7295869303e+02 0.0000e+00 0.0000e+00
       13  1    3    3    0    0 -2.1073230109e+02 -1.8472986868e+02 -7.5168019852e+02 8.0221963822e+02 0.0000000000e+00 0.0000e+00 1.0000e+00
        3  1    3    3  501    0 +2.1061495806e+02 +1.8466820291e+02 -1.3507128318e+02 3.1097468910e+02 0.0000000000e+00 0.0000e+00 1.0000e+00
       21  1    1    2  502  501 +1.1734303439e-01 +6.1665768830e-02 +1.3503533074e-01 1.8922630714e-01 0.0000000000e+00 0.0000e+00 1.0000e+00
<mgrwt>
<rscale>  1 0.67295871E+03</rscale>
<asrwt>0</asrwt>
<pdfrwt beam="1">  1        1 0.41230470E+00 0.67295871E+03</pdfrwt>
<pdfrwt beam="2">0</pdfrwt>
<totfact> 0.11734540E+00</totfact>
</mgrwt>
</event>
<event>
 6      1 +5.6466785e-02 6.42192700e+02 7.81860800e-03 9.82154000e-02
        1 -1    0    0  502    0 +0.0000000000e+00 +0.0000000000e+00 +1.0310421146e+02 1.0310421146e+02 0.0000000000e+00 0.0000e+00 1.0000e+00
       13 -1    0    0    0    0 -0.0000000000e+00 -0.0000000000e+00 -1.0000000000e+03 1.0000000000e+03 0.0000000000e+00 0.0000e+00 1.0000e+00
  9000005  2    1    2  501    0 +1.6888657763e-03 +5.7649016833e-04 -8.9689646284e+02 1.1031023038e+03 6.4219267165e+02 0.0000e+00 0.0000e+00
       13  1    3    3    0    0 -1.0907978504e+02 -6.6610311001e+01 +5.7526590925e+01 1.4015934396e+02 0.0000000000e+00 0.0000e+00 1.0000e+00
        3  1    3    3  501    0 +1.0908147391e+02 +6.6610887491e+01 -9.5442305376e+02 9.6294295980e+02 0.0000000000e+00 0.0000e+00 1.0000e+00
       21  1    1    2  502  501 -1.6888657763e-03 -5.7649016832e-04 +6.7429151159e-04 1.9076890646e-03 0.0000000000e+00 0.0000e+00 1.0000e+00
<mgrwt>
<rscale>  1 0.64219267E+03</rscale>
<asrwt>0</asrwt>
<pdfrwt beam="1">  1        1 0.37492520E+00 0.64219267E+03</pdfrwt>
<pdfrwt beam="2">0</pdfrwt>
<totfact> 0.17301660E+00</totfact>
</mgrwt>
</event>
<event>
 6      1 +5.6466785e-02 6.25501300e+02 7.81860800e-03 9.85386700e-02
        1 -1    0    0  502    0 +0.0000000000e+00 +0.0000000000e+00 +9.7907547273e+01 9.7907547273e+01 0.0000000000e+00 0.0000e+00 1.0000e+00
       13 -1    0    0    0    0 -0.0000000000e+00 -0.0000000000e+00 -1.0000000000e+03 1.0000000000e+03 0.0000000000e+00 0.0000e+00 1.0000e+00
  9000005  2    1    2  501    0 -4.7853911007e-02 +6.1794595797e-02 -9.0216898335e+02 1.0977981603e+03 6.2550133508e+02 0.0000e+00 0.0000e+00
       13  1    3    3    0    0 -3.3561084814e+01 +2.8321554596e+02 -6.7653502263e+02 7.3419141151e+02 0.0000000000e+00 0.0000e+00 1.0000e+00
        3  1    3    3  501    0 +3.3513230903e+01 -2.8315375136e+02 -2.2563396071e+02 3.6360674881e+02 0.0000000000e+00 0.0000e+00 1.0000e+00
       21  1    1    2  502  501 +4.7853911007e-02 -6.1794595797e-02 +7.6530619477e-02 1.0938694888e-01 0.0000000000e+00 0.0000e+00 1.0000e+00
<mgrwt>
<rscale>  1 0.62550134E+03</rscale>
<asrwt>0</asrwt>
<pdfrwt beam="1">  1        1 0.35602820E+00 0.62550134E+03</pdfrwt>
<pdfrwt beam="2">0</pdfrwt>
<totfact> 0.21000948E+00</totfact>
</mgrwt>
</event>
<event>
 6      1 +5.6466785e-02 6.47381400e+02 7.81860800e-03 9.81170500e-02
        1 -1    0    0  502    0 +0.0000000000e+00 +0.0000000000e+00 +1.0679955304e+02 1.0679955304e+02 0.0000000000e+00 0.0000e+00 1.0000e+00
       13 -1    0    0    0    0 -0.0000000000e+00 -0.0000000000e+00 -1.0000000000e+03 1.0000000000e+03 0.0000000000e+00 0.0000e+00 1.0000e+00
  9000005  2    1    2  501    0 -3.3027019569e+00 +5.2715234217e+00 -8.8443307167e+02 1.0960494987e+03 6.4735148760e+02 0.0000e+00 0.0000e+00
       13  1    3    3    0    0 -1.3514778255e+02 +2.7753543558e+02 -2.6556853602e+02 4.0720693566e+02 0.0000000000e+00 0.0000e+00 1.0000e+00
        3  1    3    3  501    0 +1.3184508059e+02 -2.7226391215e+02 -6.1886453566e+02 6.8884256302e+02 0.0000000000e+00 0.0000e+00 1.0000e+00
       21  1    1    2  502  501 +3.3027019569e+00 -5.2715234217e+00 -8.7673752845e+00 1.0750054362e+01 0.0000000000e+00 0.0000e+00 1.0000e+00
<mgrwt>
<rscale>  1 0.64738138E+03</rscale>
<asrwt>0</asrwt>
<pdfrwt beam="1">  1        1 0.38836283E+00 0.64738138E+03</pdfrwt>
<pdfrwt beam="2">0</pdfrwt>
<totfact> 0.15077790E+00</totfact>
</mgrwt>
</event>
<event>
 6      1 +5.6466785e-02 6.49954900e+02 7.81860800e-03 9.80686400e-02
        1 -1    0    0  502    0 +0.0000000000e+00 +0.0000000000e+00 +1.0561481921e+02 1.0561481921e+02 0.0000000000e+00 0.0000e+00 1.0000e+00
       13 -1    0    0    0    0 -0.0000000000e+00 -0.0000000000e+00 -1.0000000000e+03 1.0000000000e+03 0.0000000000e+00 0.0000e+00 1.0000e+00
  9000005  2    1    2  501    0 +6.3323902872e-03 +9.7372607867e-03 -8.9437874095e+02 1.1056015382e+03 6.4995494375e+02 0.0000e+00 0.0000e+00
       13  1    3    3    0    0 -1.9565453216e+02 -2.3280345631e+02 -6.4208845877e+02 7.1046163451e+02 0.0000000000e+00 0.0000e+00 1.0000e+00
        1  1    3    3  501    0 +1.9566086455e+02 +2.3281319357e+02 -2.5229028218e+02 3.9513990371e+02 0.0000000000e+00 0.0000e+00 1.0000e+00
       21  1    1    2  502  501 -6.3323902872e-03 -9.7372607867e-03 -6.4398362516e-03 1.3280997904e-02 0.0000000000e+00 0.0000e+00 1.0000e+00
<mgrwt>
<rscale>  1 0.64995494E+03</rscale>
<asrwt>0</asrwt>
<pdfrwt beam="1">  1        1 0.38405470E+00 0.64995494E+03</pdfrwt>
<pdfrwt beam="2">0</pdfrwt>
<totfact> 0.15746939E+00</totfact>
</mgrwt>
</event>
<event>
 6      1 +5.6466785e-02 6.49364700e+02 7.81860800e-03 9.80797200e-02
        1 -1    0    0  502    0 +0.0000000000e+00 +0.0000000000e+00 +1.0706448388e+02 1.0706448388e+02 0.0000000000e+00 0.0000e+00 1.0000e+00
       13 -1    0    0    0    0 -0.0000000000e+00 -0.0000000000e+00 -1.0000000000e+03 1.0000000000e+03 0.0000000000e+00 0.0000e+00 1.0000e+00
  9000005  2    1    2  501    0 +5.6113627243e-02 +5.5809323215e-01 -8.9452838614e+02 1.1053757412e+03 6.4936444397e+02 0.0000e+00 0.0000e+00
       13  1    3    3    0    0 -1.6882862972e+02 +1.8899368765e+02 -1.0156137356e+02 2.7301361282e+02 0.0000000000e+00 0.0000e+00 1.0000e+00
        3  1    3    3  501    0 +1.6888474335e+02 -1.8843559442e+02 -7.9296701258e+02 8.3236212842e+02 0.0000000000e+00 0.0000e+00 1.0000e+00
       21  1    1    2  502  501 -5.6113627243e-02 -5.5809323215e-01 +1.5928700268e+00 1.6887426439e+00 0.0000000000e+00 0.0000e+00 -1.0000e+00
<mgrwt>
<rscale>  1 0.64936469E+03</rscale>
<asrwt>0</asrwt>
<pdfrwt beam="1">  1        1 0.38932622E+00 0.64936469E+03</pdfrwt>
<pdfrwt beam="2">0</pdfrwt>
<totfact> 0.14924783E+00</totfact>
</mgrwt>
</event>
<event>
 6      1 +5.6466785e-02 6.50487100e+02 7.81860800e-03 9.80586600e-02
        1 -1    0    0  502    0 +0.0000000000e+00 +0.0000000000e+00 +1.0578434460e+02 1.0578434460e+02 0.0000000000e+00 0.0000e+00 1.0000e+00
       13 -1    0    0    0    0 -0.0000000000e+00 -0.0000000000e+00 -1.0000000000e+03 1.0000000000e+03 0.0000000000e+00 0.0000e+00 1.0000e+00
  9000005  2    1    2  501    0 +6.4680868945e-05 +5.1313628546e-06 -8.9421662307e+02 1.1057833748e+03 6.5048712740e+02 0.0000e+00 0.0000e+00
       13  1    3    3    0    0 +2.7241440704e+02 +6.6998763493e+01 -7.2687463089e+02 7.7913103680e+02 0.0000000000e+00 0.0000e+00 1.0000e+00
        1  1    3    3  501    0 -2.7241434236e+02 -6.6998758362e+01 -1.6734199219e+02 3.2665233796e+02 0.0000000000e+00 0.0000e+00 1.0000e+00
       21  1    1    2  502  501 -6.4680868963e-05 -5.1313628539e-06 +9.6767508427e-04 9.6984793365e-04 0.0000000000e+00 0.0000e+00 -1.0000e+00
<mgrwt>
<rscale>  1 0.65048713E+03</rscale>
<asrwt>0</asrwt>
<pdfrwt beam="1">  1        1 0.38467116E+00 0.65048713E+03</pdfrwt>
<pdfrwt beam="2">0</pdfrwt>
<totfact> 0.15646875E+00</totfact>
</mgrwt>
</event>
<event>
 6      1 +5.6466785e-02 6.56663800e+02 7.81860800e-03 9.79435500e-02
        1 -1    0    0  502    0 +0.0000000000e+00 +0.0000000000e+00 +1.0780199529e+02 1.0780199529e+02 0.0000000000e+00 0.0000e+00 1.0000e+00
       13 -1    0    0    0    0 -0.0000000000e+00 -0.0000000000e+00 -1.0000000000e+03 1.0000000000e+03 0.0000000000e+00 0.0000e+00 1.0000e+00
  9000005  2    1    2  501    0 +4.4588070271e-04 +4.1070475504e-05 -8.9219753203e+02 1.1078013442e+03 6.5666382727e+02 0.0000e+00 0.0000e+00
       13  1    3    3    0    0 -4.9702103394e+01 +3.2451863152e+02 -4.5348998775e+02 5.5985338284e+02 0.0000000000e+00 0.0000e+00 1.0000e+00
        3  1    3    3  501    0 +4.9702549274e+01 -3.2451859045e+02 -4.3870754427e+02 5.4794796136e+02 0.0000000000e+00 0.0000e+00 1.0000e+00
       21  1    1    2  502  501 -4.4588070272e-04 -4.1070475503e-05 -4.7268361872e-04 6.5109614376e-04 0.0000000000e+00 0.0000e+00 1.0000e+00
<mgrwt>
<rscale>  1 0.65666383E+03</rscale>
<asrwt>0</asrwt>
<pdfrwt beam="1">  1        1 0.39200808E+00 0.65666383E+03</pdfrwt>
<pdfrwt beam="2">0</pdfrwt>
<totfact> 0.14501782E+00</totfact>
</mgrwt>
</event>
<event>
 6      1 +5.6466785e-02 6.56017200e+02 7.81860800e-03 9.79555300e-02
        1 -1    0    0  502    0 +0.0000000000e+00 +0.0000000000e+00 +1.0770470709e+02 1.0770470709e+02 0.0000000000e+00 0.0000e+00 1.0000e+00
       13 -1    0    0    0    0 -0.0000000000e+00 -0.0000000000e+00 -1.0000000000e+03 1.0000000000e+03 0.0000000000e+00 0.0000e+00 1.0000e+00
  9000005  2    1    2  501    0 +2.9441591370e-02 +6.5135935480e-02 -8.9239794059e+02 1.1075796229e+03 6.5601717331e+02 0.0000e+00 0.0000e+00
       13  1    3    3    0    0 -1.3336875537e+02 +2.9903805568e+02 -4.1271012531e+02 5.2682125165e+02 0.0000000000e+00 0.0000e+00 1.0000e+00
        1  1    3    3  501    0 +1.3339819697e+02 -2.9897291975e+02 -4.7968781529e+02 5.8075837130e+02 0.0000000000e+00 0.0000e+00 1.0000e+00
       21  1    1    2  502  501 -2.9441591370e-02 -6.5135935480e-02 +1.0264767795e-01 1.2508414440e-01 0.0000000000e+00 0.0000e+00 -1.0000e+00
<mgrwt>
<rscale>  1 0.65601718E+03</rscale>
<asrwt>0</asrwt>
<pdfrwt beam="1">  1        1 0.39165431E+00 0.65601718E+03</pdfrwt>
<pdfrwt beam="2">0</pdfrwt>
<totfact> 0.14556065E+00</totfact>
</mgrwt>
</event>
<event>
 6      1 +5.6466785e-02 5.30445300e+02 7.81860800e-03 1.00612400e-01
        1 -1    0    0  502    0 +0.0000000000e+00 +0.0000000000e+00 +7.0456827478e+01 7.0456827478e+01 0.0000000000e+00 0.0000e+00 1.0000e+00
       13 -1    0    0    0    0 -0.0000000000e+00 -0.0000000000e+00 -1.0000000000e+03 1.0000000000e+03 0.0000000000e+00 0.0000e+00 1.0000e+00
  9000005  2    1    2  501    0 -2.5156813306e-03 +1.2627356252e-03 -9.2965693440e+02 1.0703430308e+03 5.3044527320e+02 0.0000e+00 0.0000e+00
       13  1    3    3    0    0 +3.6432376636e+01 +2.5947848520e+02 -5.4770444423e+02 6.0715447835e+02 0.0000000000e+00 0.0000e+00 1.0000e+00
        1  1    3    3  501    0 -3.6434892317e+01 -2.5947722247e+02 -3.8195249017e+02 4.6318855243e+02 0.0000000000e+00 0.0000e+00 1.0000e+00
       21  1    1    2  502  501 +2.5156813306e-03 -1.2627356252e-03 +1.1376187689e-01 1.1379669498e-01 0.0000000000e+00 0.0000e+00 -1.0000e+00
<mgrwt>
<rscale>  1 0.53044527E+03</rscale>
<asrwt>0</asrwt>
<pdfrwt beam="1">  1        1 0.25620719E+00 0.53044527E+03</pdfrwt>
<pdfrwt beam="2">0</pdfrwt>
<totfact> 0.57743148E+00</totfact>
</mgrwt>
</event>
<event>
 6      1 +5.6466785e-02 6.52033600e+02 7.81860800e-03 9.80297100e-02
        1 -1    0    0  502    0 +0.0000000000e+00 +0.0000000000e+00 +1.0628696522e+02 1.0628696522e+02 0.0000000000e+00 0.0000e+00 1.0000e+00
       13 -1    0    0    0    0 -0.0000000000e+00 -0.0000000000e+00 -1.0000000000e+03 1.0000000000e+03 0.0000000000e+00 0.0000e+00 1.0000e+00
  9000005  2    1    2  501    0 -1.9806804232e-06 +1.9625636583e-07 -8.9371305543e+02 1.1062869445e+03 6.5203357126e+02 0.0000e+00 0.0000e+00
       13  1    3    3    0    0 -1.0619945415e+02 +1.6663221754e+02 -8.8682260347e+02 9.0856972765e+02 0.0000000000e+00 0.0000e+00 1.0000e+00
        3  1    3    3  501    0 +1.0619945217e+02 -1.6663221734e+02 -6.8904519674e+00 1.9771721682e+02 0.0000000000e+00 0.0000e+00 1.0000e+00
       21  1    1    2  502  501 +1.9806804237e-06 -1.9625637085e-07 +2.0655706282e-05 2.0751381002e-05 0.0000000000e+00 0.0000e+00 -1.0000e+00
<mgrwt>
<rscale>  1 0.65203357E+03</rscale>
<asrwt>0</asrwt>
<pdfrwt beam="1">  1        1 0.38649887E+00 0.65203357E+03</pdfrwt>
<pdfrwt beam="2">0</pdfrwt>
<totfact> 0.15353828E+00</totfact>
</mgrwt>
</event>
<event>
 6      1 +5.6466785e-02 6.45241000e+02 7.81860800e-03 9.81575000e-02
        1 -1    0    0  502    0 +0.0000000000e+00 +0.0000000000e+00 +1.0408399555e+02 1.0408399555e+02 0.0000000000e+00 0.0000e+00 1.0000e+00
       13 -1    0    0    0    0 -0.0000000000e+00 -0.0000000000e+00 -1.0000000000e+03 1.0000000000e+03 0.0000000000e+00 0.0000e+00 1.0000e+00
  9000005  2    1    2  501    0 +9.2874730342e-06 +7.4728081501e-07 -8.9591600115e+02 1.1040839857e+03 6.4524101410e+02 0.0000e+00 0.0000e+00
       13  1    3    3    0    0 -2.4580087661e+02 -6.2391581845e+01 -1.0670579492e+02 2.7513070912e+02 0.0000000000e+00 0.0000e+00 1.0000e+00
        3  1    3    3  501    0 +2.4580088590e+02 +6.2391582592e+01 -7.8921020623e+02 8.2895327655e+02 0.0000000000e+00 0.0000e+00 1.0000e+00
       21  1    1    2  502  501 -9.2874730405e-06 -7.4728081708e-07 -3.2971665679e-06 9.8836679160e-06 0.0000000000e+00 0.0000e+00 1.0000e+00
<mgrwt>
<rscale>  1 0.64524101E+03</rscale>
<asrwt>0</asrwt>
<pdfrwt beam="1">  1        1 0.37848805E+00 0.64524101E+03</pdfrwt>
<pdfrwt beam="2">0</pdfrwt>
<totfact> 0.16678220E+00</totfact>
</mgrwt>
</event>
<event>
 6      1 +5.6466785e-02 6.18520800e+02 7.81860800e-03 9.86770900e-02
        1 -1    0    0  502    0 +0.0000000000e+00 +0.0000000000e+00 +9.5738628995e+01 9.5738628995e+01 0.0000000000e+00 0.0000e+00 1.0000e+00
       13 -1    0    0    0    0 -0.0000000000e+00 -0.0000000000e+00 -1.0000000000e+03 1.0000000000e+03 0.0000000000e+00 0.0000e+00 1.0000e+00
  9000005  2    1    2  501    0 -1.5683604223e-02 -7.2380471745e-03 -9.0435716715e+02 1.0956412880e+03 6.1852077242e+02 0.0000e+00 0.0000e+00
       13  1    3    3    0    0 -1.0262022450e+02 +2.8526306325e+02 -5.6044413135e+02 6.3718407866e+02 0.0000000000e+00 0.0000e+00 1.0000e+00
        1  1    3    3  501    0 +1.0260454089e+02 -2.8527030129e+02 -3.4391303580e+02 4.5845720935e+02 0.0000000000e+00 0.0000e+00 1.0000e+00
       21  1    1    2  502  501 +1.5683604223e-02 +7.2380471745e-03 +9.5796149362e-02 9.7340983152e-02 0.0000000000e+00 0.0000e+00 1.0000e+00
<mgrwt>
<rscale>  1 0.61852077E+03</rscale>
<asrwt>0</asrwt>
<pdfrwt beam="1">  1        1 0.34814120E+00 0.61852077E+03</pdfrwt>
<pdfrwt beam="2">0</pdfrwt>
<totfact> 0.22760092E+00</totfact>
</mgrwt>
</event>
<event>
 6      1 +5.6466785e-02 6.50806900e+02 7.81860800e-03 9.80526600e-02
        1 -1    0    0  502    0 +0.0000000000e+00 +0.0000000000e+00 +1.0588859932e+02 1.0588859932e+02 0.0000000000e+00 0.0000e+00 1.0000e+00
       13 -1    0    0    0    0 -0.0000000000e+00 -0.0000000000e+00 -1.0000000000e+03 1.0000000000e+03 0.0000000000e+00 0.0000e+00 1.0000e+00
  9000005  2    1    2  501    0 +3.0976074261e-04 +5.7825960027e-05 -8.9411257497e+02 1.1058873835e+03 6.5080689011e+02 0.0000e+00 0.0000e+00
       13  1    3    3    0    0 -9.0064024451e+01 -1.5339112642e+02 -9.1007457148e+02 9.2729504033e+02 0.0000000000e+00 0.0000e+00 1.0000e+00
        3  1    3    3  501    0 +9.0064334211e+01 +1.5339118424e+02 +1.5961996507e+01 1.7859234315e+02 0.0000000000e+00 0.0000e+00 1.0000e+00
       21  1    1    2  502  501 -3.0976074261e-04 -5.7825960027e-05 +1.1742936150e-03 1.2158375934e-03 0.0000000000e+00 0.0000e+00 -1.0000e+00
<mgrwt>
<rscale>  1 0.65080689E+03</rscale>
<asrwt>0</asrwt>
<pdfrwt beam="1">  1        1 0.38505026E+00 0.65080689E+03</pdfrwt>
<pdfrwt beam="2">0</pdfrwt>
<totfact> 0.15585660E+00</totfact>
</mgrwt>
</event>
<event>
 6      1 +5.6466785e-02 6.64544200e+02 7.81860800e-03 9.77986400e-02
        1 -1    0    0  502    0 +0.0000000000e+00 +0.0000000000e+00 +1.1040736535e+02 1.1040736535e+02 0.0000000000e+00 0.0000e+00 1.0000e+00
       13 -1    0    0    0    0 -0.0000000000e+00 -0.0000000000e+00 -1.0000000000e+03 1.0000000000e+03 0.0000000000e+00 0.0000e+00 1.0000e+00
  9000005  2    1    2  501    0 +6.3250118913e-03 -1.3683737373e-03 -8.8958958779e+02 1.1104002126e+03 6.6454420278e+02 0.0000e+00 0.0000e+00
       13  1    3    3    0    0 +1.1687535543e+01 -5.7623012656e+00 -9.9956815734e+02 9.9965309171e+02 0.0000000000e+00 0.0000e+00 1.0000e+00
        1  1    3    3  501    0 -1.1681210531e+01 +5.7609328919e+00 +1.0997856955e+02 1.1074712090e+02 0.0000000000e+00 0.0000e+00 1.0000e+00
       21  1    1    2  502  501 -6.3250118913e-03 +1.3683737373e-03 -3.0468623548e-03 7.1527332062e-03 0.0000000000e+00 0.0000e+00 1.0000e+00
<mgrwt>
<rscale>  1 0.66454420E+03</rscale>
<asrwt>0</asrwt>
<pdfrwt beam="1">  1        1 0.40148218E+00 0.66454420E+03</pdfrwt>
<pdfrwt beam="2">0</pdfrwt>
<totfact> 0.13140498E+00</totfact>
</mgrwt>
</event>
<event>
 6      1 +5.6466785e-02 6.47549200e+02 7.81860800e-03 9.81138900e-02
        1 -1    0    0  502    0 +0.0000000000e+00 +0.0000000000e+00 +1.0587177266e+02 1.0587177266e+02 0.0000000000e+00 0.0000e+00 1.0000e+00
       13 -1    0    0    0    0 -0.0000000000e+00 -0.0000000000e+00 -1.0000000000e+03 1.0000000000e+03 0.0000000000e+00 0.0000e+00 1.0000e+00
  9000005  2    1    2  501    0 -2.3582668624e-02 +5.7141394047e-03 -8.9516985812e+02 1.1048298593e+03 6.4754918154e+02 0.0000e+00 0.0000e+00
       13  1    3    3    0    0 +1.8677224142e+02 +1.3118069502e+02 -8.3938066410e+02 8.6985754246e+02 0.0000000000e+00 0.0000e+00 1.0000e+00
        3  1    3    3  501    0 -1.8679582409e+02 -1.3117498088e+02 -5.5789194019e+01 2.3497231683e+02 0.0000000000e+00 0.0000e+00 1.0000e+00
       21  1    1    2  502  501 +2.3582668624e-02 -5.7141394048e-03 +1.0416307781e+00 1.0419133705e+00 0.0000000000e+00 0.0000e+00 -1.0000e+00
<mgrwt>
<rscale>  1 0.64754918E+03</rscale>
<asrwt>0</asrwt>
<pdfrwt beam="1">  1        1 0.38498908E+00 0.64754918E+03</pdfrwt>
<pdfrwt beam="2">0</pdfrwt>
<totfact> 0.15604775E+00</totfact>
</mgrwt>
</event>
<event>
 6      1 +5.6466785e-02 6.41239600e+02 7.81860800e-03 9.82335800e-02
        1 -1    0    0  502    0 +0.0000000000e+00 +0.0000000000e+00 +1.0279706848e+02 1.0279706848e+02 0.0000000000e+00 0.0000e+00 1.0000e+00
       13 -1    0    0    0    0 -0.0000000000e+00 -0.0000000000e+00 -1.0000000000e+03 1.0000000000e+03 0.0000000000e+00 0.0000e+00 1.0000e+00
  9000005  2    1    2  501    0 -1.3149919056e-05 -9.9832221849e-06 -8.9720293063e+02 1.1027970519e+03 6.4123961126e+02 0.0000e+00 0.0000e+00
       13  1    3    3    0    0 +1.8714386176e+02 +2.0068576089e+02 -1.6340947905e+02 3.1937479152e+02 0.0000000000e+00 0.0000e+00 1.0000e+00
        1  1    3    3  501    0 -1.8714387491e+02 -2.0068577087e+02 -7.3379345158e+02 7.8342226042e+02 0.0000000000e+00 0.0000e+00 1.0000e+00
       21  1    1    2  502  501 +1.3149919080e-05 +9.9832221803e-06 -8.9291845170e-07 1.6534279551e-05 0.0000000000e+00 0.0000e+00 1.0000e+00
<mgrwt>
<rscale>  1 0.64123961E+03</rscale>
<asrwt>0</asrwt>
<pdfrwt beam="1">  1        1 0.37380831E+00 0.64123961E+03</pdfrwt>
<pdfrwt beam="2">0</pdfrwt>
<totfact> 0.17501624E+00</totfact>
</mgrwt>
</event>
<event>
 6      1 +5.6466785e-02 6.54290300e+02 7.81860800e-03 9.79876200e-02
        1 -1    0    0  502    0 +0.0000000000e+00 +0.0000000000e+00 +1.0702398231e+02 1.0702398231e+02 0.0000000000e+00 0.0000e+00 1.0000e+00
       13 -1    0    0    0    0 -0.0000000000e+00 -0.0000000000e+00 -1.0000000000e+03 1.0000000000e+03 0.0000000000e+00 0.0000e+00 1.0000e+00
  9000005  2    1    2  501    0 -2.8105104946e-06 +6.4263583397e-06 -8.9297603556e+02 1.1070239631e+03 6.5429034443e+02 0.0000e+00 0.0000e+00
       13  1    3    3    0    0 +1.9415800593e+02 -7.3098129865e+01 -8.7446440533e+02 8.9873726085e+02 0.0000000000e+00 0.0000e+00 1.0000e+00
        3  1    3    3  501    0 -1.9415800874e+02 +7.3098136291e+01 -1.8511630233e+01 2.0828670226e+02 0.0000000000e+00 0.0000e+00 1.0000e+00
       21  1    1    2  502  501 +2.8105105131e-06 -6.4263583330e-06 +1.7866817528e-05 1.9194275692e-05 0.0000000000e+00 0.0000e+00 1.0000e+00
<mgrwt>
<rscale>  1 0.65429034E+03</rscale>
<asrwt>0</asrwt>
<pdfrwt beam="1">  1        1 0.38917894E+00 0.65429034E+03</pdfrwt>
<pdfrwt beam="2">0</pdfrwt>
<totfact> 0.14933556E+00</totfact>
</mgrwt>
</event>
<event>
 6      1 +5.6466785e-02 6.39208800e+02 7.81860800e-03 9.82724200e-02
        1 -1    0    0  502    0 +0.0000000000e+00 +0.0000000000e+00 +1.0215454910e+02 1.0215454910e+02 0.0000000000e+00 0.0000e+00 1.0000e+00
       13 -1    0    0    0    0 -0.0000000000e+00 -0.0000000000e+00 -1.0000000000e+03 1.0000000000e+03 0.0000000000e+00 0.0000e+00 1.0000e+00
  9000005  2    1    2  501    0 +1.1109521639e-02 +1.4666902569e-02 -8.9783799104e+02 1.1021346949e+03 6.3920875090e+02 0.0000e+00 0.0000e+00
       13  1    3    3    0    0 +1.3858502212e+02 +5.3526142247e+01 +3.8997136226e+01 1.5359567993e+02 0.0000000000e+00 0.0000e+00 1.0000e+00
        1  1    3    3  501    0 -1.3857391260e+02 -5.3511475344e+01 -9.3683512727e+02 9.4853901498e+02 0.0000000000e+00 0.0000e+00 1.0000e+00
       21  1    1    2  502  501 -1.1109521639e-02 -1.4666902569e-02 -7.4598532003e-03 1.9854191290e-02 0.0000000000e+00 0.0000e+00 1.0000e+00
<mgrwt>
<rscale>  1 0.63920875E+03</rscale>
<asrwt>0</asrwt>
<pdfrwt beam="1">  1        1 0.37147187E+00 0.63920875E+03</pdfrwt>
<pdfrwt beam="2">0</pdfrwt>
<totfact> 0.17927216E+00</totfact>
</mgrwt>
</event>
<event>
 6      1 +5.6466785e-02 6.55804900e+02 7.81860800e-03 9.79594700e-02
        1 -1    0    0  502    0 +0.0000000000e+00 +0.0000000000e+00 +1.0752006566e+02 1.0752006566e+02 0.0000000000e+00 0.0000e+00 1.0000e+00
       13 -1    0    0    0    0 -0.0000000000e+00 -0.0000000000e+00 -1.0000000000e+03 1.0000000000e+03 0.0000000000e+00 0.0000e+00 1.0000e+00
  9000005  2    1    2  501    0 -3.6485308215e-06 -2.3598638563e-06 -8.9247998721e+02 1.1075200126e+03 6.5580488774e+02 0.0000e+00 0.0000e+00
       13  1    3    3    0    0 +1.0335160702e+02 +2.2357291277e+02 -8.1179140018e+02 8.4833465059e+02 0.0000000000e+00 0.0000e+00 1.0000e+00
        1  1    3    3  501    0 -1.0335161067e+02 -2.2357291513e+02 -8.0688587031e+01 2.5918536202e+02 0.0000000000e+00 0.0000e+00 1.0000e+00
       21  1    1    2  502  501 +3.6485308168e-06 +2.3598638515e-06 +5.2865422356e-05 5.3043695341e-05 0.0000000000e+00 0.0000e+00 -1.0000e+00
<mgrwt>
<rscale>  1 0.65580489E+03</rscale>
<asrwt>0</asrwt>
<pdfrwt beam="1">  1        1 0.39098288E+00 0.65580489E+03</pdfrwt>
<pdfrwt beam="2">0</pdfrwt>
<totfact> 0.14656856E+00</totfact>
</mgrwt>
</event>
<event>
 6      1 +5.6466785e-02 6.61734100e+02 7.81860800e-03 9.78500700e-02
        1 -1    0    0  502    0 +0.0000000000e+00 +0.0000000000e+00 +1.0947304398e+02 1.0947304398e+02 0.0000000000e+00 0.0000e+00 1.0000e+00
       13 -1    0    0    0    0 -0.0000000000e+00 -0.0000000000e+00 -1.0000000000e+03 1.0000000000e+03 0.0000000000e+00 0.0000e+00 1.0000e+00
  9000005  2    1    2  501    0 +1.1831972301e-05 +7.1600423752e-05 -8.9052696100e+02 1.1094729712e+03 6.6173408984e+02 0.0000e+00 0.0000e+00
       13  1    3    3    0    0 +2.2263234052e+02 -2.2827143208e+02 -2.9718904052e+02 4.3588339215e+02 0.0000000000e+00 0.0000e+00 1.0000e+00
        3  1    3    3  501    0 -2.2263232869e+02 +2.2827150368e+02 -5.9333792048e+02 6.7358957909e+02 0.0000000000e+00 0.0000e+00 1.0000e+00
       21  1    1    2  502  501 -1.1831972323e-05 -7.1600423741e-05 +4.9807101618e-06 7.2742172931e-05 0.0000000000e+00 0.0000e+00 1.0000e+00
<mgrwt>
<rscale>  1 0.66173409E+03</rscale>
<asrwt>0</asrwt>
<pdfrwt beam="1">  1        1 0.39808464E+00 0.66173409E+03</pdfrwt>
<pdfrwt beam="2">0</pdfrwt>
<totfact> 0.13614103E+00</totfact>
</mgrwt>
</event>
<event>
 6      1 +5.6466785e-02 6.29842100e+02 7.81860800e-03 9.84535700e-02
        1 -1    0    0  502    0 +0.0000000000e+00 +0.0000000000e+00 +9.9194978764e+01 9.9194978764e+01 0.0000000000e+00 0.0000e+00 1.0000e+00
       13 -1    0    0    0    0 -0.0000000000e+00 -0.0000000000e+00 -1.0000000000e+03 1.0000000000e+03 0.0000000000e+00 0.0000e+00 1.0000e+00
  9000005  2    1    2  501    0 -4.1462561175e-03 +3.9688216067e-03 -9.0082426317e+02 1.0991748990e+03 6.2984212748e+02 0.0000e+00 0.0000e+00
       13  1    3    3    0    0 -2.2795779073e+02 +1.6877361261e+02 -2.1159276346e+02 3.5386548888e+02 0.0000000000e+00 0.0000e+00 1.0000e+00
        3  1    3    3  501    0 +2.2795364448e+02 -1.6876964379e+02 -6.8923149971e+02 7.4530941017e+02 0.0000000000e+00 0.0000e+00 1.0000e+00
       21  1    1    2  502  501 +4.1462561174e-03 -3.9688216067e-03 +1.9241934406e-02 2.0079716741e-02 0.0000000000e+00 0.0000e+00 -1.0000e+00
<mgrwt>
<rscale>  1 0.62984213E+03</rscale>
<asrwt>0</asrwt>
<pdfrwt beam="1">  1        1 0.36070977E+00 0.62984213E+03</pdfrwt>
<pdfrwt beam="2">0</pdfrwt>
<totfact> 0.20018774E+00</totfact>
</mgrwt>
</event>
<event>
 6      1 +5.6466785e-02 6.53347400e+02 7.81860800e-03 9.80051800e-02
        1 -1    0    0  502    0 +0.0000000000e+00 +0.0000000000e+00 +1.0671880871e+02 1.0671880871e+02 0.0000000000e+00 0.0000e+00 1.0000e+00
       13 -1    0    0    0    0 -0.0000000000e+00 -0.0000000000e+00 -1.0000000000e+03 1.0000000000e+03 0.0000000000e+00 0.0000e+00 1.0000e+00
  9000005  2    1    2  501    0 +2.1888162223e-05 +2.0016921765e-04 -8.9328428246e+02 1.1067157110e+03 6.5334742341e+02 0.0000e+00 0.0000e+00
       13  1    3    3    0    0 +1.3697555192e+02 +1.1015800930e+02 +1.9780761852e+01 1.7688518134e+02 0.0000000000e+00 0.0000e+00 1.0000e+00
        1  1    3    3  501    0 -1.3697553003e+02 -1.1015780913e+02 -9.1306504431e+02 9.2983052965e+02 0.0000000000e+00 0.0000e+00 1.0000e+00
       21  1    1    2  502  501 -2.1888162228e-05 -2.0016921766e-04 +3.0911650148e-03 3.0977165713e-03 0.0000000000e+00 0.0000e+00 1.0000e+00
<mgrwt>
<rscale>  1 0.65334742E+03</rscale>
<asrwt>0</asrwt>
<pdfrwt beam="1">  1        1 0.38806921E+00 0.65334742E+03</pdfrwt>
<pdfrwt beam="2">0</pdfrwt>
<totfact> 0.15106258E+00</totfact>
</mgrwt>
</event>
<event>
 6      1 +5.6466785e-02 6.64476500e+02 7.81860800e-03 9.77998800e-02
        1 -1    0    0  502    0 +0.0000000000e+00 +0.0000000000e+00 +1.1038301112e+02 1.1038301112e+02 0.0000000000e+00 0.0000e+00 1.0000e+00
       13 -1    0    0    0    0 -0.0000000000e+00 -0.0000000000e+00 -1.0000000000e+03 1.0000000000e+03 0.0000000000e+00 0.0000e+00 1.0000e+00
  9000005  2    1    2  501    0 -1.0992464144e-04 -4.6321054737e-04 -8.8961765940e+02 1.1103821888e+03 6.6447650466e+02 0.0000e+00 0.0000e+00
       13  1    3    3    0    0 +1.6722969319e+02 -2.5861989996e+02 -6.5307160670e+02 7.2204746826e+02 0.0000000000e+00 0.0000e+00 1.0000e+00
        3  1    3    3  501    0 -1.6722980311e+02 +2.5861943675e+02 -2.3654605270e+02 3.8833472052e+02 0.0000000000e+00 0.0000e+00 1.0000e+00
       21  1    1    2  502  501 +1.0992464144e-04 +4.6321054738e-04 +6.7051781640e-04 8.2233909071e-04 0.0000000000e+00 0.0000e+00 -1.0000e+00
<mgrwt>
<rscale>  1 0.66447650E+03</rscale>
<asrwt>0</asrwt>
<pdfrwt beam="1">  1        1 0.40139361E+00 0.66447650E+03</pdfrwt>
<pdfrwt beam="2">0</pdfrwt>
<totfact> 0.13152630E+00</totfact>
</mgrwt>
</event>
<event>
 6      1 +5.6466785e-02 6.57481800e+02 7.81860800e-03 9.79284100e-02
        1 -1    0    0  502    0 +0.0000000000e+00 +0.0000000000e+00 +1.0912092099e+02 1.0912092099e+02 0.0000000000e+00 0.0000e+00 1.0000e+00
       13 -1    0    0    0    0 -0.0000000000e+00 -0.0000000000e+00 -1.0000000000e+03 1.0000000000e+03 0.0000000000e+00 0.0000e+00 1.0000e+00
  9000005  2    1    2  501    0 +1.7306356112e-01 +3.3903956300e-02 -8.9192121700e+02 1.1080639668e+03 6.5748176110e+02 0.0000e+00 0.0000e+00
       13  1    3    3    0    0 +2.1516387296e+02 -1.6770017529e+02 -7.5533160055e+02 8.0308447115e+02 0.0000000000e+00 0.0000e+00 1.0000e+00
        3  1    3    3  501    0 -2.1499080940e+02 +1.6773407925e+02 -1.3658961645e+02 3.0497949569e+02 0.0000000000e+00 0.0000e+00 1.0000e+00
       21  1    1    2  502  501 -1.7306356112e-01 -3.3903956300e-02 +1.0421379879e+00 1.0569541429e+00 0.0000000000e+00 0.0000e+00 1.0000e+00
<mgrwt>
<rscale>  1 0.65748178E+03</rscale>
<asrwt>0</asrwt>
<pdfrwt beam="1">  1        1 0.39680419E+00 0.65748178E+03</pdfrwt>
<pdfrwt beam="2">0</pdfrwt>
<totfact> 0.13804977E+00</totfact>
</mgrwt>
</event>
<event>
 6      1 +5.6466785e-02 6.75671100e+02 7.81860800e-03 9.75976700e-02
        1 -1    0    0  502    0 +0.0000000000e+00 +0.0000000000e+00 +1.1636833526e+02 1.1636833526e+02 0.0000000000e+00 0.0000e+00 1.0000e+00
       13 -1    0    0    0    0 -0.0000000000e+00 -0.0000000000e+00 -1.0000000000e+03 1.0000000000e+03 0.0000000000e+00 0.0000e+00 1.0000e+00
  9000005  2    1    2  501    0 +1.0358148843e-01 -7.1557580085e-02 -8.8586517476e+02 1.1141312799e+03 6.7567106286e+02 0.0000e+00 0.0000e+00
       13  1    3    3    0    0 -1.3768933801e+02 -2.9226204445e+02 -2.8000996300e+02 4.2752898827e+02 0.0000000000e+00 0.0000e+00 1.0000e+00
        3  1    3    3  501    0 +1.3779291950e+02 +2.9219048687e+02 -6.0585521176e+02 6.8660229165e+02 0.0000000000e+00 0.0000e+00 1.0000e+00
       21  1    1    2  502  501 -1.0358148843e-01 +7.1557580085e-02 +2.2335100185e+00 2.2370553446e+00 0.0000000000e+00 0.0000e+00 -1.0000e+00
<mgrwt>
<rscale>  1 0.67567107E+03</rscale>
<asrwt>0</asrwt>
<pdfrwt beam="1">  1        1 0.42315848E+00 0.67567107E+03</pdfrwt>
<pdfrwt beam="2">0</pdfrwt>
<totfact> 0.10478951E+00</totfact>
</mgrwt>
</event>
<event>
 6      1 +5.6466785e-02 6.42679500e+02 7.81860800e-03 9.82061300e-02
        1 -1    0    0  502    0 +0.0000000000e+00 +0.0000000000e+00 +1.0325957725e+02 1.0325957725e+02 0.0000000000e+00 0.0000e+00 1.0000e+00
       13 -1    0    0    0    0 -0.0000000000e+00 -0.0000000000e+00 -1.0000000000e+03 1.0000000000e+03 0.0000000000e+00 0.0000e+00 1.0000e+00
  9000005  2    1    2  501    0 +9.4757565361e-04 +2.8664388486e-04 -8.9673974222e+02 1.1032583759e+03 6.4267945257e+02 0.0000e+00 0.0000e+00
       13  1    3    3    0    0 +2.4056319132e+02 -1.9953688281e+02 -5.7653171448e+02 6.5580060569e+02 0.0000000000e+00 0.0000e+00 1.0000e+00
        1  1    3    3  501    0 -2.4056224375e+02 +1.9953716945e+02 -3.2020802775e+02 4.4745777023e+02 0.0000000000e+00 0.0000e+00 1.0000e+00
       21  1    1    2  502  501 -9.4757565360e-04 -2.8664388486e-04 -6.8052765296e-04 1.2013251943e-03 0.0000000000e+00 0.0000e+00 -1.0000e+00
<mgrwt>
<rscale>  1 0.64267945E+03</rscale>
<asrwt>0</asrwt>
<pdfrwt beam="1">  1        1 0.37549016E+00 0.64267945E+03</pdfrwt>
<pdfrwt beam="2">0</pdfrwt>
<totfact> 0.17201327E+00</totfact>
</mgrwt>
</event>
<event>
 6      1 +5.6466785e-02 6.54342500e+02 7.81860800e-03 9.79866500e-02
        1 -1    0    0  502    0 +0.0000000000e+00 +0.0000000000e+00 +1.0704107346e+02 1.0704107346e+02 0.0000000000e+00 0.0000e+00 1.0000e+00
       13 -1    0    0    0    0 -0.0000000000e+00 -0.0000000000e+00 -1.0000000000e+03 1.0000000000e+03 0.0000000000e+00 0.0000e+00 1.0000e+00
  9000005  2    1    2  501    0 -8.6118762965e-07 +6.6976911626e-06 -8.9295897093e+02 1.1070410286e+03 6.5434250600e+02 0.0000e+00 0.0000e+00
       13  1    3    3    0    0 -1.1910167901e+02 -6.1189471427e+01 +5.8560621983e+01 1.4614618641e+02 0.0000000000e+00 0.0000e+00 1.0000e+00
        1  1    3    3  501    0 +1.1910167815e+02 +6.1189478125e+01 -9.5151959291e+02 9.6089484215e+02 0.0000000000e+00 0.0000e+00 1.0000e+00
       21  1    1    2  502  501 +8.6118763331e-07 -6.6976911605e-06 +4.4392095249e-05 4.4902770868e-05 0.0000000000e+00 0.0000e+00 -1.0000e+00
<mgrwt>
<rscale>  1 0.65434251E+03</rscale>
<asrwt>0</asrwt>
<pdfrwt beam="1">  1        1 0.38924109E+00 0.65434251E+03</pdfrwt>
<pdfrwt beam="2">0</pdfrwt>
<totfact> 0.14923942E+00</totfact>
</mgrwt>
</event>
<event>
 6      1 +5.6466785e-02 5.22442300e+02 7.81860800e-03 1.00808200e-01
        1 -1    0    0  502    0 +0.0000000000e+00 +0.0000000000e+00 +6.8236531748e+01 6.8236531748e+01 0.0000000000e+00 0.0000e+00 1.0000e+00
       13 -1    0    0    0    0 -0.0000000000e+00 -0.0000000000e+00 -1.0000000000e+03 1.0000000000e+03 0.0000000000e+00 0.0000e+00 1.0000e+00
  9000005  2    1    2  501    0 +6.5762101826e-06 +7.1096797569e-06 -9.3176351093e+02 1.0682364880e+03 5.2244229725e+02 0.0000e+00 0.0000e+00
       13  1    3    3    0    0 +1.0524329752e+02 -1.6230928057e+02 -8.2481810918e+02 8.4719854076e+02 0.0000000000e+00 0.0000e+00 1.0000e+00
        3  1    3    3  501    0 -1.0524329095e+02 +1.6230928768e+02 -1.0694540175e+02 2.2103794722e+02 0.0000000000e+00 0.0000e+00 1.0000e+00
       21  1    1    2  502  501 -6.5762101748e-06 -7.1096797727e-06 +4.2680206044e-05 4.3765215351e-05 0.0000000000e+00 0.0000e+00 -1.0000e+00
<mgrwt>
<rscale>  1 0.52244230E+03</rscale>
<asrwt>0</asrwt>
<pdfrwt beam="1">  1        1 0.24813337E+00 0.52244230E+03</pdfrwt>
<pdfrwt beam="2">0</pdfrwt>
<totfact> 0.62688544E+00</totfact>
</mgrwt>
</event>
<event>
 6      1 +5.6466785e-02 5.89392700e+02 7.81860800e-03 9.92766100e-02
        1 -1    0    0  502    0 +0.0000000000e+00 +0.0000000000e+00 +8.9152929306e+01 8.9152929306e+01 0.0000000000e+00 0.0000e+00 1.0000e+00
       13 -1    0    0    0    0 -0.0000000000e+00 -0.0000000000e+00 -1.0000000000e+03 1.0000000000e+03 0.0000000000e+00 0.0000e+00 1.0000e+00
  9000005  2    1    2  501    0 +2.3104687037e-02 +2.3506881753e-02 -9.1315394380e+02 1.0868458207e+03 5.8939266358e+02 0.0000e+00 0.0000e+00
       13  1    3    3    0    0 -1.0927569560e+01 -9.8102015784e+01 -9.6859418456e+02 9.7361086253e+02 0.0000000000e+00 0.0000e+00 1.0000e+00
        1  1    3    3  501    0 +1.0950674247e+01 +9.8125522665e+01 +5.5440240755e+01 1.1323495821e+02 0.0000000000e+00 0.0000e+00 1.0000e+00
       21  1    1    2  502  501 -2.3104687037e-02 -2.3506881753e-02 +2.3068731105e+00 2.3071085688e+00 0.0000000000e+00 0.0000e+00 1.0000e+00
<mgrwt>
<rscale>  1 0.58939266E+03</rscale>
<asrwt>0</asrwt>
<pdfrwt beam="1">  1        1 0.32419315E+00 0.58939266E+03</pdfrwt>
<pdfrwt beam="2">0</pdfrwt>
<totfact> 0.29063081E+00</totfact>
</mgrwt>
</event>
<event>
 6      1 +5.6466785e-02 4.73134900e+02 7.81860800e-03 1.02103900e-01
        1 -1    0    0  502    0 +0.0000000000e+00 +0.0000000000e+00 +5.5964176218e+01 5.5964176218e+01 0.0000000000e+00 0.0000e+00 1.0000e+00
       13 -1    0    0    0    0 -0.0000000000e+00 -0.0000000000e+00 -1.0000000000e+03 1.0000000000e+03 0.0000000000e+00 0.0000e+00 1.0000e+00
  9000005  2    1    2  501    0 +1.3089646401e-05 -2.1886345394e-05 -9.4403582810e+02 1.0559641504e+03 4.7313490898e+02 0.0000e+00 0.0000e+00
       13  1    3    3    0    0 -5.1433729295e+01 -1.3360790503e+02 -8.9233831723e+02 9.0375006124e+02 0.0000000000e+00 0.0000e+00 1.0000e+00
        1  1    3    3  501    0 +5.1433742385e+01 +1.3360788315e+02 -5.1697510875e+01 1.5221408912e+02 0.0000000000e+00 0.0000e+00 1.0000e+00
       21  1    1    2  502  501 -1.3089646405e-05 +2.1886345401e-05 +4.3200283817e-06 2.5865297277e-05 0.0000000000e+00 0.0000e+00 -1.0000e+00
<mgrwt>
<rscale>  1 0.47313491E+03</rscale>
<asrwt>0</asrwt>
<pdfrwt beam="1">  1        1 0.20350652E+00 0.47313491E+03</pdfrwt>
<pdfrwt beam="2">0</pdfrwt>
<totfact> 0.99538325E+00</totfact>
</mgrwt>
</event>
<event>
 6      1 +5.6466785e-02 6.42983500e+02 7.81860800e-03 9.82003500e-02
        1 -1    0    0  502    0 +0.0000000000e+00 +0.0000000000e+00 +1.0335722041e+02 1.0335722041e+02 0.0000000000e+00 0.0000e+00 1.0000e+00
       13 -1    0    0    0    0 -0.0000000000e+00 -0.0000000000e+00 -1.0000000000e+03 1.0000000000e+03 0.0000000000e+00 0.0000e+00 1.0000e+00
  9000005  2    1    2  501    0 +2.0319451203e-04 +9.1625395129e-06 -8.9664302558e+02 1.1033569012e+03 6.4298346492e+02 0.0000e+00 0.0000e+00
       13  1    3    3    0    0 -9.2849868415e+01 +5.3948259573e+01 -9.6831463461e+02 9.7425086317e+02 0.0000000000e+00 0.0000e+00 1.0000e+00
        1  1    3    3  501    0 +9.2850071609e+01 -5.3948250411e+01 +7.1671609037e+01 1.2910603805e+02 0.0000000000e+00 0.0000e+00 1.0000e+00
       21  1    1    2  502  501 -2.0319451203e-04 -9.1625395172e-06 +2.4598678084e-04 3.1918875011e-04 0.0000000000e+00 0.0000e+00 1.0000e+00
<mgrwt>
<rscale>  1 0.64298346E+03</rscale>
<asrwt>0</asrwt>
<pdfrwt beam="1">  1        1 0.37584523E+00 0.64298346E+03</pdfrwt>
<pdfrwt beam="2">0</pdfrwt>
<totfact> 0.17138562E+00</totfact>
</mgrwt>
</event>
<event>
 6      1 +5.6466785e-02 6.41238300e+02 7.81860800e-03 9.82336000e-02
        1 -1    0    0  502    0 +0.0000000000e+00 +0.0000000000e+00 +1.0283874897e+02 1.0283874897e+02 0.0000000000e+00 0.0000e+00 1.0000e+00
       13 -1    0    0    0    0 -0.0000000000e+00 -0.0000000000e+00 -1.0000000000e+03 1.0000000000e+03 0.0000000000e+00 0.0000e+00 1.0000e+00
  9000005  2    1    2  501    0 -1.0911283707e-03 +6.2649956078e-04 -8.9720336530e+02 1.1027966159e+03 6.4123825318e+02 0.0000e+00 0.0000e+00
       13  1    3    3    0    0 -7.1180209864e+01 -3.1200285785e+02 -4.8230676404e+02 5.7881967851e+02 0.0000000000e+00 0.0000e+00 1.0000e+00
        3  1    3    3  501    0 +7.1179118736e+01 +3.1200348435e+02 -4.1489660126e+02 5.2397693740e+02 0.0000000000e+00 0.0000e+00 1.0000e+00
       21  1    1    2  502  501 +1.0911283707e-03 -6.2649956081e-04 +4.2114272451e-02 4.2133063109e-02 0.0000000000e+00 0.0000e+00 -1.0000e+00
<mgrwt>
<rscale>  1 0.64123825E+03</rscale>
<asrwt>0</asrwt>
<pdfrwt beam="1">  1        1 0.37395988E+00 0.64123825E+03</pdfrwt>
<pdfrwt beam="2">0</pdfrwt>
<totfact> 0.17474777E+00</totfact>
</mgrwt>
</event>
<event>
 6      1 +5.6466785e-02 6.44472800e+02 7.81860800e-03 9.81720600e-02
        1 -1    0    0  502    0 +0.0000000000e+00 +0.0000000000e+00 +1.0386592575e+02 1.0386592575e+02 0.0000000000e+00 0.0000e+00 1.0000e+00
       13 -1    0    0    0    0 -0.0000000000e+00 -0.0000000000e+00 -1.0000000000e+03 1.0000000000e+03 0.0000000000e+00 0.0000e+00 1.0000e+00
  9000005  2    1    2  501    0 +1.2941848913e-03 -1.0234885175e-04 -8.9616368277e+02 1.1038362888e+03 6.4447281256e+02 0.0000e+00 0.0000e+00
       13  1    3    3    0    0 +2.5630466867e+02 -1.7739156805e+02 -5.8803625076e+02 6.6554224795e+02 0.0000000000e+00 0.0000e+00 1.0000e+00
        1  1    3    3  501    0 -2.5630337448e+02 +1.7739146570e+02 -3.0812743200e+02 4.3829404083e+02 0.0000000000e+00 0.0000e+00 1.0000e+00
       21  1    1    2  502  501 -1.2941848913e-03 +1.0234885177e-04 +2.9608514206e-02 2.9636961776e-02 0.0000000000e+00 0.0000e+00 1.0000e+00
<mgrwt>
<rscale>  1 0.64447281E+03</rscale>
<asrwt>0</asrwt>
<pdfrwt beam="1">  1        1 0.37769507E+00 0.64447281E+03</pdfrwt>
<pdfrwt beam="2">0</pdfrwt>
<totfact> 0.16815374E+00</totfact>
</mgrwt>
</event>
<event>
 6      1 +5.6466785e-02 6.48150000e+02 7.81860800e-03 9.81025700e-02
        1 -1    0    0  502    0 +0.0000000000e+00 +0.0000000000e+00 +1.0502612607e+02 1.0502612607e+02 0.0000000000e+00 0.0000e+00 1.0000e+00
       13 -1    0    0    0    0 -0.0000000000e+00 -0.0000000000e+00 -1.0000000000e+03 1.0000000000e+03 0.0000000000e+00 0.0000e+00 1.0000e+00
  9000005  2    1    2  501    0 -2.4573051911e-04 -9.3701109165e-06 -8.9497538967e+02 1.1050245905e+03 6.4814998073e+02 0.0000e+00 0.0000e+00
       13  1    3    3    0    0 -2.8197490536e+02 +1.0002567470e+02 -2.3516441251e+02 3.8054866149e+02 0.0000000000e+00 0.0000e+00 1.0000e+00
        1  1    3    3  501    0 +2.8197465963e+02 -1.0002568407e+02 -6.5981097716e+02 7.2447592902e+02 0.0000000000e+00 0.0000e+00 1.0000e+00
       21  1    1    2  502  501 +2.4573051913e-04 +9.3701109119e-06 +1.5157440805e-03 1.5355622438e-03 0.0000000000e+00 0.0000e+00 -1.0000e+00
<mgrwt>
<rscale>  1 0.64814998E+03</rscale>
<asrwt>0</asrwt>
<pdfrwt beam="1">  1        1 0.38191399E+00 0.64814998E+03</pdfrwt>
<pdfrwt beam="2">0</pdfrwt>
<totfact> 0.16099036E+00</totfact>
</mgrwt>
</event>
<event>
 6      1 +5.6466785e-02 4.82538100e+02 7.81860800e-03 1.01844000e-01
        1 -1    0    0  502    0 +0.0000000000e+00 +0.0000000000e+00 +5.8210831813e+01 5.8210831813e+01 0.0000000000e+00 0.0000e+00 1.0000e+00
       13 -1    0    0    0    0 -0.0000000000e+00 -0.0000000000e+00 -1.0000000000e+03 1.0000000000e+03 0.0000000000e+00 0.0000e+00 1.0000e+00
  9000005  2    1    2  501    0 +2.2001223243e-05 -2.9348756811e-05 -9.4178923824e+02 1.0582107527e+03 4.8253811036e+02 0.0000e+00 0.0000e+00
       13  1    3    3    0    0 -1.1803629048e+02 -2.1010369416e+02 -4.4544887947e+02 5.0645911226e+02 0.0000000000e+00 0.0000e+00 1.0000e+00
        1  1    3    3  501    0 +1.1803631248e+02 +2.1010366481e+02 -4.9634035877e+02 5.5175164048e+02 0.0000000000e+00 0.0000e+00 1.0000e+00
       21  1    1    2  502  501 -2.2001223234e-05 +2.9348756829e-05 +7.0052105825e-05 7.9074021535e-05 0.0000000000e+00 0.0000e+00 1.0000e+00
<mgrwt>
<rscale>  1 0.48253811E+03</rscale>
<asrwt>0</asrwt>
<pdfrwt beam="1">  1        1 0.21167620E+00 0.48253811E+03</pdfrwt>
<pdfrwt beam="2">0</pdfrwt>
<totfact> 0.91336132E+00</totfact>
</mgrwt>
</event>
<event>
 6      1 +5.6466785e-02 6.40586200e+02 7.81860800e-03 9.82460600e-02
        3 -1    0    0  502    0 +0.0000000000e+00 +0.0000000000e+00 +1.1712478143e+02 1.1712478143e+02 0.0000000000e+00 0.0000e+00 1.0000e+00
       13 -1    0    0    0    0 -0.0000000000e+00 -0.0000000000e+00 -1.0000000000e+03 1.0000000000e+03 0.0000000000e+00 0.0000e+00 1.0000e+00
  9000005  2    1    2  501    0 -3.1319312652e+00 +8.4068468629e-01 -8.9721268740e+02 1.1024251639e+03 6.4057795757e+02 0.0000e+00 0.0000e+00
       13  1    3    3    0    0 -2.2511272814e+02 +1.1806585170e+02 -7.8922569750e+02 8.2915166725e+02 0.0000000000e+00 0.0000e+00 1.0000e+00
        3  1    3    3  501    0 +2.2198079687e+02 -1.1722516701e+02 -1.0798698990e+02 2.7327349661e+02 0.0000000000e+00 0.0000e+00 1.0000e+00
       21  1    1    2  502  501 +3.1319312652e+00 -8.4068468629e-01 +1.4337468837e+01 1.4699617575e+01 0.0000000000e+00 0.0000e+00 -1.0000e+00
<mgrwt>
<rscale>  1 0.64058617E+03</rscale>
<asrwt>0</asrwt>
<pdfrwt beam="1">  1        3 0.42590919E+00 0.64058617E+03</pdfrwt>
<pdfrwt beam="2">0</pdfrwt>
<totfact> 0.43508366E-02</totfact>
</mgrwt>
</event>
<event>
 6      1 +5.6466785e-02 6.54505600e+02 7.81860800e-03 9.79836100e-02
        1 -1    0    0  502    0 +0.0000000000e+00 +0.0000000000e+00 +1.0748245846e+02 1.0748245846e+02 0.0000000000e+00 0.0000e+00 1.0000e+00
       13 -1    0    0    0    0 -0.0000000000e+00 -0.0000000000e+00 -1.0000000000e+03 1.0000000000e+03 0.0000000000e+00 0.0000e+00 1.0000e+00
  9000005  2    1    2  501    0 +3.9582320896e-01 -3.6965950419e-01 -8.9268417036e+02 1.1069158110e+03 6.5450537915e+02 0.0000e+00 0.0000e+00
       13  1    3    3    0    0 +2.6248884820e+02 -4.4041264910e+01 -7.6914392545e+02 8.1389336310e+02 0.0000000000e+00 0.0000e+00 1.0000e+00
        3  1    3    3  501    0 -2.6209302499e+02 +4.3671605405e+01 -1.2354024491e+02 2.9302244791e+02 0.0000000000e+00 0.0000e+00 1.0000e+00
       21  1    1    2  502  501 -3.9582320896e-01 +3.6965950419e-01 +1.6662881591e-01 5.6664744249e-01 0.0000000000e+00 0.0000e+00 1.0000e+00
<mgrwt>
<rscale>  1 0.65450560E+03</rscale>
<asrwt>0</asrwt>
<pdfrwt beam="1">  1        1 0.39084613E+00 0.65450560E+03</pdfrwt>
<pdfrwt beam="2">0</pdfrwt>
<totfact> 0.14680888E+00</totfact>
</mgrwt>
</event>
<event>
 6      1 +5.6466785e-02 6.51501400e+02 7.81860800e-03 9.80396600e-02
        1 -1    0    0  502    0 +0.0000000000e+00 +0.0000000000e+00 +1.0612099090e+02 1.0612099090e+02 0.0000000000e+00 0.0000e+00 1.0000e+00
       13 -1    0    0    0    0 -0.0000000000e+00 -0.0000000000e+00 -1.0000000000e+03 1.0000000000e+03 0.0000000000e+00 0.0000e+00 1.0000e+00
  9000005  2    1    2  501    0 -6.5476937436e-05 +1.3040224537e-04 -8.9388647626e+02 1.1061135223e+03 6.5150141350e+02 0.0000e+00 0.0000e+00
       13  1    3    3    0    0 +1.0951393979e+02 -4.5345810792e+00 +7.3865612997e+01 1.3217410570e+02 0.0000000000e+00 0.0000e+00 1.0000e+00
        1  1    3    3  501    0 -1.0951400527e+02 +4.5347114815e+00 -9.6775208926e+02 9.7393941661e+02 0.0000000000e+00 0.0000e+00 1.0000e+00
       21  1    1    2  502  501 +6.5476937436e-05 -1.3040224537e-04 +7.4671651118e-03 7.4685906825e-03 0.0000000000e+00 0.0000e+00 1.0000e+00
<mgrwt>
<rscale>  1 0.65150141E+03</rscale>
<asrwt>0</asrwt>
<pdfrwt beam="1">  1        1 0.38589533E+00 0.65150141E+03</pdfrwt>
<pdfrwt beam="2">0</pdfrwt>
<totfact> 0.15450077E+00</totfact>
</mgrwt>
</event>
<event>
 6      1 +5.6466785e-02 6.39814300e+02 7.81860800e-03 9.82608200e-02
        1 -1    0    0  502    0 +0.0000000000e+00 +0.0000000000e+00 +1.0237944975e+02 1.0237944975e+02 0.0000000000e+00 0.0000e+00 1.0000e+00
       13 -1    0    0    0    0 -0.0000000000e+00 -0.0000000000e+00 -1.0000000000e+03 1.0000000000e+03 0.0000000000e+00 0.0000e+00 1.0000e+00
  9000005  2    1    2  501    0 +7.2797419067e-03 -3.3470877752e-02 -8.9765094019e+02 1.1023336585e+03 6.3981425662e+02 0.0000e+00 0.0000e+00
       13  1    3    3    0    0 +5.2328376948e+01 -2.7752286870e+02 -1.8987844837e+02 3.4031019209e+02 0.0000000000e+00 0.0000e+00 1.0000e+00
        1  1    3    3  501    0 -5.2321097206e+01 +2.7748939782e+02 -7.0777249182e+02 7.6202346637e+02 0.0000000000e+00 0.0000e+00 1.0000e+00
       21  1    1    2  502  501 -7.2797419067e-03 +3.3470877752e-02 +3.0389942522e-02 4.5791297276e-02 0.0000000000e+00 0.0000e+00 -1.0000e+00
<mgrwt>
<rscale>  1 0.63981426E+03</rscale>
<asrwt>0</asrwt>
<pdfrwt beam="1">  1        1 0.37228969E+00 0.63981426E+03</pdfrwt>
<pdfrwt beam="2">0</pdfrwt>
<totfact> 0.17777476E+00</totfact>
</mgrwt>
</event>
<event>
 6      1 +5.6466785e-02 6.55486300e+02 7.81860800e-03 9.79653900e-02
        1 -1    0    0  502    0 +0.0000000000e+00 +0.0000000000e+00 +1.0839306122e+02 1.0839306122e+02 0.0000000000e+00 0.0000e+00 1.0000e+00
       13 -1    0    0    0    0 -0.0000000000e+00 -0.0000000000e+00 -1.0000000000e+03 1.0000000000e+03 0.0000000000e+00 0.0000e+00 1.0000e+00
  9000005  2    1    2  501    0 -2.6700151206e-01 -1.3660830502e-02 -8.9256415710e+02 1.1073992084e+03 6.5548620187e+02 0.0000e+00 0.0000e+00
       13  1    3    3    0    0 +1.4902857826e+02 +3.7295847492e+01 +4.2788510829e+01 1.5947211053e+02 0.0000000000e+00 0.0000e+00 1.0000e+00
        1  1    3    3  501    0 -1.4929557977e+02 -3.7309508322e+01 -9.3535266793e+02 9.4792709791e+02 0.0000000000e+00 0.0000e+00 1.0000e+00
       21  1    1    2  502  501 +2.6700151206e-01 +1.3660830502e-02 +9.5721832155e-01 9.9385277624e-01 0.0000000000e+00 0.0000e+00 1.0000e+00
<mgrwt>
<rscale>  1 0.65548626E+03</rscale>
<asrwt>0</asrwt>
<pdfrwt beam="1">  1        1 0.39415742E+00 0.65548626E+03</pdfrwt>
<pdfrwt beam="2">0</pdfrwt>
<totfact> 0.14189575E+00</totfact>
</mgrwt>
</event>
<event>
 6      1 +5.6466785e-02 6.46832700e+02 7.81860800e-03 9.81274100e-02
        1 -1    0    0  502    0 +0.0000000000e+00 +0.0000000000e+00 +1.0460078858e+02 1.0460078858e+02 0.0000000000e+00 0.0000e+00 1.0000e+00
       13 -1    0    0    0    0 -0.0000000000e+00 -0.0000000000e+00 -1.0000000000e+03 1.0000000000e+03 0.0000000000e+00 0.0000e+00 1.0000e+00
  9000005  2    1    2  501    0 -2.7481149977e-03 +2.0370702502e-03 -8.9540058713e+02 1.1045971015e+03 6.4683270268e+02 0.0000e+00 0.0000e+00
       13  1    3    3    0    0 -1.4374850322e+02 -2.7597906019e+02 -2.9717116536e+02 4.3027755619e+02 0.0000000000e+00 0.0000e+00 1.0000e+00
        3  1    3    3  501    0 +1.4374575510e+02 +2.7598109726e+02 -5.9822942177e+02 6.7431954534e+02 0.0000000000e+00 0.0000e+00 1.0000e+00
       21  1    1    2  502  501 +2.7481149977e-03 -2.0370702502e-03 +1.3757141345e-03 3.6870558206e-03 0.0000000000e+00 0.0000e+00 1.0000e+00
<mgrwt>
<rscale>  1 0.64683270E+03</rscale>
<asrwt>0</asrwt>
<pdfrwt beam="1">  1        1 0.38036731E+00 0.64683270E+03</pdfrwt>
<pdfrwt beam="2">0</pdfrwt>
<totfact> 0.16358117E+00</totfact>
</mgrwt>
</event>
<event>
 6      1 +5.6466785e-02 6.49895700e+02 7.81860800e-03 9.80697500e-02
        1 -1    0    0  502    0 +0.0000000000e+00 +0.0000000000e+00 +1.0559466924e+02 1.0559466924e+02 0.0000000000e+00 0.0000e+00 1.0000e+00
       13 -1    0    0    0    0 -0.0000000000e+00 -0.0000000000e+00 -1.0000000000e+03 1.0000000000e+03 0.0000000000e+00 0.0000e+00 1.0000e+00
  9000005  2    1    2  501    0 -2.8959435667e-06 -4.6371040071e-04 -8.9440887206e+02 1.1055910977e+03 6.4989571848e+02 0.0000e+00 0.0000e+00
       13  1    3    3    0    0 +1.7611365876e+02 +2.2213605623e+02 -7.1742223052e+02 7.7139814955e+02 0.0000000000e+00 0.0000e+00 1.0000e+00
        3  1    3    3  501    0 -1.7611366166e+02 -2.2213651994e+02 -1.7698664154e+02 3.3419294815e+02 0.0000000000e+00 0.0000e+00 1.0000e+00
       21  1    1    2  502  501 +2.8959435622e-06 +4.6371040071e-04 +3.5413020571e-03 3.5715341216e-03 0.0000000000e+00 0.0000e+00 1.0000e+00
<mgrwt>
<rscale>  1 0.64989572E+03</rscale>
<asrwt>0</asrwt>
<pdfrwt beam="1">  1        1 0.38398143E+00 0.64989572E+03</pdfrwt>
<pdfrwt beam="2">0</pdfrwt>
<totfact> 0.15758861E+00</totfact>
</mgrwt>
</event>
<event>
 6      1 +5.6466785e-02 6.99486400e+02 7.81860800e-03 9.71811100e-02
        1 -1    0    0  502    0 +0.0000000000e+00 +0.0000000000e+00 +1.2232894680e+02 1.2232894680e+02 0.0000000000e+00 0.0000e+00 1.0000e+00
       13 -1    0    0    0    0 -0.0000000000e+00 -0.0000000000e+00 -1.0000000000e+03 1.0000000000e+03 0.0000000000e+00 0.0000e+00 1.0000e+00
  9000005  2    1    2  501    0 -5.3075812480e-03 +2.2614253611e-02 -8.7765341184e+02 1.1222997785e+03 6.9948644080e+02 0.0000e+00 0.0000e+00
       13  1    3    3    0    0 -1.2588680923e+02 -1.2296152024e+02 -9.2376141677e+02 9.4037342546e+02 0.0000000000e+00 0.0000e+00 1.0000e+00
        3  1    3    3  501    0 +1.2588150165e+02 +1.2298413450e+02 +4.6108004926e+01 1.8192635300e+02 0.0000000000e+00 0.0000e+00 1.0000e+00
       21  1    1    2  502  501 +5.3075812480e-03 -2.2614253611e-02 -1.7641360053e-02 2.9168347050e-02 0.0000000000e+00 0.0000e+00 -1.0000e+00
<mgrwt>
<rscale>  1 0.69948644E+03</rscale>
<asrwt>0</asrwt>
<pdfrwt beam="1">  1        1 0.44483347E+00 0.69948644E+03</pdfrwt>
<pdfrwt beam="2">0</pdfrwt>
<totfact> 0.83085103E-01</totfact>
</mgrwt>
</event>
<event>
 6      1 +5.6466785e-02 6.08607700e+02 7.81860800e-03 9.88770700e-02
        1 -1    0    0  502    0 +0.0000000000e+00 +0.0000000000e+00 +9.4637573024e+01 9.4637573024e+01 0.0000000000e+00 0.0000e+00 1.0000e+00
       13 -1    0    0    0    0 -0.0000000000e+00 -0.0000000000e+00 -1.0000000000e+03 1.0000000000e+03 0.0000000000e+00 0.0000e+00 1.0000e+00
  9000005  2    1    2  501    0 -7.9424613303e-02 +4.9817814707e-02 -9.0739797762e+02 1.0925998644e+03 6.0860772675e+02 0.0000e+00 0.0000e+00
       13  1    3    3    0    0 +1.8584155546e+02 +9.8377075043e+01 -8.4853012084e+02 8.7419591546e+02 0.0000000000e+00 0.0000e+00 1.0000e+00
        3  1    3    3  501    0 -1.8592098007e+02 -9.8327257228e+01 -5.8867856783e+01 2.1840394893e+02 0.0000000000e+00 0.0000e+00 1.0000e+00
       21  1    1    2  502  501 +7.9424613303e-02 -4.9817814707e-02 +2.0355506445e+00 2.0377086422e+00 0.0000000000e+00 0.0000e+00 -1.0000e+00
<mgrwt>
<rscale>  1 0.60860773E+03</rscale>
<asrwt>0</asrwt>
<pdfrwt beam="1">  1        1 0.34413735E+00 0.60860773E+03</pdfrwt>
<pdfrwt beam="2">0</pdfrwt>
<totfact> 0.23733723E+00</totfact>
</mgrwt>
</event>
<event>
 6      1 +5.6466785e-02 6.45285500e+02 7.81860800e-03 9.81566600e-02
        1 -1    0    0  502    0 +0.0000000000e+00 +0.0000000000e+00 +1.0447113230e+02 1.0447113230e+02 0.0000000000e+00 0.0000e+00 1.0000e+00
       13 -1    0    0    0    0 -0.0000000000e+00 -0.0000000000e+00 -1.0000000000e+03 1.0000000000e+03 0.0000000000e+00 0.0000e+00 1.0000e+00
  9000005  2    1    2  501    0 -6.3138330756e-03 -2.2636723165e-03 -8.9590162430e+02 1.1040983154e+03 6.4528549458e+02 0.0000e+00 0.0000e+00
       13  1    3    3    0    0 -2.7363067300e+02 +1.0517176759e+02 -2.1734654293e+02 3.6493063125e+02 0.0000000000e+00 0.0000e+00 1.0000e+00
        3  1    3    3  501    0 +2.7362435917e+02 -1.0517403126e+02 -6.7855508137e+02 7.3916768411e+02 0.0000000000e+00 0.0000e+00 1.0000e+00
       21  1    1    2  502  501 +6.3138330756e-03 +2.2636723165e-03 +3.7275660043e-01 3.7281694149e-01 0.0000000000e+00 0.0000e+00 -1.0000e+00
<mgrwt>
<rscale>  1 0.64528549E+03</rscale>
<asrwt>0</asrwt>
<pdfrwt beam="1">  1        1 0.37989583E+00 0.64528549E+03</pdfrwt>
<pdfrwt beam="2">0</pdfrwt>
<totfact> 0.16441342E+00</totfact>
</mgrwt>
</event>
<event>
 6      1 +5.6466785e-02 6.75352500e+02 7.81860800e-03 9.76033700e-02
        1 -1    0    0  502    0 +0.0000000000e+00 +0.0000000000e+00 +1.1408882707e+02 1.1408882707e+02 0.0000000000e+00 0.0000e+00 1.0000e+00
       13 -1    0    0    0    0 -0.0000000000e+00 -0.0000000000e+00 -1.0000000000e+03 1.0000000000e+03 0.0000000000e+00 0.0000e+00 1.0000e+00
  9000005  2    1    2  501    0 -6.0634759996e-04 -7.1640350347e-04 -8.8597475757e+02 1.1140252355e+03 6.7535246672e+02 0.0000e+00 0.0000e+00
       13  1    3    3    0    0 -3.0610002488e+02 +2.9512250592e+01 -2.1289397895e+02 3.7402144917e+02 0.0000000000e+00 0.0000e+00 1.0000e+00
        1  1    3    3  501    0 +3.0609941853e+02 -2.9512966995e+01 -6.7308077862e+02 7.4000378634e+02 0.0000000000e+00 0.0000e+00 1.0000e+00
       21  1    1    2  502  501 +6.0634759997e-04 +7.1640350347e-04 +6.3584638316e-02 6.3591564859e-02 0.0000000000e+00 0.0000e+00 -1.0000e+00
<mgrwt>
<rscale>  1 0.67535247E+03</rscale>
<asrwt>0</asrwt>
<pdfrwt beam="1">  1        1 0.41486934E+00 0.67535247E+03</pdfrwt>
<pdfrwt beam="2">0</pdfrwt>
<totfact> 0.11421910E+00</totfact>
</mgrwt>
</event>
<event>
 6      1 +5.6466785e-02 6.40309500e+02 7.81860800e-03 9.82513500e-02
        1 -1    0    0  502    0 +0.0000000000e+00 +0.0000000000e+00 +1.0258295095e+02 1.0258295095e+02 0.0000000000e+00 0.0000e+00 1.0000e+00
       13 -1    0    0    0    0 -0.0000000000e+00 -0.0000000000e+00 -1.0000000000e+03 1.0000000000e+03 0.0000000000e+00 0.0000e+00 1.0000e+00
  9000005  2    1    2  501    0 +1.8984404103e-01 +1.7922457302e-01 -8.9701264032e+02 1.1021015897e+03 6.4030943225e+02 0.0000e+00 0.0000e+00
       13  1    3    3    0    0 +1.6100363766e+02 -3.5390492503e+01 -9.2102382769e+02 9.3565995398e+02 0.0000000000e+00 0.0000e+00 1.0000e+00
        1  1    3    3  501    0 -1.6081379362e+02 +3.5569717076e+01 +2.4011187378e+01 1.6644163575e+02 0.0000000000e+00 0.0000e+00 1.0000e+00
       21  1    1    2  502  501 -1.8984404103e-01 -1.7922457302e-01 -4.0440873278e-01 4.8136122677e-01 0.0000000000e+00 0.0000e+00 1.0000e+00
<mgrwt>
<rscale>  1 0.64030949E+03</rscale>
<asrwt>0</asrwt>
<pdfrwt beam="1">  1        1 0.37302970E+00 0.64030949E+03</pdfrwt>
<pdfrwt beam="2">0</pdfrwt>
<totfact> 0.17643184E+00</totfact>
</mgrwt>
</event>
<event>
 6      1 +5.6466785e-02 6.38982200e+02 7.81860800e-03 9.82767600e-02
        1 -1    0    0  502    0 +0.0000000000e+00 +0.0000000000e+00 +1.1621942947e+02 1.1621942947e+02 0.0000000000e+00 0.0000e+00 1.0000e+00
       13 -1    0    0    0    0 -0.0000000000e+00 -0.0000000000e+00 -1.0000000000e+03 1.0000000000e+03 0.0000000000e+00 0.0000e+00 1.0000e+00
  9000005  2    1    2  501    0 +1.0161236164e+01 +2.7887000208e+01 -8.7812855272e+02 1.0860055120e+03 6.3829247338e+02 0.0000e+00 0.0000e+00
       13  1    3    3    0    0 -3.0957867424e+02 -3.9208034679e+01 -4.1453867955e+02 5.1886273943e+02 0.0000000000e+00 0.0000e+00 1.0000e+00
        1  1    3    3  501    0 +3.1973991041e+02 +6.7095034886e+01 -4.6358987317e+02 5.6714277261e+02 0.0000000000e+00 0.0000e+00 1.0000e+00
       21  1    1    2  502  501 -1.0161236164e+01 -2.7887000208e+01 -5.6520178114e+00 3.0213917427e+01 0.0000000000e+00 0.0000e+00 1.0000e+00
<mgrwt>
<rscale>  1 0.63898217E+03</rscale>
<asrwt>0</asrwt>
<pdfrwt beam="1">  1        1 0.42261700E+00 0.63898217E+03</pdfrwt>
<pdfrwt beam="2">0</pdfrwt>
<totfact> 0.10614546E+00</totfact>
</mgrwt>
</event>
<event>
 6      1 +5.6466785e-02 6.44196500e+02 7.81860800e-03 9.81773000e-02
        1 -1    0    0  502    0 +0.0000000000e+00 +0.0000000000e+00 +1.0383390617e+02 1.0383390617e+02 0.0000000000e+00 0.0000e+00 1.0000e+00
       13 -1    0    0    0    0 -0.0000000000e+00 -0.0000000000e+00 -1.0000000000e+03 1.0000000000e+03 0.0000000000e+00 0.0000e+00 1.0000e+00
  9000005  2    1    2  501    0 +1.6823174349e-03 -2.3312942179e-04 -8.9625270043e+02 1.1037472829e+03 6.4419652398e+02 0.0000e+00 0.0000e+00
       13  1    3    3    0    0 -6.4562824550e+01 +1.6363678490e+02 -9.1042432962e+02 9.2726361713e+02 0.0000000000e+00 0.0000e+00 1.0000e+00
        1  1    3    3  501    0 +6.4564506867e+01 -1.6363701803e+02 +1.4171629187e+01 1.7648366579e+02 0.0000000000e+00 0.0000e+00 1.0000e+00
       21  1    1    2  502  501 -1.6823174349e-03 +2.3312942180e-04 +8.6606601736e-02 8.6623253261e-02 0.0000000000e+00 0.0000e+00 -1.0000e+00
<mgrwt>
<rscale>  1 0.64419652E+03</rscale>
<asrwt>0</asrwt>
<pdfrwt beam="1">  1        1 0.37757864E+00 0.64419652E+03</pdfrwt>
<pdfrwt beam="2">0</pdfrwt>
<totfact> 0.16836107E+00</totfact>
</mgrwt>
</event>
<event>
 6      1 +5.6466785e-02 6.54355200e+02 7.81860800e-03 9.79864100e-02
        1 -1    0    0  502    0 +0.0000000000e+00 +0.0000000000e+00 +1.0704540699e+02 1.0704540699e+02 0.0000000000e+00 0.0000e+00 1.0000e+00
       13 -1    0    0    0    0 -0.0000000000e+00 -0.0000000000e+00 -1.0000000000e+03 1.0000000000e+03 0.0000000000e+00 0.0000e+00 1.0000e+00
  9000005  2    1    2  501    0 +1.3356685025e-04 -6.7293923010e-05 -8.9295479483e+02 1.1070451558e+03 6.5435518745e+02 0.0000e+00 0.0000e+00
       13  1    3    3    0    0 +2.6039074959e+02 +4.3263090208e+01 -1.1942732636e+02 2.8972042339e+02 0.0000000000e+00 0.0000e+00 1.0000e+00
        3  1    3    3  501    0 -2.6039061603e+02 -4.3263157502e+01 -7.7352746847e+02 8.1732473240e+02 0.0000000000e+00 0.0000e+00 1.0000e+00
       21  1    1    2  502  501 -1.3356685020e-04 +6.7293923008e-05 +2.0182535265e-04 2.5120121122e-04 0.0000000000e+00 0.0000e+00 -1.0000e+00
<mgrwt>
<rscale>  1 0.65435519E+03</rscale>
<asrwt>0</asrwt>
<pdfrwt beam="1">  1        1 0.38925685E+00 0.65435519E+03</pdfrwt>
<pdfrwt beam="2">0</pdfrwt>
<totfact> 0.14921506E+00</totfact>
</mgrwt>
</event>
<event>
 6      1 +5.6466785e-02 6.43838700e+02 7.81860800e-03 9.81841000e-02
        3 -1    0    0  502    0 +0.0000000000e+00 +0.0000000000e+00 +1.0363357472e+02 1.0363357472e+02 0.0000000000e+00 0.0000e+00 1.0000e+00
       13 -1    0    0    0    0 -0.0000000000e+00 -0.0000000000e+00 -1.0000000000e+03 1.0000000000e+03 0.0000000000e+00 0.0000e+00 1.0000e+00
  9000005  2    1    2  501    0 +3.3685463704e-03 +1.3029224917e-03 -8.9636499922e+02 1.1036296916e+03 6.4383870993e+02 0.0000e+00 0.0000e+00
       13  1    3    3    0    0 -3.1566710456e+02 -1.1567776929e+01 -3.4180043535e+02 4.6541064875e+02 0.0000000000e+00 0.0000e+00 1.0000e+00
        1  1    3    3  501    0 +3.1567047310e+02 +1.1569079852e+01 -5.5456456388e+02 6.3821904289e+02 0.0000000000e+00 0.0000e+00 1.0000e+00
       21  1    1    2  502  501 -3.3685463704e-03 -1.3029224917e-03 -1.4260585200e-03 3.8830857023e-03 0.0000000000e+00 0.0000e+00 1.0000e+00
<mgrwt>
<rscale>  1 0.64383871E+03</rscale>
<asrwt>0</asrwt>
<pdfrwt beam="1">  1        3 0.37685016E+00 0.64383871E+03</pdfrwt>
<pdfrwt beam="2">0</pdfrwt>
<totfact> 0.78508376E-02</totfact>
</mgrwt>
</event>
<event>
 6      1 +5.6466785e-02 6.59739900e+02 7.81860800e-03 9.78867300e-02
        1 -1    0    0  502    0 +0.0000000000e+00 +0.0000000000e+00 +1.0883130006e+02 1.0883130006e+02 0.0000000000e+00 0.0000e+00 1.0000e+00
       13 -1    0    0    0    0 -0.0000000000e+00 -0.0000000000e+00 -1.0000000000e+03 1.0000000000e+03 0.0000000000e+00 0.0000e+00 1.0000e+00
  9000005  2    1    2  501    0 -4.6792127745e-04 -3.4372502282e-04 -8.9118582208e+02 1.1088141681e+03 6.5973986530e+02 0.0000e+00 0.0000e+00
       13  1    3    3    0    0 -2.0293428563e+02 -2.4093638656e+02 -2.8107772579e+02 4.2218166065e+02 0.0000000000e+00 0.0000e+00 1.0000e+00
        1  1    3    3  501    0 +2.0293381771e+02 +2.4093604283e+02 -6.1010809629e+02 6.8663250743e+02 0.0000000000e+00 0.0000e+00 1.0000e+00
       21  1    1    2  502  501 +4.6792127743e-04 +3.4372502280e-04 +1.7122138225e-02 1.7131979296e-02 0.0000000000e+00 0.0000e+00 -1.0000e+00
<mgrwt>
<rscale>  1 0.65973987E+03</rscale>
<asrwt>0</asrwt>
<pdfrwt beam="1">  1        1 0.39575102E+00 0.65973987E+03</pdfrwt>
<pdfrwt beam="2">0</pdfrwt>
<totfact> 0.13948865E+00</totfact>
</mgrwt>
</event>
<event>
 6      1 +5.6466785e-02 6.74892900e+02 7.81860800e-03 9.76115900e-02
        1 -1    0    0  502    0 +0.0000000000e+00 +0.0000000000e+00 +1.2895193103e+02 1.2895193103e+02 0.0000000000e+00 0.0000e+00 1.0000e+00
       13 -1    0    0    0    0 -0.0000000000e+00 -0.0000000000e+00 -1.0000000000e+03 1.0000000000e+03 0.0000000000e+00 0.0000e+00 1.0000e+00
  9000005  2    1    2  501    0 -9.0411714876e-02 +2.6166404001e+00 -8.8600321255e+02 1.1137693324e+03 6.7488782637e+02 0.0000e+00 0.0000e+00
       13  1    3    3    0    0 +1.9633436494e+02 -4.5026997393e+01 +3.6305214390e+00 2.0146412593e+02 0.0000000000e+00 0.0000e+00 1.0000e+00
        3  1    3    3  501    0 -1.9642477666e+02 +4.7643637793e+01 -8.8963373399e+02 9.1230520648e+02 0.0000000000e+00 0.0000e+00 1.0000e+00
       21  1    1    2  502  501 +9.0411714876e-02 -2.6166404001e+00 +1.4955143587e+01 1.5182598624e+01 0.0000000000e+00 0.0000e+00 1.0000e+00
<mgrwt>
<rscale>  1 0.67489290E+03</rscale>
<asrwt>0</asrwt>
<pdfrwt beam="1">  1        1 0.46891710E+00 0.67489290E+03</pdfrwt>
<pdfrwt beam="2">0</pdfrwt>
<totfact> 0.64569548E-01</totfact>
</mgrwt>
</event>
<event>
 6      1 +5.6466785e-02 6.50496900e+02 7.81860800e-03 9.80584700e-02
        1 -1    0    0  502    0 +0.0000000000e+00 +0.0000000000e+00 +1.0578795075e+02 1.0578795075e+02 0.0000000000e+00 0.0000e+00 1.0000e+00
       13 -1    0    0    0    0 -0.0000000000e+00 -0.0000000000e+00 -1.0000000000e+03 1.0000000000e+03 0.0000000000e+00 0.0000e+00 1.0000e+00
  9000005  2    1    2  501    0 -3.2043939143e-05 -5.5741637510e-05 -8.9421344620e+02 1.1057865523e+03 6.5049689617e+02 0.0000e+00 0.0000e+00
       13  1    3    3    0    0 +1.8643954999e+02 -9.9017658538e+01 -8.6771815511e+02 8.9302799464e+02 0.0000000000e+00 0.0000e+00 1.0000e+00
        1  1    3    3  501    0 -1.8643958204e+02 +9.9017602796e+01 -2.6495291088e+01 2.1275855767e+02 0.0000000000e+00 0.0000e+00 1.0000e+00
       21  1    1    2  502  501 +3.2043939152e-05 +5.5741637514e-05 +1.3969500708e-03 1.3984289201e-03 0.0000000000e+00 0.0000e+00 -1.0000e+00
<mgrwt>
<rscale>  1 0.65049690E+03</rscale>
<asrwt>0</asrwt>
<pdfrwt beam="1">  1        1 0.38468427E+00 0.65049690E+03</pdfrwt>
<pdfrwt beam="2">0</pdfrwt>
<totfact> 0.15644758E+00</totfact>
</mgrwt>
</event>
<event>
 6      1 +5.6466785e-02 6.64828300e+02 7.81860800e-03 9.77934600e-02
        1 -1    0    0  502    0 +0.0000000000e+00 +0.0000000000e+00 +1.1070888941e+02 1.1070888941e+02 0.0000000000e+00 0.0000e+00 1.0000e+00
       13 -1    0    0    0    0 -0.0000000000e+00 -0.0000000000e+00 -1.0000000000e+03 1.0000000000e+03 0.0000000000e+00 0.0000e+00 1.0000e+00
  9000005  2    1    2  501    0 +6.4086412109e-02 -2.9601111579e-01 -8.8937144966e+02 1.1103955461e+03 6.6482824974e+02 0.0000e+00 0.0000e+00
       13  1    3    3    0    0 -2.5593381790e+02 +5.1604182444e+01 -7.8814060970e+02 8.3025943623e+02 0.0000000000e+00 0.0000e+00 1.0000e+00
        1  1    3    3  501    0 +2.5599790432e+02 -5.1900193559e+01 -1.0123083996e+02 2.8013610989e+02 0.0000000000e+00 0.0000e+00 1.0000e+00
       21  1    1    2  502  501 -6.4086412109e-02 +2.9601111579e-01 +8.0339071488e-02 3.1334328666e-01 0.0000000000e+00 0.0000e+00 -1.0000e+00
<mgrwt>
<rscale>  1 0.66482832E+03</rscale>
<asrwt>0</asrwt>
<pdfrwt beam="1">  1        1 0.40257863E+00 0.66482832E+03</pdfrwt>
<pdfrwt beam="2">0</pdfrwt>
<totfact> 0.12992524E+00</totfact>
</mgrwt>
</event>
<event>
 6      1 +5.6466785e-02 6.40329000e+02 7.81860800e-03 9.82509700e-02
        1 -1    0    0  502    0 +0.0000000000e+00 +0.0000000000e+00 +1.0250532640e+02 1.0250532640e+02 0.0000000000e+00 0.0000e+00 1.0000e+00
       13 -1    0    0    0    0 -0.0000000000e+00 -0.0000000000e+00 -1.0000000000e+03 1.0000000000e+03 0.0000000000e+00 0.0000e+00 1.0000e+00
  9000005  2    1    2  501    0 -1.1558201024e-05 +7.7181208304e-06 -8.9749468160e+02 1.1025053104e+03 6.4032902158e+02 0.0000e+00 0.0000e+00
       13  1    3    3    0    0 -1.1800235788e+02 -2.2187554776e+01 -9.5976633470e+02 9.6724777657e+02 0.0000000000e+00 0.0000e+00 1.0000e+00
        1  1    3    3  501    0 +1.1800234632e+02 +2.2187562494e+01 +6.2271653101e+01 1.3525753379e+02 0.0000000000e+00 0.0000e+00 1.0000e+00
       21  1    1    2  502  501 +1.1558201016e-05 -7.7181208301e-06 +7.9972518491e-06 1.6034881883e-05 0.0000000000e+00 0.0000e+00 1.0000e+00
<mgrwt>
<rscale>  1 0.64032902E+03</rscale>
<asrwt>0</asrwt>
<pdfrwt beam="1">  1        1 0.37274743E+00 0.64032902E+03</pdfrwt>
<pdfrwt beam="2">0</pdfrwt>
<totfact> 0.17693621E+00</totfact>
</mgrwt>
</event>
<event>
 6      1 +5.6466785e-02 6.48360500e+02 7.81860800e-03 9.80986100e-02
        1 -1    0    0  502    0 +0.0000000000e+00 +0.0000000000e+00 +1.0510602361e+02 1.0510602361e+02 0.0000000000e+00 0.0000e+00 1.0000e+00
       13 -1    0    0    0    0 -0.0000000000e+00 -0.0000000000e+00 -1.0000000000e+03 1.0000000000e+03 0.0000000000e+00 0.0000e+00 1.0000e+00
  9000005  2    1    2  501    0 +3.5936830048e-04 +1.5078517775e-04 -8.9490717582e+02 1.1050928184e+03 6.4836045840e+02 0.0000e+00 0.0000e+00
       13  1    3    3    0    0 -1.6871808500e+02 -8.7856097582e+01 -8.9487599343e+02 9.1487022561e+02 0.0000000000e+00 0.0000e+00 1.0000e+00
        3  1    3    3  501    0 +1.6871844437e+02 +8.7856248367e+01 -3.1182391062e-02 1.9022259282e+02 0.0000000000e+00 0.0000e+00 1.0000e+00
       21  1    1    2  502  501 -3.5936830048e-04 -1.5078517776e-04 +1.3199429287e-02 1.3205181379e-02 0.0000000000e+00 0.0000e+00 1.0000e+00
<mgrwt>
<rscale>  1 0.64836046E+03</rscale>
<asrwt>0</asrwt>
<pdfrwt beam="1">  1        1 0.38220453E+00 0.64836046E+03</pdfrwt>
<pdfrwt beam="2">0</pdfrwt>
<totfact> 0.16050916E+00</totfact>
</mgrwt>
</event>
<event>
 6      1 +5.6466785e-02 5.77106800e+02 7.81860800e-03 9.95407400e-02
        1 -1    0    0  502    0 +0.0000000000e+00 +0.0000000000e+00 +1.0918911787e+02 1.0918911787e+02 0.0000000000e+00 0.0000e+00 1.0000e+00
       13 -1    0    0    0    0 -0.0000000000e+00 -0.0000000000e+00 -1.0000000000e+03 1.0000000000e+03 0.0000000000e+00 0.0000e+00 1.0000e+00
  9000005  2    1    2  501    0 +7.1957452277e+00 -8.9030952092e+00 -9.1536234958e+02 1.0821000351e+03 5.7699325039e+02 0.0000e+00 0.0000e+00
       13  1    3    3    0    0 -4.7131568304e+01 +2.2692860325e+02 -7.5990190620e+02 7.9446137902e+02 0.0000000000e+00 0.0000e+00 1.0000e+00
        1  1    3    3  501    0 +5.4327313532e+01 -2.3583169846e+02 -1.5546044338e+02 2.8763865604e+02 0.0000000000e+00 0.0000e+00 1.0000e+00
       21  1    1    2  502  501 -7.1957452277e+00 +8.9030952092e+00 +2.4551467446e+01 2.7089082809e+01 0.0000000000e+00 0.0000e+00 1.0000e+00
<mgrwt>
<rscale>  1 0.57710680E+03</rscale>
<asrwt>0</asrwt>
<pdfrwt beam="1">  1        1 0.39705217E+00 0.57710680E+03</pdfrwt>
<pdfrwt beam="2">0</pdfrwt>
<totfact> 0.13993451E+00</totfact>
</mgrwt>
</event>
<event>
 6      1 +5.6466785e-02 6.39352800e+02 7.81860800e-03 9.82696600e-02
        1 -1    0    0  502    0 +0.0000000000e+00 +0.0000000000e+00 +1.0219302791e+02 1.0219302791e+02 0.0000000000e+00 0.0000e+00 1.0000e+00
       13 -1    0    0    0    0 -0.0000000000e+00 -0.0000000000e+00 -1.0000000000e+03 1.0000000000e+03 0.0000000000e+00 0.0000e+00 1.0000e+00
  9000005  2    1    2  501    0 -3.9139867738e-06 -8.8216792165e-06 -8.9780698547e+02 1.1021930114e+03 6.3935283785e+02 0.0000e+00 0.0000e+00
       13  1    3    3    0    0 -1.5011688345e+02 +2.1681893909e+02 -1.3741508043e+02 2.9736919036e+02 0.0000000000e+00 0.0000e+00 1.0000e+00
        1  1    3    3  501    0 +1.5011687954e+02 -2.1681894791e+02 -7.6039190503e+02 8.0482382106e+02 0.0000000000e+00 0.0000e+00 1.0000e+00
       21  1    1    2  502  501 +3.9139867722e-06 +8.8216792269e-06 +1.3373551394e-05 1.6492216155e-05 0.0000000000e+00 0.0000e+00 1.0000e+00
<mgrwt>
<rscale>  1 0.63935284E+03</rscale>
<asrwt>0</asrwt>
<pdfrwt beam="1">  1        1 0.37161179E+00 0.63935284E+03</pdfrwt>
<pdfrwt beam="2">0</pdfrwt>
<totfact> 0.17901379E+00</totfact>
</mgrwt>
</event>
<event>
 6      1 +5.6466785e-02 6.49219300e+02 7.81860800e-03 9.80824500e-02
        1 -1    0    0  502    0 +0.0000000000e+00 +0.0000000000e+00 +1.0538695345e+02 1.0538695345e+02 0.0000000000e+00 0.0000e+00 1.0000e+00
       13 -1    0    0    0    0 -0.0000000000e+00 -0.0000000000e+00 -1.0000000000e+03 1.0000000000e+03 0.0000000000e+00 0.0000e+00 1.0000e+00
  9000005  2    1    2  501    0 +3.4260775928e-03 -1.8018975227e-02 -8.9462235421e+02 1.1053663852e+03 6.4921929153e+02 0.0000e+00 0.0000e+00
       13  1    3    3    0    0 +2.8098528886e+00 +2.9909668995e+02 -2.3261358584e+02 3.7891398170e+02 0.0000000000e+00 0.0000e+00 1.0000e+00
        1  1    3    3  501    0 -2.8064268110e+00 -2.9911470892e+02 -6.6200876837e+02 7.2645240348e+02 0.0000000000e+00 0.0000e+00 1.0000e+00
       21  1    1    2  502  501 -3.4260775928e-03 +1.8018975227e-02 +9.3076571096e-03 2.0568275494e-02 0.0000000000e+00 0.0000e+00 -1.0000e+00
<mgrwt>
<rscale>  1 0.64921929E+03</rscale>
<asrwt>0</asrwt>
<pdfrwt beam="1">  1        1 0.38322609E+00 0.64921929E+03</pdfrwt>
<pdfrwt beam="2">0</pdfrwt>
<totfact> 0.15882456E+00</totfact>
</mgrwt>
</event>
<event>
 6      1 +5.6466785e-02 6.56301700e+02 7.81860800e-03 9.79502600e-02
        1 -1    0    0  502    0 +0.0000000000e+00 +0.0000000000e+00 +1.0768297407e+02 1.0768297407e+02 0.0000000000e+00 0.0000e+00 1.0000e+00
       13 -1    0    0    0    0 -0.0000000000e+00 -0.0000000000e+00 -1.0000000000e+03 1.0000000000e+03 0.0000000000e+00 0.0000e+00 1.0000e+00
  9000005  2    1    2  501    0 -3.6630496538e-06 -8.2618126953e-06 -8.9231701919e+02 1.1076829628e+03 6.5630167098e+02 0.0000e+00 0.0000e+00
       13  1    3    3    0    0 -1.3325447152e+02 -2.6724960871e+02 -2.1657367731e+02 3.6889465330e+02 0.0000000000e+00 0.0000e+00 1.0000e+00
        3  1    3    3  501    0 +1.3325446785e+02 +2.6724960045e+02 -6.7574334188e+02 7.3878830949e+02 0.0000000000e+00 0.0000e+00 1.0000e+00
       21  1    1    2  502  501 +3.6630496395e-06 +8.2618126828e-06 -6.7430575264e-06 1.1275828407e-05 0.0000000000e+00 0.0000e+00 1.0000e+00
<mgrwt>
<rscale>  1 0.65630167E+03</rscale>
<asrwt>0</asrwt>
<pdfrwt beam="1">  1        1 0.39157528E+00 0.65630167E+03</pdfrwt>
<pdfrwt beam="2">0</pdfrwt>
<totfact> 0.14567057E+00</totfact>
</mgrwt>
</event>
<event>
 6      1 +5.6466785e-02 6.53308900e+02 7.81860800e-03 9.80059000e-02
        1 -1    0    0  502    0 +0.0000000000e+00 +0.0000000000e+00 +1.0670319689e+02 1.0670319689e+02 0.0000000000e+00 0.0000e+00 1.0000e+00
       13 -1    0    0    0    0 -0.0000000000e+00 -0.0000000000e+00 -1.0000000000e+03 1.0000000000e+03 0.0000000000e+00 0.0000e+00 1.0000e+00
  9000005  2    1    2  501    0 +9.5475633088e-07 -3.3377913269e-06 -8.9329686966e+02 1.1067031302e+03 6.5330890178e+02 0.0000e+00 0.0000e+00
       13  1    3    3    0    0 +2.0235065826e+02 +2.3348359285e+02 -6.2626603433e+02 6.9833338942e+02 0.0000000000e+00 0.0000e+00 1.0000e+00
        3  1    3    3  501    0 -2.0235065730e+02 -2.3348359619e+02 -2.6703083534e+02 4.0836974082e+02 0.0000000000e+00 0.0000e+00 1.0000e+00
       21  1    1    2  502  501 -9.5475633733e-07 +3.3377913340e-06 +6.6556882452e-05 6.6647363131e-05 0.0000000000e+00 0.0000e+00 1.0000e+00
<mgrwt>
<rscale>  1 0.65330890E+03</rscale>
<asrwt>0</asrwt>
<pdfrwt beam="1">  1        1 0.38801244E+00 0.65330890E+03</pdfrwt>
<pdfrwt beam="2">0</pdfrwt>
<totfact> 0.15115117E+00</totfact>
</mgrwt>
</event>
<event>
 6      1 +5.6466785e-02 6.47574200e+02 7.81860800e-03 9.81134200e-02
        1 -1    0    0  502    0 +0.0000000000e+00 +0.0000000000e+00 +1.1148495178e+02 1.1148495178e+02 0.0000000000e+00 0.0000e+00 1.0000e+00
       13 -1    0    0    0    0 -0.0000000000e+00 -0.0000000000e+00 -1.0000000000e+03 1.0000000000e+03 0.0000000000e+00 0.0000e+00 1.0000e+00
  9000005  2    1    2  501    0 -2.7060691406e-02 +2.5142770964e-01 -8.9515926582e+02 1.1048359236e+03 6.4757412159e+02 0.0000e+00 0.0000e+00
       13  1    3    3    0    0 +2.0650019208e+02 -1.6919144550e+02 -1.3510472394e+02 2.9920120486e+02 0.0000000000e+00 0.0000e+00 1.0000e+00
        1  1    3    3  501    0 -2.0652725277e+02 +1.6944287321e+02 -7.6005454188e+02 8.0563471875e+02 0.0000000000e+00 0.0000e+00 1.0000e+00
       21  1    1    2  502  501 +2.7060691406e-02 -2.5142770964e-01 +6.6442175973e+00 6.6490281737e+00 0.0000000000e+00 0.0000e+00 1.0000e+00
<mgrwt>
<rscale>  1 0.64757417E+03</rscale>
<asrwt>0</asrwt>
<pdfrwt beam="1">  1        1 0.40540068E+00 0.64757417E+03</pdfrwt>
<pdfrwt beam="2">0</pdfrwt>
<totfact> 0.12662214E+00</totfact>
</mgrwt>
</event>
<event>
 6      1 +5.6466785e-02 6.37395900e+02 7.81860800e-03 9.83072200e-02
        1 -1    0    0  502    0 +0.0000000000e+00 +0.0000000000e+00 +1.0157501981e+02 1.0157501981e+02 0.0000000000e+00 0.0000e+00 1.0000e+00
       13 -1    0    0    0    0 -0.0000000000e+00 -0.0000000000e+00 -1.0000000000e+03 1.0000000000e+03 0.0000000000e+00 0.0000e+00 1.0000e+00
  9000005  2    1    2  501    0 +4.8681097584e-03 +1.1004632511e-03 -8.9843055640e+02 1.1015675362e+03 6.3739593050e+02 0.0000e+00 0.0000e+00
       13  1    3    3    0    0 -1.4523315822e+02 +1.8736462853e+02 -8.1733032970e+02 8.5101530075e+02 0.0000000000e+00 0.0000e+00 1.0000e+00
        3  1    3    3  501    0 +1.4523802633e+02 -1.8736352806e+02 -8.1100226705e+01 2.5055223550e+02 0.0000000000e+00 0.0000e+00 1.0000e+00
       21  1    1    2  502  501 -4.8681097584e-03 -1.1004632511e-03 +5.5762157421e-03 7.4835615845e-03 0.0000000000e+00 0.0000e+00 1.0000e+00
<mgrwt>
<rscale>  1 0.63739593E+03</rscale>
<asrwt>0</asrwt>
<pdfrwt beam="1">  1        1 0.36936449E+00 0.63739593E+03</pdfrwt>
<pdfrwt beam="2">0</pdfrwt>
<totfact> 0.18319488E+00</totfact>
</mgrwt>
</event>
<event>
 6      1 +5.6466785e-02 6.58290200e+02 7.81860800e-03 9.79134600e-02
        1 -1    0    0  502    0 +0.0000000000e+00 +0.0000000000e+00 +1.0845497100e+02 1.0845497100e+02 0.0000000000e+00 0.0000e+00 1.0000e+00
       13 -1    0    0    0    0 -0.0000000000e+00 -0.0000000000e+00 -1.0000000000e+03 1.0000000000e+03 0.0000000000e+00 0.0000e+00 1.0000e+00
  9000005  2    1    2  501    0 +1.6336426000e-05 -3.0859808849e-03 -8.9166348663e+02 1.1083364732e+03 6.5829018251e+02 0.0000e+00 0.0000e+00
       13  1    3    3    0    0 -2.2271433462e+02 -1.0163579713e+02 -7.5407061222e+01 2.5615958890e+02 0.0000000000e+00 0.0000e+00 1.0000e+00
        3  1    3    3  501    0 +2.2271435095e+02 +1.0163271114e+02 -8.1625642541e+02 8.5217688429e+02 0.0000000000e+00 0.0000e+00 1.0000e+00
       21  1    1    2  502  501 -1.6336426008e-05 +3.0859808849e-03 +1.1845762590e-01 1.1849781719e-01 0.0000000000e+00 0.0000e+00 -1.0000e+00
<mgrwt>
<rscale>  1 0.65829018E+03</rscale>
<asrwt>0</asrwt>
<pdfrwt beam="1">  1        1 0.39438254E+00 0.65829018E+03</pdfrwt>
<pdfrwt beam="2">0</pdfrwt>
<totfact> 0.14149519E+00</totfact>
</mgrwt>
</event>
<event>
 6      1 +5.6466785e-02 6.48647800e+02 7.81860800e-03 9.80932000e-02
        1 -1    0    0  502    0 +0.0000000000e+00 +0.0000000000e+00 +1.0520176043e+02 1.0520176043e+02 0.0000000000e+00 0.0000e+00 1.0000e+00
       13 -1    0    0    0    0 -0.0000000000e+00 -0.0000000000e+00 -1.0000000000e+03 1.0000000000e+03 0.0000000000e+00 0.0000e+00 1.0000e+00
  9000005  2    1    2  501    0 +2.0748410841e-03 +1.1115752711e-03 -8.9481391944e+02 1.1051859049e+03 6.4864777335e+02 0.0000e+00 0.0000e+00
       13  1    3    3    0    0 -5.2621371488e+01 -3.0185997654e+02 -2.6630970617e+02 4.0596713386e+02 0.0000000000e+00 0.0000e+00 1.0000e+00
        1  1    3    3  501    0 +5.2623446329e+01 +3.0186108811e+02 -6.2850421328e+02 6.9921877101e+02 0.0000000000e+00 0.0000e+00 1.0000e+00
       21  1    1    2  502  501 -2.0748410841e-03 -1.1115752711e-03 +1.5679876567e-02 1.5855569818e-02 0.0000000000e+00 0.0000e+00 -1.0000e+00
<mgrwt>
<rscale>  1 0.64864777E+03</rscale>
<asrwt>0</asrwt>
<pdfrwt beam="1">  1        1 0.38255266E+00 0.64864777E+03</pdfrwt>
<pdfrwt beam="2">0</pdfrwt>
<totfact> 0.15993333E+00</totfact>
</mgrwt>
</event>
<event>
 6      1 +5.6466785e-02 6.37321300e+02 7.81860800e-03 9.83086500e-02
        1 -1    0    0  502    0 +0.0000000000e+00 +0.0000000000e+00 +1.0154469194e+02 1.0154469194e+02 0.0000000000e+00 0.0000e+00 1.0000e+00
       13 -1    0    0    0    0 -0.0000000000e+00 -0.0000000000e+00 -1.0000000000e+03 1.0000000000e+03 0.0000000000e+00 0.0000e+00 1.0000e+00
  9000005  2    1    2  501    0 -1.3410349217e-04 +2.0486997187e-05 -8.9845530342e+02 1.1015445562e+03 6.3732132951e+02 0.0000e+00 0.0000e+00
       13  1    3    3    0    0 +1.6879036643e+02 +2.5661369337e+02 -3.0252926089e+02 4.3112031861e+02 0.0000000000e+00 0.0000e+00 1.0000e+00
        3  1    3    3  501    0 -1.6879050053e+02 -2.5661367288e+02 -5.9592604253e+02 6.7042423758e+02 0.0000000000e+00 0.0000e+00 1.0000e+00
       21  1    1    2  502  501 +1.3410349219e-04 -2.0486997182e-05 -4.6432914199e-06 1.3573880737e-04 0.0000000000e+00 0.0000e+00 -1.0000e+00
<mgrwt>
<rscale>  1 0.63732133E+03</rscale>
<asrwt>0</asrwt>
<pdfrwt beam="1">  1        1 0.36925420E+00 0.63732133E+03</pdfrwt>
<pdfrwt beam="2">0</pdfrwt>
<totfact> 0.18340173E+00</totfact>
</mgrwt>
</event>
<event>
 6      1 +5.6466785e-02 6.44337600e+02 7.81860800e-03 9.81746300e-02
        1 -1    0    0  502    0 +0.0000000000e+00 +0.0000000000e+00 +1.0379373806e+02 1.0379373806e+02 0.0000000000e+00 0.0000e+00 1.0000e+00
       13 -1    0    0    0    0 -0.0000000000e+00 -0.0000000000e+00 -1.0000000000e+03 1.0000000000e+03 0.0000000000e+00 0.0000e+00 1.0000e+00
  9000005  2    1    2  501    0 -6.3002068288e-05 -3.1682621813e-05 -8.9620727280e+02 1.1037927247e+03 6.4433756942e+02 0.0000e+00 0.0000e+00
       13  1    3    3    0    0 -7.0182177592e+01 -1.7910128683e+01 +8.9663786854e+01 1.1526450206e+02 0.0000000000e+00 0.0000e+00 1.0000e+00
        1  1    3    3  501    0 +7.0182114590e+01 +1.7910097000e+01 -9.8587105966e+02 9.8852822269e+02 0.0000000000e+00 0.0000e+00 1.0000e+00
       21  1    1    2  502  501 +6.3002068284e-05 +3.1682621812e-05 +1.0108659499e-03 1.0133227609e-03 0.0000000000e+00 0.0000e+00 -1.0000e+00
<mgrwt>
<rscale>  1 0.64433757E+03</rscale>
<asrwt>0</asrwt>
<pdfrwt beam="1">  1        1 0.37743257E+00 0.64433757E+03</pdfrwt>
<pdfrwt beam="2">0</pdfrwt>
<totfact> 0.16860644E+00</totfact>
</mgrwt>
</event>
<event>
 6      1 +5.6466785e-02 6.65296800e+02 7.81860800e-03 9.77849200e-02
        1 -1    0    0  502    0 +0.0000000000e+00 +0.0000000000e+00 +1.1071185252e+02 1.1071185252e+02 0.0000000000e+00 0.0000e+00 1.0000e+00
       13 -1    0    0    0    0 -0.0000000000e+00 -0.0000000000e+00 -1.0000000000e+03 1.0000000000e+03 0.0000000000e+00 0.0000e+00 1.0000e+00
  9000005  2    1    2  501    0 -1.1799862952e-01 +4.6980946150e-02 -8.8925073292e+02 1.1105794488e+03 6.6529679847e+02 0.0000e+00 0.0000e+00
       13  1    3    3    0    0 +3.1336095301e+02 +7.2153801573e+01 -5.8640029959e+02 6.6877991097e+02 0.0000000000e+00 0.0000e+00 1.0000e+00
        3  1    3    3  501    0 -3.1347895164e+02 -7.2106820627e+01 -3.0285043333e+02 4.4179953787e+02 0.0000000000e+00 0.0000e+00 1.0000e+00
       21  1    1    2  502  501 +1.1799862952e-01 -4.6980946150e-02 -3.7414555334e-02 1.3240368129e-01 0.0000000000e+00 0.0000e+00 -1.0000e+00
<mgrwt>
<rscale>  1 0.66529681E+03</rscale>
<asrwt>0</asrwt>
<pdfrwt beam="1">  1        1 0.40258940E+00 0.66529681E+03</pdfrwt>
<pdfrwt beam="2">0</pdfrwt>
<totfact> 0.12989944E+00</totfact>
</mgrwt>
</event>
<event>
 6      1 +5.6466785e-02 6.35107300e+02 7.81860800e-03 9.83513300e-02
        1 -1    0    0  502    0 +0.0000000000e+00 +0.0000000000e+00 +1.0084450156e+02 1.0084450156e+02 0.0000000000e+00 0.0000e+00 1.0000e+00
       13 -1    0    0    0    0 -0.0000000000e+00 -0.0000000000e+00 -1.0000000000e+03 1.0000000000e+03 0.0000000000e+00 0.0000e+00 1.0000e+00
  9000005  2    1    2  501    0 +8.6822976311e-04 -2.5450691068e-03 -8.9915920820e+02 1.1008399197e+03 6.3510727212e+02 0.0000e+00 0.0000e+00
       13  1    3    3    0    0 -5.5555012246e+01 -2.5392328713e+02 -1.3338773694e+02 2.9215695011e+02 0.0000000000e+00 0.0000e+00 1.0000e+00
        1  1    3    3  501    0 +5.5555880475e+01 +2.5392074206e+02 -7.6577147126e+02 8.0868296959e+02 0.0000000000e+00 0.0000e+00 1.0000e+00
       21  1    1    2  502  501 -8.6822976312e-04 +2.5450691068e-03 +3.7097627711e-03 4.5818707422e-03 0.0000000000e+00 0.0000e+00 -1.0000e+00
<mgrwt>
<rscale>  1 0.63510727E+03</rscale>
<asrwt>0</asrwt>
<pdfrwt beam="1">  1        1 0.36670805E+00 0.63510727E+03</pdfrwt>
<pdfrwt beam="2">0</pdfrwt>
<totfact> 0.18825679E+00</totfact>
</mgrwt>
</event>
<event>
 6      1 +5.6466785e-02 6.42575700e+02 7.81860800e-03 9.82081100e-02
        1 -1    0    0  502    0 +0.0000000000e+00 +0.0000000000e+00 +1.0322601507e+02 1.0322601507e+02 0.0000000000e+00 0.0000e+00 1.0000e+00
       13 -1    0    0    0    0 -0.0000000000e+00 -0.0000000000e+00 -1.0000000000e+03 1.0000000000e+03 0.0000000000e+00 0.0000e+00 1.0000e+00
  9000005  2    1    2  501    0 +1.0328005075e-05 +4.1406180458e-06 -8.9677410447e+02 1.1032258950e+03 6.4257573950e+02 0.0000e+00 0.0000e+00
       13  1    3    3    0    0 +1.2688726242e+02 +2.6868413514e+02 -6.5820052912e+02 7.2216305526e+02 0.0000000000e+00 0.0000e+00 1.0000e+00
        1  1    3    3  501    0 -1.2688725210e+02 -2.6868413100e+02 -2.3857357534e+02 3.8106283976e+02 0.0000000000e+00 0.0000e+00 1.0000e+00
       21  1    1    2  502  501 -1.0328005071e-05 -4.1406180609e-06 +1.1953711439e-04 1.2005388008e-04 0.0000000000e+00 0.0000e+00 -1.0000e+00
<mgrwt>
<rscale>  1 0.64257574E+03</rscale>
<asrwt>0</asrwt>
<pdfrwt beam="1">  1        1 0.37536812E+00 0.64257574E+03</pdfrwt>
<pdfrwt beam="2">0</pdfrwt>
<totfact> 0.17222949E+00</totfact>
</mgrwt>
</event>
<event>
 6      1 +5.6466785e-02 6.59332600e+02 7.81860800e-03 9.78942300e-02
        1 -1    0    0  502    0 +0.0000000000e+00 +0.0000000000e+00 +1.1051790660e+02 1.1051790660e+02 0.0000000000e+00 0.0000e+00 1.0000e+00
       13 -1    0    0    0    0 -0.0000000000e+00 -0.0000000000e+00 -1.0000000000e+03 1.0000000000e+03 0.0000000000e+00 0.0000e+00 1.0000e+00
  9000005  2    1    2  501    0 +9.1911965333e-02 +1.8891374128e-02 -8.9131879928e+02 1.1086788054e+03 6.5933260408e+02 0.0000e+00 0.0000e+00
       13  1    3    3    0    0 -1.9761672306e+02 +2.5764609342e+02 -3.5002649254e+02 4.7744363454e+02 0.0000000000e+00 0.0000e+00 1.0000e+00
        1  1    3    3  501    0 +1.9770863502e+02 -2.5762720205e+02 -5.4129230675e+02 6.3123517087e+02 0.0000000000e+00 0.0000e+00 1.0000e+00
       21  1    1    2  502  501 -9.1911965333e-02 -1.8891374128e-02 +1.8367058832e+00 1.8391011921e+00 0.0000000000e+00 0.0000e+00 -1.0000e+00
<mgrwt>
<rscale>  1 0.65933261E+03</rscale>
<asrwt>0</asrwt>
<pdfrwt beam="1">  1        1 0.40188414E+00 0.65933261E+03</pdfrwt>
<pdfrwt beam="2">0</pdfrwt>
<totfact> 0.13099148E+00</totfact>
</mgrwt>
</event>
<event>
 6      1 +5.6466785e-02 6.14657600e+02 7.81860800e-03 9.87545400e-02
        1 -1    0    0  502    0 +0.0000000000e+00 +0.0000000000e+00 +9.4468904220e+01 9.4468904220e+01 0.0000000000e+00 0.0000e+00 1.0000e+00
       13 -1    0    0    0    0 -0.0000000000e+00 -0.0000000000e+00 -1.0000000000e+03 1.0000000000e+03 0.0000000000e+00 0.0000e+00 1.0000e+00
  9000005  2    1    2  501    0 -1.1358357273e-02 +1.9964979877e-02 -9.0554062680e+02 1.0944440355e+03 6.1465756282e+02 0.0000e+00 0.0000e+00
       13  1    3    3    0    0 +1.1572659667e+02 +2.5898993184e+02 -6.6335774916e+02 7.2146512967e+02 0.0000000000e+00 0.0000e+00 1.0000e+00
        3  1    3    3  501    0 -1.1573795503e+02 -2.5896996686e+02 -2.4218287765e+02 3.7297890583e+02 0.0000000000e+00 0.0000e+00 1.0000e+00
       21  1    1    2  502  501 +1.1358357273e-02 -1.9964979877e-02 +9.5310232132e-03 2.4868717396e-02 0.0000000000e+00 0.0000e+00 1.0000e+00
<mgrwt>
<rscale>  1 0.61465756E+03</rscale>
<asrwt>0</asrwt>
<pdfrwt beam="1">  1        1 0.34352401E+00 0.61465756E+03</pdfrwt>
<pdfrwt beam="2">0</pdfrwt>
<totfact> 0.23854119E+00</totfact>
</mgrwt>
</event>
<event>
 6      1 +5.6466785e-02 6.39179600e+02 7.81860800e-03 9.82729700e-02
        1 -1    0    0  502    0 +0.0000000000e+00 +0.0000000000e+00 +1.0213820219e+02 1.0213820219e+02 0.0000000000e+00 0.0000e+00 1.0000e+00
       13 -1    0    0    0    0 -0.0000000000e+00 -0.0000000000e+00 -1.0000000000e+03 1.0000000000e+03 0.0000000000e+00 0.0000e+00 1.0000e+00
  9000005  2    1    2  501    0 -4.3808492671e-04 +4.1671037465e-06 -8.9786225261e+02 1.1021375707e+03 6.3917963053e+02 0.0000e+00 0.0000e+00
       13  1    3    3    0    0 +1.0644270342e+02 +3.1070451132e+01 +6.7905295487e+01 1.3002519448e+02 0.0000000000e+00 0.0000e+00 1.0000e+00
        1  1    3    3  501    0 -1.0644314150e+02 -3.1070446965e+01 -9.6576754810e+02 9.7211237622e+02 0.0000000000e+00 0.0000e+00 1.0000e+00
       21  1    1    2  502  501 +4.3808492671e-04 -4.1671037458e-06 +4.5480073026e-04 6.3148988274e-04 0.0000000000e+00 0.0000e+00 -1.0000e+00
<mgrwt>
<rscale>  1 0.63917963E+03</rscale>
<asrwt>0</asrwt>
<pdfrwt beam="1">  1        1 0.37141243E+00 0.63917963E+03</pdfrwt>
<pdfrwt beam="2">0</pdfrwt>
<totfact> 0.17938098E+00</totfact>
</mgrwt>
</event>
<event>
 6      1 +5.6466785e-02 6.47855900e+02 7.81860800e-03 9.81081100e-02
        1 -1    0    0  502    0 +0.0000000000e+00 +0.0000000000e+00 +1.0495430680e+02 1.0495430680e+02 0.0000000000e+00 0.0000e+00 1.0000e+00
       13 -1    0    0    0    0 -0.0000000000e+00 -0.0000000000e+00 -1.0000000000e+03 1.0000000000e+03 0.0000000000e+00 0.0000e+00 1.0000e+00
  9000005  2    1    2  501    0 +3.9391022087e-03 -4.3175919991e-03 -8.9507030357e+02 1.1049290120e+03 6.4785590460e+02 0.0000e+00 0.0000e+00
       13  1    3    3    0    0 -1.9330869134e-01 +1.4906193250e+02 -9.3802676756e+02 9.4979666969e+02 0.0000000000e+00 0.0000e+00 1.0000e+00
        3  1    3    3  501    0 +1.9724779355e-01 -1.4906625010e+02 +4.2956463989e+01 1.5513234229e+02 0.0000000000e+00 0.0000e+00 1.0000e+00
       21  1    1    2  502  501 -3.9391022087e-03 +4.3175919991e-03 +2.4610372733e-02 2.5294832929e-02 0.0000000000e+00 0.0000e+00 1.0000e+00
<mgrwt>
<rscale>  1 0.64785590E+03</rscale>
<asrwt>0</asrwt>
<pdfrwt beam="1">  1        1 0.38165283E+00 0.64785590E+03</pdfrwt>
<pdfrwt beam="2">0</pdfrwt>
<totfact> 0.16142719E+00</totfact>
</mgrwt>
</event>
<event>
 6      1 +5.6466785e-02 6.48475500e+02 7.81860800e-03 9.80964400e-02
        1 -1    0    0  502    0 +0.0000000000e+00 +0.0000000000e+00 +1.0520112918e+02 1.0520112918e+02 0.0000000000e+00 0.0000e+00 1.0000e+00
       13 -1    0    0    0    0 -0.0000000000e+00 -0.0000000000e+00 -1.0000000000e+03 1.0000000000e+03 0.0000000000e+00 0.0000e+00 1.0000e+00
  9000005  2    1    2  501    0 +1.3673498873e-02 -3.7950899534e-02 -8.9486350332e+02 1.1051249413e+03 6.4847547730e+02 0.0000e+00 0.0000e+00
       13  1    3    3    0    0 +1.2911142302e+02 +1.1303890236e+02 -9.1624891324e+02 9.3218003841e+02 0.0000000000e+00 0.0000e+00 1.0000e+00
        3  1    3    3  501    0 -1.2909774952e+02 -1.1307685326e+02 +2.1385409921e+01 1.7294490288e+02 0.0000000000e+00 0.0000e+00 1.0000e+00
       21  1    1    2  502  501 -1.3673498873e-02 +3.7950899534e-02 +6.4632496776e-02 7.6187892650e-02 0.0000000000e+00 0.0000e+00 -1.0000e+00
<mgrwt>
<rscale>  1 0.64847548E+03</rscale>
<asrwt>0</asrwt>
<pdfrwt beam="1">  1        1 0.38255037E+00 0.64847548E+03</pdfrwt>
<pdfrwt beam="2">0</pdfrwt>
<totfact> 0.15994214E+00</totfact>
</mgrwt>
</event>
<event>
 6      1 +5.6466785e-02 6.43074000e+02 7.81860800e-03 9.81986300e-02
        1 -1    0    0  502    0 +0.0000000000e+00 +0.0000000000e+00 +1.0680345854e+02 1.0680345854e+02 0.0000000000e+00 0.0000e+00 1.0000e+00
       13 -1    0    0    0    0 -0.0000000000e+00 -0.0000000000e+00 -1.0000000000e+03 1.0000000000e+03 0.0000000000e+00 0.0000e+00 1.0000e+00
  9000005  2    1    2  501    0 -2.9970641968e-01 +2.6823572163e-01 -8.9660089166e+02 1.1033754307e+03 6.4307388412e+02 0.0000e+00 0.0000e+00
       13  1    3    3    0    0 +1.2309965550e+02 -1.6814253526e+01 +6.0507776316e+01 1.3819347054e+02 0.0000000000e+00 0.0000e+00 1.0000e+00
        3  1    3    3  501    0 -1.2339936192e+02 +1.7082489248e+01 -9.5710866798e+02 9.6518196019e+02 0.0000000000e+00 0.0000e+00 1.0000e+00
       21  1    1    2  502  501 +2.9970641968e-01 -2.6823572163e-01 +3.4043502006e+00 3.4280278046e+00 0.0000000000e+00 0.0000e+00 1.0000e+00
<mgrwt>
<rscale>  1 0.64307401E+03</rscale>
<asrwt>0</asrwt>
<pdfrwt beam="1">  1        1 0.38837703E+00 0.64307401E+03</pdfrwt>
<pdfrwt beam="2">0</pdfrwt>
<totfact> 0.15087768E+00</totfact>
</mgrwt>
</event>
<event>
 6      1 +5.6466785e-02 4.74952000e+02 7.81860800e-03 1.02053200e-01
        1 -1    0    0  502    0 +0.0000000000e+00 +0.0000000000e+00 +5.6427838412e+01 5.6427838412e+01 0.0000000000e+00 0.0000e+00 1.0000e+00
       13 -1    0    0    0    0 -0.0000000000e+00 -0.0000000000e+00 -1.0000000000e+03 1.0000000000e+03 0.0000000000e+00 0.0000e+00 1.0000e+00
  9000005  2    1    2  501    0 +8.4695985712e-02 +6.0584803014e-02 -9.4350061583e+02 1.0563014947e+03 4.7495202376e+02 0.0000e+00 0.0000e+00
       13  1    3    3    0    0 -1.9238571697e+02 -5.6288896034e+01 -7.5469052393e+02 7.8085753554e+02 0.0000000000e+00 0.0000e+00 1.0000e+00
        3  1    3    3  501    0 +1.9247041295e+02 +5.6349480837e+01 -1.8881009190e+02 2.7544395919e+02 0.0000000000e+00 0.0000e+00 1.0000e+00
       21  1    1    2  502  501 -8.4695985712e-02 -6.0584803014e-02 -7.1545759007e-02 1.2634367409e-01 0.0000000000e+00 0.0000e+00 1.0000e+00
<mgrwt>
<rscale>  1 0.47495204E+03</rscale>
<asrwt>0</asrwt>
<pdfrwt beam="1">  1        1 0.20519257E+00 0.47495204E+03</pdfrwt>
<pdfrwt beam="2">0</pdfrwt>
<totfact> 0.97783218E+00</totfact>
</mgrwt>
</event>
<event>
 6      1 +5.6466785e-02 6.60550700e+02 7.81860800e-03 9.78718100e-02
        1 -1    0    0  502    0 +0.0000000000e+00 +0.0000000000e+00 +1.0908302611e+02 1.0908302611e+02 0.0000000000e+00 0.0000e+00 1.0000e+00
       13 -1    0    0    0    0 -0.0000000000e+00 -0.0000000000e+00 -1.0000000000e+03 1.0000000000e+03 0.0000000000e+00 0.0000e+00 1.0000e+00
  9000005  2    1    2  501    0 +3.7404592561e-03 -4.2868047061e-05 -8.9091202308e+02 1.1090768210e+03 6.6055065060e+02 0.0000e+00 0.0000e+00
       13  1    3    3    0    0 -3.1290997244e+02 +4.9876172667e+01 -2.8902228851e+02 4.2887546760e+02 0.0000000000e+00 0.0000e+00 1.0000e+00
        1  1    3    3  501    0 +3.1291371290e+02 -4.9876215535e+01 -6.0188973457e+02 6.8020135341e+02 0.0000000000e+00 0.0000e+00 1.0000e+00
       21  1    1    2  502  501 -3.7404592561e-03 +4.2868047060e-05 -4.9508070808e-03 6.2051078852e-03 0.0000000000e+00 0.0000e+00 -1.0000e+00
<mgrwt>
<rscale>  1 0.66055065E+03</rscale>
<asrwt>0</asrwt>
<pdfrwt beam="1">  1        1 0.39666639E+00 0.66055065E+03</pdfrwt>
<pdfrwt beam="2">0</pdfrwt>
<totfact> 0.13816563E+00</totfact>
</mgrwt>
</event>
<event>
 6      1 +5.6466785e-02 6.46798800e+02 7.81860800e-03 9.81280500e-02
        1 -1    0    0  502    0 +0.0000000000e+00 +0.0000000000e+00 +1.0473302071e+02 1.0473302071e+02 0.0000000000e+00 0.0000e+00 1.0000e+00
       13 -1    0    0    0    0 -0.0000000000e+00 -0.0000000000e+00 -1.0000000000e+03 1.0000000000e+03 0.0000000000e+00 0.0000e+00 1.0000e+00
  9000005  2    1    2  501    0 -8.8804830092e-02 +1.6213489339e-01 -8.9534512895e+02 1.1045323185e+03 6.4679881604e+02 0.0000e+00 0.0000e+00
       13  1    3    3    0    0 -1.7440294803e+02 +1.0073901498e+02 -8.7993906114e+02 9.0269457112e+02 0.0000000000e+00 0.0000e+00 1.0000e+00
        3  1    3    3  501    0 +1.7431414320e+02 -1.0057688008e+02 -1.5406067814e+01 2.0183774734e+02 0.0000000000e+00 0.0000e+00 1.0000e+00
       21  1    1    2  502  501 +8.8804830092e-02 -1.6213489339e-01 +7.8149658639e-02 2.0070224375e-01 0.0000000000e+00 0.0000e+00 1.0000e+00
<mgrwt>
<rscale>  1 0.64679884E+03</rscale>
<asrwt>0</asrwt>
<pdfrwt beam="1">  1        1 0.38084815E+00 0.64679884E+03</pdfrwt>
<pdfrwt beam="2">0</pdfrwt>
<totfact> 0.16278477E+00</totfact>
</mgrwt>
</event>
<event>
 6      1 +5.6466785e-02 6.39440600e+02 7.81860800e-03 9.82679700e-02
        1 -1    0    0  502    0 +0.0000000000e+00 +0.0000000000e+00 +1.0227326952e+02 1.0227326952e+02 0.0000000000e+00 0.0000e+00 1.0000e+00
       13 -1    0    0    0    0 -0.0000000000e+00 -0.0000000000e+00 -1.0000000000e+03 1.0000000000e+03 0.0000000000e+00 0.0000e+00 1.0000e+00
  9000005  2    1    2  501    0 -2.7554641266e-03 -1.6616432788e-04 -8.9777887639e+02 1.1022210506e+03 6.3944064109e+02 0.0000e+00 0.0000e+00
       13  1    3    3    0    0 +1.2470867219e+02 -2.9425574090e+02 -4.6450680916e+02 5.6383088752e+02 0.0000000000e+00 0.0000e+00 1.0000e+00
        3  1    3    3  501    0 -1.2471142766e+02 +2.9425557473e+02 -4.3327206723e+02 5.3839016307e+02 0.0000000000e+00 0.0000e+00 1.0000e+00
       21  1    1    2  502  501 +2.7554641266e-03 +1.6616432785e-04 +5.2145908539e-02 5.2218923491e-02 0.0000000000e+00 0.0000e+00 -1.0000e+00
<mgrwt>
<rscale>  1 0.63944064E+03</rscale>
<asrwt>0</asrwt>
<pdfrwt beam="1">  1        1 0.37190358E+00 0.63944064E+03</pdfrwt>
<pdfrwt beam="2">0</pdfrwt>
<totfact> 0.17848307E+00</totfact>
</mgrwt>
</event>
<event>
 6      1 +5.6466785e-02 6.33466800e+02 7.81860800e-03 9.83830700e-02
        1 -1    0    0  502    0 +0.0000000000e+00 +0.0000000000e+00 +1.0032369881e+02 1.0032369881e+02 0.0000000000e+00 0.0000e+00 1.0000e+00
       13 -1    0    0    0    0 -0.0000000000e+00 -0.0000000000e+00 -1.0000000000e+03 1.0000000000e+03 0.0000000000e+00 0.0000e+00 1.0000e+00
  9000005  2    1    2  501    0 -7.8068370187e-03 -8.0300894056e-03 -8.9966453286e+02 1.1003074531e+03 6.3346682594e+02 0.0000e+00 0.0000e+00
       13  1    3    3    0    0 +8.8055752391e+01 +6.5429325117e+01 -9.6592645023e+02 9.7213616298e+02 0.0000000000e+00 0.0000e+00 1.0000e+00
        1  1    3    3  501    0 -8.8063559228e+01 -6.5437355207e+01 +6.6261917372e+01 1.2817129013e+02 0.0000000000e+00 0.0000e+00 1.0000e+00
       21  1    1    2  502  501 +7.8068370187e-03 +8.0300894056e-03 -1.1768333570e-02 1.6245698357e-02 0.0000000000e+00 0.0000e+00 -1.0000e+00
<mgrwt>
<rscale>  1 0.63346683E+03</rscale>
<asrwt>0</asrwt>
<pdfrwt beam="1">  1        1 0.36481422E+00 0.63346683E+03</pdfrwt>
<pdfrwt beam="2">0</pdfrwt>
<totfact> 0.19194733E+00</totfact>
</mgrwt>
</event>
<event>
 6      1 +5.6466785e-02 5.27067500e+02 7.81860800e-03 1.00694600e-01
        1 -1    0    0  502    0 +0.0000000000e+00 +0.0000000000e+00 +6.9651153179e+01 6.9651153179e+01 0.0000000000e+00 0.0000e+00 1.0000e+00
       13 -1    0    0    0    0 -0.0000000000e+00 -0.0000000000e+00 -1.0000000000e+03 1.0000000000e+03 0.0000000000e+00 0.0000e+00 1.0000e+00
  9000005  2    1    2  501    0 +3.5905834392e-01 +2.2334466503e-02 -9.3036713182e+02 1.0692909365e+03 5.2706733674e+02 0.0000e+00 0.0000e+00
       13  1    3    3    0    0 -3.5936620969e+00 -1.4034511149e+02 -1.2724823222e+01 1.4096661255e+02 0.0000000000e+00 0.0000e+00 1.0000e+00
        1  1    3    3  501    0 +3.9527204408e+00 +1.4036744596e+02 -9.1764230860e+02 9.2832432394e+02 0.0000000000e+00 0.0000e+00 1.0000e+00
       21  1    1    2  502  501 -3.5905834392e-01 -2.2334466503e-02 +1.8285003385e-02 3.6021669046e-01 0.0000000000e+00 0.0000e+00 1.0000e+00
<mgrwt>
<rscale>  1 0.52706746E+03</rscale>
<asrwt>0</asrwt>
<pdfrwt beam="1">  1        1 0.25327745E+00 0.52706746E+03</pdfrwt>
<pdfrwt beam="2">0</pdfrwt>
<totfact> 0.59493840E+00</totfact>
</mgrwt>
</event>
<event>
 6      1 +5.6466785e-02 6.63529000e+02 7.81860800e-03 9.78171900e-02
        1 -1    0    0  502    0 +0.0000000000e+00 +0.0000000000e+00 +1.1015971114e+02 1.1015971114e+02 0.0000000000e+00 0.0000e+00 1.0000e+00
       13 -1    0    0    0    0 -0.0000000000e+00 -0.0000000000e+00 -1.0000000000e+03 1.0000000000e+03 0.0000000000e+00 0.0000e+00 1.0000e+00
  9000005  2    1    2  501    0 -1.1071951245e-01 -9.2787243705e-02 -8.8986439838e+02 1.1100132545e+03 6.6352901726e+02 0.0000e+00 0.0000e+00
       13  1    3    3    0    0 -2.5293299998e+02 -1.9687340913e+02 -5.8873608575e+02 6.7033157494e+02 0.0000000000e+00 0.0000e+00 1.0000e+00
        1  1    3    3  501    0 +2.5282228047e+02 +1.9678062188e+02 -3.0112831264e+02 4.3968167954e+02 0.0000000000e+00 0.0000e+00 1.0000e+00
       21  1    1    2  502  501 +1.1071951245e-01 +9.2787243705e-02 +2.4109519752e-02 1.4645665562e-01 0.0000000000e+00 0.0000e+00 1.0000e+00
<mgrwt>
<rscale>  1 0.66352903E+03</rscale>
<asrwt>0</asrwt>
<pdfrwt beam="1">  1        1 0.40058161E+00 0.66352903E+03</pdfrwt>
<pdfrwt beam="2">0</pdfrwt>
<totfact> 0.13265165E+00</totfact>
</mgrwt>
</event>
<event>
 6      1 +5.6466785e-02 6.47284100e+02 7.81860800e-03 9.81188900e-02
        1 -1    0    0  502    0 +0.0000000000e+00 +0.0000000000e+00 +1.0474420832e+02 1.0474420832e+02 0.0000000000e+00 0.0000e+00 1.0000e+00
       13 -1    0    0    0    0 -0.0000000000e+00 -0.0000000000e+00 -1.0000000000e+03 1.0000000000e+03 0.0000000000e+00 0.0000e+00 1.0000e+00
  9000005  2    1    2  501    0 -3.7141768232e-05 +1.7711598616e-05 -8.9525580919e+02 1.1047441636e+03 6.4728409769e+02 0.0000e+00 0.0000e+00
       13  1    3    3    0    0 +4.1033233585e+01 -2.9485835681e+02 -2.3093946122e+02 3.7677342208e+02 0.0000000000e+00 0.0000e+00 1.0000e+00
        3  1    3    3  501    0 -4.1033270726e+01 +2.9485837452e+02 -6.6431634797e+02 7.2797074152e+02 0.0000000000e+00 0.0000e+00 1.0000e+00
       21  1    1    2  502  501 +3.7141768232e-05 -1.7711598606e-05 +1.7511559531e-05 4.4719865717e-05 0.0000000000e+00 0.0000e+00 1.0000e+00
<mgrwt>
<rscale>  1 0.64728410E+03</rscale>
<asrwt>0</asrwt>
<pdfrwt beam="1">  1        1 0.38088883E+00 0.64728410E+03</pdfrwt>
<pdfrwt beam="2">0</pdfrwt>
<totfact> 0.16270295E+00</totfact>
</mgrwt>
</event>
<event>
 6      1 +5.6466785e-02 5.23702500e+02 7.81860800e-03 1.00777100e-01
        1 -1    0    0  502    0 +0.0000000000e+00 +0.0000000000e+00 +6.8566931276e+01 6.8566931276e+01 0.0000000000e+00 0.0000e+00 1.0000e+00
       13 -1    0    0    0    0 -0.0000000000e+00 -0.0000000000e+00 -1.0000000000e+03 1.0000000000e+03 0.0000000000e+00 0.0000e+00 1.0000e+00
  9000005  2    1    2  501    0 -6.8419221861e-06 +5.9446549244e-05 -9.3143393080e+02 1.0685660671e+03 5.2370246549e+02 0.0000e+00 0.0000e+00
       13  1    3    3    0    0 +2.2256681926e+02 +7.0560363936e+01 -2.2385072369e+02 3.2345618017e+02 0.0000000000e+00 0.0000e+00 1.0000e+00
        1  1    3    3  501    0 -2.2256682610e+02 -7.0560304490e+01 -7.0758320711e+02 7.4510988696e+02 0.0000000000e+00 0.0000e+00 1.0000e+00
       21  1    1    2  502  501 +6.8419221874e-06 -5.9446549246e-05 +8.6207768567e-04 8.6415197752e-04 0.0000000000e+00 0.0000e+00 1.0000e+00
<mgrwt>
<rscale>  1 0.52370247E+03</rscale>
<asrwt>0</asrwt>
<pdfrwt beam="1">  1        1 0.24933482E+00 0.52370247E+03</pdfrwt>
<pdfrwt beam="2">0</pdfrwt>
<totfact> 0.61924920E+00</totfact>
</mgrwt>
</event>
<event>
 6      1 +5.6466785e-02 6.55352300e+02 7.81860800e-03 9.79678800e-02
        1 -1    0    0  502    0 +0.0000000000e+00 +0.0000000000e+00 +1.0737208640e+02 1.0737208640e+02 0.0000000000e+00 0.0000e+00 1.0000e+00
       13 -1    0    0    0    0 -0.0000000000e+00 -0.0000000000e+00 -1.0000000000e+03 1.0000000000e+03 0.0000000000e+00 0.0000e+00 1.0000e+00
  9000005  2    1    2  501    0 +2.9223851953e-05 -9.2399373273e-06 -8.9262834280e+02 1.1073716561e+03 6.5535229179e+02 0.0000e+00 0.0000e+00
       13  1    3    3    0    0 +1.3543057056e+02 +2.2990762624e+02 -7.6768693204e+02 8.1273746172e+02 0.0000000000e+00 0.0000e+00 1.0000e+00
        3  1    3    3  501    0 -1.3543054134e+02 -2.2990763548e+02 -1.2494141076e+02 2.9463419439e+02 0.0000000000e+00 0.0000e+00 1.0000e+00
       21  1    1    2  502  501 -2.9223851963e-05 +9.2399373282e-06 +4.2920251878e-04 4.3029549393e-04 0.0000000000e+00 0.0000e+00 -1.0000e+00
<mgrwt>
<rscale>  1 0.65535229E+03</rscale>
<asrwt>0</asrwt>
<pdfrwt beam="1">  1        1 0.39044477E+00 0.65535229E+03</pdfrwt>
<pdfrwt beam="2">0</pdfrwt>
<totfact> 0.14738883E+00</totfact>
</mgrwt>
</event>
<event>
 6      1 +5.6466785e-02 6.35838100e+02 7.81860800e-03 9.83372200e-02
        1 -1    0    0  502    0 +0.0000000000e+00 +0.0000000000e+00 +1.0281226339e+02 1.0281226339e+02 0.0000000000e+00 0.0000e+00 1.0000e+00
       13 -1    0    0    0    0 -0.0000000000e+00 -0.0000000000e+00 -1.0000000000e+03 1.0000000000e+03 0.0000000000e+00 0.0000e+00 1.0000e+00
  9000005  2    1    2  501    0 -3.4246904982e-02 +2.0849782429e-02 -8.9892720848e+02 1.1010723295e+03 6.3583814531e+02 0.0000e+00 0.0000e+00
       13  1    3    3    0    0 +1.8192401982e+02 -2.3959790086e+02 -2.7150578889e+02 4.0523930767e+02 0.0000000000e+00 0.0000e+00 1.0000e+00
        3  1    3    3  501    0 -1.8195826673e+02 +2.3961875065e+02 -6.2742141959e+02 6.9583302182e+02 0.0000000000e+00 0.0000e+00 1.0000e+00
       21  1    1    2  502  501 +3.4246904982e-02 -2.0849782429e-02 +1.7394718669e+00 1.7399338894e+00 0.0000000000e+00 0.0000e+00 -1.0000e+00
<mgrwt>
<rscale>  1 0.63583815E+03</rscale>
<asrwt>0</asrwt>
<pdfrwt beam="1">  1        1 0.37386356E+00 0.63583815E+03</pdfrwt>
<pdfrwt beam="2">0</pdfrwt>
<totfact> 0.17509171E+00</totfact>
</mgrwt>
</event>
<event>
 6      1 +5.6466785e-02 5.72417000e+02 7.81860800e-03 9.96434400e-02
        1 -1    0    0  502    0 +0.0000000000e+00 +0.0000000000e+00 +8.1924344257e+01 8.1924344257e+01 0.0000000000e+00 0.0000e+00 1.0000e+00
       13 -1    0    0    0    0 -0.0000000000e+00 -0.0000000000e+00 -1.0000000000e+03 1.0000000000e+03 0.0000000000e+00 0.0000e+00 1.0000e+00
  9000005  2    1    2  501    0 +1.5137361139e-02 -2.2970409001e-02 -9.1805441085e+02 1.0818895862e+03 5.7241695871e+02 0.0000e+00 0.0000e+00
       13  1    3    3    0    0 +1.3750829608e+02 -2.4868951195e+02 -3.9445279801e+02 4.8615636857e+02 0.0000000000e+00 0.0000e+00 1.0000e+00
        1  1    3    3  501    0 -1.3749315872e+02 +2.4866654154e+02 -5.2360161284e+02 5.9573321760e+02 0.0000000000e+00 0.0000e+00 1.0000e+00
       21  1    1    2  502  501 -1.5137361139e-02 +2.2970409001e-02 -2.1244892422e-02 3.4758090366e-02 0.0000000000e+00 0.0000e+00 1.0000e+00
<mgrwt>
<rscale>  1 0.57241696E+03</rscale>
<asrwt>0</asrwt>
<pdfrwt beam="1">  1        1 0.29790733E+00 0.57241696E+03</pdfrwt>
<pdfrwt beam="2">0</pdfrwt>
<totfact> 0.37857769E+00</totfact>
</mgrwt>
</event>
<event>
 6      1 +5.6466785e-02 6.50274800e+02 7.81860800e-03 9.80626400e-02
        1 -1    0    0  502    0 +0.0000000000e+00 +0.0000000000e+00 +1.0572287060e+02 1.0572287060e+02 0.0000000000e+00 0.0000e+00 1.0000e+00
       13 -1    0    0    0    0 -0.0000000000e+00 -0.0000000000e+00 -1.0000000000e+03 1.0000000000e+03 0.0000000000e+00 0.0000e+00 1.0000e+00
  9000005  2    1    2  501    0 +1.6926457026e-02 -8.9982616510e-03 -8.9427152155e+02 1.1057028976e+03 6.5027482121e+02 0.0000e+00 0.0000e+00
       13  1    3    3    0    0 +3.0381254929e+02 -3.1365163853e+01 -6.3675039469e+02 7.0621307248e+02 0.0000000000e+00 0.0000e+00 1.0000e+00
        1  1    3    3  501    0 -3.0379562284e+02 +3.1356165591e+01 -2.5752112686e+02 3.9948982509e+02 0.0000000000e+00 0.0000e+00 1.0000e+00
       21  1    1    2  502  501 -1.6926457026e-02 +8.9982616510e-03 -5.6078525422e-03 1.9973023565e-02 0.0000000000e+00 0.0000e+00 1.0000e+00
<mgrwt>
<rscale>  1 0.65027482E+03</rscale>
<asrwt>0</asrwt>
<pdfrwt beam="1">  1        1 0.38444761E+00 0.65027482E+03</pdfrwt>
<pdfrwt beam="2">0</pdfrwt>
<totfact> 0.15683146E+00</totfact>
</mgrwt>
</event>
<event>
 6      1 +5.6466785e-02 6.15489500e+02 7.81860800e-03 9.87378100e-02
        1 -1    0    0  502    0 +0.0000000000e+00 +0.0000000000e+00 +9.4708171392e+01 9.4708171392e+01 0.0000000000e+00 0.0000e+00 1.0000e+00
       13 -1    0    0    0    0 -0.0000000000e+00 -0.0000000000e+00 -1.0000000000e+03 1.0000000000e+03 0.0000000000e+00 0.0000e+00 1.0000e+00
  9000005  2    1    2  501    0 +5.8956934613e-04 -6.2161458464e-04 -9.0529302945e+02 1.0947066963e+03 6.1548946510e+02 0.0000e+00 0.0000e+00
       13  1    3    3    0    0 -8.4578081341e+01 +4.5147518277e+01 -9.7276001379e+02 9.7747316827e+02 0.0000000000e+00 0.0000e+00 1.0000e+00
        1  1    3    3  501    0 +8.4578670911e+01 -4.5148139891e+01 +6.7466984340e+01 1.1723352799e+02 0.0000000000e+00 0.0000e+00 1.0000e+00
       21  1    1    2  502  501 -5.8956934614e-04 +6.2161458464e-04 +1.2008439943e-03 1.4751349105e-03 0.0000000000e+00 0.0000e+00 1.0000e+00
<mgrwt>
<rscale>  1 0.61548947E+03</rscale>
<asrwt>0</asrwt>
<pdfrwt beam="1">  1        1 0.34439408E+00 0.61548947E+03</pdfrwt>
<pdfrwt beam="2">0</pdfrwt>
<totfact> 0.23643707E+00</totfact>
</mgrwt>
</event>
<event>
 6      1 +5.6466785e-02 6.40718400e+02 7.81860800e-03 9.82435300e-02
        1 -1    0    0  502    0 +0.0000000000e+00 +0.0000000000e+00 +1.0265688404e+02 1.0265688404e+02 0.0000000000e+00 0.0000e+00 1.0000e+00
       13 -1    0    0    0    0 -0.0000000000e+00 -0.0000000000e+00 -1.0000000000e+03 1.0000000000e+03 0.0000000000e+00 0.0000e+00 1.0000e+00
  9000005  2    1    2  501    0 +3.0769245788e-03 +1.3863296921e-03 -8.9736985533e+02 1.1026299325e+03 6.4071843337e+02 0.0000e+00 0.0000e+00
       13  1    3    3    0    0 +2.0973184155e+02 -7.3212818999e+01 -8.4592973708e+02 8.7461116063e+02 0.0000000000e+00 0.0000e+00 1.0000e+00
        1  1    3    3  501    0 -2.0972876463e+02 +7.3214205329e+01 -5.1440118251e+01 2.2801877190e+02 0.0000000000e+00 0.0000e+00 1.0000e+00
       21  1    1    2  502  501 -3.0769245788e-03 -1.3863296921e-03 +2.6739369766e-02 2.6951498481e-02 0.0000000000e+00 0.0000e+00 1.0000e+00
<mgrwt>
<rscale>  1 0.64071843E+03</rscale>
<asrwt>0</asrwt>
<pdfrwt beam="1">  1        1 0.37329855E+00 0.64071843E+03</pdfrwt>
<pdfrwt beam="2">0</pdfrwt>
<totfact> 0.17593899E+00</totfact>
</mgrwt>
</event>
<event>
 6      1 +5.6466785e-02 6.45696400e+02 7.81860800e-03 9.81488800e-02
        1 -1    0    0  502    0 +0.0000000000e+00 +0.0000000000e+00 +1.0423095884e+02 1.0423095884e+02 0.0000000000e+00 0.0000e+00 1.0000e+00
       13 -1    0    0    0    0 -0.0000000000e+00 -0.0000000000e+00 -1.0000000000e+03 1.0000000000e+03 0.0000000000e+00 0.0000e+00 1.0000e+00
  9000005  2    1    2  501    0 -2.6652026150e-06 +1.3533859260e-06 -8.9576904590e+02 1.1042309532e+03 6.4569637949e+02 0.0000e+00 0.0000e+00
       13  1    3    3    0    0 -1.2454603547e+02 -2.2895945273e+02 -1.2207349443e+02 2.8781258483e+02 0.0000000000e+00 0.0000e+00 1.0000e+00
        1  1    3    3  501    0 +1.2454603280e+02 +2.2895945408e+02 -7.7369555147e+02 8.1641836840e+02 0.0000000000e+00 0.0000e+00 1.0000e+00
       21  1    1    2  502  501 +2.6652026131e-06 -1.3533859305e-06 +4.7420588577e-06 5.6055401752e-06 0.0000000000e+00 0.0000e+00 -1.0000e+00
<mgrwt>
<rscale>  1 0.64569638E+03</rscale>
<asrwt>0</asrwt>
<pdfrwt beam="1">  1        1 0.37902247E+00 0.64569638E+03</pdfrwt>
<pdfrwt beam="2">0</pdfrwt>
<totfact> 0.16586580E+00</totfact>
</mgrwt>
</event>
<event>
 6      1 +5.6466785e-02 6.53101500e+02 7.81860800e-03 9.80097700e-02
        1 -1    0    0  502    0 +0.0000000000e+00 +0.0000000000e+00 +1.0663626301e+02 1.0663626301e+02 0.0000000000e+00 0.0000e+00 1.0000e+00
       13 -1    0    0    0    0 -0.0000000000e+00 -0.0000000000e+00 -1.0000000000e+03 1.0000000000e+03 0.0000000000e+00 0.0000e+00 1.0000e+00
  9000005  2    1    2  501    0 +1.2685829802e-05 -8.0597380077e-06 -8.9336459826e+02 1.1066354016e+03 6.5310152859e+02 0.0000e+00 0.0000e+00
       13  1    3    3    0    0 +1.9744124048e+02 -2.5487134742e+02 -5.3461264479e+02 6.2430211208e+02 0.0000000000e+00 0.0000e+00 1.0000e+00
        3  1    3    3  501    0 -1.9744122779e+02 +2.5487133936e+02 -3.5875195347e+02 4.8233328952e+02 0.0000000000e+00 0.0000e+00 1.0000e+00
       21  1    1    2  502  501 -1.2685829808e-05 +8.0597380081e-06 +8.6127947465e-04 8.6141060076e-04 0.0000000000e+00 0.0000e+00 1.0000e+00
<mgrwt>
<rscale>  1 0.65310153E+03</rscale>
<asrwt>0</asrwt>
<pdfrwt beam="1">  1        1 0.38776905E+00 0.65310153E+03</pdfrwt>
<pdfrwt beam="2">0</pdfrwt>
<totfact> 0.15153271E+00</totfact>
</mgrwt>
</event>
<event>
 6      1 +5.6466785e-02 6.51266800e+02 7.81860800e-03 9.80440500e-02
        1 -1    0    0  502    0 +0.0000000000e+00 +0.0000000000e+00 +1.0603931936e+02 1.0603931936e+02 0.0000000000e+00 0.0000e+00 1.0000e+00
       13 -1    0    0    0    0 -0.0000000000e+00 -0.0000000000e+00 -1.0000000000e+03 1.0000000000e+03 0.0000000000e+00 0.0000e+00 1.0000e+00
  9000005  2    1    2  501    0 +1.8011786963e-04 -2.4998537063e-04 -8.9396288677e+02 1.1060370918e+03 6.5126676988e+02 0.0000e+00 0.0000e+00
       13  1    3    3    0    0 -2.3324100088e+02 -2.2543163330e+02 -4.9550402583e+02 5.9223730497e+02 0.0000000000e+00 0.0000e+00 1.0000e+00
        3  1    3    3  501    0 +2.3324118100e+02 +2.2543138332e+02 -3.9845886094e+02 5.1379978684e+02 0.0000000000e+00 0.0000e+00 1.0000e+00
       21  1    1    2  502  501 -1.8011786964e-04 +2.4998537064e-04 +2.2061346795e-03 2.2275469370e-03 0.0000000000e+00 0.0000e+00 -1.0000e+00
<mgrwt>
<rscale>  1 0.65126677E+03</rscale>
<asrwt>0</asrwt>
<pdfrwt beam="1">  1        1 0.38559834E+00 0.65126677E+03</pdfrwt>
<pdfrwt beam="2">0</pdfrwt>
<totfact> 0.15497571E+00</totfact>
</mgrwt>
</event>
<event>
 6      1 +5.6466785e-02 6.06472100e+02 7.81860800e-03 9.89206900e-02
        1 -1    0    0  502    0 +0.0000000000e+00 +0.0000000000e+00 +9.1955363488e+01 9.1955363488e+01 0.0000000000e+00 0.0000e+00 1.0000e+00
       13 -1    0    0    0    0 -0.0000000000e+00 -0.0000000000e+00 -1.0000000000e+03 1.0000000000e+03 0.0000000000e+00 0.0000e+00 1.0000e+00
  9000005  2    1    2  501    0 +2.4974077232e-04 +2.3833310519e-04 -9.0804788431e+02 1.0919520974e+03 6.0647211213e+02 0.0000e+00 0.0000e+00
       13  1    3    3    0    0 +3.2530644030e+00 -1.0083027018e+02 -9.6889956881e+02 9.7413741344e+02 0.0000000000e+00 0.0000e+00 1.0000e+00
        3  1    3    3  501    0 -3.2528146622e+00 +1.0083050851e+02 +6.0851684499e+01 1.1781468396e+02 0.0000000000e+00 0.0000e+00 1.0000e+00
       21  1    1    2  502  501 -2.4974077233e-04 -2.3833310519e-04 +3.2478004285e-03 3.2660956425e-03 0.0000000000e+00 0.0000e+00 -1.0000e+00
<mgrwt>
<rscale>  1 0.60647211E+03</rscale>
<asrwt>0</asrwt>
<pdfrwt beam="1">  1        1 0.33438385E+00 0.60647211E+03</pdfrwt>
<pdfrwt beam="2">0</pdfrwt>
<totfact> 0.26174667E+00</totfact>
</mgrwt>
</event>
<event>
 6      1 +5.6466785e-02 6.47171400e+02 7.81860800e-03 9.81210100e-02
        1 -1    0    0  502    0 +0.0000000000e+00 +0.0000000000e+00 +1.0470769583e+02 1.0470769583e+02 0.0000000000e+00 0.0000e+00 1.0000e+00
       13 -1    0    0    0    0 -0.0000000000e+00 -0.0000000000e+00 -1.0000000000e+03 1.0000000000e+03 0.0000000000e+00 0.0000e+00 1.0000e+00
  9000005  2    1    2  501    0 -4.8676464530e-06 -2.9835025543e-06 -8.9529230610e+02 1.1047076898e+03 6.4717135794e+02 0.0000e+00 0.0000e+00
       13  1    3    3    0    0 +3.1452925165e+02 +7.2123486747e+01 -4.8865779545e+02 5.8559105914e+02 0.0000000000e+00 0.0000e+00 1.0000e+00
        3  1    3    3  501    0 -3.1452925652e+02 -7.2123489731e+01 -4.0663451065e+02 5.1911663066e+02 0.0000000000e+00 0.0000e+00 1.0000e+00
       21  1    1    2  502  501 +4.8676464179e-06 +2.9835025501e-06 +1.9308049494e-06 6.0268795300e-06 0.0000000000e+00 0.0000e+00 -1.0000e+00
<mgrwt>
<rscale>  1 0.64717136E+03</rscale>
<asrwt>0</asrwt>
<pdfrwt beam="1">  1        1 0.38075606E+00 0.64717136E+03</pdfrwt>
<pdfrwt beam="2">0</pdfrwt>
<totfact> 0.16292604E+00</totfact>
</mgrwt>
</event>
<event>
 6      1 +5.6466785e-02 6.51502700e+02 7.81860800e-03 9.80396400e-02
        1 -1    0    0  502    0 +0.0000000000e+00 +0.0000000000e+00 +1.0645364413e+02 1.0645364413e+02 0.0000000000e+00 0.0000e+00 1.0000e+00
       13 -1    0    0    0    0 -0.0000000000e+00 -0.0000000000e+00 -1.0000000000e+03 1.0000000000e+03 0.0000000000e+00 0.0000e+00 1.0000e+00
  9000005  2    1    2  501    0 -9.5602305480e-02 -3.8927285634e-01 -8.9375003097e+02 1.1060040257e+03 6.5150259126e+02 0.0000e+00 0.0000e+00
       13  1    3    3    0    0 +2.4394821626e+02 +3.8542453799e+01 -8.0723085804e+02 8.4416699245e+02 0.0000000000e+00 0.0000e+00 1.0000e+00
        3  1    3    3  501    0 -2.4404381856e+02 -3.8931726656e+01 -8.6519172925e+01 2.6183703329e+02 0.0000000000e+00 0.0000e+00 1.0000e+00
       21  1    1    2  502  501 +9.5602305480e-02 +3.8927285634e-01 +2.0367510182e-01 4.4961839887e-01 0.0000000000e+00 0.0000e+00 1.0000e+00
<mgrwt>
<rscale>  1 0.65150271E+03</rscale>
<asrwt>0</asrwt>
<pdfrwt beam="1">  1        1 0.38710498E+00 0.65150271E+03</pdfrwt>
<pdfrwt beam="2">0</pdfrwt>
<totfact> 0.15260751E+00</totfact>
</mgrwt>
</event>
<event>
 6      1 +5.6466785e-02 6.23085600e+02 7.81860800e-03 9.85863500e-02
        1 -1    0    0  502    0 +0.0000000000e+00 +0.0000000000e+00 +9.7068490992e+01 9.7068490992e+01 0.0000000000e+00 0.0000e+00 1.0000e+00
       13 -1    0    0    0    0 -0.0000000000e+00 -0.0000000000e+00 -1.0000000000e+03 1.0000000000e+03 0.0000000000e+00 0.0000e+00 1.0000e+00
  9000005  2    1    2  501    0 -9.0555978615e-03 -5.2009307449e-03 -9.0293788183e+02 1.0970562572e+03 6.2308555821e+02 0.0000e+00 0.0000e+00
       13  1    3    3    0    0 -1.2056251251e+02 -2.0717256857e+02 -8.0186887001e+02 8.3692859748e+02 0.0000000000e+00 0.0000e+00 1.0000e+00
        3  1    3    3  501    0 +1.2055345691e+02 +2.0716736764e+02 -1.0106901182e+02 2.6012765969e+02 0.0000000000e+00 0.0000e+00 1.0000e+00
       21  1    1    2  502  501 +9.0555978615e-03 +5.2009307449e-03 +6.3728206625e-03 1.2233821007e-02 0.0000000000e+00 0.0000e+00 -1.0000e+00
<mgrwt>
<rscale>  1 0.62308556E+03</rscale>
<asrwt>0</asrwt>
<pdfrwt beam="1">  1        1 0.35297708E+00 0.62308556E+03</pdfrwt>
<pdfrwt beam="2">0</pdfrwt>
<totfact> 0.21664246E+00</totfact>
</mgrwt>
</event>
<event>
 6      1 +5.6466785e-02 6.48542200e+02 7.81860800e-03 9.80951800e-02
        1 -1    0    0  502    0 +0.0000000000e+00 +0.0000000000e+00 +1.0515219024e+02 1.0515219024e+02 0.0000000000e+00 0.0000e+00 1.0000e+00
       13 -1    0    0    0    0 -0.0000000000e+00 -0.0000000000e+00 -1.0000000000e+03 1.0000000000e+03 0.0000000000e+00 0.0000e+00 1.0000e+00
  9000005  2    1    2  501    0 +4.5384302769e-04 -6.0032525084e-06 -8.9484810213e+02 1.1051516503e+03 6.4854224563e+02 0.0000e+00 0.0000e+00
       13  1    3    3    0    0 -2.1995466114e+02 +2.1122538237e+02 -6.3529885382e+02 7.0469911932e+02 0.0000000000e+00 0.0000e+00 1.0000e+00
        1  1    3    3  501    0 +2.1995511498e+02 -2.1122538838e+02 -2.5954924831e+02 4.0045253102e+02 0.0000000000e+00 0.0000e+00 1.0000e+00
       21  1    1    2  502  501 -4.5384302768e-04 +6.0032524880e-06 +2.9236412176e-04 5.3989472354e-04 0.0000000000e+00 0.0000e+00 -1.0000e+00
<mgrwt>
<rscale>  1 0.64854225E+03</rscale>
<asrwt>0</asrwt>
<pdfrwt beam="1">  1        1 0.38237241E+00 0.64854225E+03</pdfrwt>
<pdfrwt beam="2">0</pdfrwt>
<totfact> 0.16022996E+00</totfact>
</mgrwt>
</event>
<event>
 6      1 +5.6466785e-02 6.47087200e+02 7.81860800e-03 9.81226000e-02
        1 -1    0    0  502    0 +0.0000000000e+00 +0.0000000000e+00 +1.0486041870e+02 1.0486041870e+02 0.0000000000e+00 0.0000e+00 1.0000e+00
       13 -1    0    0    0    0 -0.0000000000e+00 -0.0000000000e+00 -1.0000000000e+03 1.0000000000e+03 0.0000000000e+00 0.0000e+00 1.0000e+00
  9000005  2    1    2  501    0 -3.8021286796e-03 -1.1715907865e-03 -8.9531950697e+02 1.1046804490e+03 6.4708722359e+02 0.0000e+00 0.0000e+00
       13  1    3    3    0    0 -5.0515115258e+01 +4.1393625575e+01 -9.8863109363e+02 9.9078587415e+02 0.0000000000e+00 0.0000e+00 1.0000e+00
        3  1    3    3  501    0 +5.0511313130e+01 -4.1394797166e+01 +9.3311586665e+01 1.1389457490e+02 0.0000000000e+00 0.0000e+00 1.0000e+00
       21  1    1    2  502  501 +3.8021286796e-03 +1.1715907865e-03 +1.7992566508e-01 1.7996964678e-01 0.0000000000e+00 0.0000e+00 -1.0000e+00
<mgrwt>
<rscale>  1 0.64708722E+03</rscale>
<asrwt>0</asrwt>
<pdfrwt beam="1">  1        1 0.38131142E+00 0.64708722E+03</pdfrwt>
<pdfrwt beam="2">0</pdfrwt>
<totfact> 0.16201142E+00</totfact>
</mgrwt>
</event>
<event>
 6      1 +5.6466785e-02 6.49185800e+02 7.81860800e-03 9.80830800e-02
        3 -1    0    0  502    0 +0.0000000000e+00 +0.0000000000e+00 +1.0536101265e+02 1.0536101265e+02 0.0000000000e+00 0.0000e+00 1.0000e+00
       13 -1    0    0    0    0 -0.0000000000e+00 -0.0000000000e+00 -1.0000000000e+03 1.0000000000e+03 0.0000000000e+00 0.0000e+00 1.0000e+00
  9000005  2    1    2  501    0 -3.2097701663e-04 +1.7647503279e-04 -8.9463938481e+02 1.1053604721e+03 6.4918575502e+02 0.0000e+00 0.0000e+00
       13  1    3    3    0    0 +1.7907836473e+02 -2.6073643229e+02 -3.2326978005e+02 4.5227856298e+02 0.0000000000e+00 0.0000e+00 1.0000e+00
        1  1    3    3  501    0 -1.7907868570e+02 +2.6073660877e+02 -5.7136960476e+02 6.5308190916e+02 0.0000000000e+00 0.0000e+00 1.0000e+00
       21  1    1    2  502  501 +3.2097701663e-04 -1.7647503278e-04 +3.9746196303e-04 5.4050503647e-04 0.0000000000e+00 0.0000e+00 -1.0000e+00
<mgrwt>
<rscale>  1 0.64918576E+03</rscale>
<asrwt>0</asrwt>
<pdfrwt beam="1">  1        3 0.38313176E+00 0.64918576E+03</pdfrwt>
<pdfrwt beam="2">0</pdfrwt>
<totfact> 0.72669563E-02</totfact>
</mgrwt>
</event>
<event>
 6      1 +5.6466785e-02 6.50373200e+02 7.81860800e-03 9.80607900e-02
        1 -1    0    0  502    0 +0.0000000000e+00 +0.0000000000e+00 +1.0645347443e+02 1.0645347443e+02 0.0000000000e+00 0.0000e+00 1.0000e+00
       13 -1    0    0    0    0 -0.0000000000e+00 -0.0000000000e+00 -1.0000000000e+03 1.0000000000e+03 0.0000000000e+00 0.0000e+00 1.0000e+00
  9000005  2    1    2  501    0 +1.4916377708e+00 -1.3766646338e+00 -8.9187793206e+02 1.1038258533e+03 6.5037000887e+02 0.0000e+00 0.0000e+00
       13  1    3    3    0    0 -1.6660813985e+02 -1.4104636959e+02 -3.6943161529e+01 2.2139816581e+02 0.0000000000e+00 0.0000e+00 1.0000e+00
        3  1    3    3  501    0 +1.6809977762e+02 +1.3966970496e+02 -8.5493477053e+02 8.8242768745e+02 0.0000000000e+00 0.0000e+00 1.0000e+00
       21  1    1    2  502  501 -1.4916377708e+00 +1.3766646338e+00 -1.6685935055e+00 2.6276211751e+00 0.0000000000e+00 0.0000e+00 -1.0000e+00
<mgrwt>
<rscale>  1 0.65037318E+03</rscale>
<asrwt>0</asrwt>
<pdfrwt beam="1">  1        1 0.38710436E+00 0.65037318E+03</pdfrwt>
<pdfrwt beam="2">0</pdfrwt>
<totfact> 0.15264041E+00</totfact>
</mgrwt>
</event>
<event>
 6      1 +5.6466785e-02 6.51324300e+02 7.81860800e-03 9.80429700e-02
        1 -1    0    0  502    0 +0.0000000000e+00 +0.0000000000e+00 +1.0605610438e+02 1.0605610438e+02 0.0000000000e+00 0.0000e+00 1.0000e+00
       13 -1    0    0    0    0 -0.0000000000e+00 -0.0000000000e+00 -1.0000000000e+03 1.0000000000e+03 0.0000000000e+00 0.0000e+00 1.0000e+00
  9000005  2    1    2  501    0 +5.6725581885e-06 +1.2764397280e-05 -8.9394415032e+02 1.1060558493e+03 6.5132434154e+02 0.0000e+00 0.0000e+00
       13  1    3    3    0    0 +2.4137769011e+02 +1.6488080159e+01 -7.6784670429e+01 2.5383248745e+02 0.0000000000e+00 0.0000e+00 1.0000e+00
        3  1    3    3  501    0 -2.4137768444e+02 -1.6488067395e+01 -8.1715947989e+02 8.5222336185e+02 0.0000000000e+00 0.0000e+00 1.0000e+00
       21  1    1    2  502  501 -5.6725581839e-06 -1.2764397281e-05 +2.5470011959e-04 2.5508284669e-04 0.0000000000e+00 0.0000e+00 -1.0000e+00
<mgrwt>
<rscale>  1 0.65132434E+03</rscale>
<asrwt>0</asrwt>
<pdfrwt beam="1">  1        1 0.38565937E+00 0.65132434E+03</pdfrwt>
<pdfrwt beam="2">0</pdfrwt>
<totfact> 0.15487772E+00</totfact>
</mgrwt>
</event>
<event>
 6      1 +5.6466785e-02 6.45719000e+02 7.81860800e-03 9.81484500e-02
        1 -1    0    0  502    0 +0.0000000000e+00 +0.0000000000e+00 +1.0425857260e+02 1.0425857260e+02 0.0000000000e+00 0.0000e+00 1.0000e+00
       13 -1    0    0    0    0 -0.0000000000e+00 -0.0000000000e+00 -1.0000000000e+03 1.0000000000e+03 0.0000000000e+00 0.0000e+00 1.0000e+00
  9000005  2    1    2  501    0 -1.1423688322e-03 +1.4839504472e-03 -8.9576168068e+02 1.1042382329e+03 6.4571904608e+02 0.0000e+00 0.0000e+00
       13  1    3    3    0    0 -3.1446869055e+01 +1.5696526294e+02 -9.2735241125e+02 9.4106827276e+02 0.0000000000e+00 0.0000e+00 1.0000e+00
        1  1    3    3  501    0 +3.1445726686e+01 -1.5696377899e+02 +3.1590730568e+01 1.6316996017e+02 0.0000000000e+00 0.0000e+00 1.0000e+00
       21  1    1    2  502  501 +1.1423688322e-03 -1.4839504472e-03 +2.0253279430e-02 2.0339676574e-02 0.0000000000e+00 0.0000e+00 -1.0000e+00
<mgrwt>
<rscale>  1 0.64571905E+03</rscale>
<asrwt>0</asrwt>
<pdfrwt beam="1">  1        1 0.37912288E+00 0.64571905E+03</pdfrwt>
<pdfrwt beam="2">0</pdfrwt>
<totfact> 0.16569607E+00</totfact>
</mgrwt>
</event>
<event>
 6      1 +5.6466785e-02 6.51701700e+02 7.81860800e-03 9.80359100e-02
       21 -1    0    0  501  502 +0.0000000000e+00 +0.0000000000e+00 +1.3187938370e+02 1.3187938370e+02 0.0000000000e+00 0.0000e+00 -1.0000e+00
       13 -1    0    0    0    0 -0.0000000000e+00 -0.0000000000e+00 -1.0000000000e+03 1.0000000000e+03 0.0000000000e+00 0.0000e+00 1.0000e+00
  9000005  2    1    2  501    0 +4.5888951303e+00 +4.4006305114e+00 -8.9338551819e+02 1.1058267682e+03 6.5167072485e+02 0.0000e+00 0.0000e+00
       13  1    3    3    0    0 +2.8332921154e+02 -1.2715099475e+02 -6.2173006023e+02 6.9497560056e+02 0.0000000000e+00 0.0000e+00 1.0000e+00
        3  1    3    3  501    0 -2.7874031641e+02 +1.3155162526e+02 -2.7165545796e+02 4.1085116763e+02 0.0000000000e+00 0.0000e+00 1.0000e+00
       -3  1    1    2    0  502 -4.5888951303e+00 -4.4006305114e+00 +2.5264901888e+01 2.6052615508e+01 0.0000000000e+00 0.0000e+00 -1.0000e+00
<mgrwt>
<rscale>  1 0.65170174E+03</rscale>
<asrwt>0</asrwt>
<pdfrwt beam="1">  1       21 0.47956241E+00 0.65170174E+03</pdfrwt>
<pdfrwt beam="2">0</pdfrwt>
<totfact> 0.17666800E-01</totfact>
</mgrwt>
</event>
<event>
 6      1 +5.6466785e-02 6.45547200e+02 7.81860800e-03 9.81517100e-02
        3 -1    0    0  502    0 +0.0000000000e+00 +0.0000000000e+00 +1.0418898402e+02 1.0418898402e+02 0.0000000000e+00 0.0000e+00 1.0000e+00
       13 -1    0    0    0    0 -0.0000000000e+00 -0.0000000000e+00 -1.0000000000e+03 1.0000000000e+03 0.0000000000e+00 0.0000e+00 1.0000e+00
  9000005  2    1    2  501    0 +2.7933114490e-04 -1.0091342205e-05 -8.9581719147e+02 1.1041828022e+03 6.4554722535e+02 0.0000e+00 0.0000e+00
       13  1    3    3    0    0 -2.6763112345e+02 +6.4334531109e+01 -7.3624848629e+02 7.8601983671e+02 0.0000000000e+00 0.0000e+00 1.0000e+00
        3  1    3    3  501    0 +2.6763140278e+02 -6.4334541200e+01 -1.5956870518e+02 3.1816296550e+02 0.0000000000e+00 0.0000e+00 1.0000e+00
       21  1    1    2  502  501 -2.7933114485e-04 +1.0091342201e-05 +6.1754933135e-03 6.1818157032e-03 0.0000000000e+00 0.0000e+00 -1.0000e+00
<mgrwt>
<rscale>  1 0.64554723E+03</rscale>
<asrwt>0</asrwt>
<pdfrwt beam="1">  1        3 0.37886983E+00 0.64554723E+03</pdfrwt>
<pdfrwt beam="2">0</pdfrwt>
<totfact> 0.76580407E-02</totfact>
</mgrwt>
</event>
<event>
 6      1 +5.6466785e-02 6.51403800e+02 7.81860800e-03 9.80414900e-02
        1 -1    0    0  502    0 +0.0000000000e+00 +0.0000000000e+00 +1.0608253162e+02 1.0608253162e+02 0.0000000000e+00 0.0000e+00 1.0000e+00
       13 -1    0    0    0    0 -0.0000000000e+00 -0.0000000000e+00 -1.0000000000e+03 1.0000000000e+03 0.0000000000e+00 0.0000e+00 1.0000e+00
  9000005  2    1    2  501    0 -5.2394402445e-05 +1.2334723110e-05 -8.9391828482e+02 1.1060817134e+03 6.5140375866e+02 0.0000e+00 0.0000e+00
       13  1    3    3    0    0 -1.6763222210e+02 +5.9309018970e+01 +1.6390629758e+01 1.7856868247e+02 0.0000000000e+00 0.0000e+00 1.0000e+00
        3  1    3    3  501    0 +1.6763216970e+02 -5.9309006635e+01 -9.1030891458e+02 9.2751303093e+02 0.0000000000e+00 0.0000e+00 1.0000e+00
       21  1    1    2  502  501 +5.2394402453e-05 -1.2334723110e-05 +8.1643988885e-04 8.1821232630e-04 0.0000000000e+00 0.0000e+00 -1.0000e+00
<mgrwt>
<rscale>  1 0.65140376E+03</rscale>
<asrwt>0</asrwt>
<pdfrwt beam="1">  1        1 0.38575547E+00 0.65140376E+03</pdfrwt>
<pdfrwt beam="2">0</pdfrwt>
<totfact> 0.15472388E+00</totfact>
</mgrwt>
</event>
<event>
 6      1 +5.6466785e-02 6.46481100e+02 7.81860800e-03 9.81340500e-02
        1 -1    0    0  502    0 +0.0000000000e+00 +0.0000000000e+00 +1.0448446572e+02 1.0448446572e+02 0.0000000000e+00 0.0000e+00 1.0000e+00
       13 -1    0    0    0    0 -0.0000000000e+00 -0.0000000000e+00 -1.0000000000e+03 1.0000000000e+03 0.0000000000e+00 0.0000e+00 1.0000e+00
  9000005  2    1    2  501    0 -1.7082237491e-07 -1.3352264432e-06 -8.9551553479e+02 1.1044844643e+03 6.4648113568e+02 0.0000e+00 0.0000e+00
       13  1    3    3    0    0 +1.0104012705e+02 +2.7329568393e+02 -2.0866655347e+02 3.5838717704e+02 0.0000000000e+00 0.0000e+00 1.0000e+00
        3  1    3    3  501    0 -1.0104012722e+02 -2.7329568526e+02 -6.8684898131e+02 7.4609728724e+02 0.0000000000e+00 0.0000e+00 1.0000e+00
       21  1    1    2  502  501 +1.7082236187e-07 +1.3352264776e-06 +5.1087009880e-07 1.4397910555e-06 0.0000000000e+00 0.0000e+00 -1.0000e+00
<mgrwt>
<rscale>  1 0.64648114E+03</rscale>
<asrwt>0</asrwt>
<pdfrwt beam="1">  1        1 0.37994431E+00 0.64648114E+03</pdfrwt>
<pdfrwt beam="2">0</pdfrwt>
<totfact> 0.16429633E+00</totfact>
</mgrwt>
</event>
<event>
 6      1 +5.6466785e-02 6.44388800e+02 7.81860800e-03 9.81736600e-02
        1 -1    0    0  502    0 +0.0000000000e+00 +0.0000000000e+00 +1.0826782951e+02 1.0826782951e+02 0.0000000000e+00 0.0000e+00 1.0000e+00
       13 -1    0    0    0    0 -0.0000000000e+00 -0.0000000000e+00 -1.0000000000e+03 1.0000000000e+03 0.0000000000e+00 0.0000e+00 1.0000e+00
  9000005  2    1    2  501    0 +6.8865341326e-03 -7.5763921780e-02 -8.9619042461e+02 1.1038089263e+03 6.4438875140e+02 0.0000e+00 0.0000e+00
       13  1    3    3    0    0 +2.7394993513e+02 -1.6963133117e+02 -4.4945147183e+02 5.5301896984e+02 0.0000000000e+00 0.0000e+00 1.0000e+00
        1  1    3    3  501    0 -2.7394304859e+02 +1.6955556725e+02 -4.4673895278e+02 5.5078995651e+02 0.0000000000e+00 0.0000e+00 1.0000e+00
       21  1    1    2  502  501 -6.8865341326e-03 +7.5763921780e-02 +4.4582541241e+00 4.4589031646e+00 0.0000000000e+00 0.0000e+00 -1.0000e+00
<mgrwt>
<rscale>  1 0.64438876E+03</rscale>
<asrwt>0</asrwt>
<pdfrwt beam="1">  1        1 0.39370203E+00 0.64438876E+03</pdfrwt>
<pdfrwt beam="2">0</pdfrwt>
<totfact> 0.14285621E+00</totfact>
</mgrwt>
</event>
</LesHouchesEvents>
