<event>
 6    1  0.3263951E-003  0.6670242E+03  0.7818608E-02  0.9775349E-01
          1   -1    0    0  502    0  0.00000000000E+00  0.00000000000E+00  0.11133942277E+03  0.11133942277E+03  0.00000000000E+00 0.  1.
         13   -1    0    0    0    0 -0.00000000000E+00 -0.00000000000E+00 -0.10000000000E+04  0.10000000000E+04  0.00000000000E+00 0.  1.
    9000005    2    1    2  501    0  0.82412238315E-01  0.20954511407E+00 -0.88862004033E+03  0.11111106343E+04  0.66702414861E+03 0.  0.
         13    1    3    3    0    0 -0.12901680059E+03  0.20718780940E+03 -0.65651301919E+02  0.25274931581E+03  0.00000000000E+00 0.  1.
          1    1    3    3  501    0  0.12909921283E+03 -0.20697826429E+03 -0.82296873841E+03  0.85836131847E+03  0.00000000000E+00 0.  1.
         21    1    1    2  502  501 -0.82412238315E-01 -0.20954511407E+00 -0.40536904408E-01  0.22878848851E+00  0.00000000000E+00 0. -1.
<mgrwt>
<rscale>  1 0.66702419E+03</rscale>
<asrwt>0</asrwt>
<pdfrwt beam="1">  1        1 0.40487148E+00 0.66702419E+03</pdfrwt>
<pdfrwt beam="2">0</pdfrwt>
<totfact> 0.12684340E+00</totfact>
</mgrwt>
</event>
<event>
 6    1  0.3263951E-003  0.4716530E+03  0.7818608E-02  0.1021455E+00
          1   -1    0    0  502    0  0.00000000000E+00  0.00000000000E+00  0.55614558611E+02  0.55614558611E+02  0.00000000000E+00 0.  1.
         13   -1    0    0    0    0 -0.00000000000E+00 -0.00000000000E+00 -0.10000000000E+04  0.10000000000E+04  0.00000000000E+00 0.  1.
    9000005    2    1    2  501    0  0.12351796883E-04  0.45669303859E-05 -0.94438586223E+03  0.10556141376E+04  0.47165299812E+03 0.  0.
         13    1    3    3    0    0 -0.95754002080E+02 -0.13650693606E+03 -0.98949489438E+02  0.19389165523E+03  0.00000000000E+00 0.  1.
          3    1    3    3  501    0  0.95754014432E+02  0.13650694062E+03 -0.84543637279E+03  0.86172248234E+03  0.00000000000E+00 0.  1.
         21    1    1    2  502  501 -0.12351796885E-04 -0.45669303681E-05  0.42084414934E-03  0.42105014164E-03  0.00000000000E+00 0. -1.
<mgrwt>
<rscale>  1 0.47165300E+03</rscale>
<asrwt>0</asrwt>
<pdfrwt beam="1">  1        1 0.20223519E+00 0.47165300E+03</pdfrwt>
<pdfrwt beam="2">0</pdfrwt>
<totfact> 0.10088657E+01</totfact>
</mgrwt>
</event>
<event>
 6    1  0.3263951E-003  0.6799466E+03  0.7818608E-02  0.9752154E-01
          1   -1    0    0  502    0  0.00000000000E+00  0.00000000000E+00  0.11896606689E+03  0.11896606689E+03  0.00000000000E+00 0.  1.
         13   -1    0    0    0    0 -0.00000000000E+00 -0.00000000000E+00 -0.10000000000E+04  0.10000000000E+04  0.00000000000E+00 0.  1.
    9000005    2    1    2  501    0 -0.80603854116E-01  0.31749583352E+00 -0.88440930342E+03  0.11155748392E+04  0.67994654095E+03 0.  0.
         13    1    3    3    0    0 -0.24514406577E+03  0.21782910672E+03 -0.59026902130E+03  0.67525006496E+03  0.00000000000E+00 0.  1.
          1    1    3    3  501    0  0.24506346191E+03 -0.21751161089E+03 -0.29414028212E+03  0.44032477423E+03  0.00000000000E+00 0.  1.
         21    1    1    2  502  501  0.80603854116E-01 -0.31749583352E+00  0.33753703160E+01  0.33912277063E+01  0.00000000000E+00 0.  1.
<mgrwt>
<rscale>  1 0.67994662E+03</rscale>
<asrwt>0</asrwt>
<pdfrwt beam="1">  1        1 0.43260479E+00 0.67994662E+03</pdfrwt>
<pdfrwt beam="2">0</pdfrwt>
<totfact> 0.94862916E-01</totfact>
</mgrwt>
</event>
<event>
 6    1  0.3263951E-003  0.6525239E+03  0.7818608E-02  0.9802055E-01
          1   -1    0    0  502    0  0.00000000000E+00  0.00000000000E+00  0.10646047686E+03  0.10646047686E+03  0.00000000000E+00 0.  1.
         13   -1    0    0    0    0 -0.00000000000E+00 -0.00000000000E+00 -0.10000000000E+04  0.10000000000E+04  0.00000000000E+00 0.  1.
    9000005    2    1    2  501    0 -0.98018914247E-03  0.49125597121E-03 -0.89355310262E+03  0.11064468532E+04  0.65252393959E+03 0.  0.
         13    1    3    3    0    0 -0.91705397531E+01 -0.32274782526E+03 -0.36730749558E+03  0.48904504273E+03  0.00000000000E+00 0.  1.
          3    1    3    3  501    0  0.91695595639E+01  0.32274831651E+03 -0.52624560704E+03  0.61740181046E+03  0.00000000000E+00 0.  1.
         21    1    1    2  502  501  0.98018914247E-03 -0.49125597120E-03  0.13579474959E-01  0.13623664828E-01  0.00000000000E+00 0.  1.
<mgrwt>
<rscale>  1 0.65252394E+03</rscale>
<asrwt>0</asrwt>
<pdfrwt beam="1">  1        1 0.38712982E+00 0.65252394E+03</pdfrwt>
<pdfrwt beam="2">0</pdfrwt>
<totfact> 0.15254003E+00</totfact>
</mgrwt>
</event>
<event>
 6    1  0.3263951E-003  0.6564030E+03  0.7818608E-02  0.9794838E-01
          1   -1    0    0  502    0  0.00000000000E+00  0.00000000000E+00  0.10772114330E+03  0.10772114330E+03  0.00000000000E+00 0.  1.
         13   -1    0    0    0    0 -0.00000000000E+00 -0.00000000000E+00 -0.10000000000E+04  0.10000000000E+04  0.00000000000E+00 0.  1.
    9000005    2    1    2  501    0  0.72715193653E-04 -0.63017130003E-06 -0.89228378976E+03  0.11077162097E+04  0.65640295533E+03 0.  0.
         13    1    3    3    0    0  0.17549388729E+03  0.76433482085E+02  0.37618130202E+01  0.19145321334E+03  0.00000000000E+00 0.  1.
          1    1    3    3  501    0 -0.17549381458E+03 -0.76433482715E+02 -0.89604560278E+03  0.91626299636E+03  0.00000000000E+00 0.  1.
         21    1    1    2  502  501 -0.72715193643E-04  0.63017130121E-06  0.49330665703E-02  0.49336025056E-02  0.00000000000E+00 0.  1.
<mgrwt>
<rscale>  1 0.65640296E+03</rscale>
<asrwt>0</asrwt>
<pdfrwt beam="1">  1        1 0.39171407E+00 0.65640296E+03</pdfrwt>
<pdfrwt beam="2">0</pdfrwt>
<totfact> 0.14546133E+00</totfact>
</mgrwt>
</event>
<event>
 6    1  0.3263951E-003  0.6503970E+03  0.7818608E-02  0.9806035E-01
          1   -1    0    0  502    0  0.00000000000E+00  0.00000000000E+00  0.10575405585E+03  0.10575405585E+03  0.00000000000E+00 0.  1.
         13   -1    0    0    0    0 -0.00000000000E+00 -0.00000000000E+00 -0.10000000000E+04  0.10000000000E+04  0.00000000000E+00 0.  1.
    9000005    2    1    2  501    0  0.39916415062E-06  0.14258663530E-05 -0.89424594604E+03  0.11057540535E+04  0.65039696703E+03 0.  0.
         13    1    3    3    0    0  0.29984039815E+03  0.96188168004E+01 -0.23371015998E+03  0.38028571480E+03  0.00000000000E+00 0.  1.
          3    1    3    3  501    0 -0.29984039775E+03 -0.96188153745E+01 -0.66053578605E+03  0.72546833865E+03  0.00000000000E+00 0.  1.
         21    1    1    2  502  501 -0.39916412886E-06 -0.14258663531E-05  0.18817817184E-05  0.23944789192E-05  0.00000000000E+00 0. -1.
<mgrwt>
<rscale>  1 0.65039697E+03</rscale>
<asrwt>0</asrwt>
<pdfrwt beam="1">  1        1 0.38456101E+00 0.65039697E+03</pdfrwt>
<pdfrwt beam="2">0</pdfrwt>
<totfact> 0.15664695E+00</totfact>
</mgrwt>
</event>
<event>
 6    1  0.3263951E-003  0.6522468E+03  0.7818608E-02  0.9802572E-01
          1   -1    0    0  502    0  0.00000000000E+00  0.00000000000E+00  0.10636936087E+03  0.10636936087E+03  0.00000000000E+00 0.  1.
         13   -1    0    0    0    0 -0.00000000000E+00 -0.00000000000E+00 -0.10000000000E+04  0.10000000000E+04  0.00000000000E+00 0.  1.
    9000005    2    1    2  501    0  0.88713463867E-04 -0.30454054977E-03 -0.89364354180E+03  0.11063564543E+04  0.65224675099E+03 0.  0.
         13    1    3    3    0    0  0.30634069744E+03 -0.29975840574E+01 -0.63648722778E+03  0.70637780227E+03  0.00000000000E+00 0.  1.
          1    1    3    3  501    0 -0.30634060873E+03  0.29972795168E+01 -0.25715631402E+03  0.39997865203E+03  0.00000000000E+00 0.  1.
         21    1    1    2  502  501 -0.88713463880E-04  0.30454054977E-03  0.12902666696E-01  0.12906565108E-01  0.00000000000E+00 0. -1.
<mgrwt>
<rscale>  1 0.65224675E+03</rscale>
<asrwt>0</asrwt>
<pdfrwt beam="1">  1        1 0.38679849E+00 0.65224675E+03</pdfrwt>
<pdfrwt beam="2">0</pdfrwt>
<totfact> 0.15306403E+00</totfact>
</mgrwt>
</event>
<event>
 6    1  0.3263951E-003  0.6470918E+03  0.7818608E-02  0.9812252E-01
          1   -1    0    0  502    0  0.00000000000E+00  0.00000000000E+00  0.10468207248E+03  0.10468207248E+03  0.00000000000E+00 0.  1.
         13   -1    0    0    0    0 -0.00000000000E+00 -0.00000000000E+00 -0.10000000000E+04  0.10000000000E+04  0.00000000000E+00 0.  1.
    9000005    2    1    2  501    0  0.19822698505E-06 -0.37510895510E-05 -0.89531805106E+03  0.11046819489E+04  0.64709179846E+03 0.  0.
         13    1    3    3    0    0 -0.31315669339E+03  0.68612916949E+02 -0.52221084949E+03  0.61276342769E+03  0.00000000000E+00 0.  1.
          1    1    3    3  501    0  0.31315669359E+03 -0.68612920700E+02 -0.37310720157E+03  0.49191852120E+03  0.00000000000E+00 0.  1.
         21    1    1    2  502  501 -0.19822694517E-06  0.37510895481E-05  0.12354166226E-03  0.12359875518E-03  0.00000000000E+00 0. -1.
<mgrwt>
<rscale>  1 0.64709180E+03</rscale>
<asrwt>0</asrwt>
<pdfrwt beam="1">  1        1 0.38066288E+00 0.64709180E+03</pdfrwt>
<pdfrwt beam="2">0</pdfrwt>
<totfact> 0.16308278E+00</totfact>
</mgrwt>
</event>
<event>
 6    1  0.3263951E-003  0.6590035E+03  0.7818608E-02  0.9790030E-01
          1   -1    0    0  502    0  0.00000000000E+00  0.00000000000E+00  0.10857147622E+03  0.10857147622E+03  0.00000000000E+00 0.  1.
         13   -1    0    0    0    0 -0.00000000000E+00 -0.00000000000E+00 -0.10000000000E+04  0.10000000000E+04  0.00000000000E+00 0.  1.
    9000005    2    1    2  501    0 -0.26397942321E-05  0.17713232410E-05 -0.89142860218E+03  0.11085713978E+04  0.65900348339E+03 0.  0.
         13    1    3    3    0    0  0.11798528023E+03  0.28117605757E+03 -0.65575889138E+03  0.72318754505E+03  0.00000000000E+00 0.  1.
          1    1    3    3  501    0 -0.11798528287E+03 -0.28117605580E+03 -0.23566971081E+03  0.38538385270E+03  0.00000000000E+00 0.  1.
         21    1    1    2  502  501  0.26397942432E-05 -0.17713232618E-05  0.78399553231E-04  0.78463979294E-04  0.00000000000E+00 0. -1.
<mgrwt>
<rscale>  1 0.65900348E+03</rscale>
<asrwt>0</asrwt>
<pdfrwt beam="1">  1        1 0.39480620E+00 0.65900348E+03</pdfrwt>
<pdfrwt beam="2">0</pdfrwt>
<totfact> 0.14086416E+00</totfact>
</mgrwt>
</event>
<event>
 6    1  0.3263951E-003  0.6470713E+03  0.7818608E-02  0.9812290E-01
          1   -1    0    0  502    0  0.00000000000E+00  0.00000000000E+00  0.10474364311E+03  0.10474364311E+03  0.00000000000E+00 0.  1.
         13   -1    0    0    0    0 -0.00000000000E+00 -0.00000000000E+00 -0.10000000000E+04  0.10000000000E+04  0.00000000000E+00 0.  1.
    9000005    2    1    2  501    0 -0.25316328682E-02 -0.79544013838E-03 -0.89532464685E+03  0.11046753016E+04  0.64707132431E+03 0.  0.
         13    1    3    3    0    0 -0.42910793989E+02 -0.21732269525E+03 -0.45094354397E+02  0.22606191831E+03  0.00000000000E+00 0.  1.
          1    1    3    3  501    0  0.42908262356E+02  0.21732189981E+03 -0.85023029245E+03  0.87861338330E+03  0.00000000000E+00 0.  1.
         21    1    1    2  502  501  0.25316328682E-02  0.79544013838E-03  0.68289952209E-01  0.68341491517E-01  0.00000000000E+00 0. -1.
<mgrwt>
<rscale>  1 0.64707132E+03</rscale>
<asrwt>0</asrwt>
<pdfrwt beam="1">  1        1 0.38088678E+00 0.64707132E+03</pdfrwt>
<pdfrwt beam="2">0</pdfrwt>
<totfact> 0.16271272E+00</totfact>
</mgrwt>
</event>
<event>
 6    1  0.3263951E-003  0.6488005E+03  0.7818608E-02  0.9809033E-01
          1   -1    0    0  502    0  0.00000000000E+00  0.00000000000E+00  0.10525126719E+03  0.10525126719E+03  0.00000000000E+00 0.  1.
         13   -1    0    0    0    0 -0.00000000000E+00 -0.00000000000E+00 -0.10000000000E+04  0.10000000000E+04  0.00000000000E+00 0.  1.
    9000005    2    1    2  501    0  0.52689651966E-05 -0.31210277419E-03 -0.89476446678E+03  0.11052355301E+04  0.64880052868E+03 0.  0.
         13    1    3    3    0    0 -0.28719416022E+03 -0.13934859852E+03 -0.54578918482E+03  0.63228502421E+03  0.00000000000E+00 0.  1.
          1    1    3    3  501    0  0.28719416549E+03  0.13934828641E+03 -0.34897528197E+03  0.47295050591E+03  0.00000000000E+00 0.  1.
         21    1    1    2  502  501 -0.52689652375E-05  0.31210277420E-03  0.15733978512E-01  0.15737074561E-01  0.00000000000E+00 0.  1.
<mgrwt>
<rscale>  1 0.64880053E+03</rscale>
<asrwt>0</asrwt>
<pdfrwt beam="1">  1        1 0.38273269E+00 0.64880053E+03</pdfrwt>
<pdfrwt beam="2">0</pdfrwt>
<totfact> 0.15963621E+00</totfact>
</mgrwt>
</event>
<event>
 6    1  0.3263951E-003  0.6544920E+03  0.7818608E-02  0.9798387E-01
          1   -1    0    0  502    0  0.00000000000E+00  0.00000000000E+00  0.10917399373E+03  0.10917399373E+03  0.00000000000E+00 0.  1.
         13   -1    0    0    0    0 -0.00000000000E+00 -0.00000000000E+00 -0.10000000000E+04  0.10000000000E+04  0.00000000000E+00 0.  1.
    9000005    2    1    2  501    0 -0.26090267845E+00 -0.43890741347E-01 -0.89290075129E+03  0.11070824480E+04  0.65449195948E+03 0.  0.
         13    1    3    3    0    0  0.23144113217E+03 -0.74035128130E+02 -0.81687160025E+03  0.85224726996E+03  0.00000000000E+00 0.  1.
          1    1    3    3  501    0 -0.23170203485E+03  0.73991237389E+02 -0.76029151046E+02  0.25483517805E+03  0.00000000000E+00 0.  1.
         21    1    1    2  502  501  0.26090267845E+00  0.43890741347E-01  0.20747450220E+01  0.20915457230E+01  0.00000000000E+00 0. -1.
<mgrwt>
<rscale>  1 0.65449201E+03</rscale>
<asrwt>0</asrwt>
<pdfrwt beam="1">  1        1 0.39699718E+00 0.65449201E+03</pdfrwt>
<pdfrwt beam="2">0</pdfrwt>
<totfact> 0.13785432E+00</totfact>
</mgrwt>
</event>
<event>
 6    1  0.3263951E-003  0.6532271E+03  0.7818608E-02  0.9800743E-01
          1   -1    0    0  502    0  0.00000000000E+00  0.00000000000E+00  0.11505841441E+03  0.11505841441E+03  0.00000000000E+00 0.  1.
         13   -1    0    0    0    0 -0.00000000000E+00 -0.00000000000E+00 -0.10000000000E+04  0.10000000000E+04  0.00000000000E+00 0.  1.
    9000005    2    1    2  501    0 -0.10952980087E+01 -0.37630974564E+01 -0.89281356158E+03  0.11062647470E+04  0.65321533524E+03 0.  0.
         13    1    3    3    0    0  0.79581470227E+02 -0.23534604187E+03 -0.85835502121E+02  0.26284730025E+03  0.00000000000E+00 0.  1.
          3    1    3    3  501    0 -0.80676768236E+02  0.23158294441E+03 -0.80697805945E+03  0.84341744677E+03  0.00000000000E+00 0.  1.
         21    1    1    2  502  501  0.10952980087E+01  0.37630974564E+01  0.78719759837E+01  0.87936673853E+01  0.00000000000E+00 0.  1.
<mgrwt>
<rscale>  1 0.65322709E+03</rscale>
<asrwt>0</asrwt>
<pdfrwt beam="1">  1        1 0.41839512E+00 0.65322709E+03</pdfrwt>
<pdfrwt beam="2">0</pdfrwt>
<totfact> 0.11058979E+00</totfact>
</mgrwt>
</event>
<event>
 6    1  0.3263951E-003  0.6556041E+03  0.7818608E-02  0.9796320E-01
          3   -1    0    0  502    0  0.00000000000E+00  0.00000000000E+00  0.10756064452E+03  0.10756064452E+03  0.00000000000E+00 0.  1.
         13   -1    0    0    0    0 -0.00000000000E+00 -0.00000000000E+00 -0.10000000000E+04  0.10000000000E+04  0.00000000000E+00 0.  1.
    9000005    2    1    2  501    0 -0.14781325127E-02 -0.71288667414E-07 -0.89254580698E+03  0.11074541828E+04  0.65560411023E+03 0.  0.
         13    1    3    3    0    0  0.14036081181E+02  0.25257113412E+03 -0.94101667629E+02  0.26989685662E+03  0.00000000000E+00 0.  1.
          3    1    3    3  501    0 -0.14037559314E+02 -0.25257113419E+03 -0.79844413935E+03  0.83755732613E+03  0.00000000000E+00 0.  1.
         21    1    1    2  502  501  0.14781325127E-02  0.71288649768E-07  0.10645149979E+00  0.10646176160E+00  0.00000000000E+00 0. -1.
<mgrwt>
<rscale>  1 0.65560411E+03</rscale>
<asrwt>0</asrwt>
<pdfrwt beam="1">  1        3 0.39113044E+00 0.65560411E+03</pdfrwt>
<pdfrwt beam="2">0</pdfrwt>
<totfact> 0.65879936E-02</totfact>
</mgrwt>
</event>
<event>
 6    1  0.3263951E-003  0.6461922E+03  0.7818608E-02  0.9813951E-01
          1   -1    0    0  502    0  0.00000000000E+00  0.00000000000E+00  0.10440003938E+03  0.10440003938E+03  0.00000000000E+00 0.  1.
         13   -1    0    0    0    0 -0.00000000000E+00 -0.00000000000E+00 -0.10000000000E+04  0.10000000000E+04  0.00000000000E+00 0.  1.
    9000005    2    1    2  501    0 -0.40196198492E-02 -0.26005228127E-02 -0.89560821166E+03  0.11043905000E+04  0.64619216004E+03 0.  0.
         13    1    3    3    0    0 -0.25338128626E+02  0.18747166174E+03 -0.15937043822E+00  0.18917629375E+03  0.00000000000E+00 0.  1.
          3    1    3    3  501    0  0.25334109006E+02 -0.18747426227E+03 -0.89544884122E+03  0.91521420625E+03  0.00000000000E+00 0.  1.
         21    1    1    2  502  501  0.40196198492E-02  0.26005228127E-02  0.82510330140E-02  0.95393714903E-02  0.00000000000E+00 0.  1.
<mgrwt>
<rscale>  1 0.64619216E+03</rscale>
<asrwt>0</asrwt>
<pdfrwt beam="1">  1        1 0.37963731E+00 0.64619216E+03</pdfrwt>
<pdfrwt beam="2">0</pdfrwt>
<totfact> 0.16481828E+00</totfact>
</mgrwt>
</event>
<event>
 6    1  0.3964249E-003  0.6633981E+03  0.7818608E-02  0.9781958E-01
          1   -1    0    0  502    0  0.00000000000E+00  0.00000000000E+00  0.11002427913E+03  0.11002427913E+03  0.00000000000E+00 0.  1.
         13   -1    0    0    0    0 -0.00000000000E+00 -0.00000000000E+00 -0.10000000000E+04  0.10000000000E+04  0.00000000000E+00 0.  1.
    9000005    2    1    2  501    0  0.48813546982E-07  0.58366515532E-06 -0.88997572536E+03  0.11100242746E+04  0.66339814475E+03 0.  0.
         13    1    3    3    0    0  0.14167797805E+03  0.29102808663E+03 -0.56627500213E+03  0.65225560535E+03  0.00000000000E+00 0.  1.
          1    1    3    3  501    0 -0.14167797801E+03 -0.29102808605E+03 -0.32370072323E+03  0.45776866925E+03  0.00000000000E+00 0.  1.
         21    1    1    2  502  501 -0.48813567933E-07 -0.58366513231E-06  0.44991101506E-05  0.45370739357E-05  0.00000000000E+00 0. -1.
<mgrwt>
<rscale>  1 0.66339814E+03</rscale>
<asrwt>0</asrwt>
<pdfrwt beam="1">  1        1 0.40008913E+00 0.66339814E+03</pdfrwt>
<pdfrwt beam="2">0</pdfrwt>
<totfact> 0.13332754E+00</totfact>
</mgrwt>
</event>
<event>
 6    1  0.3263951E-003  0.6473684E+03  0.7818608E-02  0.9811730E-01
          1   -1    0    0  502    0  0.00000000000E+00  0.00000000000E+00  0.10477153674E+03  0.10477153674E+03  0.00000000000E+00 0.  1.
         13   -1    0    0    0    0 -0.00000000000E+00 -0.00000000000E+00 -0.10000000000E+04  0.10000000000E+04  0.00000000000E+00 0.  1.
    9000005    2    1    2  501    0  0.15721418436E-04  0.91312218657E-05 -0.89522855259E+03  0.11047714456E+04  0.64736835388E+03 0.  0.
         13    1    3    3    0    0 -0.23091349196E+03  0.41618507900E+02 -0.82813569933E+03  0.86073333703E+03  0.00000000000E+00 0.  1.
          3    1    3    3  501    0  0.23091350768E+03 -0.41618498769E+02 -0.67092853258E+02  0.24403810855E+03  0.00000000000E+00 0.  1.
         21    1    1    2  502  501 -0.15721418424E-04 -0.91312218693E-05  0.89329068079E-04  0.91160433380E-04  0.00000000000E+00 0.  1.
<mgrwt>
<rscale>  1 0.64736835E+03</rscale>
<asrwt>0</asrwt>
<pdfrwt beam="1">  1        1 0.38098821E+00 0.64736835E+03</pdfrwt>
<pdfrwt beam="2">0</pdfrwt>
<totfact> 0.16253617E+00</totfact>
</mgrwt>
</event>
<event>
 6    1  0.5963188E-003  0.6159397E+03  0.7818608E-02  0.9872877E-01
          1   -1    0    0  502    0  0.00000000000E+00  0.00000000000E+00  0.94846619501E+02  0.94846619501E+02  0.00000000000E+00 0.  1.
         13   -1    0    0    0    0 -0.00000000000E+00 -0.00000000000E+00 -0.10000000000E+04  0.10000000000E+04  0.00000000000E+00 0.  1.
    9000005    2    1    2  501    0  0.21647101528E-02 -0.31990525652E-02 -0.90514869742E+03  0.10948405490E+04  0.61593965877E+03 0.  0.
         13    1    3    3    0    0  0.29314787386E+03  0.69678695280E+02 -0.33938487924E+03  0.45384236557E+03  0.00000000000E+00 0.  1.
          3    1    3    3  501    0 -0.29314570915E+03 -0.69681894333E+02 -0.56576381818E+03  0.64099818342E+03  0.00000000000E+00 0.  1.
         21    1    1    2  502  501 -0.21647101528E-02  0.31990525652E-02 -0.46830763111E-02  0.60705116009E-02  0.00000000000E+00 0.  1.
<mgrwt>
<rscale>  1 0.61593966E+03</rscale>
<asrwt>0</asrwt>
<pdfrwt beam="1">  1        1 0.34489753E+00 0.61593966E+03</pdfrwt>
<pdfrwt beam="2">0</pdfrwt>
<totfact> 0.23522907E+00</totfact>
</mgrwt>
</event>
<event>
 6    1  0.3263951E-003  0.6486887E+03  0.7818608E-02  0.9809243E-01
          1   -1    0    0  502    0  0.00000000000E+00  0.00000000000E+00  0.10606174566E+03  0.10606174566E+03  0.00000000000E+00 0.  1.
         13   -1    0    0    0    0 -0.00000000000E+00 -0.00000000000E+00 -0.10000000000E+04  0.10000000000E+04  0.00000000000E+00 0.  1.
    9000005    2    1    2  501    0  0.54068319151E-01 -0.18685476654E-01 -0.89479968312E+03  0.11051984195E+04  0.64868873142E+03 0.  0.
         13    1    3    3    0    0 -0.24484689754E+03 -0.30745970341E+02 -0.80593390133E+03  0.84286699499E+03  0.00000000000E+00 0.  1.
          1    1    3    3  501    0  0.24490096586E+03  0.30727284864E+02 -0.88865781788E+02  0.26233142451E+03  0.00000000000E+00 0.  1.
         21    1    1    2  502  501 -0.54068319151E-01  0.18685476654E-01  0.86142877806E+00  0.86332616655E+00  0.00000000000E+00 0.  1.
<mgrwt>
<rscale>  1 0.64868873E+03</rscale>
<asrwt>0</asrwt>
<pdfrwt beam="1">  1        1 0.38567989E+00 0.64868873E+03</pdfrwt>
<pdfrwt beam="2">0</pdfrwt>
<totfact> 0.15492088E+00</totfact>
</mgrwt>
</event>
<event>
 6    1  0.3263951E-003  0.6518343E+03  0.7818608E-02  0.9803343E-01
          1   -1    0    0  502    0  0.00000000000E+00  0.00000000000E+00  0.10625048608E+03  0.10625048608E+03  0.00000000000E+00 0.  1.
         13   -1    0    0    0    0 -0.00000000000E+00 -0.00000000000E+00 -0.10000000000E+04  0.10000000000E+04  0.00000000000E+00 0.  1.
    9000005    2    1    2  501    0  0.13877121436E-02 -0.17388165904E-02 -0.89377796310E+03  0.11062219500E+04  0.65183430060E+03 0.  0.
         13    1    3    3    0    0  0.13706223007E+03 -0.29277531110E+03 -0.51725835959E+03  0.60996692391E+03  0.00000000000E+00 0.  1.
          3    1    3    3  501    0 -0.13706084236E+03  0.29277357228E+03 -0.37651960351E+03  0.49625502613E+03  0.00000000000E+00 0.  1.
         21    1    1    2  502  501 -0.13877121436E-02  0.17388165904E-02  0.28449179634E-01  0.28536030732E-01  0.00000000000E+00 0.  1.
<mgrwt>
<rscale>  1 0.65183430E+03</rscale>
<asrwt>0</asrwt>
<pdfrwt beam="1">  1        1 0.38636622E+00 0.65183430E+03</pdfrwt>
<pdfrwt beam="2">0</pdfrwt>
<totfact> 0.15375168E+00</totfact>
</mgrwt>
</event>
<event>
 6    1  0.3263951E-003  0.6851652E+03  0.7818608E-02  0.9742943E-01
          1   -1    0    0  502    0  0.00000000000E+00  0.00000000000E+00  0.11736577700E+03  0.11736577700E+03  0.00000000000E+00 0.  1.
         13   -1    0    0    0    0 -0.00000000000E+00 -0.00000000000E+00 -0.10000000000E+04  0.10000000000E+04  0.00000000000E+00 0.  1.
    9000005    2    1    2  501    0 -0.38896896456E-04  0.97010043348E-04 -0.88263715866E+03  0.11173628395E+04  0.68516520724E+03 0.  0.
         13    1    3    3    0    0  0.29195031392E+03 -0.12035321876E+03 -0.22470562954E+03  0.38757257774E+03  0.00000000000E+00 0.  1.
          1    1    3    3  501    0 -0.29195035282E+03  0.12035331577E+03 -0.65793152912E+03  0.72979026174E+03  0.00000000000E+00 0.  1.
         21    1    1    2  502  501  0.38896896448E-04 -0.97010043350E-04  0.29356579924E-02  0.29375179600E-02  0.00000000000E+00 0.  1.
<mgrwt>
<rscale>  1 0.68516521E+03</rscale>
<asrwt>0</asrwt>
<pdfrwt beam="1">  1        1 0.42678554E+00 0.68516521E+03</pdfrwt>
<pdfrwt beam="2">0</pdfrwt>
<totfact> 0.10071634E+00</totfact>
</mgrwt>
</event>
<event>
 6    1  0.3263951E-003  0.6370411E+03  0.7818608E-02  0.9831404E-01
          1   -1    0    0  502    0  0.00000000000E+00  0.00000000000E+00  0.11610657115E+03  0.11610657115E+03  0.00000000000E+00 0.  1.
         13   -1    0    0    0    0 -0.00000000000E+00 -0.00000000000E+00 -0.10000000000E+04  0.10000000000E+04  0.00000000000E+00 0.  1.
    9000005    2    1    2  501    0  0.24063825842E-01  0.21384350959E+00 -0.89854380391E+03  0.11014546157E+04  0.63704101647E+03 0.  0.
         13    1    3    3    0    0  0.20943608987E+03 -0.35627211355E+02 -0.85959335012E+03  0.88545666269E+03  0.00000000000E+00 0.  1.
          1    1    3    3  501    0 -0.20941202605E+03  0.35841054865E+02 -0.38950453788E+02  0.21599795304E+03  0.00000000000E+00 0.  1.
         21    1    1    2  502  501 -0.24063825842E-01 -0.21384350959E+00  0.14650375064E+02  0.14651955420E+02  0.00000000000E+00 0. -1.
<mgrwt>
<rscale>  1 0.63704105E+03</rscale>
<asrwt>0</asrwt>
<pdfrwt beam="1">  1        1 0.42220660E+00 0.63704105E+03</pdfrwt>
<pdfrwt beam="2">0</pdfrwt>
<totfact> 0.10664107E+00</totfact>
</mgrwt>
</event>
<event>
 6    1  0.3263951E-003  0.6298575E+03  0.7818608E-02  0.9845327E-01
          1   -1    0    0  502    0  0.00000000000E+00  0.00000000000E+00  0.99297457022E+02  0.99297457022E+02  0.00000000000E+00 0.  1.
         13   -1    0    0    0    0 -0.00000000000E+00 -0.00000000000E+00 -0.10000000000E+04  0.10000000000E+04  0.00000000000E+00 0.  1.
    9000005    2    1    2  501    0  0.94295095948E-03  0.16338118057E-02 -0.90081988960E+03  0.10991800952E+04  0.62985745075E+03 0.  0.
         13    1    3    3    0    0 -0.27001950467E+03 -0.13983426216E+03 -0.59341826483E+03  0.66679036496E+03  0.00000000000E+00 0.  1.
          3    1    3    3  501    0  0.27002044762E+03  0.13983589597E+03 -0.30740162477E+03  0.43238973028E+03  0.00000000000E+00 0.  1.
         21    1    1    2  502  501 -0.94295095947E-03 -0.16338118057E-02  0.11734662196E+00  0.11736178331E+00  0.00000000000E+00 0.  1.
<mgrwt>
<rscale>  1 0.62985745E+03</rscale>
<asrwt>0</asrwt>
<pdfrwt beam="1">  1        1 0.36108242E+00 0.62985745E+03</pdfrwt>
<pdfrwt beam="2">0</pdfrwt>
<totfact> 0.19943709E+00</totfact>
</mgrwt>
</event>
<event>
 6    1  0.3263951E-003  0.6478124E+03  0.7818608E-02  0.9810893E-01
          1   -1    0    0  502    0  0.00000000000E+00  0.00000000000E+00  0.10538470801E+03  0.10538470801E+03  0.00000000000E+00 0.  1.
         13   -1    0    0    0    0 -0.00000000000E+00 -0.00000000000E+00 -0.10000000000E+04  0.10000000000E+04  0.00000000000E+00 0.  1.
    9000005    2    1    2  501    0  0.24226557070E-01 -0.42872598903E-01 -0.89508333024E+03  0.11049140863E+04  0.64781244788E+03 0.  0.
         13    1    3    3    0    0  0.21390665510E+03 -0.76565761718E+02 -0.53769836098E+02  0.23347284261E+03  0.00000000000E+00 0.  1.
          1    1    3    3  501    0 -0.21388242854E+03  0.76522889119E+02 -0.84131349414E+03  0.87144124370E+03  0.00000000000E+00 0.  1.
         21    1    1    2  502  501 -0.24226557070E-01  0.42872598903E-01  0.46803824950E+00  0.47062170455E+00  0.00000000000E+00 0.  1.
<mgrwt>
<rscale>  1 0.64781245E+03</rscale>
<asrwt>0</asrwt>
<pdfrwt beam="1">  1        1 0.38321793E+00 0.64781245E+03</pdfrwt>
<pdfrwt beam="2">0</pdfrwt>
<totfact> 0.15887898E+00</totfact>
</mgrwt>
</event>
<event>
 6    1  0.3263951E-003  0.6541714E+03  0.7818608E-02  0.9798983E-01
          1   -1    0    0  502    0  0.00000000000E+00  0.00000000000E+00  0.10698512150E+03  0.10698512150E+03  0.00000000000E+00 0.  1.
         13   -1    0    0    0    0 -0.00000000000E+00 -0.00000000000E+00 -0.10000000000E+04  0.10000000000E+04  0.00000000000E+00 0.  1.
    9000005    2    1    2  501    0  0.13599111099E-05  0.32305234683E-05 -0.89301493962E+03  0.11069850603E+04  0.65417141584E+03 0.  0.
         13    1    3    3    0    0  0.11416825406E+03 -0.34233017982E+02 -0.96194317893E+03  0.96929921554E+03  0.00000000000E+00 0.  1.
          3    1    3    3  501    0 -0.11416825270E+03  0.34233021213E+02  0.68928239315E+02  0.13768584474E+03  0.00000000000E+00 0.  1.
         21    1    1    2  502  501 -0.13599111073E-05 -0.32305234689E-05  0.61117934610E-04  0.61218359755E-04  0.00000000000E+00 0.  1.
<mgrwt>
<rscale>  1 0.65417142E+03</rscale>
<asrwt>0</asrwt>
<pdfrwt beam="1">  1        1 0.38903763E+00 0.65417142E+03</pdfrwt>
<pdfrwt beam="2">0</pdfrwt>
<totfact> 0.14955441E+00</totfact>
</mgrwt>
</event>
<event>
 6    1  0.3263951E-003  0.6556656E+03  0.7818608E-02  0.9796206E-01
          1   -1    0    0  502    0  0.00000000000E+00  0.00000000000E+00  0.10757379688E+03  0.10757379688E+03  0.00000000000E+00 0.  1.
         13   -1    0    0    0    0 -0.00000000000E+00 -0.00000000000E+00 -0.10000000000E+04  0.10000000000E+04  0.00000000000E+00 0.  1.
    9000005    2    1    2  501    0  0.40478956595E-01 -0.12934901781E-01 -0.89252059916E+03  0.11074702765E+04  0.65566560959E+03 0.  0.
         13    1    3    3    0    0  0.28504294485E+01 -0.22243038653E+03 -0.39503948922E+02  0.22592911229E+03  0.00000000000E+00 0.  1.
          1    1    3    3  501    0 -0.28099504919E+01  0.22241745163E+03 -0.85301665023E+03  0.88154116421E+03  0.00000000000E+00 0.  1.
         21    1    1    2  502  501 -0.40478956595E-01  0.12934901781E-01  0.94396037837E-01  0.10352038239E+00  0.00000000000E+00 0. -1.
<mgrwt>
<rscale>  1 0.65566561E+03</rscale>
<asrwt>0</asrwt>
<pdfrwt beam="1">  1        1 0.39117827E+00 0.65566561E+03</pdfrwt>
<pdfrwt beam="2">0</pdfrwt>
<totfact> 0.14628003E+00</totfact>
</mgrwt>
</event>
<event>
 6    1  0.3263951E-003  0.6493590E+03  0.7818608E-02  0.9807983E-01
          1   -1    0    0  502    0  0.00000000000E+00  0.00000000000E+00  0.10595919039E+03  0.10595919039E+03  0.00000000000E+00 0.  1.
         13   -1    0    0    0    0 -0.00000000000E+00 -0.00000000000E+00 -0.10000000000E+04  0.10000000000E+04  0.00000000000E+00 0.  1.
    9000005    2    1    2  501    0  0.31867785825E-01 -0.88995320592E-02 -0.89458266767E+03  0.11054163231E+04  0.64935898926E+03 0.  0.
         13    1    3    3    0    0 -0.14633012450E+03 -0.21542367833E+02 -0.93929547748E+03  0.95086937745E+03  0.00000000000E+00 0.  1.
          3    1    3    3  501    0  0.14636199228E+03  0.21533468301E+02  0.44712809813E+02  0.15454694563E+03  0.00000000000E+00 0.  1.
         21    1    1    2  502  501 -0.31867785825E-01  0.88995320592E-02  0.54185806516E+00  0.54286731365E+00  0.00000000000E+00 0.  1.
<mgrwt>
<rscale>  1 0.64935899E+03</rscale>
<asrwt>0</asrwt>
<pdfrwt beam="1">  1        1 0.38530696E+00 0.64935899E+03</pdfrwt>
<pdfrwt beam="2">0</pdfrwt>
<totfact> 0.15549123E+00</totfact>
</mgrwt>
</event>
<event>
 6    1  0.3263951E-003  0.6230296E+03  0.7818608E-02  0.9858746E-01
          1   -1    0    0  502    0  0.00000000000E+00  0.00000000000E+00  0.97103290193E+02  0.97103290193E+02  0.00000000000E+00 0.  1.
         13   -1    0    0    0    0 -0.00000000000E+00 -0.00000000000E+00 -0.10000000000E+04  0.10000000000E+04  0.00000000000E+00 0.  1.
    9000005    2    1    2  501    0  0.27255242993E-01 -0.17014074508E-03 -0.90295520490E+03  0.10970387568E+04  0.62302963912E+03 0.  0.
         13    1    3    3    0    0 -0.11671386617E+03 -0.10339812088E+03 -0.92631887460E+03  0.93935081594E+03  0.00000000000E+00 0.  1.
          1    1    3    3  501    0  0.11674112141E+03  0.10339795074E+03  0.23363669701E+02  0.15768794091E+03  0.00000000000E+00 0.  1.
         21    1    1    2  502  501 -0.27255242993E-01  0.17014074508E-03  0.58495093785E-01  0.64533349637E-01  0.00000000000E+00 0. -1.
<mgrwt>
<rscale>  1 0.62302964E+03</rscale>
<asrwt>0</asrwt>
<pdfrwt beam="1">  1        1 0.35310362E+00 0.62302964E+03</pdfrwt>
<pdfrwt beam="2">0</pdfrwt>
<totfact> 0.21636945E+00</totfact>
</mgrwt>
</event>
<event>
 6    1  0.3263951E-003  0.6489420E+03  0.7818608E-02  0.9808766E-01
          1   -1    0    0  502    0  0.00000000000E+00  0.00000000000E+00  0.10528732225E+03  0.10528732225E+03  0.00000000000E+00 0.  1.
         13   -1    0    0    0    0 -0.00000000000E+00 -0.00000000000E+00 -0.10000000000E+04  0.10000000000E+04  0.00000000000E+00 0.  1.
    9000005    2    1    2  501    0  0.41546360354E-02 -0.82092703728E-02 -0.89471431342E+03  0.11052779773E+04  0.64894198841E+03 0.  0.
         13    1    3    3    0    0 -0.17313656816E+03  0.26271770646E+03 -0.31236038126E+03  0.44335749943E+03  0.00000000000E+00 0.  1.
          1    1    3    3  501    0  0.17314072279E+03 -0.26272591573E+03 -0.58235393216E+03  0.66192047785E+03  0.00000000000E+00 0.  1.
         21    1    1    2  502  501 -0.41546360354E-02  0.82092703728E-02  0.16356787789E-02  0.93449754258E-02  0.00000000000E+00 0.  1.
<mgrwt>
<rscale>  1 0.64894199E+03</rscale>
<asrwt>0</asrwt>
<pdfrwt beam="1">  1        1 0.38286380E+00 0.64894199E+03</pdfrwt>
<pdfrwt beam="2">0</pdfrwt>
<totfact> 0.15941926E+00</totfact>
</mgrwt>
</event>
<event>
 6    1  0.3263951E-003  0.6023644E+03  0.7818608E-02  0.9900513E-01
          1   -1    0    0  502    0  0.00000000000E+00  0.00000000000E+00  0.90710748420E+02  0.90710748420E+02  0.00000000000E+00 0.  1.
         13   -1    0    0    0    0 -0.00000000000E+00 -0.00000000000E+00 -0.10000000000E+04  0.10000000000E+04  0.00000000000E+00 0.  1.
    9000005    2    1    2  501    0  0.14751715469E-04 -0.64135009268E-05 -0.90928928349E+03  0.10907107127E+04  0.60236438946E+03 0.  0.
         13    1    3    3    0    0  0.26922754199E+03  0.13447387227E+03 -0.47637518843E+03  0.56347139399E+03  0.00000000000E+00 0.  1.
          1    1    3    3  501    0 -0.26922752724E+03 -0.13447387869E+03 -0.43291409506E+03  0.52723931869E+03  0.00000000000E+00 0.  1.
         21    1    1    2  502  501 -0.14751715435E-04  0.64135009206E-05  0.31912160310E-04  0.35736984736E-04  0.00000000000E+00 0. -1.
<mgrwt>
<rscale>  1 0.60236439E+03</rscale>
<asrwt>0</asrwt>
<pdfrwt beam="1">  1        1 0.32985796E+00 0.60236439E+03</pdfrwt>
<pdfrwt beam="2">0</pdfrwt>
<totfact> 0.27403825E+00</totfact>
</mgrwt>
</event>
<event>
 6    1  0.3263951E-003  0.6341266E+03  0.7818608E-02  0.9837029E-01
          1   -1    0    0  502    0  0.00000000000E+00  0.00000000000E+00  0.10316670668E+03  0.10316670668E+03  0.00000000000E+00 0.  1.
         13   -1    0    0    0    0 -0.00000000000E+00 -0.00000000000E+00 -0.10000000000E+04  0.10000000000E+04  0.00000000000E+00 0.  1.
    9000005    2    1    2  501    0 -0.37633912669E+01  0.39169186024E+00 -0.89789070159E+03  0.10992380111E+04  0.63411527076E+03 0.  0.
         13    1    3    3    0    0  0.30586473732E+03  0.57708926380E+02 -0.53331025939E+03  0.61749768460E+03  0.00000000000E+00 0.  1.
          3    1    3    3  501    0 -0.30962812858E+03 -0.57317234519E+02 -0.36458044220E+03  0.48174032654E+03  0.00000000000E+00 0.  1.
         21    1    1    2  502  501  0.37633912669E+01 -0.39169186024E+00  0.10574082649E+01  0.39286955316E+01  0.00000000000E+00 0. -1.
<mgrwt>
<rscale>  1 0.63412656E+03</rscale>
<asrwt>0</asrwt>
<pdfrwt beam="1">  1        1 0.37515245E+00 0.63412656E+03</pdfrwt>
<pdfrwt beam="2">0</pdfrwt>
<totfact> 0.17287495E+00</totfact>
</mgrwt>
</event>
<event>
 6    1  0.3263951E-003  0.6460751E+03  0.7818608E-02  0.9814172E-01
          1   -1    0    0  502    0  0.00000000000E+00  0.00000000000E+00  0.10435325362E+03  0.10435325362E+03  0.00000000000E+00 0.  1.
         13   -1    0    0    0    0 -0.00000000000E+00 -0.00000000000E+00 -0.10000000000E+04  0.10000000000E+04  0.00000000000E+00 0.  1.
    9000005    2    1    2  501    0 -0.85275331685E-07  0.59451179197E-05 -0.89564675257E+03  0.11043532450E+04  0.64607506100E+03 0.  0.
         13    1    3    3    0    0  0.67412334420E+02  0.21918329960E+03 -0.83673744855E+03  0.86759166631E+03  0.00000000000E+00 0.  1.
          1    1    3    3  501    0 -0.67412334505E+02 -0.21918329365E+03 -0.58909304019E+02  0.23676157873E+03  0.00000000000E+00 0.  1.
         21    1    1    2  502  501  0.85275331403E-07 -0.59451179067E-05  0.61818271838E-05  0.85771024325E-05  0.00000000000E+00 0. -1.
<mgrwt>
<rscale>  1 0.64607506E+03</rscale>
<asrwt>0</asrwt>
<pdfrwt beam="1">  1        1 0.37946718E+00 0.64607506E+03</pdfrwt>
<pdfrwt beam="2">0</pdfrwt>
<totfact> 0.16510689E+00</totfact>
</mgrwt>
</event>
<event>
 6    1  0.3263951E-003  0.6461476E+03  0.7818608E-02  0.9814035E-01
          3   -1    0    0  502    0  0.00000000000E+00  0.00000000000E+00  0.10536004953E+03  0.10536004953E+03  0.00000000000E+00 0.  1.
         13   -1    0    0    0    0 -0.00000000000E+00 -0.00000000000E+00 -0.10000000000E+04  0.10000000000E+04  0.00000000000E+00 0.  1.
    9000005    2    1    2  501    0  0.32435946588E-01  0.75917507850E+00 -0.89545858952E+03  0.11042431033E+04  0.64614717235E+03 0.  0.
         13    1    3    3    0    0 -0.55317282648E+02  0.43517525091E+02  0.91148490576E+02  0.11515999342E+03  0.00000000000E+00 0.  1.
          3    1    3    3  501    0  0.55349718594E+02 -0.42758350013E+02 -0.98660708010E+03  0.98908310993E+03  0.00000000000E+00 0.  1.
         21    1    1    2  502  501 -0.32435946588E-01 -0.75917507850E+00  0.81863905147E+00  0.11169461881E+01  0.00000000000E+00 0.  1.
<mgrwt>
<rscale>  1 0.64614762E+03</rscale>
<asrwt>0</asrwt>
<pdfrwt beam="1">  1        3 0.38312826E+00 0.64614762E+03</pdfrwt>
<pdfrwt beam="2">0</pdfrwt>
<totfact> 0.72709358E-02</totfact>
</mgrwt>
</event>
<event>
 6    1  0.3263951E-003  0.6569806E+03  0.7818608E-02  0.9793768E-01
          1   -1    0    0  502    0  0.00000000000E+00  0.00000000000E+00  0.10790886214E+03  0.10790886214E+03  0.00000000000E+00 0.  1.
         13   -1    0    0    0    0 -0.00000000000E+00 -0.00000000000E+00 -0.10000000000E+04  0.10000000000E+04  0.00000000000E+00 0.  1.
    9000005    2    1    2  501    0  0.46420112747E-03 -0.32230699145E-03 -0.89209410619E+03  0.11079058405E+04  0.65698056066E+03 0.  0.
         13    1    3    3    0    0  0.15376139209E+03 -0.87179330946E+01 -0.93534561658E+03  0.94793986651E+03  0.00000000000E+00 0.  1.
          3    1    3    3  501    0 -0.15376092788E+03  0.87176107876E+01  0.43251510387E+02  0.15996597398E+03  0.00000000000E+00 0.  1.
         21    1    1    2  502  501 -0.46420112746E-03  0.32230699145E-03  0.29683393193E-02  0.30216556385E-02  0.00000000000E+00 0.  1.
<mgrwt>
<rscale>  1 0.65698056E+03</rscale>
<asrwt>0</asrwt>
<pdfrwt beam="1">  1        1 0.39239669E+00 0.65698056E+03</pdfrwt>
<pdfrwt beam="2">0</pdfrwt>
<totfact> 0.14443431E+00</totfact>
</mgrwt>
</event>
<event>
 6    1  0.3263951E-003  0.6567876E+03  0.7818608E-02  0.9794125E-01
          1   -1    0    0  502    0  0.00000000000E+00  0.00000000000E+00  0.10922825942E+03  0.10922825942E+03  0.00000000000E+00 0.  1.
         13   -1    0    0    0    0 -0.00000000000E+00 -0.00000000000E+00 -0.10000000000E+04  0.10000000000E+04  0.00000000000E+00 0.  1.
    9000005    2    1    2  501    0 -0.70706723727E+00  0.31232928066E+00 -0.89203706504E+03  0.11077455121E+04  0.65678717759E+03 0.  0.
         13    1    3    3    0    0 -0.12028683031E+03 -0.30439699069E+03 -0.49080297944E+03  0.58992712610E+03  0.00000000000E+00 0.  1.
          3    1    3    3  501    0  0.11957976307E+03  0.30470931997E+03 -0.40123408560E+03  0.51781838598E+03  0.00000000000E+00 0.  1.
         21    1    1    2  502  501  0.70706723727E+00 -0.31232928066E+00  0.12653244579E+01  0.14827473289E+01  0.00000000000E+00 0.  1.
<mgrwt>
<rscale>  1 0.65678763E+03</rscale>
<asrwt>0</asrwt>
<pdfrwt beam="1">  1        1 0.39719451E+00 0.65678763E+03</pdfrwt>
<pdfrwt beam="2">0</pdfrwt>
<totfact> 0.13751649E+00</totfact>
</mgrwt>
</event>
<event>
 6    1  0.3263951E-003  0.6445345E+03  0.7818608E-02  0.9817089E-01
          1   -1    0    0  502    0  0.00000000000E+00  0.00000000000E+00  0.13317616964E+03  0.13317616964E+03  0.00000000000E+00 0.  1.
         13   -1    0    0    0    0 -0.00000000000E+00 -0.00000000000E+00 -0.10000000000E+04  0.10000000000E+04  0.00000000000E+00 0.  1.
    9000005    2    1    2  501    0  0.75196539861E+00 -0.68781777674E+02 -0.69382859570E+03  0.94700729573E+03  0.64085349307E+03 0.  0.
         13    1    3    3    0    0 -0.11336366844E+03  0.24357490862E+03 -0.14501491052E+03  0.30530211546E+03  0.00000000000E+00 0.  1.
          1    1    3    3  501    0  0.11411563384E+03 -0.31235668629E+03 -0.54881368517E+03  0.64170518027E+03  0.00000000000E+00 0.  1.
         21    1    1    2  502  501 -0.75196539861E+00  0.68781777674E+02 -0.17299523467E+03  0.18616887390E+03  0.00000000000E+00 0.  1.
<mgrwt>
<rscale>  1 0.64453448E+03</rscale>
<asrwt>0</asrwt>
<pdfrwt beam="1">  1        1 0.48427800E+00 0.64453448E+03</pdfrwt>
<pdfrwt beam="2">0</pdfrwt>
<totfact> 0.55024662E-01</totfact>
</mgrwt>
</event>
<event>
 6    1  0.3263951E-003  0.6498792E+03  0.7818608E-02  0.9807006E-01
          1   -1    0    0  502    0  0.00000000000E+00  0.00000000000E+00  0.10558580541E+03  0.10558580541E+03  0.00000000000E+00 0.  1.
         13   -1    0    0    0    0 -0.00000000000E+00 -0.00000000000E+00 -0.10000000000E+04  0.10000000000E+04  0.00000000000E+00 0.  1.
    9000005    2    1    2  501    0  0.27953793165E-05 -0.53175442911E-05 -0.89441425196E+03  0.11055857477E+04  0.64987921297E+03 0.  0.
         13    1    3    3    0    0 -0.14649156465E+03 -0.97315916993E+01  0.45944236501E+02  0.15383548114E+03  0.00000000000E+00 0.  1.
          1    1    3    3  501    0  0.14649156745E+03  0.97315863817E+01 -0.94035848846E+03  0.95175026658E+03  0.00000000000E+00 0.  1.
         21    1    1    2  502  501 -0.27953793126E-05  0.53175442915E-05  0.57373717212E-04  0.57687380332E-04  0.00000000000E+00 0. -1.
<mgrwt>
<rscale>  1 0.64987921E+03</rscale>
<asrwt>0</asrwt>
<pdfrwt beam="1">  1        1 0.38394919E+00 0.64987921E+03</pdfrwt>
<pdfrwt beam="2">0</pdfrwt>
<totfact> 0.15764080E+00</totfact>
</mgrwt>
</event>
<event>
 6    1  0.3263951E-003  0.6465695E+03  0.7818608E-02  0.9813238E-01
          1   -1    0    0  502    0  0.00000000000E+00  0.00000000000E+00  0.10451334205E+03  0.10451334205E+03  0.00000000000E+00 0.  1.
         13   -1    0    0    0    0 -0.00000000000E+00 -0.00000000000E+00 -0.10000000000E+04  0.10000000000E+04  0.00000000000E+00 0.  1.
    9000005    2    1    2  501    0 -0.24039155733E-05  0.25385860965E-04 -0.89548695429E+03  0.11045130446E+04  0.64656954801E+03 0.  0.
         13    1    3    3    0    0  0.30432572527E+03  0.87676240818E+02 -0.33688006517E+03  0.46237371095E+03  0.00000000000E+00 0.  1.
          3    1    3    3  501    0 -0.30432572767E+03 -0.87676215432E+02 -0.55860688912E+03  0.64213933367E+03  0.00000000000E+00 0.  1.
         21    1    1    2  502  501  0.24039155636E-05 -0.25385860967E-04  0.29634113531E-03  0.29743619354E-03  0.00000000000E+00 0.  1.
<mgrwt>
<rscale>  1 0.64656955E+03</rscale>
<asrwt>0</asrwt>
<pdfrwt beam="1">  1        1 0.38004932E+00 0.64656955E+03</pdfrwt>
<pdfrwt beam="2">0</pdfrwt>
<totfact> 0.16411848E+00</totfact>
</mgrwt>
</event>
<event>
 6    1  0.3263951E-003  0.6018953E+03  0.7818608E-02  0.9901482E-01
          1   -1    0    0  502    0  0.00000000000E+00  0.00000000000E+00  0.90569803880E+02  0.90569803880E+02  0.00000000000E+00 0.  1.
         13   -1    0    0    0    0 -0.00000000000E+00 -0.00000000000E+00 -0.10000000000E+04  0.10000000000E+04  0.00000000000E+00 0.  1.
    9000005    2    1    2  501    0  0.20469333833E-04  0.14411440311E-04 -0.90943049921E+03  0.10905694998E+04  0.60189534048E+03 0.  0.
         13    1    3    3    0    0  0.29659711387E+03 -0.49781877070E+02 -0.47468083054E+03  0.56193413682E+03  0.00000000000E+00 0.  1.
          1    1    3    3  501    0 -0.29659709340E+03  0.49781891482E+02 -0.43474966867E+03  0.52863536293E+03  0.00000000000E+00 0.  1.
         21    1    1    2  502  501 -0.20469333836E-04 -0.14411440312E-04  0.30309333127E-03  0.30412538648E-03  0.00000000000E+00 0.  1.
<mgrwt>
<rscale>  1 0.60189534E+03</rscale>
<asrwt>0</asrwt>
<pdfrwt beam="1">  1        1 0.32934544E+00 0.60189534E+03</pdfrwt>
<pdfrwt beam="2">0</pdfrwt>
<totfact> 0.27546534E+00</totfact>
</mgrwt>
</event>
<event>
 6    1  0.3263951E-003  0.6418540E+03  0.7818608E-02  0.9822186E-01
          1   -1    0    0  502    0  0.00000000000E+00  0.00000000000E+00  0.10299415125E+03  0.10299415125E+03  0.00000000000E+00 0.  1.
         13   -1    0    0    0    0 -0.00000000000E+00 -0.00000000000E+00 -0.10000000000E+04  0.10000000000E+04  0.00000000000E+00 0.  1.
    9000005    2    1    2  501    0 -0.25442333282E-04  0.18664602578E-04 -0.89700585045E+03  0.11029941196E+04  0.64185398046E+03 0.  0.
         13    1    3    3    0    0  0.67480158629E+02  0.26726006434E+03 -0.73093911513E+03  0.78118723993E+03  0.00000000000E+00 0.  1.
          1    1    3    3  501    0 -0.67480184071E+02 -0.26726004567E+03 -0.16606673532E+03  0.32180687972E+03  0.00000000000E+00 0.  1.
         21    1    1    2  502  501  0.25442333288E-04 -0.18664602539E-04  0.16962230824E-05  0.31599950693E-04  0.00000000000E+00 0.  1.
<mgrwt>
<rscale>  1 0.64185398E+03</rscale>
<asrwt>0</asrwt>
<pdfrwt beam="1">  1        1 0.37452498E+00 0.64185398E+03</pdfrwt>
<pdfrwt beam="2">0</pdfrwt>
<totfact> 0.17373053E+00</totfact>
</mgrwt>
</event>
<event>
 6    1  0.3263951E-003  0.6549710E+03  0.7818608E-02  0.9797496E-01
          1   -1    0    0  502    0  0.00000000000E+00  0.00000000000E+00  0.10724679545E+03  0.10724679545E+03  0.00000000000E+00 0.  1.
         13   -1    0    0    0    0 -0.00000000000E+00 -0.00000000000E+00 -0.10000000000E+04  0.10000000000E+04  0.00000000000E+00 0.  1.
    9000005    2    1    2  501    0  0.84451250444E-04  0.65492555144E-04 -0.89275318862E+03  0.11072466874E+04  0.65497096956E+03 0.  0.
         13    1    3    3    0    0 -0.24356377862E+03 -0.55365058132E+02 -0.80442585860E+03  0.84231203595E+03  0.00000000000E+00 0.  1.
          3    1    3    3  501    0  0.24356386307E+03  0.55365123624E+02 -0.88327330017E+02  0.26493465145E+03  0.00000000000E+00 0.  1.
         21    1    1    2  502  501 -0.84451250435E-04 -0.65492555144E-04 -0.15928665937E-04  0.10805096426E-03  0.00000000000E+00 0. -1.
<mgrwt>
<rscale>  1 0.65497097E+03</rscale>
<asrwt>0</asrwt>
<pdfrwt beam="1">  1        1 0.38998917E+00 0.65497097E+03</pdfrwt>
<pdfrwt beam="2">0</pdfrwt>
<totfact> 0.14808669E+00</totfact>
</mgrwt>
</event>
<event>
 6    1  0.3263951E-003  0.6455662E+03  0.7818608E-02  0.9815135E-01
          1   -1    0    0  502    0  0.00000000000E+00  0.00000000000E+00  0.10420736710E+03  0.10420736710E+03  0.00000000000E+00 0.  1.
         13   -1    0    0    0    0 -0.00000000000E+00 -0.00000000000E+00 -0.10000000000E+04  0.10000000000E+04  0.00000000000E+00 0.  1.
    9000005    2    1    2  501    0 -0.64552698274E-03  0.22348440706E-02 -0.89581097741E+03  0.11041888757E+04  0.64556623667E+03 0.  0.
         13    1    3    3    0    0 -0.27547258051E+02  0.30601036830E+03 -0.61713001577E+03  0.68938425664E+03  0.00000000000E+00 0.  1.
          1    1    3    3  501    0  0.27546612524E+02 -0.30600813345E+03 -0.27868096164E+03  0.41480461905E+03  0.00000000000E+00 0.  1.
         21    1    1    2  502  501  0.64552698274E-03 -0.22348440706E-02  0.18344512468E-01  0.18491413434E-01  0.00000000000E+00 0. -1.
<mgrwt>
<rscale>  1 0.64556624E+03</rscale>
<asrwt>0</asrwt>
<pdfrwt beam="1">  1        1 0.37893668E+00 0.64556624E+03</pdfrwt>
<pdfrwt beam="2">0</pdfrwt>
<totfact> 0.16601433E+00</totfact>
</mgrwt>
</event>
<event>
 6    1  0.3263951E-003  0.4570206E+03  0.7818608E-02  0.1025649E+00
          1   -1    0    0  502    0  0.00000000000E+00  0.00000000000E+00  0.52557974086E+02  0.52557974086E+02  0.00000000000E+00 0.  1.
         13   -1    0    0    0    0 -0.00000000000E+00 -0.00000000000E+00 -0.10000000000E+04  0.10000000000E+04  0.00000000000E+00 0.  1.
    9000005    2    1    2  501    0 -0.96752070995E+00  0.82774767386E+00 -0.94613798070E+03  0.10507353945E+04  0.45701878452E+03 0.  0.
         13    1    3    3    0    0 -0.16635724893E+03  0.47263808142E+02 -0.81889623211E+03  0.83695856575E+03  0.00000000000E+00 0.  1.
          3    1    3    3  501    0  0.16538972822E+03 -0.46436060468E+02 -0.12724174859E+03  0.21377682872E+03  0.00000000000E+00 0.  1.
         21    1    1    2  502  501  0.96752070995E+00 -0.82774767386E+00 -0.13040452134E+01  0.18225796154E+01  0.00000000000E+00 0.  1.
<mgrwt>
<rscale>  1 0.45702056E+03</rscale>
<asrwt>0</asrwt>
<pdfrwt beam="1">  1        1 0.19112031E+00 0.45702056E+03</pdfrwt>
<pdfrwt beam="2">0</pdfrwt>
<totfact> 0.11361042E+01</totfact>
</mgrwt>
</event>
<event>
 6    1  0.3263951E-003  0.6592130E+03  0.7818608E-02  0.9789644E-01
          1   -1    0    0  502    0  0.00000000000E+00  0.00000000000E+00  0.10864070942E+03  0.10864070942E+03  0.00000000000E+00 0.  1.
         13   -1    0    0    0    0 -0.00000000000E+00 -0.00000000000E+00 -0.10000000000E+04  0.10000000000E+04  0.00000000000E+00 0.  1.
    9000005    2    1    2  501    0  0.36296965732E-04 -0.61658599449E-04 -0.89135954955E+03  0.11086404407E+04  0.65921300069E+03 0.  0.
         13    1    3    3    0    0 -0.29562745170E+03 -0.11400028252E+03 -0.29293723322E+03  0.43151347281E+03  0.00000000000E+00 0.  1.
          1    1    3    3  501    0  0.29562748800E+03  0.11400022086E+03 -0.59842231633E+03  0.67712696793E+03  0.00000000000E+00 0.  1.
         21    1    1    2  502  501 -0.36296965709E-04  0.61658599445E-04  0.25897322612E-03  0.26867523974E-03  0.00000000000E+00 0. -1.
<mgrwt>
<rscale>  1 0.65921300E+03</rscale>
<asrwt>0</asrwt>
<pdfrwt beam="1">  1        1 0.39505796E+00 0.65921300E+03</pdfrwt>
<pdfrwt beam="2">0</pdfrwt>
<totfact> 0.14049604E+00</totfact>
</mgrwt>
</event>
<event>
 6    1  0.3263951E-003  0.6377661E+03  0.7818608E-02  0.9830010E-01
          1   -1    0    0  502    0  0.00000000000E+00  0.00000000000E+00  0.10168831417E+03  0.10168831417E+03  0.00000000000E+00 0.  1.
         13   -1    0    0    0    0 -0.00000000000E+00 -0.00000000000E+00 -0.10000000000E+04  0.10000000000E+04  0.00000000000E+00 0.  1.
    9000005    2    1    2  501    0 -0.34075284020E-04  0.37643607499E-04 -0.89831359377E+03  0.11016864056E+04  0.63776611971E+03 0.  0.
         13    1    3    3    0    0  0.29531716102E+03  0.93373278267E+02 -0.31810527446E+03  0.44398396404E+03  0.00000000000E+00 0.  1.
          3    1    3    3  501    0 -0.29531719510E+03 -0.93373240623E+02 -0.58020831930E+03  0.65770244151E+03  0.00000000000E+00 0.  1.
         21    1    1    2  502  501  0.34075284018E-04 -0.37643607496E-04  0.19079347325E-02  0.19086102561E-02  0.00000000000E+00 0.  1.
<mgrwt>
<rscale>  1 0.63776612E+03</rscale>
<asrwt>0</asrwt>
<pdfrwt beam="1">  1        1 0.36977647E+00 0.63776612E+03</pdfrwt>
<pdfrwt beam="2">0</pdfrwt>
<totfact> 0.18242109E+00</totfact>
</mgrwt>
</event>
<event>
 6    1  0.3263951E-003  0.6197215E+03  0.7818608E-02  0.9865314E-01
          1   -1    0    0  502    0  0.00000000000E+00  0.00000000000E+00  0.96013745625E+02  0.96013745625E+02  0.00000000000E+00 0.  1.
         13   -1    0    0    0    0 -0.00000000000E+00 -0.00000000000E+00 -0.10000000000E+04  0.10000000000E+04  0.00000000000E+00 0.  1.
    9000005    2    1    2  501    0  0.79218851283E-05 -0.77818268664E-05 -0.90398630846E+03  0.10960136904E+04  0.61972152106E+03 0.  0.
         13    1    3    3    0    0  0.18829423097E+03  0.17229547333E+03 -0.14124358905E+03  0.29170224372E+03  0.00000000000E+00 0.  1.
          3    1    3    3  501    0 -0.18829422305E+03 -0.17229548111E+03 -0.76274271942E+03  0.80431144668E+03  0.00000000000E+00 0.  1.
         21    1    1    2  502  501 -0.79218851312E-05  0.77818268802E-05  0.54089504018E-04  0.55217637930E-04  0.00000000000E+00 0. -1.
<mgrwt>
<rscale>  1 0.61972152E+03</rscale>
<asrwt>0</asrwt>
<pdfrwt beam="1">  1        1 0.34914163E+00 0.61972152E+03</pdfrwt>
<pdfrwt beam="2">0</pdfrwt>
<totfact> 0.22528056E+00</totfact>
</mgrwt>
</event>
<event>
 6    1  0.3263951E-003  0.6479717E+03  0.7818608E-02  0.9810593E-01
          1   -1    0    0  502    0  0.00000000000E+00  0.00000000000E+00  0.10496745091E+03  0.10496745091E+03  0.00000000000E+00 0.  1.
         13   -1    0    0    0    0 -0.00000000000E+00 -0.00000000000E+00 -0.10000000000E+04  0.10000000000E+04  0.00000000000E+00 0.  1.
    9000005    2    1    2  501    0  0.43670550866E-04 -0.39906288407E-04 -0.89503318264E+03  0.11049668146E+04  0.64797165321E+03 0.  0.
         13    1    3    3    0    0  0.17359691255E+03  0.27040382690E+03 -0.37694445200E+03  0.49531932886E+03  0.00000000000E+00 0.  1.
          1    1    3    3  501    0 -0.17359686888E+03 -0.27040386680E+03 -0.51808873064E+03  0.60964748575E+03  0.00000000000E+00 0.  1.
         21    1    1    2  502  501 -0.43670550860E-04  0.39906288408E-04  0.63354700741E-03  0.63630294629E-03  0.00000000000E+00 0.  1.
<mgrwt>
<rscale>  1 0.64797165E+03</rscale>
<asrwt>0</asrwt>
<pdfrwt beam="1">  1        1 0.38170063E+00 0.64797165E+03</pdfrwt>
<pdfrwt beam="2">0</pdfrwt>
<totfact> 0.16134532E+00</totfact>
</mgrwt>
</event>
<event>
 6    1  0.3263951E-003  0.6455939E+03  0.7818608E-02  0.9815082E-01
          1   -1    0    0  502    0  0.00000000000E+00  0.00000000000E+00  0.10419792957E+03  0.10419792957E+03  0.00000000000E+00 0.  1.
         13   -1    0    0    0    0 -0.00000000000E+00 -0.00000000000E+00 -0.10000000000E+04  0.10000000000E+04  0.00000000000E+00 0.  1.
    9000005    2    1    2  501    0 -0.36120797461E-04  0.48479029147E-05 -0.89580211920E+03  0.11041978687E+04  0.64559390986E+03 0.  0.
         13    1    3    3    0    0 -0.18028129945E+03  0.26776116408E+03 -0.44910320885E+03  0.55307420851E+03  0.00000000000E+00 0.  1.
          1    1    3    3  501    0  0.18028126332E+03 -0.26776115923E+03 -0.44669891035E+03  0.55112366017E+03  0.00000000000E+00 0.  1.
         21    1    1    2  502  501  0.36120797483E-04 -0.48479029304E-05  0.48768449032E-04  0.60881654006E-04  0.00000000000E+00 0.  1.
<mgrwt>
<rscale>  1 0.64559391E+03</rscale>
<asrwt>0</asrwt>
<pdfrwt beam="1">  1        1 0.37890236E+00 0.64559391E+03</pdfrwt>
<pdfrwt beam="2">0</pdfrwt>
<totfact> 0.16607135E+00</totfact>
</mgrwt>
</event>
<event>
 6    1  0.3263951E-003  0.6449856E+03  0.7818608E-02  0.9816234E-01
          1   -1    0    0  502    0  0.00000000000E+00  0.00000000000E+00  0.10410309738E+03  0.10410309738E+03  0.00000000000E+00 0.  1.
         13   -1    0    0    0    0 -0.00000000000E+00 -0.00000000000E+00 -0.10000000000E+04  0.10000000000E+04  0.00000000000E+00 0.  1.
    9000005    2    1    2  501    0  0.44644052018E-02  0.17810871345E-02 -0.89599832993E+03  0.11040015562E+04  0.64498560366E+03 0.  0.
         13    1    3    3    0    0  0.64344944823E+02 -0.29650698548E+03 -0.63507001525E+03  0.70382568057E+03  0.00000000000E+00 0.  1.
          1    1    3    3  501    0 -0.64340480418E+02  0.29650876656E+03 -0.26092831468E+03  0.40017587568E+03  0.00000000000E+00 0.  1.
         21    1    1    2  502  501 -0.44644052018E-02 -0.17810871345E-02  0.10142731013E+00  0.10154113662E+00  0.00000000000E+00 0.  1.
<mgrwt>
<rscale>  1 0.64498560E+03</rscale>
<asrwt>0</asrwt>
<pdfrwt beam="1">  1        1 0.37855752E+00 0.64498560E+03</pdfrwt>
<pdfrwt beam="2">0</pdfrwt>
<totfact> 0.16667244E+00</totfact>
</mgrwt>
</event>
<event>
 6    1  0.3263951E-003  0.6436641E+03  0.7818608E-02  0.9818741E-01
          1   -1    0    0  502    0  0.00000000000E+00  0.00000000000E+00  0.10357592075E+03  0.10357592075E+03  0.00000000000E+00 0.  1.
         13   -1    0    0    0    0 -0.00000000000E+00 -0.00000000000E+00 -0.10000000000E+04  0.10000000000E+04  0.00000000000E+00 0.  1.
    9000005    2    1    2  501    0  0.65545606844E-05 -0.14029016143E-04 -0.89642412581E+03  0.11035758717E+04  0.64366411368E+03 0.  0.
         13    1    3    3    0    0 -0.15869184584E+03 -0.65383871094E+02  0.18559002031E+02  0.17263426395E+03  0.00000000000E+00 0.  1.
          3    1    3    3  501    0  0.15869185239E+03  0.65383857065E+02 -0.91498312784E+03  0.93094160773E+03  0.00000000000E+00 0.  1.
         21    1    1    2  502  501 -0.65545606740E-05  0.14029016151E-04  0.46559338692E-04  0.49066766545E-04  0.00000000000E+00 0. -1.
<mgrwt>
<rscale>  1 0.64366411E+03</rscale>
<asrwt>0</asrwt>
<pdfrwt beam="1">  1        1 0.37664051E+00 0.64366411E+03</pdfrwt>
<pdfrwt beam="2">0</pdfrwt>
<totfact> 0.16998773E+00</totfact>
</mgrwt>
</event>
<event>
 6    1  0.3263951E-003  0.6439897E+03  0.7818608E-02  0.9818123E-01
          1   -1    0    0  502    0  0.00000000000E+00  0.00000000000E+00  0.10387172455E+03  0.10387172455E+03  0.00000000000E+00 0.  1.
         13   -1    0    0    0    0 -0.00000000000E+00 -0.00000000000E+00 -0.10000000000E+04  0.10000000000E+04  0.00000000000E+00 0.  1.
    9000005    2    1    2  501    0  0.18519893843E+00  0.16871518638E+00 -0.89622422517E+03  0.11036034527E+04  0.64398963980E+03 0.  0.
         13    1    3    3    0    0 -0.27687762092E+03  0.15087309599E+03 -0.33658791106E+03  0.46121072183E+03  0.00000000000E+00 0.  1.
          1    1    3    3  501    0  0.27706281986E+03 -0.15070438081E+03 -0.55963631411E+03  0.64239273082E+03  0.00000000000E+00 0.  1.
         21    1    1    2  502  501 -0.18519893843E+00 -0.16871518638E+00  0.95949725283E-01  0.26827189695E+00  0.00000000000E+00 0.  1.
<mgrwt>
<rscale>  1 0.64398969E+03</rscale>
<asrwt>0</asrwt>
<pdfrwt beam="1">  1        1 0.37771616E+00 0.64398969E+03</pdfrwt>
<pdfrwt beam="2">0</pdfrwt>
<totfact> 0.16813266E+00</totfact>
</mgrwt>
</event>
<event>
 6    1  0.3263951E-003  0.6489097E+03  0.7818608E-02  0.9808827E-01
          1   -1    0    0  502    0  0.00000000000E+00  0.00000000000E+00  0.10535060580E+03  0.10535060580E+03  0.00000000000E+00 0.  1.
         13   -1    0    0    0    0 -0.00000000000E+00 -0.00000000000E+00 -0.10000000000E+04  0.10000000000E+04  0.00000000000E+00 0.  1.
    9000005    2    1    2  501    0 -0.30417098091E-01 -0.76453205715E-01 -0.89470487516E+03  0.11052513665E+04  0.64890967232E+03 0.  0.
         13    1    3    3    0    0 -0.41900056607E+02 -0.31910693813E+03 -0.51787597962E+03  0.60973796255E+03  0.00000000000E+00 0.  1.
          3    1    3    3  501    0  0.41869639509E+02  0.31903048492E+03 -0.37682889555E+03  0.49551340400E+03  0.00000000000E+00 0.  1.
         21    1    1    2  502  501  0.30417098091E-01  0.76453205715E-01  0.55480959493E-01  0.99239253255E-01  0.00000000000E+00 0. -1.
<mgrwt>
<rscale>  1 0.64890968E+03</rscale>
<asrwt>0</asrwt>
<pdfrwt beam="1">  1        1 0.38309392E+00 0.64890968E+03</pdfrwt>
<pdfrwt beam="2">0</pdfrwt>
<totfact> 0.15904738E+00</totfact>
</mgrwt>
</event>
<event>
 6    1  0.3263951E-003  0.6401145E+03  0.7818608E-02  0.9825508E-01
          1   -1    0    0  502    0  0.00000000000E+00  0.00000000000E+00  0.10248998512E+03  0.10248998512E+03  0.00000000000E+00 0.  1.
         13   -1    0    0    0    0 -0.00000000000E+00 -0.00000000000E+00 -0.10000000000E+04  0.10000000000E+04  0.00000000000E+00 0.  1.
    9000005    2    1    2  501    0 -0.74903769902E-02 -0.32142119286E-01 -0.89755768204E+03  0.11024320077E+04  0.64011447254E+03 0.  0.
         13    1    3    3    0    0 -0.14395713191E+03  0.15339351999E+03 -0.33358091575E+02  0.21299293434E+03  0.00000000000E+00 0.  1.
          3    1    3    3  501    0  0.14394964154E+03 -0.15342566211E+03 -0.86419959046E+03  0.88943907338E+03  0.00000000000E+00 0.  1.
         21    1    1    2  502  501  0.74903769902E-02  0.32142119286E-01  0.47667153637E-01  0.57977401766E-01  0.00000000000E+00 0. -1.
<mgrwt>
<rscale>  1 0.64011447E+03</rscale>
<asrwt>0</asrwt>
<pdfrwt beam="1">  1        1 0.37269164E+00 0.64011447E+03</pdfrwt>
<pdfrwt beam="2">0</pdfrwt>
<totfact> 0.17704311E+00</totfact>
</mgrwt>
</event>
<event>
 6    1  0.3263951E-003  0.6432479E+03  0.7818608E-02  0.9819532E-01
          1   -1    0    0  502    0  0.00000000000E+00  0.00000000000E+00  0.10344239713E+03  0.10344239713E+03  0.00000000000E+00 0.  1.
         13   -1    0    0    0    0 -0.00000000000E+00 -0.00000000000E+00 -0.10000000000E+04  0.10000000000E+04  0.00000000000E+00 0.  1.
    9000005    2    1    2  501    0  0.40874925389E-04  0.58735996902E-04 -0.89655801617E+03  0.11034419777E+04  0.64324794733E+03 0.  0.
         13    1    3    3    0    0  0.94680277388E+02 -0.17748313896E+03 -0.17788764816E+02  0.20194320908E+03  0.00000000000E+00 0.  1.
          1    1    3    3  501    0 -0.94680236513E+02  0.17748319770E+03 -0.87876925136E+03  0.90149876860E+03  0.00000000000E+00 0.  1.
         21    1    1    2  502  501 -0.40874925388E-04 -0.58735996875E-04  0.41330222197E-03  0.41945131248E-03  0.00000000000E+00 0. -1.
<mgrwt>
<rscale>  1 0.64324795E+03</rscale>
<asrwt>0</asrwt>
<pdfrwt beam="1">  1        1 0.37615496E+00 0.64324795E+03</pdfrwt>
<pdfrwt beam="2">0</pdfrwt>
<totfact> 0.17083991E+00</totfact>
</mgrwt>
</event>
<event>
 6    1  0.3263951E-003  0.6496128E+03  0.7818608E-02  0.9807506E-01
          1   -1    0    0  502    0  0.00000000000E+00  0.00000000000E+00  0.10549921106E+03  0.10549921106E+03  0.00000000000E+00 0.  1.
         13   -1    0    0    0    0 -0.00000000000E+00 -0.00000000000E+00 -0.10000000000E+04  0.10000000000E+04  0.00000000000E+00 0.  1.
    9000005    2    1    2  501    0  0.12804698990E-05  0.98478608379E-06 -0.89450079756E+03  0.11054992023E+04  0.64961281502E+03 0.  0.
         13    1    3    3    0    0 -0.25838695871E+02  0.31742978513E+03 -0.33868398294E+03  0.46490444931E+03  0.00000000000E+00 0.  1.
          3    1    3    3  501    0  0.25838697151E+02 -0.31742978414E+03 -0.55581681462E+03  0.64059475298E+03  0.00000000000E+00 0.  1.
         21    1    1    2  502  501 -0.12804699014E-05 -0.98478605356E-06  0.86170961747E-05  0.87671975696E-05  0.00000000000E+00 0. -1.
<mgrwt>
<rscale>  1 0.64961282E+03</rscale>
<asrwt>0</asrwt>
<pdfrwt beam="1">  1        1 0.38363430E+00 0.64961282E+03</pdfrwt>
<pdfrwt beam="2">0</pdfrwt>
<totfact> 0.15815465E+00</totfact>
</mgrwt>
</event>
<event>
 6    1  0.3263951E-003  0.6520019E+03  0.7818608E-02  0.9803030E-01
          1   -1    0    0  502    0  0.00000000000E+00  0.00000000000E+00  0.10627672391E+03  0.10627672391E+03  0.00000000000E+00 0.  1.
         13   -1    0    0    0    0 -0.00000000000E+00 -0.00000000000E+00 -0.10000000000E+04  0.10000000000E+04  0.00000000000E+00 0.  1.
    9000005    2    1    2  501    0  0.67133598805E-05 -0.19070199002E-05 -0.89372337517E+03  0.11062766246E+04  0.65200191625E+03 0.  0.
         13    1    3    3    0    0  0.30695754579E+03 -0.33002650348E+02 -0.62452985667E+03  0.69667040393E+03  0.00000000000E+00 0.  1.
          1    1    3    3  501    0 -0.30695753907E+03  0.33002648441E+02 -0.26919351850E+03  0.40960622066E+03  0.00000000000E+00 0.  1.
         21    1    1    2  502  501 -0.67133598879E-05  0.19070199030E-05  0.99080137629E-04  0.99325624078E-04  0.00000000000E+00 0.  1.
<mgrwt>
<rscale>  1 0.65200192E+03</rscale>
<asrwt>0</asrwt>
<pdfrwt beam="1">  1        1 0.38646163E+00 0.65200192E+03</pdfrwt>
<pdfrwt beam="2">0</pdfrwt>
<totfact> 0.15359747E+00</totfact>
</mgrwt>
</event>
<event>
 6    1  0.3263951E-003  0.6547041E+03  0.7818608E-02  0.9797992E-01
          1   -1    0    0  502    0  0.00000000000E+00  0.00000000000E+00  0.11582565383E+03  0.11582565383E+03  0.00000000000E+00 0.  1.
         13   -1    0    0    0    0 -0.00000000000E+00 -0.00000000000E+00 -0.10000000000E+04  0.10000000000E+04  0.00000000000E+00 0.  1.
    9000005    2    1    2  501    0 -0.23363684781E+01  0.25963171838E+01 -0.89244927347E+03  0.11068437886E+04  0.65469478938E+03 0.  0.
         13    1    3    3    0    0  0.22330699065E+03 -0.88296459512E+02 -0.81788998303E+03  0.85241204894E+03  0.00000000000E+00 0.  1.
          1    1    3    3  501    0 -0.22564335913E+03  0.90892776695E+02 -0.74559290435E+02  0.25443173969E+03  0.00000000000E+00 0.  1.
         21    1    1    2  502  501  0.23363684781E+01 -0.25963171838E+01  0.82749273041E+01  0.89818652001E+01  0.00000000000E+00 0. -1.
<mgrwt>
<rscale>  1 0.65470411E+03</rscale>
<asrwt>0</asrwt>
<pdfrwt beam="1">  1        1 0.42118508E+00 0.65470411E+03</pdfrwt>
<pdfrwt beam="2">0</pdfrwt>
<totfact> 0.10740046E+00</totfact>
</mgrwt>
</event>
<event>
 6    1  0.3263951E-003  0.6634943E+03  0.7818608E-02  0.9781782E-01
          1   -1    0    0  502    0  0.00000000000E+00  0.00000000000E+00  0.11007819563E+03  0.11007819563E+03  0.00000000000E+00 0.  1.
         13   -1    0    0    0    0 -0.00000000000E+00 -0.00000000000E+00 -0.10000000000E+04  0.10000000000E+04  0.00000000000E+00 0.  1.
    9000005    2    1    2  501    0  0.17949390050E-03  0.45668974358E-03 -0.88994383112E+03  0.11100561634E+04  0.66349428286E+03 0.  0.
         13    1    3    3    0    0  0.15651829867E+03 -0.28172261953E+02 -0.93206825539E+03  0.94553841110E+03  0.00000000000E+00 0.  1.
          3    1    3    3  501    0 -0.15651811917E+03  0.28172718643E+02  0.42124424274E+02  0.16451775231E+03  0.00000000000E+00 0.  1.
         21    1    1    2  502  501 -0.17949390050E-03 -0.45668974358E-03  0.22026752488E-01  0.22032217517E-01  0.00000000000E+00 0. -1.
<mgrwt>
<rscale>  1 0.66349428E+03</rscale>
<asrwt>0</asrwt>
<pdfrwt beam="1">  1        1 0.40028519E+00 0.66349428E+03</pdfrwt>
<pdfrwt beam="2">0</pdfrwt>
<totfact> 0.13305698E+00</totfact>
</mgrwt>
</event>
<event>
 6    1  0.3263951E-003  0.6485719E+03  0.7818608E-02  0.9809463E-01
          1   -1    0    0  502    0  0.00000000000E+00  0.00000000000E+00  0.15259059253E+03  0.15259059253E+03  0.00000000000E+00 0.  1.
         13   -1    0    0    0    0 -0.00000000000E+00 -0.00000000000E+00 -0.10000000000E+04  0.10000000000E+04  0.00000000000E+00 0.  1.
    9000005    2    1    2  501    0  0.17439225022E+02 -0.13948137955E+02 -0.89191575403E+03  0.11027960948E+04  0.64818734735E+03 0.  0.
         13    1    3    3    0    0 -0.24386855286E+03 -0.19267123523E+03 -0.30230547781E+03  0.43356969206E+03  0.00000000000E+00 0.  1.
          3    1    3    3  501    0  0.26130777788E+03  0.17872309728E+03 -0.58961027622E+03  0.66922640272E+03  0.00000000000E+00 0.  1.
         21    1    1    2  502  501 -0.17439225022E+02  0.13948137955E+02  0.44506346559E+02  0.49794497747E+02  0.00000000000E+00 0. -1.
<mgrwt>
<rscale>  1 0.64857190E+03</rscale>
<asrwt>0</asrwt>
<pdfrwt beam="1">  1        1 0.55487605E+00 0.64857190E+03</pdfrwt>
<pdfrwt beam="2">0</pdfrwt>
<totfact> 0.24734270E-01</totfact>
</mgrwt>
</event>
<event>
 6    1  0.3263951E-003  0.6396361E+03  0.7818608E-02  0.9826423E-01
          1   -1    0    0  502    0  0.00000000000E+00  0.00000000000E+00  0.10252450646E+03  0.10252450646E+03  0.00000000000E+00 0.  1.
         13   -1    0    0    0    0 -0.00000000000E+00 -0.00000000000E+00 -0.10000000000E+04  0.10000000000E+04  0.00000000000E+00 0.  1.
    9000005    2    1    2  501    0 -0.39446574851E-01 -0.22082527821E-01 -0.89771406418E+03  0.11022816904E+04  0.63963613250E+03 0.  0.
         13    1    3    3    0    0 -0.26490635527E+03  0.15973764272E+03 -0.58886302519E+03  0.66517001887E+03  0.00000000000E+00 0.  1.
          1    1    3    3  501    0  0.26486690870E+03 -0.15975972525E+03 -0.30885103899E+03  0.43711167157E+03  0.00000000000E+00 0.  1.
         21    1    1    2  502  501  0.39446574851E-01  0.22082527821E-01  0.23857063983E+00  0.24281602190E+00  0.00000000000E+00 0. -1.
<mgrwt>
<rscale>  1 0.63963613E+03</rscale>
<asrwt>0</asrwt>
<pdfrwt beam="1">  1        1 0.37281717E+00 0.63963613E+03</pdfrwt>
<pdfrwt beam="2">0</pdfrwt>
<totfact> 0.17683368E+00</totfact>
</mgrwt>
</event>
<event>
 6    1  0.3263951E-003  0.6621358E+03  0.7818608E-02  0.9784270E-01
          1   -1    0    0  502    0  0.00000000000E+00  0.00000000000E+00  0.10960597594E+03  0.10960597594E+03  0.00000000000E+00 0.  1.
         13   -1    0    0    0    0 -0.00000000000E+00 -0.00000000000E+00 -0.10000000000E+04  0.10000000000E+04  0.00000000000E+00 0.  1.
    9000005    2    1    2  501    0 -0.33940028175E-04 -0.18438989745E-04 -0.89039399893E+03  0.11096059299E+04  0.66213582161E+03 0.  0.
         13    1    3    3    0    0  0.25997186952E+03 -0.23806679606E+02 -0.78639301733E+03  0.82859284853E+03  0.00000000000E+00 0.  1.
          3    1    3    3  501    0 -0.25997190346E+03  0.23806661167E+02 -0.10400098160E+03  0.28101308133E+03  0.00000000000E+00 0.  1.
         21    1    1    2  502  501  0.33940028137E-04  0.18438989746E-04 -0.25128881688E-04  0.46080175213E-04  0.00000000000E+00 0. -1.
<mgrwt>
<rscale>  1 0.66213582E+03</rscale>
<asrwt>0</asrwt>
<pdfrwt beam="1">  1        1 0.39856803E+00 0.66213582E+03</pdfrwt>
<pdfrwt beam="2">0</pdfrwt>
<totfact> 0.13545745E+00</totfact>
</mgrwt>
</event>
<event>
 6    1  0.3263951E-003  0.6403303E+03  0.7818608E-02  0.9825095E-01
          1   -1    0    0  502    0  0.00000000000E+00  0.00000000000E+00  0.10253594263E+03  0.10253594263E+03  0.00000000000E+00 0.  1.
         13   -1    0    0    0    0 -0.00000000000E+00 -0.00000000000E+00 -0.10000000000E+04  0.10000000000E+04  0.00000000000E+00 0.  1.
    9000005    2    1    2  501    0 -0.19162290562E-02  0.22220154094E-02 -0.89749421274E+03  0.11025056449E+04  0.64033025466E+03 0.  0.
         13    1    3    3    0    0  0.35099676362E+02 -0.14276132535E+03  0.40954788877E+02  0.15261087127E+03  0.00000000000E+00 0.  1.
          1    1    3    3  501    0 -0.35101592591E+02  0.14276354737E+03 -0.93844900161E+03  0.94989477359E+03  0.00000000000E+00 0.  1.
         21    1    1    2  502  501  0.19162290562E-02 -0.22220154094E-02  0.30155370112E-01  0.30297782639E-01  0.00000000000E+00 0. -1.
<mgrwt>
<rscale>  1 0.64033025E+03</rscale>
<asrwt>0</asrwt>
<pdfrwt beam="1">  1        1 0.37285876E+00 0.64033025E+03</pdfrwt>
<pdfrwt beam="2">0</pdfrwt>
<totfact> 0.17673683E+00</totfact>
</mgrwt>
</event>
<event>
 6    1  0.3263951E-003  0.6563929E+03  0.7818608E-02  0.9794857E-01
          1   -1    0    0  502    0  0.00000000000E+00  0.00000000000E+00  0.10771344191E+03  0.10771344191E+03  0.00000000000E+00 0.  1.
         13   -1    0    0    0    0 -0.00000000000E+00 -0.00000000000E+00 -0.10000000000E+04  0.10000000000E+04  0.00000000000E+00 0.  1.
    9000005    2    1    2  501    0 -0.25855392914E-03  0.46439816828E-04 -0.89228705679E+03  0.11077128783E+04  0.65639289219E+03 0.  0.
         13    1    3    3    0    0  0.31298827361E+03 -0.63631906067E+02 -0.57357651195E+03  0.65650643100E+03  0.00000000000E+00 0.  1.
          1    1    3    3  501    0 -0.31298853216E+03  0.63631952507E+02 -0.31871054485E+03  0.45120644725E+03  0.00000000000E+00 0.  1.
         21    1    1    2  502  501  0.25855392914E-03 -0.46439816826E-04  0.49870018349E-03  0.56365651231E-03  0.00000000000E+00 0. -1.
<mgrwt>
<rscale>  1 0.65639289E+03</rscale>
<asrwt>0</asrwt>
<pdfrwt beam="1">  1        1 0.39168607E+00 0.65639289E+03</pdfrwt>
<pdfrwt beam="2">0</pdfrwt>
<totfact> 0.14550325E+00</totfact>
</mgrwt>
</event>
<event>
 6    1  0.3263951E-003  0.6588397E+03  0.7818608E-02  0.9790332E-01
          1   -1    0    0  502    0  0.00000000000E+00  0.00000000000E+00  0.10851756074E+03  0.10851756074E+03  0.00000000000E+00 0.  1.
         13   -1    0    0    0    0 -0.00000000000E+00 -0.00000000000E+00 -0.10000000000E+04  0.10000000000E+04  0.00000000000E+00 0.  1.
    9000005    2    1    2  501    0  0.10196518866E-03 -0.16192277144E-04 -0.89148255722E+03  0.11085174040E+04  0.65883965053E+03 0.  0.
         13    1    3    3    0    0 -0.26151354554E+03 -0.15699968127E+03 -0.23640879618E+03  0.38591106920E+03  0.00000000000E+00 0.  1.
          3    1    3    3  501    0  0.26151364751E+03  0.15699966508E+03 -0.65507376103E+03  0.72260633478E+03  0.00000000000E+00 0.  1.
         21    1    1    2  502  501 -0.10196518868E-03  0.16192277143E-04  0.11795504920E-03  0.15675612643E-03  0.00000000000E+00 0. -1.
<mgrwt>
<rscale>  1 0.65883965E+03</rscale>
<asrwt>0</asrwt>
<pdfrwt beam="1">  1        1 0.39461014E+00 0.65883965E+03</pdfrwt>
<pdfrwt beam="2">0</pdfrwt>
<totfact> 0.14115149E+00</totfact>
</mgrwt>
</event>
<event>
 6    1  0.3263951E-003  0.6544274E+03  0.7818608E-02  0.9798507E-01
          1   -1    0    0  502    0  0.00000000000E+00  0.00000000000E+00  0.10707833738E+03  0.10707833738E+03  0.00000000000E+00 0.  1.
         13   -1    0    0    0    0 -0.00000000000E+00 -0.00000000000E+00 -0.10000000000E+04  0.10000000000E+04  0.00000000000E+00 0.  1.
    9000005    2    1    2  501    0  0.33296393083E-02 -0.11918085613E-02 -0.89293081710E+03  0.11070685235E+04  0.65442743807E+03 0.  0.
         13    1    3    3    0    0  0.13984426699E+03 -0.85641424628E+02  0.32540564493E+02  0.16718182007E+03  0.00000000000E+00 0.  1.
          1    1    3    3  501    0 -0.13984093735E+03  0.85640232820E+02 -0.92547138159E+03  0.93988670348E+03  0.00000000000E+00 0.  1.
         21    1    1    2  502  501 -0.33296393083E-02  0.11918085613E-02  0.91544743891E-02  0.98138324273E-02  0.00000000000E+00 0.  1.
<mgrwt>
<rscale>  1 0.65442744E+03</rscale>
<asrwt>0</asrwt>
<pdfrwt beam="1">  1        1 0.38937659E+00 0.65442744E+03</pdfrwt>
<pdfrwt beam="2">0</pdfrwt>
<totfact> 0.14903078E+00</totfact>
</mgrwt>
</event>
<event>
 6    1  0.3263951E-003  0.6583431E+03  0.7818608E-02  0.9791249E-01
          1   -1    0    0  502    0  0.00000000000E+00  0.00000000000E+00  0.10835583269E+03  0.10835583269E+03  0.00000000000E+00 0.  1.
         13   -1    0    0    0    0 -0.00000000000E+00 -0.00000000000E+00 -0.10000000000E+04  0.10000000000E+04  0.00000000000E+00 0.  1.
    9000005    2    1    2  501    0  0.62462549815E-03  0.31640287031E-03 -0.89164603387E+03  0.11083538391E+04  0.65834305874E+03 0.  0.
         13    1    3    3    0    0 -0.24198048587E+03  0.87797355516E+02 -0.79122088498E+03  0.83204171771E+03  0.00000000000E+00 0.  1.
          3    1    3    3  501    0  0.24198111049E+03 -0.87797039113E+02 -0.10042514889E+03  0.27631212142E+03  0.00000000000E+00 0.  1.
         21    1    1    2  502  501 -0.62462549816E-03 -0.31640287031E-03  0.18665608579E-02  0.19935689668E-02  0.00000000000E+00 0.  1.
<mgrwt>
<rscale>  1 0.65834306E+03</rscale>
<asrwt>0</asrwt>
<pdfrwt beam="1">  1        1 0.39402204E+00 0.65834306E+03</pdfrwt>
<pdfrwt beam="2">0</pdfrwt>
<totfact> 0.14201682E+00</totfact>
</mgrwt>
</event>
<event>
 6    1  0.3263951E-003  0.6472799E+03  0.7818608E-02  0.9811897E-01
          1   -1    0    0  502    0  0.00000000000E+00  0.00000000000E+00  0.10474299907E+03  0.10474299907E+03  0.00000000000E+00 0.  1.
         13   -1    0    0    0    0 -0.00000000000E+00 -0.00000000000E+00 -0.10000000000E+04  0.10000000000E+04  0.00000000000E+00 0.  1.
    9000005    2    1    2  501    0 -0.84702931815E-05 -0.26897734614E-04 -0.89525717642E+03  0.11047428213E+04  0.64727991575E+03 0.  0.
         13    1    3    3    0    0 -0.24765852424E+03 -0.14887025780E+03 -0.69640254276E+03  0.75397188266E+03  0.00000000000E+00 0.  1.
          3    1    3    3  501    0  0.24765851577E+03  0.14887023090E+03 -0.19885463366E+03  0.35077093866E+03  0.00000000000E+00 0.  1.
         21    1    1    2  502  501  0.84702931970E-05  0.26897734632E-04  0.17549264957E-03  0.17774392831E-03  0.00000000000E+00 0. -1.
<mgrwt>
<rscale>  1 0.64727992E+03</rscale>
<asrwt>0</asrwt>
<pdfrwt beam="1">  1        1 0.38088444E+00 0.64727992E+03</pdfrwt>
<pdfrwt beam="2">0</pdfrwt>
<totfact> 0.16271035E+00</totfact>
</mgrwt>
</event>
<event>
 6    1  0.3263951E-003  0.6523835E+03  0.7818608E-02  0.9802317E-01
          1   -1    0    0  502    0  0.00000000000E+00  0.00000000000E+00  0.10712404484E+03  0.10712404484E+03  0.00000000000E+00 0.  1.
         13   -1    0    0    0    0 -0.00000000000E+00 -0.00000000000E+00 -0.10000000000E+04  0.10000000000E+04  0.00000000000E+00 0.  1.
    9000005    2    1    2  501    0  0.11393364559E+00  0.11654310148E+00 -0.89358875317E+03  0.11063928512E+04  0.65238351816E+03 0.  0.
         13    1    3    3    0    0 -0.14030863424E+01  0.20658478784E+03 -0.18659097373E+02  0.20743048265E+03  0.00000000000E+00 0.  1.
          1    1    3    3  501    0  0.15170199879E+01 -0.20646824473E+03 -0.87492965580E+03  0.89896236853E+03  0.00000000000E+00 0.  1.
         21    1    1    2  502  501 -0.11393364559E+00 -0.11654310148E+00  0.71279800945E+00  0.73119366270E+00  0.00000000000E+00 0. -1.
<mgrwt>
<rscale>  1 0.65238354E+03</rscale>
<asrwt>0</asrwt>
<pdfrwt beam="1">  1        1 0.38954280E+00 0.65238354E+03</pdfrwt>
<pdfrwt beam="2">0</pdfrwt>
<totfact> 0.14883457E+00</totfact>
</mgrwt>
</event>
<event>
 6    1  0.3263951E-003  0.6436131E+03  0.7818608E-02  0.9818838E-01
          1   -1    0    0  502    0  0.00000000000E+00  0.00000000000E+00  0.10362237807E+03  0.10362237807E+03  0.00000000000E+00 0.  1.
         13   -1    0    0    0    0 -0.00000000000E+00 -0.00000000000E+00 -0.10000000000E+04  0.10000000000E+04  0.00000000000E+00 0.  1.
    9000005    2    1    2  501    0 -0.54350049337E-01  0.29388889228E-02 -0.89642730675E+03  0.11035486818E+04  0.64361306215E+03 0.  0.
         13    1    3    3    0    0  0.64755757945E+02  0.31467791706E+03 -0.47988660491E+03  0.57750034912E+03  0.00000000000E+00 0.  1.
          1    1    3    3  501    0 -0.64810107994E+02 -0.31467497817E+03 -0.41654070184E+03  0.52604833264E+03  0.00000000000E+00 0.  1.
         21    1    1    2  502  501  0.54350049337E-01 -0.29388889228E-02  0.49684816604E-01  0.73696308809E-01  0.00000000000E+00 0. -1.
<mgrwt>
<rscale>  1 0.64361306E+03</rscale>
<asrwt>0</asrwt>
<pdfrwt beam="1">  1        1 0.37680944E+00 0.64361306E+03</pdfrwt>
<pdfrwt beam="2">0</pdfrwt>
<totfact> 0.16969827E+00</totfact>
</mgrwt>
</event>
<event>
 6    1  0.3263951E-003  0.6521649E+03  0.7818608E-02  0.9802725E-01
          1   -1    0    0  502    0  0.00000000000E+00  0.00000000000E+00  0.10633188466E+03  0.10633188466E+03  0.00000000000E+00 0.  1.
         13   -1    0    0    0    0 -0.00000000000E+00 -0.00000000000E+00 -0.10000000000E+04  0.10000000000E+04  0.00000000000E+00 0.  1.
    9000005    2    1    2  501    0  0.15358467351E-04  0.76213490431E-04 -0.89367024015E+03  0.11063297584E+04  0.65216488427E+03 0.  0.
         13    1    3    3    0    0  0.29455981672E+03 -0.98603015422E+02 -0.27854345401E+03  0.41722235804E+03  0.00000000000E+00 0.  1.
          3    1    3    3  501    0 -0.29455980136E+03  0.98603091635E+02 -0.61512678614E+03  0.68910740040E+03  0.00000000000E+00 0.  1.
         21    1    1    2  502  501 -0.15358467356E-04 -0.76213490433E-04  0.21248029827E-02  0.21262248456E-02  0.00000000000E+00 0.  1.
<mgrwt>
<rscale>  1 0.65216488E+03</rscale>
<asrwt>0</asrwt>
<pdfrwt beam="1">  1        1 0.38666221E+00 0.65216488E+03</pdfrwt>
<pdfrwt beam="2">0</pdfrwt>
<totfact> 0.15327913E+00</totfact>
</mgrwt>
</event>
<event>
 6    1  0.3263951E-003  0.6475834E+03  0.7818608E-02  0.9811324E-01
          1   -1    0    0  502    0  0.00000000000E+00  0.00000000000E+00  0.10484136466E+03  0.10484136466E+03  0.00000000000E+00 0.  1.
         13   -1    0    0    0    0 -0.00000000000E+00 -0.00000000000E+00 -0.10000000000E+04  0.10000000000E+04  0.00000000000E+00 0.  1.
    9000005    2    1    2  501    0  0.34313447145E-04 -0.85362996032E-05 -0.89515893248E+03  0.11048410654E+04  0.64758340423E+03 0.  0.
         13    1    3    3    0    0  0.28966461854E+03  0.12684835925E+03 -0.32882500840E+03  0.45620388384E+03  0.00000000000E+00 0.  1.
          3    1    3    3  501    0 -0.28966458423E+03 -0.12684836779E+03 -0.56633392408E+03  0.64863718158E+03  0.00000000000E+00 0.  1.
         21    1    1    2  502  501 -0.34313447140E-04  0.85362996013E-05  0.29714771440E-03  0.29924412315E-03  0.00000000000E+00 0. -1.
<mgrwt>
<rscale>  1 0.64758340E+03</rscale>
<asrwt>0</asrwt>
<pdfrwt beam="1">  1        1 0.38124213E+00 0.64758340E+03</pdfrwt>
<pdfrwt beam="2">0</pdfrwt>
<totfact> 0.16211077E+00</totfact>
</mgrwt>
</event>
<event>
 6    1  0.3263951E-003  0.6474002E+03  0.7818608E-02  0.9811670E-01
          1   -1    0    0  502    0  0.00000000000E+00  0.00000000000E+00  0.10479381303E+03  0.10479381303E+03  0.00000000000E+00 0.  1.
         13   -1    0    0    0    0 -0.00000000000E+00 -0.00000000000E+00 -0.10000000000E+04  0.10000000000E+04  0.00000000000E+00 0.  1.
    9000005    2    1    2  501    0  0.15836422746E-01 -0.13441062602E-01 -0.89520742055E+03  0.11047730050E+04  0.64740023652E+03 0.  0.
         13    1    3    3    0    0  0.12396072636E+01 -0.32298819903E+03 -0.41088554839E+03  0.52263739554E+03  0.00000000000E+00 0.  1.
          3    1    3    3  501    0 -0.12237708409E+01  0.32297475797E+03 -0.48432187216E+03  0.58213560942E+03  0.00000000000E+00 0.  1.
         21    1    1    2  502  501 -0.15836422746E-01  0.13441062602E-01  0.12335793008E-02  0.20808079371E-01  0.00000000000E+00 0.  1.
<mgrwt>
<rscale>  1 0.64740024E+03</rscale>
<asrwt>0</asrwt>
<pdfrwt beam="1">  1        1 0.38106921E+00 0.64740024E+03</pdfrwt>
<pdfrwt beam="2">0</pdfrwt>
<totfact> 0.16240144E+00</totfact>
</mgrwt>
</event>
<event>
 6    1  0.3263951E-003  0.6450416E+03  0.7818608E-02  0.9816128E-01
          1   -1    0    0  502    0  0.00000000000E+00  0.00000000000E+00  0.10401983903E+03  0.10401983903E+03  0.00000000000E+00 0.  1.
         13   -1    0    0    0    0 -0.00000000000E+00 -0.00000000000E+00 -0.10000000000E+04  0.10000000000E+04  0.00000000000E+00 0.  1.
    9000005    2    1    2  501    0  0.22698423962E-04  0.17532106128E-04 -0.89598034073E+03  0.11040196570E+04  0.64504157389E+03 0.  0.
         13    1    3    3    0    0 -0.73496013071E+02  0.81384336470E+02  0.71132779542E+02  0.13070939708E+03  0.00000000000E+00 0.  1.
          3    1    3    3  501    0  0.73496035770E+02 -0.81384318938E+02 -0.96711312027E+03  0.97331025991E+03  0.00000000000E+00 0.  1.
         21    1    1    2  502  501 -0.22698423957E-04 -0.17532106130E-04  0.17976161217E-03  0.18203524496E-03  0.00000000000E+00 0. -1.
<mgrwt>
<rscale>  1 0.64504157E+03</rscale>
<asrwt>0</asrwt>
<pdfrwt beam="1">  1        1 0.37825476E+00 0.64504157E+03</pdfrwt>
<pdfrwt beam="2">0</pdfrwt>
<totfact> 0.16718379E+00</totfact>
</mgrwt>
</event>
<event>
 6    1  0.3263951E-003  0.6462215E+03  0.7818608E-02  0.9813895E-01
          1   -1    0    0  502    0  0.00000000000E+00  0.00000000000E+00  0.10480582237E+03  0.10480582237E+03  0.00000000000E+00 0.  1.
         13   -1    0    0    0    0 -0.00000000000E+00 -0.00000000000E+00 -0.10000000000E+04  0.10000000000E+04  0.00000000000E+00 0.  1.
    9000005    2    1    2  501    0  0.11778057340E-01  0.67730626983E-01 -0.89559622006E+03  0.11043979446E+04  0.64622149913E+03 0.  0.
         13    1    3    3    0    0  0.26287864922E+03 -0.76739560745E+02 -0.74084896386E+03  0.78984259929E+03  0.00000000000E+00 0.  1.
          3    1    3    3  501    0 -0.26286687116E+03  0.76807291372E+02 -0.15474725619E+03  0.31455534531E+03  0.00000000000E+00 0.  1.
         21    1    1    2  502  501 -0.11778057340E-01 -0.67730626983E-01  0.40204242371E+00  0.40787776469E+00  0.00000000000E+00 0.  1.
<mgrwt>
<rscale>  1 0.64622150E+03</rscale>
<asrwt>0</asrwt>
<pdfrwt beam="1">  1        1 0.38111288E+00 0.64622150E+03</pdfrwt>
<pdfrwt beam="2">0</pdfrwt>
<totfact> 0.16236460E+00</totfact>
</mgrwt>
</event>
<event>
 6    1  0.4061196E-003  0.6323016E+03  0.7818608E-02  0.9840568E-01
          1   -1    0    0  502    0  0.00000000000E+00  0.00000000000E+00  0.99951342965E+02  0.99951342965E+02  0.00000000000E+00 0.  1.
         13   -1    0    0    0    0 -0.00000000000E+00 -0.00000000000E+00 -0.10000000000E+04  0.10000000000E+04  0.00000000000E+00 0.  1.
    9000005    2    1    2  501    0 -0.23240412474E-05 -0.17908340055E-05 -0.90004865894E+03  0.10999513395E+04  0.63230163746E+03 0.  0.
         13    1    3    3    0    0  0.45237849785E+02 -0.23402572111E+03 -0.88719866759E+02  0.25433386709E+03  0.00000000000E+00 0.  1.
          3    1    3    3  501    0 -0.45237852109E+02  0.23402571932E+03 -0.81132879218E+03  0.84561747237E+03  0.00000000000E+00 0.  1.
         21    1    1    2  502  501  0.23240412534E-05  0.17908340103E-05  0.19049408944E-05  0.34981500841E-05  0.00000000000E+00 0.  1.
<mgrwt>
<rscale>  1 0.63230164E+03</rscale>
<asrwt>0</asrwt>
<pdfrwt beam="1">  1        1 0.36346020E+00 0.63230164E+03</pdfrwt>
<pdfrwt beam="2">0</pdfrwt>
<totfact> 0.19462806E+00</totfact>
</mgrwt>
</event>
<event>
 6    1  0.3263951E-003  0.6489213E+03  0.7818608E-02  0.9808805E-01
          1   -1    0    0  502    0  0.00000000000E+00  0.00000000000E+00  0.10536299235E+03  0.10536299235E+03  0.00000000000E+00 0.  1.
         13   -1    0    0    0    0 -0.00000000000E+00 -0.00000000000E+00 -0.10000000000E+04  0.10000000000E+04  0.00000000000E+00 0.  1.
    9000005    2    1    2  501    0  0.35240200083E-03 -0.17189074984E-01 -0.89472434811E+03  0.11052739758E+04  0.64892133745E+03 0.  0.
         13    1    3    3    0    0 -0.19007076664E+03  0.24799737027E+03 -0.59623676240E+03  0.67314773180E+03  0.00000000000E+00 0.  1.
          3    1    3    3  501    0  0.19007111904E+03 -0.24801455934E+03 -0.29848758571E+03  0.43212624401E+03  0.00000000000E+00 0.  1.
         21    1    1    2  502  501 -0.35240200083E-03  0.17189074984E-01  0.87340463629E-01  0.89016543816E-01  0.00000000000E+00 0.  1.
<mgrwt>
<rscale>  1 0.64892134E+03</rscale>
<asrwt>0</asrwt>
<pdfrwt beam="1">  1        1 0.38313896E+00 0.64892134E+03</pdfrwt>
<pdfrwt beam="2">0</pdfrwt>
<totfact> 0.15897417E+00</totfact>
</mgrwt>
</event>
<event>
 6    1  0.3263951E-003  0.6607330E+03  0.7818608E-02  0.9786845E-01
          3   -1    0    0  502    0  0.00000000000E+00  0.00000000000E+00  0.10914340743E+03  0.10914340743E+03  0.00000000000E+00 0.  1.
         13   -1    0    0    0    0 -0.00000000000E+00 -0.00000000000E+00 -0.10000000000E+04  0.10000000000E+04  0.00000000000E+00 0.  1.
    9000005    2    1    2  501    0 -0.12017662677E-02  0.37332519353E-03 -0.89085764666E+03  0.11091417659E+04  0.66073300974E+03 0.  0.
         13    1    3    3    0    0 -0.20501160255E+03 -0.30995831531E+02 -0.13679876869E+02  0.20779229481E+03  0.00000000000E+00 0.  1.
          1    1    3    3  501    0  0.20501040078E+03  0.30996204856E+02 -0.87717776979E+03  0.90134947105E+03  0.00000000000E+00 0.  1.
         21    1    1    2  502  501  0.12017662677E-02 -0.37332519353E-03  0.10540899570E-02  0.16415600811E-02  0.00000000000E+00 0.  1.
<mgrwt>
<rscale>  1 0.66073301E+03</rscale>
<asrwt>0</asrwt>
<pdfrwt beam="1">  1        3 0.39688595E+00 0.66073301E+03</pdfrwt>
<pdfrwt beam="2">0</pdfrwt>
<totfact> 0.61396170E-02</totfact>
</mgrwt>
</event>
<event>
 6    1  0.3263951E-003  0.6446501E+03  0.7818608E-02  0.9816870E-01
          1   -1    0    0  502    0  0.00000000000E+00  0.00000000000E+00  0.10389410068E+03  0.10389410068E+03  0.00000000000E+00 0.  1.
         13   -1    0    0    0    0 -0.00000000000E+00 -0.00000000000E+00 -0.10000000000E+04  0.10000000000E+04  0.00000000000E+00 0.  1.
    9000005    2    1    2  501    0 -0.28338696097E-03 -0.26008351163E-03 -0.89610648925E+03  0.11038933964E+04  0.64465013037E+03 0.  0.
         13    1    3    3    0    0  0.28833551751E+03  0.75857681337E+02 -0.23831765732E+03  0.38168974871E+03  0.00000000000E+00 0.  1.
          3    1    3    3  501    0 -0.28833580090E+03 -0.75857941421E+02 -0.65778883194E+03  0.72220364772E+03  0.00000000000E+00 0.  1.
         21    1    1    2  502  501  0.28338696095E-03  0.26008351162E-03  0.58993665840E-03  0.70425624852E-03  0.00000000000E+00 0. -1.
<mgrwt>
<rscale>  1 0.64465013E+03</rscale>
<asrwt>0</asrwt>
<pdfrwt beam="1">  1        1 0.37779753E+00 0.64465013E+03</pdfrwt>
<pdfrwt beam="2">0</pdfrwt>
<totfact> 0.16797353E+00</totfact>
</mgrwt>
</event>
<event>
 6    1  0.3263951E-003  0.6421448E+03  0.7818608E-02  0.9821632E-01
          1   -1    0    0  502    0  0.00000000000E+00  0.00000000000E+00  0.10308785302E+03  0.10308785302E+03  0.00000000000E+00 0.  1.
         13   -1    0    0    0    0 -0.00000000000E+00 -0.00000000000E+00 -0.10000000000E+04  0.10000000000E+04  0.00000000000E+00 0.  1.
    9000005    2    1    2  501    0  0.57050929675E-03  0.26559378341E-04 -0.89691223340E+03  0.11030872754E+04  0.64214483001E+03 0.  0.
         13    1    3    3    0    0  0.14142309453E+03 -0.12994695133E+03 -0.89044251194E+03  0.91091962812E+03  0.00000000000E+00 0.  1.
          1    1    3    3  501    0 -0.14142252402E+03  0.12994697789E+03 -0.64697214602E+01  0.19216764727E+03  0.00000000000E+00 0.  1.
         21    1    1    2  502  501 -0.57050929676E-03 -0.26559378330E-04  0.86425044226E-04  0.57762924660E-03  0.00000000000E+00 0. -1.
<mgrwt>
<rscale>  1 0.64214483E+03</rscale>
<asrwt>0</asrwt>
<pdfrwt beam="1">  1        1 0.37486571E+00 0.64214483E+03</pdfrwt>
<pdfrwt beam="2">0</pdfrwt>
<totfact> 0.17312245E+00</totfact>
</mgrwt>
</event>
<event>
 6    1  0.3263951E-003  0.6468079E+03  0.7818608E-02  0.9812787E-01
          1   -1    0    0  502    0  0.00000000000E+00  0.00000000000E+00  0.10472892885E+03  0.10472892885E+03  0.00000000000E+00 0.  1.
         13   -1    0    0    0    0 -0.00000000000E+00 -0.00000000000E+00 -0.10000000000E+04  0.10000000000E+04  0.00000000000E+00 0.  1.
    9000005    2    1    2  501    0 -0.11006952326E+00  0.29199120602E+00 -0.89518014529E+03  0.11044039032E+04  0.64680784744E+03 0.  0.
         13    1    3    3    0    0 -0.30169801208E+02  0.15243872549E+03 -0.93211437570E+03  0.94497883115E+03  0.00000000000E+00 0.  1.
          3    1    3    3  501    0  0.30059731685E+02 -0.15214673429E+03  0.36934230405E+02  0.15942507205E+03  0.00000000000E+00 0.  1.
         21    1    1    2  502  501  0.11006952326E+00 -0.29199120602E+00 -0.90925851670E-01  0.32502565260E+00  0.00000000000E+00 0. -1.
<mgrwt>
<rscale>  1 0.64680792E+03</rscale>
<asrwt>0</asrwt>
<pdfrwt beam="1">  1        1 0.38083327E+00 0.64680792E+03</pdfrwt>
<pdfrwt beam="2">0</pdfrwt>
<totfact> 0.16280912E+00</totfact>
</mgrwt>
</event>
<event>
 6    1  0.3263951E-003  0.6488434E+03  0.7818608E-02  0.9808952E-01
          1   -1    0    0  502    0  0.00000000000E+00  0.00000000000E+00  0.10525035002E+03  0.10525035002E+03  0.00000000000E+00 0.  1.
         13   -1    0    0    0    0 -0.00000000000E+00 -0.00000000000E+00 -0.10000000000E+04  0.10000000000E+04  0.00000000000E+00 0.  1.
    9000005    2    1    2  501    0  0.44773784907E-04 -0.52075976100E-04 -0.89475056517E+03  0.11052494323E+04  0.64884338143E+03 0.  0.
         13    1    3    3    0    0  0.13918901553E+03  0.27664105575E+03 -0.28270192058E+03  0.41931400128E+03  0.00000000000E+00 0.  1.
          3    1    3    3  501    0 -0.13918897076E+03 -0.27664110783E+03 -0.61204864459E+03  0.68593543097E+03  0.00000000000E+00 0.  1.
         21    1    1    2  502  501 -0.44773784890E-04  0.52075976111E-04  0.91519385751E-03  0.91776707063E-03  0.00000000000E+00 0.  1.
<mgrwt>
<rscale>  1 0.64884338E+03</rscale>
<asrwt>0</asrwt>
<pdfrwt beam="1">  1        1 0.38272935E+00 0.64884338E+03</pdfrwt>
<pdfrwt beam="2">0</pdfrwt>
<totfact> 0.15964036E+00</totfact>
</mgrwt>
</event>
<event>
 6    1  0.3263951E-003  0.6467978E+03  0.7818608E-02  0.9812806E-01
          3   -1    0    0  502    0  0.00000000000E+00  0.00000000000E+00  0.10459559557E+03  0.10459559557E+03  0.00000000000E+00 0.  1.
         13   -1    0    0    0    0 -0.00000000000E+00 -0.00000000000E+00 -0.10000000000E+04  0.10000000000E+04  0.00000000000E+00 0.  1.
    9000005    2    1    2  501    0 -0.20991465379E-03 -0.15867559861E-03 -0.89541314335E+03  0.11045868527E+04  0.64679781836E+03 0.  0.
         13    1    3    3    0    0 -0.28438659744E+03  0.14724023707E+03 -0.52467925075E+03  0.61468995468E+03  0.00000000000E+00 0.  1.
          1    1    3    3  501    0  0.28438638753E+03 -0.14724039574E+03 -0.37073389260E+03  0.48989689801E+03  0.00000000000E+00 0.  1.
         21    1    1    2  502  501  0.20991465377E-03  0.15867559859E-03  0.87389261114E-02  0.87428869196E-02  0.00000000000E+00 0.  1.
<mgrwt>
<rscale>  1 0.64679782E+03</rscale>
<asrwt>0</asrwt>
<pdfrwt beam="1">  1        3 0.38034842E+00 0.64679782E+03</pdfrwt>
<pdfrwt beam="2">0</pdfrwt>
<totfact> 0.75199828E-02</totfact>
</mgrwt>
</event>
<event>
 6    1  0.3263951E-003  0.6479374E+03  0.7818608E-02  0.9810657E-01
          1   -1    0    0  502    0  0.00000000000E+00  0.00000000000E+00  0.10495595985E+03  0.10495595985E+03  0.00000000000E+00 0.  1.
         13   -1    0    0    0    0 -0.00000000000E+00 -0.00000000000E+00 -0.10000000000E+04  0.10000000000E+04  0.00000000000E+00 0.  1.
    9000005    2    1    2  501    0 -0.28047443791E-04 -0.48453149759E-04 -0.89504428364E+03  0.11049557100E+04  0.64793738230E+03 0.  0.
         13    1    3    3    0    0  0.73426141910E+02 -0.22239890431E+03 -0.65803036639E+02  0.24327496909E+03  0.00000000000E+00 0.  1.
          3    1    3    3  501    0 -0.73426169958E+02  0.22239885586E+03 -0.82924124700E+03  0.86168074091E+03  0.00000000000E+00 0.  1.
         21    1    1    2  502  501  0.28047443788E-04  0.48453149737E-04  0.24349286669E-03  0.24984623861E-03  0.00000000000E+00 0.  1.
<mgrwt>
<rscale>  1 0.64793738E+03</rscale>
<asrwt>0</asrwt>
<pdfrwt beam="1">  1        1 0.38165884E+00 0.64793738E+03</pdfrwt>
<pdfrwt beam="2">0</pdfrwt>
<totfact> 0.16141491E+00</totfact>
</mgrwt>
</event>
<event>
 6    1  0.3263951E-003  0.6432196E+03  0.7818608E-02  0.9819586E-01
          1   -1    0    0  502    0  0.00000000000E+00  0.00000000000E+00  0.10822490197E+03  0.10822490197E+03  0.00000000000E+00 0.  1.
         13   -1    0    0    0    0 -0.00000000000E+00 -0.00000000000E+00 -0.10000000000E+04  0.10000000000E+04  0.00000000000E+00 0.  1.
    9000005    2    1    2  501    0 -0.65692113349E-01  0.99098878642E-01 -0.89656633660E+03  0.11034321884E+04  0.64321954603E+03 0.  0.
         13    1    3    3    0    0 -0.27489946722E+02  0.24552342355E+03 -0.95010547874E+02  0.26469690759E+03  0.00000000000E+00 0.  1.
          1    1    3    3  501    0  0.27424254609E+02 -0.24542432467E+03 -0.80155578873E+03  0.83873528084E+03  0.00000000000E+00 0.  1.
         21    1    1    2  502  501  0.65692113349E-01 -0.99098878642E-01  0.47912385749E+01  0.47927135449E+01  0.00000000000E+00 0. -1.
<mgrwt>
<rscale>  1 0.64321956E+03</rscale>
<asrwt>0</asrwt>
<pdfrwt beam="1">  1        1 0.39354593E+00 0.64321956E+03</pdfrwt>
<pdfrwt beam="2">0</pdfrwt>
<totfact> 0.14311614E+00</totfact>
</mgrwt>
</event>
<event>
 6    1  0.4081741E-003  0.6436613E+03  0.7818608E-02  0.9818747E-01
          1   -1    0    0  502    0  0.00000000000E+00  0.00000000000E+00  0.10357496864E+03  0.10357496864E+03  0.00000000000E+00 0.  1.
         13   -1    0    0    0    0 -0.00000000000E+00 -0.00000000000E+00 -0.10000000000E+04  0.10000000000E+04  0.00000000000E+00 0.  1.
    9000005    2    1    2  501    0  0.15654384526E-05  0.20393971454E-05 -0.89642503200E+03  0.11035749660E+04  0.64366129879E+03 0.  0.
         13    1    3    3    0    0 -0.10797073642E+03  0.19613634368E+03 -0.51834601686E+02  0.22981290470E+03  0.00000000000E+00 0.  1.
          1    1    3    3  501    0  0.10797073798E+03 -0.19613634164E+03 -0.84459043032E+03  0.87376206129E+03  0.00000000000E+00 0.  1.
         21    1    1    2  502  501 -0.15654384457E-05 -0.20393971521E-05  0.64652362340E-06  0.26509868100E-05  0.00000000000E+00 0.  1.
<mgrwt>
<rscale>  1 0.64366130E+03</rscale>
<asrwt>0</asrwt>
<pdfrwt beam="1">  1        1 0.37663704E+00 0.64366130E+03</pdfrwt>
<pdfrwt beam="2">0</pdfrwt>
<totfact> 0.16999379E+00</totfact>
</mgrwt>
</event>
<event>
 6    1  0.3263951E-003  0.6516767E+03  0.7818608E-02  0.9803638E-01
          1   -1    0    0  502    0  0.00000000000E+00  0.00000000000E+00  0.10618072658E+03  0.10618072658E+03  0.00000000000E+00 0.  1.
         13   -1    0    0    0    0 -0.00000000000E+00 -0.00000000000E+00 -0.10000000000E+04  0.10000000000E+04  0.00000000000E+00 0.  1.
    9000005    2    1    2  501    0 -0.19386727485E-02  0.11421780778E-01 -0.89382553647E+03  0.11061675569E+04  0.65167674048E+03 0.  0.
         13    1    3    3    0    0  0.93793360772E+02 -0.30454386601E+03 -0.56231476138E+03  0.64632967727E+03  0.00000000000E+00 0.  1.
          1    1    3    3  501    0 -0.93795299445E+02  0.30455528779E+03 -0.33151077508E+03  0.45983787960E+03  0.00000000000E+00 0.  1.
         21    1    1    2  502  501  0.19386727485E-02 -0.11421780778E-01  0.62630449181E-02  0.13169709937E-01  0.00000000000E+00 0.  1.
<mgrwt>
<rscale>  1 0.65167674E+03</rscale>
<asrwt>0</asrwt>
<pdfrwt beam="1">  1        1 0.38611255E+00 0.65167674E+03</pdfrwt>
<pdfrwt beam="2">0</pdfrwt>
<totfact> 0.15415417E+00</totfact>
</mgrwt>
</event>
<event>
 6    1  0.3263951E-003  0.5657227E+03  0.7818608E-02  0.9979189E-01
          1   -1    0    0  502    0  0.00000000000E+00  0.00000000000E+00  0.80010712793E+02  0.80010712793E+02  0.00000000000E+00 0.  1.
         13   -1    0    0    0    0 -0.00000000000E+00 -0.00000000000E+00 -0.10000000000E+04  0.10000000000E+04  0.00000000000E+00 0.  1.
    9000005    2    1    2  501    0 -0.73796882987E-05  0.10892939287E-04 -0.91998945410E+03  0.10800105454E+04  0.56572270813E+03 0.  0.
         13    1    3    3    0    0 -0.21144992244E+03 -0.18286121668E+03 -0.37763273266E+03  0.46984654414E+03  0.00000000000E+00 0.  1.
          1    1    3    3  501    0  0.21144991506E+03  0.18286122757E+03 -0.54235672144E+03  0.61016400124E+03  0.00000000000E+00 0.  1.
         21    1    1    2  502  501  0.73796882937E-05 -0.10892939286E-04  0.16689009994E-03  0.16740794898E-03  0.00000000000E+00 0.  1.
<mgrwt>
<rscale>  1 0.56572271E+03</rscale>
<asrwt>0</asrwt>
<pdfrwt beam="1">  1        1 0.29094866E+00 0.56572271E+03</pdfrwt>
<pdfrwt beam="2">0</pdfrwt>
<totfact> 0.40614354E+00</totfact>
</mgrwt>
</event>
<event>
 6    1  0.3263951E-003  0.6043318E+03  0.7818608E-02  0.9896460E-01
          1   -1    0    0  502    0  0.00000000000E+00  0.00000000000E+00  0.91726012244E+02  0.91726012244E+02  0.00000000000E+00 0.  1.
         13   -1    0    0    0    0 -0.00000000000E+00 -0.00000000000E+00 -0.10000000000E+04  0.10000000000E+04  0.00000000000E+00 0.  1.
    9000005    2    1    2  501    0  0.17294842771E-01 -0.97808110784E-01 -0.90868939355E+03  0.10912988969E+04  0.60433174545E+03 0.  0.
         13    1    3    3    0    0  0.27074807438E+03 -0.12449035216E+03 -0.54501347862E+03  0.62116186251E+03  0.00000000000E+00 0.  1.
          3    1    3    3  501    0 -0.27073077954E+03  0.12439254405E+03 -0.36367591493E+03  0.47013703439E+03  0.00000000000E+00 0.  1.
         21    1    1    2  502  501 -0.17294842771E-01  0.97808110784E-01  0.41540579751E+00  0.42711534124E+00  0.00000000000E+00 0.  1.
<mgrwt>
<rscale>  1 0.60433175E+03</rscale>
<asrwt>0</asrwt>
<pdfrwt beam="1">  1        1 0.33354984E+00 0.60433175E+03</pdfrwt>
<pdfrwt beam="2">0</pdfrwt>
<totfact> 0.26403492E+00</totfact>
</mgrwt>
</event>
<event>
 6    1  0.3263951E-003  0.6488095E+03  0.7818608E-02  0.9809016E-01
          1   -1    0    0  502    0  0.00000000000E+00  0.00000000000E+00  0.10523877238E+03  0.10523877238E+03  0.00000000000E+00 0.  1.
         13   -1    0    0    0    0 -0.00000000000E+00 -0.00000000000E+00 -0.10000000000E+04  0.10000000000E+04  0.00000000000E+00 0.  1.
    9000005    2    1    2  501    0  0.28966613883E-04  0.37363409092E-04 -0.89476154475E+03  0.11052384517E+04  0.64880953542E+03 0.  0.
         13    1    3    3    0    0 -0.12276124864E+03 -0.29403561971E+03 -0.34360541118E+03  0.46860638965E+03  0.00000000000E+00 0.  1.
          3    1    3    3  501    0  0.12276127761E+03  0.29403565708E+03 -0.55115613357E+03  0.63663206209E+03  0.00000000000E+00 0.  1.
         21    1    1    2  502  501 -0.28966613889E-04 -0.37363409127E-04  0.31712795863E-03  0.32063254858E-03  0.00000000000E+00 0.  1.
<mgrwt>
<rscale>  1 0.64880954E+03</rscale>
<asrwt>0</asrwt>
<pdfrwt beam="1">  1        1 0.38268725E+00 0.64880954E+03</pdfrwt>
<pdfrwt beam="2">0</pdfrwt>
<totfact> 0.15970975E+00</totfact>
</mgrwt>
</event>
<event>
 6    1  0.3263951E-003  0.6578256E+03  0.7818608E-02  0.9792205E-01
          1   -1    0    0  502    0  0.00000000000E+00  0.00000000000E+00  0.10840082544E+03  0.10840082544E+03  0.00000000000E+00 0.  1.
         13   -1    0    0    0    0 -0.00000000000E+00 -0.00000000000E+00 -0.10000000000E+04  0.10000000000E+04  0.00000000000E+00 0.  1.
    9000005    2    1    2  501    0  0.10868130837E+00 -0.67041130501E-01 -0.89179535445E+03  0.11081667471E+04  0.65782563705E+03 0.  0.
         13    1    3    3    0    0  0.12826003825E+03  0.27464856642E+03 -0.66094071884E+03  0.72713486112E+03  0.00000000000E+00 0.  1.
          1    1    3    3  501    0 -0.12815135694E+03 -0.27471560755E+03 -0.23085463561E+03  0.38103188594E+03  0.00000000000E+00 0.  1.
         21    1    1    2  502  501 -0.10868130837E+00  0.67041130501E-01  0.19617988731E+00  0.23407838036E+00  0.00000000000E+00 0. -1.
<mgrwt>
<rscale>  1 0.65782565E+03</rscale>
<asrwt>0</asrwt>
<pdfrwt beam="1">  1        1 0.39418565E+00 0.65782565E+03</pdfrwt>
<pdfrwt beam="2">0</pdfrwt>
<totfact> 0.14179288E+00</totfact>
</mgrwt>
</event>
<event>
 6    1  0.3263951E-003  0.5458329E+03  0.7818608E-02  0.1002463E+00
          3   -1    0    0  502    0  0.00000000000E+00  0.00000000000E+00  0.74483871793E+02  0.74483871793E+02  0.00000000000E+00 0.  1.
         13   -1    0    0    0    0 -0.00000000000E+00 -0.00000000000E+00 -0.10000000000E+04  0.10000000000E+04  0.00000000000E+00 0.  1.
    9000005    2    1    2  501    0  0.10782615274E-03 -0.19337538187E-03 -0.92551657953E+03  0.10744833691E+04  0.54583291532E+03 0.  0.
         13    1    3    3    0    0  0.23187724329E+03  0.94053317695E+01 -0.74548549094E+03  0.78077149885E+03  0.00000000000E+00 0.  1.
          3    1    3    3  501    0 -0.23187713546E+03 -0.94055251449E+01 -0.18003108860E+03  0.29371187023E+03  0.00000000000E+00 0.  1.
         21    1    1    2  502  501 -0.10782615275E-03  0.19337538187E-03  0.45132663078E-03  0.50270890701E-03  0.00000000000E+00 0.  1.
<mgrwt>
<rscale>  1 0.54583292E+03</rscale>
<asrwt>0</asrwt>
<pdfrwt beam="1">  1        3 0.27085101E+00 0.54583292E+03</pdfrwt>
<pdfrwt beam="2">0</pdfrwt>
<totfact> 0.29587220E-01</totfact>
</mgrwt>
</event>
<event>
 6    1  0.3263951E-003  0.6453927E+03  0.7818608E-02  0.9815463E-01
          1   -1    0    0  502    0  0.00000000000E+00  0.00000000000E+00  0.10425957350E+03  0.10425957350E+03  0.00000000000E+00 0.  1.
         13   -1    0    0    0    0 -0.00000000000E+00 -0.00000000000E+00 -0.10000000000E+04  0.10000000000E+04  0.00000000000E+00 0.  1.
    9000005    2    1    2  501    0  0.34398342399E-02 -0.11342244791E-02 -0.89586705093E+03  0.11041328973E+04  0.64539265715E+03 0.  0.
         13    1    3    3    0    0 -0.27671453134E+03  0.10202304004E+03 -0.22387475210E+03  0.37026954666E+03  0.00000000000E+00 0.  1.
          1    1    3    3  501    0  0.27671797117E+03 -0.10202417427E+03 -0.67199229883E+03  0.73386335062E+03  0.00000000000E+00 0.  1.
         21    1    1    2  502  501 -0.34398342398E-02  0.11342244791E-02  0.12662442945E+00  0.12667622136E+00  0.00000000000E+00 0.  1.
<mgrwt>
<rscale>  1 0.64539266E+03</rscale>
<asrwt>0</asrwt>
<pdfrwt beam="1">  1        1 0.37912652E+00 0.64539266E+03</pdfrwt>
<pdfrwt beam="2">0</pdfrwt>
<totfact> 0.16569987E+00</totfact>
</mgrwt>
</event>
<event>
 6    1  0.3263951E-003  0.6442691E+03  0.7818608E-02  0.9817593E-01
          3   -1    0    0  502    0  0.00000000000E+00  0.00000000000E+00  0.10377080805E+03  0.10377080805E+03  0.00000000000E+00 0.  1.
         13   -1    0    0    0    0 -0.00000000000E+00 -0.00000000000E+00 -0.10000000000E+04  0.10000000000E+04  0.00000000000E+00 0.  1.
    9000005    2    1    2  501    0  0.65475283861E-04  0.15555301729E-03 -0.89622925038E+03  0.11037706294E+04  0.64426914654E+03 0.  0.
         13    1    3    3    0    0 -0.27859729920E+03  0.15047092568E+03 -0.34657534607E+03  0.46943841459E+03  0.00000000000E+00 0.  1.
          3    1    3    3  501    0  0.27859736467E+03 -0.15047077013E+03 -0.54965390432E+03  0.63433221485E+03  0.00000000000E+00 0.  1.
         21    1    1    2  502  501 -0.65475283873E-04 -0.15555301731E-03  0.58429508740E-04  0.17859944425E-03  0.00000000000E+00 0. -1.
<mgrwt>
<rscale>  1 0.64426915E+03</rscale>
<asrwt>0</asrwt>
<pdfrwt beam="1">  1        3 0.37734919E+00 0.64426915E+03</pdfrwt>
<pdfrwt beam="2">0</pdfrwt>
<totfact> 0.78027312E-02</totfact>
</mgrwt>
</event>
<event>
 6    1  0.3263951E-003  0.6579598E+03  0.7818608E-02  0.9791957E-01
          1   -1    0    0  502    0  0.00000000000E+00  0.00000000000E+00  0.10881433233E+03  0.10881433233E+03  0.00000000000E+00 0.  1.
         13   -1    0    0    0    0 -0.00000000000E+00 -0.00000000000E+00 -0.10000000000E+04  0.10000000000E+04  0.00000000000E+00 0.  1.
    9000005    2    1    2  501    0 -0.19160395885E+00  0.13551798531E-02 -0.89175484293E+03  0.11082137706E+04  0.65795974403E+03 0.  0.
         13    1    3    3    0    0 -0.52553593336E+02  0.93450785702E+01  0.10089246991E+03  0.11414245989E+03  0.00000000000E+00 0.  1.
          3    1    3    3  501    0  0.52361989378E+02 -0.93437233904E+01 -0.99264731284E+03  0.99407131071E+03  0.00000000000E+00 0.  1.
         21    1    1    2  502  501  0.19160395885E+00 -0.13551798531E-02  0.56917525968E+00  0.60056172855E+00  0.00000000000E+00 0.  1.
<mgrwt>
<rscale>  1 0.65795977E+03</rscale>
<asrwt>0</asrwt>
<pdfrwt beam="1">  1        1 0.39568932E+00 0.65795977E+03</pdfrwt>
<pdfrwt beam="2">0</pdfrwt>
<totfact> 0.13962318E+00</totfact>
</mgrwt>
</event>
<event>
 6    1  0.3263951E-003  0.6545920E+03  0.7818608E-02  0.9798201E-01
          1   -1    0    0  502    0  0.00000000000E+00  0.00000000000E+00  0.10714823097E+03  0.10714823097E+03  0.00000000000E+00 0.  1.
         13   -1    0    0    0    0 -0.00000000000E+00 -0.00000000000E+00 -0.10000000000E+04  0.10000000000E+04  0.00000000000E+00 0.  1.
    9000005    2    1    2  501    0  0.13110666703E-01  0.38812133108E-01 -0.89285767382E+03  0.11071068409E+04  0.65459203310E+03 0.  0.
         13    1    3    3    0    0  0.95102253121E+02  0.30236963817E+03 -0.30839180308E+03  0.44224126994E+03  0.00000000000E+00 0.  1.
          1    1    3    3  501    0 -0.95089142454E+02 -0.30233082604E+03 -0.58446587074E+03  0.66486557096E+03  0.00000000000E+00 0.  1.
         21    1    1    2  502  501 -0.13110666703E-01 -0.38812133108E-01  0.59047918992E-02  0.41390069161E-01  0.00000000000E+00 0.  1.
<mgrwt>
<rscale>  1 0.65459203E+03</rscale>
<asrwt>0</asrwt>
<pdfrwt beam="1">  1        1 0.38963075E+00 0.65459203E+03</pdfrwt>
<pdfrwt beam="2">0</pdfrwt>
<totfact> 0.14864007E+00</totfact>
</mgrwt>
</event>
<event>
 6    1  0.3263951E-003  0.6407459E+03  0.7818608E-02  0.9824301E-01
          1   -1    0    0  502    0  0.00000000000E+00  0.00000000000E+00  0.10263895111E+03  0.10263895111E+03  0.00000000000E+00 0.  1.
         13   -1    0    0    0    0 -0.00000000000E+00 -0.00000000000E+00 -0.10000000000E+04  0.10000000000E+04  0.00000000000E+00 0.  1.
    9000005    2    1    2  501    0 -0.50612707383E-04 -0.91333529269E-04 -0.89736115970E+03  0.11026387989E+04  0.64074586991E+03 0.  0.
         13    1    3    3    0    0  0.17063063771E+03  0.26206968334E+03 -0.32891688469E+03  0.45385201386E+03  0.00000000000E+00 0.  1.
          3    1    3    3  501    0 -0.17063068832E+03 -0.26206977467E+03 -0.56844427501E+03  0.64878678500E+03  0.00000000000E+00 0.  1.
         21    1    1    2  502  501  0.50612707392E-04  0.91333529247E-04  0.11080472536E-03  0.15225356112E-03  0.00000000000E+00 0. -1.
<mgrwt>
<rscale>  1 0.64074587E+03</rscale>
<asrwt>0</asrwt>
<pdfrwt beam="1">  1        1 0.37323334E+00 0.64074587E+03</pdfrwt>
<pdfrwt beam="2">0</pdfrwt>
<totfact> 0.17605434E+00</totfact>
</mgrwt>
</event>
<event>
 6    1  0.3263951E-003  0.6550895E+03  0.7818608E-02  0.9797276E-01
          1   -1    0    0  502    0  0.00000000000E+00  0.00000000000E+00  0.10798071756E+03  0.10798071756E+03  0.00000000000E+00 0.  1.
         13   -1    0    0    0    0 -0.00000000000E+00 -0.00000000000E+00 -0.10000000000E+04  0.10000000000E+04  0.00000000000E+00 0.  1.
    9000005    2    1    2  501    0  0.13157602716E+00 -0.70077366481E+00 -0.89250591373E+03  0.11071174644E+04  0.65508912795E+03 0.  0.
         13    1    3    3    0    0 -0.20328279442E+03  0.23480186444E+03 -0.62016734667E+03  0.69358730375E+03  0.00000000000E+00 0.  1.
          3    1    3    3  501    0  0.20341437045E+03 -0.23550263811E+03 -0.27233856707E+03  0.41353016066E+03  0.00000000000E+00 0.  1.
         21    1    1    2  502  501 -0.13157602716E+00  0.70077366481E+00  0.48663129195E+00  0.86325314625E+00  0.00000000000E+00 0.  1.
<mgrwt>
<rscale>  1 0.65508952E+03</rscale>
<asrwt>0</asrwt>
<pdfrwt beam="1">  1        1 0.39265798E+00 0.65508952E+03</pdfrwt>
<pdfrwt beam="2">0</pdfrwt>
<totfact> 0.14409962E+00</totfact>
</mgrwt>
</event>
<event>
 6    1  0.3263951E-003  0.6381186E+03  0.7818608E-02  0.9829333E-01
          1   -1    0    0  502    0  0.00000000000E+00  0.00000000000E+00  0.10572949357E+03  0.10572949357E+03  0.00000000000E+00 0.  1.
         13   -1    0    0    0    0 -0.00000000000E+00 -0.00000000000E+00 -0.10000000000E+04  0.10000000000E+04  0.00000000000E+00 0.  1.
    9000005    2    1    2  501    0 -0.27897249853E-01  0.12118851675E+00 -0.89820006829E+03  0.11017979644E+04  0.63811862242E+03 0.  0.
         13    1    3    3    0    0 -0.23607369608E+03  0.11757534192E+02 -0.79046105618E+02  0.24923345763E+03  0.00000000000E+00 0.  1.
          3    1    3    3  501    0  0.23604579883E+03 -0.11636345675E+02 -0.81915396268E+03  0.85256450680E+03  0.00000000000E+00 0.  1.
         21    1    1    2  502  501  0.27897249853E-01 -0.12118851675E+00  0.39295618676E+01  0.39315291408E+01  0.00000000000E+00 0.  1.
<mgrwt>
<rscale>  1 0.63811863E+03</rscale>
<asrwt>0</asrwt>
<pdfrwt beam="1">  1        1 0.38447170E+00 0.63811863E+03</pdfrwt>
<pdfrwt beam="2">0</pdfrwt>
<totfact> 0.15714796E+00</totfact>
</mgrwt>
</event>
<event>
 6    1  0.3263951E-003  0.8012734E+03  0.7818608E-02  0.9558176E-01
          1   -1    0    0  502    0  0.00000000000E+00  0.00000000000E+00  0.16052079685E+03  0.16052079685E+03  0.00000000000E+00 0.  1.
         13   -1    0    0    0    0 -0.00000000000E+00 -0.00000000000E+00 -0.10000000000E+04  0.10000000000E+04  0.00000000000E+00 0.  1.
    9000005    2    1    2  501    0  0.18943995471E-03  0.60279787525E-03 -0.83949023781E+03  0.11605097441E+04  0.80127336585E+03 0.  0.
         13    1    3    3    0    0 -0.13636093705E+03  0.23529195787E+03 -0.84584356125E+03  0.88848631993E+03  0.00000000000E+00 0.  1.
          1    1    3    3  501    0  0.13636112649E+03 -0.23529135507E+03  0.63533234444E+01  0.27202342419E+03  0.00000000000E+00 0.  1.
         21    1    1    2  502  501 -0.18943995470E-03 -0.60279787525E-03  0.11034657252E-01  0.11052733302E-01  0.00000000000E+00 0.  1.
<mgrwt>
<rscale>  1 0.80127337E+03</rscale>
<asrwt>0</asrwt>
<pdfrwt beam="1">  1        1 0.58371322E+00 0.80127337E+03</pdfrwt>
<pdfrwt beam="2">0</pdfrwt>
<totfact> 0.16890735E-01</totfact>
</mgrwt>
</event>
<event>
 6    1  0.3263951E-003  0.6457241E+03  0.7818608E-02  0.9814836E-01
          1   -1    0    0  502    0  0.00000000000E+00  0.00000000000E+00  0.10429587769E+03  0.10429587769E+03  0.00000000000E+00 0.  1.
         13   -1    0    0    0    0 -0.00000000000E+00 -0.00000000000E+00 -0.10000000000E+04  0.10000000000E+04  0.00000000000E+00 0.  1.
    9000005    2    1    2  501    0 -0.15990707273E-02  0.21839370407E-03 -0.89576008390E+03  0.11042398928E+04  0.64572409975E+03 0.  0.
         13    1    3    3    0    0  0.12713855895E+03 -0.28998880709E+03 -0.33996928309E+03  0.46458243063E+03  0.00000000000E+00 0.  1.
          3    1    3    3  501    0 -0.12714015802E+03  0.28998902548E+03 -0.55579080081E+03  0.63965746220E+03  0.00000000000E+00 0.  1.
         21    1    1    2  502  501  0.15990707273E-02 -0.21839370407E-03  0.55961591210E-01  0.55984858790E-01  0.00000000000E+00 0.  1.
<mgrwt>
<rscale>  1 0.64572410E+03</rscale>
<asrwt>0</asrwt>
<pdfrwt beam="1">  1        1 0.37925854E+00 0.64572410E+03</pdfrwt>
<pdfrwt beam="2">0</pdfrwt>
<totfact> 0.16546780E+00</totfact>
</mgrwt>
</event>
<event>
 6    1  0.3263951E-003  0.6432077E+03  0.7818608E-02  0.9819609E-01
          1   -1    0    0  502    0  0.00000000000E+00  0.00000000000E+00  0.11198083066E+03  0.11198083066E+03  0.00000000000E+00 0.  1.
         13   -1    0    0    0    0 -0.00000000000E+00 -0.00000000000E+00 -0.10000000000E+04  0.10000000000E+04  0.00000000000E+00 0.  1.
    9000005    2    1    2  501    0 -0.10225732291E+00  0.26297077245E+00 -0.89656841040E+03  0.11034269349E+04  0.64320759207E+03 0.  0.
         13    1    3    3    0    0 -0.17201384275E+03  0.27080009015E+03 -0.49036978167E+03  0.58598973856E+03  0.00000000000E+00 0.  1.
          1    1    3    3  501    0  0.17191158543E+03 -0.27053711938E+03 -0.40619862872E+03  0.51743719633E+03  0.00000000000E+00 0.  1.
         21    1    1    2  502  501  0.10225732291E+00 -0.26297077245E+00  0.85492410591E+01  0.85538957717E+01  0.00000000000E+00 0.  1.
<mgrwt>
<rscale>  1 0.64320765E+03</rscale>
<asrwt>0</asrwt>
<pdfrwt beam="1">  1        1 0.40720388E+00 0.64320765E+03</pdfrwt>
<pdfrwt beam="2">0</pdfrwt>
<totfact> 0.12439787E+00</totfact>
</mgrwt>
</event>
<event>
 6    1  0.3263951E-003  0.6488953E+03  0.7818608E-02  0.9808854E-01
          1   -1    0    0  502    0  0.00000000000E+00  0.00000000000E+00  0.10530848629E+03  0.10530848629E+03  0.00000000000E+00 0.  1.
         13   -1    0    0    0    0 -0.00000000000E+00 -0.00000000000E+00 -0.10000000000E+04  0.10000000000E+04  0.00000000000E+00 0.  1.
    9000005    2    1    2  501    0 -0.25173963166E-01  0.93171620920E-01 -0.89466068350E+03  0.11052071691E+04  0.64889532178E+03 0.  0.
         13    1    3    3    0    0 -0.31193168784E+03 -0.89118644733E+02 -0.45537619395E+03  0.55911625691E+03  0.00000000000E+00 0.  1.
          3    1    3    3  501    0  0.31190651388E+03  0.89211816354E+02 -0.43928448955E+03  0.54609091215E+03  0.00000000000E+00 0.  1.
         21    1    1    2  502  501  0.25173963166E-01 -0.93171620920E-01 -0.30830212778E-01  0.10131723144E+00  0.00000000000E+00 0. -1.
<mgrwt>
<rscale>  1 0.64889533E+03</rscale>
<asrwt>0</asrwt>
<pdfrwt beam="1">  1        1 0.38294076E+00 0.64889533E+03</pdfrwt>
<pdfrwt beam="2">0</pdfrwt>
<totfact> 0.15929585E+00</totfact>
</mgrwt>
</event>
<event>
 6    1  0.3263951E-003  0.4930806E+03  0.7818608E-02  0.1015601E+00
          1   -1    0    0  502    0  0.00000000000E+00  0.00000000000E+00  0.60782417169E+02  0.60782417169E+02  0.00000000000E+00 0.  1.
         13   -1    0    0    0    0 -0.00000000000E+00 -0.00000000000E+00 -0.10000000000E+04  0.10000000000E+04  0.00000000000E+00 0.  1.
    9000005    2    1    2  501    0 -0.14406869639E-04 -0.62913511556E-06 -0.93921787364E+03  0.10607821260E+04  0.49308062696E+03 0.  0.
         13    1    3    3    0    0 -0.67628366006E+02  0.19580828777E+03 -0.18204003865E+03  0.27577718745E+03  0.00000000000E+00 0.  1.
          1    1    3    3  501    0  0.67628351599E+02 -0.19580828840E+03 -0.75717783499E+03  0.78500493855E+03  0.00000000000E+00 0.  1.
         21    1    1    2  502  501  0.14406869639E-04  0.62913511989E-06  0.29080812685E-03  0.29116545184E-03  0.00000000000E+00 0. -1.
<mgrwt>
<rscale>  1 0.49308063E+03</rscale>
<asrwt>0</asrwt>
<pdfrwt beam="1">  1        1 0.22102744E+00 0.49308063E+03</pdfrwt>
<pdfrwt beam="2">0</pdfrwt>
<totfact> 0.82845565E+00</totfact>
</mgrwt>
</event>
<event>
 6    1  0.3263951E-003  0.6490658E+03  0.7818608E-02  0.9808534E-01
          1   -1    0    0  502    0  0.00000000000E+00  0.00000000000E+00  0.10532773527E+03  0.10532773527E+03  0.00000000000E+00 0.  1.
         13   -1    0    0    0    0 -0.00000000000E+00 -0.00000000000E+00 -0.10000000000E+04  0.10000000000E+04  0.00000000000E+00 0.  1.
    9000005    2    1    2  501    0  0.21080976393E-03  0.26668024471E-03 -0.89467839807E+03  0.11053215925E+04  0.64906578010E+03 0.  0.
         13    1    3    3    0    0  0.25933096785E+03  0.11721046419E+03 -0.18170854971E+03  0.33765195222E+03  0.00000000000E+00 0.  1.
          1    1    3    3  501    0 -0.25933075704E+03 -0.11721019751E+03 -0.71296984837E+03  0.76766964029E+03  0.00000000000E+00 0.  1.
         21    1    1    2  502  501 -0.21080976393E-03 -0.26668024470E-03  0.61333424735E-02  0.61427558153E-02  0.00000000000E+00 0. -1.
<mgrwt>
<rscale>  1 0.64906578E+03</rscale>
<asrwt>0</asrwt>
<pdfrwt beam="1">  1        1 0.38301075E+00 0.64906578E+03</pdfrwt>
<pdfrwt beam="2">0</pdfrwt>
<totfact> 0.15917745E+00</totfact>
</mgrwt>
</event>
<event>
 6    1  0.3263951E-003  0.6714559E+03  0.7818608E-02  0.9767331E-01
          1   -1    0    0  502    0  0.00000000000E+00  0.00000000000E+00  0.11271762222E+03  0.11271762222E+03  0.00000000000E+00 0.  1.
         13   -1    0    0    0    0 -0.00000000000E+00 -0.00000000000E+00 -0.10000000000E+04  0.10000000000E+04  0.00000000000E+00 0.  1.
    9000005    2    1    2  501    0 -0.25005045659E-02 -0.10872108682E-03 -0.88728635473E+03  0.11127129232E+04  0.67145586172E+03 0.  0.
         13    1    3    3    0    0 -0.23923024709E+03 -0.66807674864E+02 -0.81795627767E+03  0.85483732296E+03  0.00000000000E+00 0.  1.
          1    1    3    3  501    0  0.23922774659E+03  0.66807566143E+02 -0.69330077063E+02  0.25787560028E+03  0.00000000000E+00 0.  1.
         21    1    1    2  502  501  0.25005045659E-02  0.10872108682E-03  0.39769499964E-02  0.46989865538E-02  0.00000000000E+00 0.  1.
<mgrwt>
<rscale>  1 0.67145586E+03</rscale>
<asrwt>0</asrwt>
<pdfrwt beam="1">  1        1 0.40988313E+00 0.67145586E+03</pdfrwt>
<pdfrwt beam="2">0</pdfrwt>
<totfact> 0.12035375E+00</totfact>
</mgrwt>
</event>
<event>
 6    1  0.3263951E-003  0.6448946E+03  0.7818608E-02  0.9816406E-01
          3   -1    0    0  502    0  0.00000000000E+00  0.00000000000E+00  0.10397590472E+03  0.10397590472E+03  0.00000000000E+00 0.  1.
         13   -1    0    0    0    0 -0.00000000000E+00 -0.00000000000E+00 -0.10000000000E+04  0.10000000000E+04  0.00000000000E+00 0.  1.
    9000005    2    1    2  501    0  0.34779602565E-02 -0.73434218735E-02 -0.89602180750E+03  0.11039674634E+04  0.64489462755E+03 0.  0.
         13    1    3    3    0    0 -0.90732751970E+02 -0.19593748804E+03 -0.85796454895E+03  0.88471865514E+03  0.00000000000E+00 0.  1.
          1    1    3    3  501    0  0.90736229930E+02  0.19593014462E+03 -0.38057258557E+02  0.21924880826E+03  0.00000000000E+00 0.  1.
         21    1    1    2  502  501 -0.34779602565E-02  0.73434218735E-02 -0.22877768447E-02  0.84413254439E-02  0.00000000000E+00 0.  1.
<mgrwt>
<rscale>  1 0.64489463E+03</rscale>
<asrwt>0</asrwt>
<pdfrwt beam="1">  1        3 0.37809500E+00 0.64489463E+03</pdfrwt>
<pdfrwt beam="2">0</pdfrwt>
<totfact> 0.77314214E-02</totfact>
</mgrwt>
</event>
<event>
 6    1  0.3263951E-003  0.6540945E+03  0.7818608E-02  0.9799126E-01
          1   -1    0    0  502    0  0.00000000000E+00  0.00000000000E+00  0.10722637151E+03  0.10722637151E+03  0.00000000000E+00 0.  1.
         13   -1    0    0    0    0 -0.00000000000E+00 -0.00000000000E+00 -0.10000000000E+04  0.10000000000E+04  0.00000000000E+00 0.  1.
    9000005    2    1    2  501    0  0.20803343787E-01 -0.26835900779E-01 -0.89303888919E+03  0.11069589464E+04  0.65409452703E+03 0.  0.
         13    1    3    3    0    0  0.16758506055E+03 -0.57821136429E+01  0.28675866444E+02  0.17011904853E+03  0.00000000000E+00 0.  1.
          3    1    3    3  501    0 -0.16756425720E+03  0.57552777421E+01 -0.92171475563E+03  0.93683989788E+03  0.00000000000E+00 0.  1.
         21    1    1    2  502  501 -0.20803343787E-01  0.26835900779E-01  0.26526070145E+00  0.26742510058E+00  0.00000000000E+00 0.  1.
<mgrwt>
<rscale>  1 0.65409453E+03</rscale>
<asrwt>0</asrwt>
<pdfrwt beam="1">  1        1 0.38991490E+00 0.65409453E+03</pdfrwt>
<pdfrwt beam="2">0</pdfrwt>
<totfact> 0.14822313E+00</totfact>
</mgrwt>
</event>
<event>
 6    1  0.3263951E-003  0.6390688E+03  0.7818608E-02  0.9827510E-01
          3   -1    0    0  502    0  0.00000000000E+00  0.00000000000E+00  0.10210384801E+03  0.10210384801E+03  0.00000000000E+00 0.  1.
         13   -1    0    0    0    0 -0.00000000000E+00 -0.00000000000E+00 -0.10000000000E+04  0.10000000000E+04  0.00000000000E+00 0.  1.
    9000005    2    1    2  501    0  0.11392064987E-02  0.86301669117E-03 -0.89789742533E+03  0.11021019339E+04  0.63906876485E+03 0.  0.
         13    1    3    3    0    0  0.98225494604E+02  0.19121726069E+03 -0.85665057176E+03  0.88321146430E+03  0.00000000000E+00 0.  1.
          1    1    3    3  501    0 -0.98224355398E+02 -0.19121639768E+03 -0.41246853568E+02  0.21889046956E+03  0.00000000000E+00 0.  1.
         21    1    1    2  502  501 -0.11392064987E-02 -0.86301669116E-03  0.12733346165E-02  0.19141500206E-02  0.00000000000E+00 0.  1.
<mgrwt>
<rscale>  1 0.63906876E+03</rscale>
<asrwt>0</asrwt>
<pdfrwt beam="1">  1        3 0.37128750E+00 0.63906876E+03</pdfrwt>
<pdfrwt beam="2">0</pdfrwt>
<totfact> 0.84079211E-02</totfact>
</mgrwt>
</event>
<event>
 6    1  0.3263951E-003  0.6583495E+03  0.7818608E-02  0.9791237E-01
          1   -1    0    0  502    0  0.00000000000E+00  0.00000000000E+00  0.10835663269E+03  0.10835663269E+03  0.00000000000E+00 0.  1.
         13   -1    0    0    0    0 -0.00000000000E+00 -0.00000000000E+00 -0.10000000000E+04  0.10000000000E+04  0.00000000000E+00 0.  1.
    9000005    2    1    2  501    0  0.32877322423E-03 -0.61656340370E-03 -0.89164375089E+03  0.11083558356E+04  0.65834951187E+03 0.  0.
         13    1    3    3    0    0  0.13227545077E+03 -0.30072386054E+03 -0.48051357493E+03  0.58208670391E+03  0.00000000000E+00 0.  1.
          3    1    3    3  501    0 -0.13227512200E+03  0.30072324398E+03 -0.41113017596E+03  0.52626913168E+03  0.00000000000E+00 0.  1.
         21    1    1    2  502  501 -0.32877322421E-03  0.61656340370E-03  0.38358232818E-03  0.79710580617E-03  0.00000000000E+00 0.  1.
<mgrwt>
<rscale>  1 0.65834951E+03</rscale>
<asrwt>0</asrwt>
<pdfrwt beam="1">  1        1 0.39402495E+00 0.65834951E+03</pdfrwt>
<pdfrwt beam="2">0</pdfrwt>
<totfact> 0.14201243E+00</totfact>
</mgrwt>
</event>
<event>
 6    1  0.3263951E-003  0.6238572E+03  0.7818608E-02  0.9857110E-01
          1   -1    0    0  502    0  0.00000000000E+00  0.00000000000E+00  0.97299463313E+02  0.97299463313E+02  0.00000000000E+00 0.  1.
         13   -1    0    0    0    0 -0.00000000000E+00 -0.00000000000E+00 -0.10000000000E+04  0.10000000000E+04  0.00000000000E+00 0.  1.
    9000005    2    1    2  501    0 -0.18173507016E-04  0.32068639655E-05 -0.90270055647E+03  0.10972994363E+04  0.62385716166E+03 0.  0.
         13    1    3    3    0    0  0.15948067184E+03 -0.20558335882E+03 -0.75396632391E+03  0.79759878366E+03  0.00000000000E+00 0.  1.
          1    1    3    3  501    0 -0.15948069002E+03  0.20558336202E+03 -0.14873423256E+03  0.29970065259E+03  0.00000000000E+00 0.  1.
         21    1    1    2  502  501  0.18173507036E-04 -0.32068639838E-05  0.19783497387E-04  0.27054520944E-04  0.00000000000E+00 0. -1.
<mgrwt>
<rscale>  1 0.62385716E+03</rscale>
<asrwt>0</asrwt>
<pdfrwt beam="1">  1        1 0.35381698E+00 0.62385716E+03</pdfrwt>
<pdfrwt beam="2">0</pdfrwt>
<totfact> 0.21479259E+00</totfact>
</mgrwt>
</event>
<event>
 6    1  0.3263951E-003  0.5868020E+03  0.7818608E-02  0.9933172E-01
          1   -1    0    0  502    0  0.00000000000E+00  0.00000000000E+00  0.86084692455E+02  0.86084692455E+02  0.00000000000E+00 0.  1.
         13   -1    0    0    0    0 -0.00000000000E+00 -0.00000000000E+00 -0.10000000000E+04  0.10000000000E+04  0.00000000000E+00 0.  1.
    9000005    2    1    2  501    0  0.38970271021E-04 -0.11506963938E-03 -0.91391584399E+03  0.10860841424E+04  0.58680200624E+03 0.  0.
         13    1    3    3    0    0 -0.26565551504E+03 -0.39066361177E+02 -0.67583727078E+03  0.72722420877E+03  0.00000000000E+00 0.  1.
          3    1    3    3  501    0  0.26565555401E+03  0.39066246107E+02 -0.23807857321E+03  0.35885993365E+03  0.00000000000E+00 0.  1.
         21    1    1    2  502  501 -0.38970271062E-04  0.11506963938E-03  0.53644480809E-03  0.55002975925E-03  0.00000000000E+00 0.  1.
<mgrwt>
<rscale>  1 0.58680201E+03</rscale>
<asrwt>0</asrwt>
<pdfrwt beam="1">  1        1 0.31303591E+00 0.58680201E+03</pdfrwt>
<pdfrwt beam="2">0</pdfrwt>
<totfact> 0.32490902E+00</totfact>
</mgrwt>
</event>
<event>
 6    1  0.3263951E-003  0.6491959E+03  0.7818608E-02  0.9808289E-01
          1   -1    0    0  502    0  0.00000000000E+00  0.00000000000E+00  0.10628402821E+03  0.10628402821E+03  0.00000000000E+00 0.  1.
         13   -1    0    0    0    0 -0.00000000000E+00 -0.00000000000E+00 -0.10000000000E+04  0.10000000000E+04  0.00000000000E+00 0.  1.
    9000005    2    1    2  501    0 -0.59788897871E-01  0.39188712371E-01 -0.89463463647E+03  0.11053625863E+04  0.64919589435E+03 0.  0.
         13    1    3    3    0    0 -0.27599854491E+03 -0.62409624054E+02 -0.71821380300E+03  0.77194638725E+03  0.00000000000E+00 0.  1.
          3    1    3    3  501    0  0.27593875601E+03  0.62448812766E+02 -0.17642083346E+03  0.33341619901E+03  0.00000000000E+00 0.  1.
         21    1    1    2  502  501  0.59788897872E-01 -0.39188712371E-01  0.91866468072E+00  0.92144194775E+00  0.00000000000E+00 0.  1.
<mgrwt>
<rscale>  1 0.64919590E+03</rscale>
<asrwt>0</asrwt>
<pdfrwt beam="1">  1        1 0.38648819E+00 0.64919590E+03</pdfrwt>
<pdfrwt beam="2">0</pdfrwt>
<totfact> 0.15363569E+00</totfact>
</mgrwt>
</event>
<event>
 6    1  0.3263951E-003  0.6447279E+03  0.7818608E-02  0.9816723E-01
          1   -1    0    0  502    0  0.00000000000E+00  0.00000000000E+00  0.10404500399E+03  0.10404500399E+03  0.00000000000E+00 0.  1.
         13   -1    0    0    0    0 -0.00000000000E+00 -0.00000000000E+00 -0.10000000000E+04  0.10000000000E+04  0.00000000000E+00 0.  1.
    9000005    2    1    2  501    0  0.12319358111E-01  0.60902615242E-02 -0.89608107706E+03  0.11039181762E+04  0.64472788283E+03 0.  0.
         13    1    3    3    0    0  0.73328559319E+02  0.20445585777E+03 -0.85590449210E+03  0.88303554571E+03  0.00000000000E+00 0.  1.
          3    1    3    3  501    0 -0.73316239961E+02 -0.20444976750E+03 -0.40176584955E+02  0.22088263049E+03  0.00000000000E+00 0.  1.
         21    1    1    2  502  501 -0.12319358111E-01 -0.60902615242E-02  0.12608104989E+00  0.12682779274E+00  0.00000000000E+00 0. -1.
<mgrwt>
<rscale>  1 0.64472788E+03</rscale>
<asrwt>0</asrwt>
<pdfrwt beam="1">  1        1 0.37834627E+00 0.64472788E+03</pdfrwt>
<pdfrwt beam="2">0</pdfrwt>
<totfact> 0.16703817E+00</totfact>
</mgrwt>
</event>
<event>
 6    1  0.3263951E-003  0.6402181E+03  0.7818608E-02  0.9825309E-01
          1   -1    0    0  502    0  0.00000000000E+00  0.00000000000E+00  0.10256496307E+03  0.10256496307E+03  0.00000000000E+00 0.  1.
         13   -1    0    0    0    0 -0.00000000000E+00 -0.00000000000E+00 -0.10000000000E+04  0.10000000000E+04  0.00000000000E+00 0.  1.
    9000005    2    1    2  501    0  0.14703286696E-02 -0.30052149309E-02 -0.89753017393E+03  0.11024697673E+04  0.64021806799E+03 0.  0.
         13    1    3    3    0    0 -0.17282931481E+03 -0.19005816621E+03 -0.11987290801E+03  0.28348120339E+03  0.00000000000E+00 0.  1.
          1    1    3    3  501    0  0.17283078513E+03  0.19005516099E+03 -0.77765726592E+03  0.81898856387E+03  0.00000000000E+00 0.  1.
         21    1    1    2  502  501 -0.14703286696E-02  0.30052149309E-02  0.95136999649E-01  0.95195808129E-01  0.00000000000E+00 0. -1.
<mgrwt>
<rscale>  1 0.64021807E+03</rscale>
<asrwt>0</asrwt>
<pdfrwt beam="1">  1        1 0.37296429E+00 0.64021807E+03</pdfrwt>
<pdfrwt beam="2">0</pdfrwt>
<totfact> 0.17655169E+00</totfact>
</mgrwt>
</event>
<event>
 6    1  0.3263951E-003  0.6455550E+03  0.7818608E-02  0.9815156E-01
          1   -1    0    0  502    0  0.00000000000E+00  0.00000000000E+00  0.10418900478E+03  0.10418900478E+03  0.00000000000E+00 0.  1.
         13   -1    0    0    0    0 -0.00000000000E+00 -0.00000000000E+00 -0.10000000000E+04  0.10000000000E+04  0.00000000000E+00 0.  1.
    9000005    2    1    2  501    0 -0.13435900118E-02 -0.78861024286E-02 -0.89580911368E+03  0.11041807867E+04  0.64555498728E+03 0.  0.
         13    1    3    3    0    0 -0.23450797431E+02  0.27392072106E+03 -0.15863548794E+03  0.31740781238E+03  0.00000000000E+00 0.  1.
          1    1    3    3  501    0  0.23449453841E+02 -0.27392860716E+03 -0.73717362574E+03  0.78677297436E+03  0.00000000000E+00 0.  1.
         21    1    1    2  502  501  0.13435900118E-02  0.78861024286E-02 -0.18815463841E-02  0.82180327591E-02  0.00000000000E+00 0. -1.
<mgrwt>
<rscale>  1 0.64555499E+03</rscale>
<asrwt>0</asrwt>
<pdfrwt beam="1">  1        1 0.37886991E+00 0.64555499E+03</pdfrwt>
<pdfrwt beam="2">0</pdfrwt>
<totfact> 0.16612727E+00</totfact>
</mgrwt>
</event>
<event>
 6    1  0.3263951E-003  0.6867377E+03  0.7818608E-02  0.9740185E-01
          3   -1    0    0  502    0  0.00000000000E+00  0.00000000000E+00  0.11790258288E+03  0.11790258288E+03  0.00000000000E+00 0.  1.
         13   -1    0    0    0    0 -0.00000000000E+00 -0.00000000000E+00 -0.10000000000E+04  0.10000000000E+04  0.00000000000E+00 0.  1.
    9000005    2    1    2  501    0  0.58103939047E-05  0.28476783314E-05 -0.88209784051E+03  0.11179021594E+04  0.68673767761E+03 0.  0.
         13    1    3    3    0    0  0.19972679062E+02 -0.34201199023E+03 -0.40353604679E+03  0.52935097094E+03  0.00000000000E+00 0.  1.
          1    1    3    3  501    0 -0.19972673251E+02  0.34201199308E+03 -0.47856179372E+03  0.58855118850E+03  0.00000000000E+00 0.  1.
         21    1    1    2  502  501 -0.58103939030E-05 -0.28476782828E-05  0.42339271843E-03  0.42344216131E-03  0.00000000000E+00 0.  1.
<mgrwt>
<rscale>  1 0.68673768E+03</rscale>
<asrwt>0</asrwt>
<pdfrwt beam="1">  1        3 0.42873757E+00 0.68673768E+03</pdfrwt>
<pdfrwt beam="2">0</pdfrwt>
<totfact> 0.41726387E-02</totfact>
</mgrwt>
</event>
<event>
 6    1  0.3263951E-003  0.6621456E+03  0.7818608E-02  0.9784252E-01
          1   -1    0    0  502    0  0.00000000000E+00  0.00000000000E+00  0.10968111340E+03  0.10968111340E+03  0.00000000000E+00 0.  1.
         13   -1    0    0    0    0 -0.00000000000E+00 -0.00000000000E+00 -0.10000000000E+04  0.10000000000E+04  0.00000000000E+00 0.  1.
    9000005    2    1    2  501    0  0.54582664703E-03 -0.17300005353E-02 -0.89039078838E+03  0.11096091887E+04  0.66214560007E+03 0.  0.
         13    1    3    3    0    0  0.30957655141E+02  0.18659284169E+03 -0.90054300174E+03  0.92019180771E+03  0.00000000000E+00 0.  1.
          1    1    3    3  501    0 -0.30957109315E+02 -0.18659457169E+03  0.10152213360E+02  0.18941738103E+03  0.00000000000E+00 0.  1.
         21    1    1    2  502  501 -0.54582664703E-03  0.17300005353E-02  0.71901786059E-01  0.71924666611E-01  0.00000000000E+00 0.  1.
<mgrwt>
<rscale>  1 0.66214560E+03</rscale>
<asrwt>0</asrwt>
<pdfrwt beam="1">  1        1 0.39884125E+00 0.66214560E+03</pdfrwt>
<pdfrwt beam="2">0</pdfrwt>
<totfact> 0.13507799E+00</totfact>
</mgrwt>
</event>
<event>
 6    1  0.3263951E-003  0.6543980E+03  0.7818608E-02  0.9798561E-01
          1   -1    0    0  502    0  0.00000000000E+00  0.00000000000E+00  0.10705944988E+03  0.10705944988E+03  0.00000000000E+00 0.  1.
         13   -1    0    0    0    0 -0.00000000000E+00 -0.00000000000E+00 -0.10000000000E+04  0.10000000000E+04  0.00000000000E+00 0.  1.
    9000005    2    1    2  501    0 -0.52166883895E-04 -0.61332731889E-04 -0.89294079492E+03  0.11070591922E+04  0.65439803770E+03 0.  0.
         13    1    3    3    0    0  0.10871843923E+02 -0.32473930437E+03 -0.38126989363E+03  0.50093966161E+03  0.00000000000E+00 0.  1.
          1    1    3    3  501    0 -0.10871896090E+02  0.32473924304E+03 -0.51167090130E+03  0.60611953056E+03  0.00000000000E+00 0.  1.
         21    1    1    2  502  501  0.52166883897E-04  0.61332731894E-04  0.24480233752E-03  0.25770384598E-03  0.00000000000E+00 0.  1.
<mgrwt>
<rscale>  1 0.65439804E+03</rscale>
<asrwt>0</asrwt>
<pdfrwt beam="1">  1        1 0.38930791E+00 0.65439804E+03</pdfrwt>
<pdfrwt beam="2">0</pdfrwt>
<totfact> 0.14913612E+00</totfact>
</mgrwt>
</event>
<event>
 6    1  0.3263951E-003  0.6195429E+03  0.7818608E-02  0.9865670E-01
          1   -1    0    0  502    0  0.00000000000E+00  0.00000000000E+00  0.95991515737E+02  0.95991515737E+02  0.00000000000E+00 0.  1.
         13   -1    0    0    0    0 -0.00000000000E+00 -0.00000000000E+00 -0.10000000000E+04  0.10000000000E+04  0.00000000000E+00 0.  1.
    9000005    2    1    2  501    0  0.34361462793E-01 -0.60661657504E-02 -0.90403132419E+03  0.10959498124E+04  0.61954285961E+03 0.  0.
         13    1    3    3    0    0  0.15295429900E+03 -0.25666197096E+03 -0.30729222209E+03  0.42860109038E+03  0.00000000000E+00 0.  1.
          3    1    3    3  501    0 -0.15291993754E+03  0.25665590479E+03 -0.59673910210E+03  0.66734872198E+03  0.00000000000E+00 0.  1.
         21    1    1    2  502  501 -0.34361462793E-01  0.60661657505E-02  0.22839929528E-01  0.41703367646E-01  0.00000000000E+00 0. -1.
<mgrwt>
<rscale>  1 0.61954286E+03</rscale>
<asrwt>0</asrwt>
<pdfrwt beam="1">  1        1 0.34906079E+00 0.61954286E+03</pdfrwt>
<pdfrwt beam="2">0</pdfrwt>
<totfact> 0.22547048E+00</totfact>
</mgrwt>
</event>
<event>
 6    1  0.3263951E-003  0.6492011E+03  0.7818608E-02  0.9808279E-01
          1   -1    0    0  502    0  0.00000000000E+00  0.00000000000E+00  0.10536553276E+03  0.10536553276E+03  0.00000000000E+00 0.  1.
         13   -1    0    0    0    0 -0.00000000000E+00 -0.00000000000E+00 -0.10000000000E+04  0.10000000000E+04  0.00000000000E+00 0.  1.
    9000005    2    1    2  501    0  0.17581471923E-05  0.93771858189E-06 -0.89463447853E+03  0.11053655213E+04  0.64920111330E+03 0.  0.
         13    1    3    3    0    0  0.21234949849E+03 -0.10135476402E+03 -0.66590393612E+02  0.24453911388E+03  0.00000000000E+00 0.  1.
          1    1    3    3  501    0 -0.21234949673E+03  0.10135476496E+03 -0.82804408492E+03  0.86082640742E+03  0.00000000000E+00 0.  1.
         21    1    1    2  502  501 -0.17581472122E-05 -0.93771857746E-06  0.11284550208E-04  0.11459121744E-04  0.00000000000E+00 0. -1.
<mgrwt>
<rscale>  1 0.64920111E+03</rscale>
<asrwt>0</asrwt>
<pdfrwt beam="1">  1        1 0.38314820E+00 0.64920111E+03</pdfrwt>
<pdfrwt beam="2">0</pdfrwt>
<totfact> 0.15895103E+00</totfact>
</mgrwt>
</event>
<event>
 6    1  0.3263951E-003  0.6593082E+03  0.7818608E-02  0.9789468E-01
          1   -1    0    0  502    0  0.00000000000E+00  0.00000000000E+00  0.10867181887E+03  0.10867181887E+03  0.00000000000E+00 0.  1.
         13   -1    0    0    0    0 -0.00000000000E+00 -0.00000000000E+00 -0.10000000000E+04  0.10000000000E+04  0.00000000000E+00 0.  1.
    9000005    2    1    2  501    0 -0.16650201928E-06 -0.55672887811E-06 -0.89132818271E+03  0.11086718172E+04  0.65930817447E+03 0.  0.
         13    1    3    3    0    0 -0.10328088748E+03 -0.31196683339E+03 -0.40176354173E+03  0.51904160750E+03  0.00000000000E+00 0.  1.
          3    1    3    3  501    0  0.10328088732E+03  0.31196683283E+03 -0.48956464099E+03  0.58963020969E+03  0.00000000000E+00 0.  1.
         21    1    1    2  502  501  0.16650201179E-06  0.55672891128E-06  0.15783806804E-05  0.16819499317E-05  0.00000000000E+00 0. -1.
<mgrwt>
<rscale>  1 0.65930817E+03</rscale>
<asrwt>0</asrwt>
<pdfrwt beam="1">  1        1 0.39517108E+00 0.65930817E+03</pdfrwt>
<pdfrwt beam="2">0</pdfrwt>
<totfact> 0.14033090E+00</totfact>
</mgrwt>
</event>
<event>
 6    1  0.3263951E-003  0.6470939E+03  0.7818608E-02  0.9812248E-01
          1   -1    0    0  502    0  0.00000000000E+00  0.00000000000E+00  0.10567385534E+03  0.10567385534E+03  0.00000000000E+00 0.  1.
         13   -1    0    0    0    0 -0.00000000000E+00 -0.00000000000E+00 -0.10000000000E+04  0.10000000000E+04  0.00000000000E+00 0.  1.
    9000005    2    1    2  501    0  0.11582281815E+01 -0.37615084263E+00 -0.89488642970E+03  0.11043333699E+04  0.64709271882E+03 0.  0.
         13    1    3    3    0    0  0.94244532042E+02 -0.95508037686E+01  0.80597423907E+02  0.12437521623E+03  0.00000000000E+00 0.  1.
          1    1    3    3  501    0 -0.93086303861E+02  0.91746529259E+01 -0.97548385361E+03  0.97995815364E+03  0.00000000000E+00 0.  1.
         21    1    1    2  502  501 -0.11582281815E+01  0.37615084263E+00  0.56028504794E+00  0.13404854762E+01  0.00000000000E+00 0. -1.
<mgrwt>
<rscale>  1 0.64709386E+03</rscale>
<asrwt>0</asrwt>
<pdfrwt beam="1">  1        1 0.38426938E+00 0.64709386E+03</pdfrwt>
<pdfrwt beam="2">0</pdfrwt>
<totfact> 0.15720872E+00</totfact>
</mgrwt>
</event>
<event>
 6    1  0.3516398E-003  0.6494947E+03  0.7818608E-02  0.9807728E-01
          1   -1    0    0  502    0  0.00000000000E+00  0.00000000000E+00  0.10546113785E+03  0.10546113785E+03  0.00000000000E+00 0.  1.
         13   -1    0    0    0    0 -0.00000000000E+00 -0.00000000000E+00 -0.10000000000E+04  0.10000000000E+04  0.00000000000E+00 0.  1.
    9000005    2    1    2  501    0 -0.41696073575E-03 -0.18245855003E-03 -0.89453896378E+03  0.11054606715E+04  0.64949467936E+03 0.  0.
         13    1    3    3    0    0 -0.19974688930E+03  0.35175086689E+02 -0.87894468489E+03  0.90204205312E+03  0.00000000000E+00 0.  1.
          1    1    3    3  501    0  0.19974647234E+03 -0.35175269148E+02 -0.15594278894E+02  0.20341861838E+03  0.00000000000E+00 0.  1.
         21    1    1    2  502  501  0.41696073576E-03  0.18245855003E-03  0.10162929400E-03  0.46634310443E-03  0.00000000000E+00 0. -1.
<mgrwt>
<rscale>  1 0.64949468E+03</rscale>
<asrwt>0</asrwt>
<pdfrwt beam="1">  1        1 0.38349586E+00 0.64949468E+03</pdfrwt>
<pdfrwt beam="2">0</pdfrwt>
<totfact> 0.15838111E+00</totfact>
</mgrwt>
</event>
<event>
 6    1  0.3263951E-003  0.6561559E+03  0.7818608E-02  0.9795296E-01
          1   -1    0    0  502    0  0.00000000000E+00  0.00000000000E+00  0.10763834926E+03  0.10763834926E+03  0.00000000000E+00 0.  1.
         13   -1    0    0    0    0 -0.00000000000E+00 -0.00000000000E+00 -0.10000000000E+04  0.10000000000E+04  0.00000000000E+00 0.  1.
    9000005    2    1    2  501    0 -0.85427017473E-03  0.35751346904E-02 -0.89236366018E+03  0.11076341601E+04  0.65615587368E+03 0.  0.
         13    1    3    3    0    0  0.26338302562E+03  0.19510025324E+03 -0.42225760439E+03  0.53454299309E+03  0.00000000000E+00 0.  1.
          3    1    3    3  501    0 -0.26338387989E+03 -0.19509667811E+03 -0.47010605579E+03  0.57309116699E+03  0.00000000000E+00 0.  1.
         21    1    1    2  502  501  0.85427017473E-03 -0.35751346904E-02  0.20094393124E-02  0.41891779547E-02  0.00000000000E+00 0.  1.
<mgrwt>
<rscale>  1 0.65615587E+03</rscale>
<asrwt>0</asrwt>
<pdfrwt beam="1">  1        1 0.39141300E+00 0.65615587E+03</pdfrwt>
<pdfrwt beam="2">0</pdfrwt>
<totfact> 0.14591629E+00</totfact>
</mgrwt>
</event>
<event>
 6    1  0.3263951E-003  0.4860804E+03  0.7818608E-02  0.1017477E+00
          1   -1    0    0  502    0  0.00000000000E+00  0.00000000000E+00  0.59361448097E+02  0.59361448097E+02  0.00000000000E+00 0.  1.
         13   -1    0    0    0    0 -0.00000000000E+00 -0.00000000000E+00 -0.10000000000E+04  0.10000000000E+04  0.00000000000E+00 0.  1.
    9000005    2    1    2  501    0 -0.44748965952E-01 -0.19223658377E-02 -0.94092965778E+03  0.10590669166E+04  0.48608035443E+03 0.  0.
         13    1    3    3    0    0  0.34424558061E+02  0.23177210071E+03 -0.61103840956E+03  0.65442439962E+03  0.00000000000E+00 0.  1.
          1    1    3    3  501    0 -0.34469307027E+02 -0.23177402308E+03 -0.32989124822E+03  0.40464251699E+03  0.00000000000E+00 0.  1.
         21    1    1    2  502  501  0.44748965952E-01  0.19223658377E-02  0.29110587618E+00  0.29453148659E+00  0.00000000000E+00 0.  1.
<mgrwt>
<rscale>  1 0.48608036E+03</rscale>
<asrwt>0</asrwt>
<pdfrwt beam="1">  1        1 0.21586027E+00 0.48608036E+03</pdfrwt>
<pdfrwt beam="2">0</pdfrwt>
<totfact> 0.87442362E+00</totfact>
</mgrwt>
</event>
<event>
 6    1  0.3263951E-003  0.6420628E+03  0.7818608E-02  0.9821788E-01
          1   -1    0    0  502    0  0.00000000000E+00  0.00000000000E+00  0.10306570608E+03  0.10306570608E+03  0.00000000000E+00 0.  1.
         13   -1    0    0    0    0 -0.00000000000E+00 -0.00000000000E+00 -0.10000000000E+04  0.10000000000E+04  0.00000000000E+00 0.  1.
    9000005    2    1    2  501    0  0.25888623074E-03  0.15762851194E-02 -0.89693867685E+03  0.11030610411E+04  0.64206282436E+03 0.  0.
         13    1    3    3    0    0  0.16582701851E+03  0.27837206421E+02  0.21356680002E+02  0.16949813542E+03  0.00000000000E+00 0.  1.
          1    1    3    3  501    0 -0.16582675962E+03 -0.27835630136E+02 -0.91829535685E+03  0.93356290571E+03  0.00000000000E+00 0.  1.
         21    1    1    2  502  501 -0.25888623075E-03 -0.15762851194E-02  0.43829289574E-02  0.46649504931E-02  0.00000000000E+00 0. -1.
<mgrwt>
<rscale>  1 0.64206282E+03</rscale>
<asrwt>0</asrwt>
<pdfrwt beam="1">  1        1 0.37478518E+00 0.64206282E+03</pdfrwt>
<pdfrwt beam="2">0</pdfrwt>
<totfact> 0.17326641E+00</totfact>
</mgrwt>
</event>
<event>
 6    1  0.3263951E-003  0.6454560E+03  0.7818608E-02  0.9815343E-01
          1   -1    0    0  502    0  0.00000000000E+00  0.00000000000E+00  0.10415880659E+03  0.10415880659E+03  0.00000000000E+00 0.  1.
         13   -1    0    0    0    0 -0.00000000000E+00 -0.00000000000E+00 -0.10000000000E+04  0.10000000000E+04  0.00000000000E+00 0.  1.
    9000005    2    1    2  501    0  0.18983905795E-03 -0.54660750990E-03 -0.89584663679E+03  0.11041533325E+04  0.64545595135E+03 0.  0.
         13    1    3    3    0    0  0.29062268618E+03  0.13488809684E+03 -0.51411005959E+03  0.60577677222E+03  0.00000000000E+00 0.  1.
          1    1    3    3  501    0 -0.29062249634E+03 -0.13488864345E+03 -0.38173657720E+03  0.49837656032E+03  0.00000000000E+00 0.  1.
         21    1    1    2  502  501 -0.18983905797E-03  0.54660750990E-03  0.54433798708E-02  0.54740481415E-02  0.00000000000E+00 0.  1.
<mgrwt>
<rscale>  1 0.64545595E+03</rscale>
<asrwt>0</asrwt>
<pdfrwt beam="1">  1        1 0.37876010E+00 0.64545595E+03</pdfrwt>
<pdfrwt beam="2">0</pdfrwt>
<totfact> 0.16631563E+00</totfact>
</mgrwt>
</event>
<event>
 6    1  0.3263951E-003  0.6445050E+03  0.7818608E-02  0.9817145E-01
          1   -1    0    0  502    0  0.00000000000E+00  0.00000000000E+00  0.10405589442E+03  0.10405589442E+03  0.00000000000E+00 0.  1.
         13   -1    0    0    0    0 -0.00000000000E+00 -0.00000000000E+00 -0.10000000000E+04  0.10000000000E+04  0.00000000000E+00 0.  1.
    9000005    2    1    2  501    0  0.94664673494E-02  0.16487328726E+00 -0.89611673543E+03  0.11038169930E+04  0.64450502193E+03 0.  0.
         13    1    3    3    0    0  0.30751756536E+02  0.27121074600E+03 -0.74176895909E+03  0.79039365379E+03  0.00000000000E+00 0.  1.
          3    1    3    3  501    0 -0.30742290069E+02 -0.27104587271E+03 -0.15434777633E+03  0.31342333923E+03  0.00000000000E+00 0.  1.
         21    1    1    2  502  501 -0.94664673494E-02 -0.16487328726E+00  0.17262984489E+00  0.23890139850E+00  0.00000000000E+00 0.  1.
<mgrwt>
<rscale>  1 0.64450504E+03</rscale>
<asrwt>0</asrwt>
<pdfrwt beam="1">  1        1 0.37838587E+00 0.64450504E+03</pdfrwt>
<pdfrwt beam="2">0</pdfrwt>
<totfact> 0.16697787E+00</totfact>
</mgrwt>
</event>
<event>
 6    1  0.3263951E-003  0.6500019E+03  0.7818608E-02  0.9806776E-01
          1   -1    0    0  502    0  0.00000000000E+00  0.00000000000E+00  0.10562562164E+03  0.10562562164E+03  0.00000000000E+00 0.  1.
         13   -1    0    0    0    0 -0.00000000000E+00 -0.00000000000E+00 -0.10000000000E+04  0.10000000000E+04  0.00000000000E+00 0.  1.
    9000005    2    1    2  501    0 -0.48094308056E-05 -0.38858149765E-06 -0.89437438143E+03  0.11056256159E+04  0.65000189879E+03 0.  0.
         13    1    3    3    0    0  0.21915387865E+03  0.23976983245E+03 -0.42954137274E+03  0.53853856499E+03  0.00000000000E+00 0.  1.
          3    1    3    3  501    0 -0.21915388346E+03 -0.23976983284E+03 -0.46483300869E+03  0.56708705094E+03  0.00000000000E+00 0.  1.
         21    1    1    2  502  501  0.48094308104E-05  0.38858148712E-06  0.30651447500E-05  0.57163565871E-05  0.00000000000E+00 0. -1.
<mgrwt>
<rscale>  1 0.65000190E+03</rscale>
<asrwt>0</asrwt>
<pdfrwt beam="1">  1        1 0.38409398E+00 0.65000190E+03</pdfrwt>
<pdfrwt beam="2">0</pdfrwt>
<totfact> 0.15740506E+00</totfact>
</mgrwt>
</event>
<event>
 6    1  0.3263951E-003  0.6402033E+03  0.7818608E-02  0.9825338E-01
          3   -1    0    0  502    0  0.00000000000E+00  0.00000000000E+00  0.10246533451E+03  0.10246533451E+03  0.00000000000E+00 0.  1.
         13   -1    0    0    0    0 -0.00000000000E+00 -0.00000000000E+00 -0.10000000000E+04  0.10000000000E+04  0.00000000000E+00 0.  1.
    9000005    2    1    2  501    0  0.35698569073E-03  0.30966905939E-03 -0.89753470380E+03  0.11024648604E+04  0.64020326761E+03 0.  0.
         13    1    3    3    0    0  0.20700581061E+03  0.23909097752E+03 -0.36354246120E+03  0.48184958468E+03  0.00000000000E+00 0.  1.
          3    1    3    3  501    0 -0.20700545363E+03 -0.23909066785E+03 -0.53399224260E+03  0.62061527570E+03  0.00000000000E+00 0.  1.
         21    1    1    2  502  501 -0.35698569074E-03 -0.30966905938E-03  0.38306217190E-04  0.47413191836E-03  0.00000000000E+00 0.  1.
<mgrwt>
<rscale>  1 0.64020327E+03</rscale>
<asrwt>0</asrwt>
<pdfrwt beam="1">  1        3 0.37260200E+00 0.64020327E+03</pdfrwt>
<pdfrwt beam="2">0</pdfrwt>
<totfact> 0.82727257E-02</totfact>
</mgrwt>
</event>
<event>
 6    1  0.3263951E-003  0.6514005E+03  0.7818608E-02  0.9804155E-01
          1   -1    0    0  502    0  0.00000000000E+00  0.00000000000E+00  0.10615640413E+03  0.10615640413E+03  0.00000000000E+00 0.  1.
         13   -1    0    0    0    0 -0.00000000000E+00 -0.00000000000E+00 -0.10000000000E+04  0.10000000000E+04  0.00000000000E+00 0.  1.
    9000005    2    1    2  501    0 -0.37913253286E-03 -0.11857572559E-02 -0.89391935204E+03  0.11060806377E+04  0.65140046761E+03 0.  0.
         13    1    3    3    0    0  0.61639737927E+02  0.30989516457E+03 -0.58115254584E+03  0.66149282071E+03  0.00000000000E+00 0.  1.
          1    1    3    3  501    0 -0.61640117059E+02 -0.30989635033E+03 -0.31276680621E+03  0.44458781702E+03  0.00000000000E+00 0.  1.
         21    1    1    2  502  501  0.37913253286E-03  0.11857572559E-02  0.75756174524E-01  0.75766402451E-01  0.00000000000E+00 0. -1.
<mgrwt>
<rscale>  1 0.65140047E+03</rscale>
<asrwt>0</asrwt>
<pdfrwt beam="1">  1        1 0.38602410E+00 0.65140047E+03</pdfrwt>
<pdfrwt beam="2">0</pdfrwt>
<totfact> 0.15430105E+00</totfact>
</mgrwt>
</event>
<event>
 6    1  0.3263951E-003  0.6391006E+03  0.7818608E-02  0.9827449E-01
          1   -1    0    0  502    0  0.00000000000E+00  0.00000000000E+00  0.10307470411E+03  0.10307470411E+03  0.00000000000E+00 0.  1.
         13   -1    0    0    0    0 -0.00000000000E+00 -0.00000000000E+00 -0.10000000000E+04  0.10000000000E+04  0.00000000000E+00 0.  1.
    9000005    2    1    2  501    0 -0.15220789740E+01  0.12278135953E+00 -0.89717034414E+03  0.11015281440E+04  0.63909881375E+03 0.  0.
         13    1    3    3    0    0  0.75071936686E+02 -0.30693059232E+03 -0.36894331442E+03  0.48575853408E+03  0.00000000000E+00 0.  1.
          3    1    3    3  501    0 -0.76594015660E+02  0.30705337368E+03 -0.52822702972E+03  0.61576960988E+03  0.00000000000E+00 0.  1.
         21    1    1    2  502  501  0.15220789740E+01 -0.12278135953E+00  0.24504825549E+00  0.15465601549E+01  0.00000000000E+00 0. -1.
<mgrwt>
<rscale>  1 0.63910064E+03</rscale>
<asrwt>0</asrwt>
<pdfrwt beam="1">  1        1 0.37481790E+00 0.63910064E+03</pdfrwt>
<pdfrwt beam="2">0</pdfrwt>
<totfact> 0.17330303E+00</totfact>
</mgrwt>
</event>
<event>
 6    1  0.3263951E-003  0.5474189E+03  0.7818608E-02  0.1002093E+00
          1   -1    0    0  502    0  0.00000000000E+00  0.00000000000E+00  0.74916888457E+02  0.74916888457E+02  0.00000000000E+00 0.  1.
         13   -1    0    0    0    0 -0.00000000000E+00 -0.00000000000E+00 -0.10000000000E+04  0.10000000000E+04  0.00000000000E+00 0.  1.
    9000005    2    1    2  501    0  0.44013147971E-05  0.10551310254E-04 -0.92508312489E+03  0.10749168709E+04  0.54741893587E+03 0.  0.
         13    1    3    3    0    0 -0.42155457304E+02  0.25912546050E+03 -0.31051980504E+03  0.40662714639E+03  0.00000000000E+00 0.  1.
          1    1    3    3  501    0  0.42155461705E+02 -0.25912544994E+03 -0.61456331985E+03  0.66828972450E+03  0.00000000000E+00 0.  1.
         21    1    1    2  502  501 -0.44013147983E-05 -0.10551310297E-04  0.13346086594E-04  0.17573268003E-04  0.00000000000E+00 0. -1.
<mgrwt>
<rscale>  1 0.54741894E+03</rscale>
<asrwt>0</asrwt>
<pdfrwt beam="1">  1        1 0.27242562E+00 0.54741894E+03</pdfrwt>
<pdfrwt beam="2">0</pdfrwt>
<totfact> 0.48979303E+00</totfact>
</mgrwt>
</event>
<event>
 6    1  0.3263951E-003  0.6556372E+03  0.7818608E-02  0.9796258E-01
          3   -1    0    0  502    0  0.00000000000E+00  0.00000000000E+00  0.10746505645E+03  0.10746505645E+03  0.00000000000E+00 0.  1.
         13   -1    0    0    0    0 -0.00000000000E+00 -0.00000000000E+00 -0.10000000000E+04  0.10000000000E+04  0.00000000000E+00 0.  1.
    9000005    2    1    2  501    0  0.34062275894E-04  0.13049650022E-04 -0.89253491808E+03  0.11074650120E+04  0.65563722647E+03 0.  0.
         13    1    3    3    0    0 -0.37699197713E+02 -0.10932997979E+03  0.71863947650E+02  0.13615689832E+03  0.00000000000E+00 0.  1.
          1    1    3    3  501    0  0.37699231775E+02  0.10932999284E+03 -0.96439886572E+03  0.97130811364E+03  0.00000000000E+00 0.  1.
         21    1    1    2  502  501 -0.34062275893E-04 -0.13049650020E-04 -0.25472490080E-04  0.44490220897E-04  0.00000000000E+00 0.  1.
<mgrwt>
<rscale>  1 0.65563723E+03</rscale>
<asrwt>0</asrwt>
<pdfrwt beam="1">  1        3 0.39078285E+00 0.65563723E+03</pdfrwt>
<pdfrwt beam="2">0</pdfrwt>
<totfact> 0.66157478E-02</totfact>
</mgrwt>
</event>
<event>
 6    1  0.3263951E-003  0.6413569E+03  0.7818608E-02  0.9823134E-01
          1   -1    0    0  502    0  0.00000000000E+00  0.00000000000E+00  0.10283990469E+03  0.10283990469E+03  0.00000000000E+00 0.  1.
         13   -1    0    0    0    0 -0.00000000000E+00 -0.00000000000E+00 -0.10000000000E+04  0.10000000000E+04  0.00000000000E+00 0.  1.
    9000005    2    1    2  501    0 -0.46738380186E-02 -0.73442669375E-04 -0.89716413982E+03  0.11028337234E+04  0.64135694249E+03 0.  0.
         13    1    3    3    0    0  0.30034940963E+02 -0.57601624191E+02  0.91401899690E+02  0.11213541838E+03  0.00000000000E+00 0.  1.
          3    1    3    3  501    0 -0.30039614801E+02  0.57601550749E+02 -0.98856603951E+03  0.99069830503E+03  0.00000000000E+00 0.  1.
         21    1    1    2  502  501  0.46738380186E-02  0.73442669370E-04  0.40445103211E-02  0.61812797532E-02  0.00000000000E+00 0.  1.
<mgrwt>
<rscale>  1 0.64135694E+03</rscale>
<asrwt>0</asrwt>
<pdfrwt beam="1">  1        1 0.37396408E+00 0.64135694E+03</pdfrwt>
<pdfrwt beam="2">0</pdfrwt>
<totfact> 0.17473654E+00</totfact>
</mgrwt>
</event>
<event>
 6    1  0.3322290E-003  0.6526909E+03  0.7818608E-02  0.9801743E-01
          1   -1    0    0  502    0  0.00000000000E+00  0.00000000000E+00  0.10650152542E+03  0.10650152542E+03  0.00000000000E+00 0.  1.
         13   -1    0    0    0    0 -0.00000000000E+00 -0.00000000000E+00 -0.10000000000E+04  0.10000000000E+04  0.00000000000E+00 0.  1.
    9000005    2    1    2  501    0 -0.19336392964E-03  0.42386186249E-03 -0.89349807579E+03  0.11065009122E+04  0.65269093542E+03 0.  0.
         13    1    3    3    0    0  0.11856474479E+03  0.26887152526E+03 -0.68740863247E+03  0.74758285414E+03  0.00000000000E+00 0.  1.
          3    1    3    3  501    0 -0.11856493816E+03 -0.26887110140E+03 -0.20608944331E+03  0.35891805802E+03  0.00000000000E+00 0.  1.
         21    1    1    2  502  501  0.19336392964E-03 -0.42386186253E-03 -0.39879366630E-03  0.61325759357E-03  0.00000000000E+00 0. -1.
<mgrwt>
<rscale>  1 0.65269094E+03</rscale>
<asrwt>0</asrwt>
<pdfrwt beam="1">  1        1 0.38727909E+00 0.65269094E+03</pdfrwt>
<pdfrwt beam="2">0</pdfrwt>
<totfact> 0.15230333E+00</totfact>
</mgrwt>
</event>
<event>
 6    1  0.3263951E-003  0.5964527E+03  0.7818608E-02  0.9912793E-01
          1   -1    0    0  502    0  0.00000000000E+00  0.00000000000E+00  0.91021565472E+02  0.91021565472E+02  0.00000000000E+00 0.  1.
         13   -1    0    0    0    0 -0.00000000000E+00 -0.00000000000E+00 -0.10000000000E+04  0.10000000000E+04  0.00000000000E+00 0.  1.
    9000005    2    1    2  501    0 -0.55275776495E+00  0.79592005423E-01 -0.91102020734E+03  0.10889047962E+04  0.59645244996E+03 0.  0.
         13    1    3    3    0    0 -0.99745741766E+02 -0.60477432937E+02 -0.95688220386E+03  0.96396591484E+03  0.00000000000E+00 0.  1.
          1    1    3    3  501    0  0.99192984001E+02  0.60557024942E+02  0.45861996521E+02  0.12493888134E+03  0.00000000000E+00 0.  1.
         21    1    1    2  502  501  0.55275776495E+00 -0.79592005423E-01  0.20417728152E+01  0.21167692984E+01  0.00000000000E+00 0. -1.
<mgrwt>
<rscale>  1 0.59645271E+03</rscale>
<asrwt>0</asrwt>
<pdfrwt beam="1">  1        1 0.33098821E+00 0.59645271E+03</pdfrwt>
<pdfrwt beam="2">0</pdfrwt>
<totfact> 0.27124874E+00</totfact>
</mgrwt>
</event>
<event>
 6    1  0.3263951E-003  0.6634114E+03  0.7818608E-02  0.9781934E-01
          1   -1    0    0  502    0  0.00000000000E+00  0.00000000000E+00  0.11022815561E+03  0.11022815561E+03  0.00000000000E+00 0.  1.
         13   -1    0    0    0    0 -0.00000000000E+00 -0.00000000000E+00 -0.10000000000E+04  0.10000000000E+04  0.00000000000E+00 0.  1.
    9000005    2    1    2  501    0 -0.14605819184E-02 -0.30824718372E+00 -0.88982908086E+03  0.11099146361E+04  0.66341134397E+03 0.  0.
         13    1    3    3    0    0 -0.88775789800E+01  0.84182721738E+02 -0.98137674787E+03  0.98502074258E+03  0.00000000000E+00 0.  1.
          1    1    3    3  501    0  0.88761183981E+01 -0.84490968922E+02  0.91547667014E+02  0.12489389354E+03  0.00000000000E+00 0.  1.
         21    1    1    2  502  501  0.14605819184E-02  0.30824718372E+00  0.57236473097E-01  0.31351949448E+00  0.00000000000E+00 0. -1.
<mgrwt>
<rscale>  1 0.66341142E+03</rscale>
<asrwt>0</asrwt>
<pdfrwt beam="1">  1        1 0.40083050E+00 0.66341142E+03</pdfrwt>
<pdfrwt beam="2">0</pdfrwt>
<totfact> 0.13231586E+00</totfact>
</mgrwt>
</event>
<event>
 6    1  0.3263951E-003  0.6517651E+03  0.7818608E-02  0.9803473E-01
          1   -1    0    0  502    0  0.00000000000E+00  0.00000000000E+00  0.10630833442E+03  0.10630833442E+03  0.00000000000E+00 0.  1.
         13   -1    0    0    0    0 -0.00000000000E+00 -0.00000000000E+00 -0.10000000000E+04  0.10000000000E+04  0.00000000000E+00 0.  1.
    9000005    2    1    2  501    0 -0.36747336890E-02 -0.33666141656E-02 -0.89380050860E+03  0.11061993774E+04  0.65176507522E+03 0.  0.
         13    1    3    3    0    0  0.11026154945E+03  0.15920587560E+03 -0.89173730666E+03  0.91252372254E+03  0.00000000000E+00 0.  1.
          1    1    3    3  501    0 -0.11026522418E+03 -0.15920924221E+03 -0.20632019421E+01  0.19367565482E+03  0.00000000000E+00 0.  1.
         21    1    1    2  502  501  0.36747336890E-02  0.33666141656E-02  0.10884301741E+00  0.10895705667E+00  0.00000000000E+00 0.  1.
<mgrwt>
<rscale>  1 0.65176508E+03</rscale>
<asrwt>0</asrwt>
<pdfrwt beam="1">  1        1 0.38657658E+00 0.65176508E+03</pdfrwt>
<pdfrwt beam="2">0</pdfrwt>
<totfact> 0.15342433E+00</totfact>
</mgrwt>
</event>
<event>
 6    1  0.3263951E-003  0.6716292E+03  0.7818608E-02  0.9767019E-01
          1   -1    0    0  502    0  0.00000000000E+00  0.00000000000E+00  0.11277150833E+03  0.11277150833E+03  0.00000000000E+00 0.  1.
         13   -1    0    0    0    0 -0.00000000000E+00 -0.00000000000E+00 -0.10000000000E+04  0.10000000000E+04  0.00000000000E+00 0.  1.
    9000005    2    1    2  501    0 -0.44965938830E-05 -0.77572146466E-05 -0.88722854479E+03  0.11127714545E+04  0.67162922744E+03 0.  0.
         13    1    3    3    0    0 -0.11123562633E+02 -0.18996126267E+02 -0.99880330026E+03  0.99904585434E+03  0.00000000000E+00 0.  1.
          3    1    3    3  501    0  0.11123558136E+02  0.18996118509E+02  0.11157475547E+03  0.11372560012E+03  0.00000000000E+00 0.  1.
         21    1    1    2  502  501  0.44965938828E-05  0.77572146448E-05  0.53120327253E-04  0.53871726379E-04  0.00000000000E+00 0.  1.
<mgrwt>
<rscale>  1 0.67162923E+03</rscale>
<asrwt>0</asrwt>
<pdfrwt beam="1">  1        1 0.41007908E+00 0.67162923E+03</pdfrwt>
<pdfrwt beam="2">0</pdfrwt>
<totfact> 0.12010647E+00</totfact>
</mgrwt>
</event>
<event>
 6    1  0.3263951E-003  0.6518585E+03  0.7818608E-02  0.9803298E-01
          1   -1    0    0  502    0  0.00000000000E+00  0.00000000000E+00  0.10626587401E+03  0.10626587401E+03  0.00000000000E+00 0.  1.
         13   -1    0    0    0    0 -0.00000000000E+00 -0.00000000000E+00 -0.10000000000E+04  0.10000000000E+04  0.00000000000E+00 0.  1.
    9000005    2    1    2  501    0  0.11397199988E-02 -0.13354172441E-02 -0.89377009071E+03  0.11062298665E+04  0.65185852944E+03 0.  0.
         13    1    3    3    0    0  0.25841455887E+03 -0.13119862735E+03 -0.19380970678E+03  0.34864504370E+03  0.00000000000E+00 0.  1.
          3    1    3    3  501    0 -0.25841341915E+03  0.13119729194E+03 -0.69996038394E+03  0.75758482277E+03  0.00000000000E+00 0.  1.
         21    1    1    2  502  501 -0.11397199988E-02  0.13354172441E-02  0.35964726389E-01  0.36007552612E-01  0.00000000000E+00 0. -1.
<mgrwt>
<rscale>  1 0.65185853E+03</rscale>
<asrwt>0</asrwt>
<pdfrwt beam="1">  1        1 0.38642217E+00 0.65185853E+03</pdfrwt>
<pdfrwt beam="2">0</pdfrwt>
<totfact> 0.15366332E+00</totfact>
</mgrwt>
</event>
<event>
 6    1  0.3263951E-003  0.6423663E+03  0.7818608E-02  0.9821210E-01
          1   -1    0    0  502    0  0.00000000000E+00  0.00000000000E+00  0.10394654766E+03  0.10394654766E+03  0.00000000000E+00 0.  1.
         13   -1    0    0    0    0 -0.00000000000E+00 -0.00000000000E+00 -0.10000000000E+04  0.10000000000E+04  0.00000000000E+00 0.  1.
    9000005    2    1    2  501    0  0.40706508014E+00 -0.32164079950E+00 -0.89674610467E+03  0.11030811448E+04  0.64236606909E+03 0.  0.
         13    1    3    3    0    0  0.28430888829E+03  0.14755309462E+03 -0.40564920925E+03  0.51687013906E+03  0.00000000000E+00 0.  1.
          3    1    3    3  501    0 -0.28390182321E+03 -0.14787473542E+03 -0.49109689542E+03  0.58621100578E+03  0.00000000000E+00 0.  1.
         21    1    1    2  502  501 -0.40706508014E+00  0.32164079950E+00  0.69265232835E+00  0.86540281450E+00  0.00000000000E+00 0.  1.
<mgrwt>
<rscale>  1 0.64236628E+03</rscale>
<asrwt>0</asrwt>
<pdfrwt beam="1">  1        1 0.37798824E+00 0.64236628E+03</pdfrwt>
<pdfrwt beam="2">0</pdfrwt>
<totfact> 0.16771907E+00</totfact>
</mgrwt>
</event>
<event>
 6    1  0.3263951E-003  0.6528068E+03  0.7818608E-02  0.9801527E-01
          1   -1    0    0  502    0  0.00000000000E+00  0.00000000000E+00  0.10654405638E+03  0.10654405638E+03  0.00000000000E+00 0.  1.
         13   -1    0    0    0    0 -0.00000000000E+00 -0.00000000000E+00 -0.10000000000E+04  0.10000000000E+04  0.00000000000E+00 0.  1.
    9000005    2    1    2  501    0  0.63194947645E-04  0.10326188905E-02 -0.89346075075E+03  0.11065391392E+04  0.65280682702E+03 0.  0.
         13    1    3    3    0    0  0.42932831965E+01 -0.22307138232E+02  0.10519762853E+03  0.10762240355E+03  0.00000000000E+00 0.  1.
          3    1    3    3  501    0 -0.42932200016E+01  0.22308170851E+02 -0.99865837928E+03  0.99891673564E+03  0.00000000000E+00 0.  1.
         21    1    1    2  502  501 -0.63194947645E-04 -0.10326188905E-02  0.48071296730E-02  0.49171934137E-02  0.00000000000E+00 0.  1.
<mgrwt>
<rscale>  1 0.65280683E+03</rscale>
<asrwt>0</asrwt>
<pdfrwt beam="1">  1        1 0.38743375E+00 0.65280683E+03</pdfrwt>
<pdfrwt beam="2">0</pdfrwt>
<totfact> 0.15206007E+00</totfact>
</mgrwt>
</event>
<event>
 6    1  0.3263951E-003  0.6477897E+03  0.7818608E-02  0.9810936E-01
          1   -1    0    0  502    0  0.00000000000E+00  0.00000000000E+00  0.10893971989E+03  0.10893971989E+03  0.00000000000E+00 0.  1.
         13   -1    0    0    0    0 -0.00000000000E+00 -0.00000000000E+00 -0.10000000000E+04  0.10000000000E+04  0.00000000000E+00 0.  1.
    9000005    2    1    2  501    0 -0.19366295416E+00 -0.69524675624E-01 -0.89508922993E+03  0.11049055191E+04  0.64778965288E+03 0.  0.
         13    1    3    3    0    0 -0.14698384488E+01  0.16334369563E+03  0.29493836696E+02  0.16599159536E+03  0.00000000000E+00 0.  1.
          3    1    3    3  501    0  0.12761754946E+01 -0.16341322031E+03 -0.92458306662E+03  0.93891392379E+03  0.00000000000E+00 0.  1.
         21    1    1    2  502  501  0.19366295416E+00  0.69524675624E-01  0.40289498170E+01  0.40342007447E+01  0.00000000000E+00 0. -1.
<mgrwt>
<rscale>  1 0.64778969E+03</rscale>
<asrwt>0</asrwt>
<pdfrwt beam="1">  1        1 0.39614527E+00 0.64778969E+03</pdfrwt>
<pdfrwt beam="2">0</pdfrwt>
<totfact> 0.13923876E+00</totfact>
</mgrwt>
</event>
<event>
 6    1  0.3263951E-003  0.6700961E+03  0.7818608E-02  0.9769784E-01
          3   -1    0    0  502    0  0.00000000000E+00  0.00000000000E+00  0.11272007047E+03  0.11272007047E+03  0.00000000000E+00 0.  1.
         13   -1    0    0    0    0 -0.00000000000E+00 -0.00000000000E+00 -0.10000000000E+04  0.10000000000E+04  0.00000000000E+00 0.  1.
    9000005    2    1    2  501    0 -0.39476977959E-01 -0.15407435931E+00 -0.88772756451E+03  0.11122450185E+04  0.67009605802E+03 0.  0.
         13    1    3    3    0    0  0.29060012392E+03  0.15009976389E+03 -0.32359566128E+03  0.46010055764E+03  0.00000000000E+00 0.  1.
          1    1    3    3  501    0 -0.29063960090E+03 -0.15025383825E+03 -0.56413190324E+03  0.65214446081E+03  0.00000000000E+00 0.  1.
         21    1    1    2  502  501  0.39476977959E-01  0.15407435931E+00  0.44763498527E+00  0.47505201823E+00  0.00000000000E+00 0.  1.
<mgrwt>
<rscale>  1 0.67009608E+03</rscale>
<asrwt>0</asrwt>
<pdfrwt beam="1">  1        3 0.40989203E+00 0.67009608E+03</pdfrwt>
<pdfrwt beam="2">0</pdfrwt>
<totfact> 0.52409568E-02</totfact>
</mgrwt>
</event>
<event>
 6    1  0.3263951E-003  0.6507235E+03  0.7818608E-02  0.9805422E-01
          1   -1    0    0  502    0  0.00000000000E+00  0.00000000000E+00  0.10586051055E+03  0.10586051055E+03  0.00000000000E+00 0.  1.
         13   -1    0    0    0    0 -0.00000000000E+00 -0.00000000000E+00 -0.10000000000E+04  0.10000000000E+04  0.00000000000E+00 0.  1.
    9000005    2    1    2  501    0  0.28400005533E-04 -0.28963758723E-04 -0.89413971882E+03  0.11058602776E+04  0.65072353333E+03 0.  0.
         13    1    3    3    0    0  0.23291816764E+03  0.20006627106E+03 -0.62996926658E+03  0.70081285838E+03  0.00000000000E+00 0.  1.
          1    1    3    3  501    0 -0.23291813924E+03 -0.20006630003E+03 -0.26417045225E+03  0.40504741924E+03  0.00000000000E+00 0.  1.
         21    1    1    2  502  501 -0.28400005529E-04  0.28963758735E-04  0.22936909673E-03  0.23292840567E-03  0.00000000000E+00 0. -1.
<mgrwt>
<rscale>  1 0.65072353E+03</rscale>
<asrwt>0</asrwt>
<pdfrwt beam="1">  1        1 0.38494812E+00 0.65072353E+03</pdfrwt>
<pdfrwt beam="2">0</pdfrwt>
<totfact> 0.15602123E+00</totfact>
</mgrwt>
</event>
<event>
 6    1  0.3263951E-003  0.6312814E+03  0.7818608E-02  0.9842551E-01
          1   -1    0    0  502    0  0.00000000000E+00  0.00000000000E+00  0.99629773214E+02  0.99629773214E+02  0.00000000000E+00 0.  1.
         13   -1    0    0    0    0 -0.00000000000E+00 -0.00000000000E+00 -0.10000000000E+04  0.10000000000E+04  0.00000000000E+00 0.  1.
    9000005    2    1    2  501    0 -0.62301853148E-04 -0.12414480494E-04 -0.90037095238E+03  0.10996290448E+04  0.63128138290E+03 0.  0.
         13    1    3    3    0    0  0.16252552058E+03  0.18410898539E+03 -0.79558436813E+03  0.83262545611E+03  0.00000000000E+00 0.  1.
          1    1    3    3  501    0 -0.16252558288E+03 -0.18410899781E+03 -0.10478658424E+03  0.26700358874E+03  0.00000000000E+00 0.  1.
         21    1    1    2  502  501  0.62301853149E-04  0.12414480504E-04  0.72558923305E-03  0.72836486417E-03  0.00000000000E+00 0.  1.
<mgrwt>
<rscale>  1 0.63128138E+03</rscale>
<asrwt>0</asrwt>
<pdfrwt beam="1">  1        1 0.36229085E+00 0.63128138E+03</pdfrwt>
<pdfrwt beam="2">0</pdfrwt>
<totfact> 0.19697251E+00</totfact>
</mgrwt>
</event>
<event>
 6    1  0.3263951E-003  0.6113555E+03  0.7818608E-02  0.9882123E-01
          1   -1    0    0  502    0  0.00000000000E+00  0.00000000000E+00  0.93441478193E+02  0.93441478193E+02  0.00000000000E+00 0.  1.
         13   -1    0    0    0    0 -0.00000000000E+00 -0.00000000000E+00 -0.10000000000E+04  0.10000000000E+04  0.00000000000E+00 0.  1.
    9000005    2    1    2  501    0 -0.64123344970E-03 -0.50695086031E-05 -0.90656107845E+03  0.10934388424E+04  0.61135547189E+03 0.  0.
         13    1    3    3    0    0  0.25858873603E+03 -0.15302101580E+03 -0.55374415359E+03  0.63001281996E+03  0.00000000000E+00 0.  1.
          3    1    3    3  501    0 -0.25858937727E+03  0.15302101074E+03 -0.35281692486E+03  0.46342602239E+03  0.00000000000E+00 0.  1.
         21    1    1    2  502  501  0.64123344971E-03  0.50695085940E-05  0.25566442143E-02  0.26358368074E-02  0.00000000000E+00 0. -1.
<mgrwt>
<rscale>  1 0.61135547E+03</rscale>
<asrwt>0</asrwt>
<pdfrwt beam="1">  1        1 0.33978791E+00 0.61135547E+03</pdfrwt>
<pdfrwt beam="2">0</pdfrwt>
<totfact> 0.24777256E+00</totfact>
</mgrwt>
</event>
<event>
 6    1  0.3263951E-003  0.6499705E+03  0.7818608E-02  0.9806835E-01
          1   -1    0    0  502    0  0.00000000000E+00  0.00000000000E+00  0.10630445623E+03  0.10630445623E+03  0.00000000000E+00 0.  1.
         13   -1    0    0    0    0 -0.00000000000E+00 -0.00000000000E+00 -0.10000000000E+04  0.10000000000E+04  0.00000000000E+00 0.  1.
    9000005    2    1    2  501    0 -0.74255259540E-01 -0.81091788478E-01 -0.89437974964E+03  0.11056114718E+04  0.64997044390E+03 0.  0.
         13    1    3    3    0    0  0.24796334449E+03 -0.20893022290E+03 -0.41006466016E+03  0.52277211457E+03  0.00000000000E+00 0.  1.
          3    1    3    3  501    0 -0.24803759975E+03  0.20884913111E+03 -0.48431508948E+03  0.58283935725E+03  0.00000000000E+00 0.  1.
         21    1    1    2  502  501  0.74255259540E-01  0.81091788478E-01  0.68420586892E+00  0.69298441021E+00  0.00000000000E+00 0.  1.
<mgrwt>
<rscale>  1 0.64997045E+03</rscale>
<asrwt>0</asrwt>
<pdfrwt beam="1">  1        1 0.38656247E+00 0.64997045E+03</pdfrwt>
<pdfrwt beam="2">0</pdfrwt>
<totfact> 0.15349737E+00</totfact>
</mgrwt>
</event>
<event>
 6    1  0.3263951E-003  0.6398520E+03  0.7818608E-02  0.9826010E-01
          3   -1    0    0  502    0  0.00000000000E+00  0.00000000000E+00  0.10235268033E+03  0.10235268033E+03  0.00000000000E+00 0.  1.
         13   -1    0    0    0    0 -0.00000000000E+00 -0.00000000000E+00 -0.10000000000E+04  0.10000000000E+04  0.00000000000E+00 0.  1.
    9000005    2    1    2  501    0 -0.48402559401E-05 -0.45126046473E-05 -0.89764733977E+03  0.11023526592E+04  0.63985204428E+03 0.  0.
         13    1    3    3    0    0 -0.13395742326E+03  0.20419216897E+03 -0.80488451076E+03  0.84111717898E+03  0.00000000000E+00 0.  1.
          3    1    3    3  501    0  0.13395741842E+03 -0.20419217348E+03 -0.92762829007E+02  0.26123548018E+03  0.00000000000E+00 0.  1.
         21    1    1    2  502  501  0.48402559449E-05  0.45126046381E-05  0.20104593293E-04  0.21165688029E-04  0.00000000000E+00 0. -1.
<mgrwt>
<rscale>  1 0.63985204E+03</rscale>
<asrwt>0</asrwt>
<pdfrwt beam="1">  1        3 0.37219235E+00 0.63985204E+03</pdfrwt>
<pdfrwt beam="2">0</pdfrwt>
<totfact> 0.83146144E-02</totfact>
</mgrwt>
</event>
<event>
 6    1  0.3263951E-003  0.7163451E+03  0.7818608E-02  0.9689681E-01
          1   -1    0    0  502    0  0.00000000000E+00  0.00000000000E+00  0.12829841435E+03  0.12829841435E+03  0.00000000000E+00 0.  1.
         13   -1    0    0    0    0 -0.00000000000E+00 -0.00000000000E+00 -0.10000000000E+04  0.10000000000E+04  0.00000000000E+00 0.  1.
    9000005    2    1    2  501    0  0.78176762395E-03 -0.10338230527E-01 -0.87170951840E+03  0.11282853599E+04  0.71634514641E+03 0.  0.
         13    1    3    3    0    0  0.17418938441E+03 -0.24298013404E+03 -0.12517345815E+03  0.32411368654E+03  0.00000000000E+00 0.  1.
          3    1    3    3  501    0 -0.17418860264E+03  0.24296979581E+03 -0.74653606026E+03  0.80417167336E+03  0.00000000000E+00 0.  1.
         21    1    1    2  502  501 -0.78176762396E-03  0.10338230527E-01  0.79327533569E-02  0.13054453143E-01  0.00000000000E+00 0.  1.
<mgrwt>
<rscale>  1 0.71634515E+03</rscale>
<asrwt>0</asrwt>
<pdfrwt beam="1">  1        1 0.46654067E+00 0.71634515E+03</pdfrwt>
<pdfrwt beam="2">0</pdfrwt>
<totfact> 0.65688506E-01</totfact>
</mgrwt>
</event>
<event>
 6    1  0.3263951E-003  0.6485118E+03  0.7818608E-02  0.9809576E-01
          1   -1    0    0  502    0  0.00000000000E+00  0.00000000000E+00  0.10665527191E+03  0.10665527191E+03  0.00000000000E+00 0.  1.
         13   -1    0    0    0    0 -0.00000000000E+00 -0.00000000000E+00 -0.10000000000E+04  0.10000000000E+04  0.00000000000E+00 0.  1.
    9000005    2    1    2  501    0 -0.21421482275E+01 -0.40905211219E+01 -0.88605013793E+03  0.10980220681E+04  0.64849540784E+03 0.  0.
         13    1    3    3    0    0 -0.24032444863E+03 -0.54807364049E+02 -0.80417496588E+03  0.84110466859E+03  0.00000000000E+00 0.  1.
          1    1    3    3  501    0  0.23818230041E+03  0.50716842927E+02 -0.81875172043E+02  0.25691739953E+03  0.00000000000E+00 0.  1.
         21    1    1    2  502  501  0.21421482275E+01  0.40905211219E+01 -0.72945901634E+01  0.86332037929E+01  0.00000000000E+00 0. -1.
<mgrwt>
<rscale>  1 0.64851185E+03</rscale>
<asrwt>0</asrwt>
<pdfrwt beam="1">  1        1 0.38783817E+00 0.64851185E+03</pdfrwt>
<pdfrwt beam="2">0</pdfrwt>
<totfact> 0.15155496E+00</totfact>
</mgrwt>
</event>
<event>
 6    1  0.3263951E-003  0.6530987E+03  0.7818608E-02  0.9800982E-01
          1   -1    0    0  502    0  0.00000000000E+00  0.00000000000E+00  0.10663452066E+03  0.10663452066E+03  0.00000000000E+00 0.  1.
         13   -1    0    0    0    0 -0.00000000000E+00 -0.00000000000E+00 -0.10000000000E+04  0.10000000000E+04  0.00000000000E+00 0.  1.
    9000005    2    1    2  501    0 -0.59690941612E-06  0.29625222169E-05 -0.89336553147E+03  0.11066344684E+04  0.65309867088E+03 0.  0.
         13    1    3    3    0    0 -0.20524959495E+03 -0.20368730345E+03 -0.70376046962E+03  0.76085130769E+03  0.00000000000E+00 0.  1.
          1    1    3    3  501    0  0.20524959435E+03  0.20368730642E+03 -0.18960506186E+03  0.34578316075E+03  0.00000000000E+00 0.  1.
         21    1    1    2  502  501  0.59690939684E-06 -0.29625222084E-05  0.52135240834E-04  0.52222755342E-04  0.00000000000E+00 0.  1.
<mgrwt>
<rscale>  1 0.65309867E+03</rscale>
<asrwt>0</asrwt>
<pdfrwt beam="1">  1        1 0.38776271E+00 0.65309867E+03</pdfrwt>
<pdfrwt beam="2">0</pdfrwt>
<totfact> 0.15154258E+00</totfact>
</mgrwt>
</event>
<event>
 6    1  0.3263951E-003  0.6527397E+03  0.7818608E-02  0.9801652E-01
          1   -1    0    0  502    0  0.00000000000E+00  0.00000000000E+00  0.10651730701E+03  0.10651730701E+03  0.00000000000E+00 0.  1.
         13   -1    0    0    0    0 -0.00000000000E+00 -0.00000000000E+00 -0.10000000000E+04  0.10000000000E+04  0.00000000000E+00 0.  1.
    9000005    2    1    2  501    0  0.50244516103E-06  0.40211900583E-05 -0.89348270899E+03  0.11065172905E+04  0.65273973597E+03 0.  0.
         13    1    3    3    0    0  0.12104978341E+03 -0.56333573208E+02 -0.95158554523E+03  0.96090664033E+03  0.00000000000E+00 0.  1.
          3    1    3    3  501    0 -0.12104978291E+03  0.56333577229E+02  0.58102836235E+02  0.14561065018E+03  0.00000000000E+00 0.  1.
         21    1    1    2  502  501 -0.50244517107E-06 -0.40211900584E-05  0.16007937992E-04  0.16512919167E-04  0.00000000000E+00 0. -1.
<mgrwt>
<rscale>  1 0.65273974E+03</rscale>
<asrwt>0</asrwt>
<pdfrwt beam="1">  1        1 0.38733648E+00 0.65273974E+03</pdfrwt>
<pdfrwt beam="2">0</pdfrwt>
<totfact> 0.15221286E+00</totfact>
</mgrwt>
</event>
<event>
 6    1  0.3263951E-003  0.6509328E+03  0.7818608E-02  0.9805030E-01
          1   -1    0    0  502    0  0.00000000000E+00  0.00000000000E+00  0.10592856194E+03  0.10592856194E+03  0.00000000000E+00 0.  1.
         13   -1    0    0    0    0 -0.00000000000E+00 -0.00000000000E+00 -0.10000000000E+04  0.10000000000E+04  0.00000000000E+00 0.  1.
    9000005    2    1    2  501    0  0.27827396906E-04 -0.19058821636E-04 -0.89407161023E+03  0.11059283865E+04  0.65093283206E+03 0.  0.
         13    1    3    3    0    0  0.17551356410E+03  0.91556569174E+02 -0.81147212550E+01  0.19812487286E+03  0.00000000000E+00 0.  1.
          3    1    3    3  501    0 -0.17551353628E+03 -0.91556588233E+02 -0.88595688897E+03  0.90780351364E+03  0.00000000000E+00 0.  1.
         21    1    1    2  502  501 -0.27827396905E-04  0.19058821630E-04  0.17216912280E-03  0.17544175542E-03  0.00000000000E+00 0.  1.
<mgrwt>
<rscale>  1 0.65093283E+03</rscale>
<asrwt>0</asrwt>
<pdfrwt beam="1">  1        1 0.38519558E+00 0.65093283E+03</pdfrwt>
<pdfrwt beam="2">0</pdfrwt>
<totfact> 0.15562246E+00</totfact>
</mgrwt>
</event>
<event>
 6    1  0.3263951E-003  0.6405056E+03  0.7818608E-02  0.9824760E-01
          1   -1    0    0  502    0  0.00000000000E+00  0.00000000000E+00  0.10473597300E+03  0.10473597300E+03  0.00000000000E+00 0.  1.
         13   -1    0    0    0    0 -0.00000000000E+00 -0.00000000000E+00 -0.10000000000E+04  0.10000000000E+04  0.00000000000E+00 0.  1.
    9000005    2    1    2  501    0 -0.71408305350E+00  0.21645253711E+00 -0.89736733684E+03  0.11025042296E+04  0.64050517741E+03 0.  0.
         13    1    3    3    0    0 -0.12255157920E+03 -0.10287921432E+03  0.28890277027E+02  0.16259664944E+03  0.00000000000E+00 0.  1.
          1    1    3    3  501    0  0.12183749615E+03  0.10309566686E+03 -0.92625761387E+03  0.93990758016E+03  0.00000000000E+00 0.  1.
         21    1    1    2  502  501  0.71408305350E+00 -0.21645253711E+00  0.21033098438E+01  0.22317434009E+01  0.00000000000E+00 0. -1.
<mgrwt>
<rscale>  1 0.64050561E+03</rscale>
<asrwt>0</asrwt>
<pdfrwt beam="1">  1        1 0.38085889E+00 0.64050561E+03</pdfrwt>
<pdfrwt beam="2">0</pdfrwt>
<totfact> 0.16295641E+00</totfact>
</mgrwt>
</event>
<event>
 6    1  0.3263951E-003  0.6561990E+03  0.7818608E-02  0.9795216E-01
          1   -1    0    0  502    0  0.00000000000E+00  0.00000000000E+00  0.10764931499E+03  0.10764931499E+03  0.00000000000E+00 0.  1.
         13   -1    0    0    0    0 -0.00000000000E+00 -0.00000000000E+00 -0.10000000000E+04  0.10000000000E+04  0.00000000000E+00 0.  1.
    9000005    2    1    2  501    0 -0.21417638537E-04  0.18490279956E-05 -0.89235070694E+03  0.11076492843E+04  0.65619901918E+03 0.  0.
         13    1    3    3    0    0 -0.93383149349E+01  0.82496936556E+02  0.89624863418E+02  0.12217022882E+03  0.00000000000E+00 0.  1.
          1    1    3    3  501    0  0.93382935173E+01 -0.82496934707E+02 -0.98197557036E+03  0.98547905546E+03  0.00000000000E+00 0.  1.
         21    1    1    2  502  501  0.21417638538E-04 -0.18490279918E-05  0.21930668610E-04  0.30709743906E-04  0.00000000000E+00 0. -1.
<mgrwt>
<rscale>  1 0.65619902E+03</rscale>
<asrwt>0</asrwt>
<pdfrwt beam="1">  1        1 0.39145288E+00 0.65619902E+03</pdfrwt>
<pdfrwt beam="2">0</pdfrwt>
<totfact> 0.14585568E+00</totfact>
</mgrwt>
</event>
<event>
 6    1  0.3263951E-003  0.5391913E+03  0.7818608E-02  0.1004027E+00
          1   -1    0    0  502    0  0.00000000000E+00  0.00000000000E+00  0.72681813283E+02  0.72681813283E+02  0.00000000000E+00 0.  1.
         13   -1    0    0    0    0 -0.00000000000E+00 -0.00000000000E+00 -0.10000000000E+04  0.10000000000E+04  0.00000000000E+00 0.  1.
    9000005    2    1    2  501    0  0.19627465804E-05  0.16385474453E-05 -0.92731819876E+03  0.10726818010E+04  0.53919125029E+03 0.  0.
         13    1    3    3    0    0 -0.20639174018E+03 -0.17212244620E+03 -0.50623997642E+03  0.57315146395E+03  0.00000000000E+00 0.  1.
          1    1    3    3  501    0  0.20639174214E+03  0.17212244784E+03 -0.42107822234E+03  0.49953033702E+03  0.00000000000E+00 0.  1.
         21    1    1    2  502  501 -0.19627466067E-05 -0.16385474455E-05  0.12042619155E-04  0.12311047400E-04  0.00000000000E+00 0. -1.
<mgrwt>
<rscale>  1 0.53919125E+03</rscale>
<asrwt>0</asrwt>
<pdfrwt beam="1">  1        1 0.26429806E+00 0.53919125E+03</pdfrwt>
<pdfrwt beam="2">0</pdfrwt>
<totfact> 0.53183927E+00</totfact>
</mgrwt>
</event>
<event>
 6    1  0.3263951E-003  0.6457285E+03  0.7818608E-02  0.9814828E-01
          1   -1    0    0  502    0  0.00000000000E+00  0.00000000000E+00  0.10424138118E+03  0.10424138118E+03  0.00000000000E+00 0.  1.
         13   -1    0    0    0    0 -0.00000000000E+00 -0.00000000000E+00 -0.10000000000E+04  0.10000000000E+04  0.00000000000E+00 0.  1.
    9000005    2    1    2  501    0 -0.21196035505E-05  0.15671860183E-05 -0.89575868883E+03  0.11042413111E+04  0.64572846041E+03 0.  0.
         13    1    3    3    0    0 -0.59012269766E+02 -0.13925341342E+03 -0.93567637013E+03  0.94782077987E+03  0.00000000000E+00 0.  1.
          3    1    3    3  501    0  0.59012267647E+02  0.13925341499E+03  0.39917681299E+02  0.15642053126E+03  0.00000000000E+00 0.  1.
         21    1    1    2  502  501  0.21196035467E-05 -0.15671860203E-05  0.70011911318E-04  0.70061519521E-04  0.00000000000E+00 0.  1.
<mgrwt>
<rscale>  1 0.64572846E+03</rscale>
<asrwt>0</asrwt>
<pdfrwt beam="1">  1        1 0.37906037E+00 0.64572846E+03</pdfrwt>
<pdfrwt beam="2">0</pdfrwt>
<totfact> 0.16580100E+00</totfact>
</mgrwt>
</event>
<event>
 6    1  0.3263951E-003  0.6539885E+03  0.7818608E-02  0.9799324E-01
          1   -1    0    0  502    0  0.00000000000E+00  0.00000000000E+00  0.11122983177E+03  0.11122983177E+03  0.00000000000E+00 0.  1.
         13   -1    0    0    0    0 -0.00000000000E+00 -0.00000000000E+00 -0.10000000000E+04  0.10000000000E+04  0.00000000000E+00 0.  1.
    9000005    2    1    2  501    0  0.15086219765E+00 -0.18050792244E+01 -0.89286280176E+03  0.11067542626E+04  0.65398603494E+03 0.  0.
         13    1    3    3    0    0 -0.82316554556E+02  0.11965848046E+03  0.49180725257E+02  0.15333920189E+03  0.00000000000E+00 0.  1.
          1    1    3    3  501    0  0.82467416753E+02 -0.12146355968E+03 -0.94204352702E+03  0.95341506069E+03  0.00000000000E+00 0.  1.
         21    1    1    2  502  501 -0.15086219765E+00  0.18050792244E+01  0.40926335276E+01  0.44755691929E+01  0.00000000000E+00 0.  1.
<mgrwt>
<rscale>  1 0.65398854E+03</rscale>
<asrwt>0</asrwt>
<pdfrwt beam="1">  1        1 0.40447297E+00 0.65398854E+03</pdfrwt>
<pdfrwt beam="2">0</pdfrwt>
<totfact> 0.12767959E+00</totfact>
</mgrwt>
</event>
<event>
 6    1  0.3263951E-003  0.6417016E+03  0.7818608E-02  0.9822476E-01
          1   -1    0    0  502    0  0.00000000000E+00  0.00000000000E+00  0.10295039393E+03  0.10295039393E+03  0.00000000000E+00 0.  1.
         13   -1    0    0    0    0 -0.00000000000E+00 -0.00000000000E+00 -0.10000000000E+04  0.10000000000E+04  0.00000000000E+00 0.  1.
    9000005    2    1    2  501    0 -0.74091726203E-02  0.76888647769E-02 -0.89700644450E+03  0.11029059312E+04  0.64170159067E+03 0.  0.
         13    1    3    3    0    0  0.10396368301E+03 -0.21575589357E+03 -0.81545088138E+03  0.84989363625E+03  0.00000000000E+00 0.  1.
          1    1    3    3  501    0 -0.10397109219E+03  0.21576358243E+03 -0.81555563119E+02  0.25301229494E+03  0.00000000000E+00 0.  1.
         21    1    1    2  502  501  0.74091726203E-02 -0.76888647769E-02 -0.43161565780E-01  0.44462739918E-01  0.00000000000E+00 0.  1.
<mgrwt>
<rscale>  1 0.64170159E+03</rscale>
<asrwt>0</asrwt>
<pdfrwt beam="1">  1        1 0.37436586E+00 0.64170159E+03</pdfrwt>
<pdfrwt beam="2">0</pdfrwt>
<totfact> 0.17401572E+00</totfact>
</mgrwt>
</event>
<event>
 6    1  0.4322243E-003  0.6641451E+03  0.7818608E-02  0.9780593E-01
          1   -1    0    0  502    0  0.00000000000E+00  0.00000000000E+00  0.11027218704E+03  0.11027218704E+03  0.00000000000E+00 0.  1.
         13   -1    0    0    0    0 -0.00000000000E+00 -0.00000000000E+00 -0.10000000000E+04  0.10000000000E+04  0.00000000000E+00 0.  1.
    9000005    2    1    2  501    0 -0.10189717017E-04 -0.34356765724E-04 -0.88972780462E+03  0.11102721502E+04  0.66414507549E+03 0.  0.
         13    1    3    3    0    0 -0.24588748555E+03  0.21860065552E+03 -0.52009669169E+03  0.61542462645E+03  0.00000000000E+00 0.  1.
          1    1    3    3  501    0  0.24588747536E+03 -0.21860068987E+03 -0.36963111293E+03  0.49484752379E+03  0.00000000000E+00 0.  1.
         21    1    1    2  502  501  0.10189717008E-04  0.34356765738E-04 -0.83418677763E-05  0.36794081626E-04  0.00000000000E+00 0.  1.
<mgrwt>
<rscale>  1 0.66414508E+03</rscale>
<asrwt>0</asrwt>
<pdfrwt beam="1">  1        1 0.40099062E+00 0.66414508E+03</pdfrwt>
<pdfrwt beam="2">0</pdfrwt>
<totfact> 0.13208025E+00</totfact>
</mgrwt>
</event>
<event>
 6    1  0.3263951E-003  0.6507879E+03  0.7818608E-02  0.9805302E-01
          3   -1    0    0  502    0  0.00000000000E+00  0.00000000000E+00  0.10588122674E+03  0.10588122674E+03  0.00000000000E+00 0.  1.
         13   -1    0    0    0    0 -0.00000000000E+00 -0.00000000000E+00 -0.10000000000E+04  0.10000000000E+04  0.00000000000E+00 0.  1.
    9000005    2    1    2  501    0  0.37204757746E-05  0.13986385270E-04 -0.89411877270E+03  0.11058812123E+04  0.65078788860E+03 0.  0.
         13    1    3    3    0    0 -0.29844328935E+03  0.12325704356E+03 -0.51546578712E+03  0.60824803612E+03  0.00000000000E+00 0.  1.
          3    1    3    3  501    0  0.29844329307E+03 -0.12325702957E+03 -0.37865298557E+03  0.49763317615E+03  0.00000000000E+00 0.  1.
         21    1    1    2  502  501 -0.37204757501E-05 -0.13986385265E-04 -0.55832583409E-06  0.14483529968E-04  0.00000000000E+00 0. -1.
<mgrwt>
<rscale>  1 0.65078789E+03</rscale>
<asrwt>0</asrwt>
<pdfrwt beam="1">  1        3 0.38502345E+00 0.65078789E+03</pdfrwt>
<pdfrwt beam="2">0</pdfrwt>
<totfact> 0.71000268E-02</totfact>
</mgrwt>
</event>
<event>
 6    1  0.3263951E-003  0.6237930E+03  0.7818608E-02  0.9857237E-01
          1   -1    0    0  502    0  0.00000000000E+00  0.00000000000E+00  0.99728503350E+02  0.99728503350E+02  0.00000000000E+00 0.  1.
         13   -1    0    0    0    0 -0.00000000000E+00 -0.00000000000E+00 -0.10000000000E+04  0.10000000000E+04  0.00000000000E+00 0.  1.
    9000005    2    1    2  501    0 -0.89958654670E+00  0.85379545270E+00 -0.90254718321E+03  0.10971367912E+04  0.62379177809E+03 0.  0.
         13    1    3    3    0    0  0.25737076428E+03  0.16733454066E+03 -0.35554670005E+03  0.46973824064E+03  0.00000000000E+00 0.  1.
          3    1    3    3  501    0 -0.25827035083E+03 -0.16648074521E+03 -0.54700048316E+03  0.62739855054E+03  0.00000000000E+00 0.  1.
         21    1    1    2  502  501  0.89958654670E+00 -0.85379545270E+00  0.22756865637E+01  0.25917121688E+01  0.00000000000E+00 0. -1.
<mgrwt>
<rscale>  1 0.62379301E+03</rscale>
<asrwt>0</asrwt>
<pdfrwt beam="1">  1        1 0.36264987E+00 0.62379301E+03</pdfrwt>
<pdfrwt beam="2">0</pdfrwt>
<totfact> 0.19652853E+00</totfact>
</mgrwt>
</event>
<event>
 6    1  0.3263951E-003  0.6650119E+03  0.7818608E-02  0.9779011E-01
          3   -1    0    0  502    0  0.00000000000E+00  0.00000000000E+00  0.11056019435E+03  0.11056019435E+03  0.00000000000E+00 0.  1.
         13   -1    0    0    0    0 -0.00000000000E+00 -0.00000000000E+00 -0.10000000000E+04  0.10000000000E+04  0.00000000000E+00 0.  1.
    9000005    2    1    2  501    0 -0.11057041007E-05 -0.91422379001E-06 -0.88943980822E+03  0.11105601914E+04  0.66501185426E+03 0.  0.
         13    1    3    3    0    0 -0.14975838913E+02  0.16469169530E+03  0.37013941343E+02  0.16946286350E+03  0.00000000000E+00 0.  1.
          3    1    3    3  501    0  0.14975837808E+02 -0.16469169622E+03 -0.92645374956E+03  0.94109732791E+03  0.00000000000E+00 0.  1.
         21    1    1    2  502  501  0.11057041013E-05  0.91422379870E-06  0.25665926775E-05  0.29403715218E-05  0.00000000000E+00 0.  1.
<mgrwt>
<rscale>  1 0.66501185E+03</rscale>
<asrwt>0</asrwt>
<pdfrwt beam="1">  1        3 0.40203792E+00 0.66501185E+03</pdfrwt>
<pdfrwt beam="2">0</pdfrwt>
<totfact> 0.57652995E-02</totfact>
</mgrwt>
</event>
<event>
 6    1  0.3263951E-003  0.6534241E+03  0.7818608E-02  0.9800375E-01
          3   -1    0    0  502    0  0.00000000000E+00  0.00000000000E+00  0.14236935527E+03  0.14236935527E+03  0.00000000000E+00 0.  1.
         13   -1    0    0    0    0 -0.00000000000E+00 -0.00000000000E+00 -0.10000000000E+04  0.10000000000E+04  0.00000000000E+00 0.  1.
    9000005    2    1    2  501    0  0.53838546117E+01 -0.34217503028E+02 -0.88368361642E+03  0.10990267580E+04  0.65250536970E+03 0.  0.
         13    1    3    3    0    0  0.13379272168E+03  0.26083380281E+03 -0.60926602762E+03  0.67612118550E+03  0.00000000000E+00 0.  1.
          3    1    3    3  501    0 -0.12840886707E+03 -0.29505130584E+03 -0.27441758879E+03  0.42290557251E+03  0.00000000000E+00 0.  1.
         21    1    1    2  502  501 -0.53838546117E+01  0.34217503028E+02  0.26052971685E+02  0.43342597264E+02  0.00000000000E+00 0.  1.
<mgrwt>
<rscale>  1 0.65342412E+03</rscale>
<asrwt>0</asrwt>
<pdfrwt beam="1">  1        3 0.51770784E+00 0.65342412E+03</pdfrwt>
<pdfrwt beam="2">0</pdfrwt>
<totfact> 0.15161109E-02</totfact>
</mgrwt>
</event>
<event>
 6    1  0.3263951E-003  0.6428894E+03  0.7818608E-02  0.9820214E-01
          1   -1    0    0  502    0  0.00000000000E+00  0.00000000000E+00  0.10332775174E+03  0.10332775174E+03  0.00000000000E+00 0.  1.
         13   -1    0    0    0    0 -0.00000000000E+00 -0.00000000000E+00 -0.10000000000E+04  0.10000000000E+04  0.00000000000E+00 0.  1.
    9000005    2    1    2  501    0 -0.10270913992E-03  0.72995776568E-03 -0.89667314440E+03  0.11033265914E+04  0.64288944566E+03 0.  0.
         13    1    3    3    0    0  0.16504759076E+03  0.52247186148E+02  0.16485051191E+02  0.17390294014E+03  0.00000000000E+00 0.  1.
          1    1    3    3  501    0 -0.16504769347E+03 -0.52246456190E+02 -0.91315819559E+03  0.92942365124E+03  0.00000000000E+00 0.  1.
         21    1    1    2  502  501  0.10270913992E-03 -0.72995776568E-03  0.89613750215E-03  0.11603662912E-02  0.00000000000E+00 0. -1.
<mgrwt>
<rscale>  1 0.64288945E+03</rscale>
<asrwt>0</asrwt>
<pdfrwt beam="1">  1        1 0.37573807E+00 0.64288945E+03</pdfrwt>
<pdfrwt beam="2">0</pdfrwt>
<totfact> 0.17157488E+00</totfact>
</mgrwt>
</event>
<event>
 6    1  0.3263951E-003  0.6494141E+03  0.7818608E-02  0.9807879E-01
          1   -1    0    0  502    0  0.00000000000E+00  0.00000000000E+00  0.10543467870E+03  0.10543467870E+03  0.00000000000E+00 0.  1.
         13   -1    0    0    0    0 -0.00000000000E+00 -0.00000000000E+00 -0.10000000000E+04  0.10000000000E+04  0.00000000000E+00 0.  1.
    9000005    2    1    2  501    0 -0.49096190651E-05 -0.19769564169E-04 -0.89456533743E+03  0.11054346527E+04  0.64941406552E+03 0.  0.
         13    1    3    3    0    0 -0.32179270623E+03 -0.42874651132E+02 -0.43575308304E+03  0.54338709119E+03  0.00000000000E+00 0.  1.
          1    1    3    3  501    0  0.32179270132E+03  0.42874631363E+02 -0.45881225438E+03  0.56204756152E+03  0.00000000000E+00 0.  1.
         21    1    1    2  502  501  0.49096190931E-05  0.19769564171E-04  0.16126923800E-04  0.25981102717E-04  0.00000000000E+00 0.  1.
<mgrwt>
<rscale>  1 0.64941407E+03</rscale>
<asrwt>0</asrwt>
<pdfrwt beam="1">  1        1 0.38339964E+00 0.64941407E+03</pdfrwt>
<pdfrwt beam="2">0</pdfrwt>
<totfact> 0.15853862E+00</totfact>
</mgrwt>
</event>
<event>
 6    1  0.3263951E-003  0.6397012E+03  0.7818608E-02  0.9826298E-01
          1   -1    0    0  502    0  0.00000000000E+00  0.00000000000E+00  0.10231038272E+03  0.10231038272E+03  0.00000000000E+00 0.  1.
         13   -1    0    0    0    0 -0.00000000000E+00 -0.00000000000E+00 -0.10000000000E+04  0.10000000000E+04  0.00000000000E+00 0.  1.
    9000005    2    1    2  501    0  0.12948895919E-02  0.15115846716E-03 -0.89769551048E+03  0.11023043470E+04  0.63970121460E+03 0.  0.
         13    1    3    3    0    0 -0.69864465438E+02 -0.11061518005E+03 -0.95178313283E+03  0.96073299804E+03  0.00000000000E+00 0.  1.
          3    1    3    3  501    0  0.69865760328E+02  0.11061533121E+03  0.54087622350E+02  0.14157134900E+03  0.00000000000E+00 0.  1.
         21    1    1    2  502  501 -0.12948895919E-02 -0.15115846715E-03  0.58932014256E-02  0.60356781707E-02  0.00000000000E+00 0.  1.
<mgrwt>
<rscale>  1 0.63970121E+03</rscale>
<asrwt>0</asrwt>
<pdfrwt beam="1">  1        1 0.37203854E+00 0.63970121E+03</pdfrwt>
<pdfrwt beam="2">0</pdfrwt>
<totfact> 0.17823096E+00</totfact>
</mgrwt>
</event>
<event>
 6    1  0.3263951E-003  0.6362317E+03  0.7818608E-02  0.9832963E-01
          1   -1    0    0  502    0  0.00000000000E+00  0.00000000000E+00  0.10119785103E+03  0.10119785103E+03  0.00000000000E+00 0.  1.
         13   -1    0    0    0    0 -0.00000000000E+00 -0.00000000000E+00 -0.10000000000E+04  0.10000000000E+04  0.00000000000E+00 0.  1.
    9000005    2    1    2  501    0 -0.10432722875E-04  0.12097840454E-04 -0.89880229738E+03  0.11011977018E+04  0.63623172554E+03 0.  0.
         13    1    3    3    0    0 -0.15919108095E+01  0.31399345752E+03 -0.53771127226E+03  0.62267795678E+03  0.00000000000E+00 0.  1.
          1    1    3    3  501    0  0.15919003768E+01 -0.31399344542E+03 -0.36109102512E+03  0.47851974498E+03  0.00000000000E+00 0.  1.
         21    1    1    2  502  501  0.10432722875E-04 -0.12097840464E-04  0.14841021378E-03  0.14926751490E-03  0.00000000000E+00 0. -1.
<mgrwt>
<rscale>  1 0.63623173E+03</rscale>
<asrwt>0</asrwt>
<pdfrwt beam="1">  1        1 0.36799296E+00 0.63623173E+03</pdfrwt>
<pdfrwt beam="2">0</pdfrwt>
<totfact> 0.18579128E+00</totfact>
</mgrwt>
</event>
<event>
 6    1  0.3667598E-003  0.6680534E+03  0.7818608E-02  0.9773481E-01
          1   -1    0    0  502    0  0.00000000000E+00  0.00000000000E+00  0.11167107088E+03  0.11167107088E+03  0.00000000000E+00 0.  1.
         13   -1    0    0    0    0 -0.00000000000E+00 -0.00000000000E+00 -0.10000000000E+04  0.10000000000E+04  0.00000000000E+00 0.  1.
    9000005    2    1    2  501    0  0.89462275438E-01  0.24431384799E+00 -0.88815904226E+03  0.11113603390E+04  0.66805332952E+03 0.  0.
         13    1    3    3    0    0 -0.34053896803E+02  0.98483083024E+02 -0.97212448687E+03  0.97769351205E+03  0.00000000000E+00 0.  1.
          3    1    3    3  501    0  0.34143359079E+02 -0.98238769176E+02  0.83965444617E+02  0.13366682695E+03  0.00000000000E+00 0.  1.
         21    1    1    2  502  501 -0.89462275438E-01 -0.24431384799E+00 -0.16988685987E+00  0.31073187832E+00  0.00000000000E+00 0.  1.
<mgrwt>
<rscale>  1 0.66805338E+03</rscale>
<asrwt>0</asrwt>
<pdfrwt beam="1">  1        1 0.40607748E+00 0.66805338E+03</pdfrwt>
<pdfrwt beam="2">0</pdfrwt>
<totfact> 0.12525316E+00</totfact>
</mgrwt>
</event>
<event>
 6    1  0.3263951E-003  0.6494814E+03  0.7818608E-02  0.9807753E-01
          1   -1    0    0  502    0  0.00000000000E+00  0.00000000000E+00  0.10545652360E+03  0.10545652360E+03  0.00000000000E+00 0.  1.
         13   -1    0    0    0    0 -0.00000000000E+00 -0.00000000000E+00 -0.10000000000E+04  0.10000000000E+04  0.00000000000E+00 0.  1.
    9000005    2    1    2  501    0  0.39768850684E-05 -0.18563224558E-06 -0.89454348204E+03  0.11054565167E+04  0.64948138469E+03 0.  0.
         13    1    3    3    0    0 -0.21859711706E+03 -0.23136177703E+03 -0.33770947850E+03  0.46406967507E+03  0.00000000000E+00 0.  1.
          1    1    3    3  501    0  0.21859712103E+03  0.23136177685E+03 -0.55683400354E+03  0.64138684163E+03  0.00000000000E+00 0.  1.
         21    1    1    2  502  501 -0.39768850671E-05  0.18563224640E-06  0.56360847602E-05  0.69004003936E-05  0.00000000000E+00 0.  1.
<mgrwt>
<rscale>  1 0.64948138E+03</rscale>
<asrwt>0</asrwt>
<pdfrwt beam="1">  1        1 0.38347908E+00 0.64948138E+03</pdfrwt>
<pdfrwt beam="2">0</pdfrwt>
<totfact> 0.15840854E+00</totfact>
</mgrwt>
</event>
<event>
 6    1  0.3263951E-003  0.6338525E+03  0.7818608E-02  0.9837560E-01
          1   -1    0    0  502    0  0.00000000000E+00  0.00000000000E+00  0.10044401056E+03  0.10044401056E+03  0.00000000000E+00 0.  1.
         13   -1    0    0    0    0 -0.00000000000E+00 -0.00000000000E+00 -0.10000000000E+04  0.10000000000E+04  0.00000000000E+00 0.  1.
    9000005    2    1    2  501    0  0.25166623857E-04  0.44559494796E-05 -0.89955774275E+03  0.11004422571E+04  0.63385252905E+03 0.  0.
         13    1    3    3    0    0 -0.28759197175E+03 -0.11346624397E+03 -0.57079155913E+03  0.64914307723E+03  0.00000000000E+00 0.  1.
          1    1    3    3  501    0  0.28759199692E+03  0.11346624843E+03 -0.32876618362E+03  0.45129917983E+03  0.00000000000E+00 0.  1.
         21    1    1    2  502  501 -0.25166623855E-04 -0.44559494874E-05  0.17533143261E-02  0.17535005962E-02  0.00000000000E+00 0. -1.
<mgrwt>
<rscale>  1 0.63385253E+03</rscale>
<asrwt>0</asrwt>
<pdfrwt beam="1">  1        1 0.36525172E+00 0.63385253E+03</pdfrwt>
<pdfrwt beam="2">0</pdfrwt>
<totfact> 0.19108843E+00</totfact>
</mgrwt>
</event>
<event>
 6    1  0.3263951E-003  0.6351289E+03  0.7818608E-02  0.9835091E-01
          1   -1    0    0  502    0  0.00000000000E+00  0.00000000000E+00  0.10085180758E+03  0.10085180758E+03  0.00000000000E+00 0.  1.
         13   -1    0    0    0    0 -0.00000000000E+00 -0.00000000000E+00 -0.10000000000E+04  0.10000000000E+04  0.00000000000E+00 0.  1.
    9000005    2    1    2  501    0  0.61507890162E-04 -0.13209551895E-03 -0.89915282528E+03  0.11008471724E+04  0.63512887971E+03 0.  0.
         13    1    3    3    0    0  0.14217781093E+02 -0.17622882483E+03 -0.90680546157E+03  0.92388034352E+03  0.00000000000E+00 0.  1.
          1    1    3    3  501    0 -0.14217719585E+02  0.17622869273E+03  0.76526362960E+01  0.17696682891E+03  0.00000000000E+00 0.  1.
         21    1    1    2  502  501 -0.61507890164E-04  0.13209551896E-03  0.46328540391E-02  0.46351449810E-02  0.00000000000E+00 0. -1.
<mgrwt>
<rscale>  1 0.63512888E+03</rscale>
<asrwt>0</asrwt>
<pdfrwt beam="1">  1        1 0.36673462E+00 0.63512888E+03</pdfrwt>
<pdfrwt beam="2">0</pdfrwt>
<totfact> 0.18820556E+00</totfact>
</mgrwt>
</event>
<event>
 6    1  0.3263951E-003  0.6564717E+03  0.7818608E-02  0.9794711E-01
          1   -1    0    0  502    0  0.00000000000E+00  0.00000000000E+00  0.10773911391E+03  0.10773911391E+03  0.00000000000E+00 0.  1.
         13   -1    0    0    0    0 -0.00000000000E+00 -0.00000000000E+00 -0.10000000000E+04  0.10000000000E+04  0.00000000000E+00 0.  1.
    9000005    2    1    2  501    0 -0.90658630018E-03 -0.17200780658E-03 -0.89226036493E+03  0.11077380541E+04  0.65647165801E+03 0.  0.
         13    1    3    3    0    0 -0.22365320233E+03  0.16905917813E+03 -0.15809585143E+03  0.32186341647E+03  0.00000000000E+00 0.  1.
          3    1    3    3  501    0  0.22365229574E+03 -0.16905935014E+03 -0.73416451350E+03  0.78587463767E+03  0.00000000000E+00 0.  1.
         21    1    1    2  502  501  0.90658630017E-03  0.17200780659E-03 -0.52115992186E-03  0.10597608548E-02  0.00000000000E+00 0. -1.
<mgrwt>
<rscale>  1 0.65647166E+03</rscale>
<asrwt>0</asrwt>
<pdfrwt beam="1">  1        1 0.39177942E+00 0.65647166E+03</pdfrwt>
<pdfrwt beam="2">0</pdfrwt>
<totfact> 0.14536236E+00</totfact>
</mgrwt>
</event>
<event>
 6    1  0.3263951E-003  0.6043697E+03  0.7818608E-02  0.9896382E-01
          1   -1    0    0  502    0  0.00000000000E+00  0.00000000000E+00  0.91532628583E+02  0.91532628583E+02  0.00000000000E+00 0.  1.
         13   -1    0    0    0    0 -0.00000000000E+00 -0.00000000000E+00 -0.10000000000E+04  0.10000000000E+04  0.00000000000E+00 0.  1.
    9000005    2    1    2  501    0  0.26303450254E+00  0.25122366230E+00 -0.90850561952E+03  0.10911668918E+04  0.60436958292E+03 0.  0.
         13    1    3    3    0    0  0.86702857251E+02  0.94676721049E+02 -0.94842289433E+03  0.95707212553E+03  0.00000000000E+00 0.  1.
          1    1    3    3  501    0 -0.86439822748E+02 -0.94425497387E+02  0.39917274811E+02  0.13409476627E+03  0.00000000000E+00 0.  1.
         21    1    1    2  502  501 -0.26303450254E+00 -0.25122366230E+00  0.38248103672E-01  0.36573678439E+00  0.00000000000E+00 0. -1.
<mgrwt>
<rscale>  1 0.60436969E+03</rscale>
<asrwt>0</asrwt>
<pdfrwt beam="1">  1        1 0.33284662E+00 0.60436969E+03</pdfrwt>
<pdfrwt beam="2">0</pdfrwt>
<totfact> 0.26589313E+00</totfact>
</mgrwt>
</event>
<event>
 6    1  0.3263951E-003  0.6728272E+03  0.7818608E-02  0.9764864E-01
          1   -1    0    0  502    0  0.00000000000E+00  0.00000000000E+00  0.11317422514E+03  0.11317422514E+03  0.00000000000E+00 0.  1.
         13   -1    0    0    0    0 -0.00000000000E+00 -0.00000000000E+00 -0.10000000000E+04  0.10000000000E+04  0.00000000000E+00 0.  1.
    9000005    2    1    2  501    0 -0.99408413234E-06 -0.43850416489E-05 -0.88682589127E+03  0.11131741086E+04  0.67282719530E+03 0.  0.
         13    1    3    3    0    0 -0.31340407831E+03 -0.11247167393E+03 -0.36403074595E+03  0.49334610339E+03  0.00000000000E+00 0.  1.
          1    1    3    3  501    0  0.31340407731E+03  0.11247166954E+03 -0.52279514532E+03  0.61982800526E+03  0.00000000000E+00 0.  1.
         21    1    1    2  502  501  0.99408411398E-06  0.43850416520E-05  0.11641291059E-03  0.11649971049E-03  0.00000000000E+00 0. -1.
<mgrwt>
<rscale>  1 0.67282720E+03</rscale>
<asrwt>0</asrwt>
<pdfrwt beam="1">  1        1 0.41154350E+00 0.67282720E+03</pdfrwt>
<pdfrwt beam="2">0</pdfrwt>
<totfact> 0.11827572E+00</totfact>
</mgrwt>
</event>
<event>
 6    1  0.3263951E-003  0.6485525E+03  0.7818608E-02  0.9809499E-01
          1   -1    0    0  502    0  0.00000000000E+00  0.00000000000E+00  0.10522468011E+03  0.10522468011E+03  0.00000000000E+00 0.  1.
         13   -1    0    0    0    0 -0.00000000000E+00 -0.00000000000E+00 -0.10000000000E+04  0.10000000000E+04  0.00000000000E+00 0.  1.
    9000005    2    1    2  501    0  0.42362808634E-01 -0.58386292114E-01 -0.89482364297E+03  0.11051378545E+04  0.64855248071E+03 0.  0.
         13    1    3    3    0    0 -0.14404350088E+03 -0.14472961290E+03 -0.18148319898E+02  0.20499890856E+03  0.00000000000E+00 0.  1.
          1    1    3    3  501    0  0.14408586369E+03  0.14467122661E+03 -0.87667532307E+03  0.90013894594E+03  0.00000000000E+00 0.  1.
         21    1    1    2  502  501 -0.42362808634E-01  0.58386292114E-01  0.48323079108E-01  0.86825610488E-01  0.00000000000E+00 0. -1.
<mgrwt>
<rscale>  1 0.64855248E+03</rscale>
<asrwt>0</asrwt>
<pdfrwt beam="1">  1        1 0.38263601E+00 0.64855248E+03</pdfrwt>
<pdfrwt beam="2">0</pdfrwt>
<totfact> 0.15980059E+00</totfact>
</mgrwt>
</event>
<event>
 6    1  0.3263951E-003  0.6515326E+03  0.7818608E-02  0.9803908E-01
          1   -1    0    0  502    0  0.00000000000E+00  0.00000000000E+00  0.10612925651E+03  0.10612925651E+03  0.00000000000E+00 0.  1.
         13   -1    0    0    0    0 -0.00000000000E+00 -0.00000000000E+00 -0.10000000000E+04  0.10000000000E+04  0.00000000000E+00 0.  1.
    9000005    2    1    2  501    0 -0.11095039005E-02 -0.15752344893E-02 -0.89387613408E+03  0.11061235319E+04  0.65153259689E+03 0.  0.
         13    1    3    3    0    0  0.23735935533E+03  0.51045653964E+02 -0.81569261337E+03  0.85105790746E+03  0.00000000000E+00 0.  1.
          3    1    3    3  501    0 -0.23736046483E+03 -0.51047229198E+02 -0.78183520709E+02  0.25506562447E+03  0.00000000000E+00 0.  1.
         21    1    1    2  502  501  0.11095039005E-02  0.15752344893E-02  0.53905906892E-02  0.57245812580E-02  0.00000000000E+00 0. -1.
<mgrwt>
<rscale>  1 0.65153260E+03</rscale>
<asrwt>0</asrwt>
<pdfrwt beam="1">  1        1 0.38592538E+00 0.65153260E+03</pdfrwt>
<pdfrwt beam="2">0</pdfrwt>
<totfact> 0.15445257E+00</totfact>
</mgrwt>
</event>
<event>
 6    1  0.3263951E-003  0.6466862E+03  0.7818608E-02  0.9813017E-01
          1   -1    0    0  502    0  0.00000000000E+00  0.00000000000E+00  0.10455977593E+03  0.10455977593E+03  0.00000000000E+00 0.  1.
         13   -1    0    0    0    0 -0.00000000000E+00 -0.00000000000E+00 -0.10000000000E+04  0.10000000000E+04  0.00000000000E+00 0.  1.
    9000005    2    1    2  501    0  0.14793361211E-02 -0.55249024192E-03 -0.89544916608E+03  0.11045506956E+04  0.64668619130E+03 0.  0.
         13    1    3    3    0    0  0.25697548050E+03  0.13217086726E+03 -0.69550851534E+03  0.75315179788E+03  0.00000000000E+00 0.  1.
          1    1    3    3  501    0 -0.25697400116E+03 -0.13217141975E+03 -0.19994065074E+03  0.35139889768E+03  0.00000000000E+00 0.  1.
         21    1    1    2  502  501 -0.14793361211E-02  0.55249024192E-03  0.89420080005E-02  0.90803737758E-02  0.00000000000E+00 0. -1.
<mgrwt>
<rscale>  1 0.64668619E+03</rscale>
<asrwt>0</asrwt>
<pdfrwt beam="1">  1        1 0.38021817E+00 0.64668619E+03</pdfrwt>
<pdfrwt beam="2">0</pdfrwt>
<totfact> 0.16383366E+00</totfact>
</mgrwt>
</event>
