<event>
 6    1  0.2798667E-002  0.6296538E+03  0.7818608E-02  0.9845725E-01
          1   -1    0    0  502    0  0.00000000000E+00  0.00000000000E+00  0.99116566355E+02  0.99116566355E+02  0.00000000000E+00 0.  1.
         13   -1    0    0    0    0 -0.00000000000E+00 -0.00000000000E+00 -0.10000000000E+04  0.10000000000E+04  0.00000000000E+00 0.  1.
    9000005    2    1    2  501    0  0.12473064999E-04  0.13428524994E-05 -0.90088403739E+03  0.10991159625E+04  0.62965375417E+03 0.  0.
         13    1    3    3    0    0 -0.67156242295E+02 -0.18205526901E+03 -0.88319954973E+03  0.90426518593E+03  0.00000000000E+00 0.  1.
          1    1    3    3  501    0  0.67156254769E+02  0.18205527035E+03 -0.17684487667E+02  0.19485077655E+03  0.00000000000E+00 0.  1.
         21    1    1    2  502  501 -0.12473065001E-04 -0.13428525104E-05  0.60374706911E-03  0.60387739158E-03  0.00000000000E+00 0.  1.
<mgrwt>
<rscale>  1 0.62965375E+03</rscale>
<asrwt>0</asrwt>
<pdfrwt beam="1">  1        1 0.36042464E+00 0.62965375E+03</pdfrwt>
<pdfrwt beam="2">0</pdfrwt>
<totfact> 0.20077034E+00</totfact>
</mgrwt>
</event>
<event>
 6    1  0.2798667E-002  0.6489497E+03  0.7818608E-02  0.9808752E-01
          1   -1    0    0  502    0  0.00000000000E+00  0.00000000000E+00  0.10537871289E+03  0.10537871289E+03  0.00000000000E+00 0.  1.
         13   -1    0    0    0    0 -0.00000000000E+00 -0.00000000000E+00 -0.10000000000E+04  0.10000000000E+04  0.00000000000E+00 0.  1.
    9000005    2    1    2  501    0  0.71093114386E-02 -0.38072862148E-02 -0.89471589678E+03  0.11052837601E+04  0.64894965474E+03 0.  0.
         13    1    3    3    0    0  0.14087685233E+03  0.20023146370E+03 -0.81004260075E+03  0.84623161228E+03  0.00000000000E+00 0.  1.
          3    1    3    3  501    0 -0.14086974302E+03 -0.20023527099E+03 -0.84673296023E+02  0.25905214785E+03  0.00000000000E+00 0.  1.
         21    1    1    2  502  501 -0.71093114386E-02  0.38072862148E-02  0.94609665968E-01  0.94952760002E-01  0.00000000000E+00 0. -1.
<mgrwt>
<rscale>  1 0.64894965E+03</rscale>
<asrwt>0</asrwt>
<pdfrwt beam="1">  1        1 0.38319613E+00 0.64894965E+03</pdfrwt>
<pdfrwt beam="2">0</pdfrwt>
<totfact> 0.15888089E+00</totfact>
</mgrwt>
</event>
<event>
 6    1  0.2798667E-002  0.6404431E+03  0.7818608E-02  0.9824879E-01
          1   -1    0    0  502    0  0.00000000000E+00  0.00000000000E+00  0.10260232387E+03  0.10260232387E+03  0.00000000000E+00 0.  1.
         13   -1    0    0    0    0 -0.00000000000E+00 -0.00000000000E+00 -0.10000000000E+04  0.10000000000E+04  0.00000000000E+00 0.  1.
    9000005    2    1    2  501    0  0.18906767990E-02  0.20260362470E-02 -0.89745811751E+03  0.11025418190E+04  0.64044311999E+03 0.  0.
         13    1    3    3    0    0 -0.25453436034E+03 -0.13392815203E+03 -0.20638516730E+03  0.35400470022E+03  0.00000000000E+00 0.  1.
          1    1    3    3  501    0  0.25453625101E+03  0.13393017806E+03 -0.69107295021E+03  0.74853711878E+03  0.00000000000E+00 0.  1.
         21    1    1    2  502  501 -0.18906767990E-02 -0.20260362470E-02  0.60441378064E-01  0.60504873059E-01  0.00000000000E+00 0.  1.
<mgrwt>
<rscale>  1 0.64044312E+03</rscale>
<asrwt>0</asrwt>
<pdfrwt beam="1">  1        1 0.37310015E+00 0.64044312E+03</pdfrwt>
<pdfrwt beam="2">0</pdfrwt>
<totfact> 0.17630172E+00</totfact>
</mgrwt>
</event>
<event>
 6    1  0.2798667E-002  0.6599398E+03  0.7818608E-02  0.9788305E-01
          1   -1    0    0  502    0  0.00000000000E+00  0.00000000000E+00  0.10888435315E+03  0.10888435315E+03  0.00000000000E+00 0.  1.
         13   -1    0    0    0    0 -0.00000000000E+00 -0.00000000000E+00 -0.10000000000E+04  0.10000000000E+04  0.00000000000E+00 0.  1.
    9000005    2    1    2  501    0 -0.88140557046E-03 -0.68224351281E-03 -0.89111979054E+03  0.11088800622E+04  0.65993977846E+03 0.  0.
         13    1    3    3    0    0  0.99720000534E+01 -0.32071280530E+03 -0.31623163234E+03  0.45050925580E+03  0.00000000000E+00 0.  1.
          3    1    3    3  501    0 -0.99728814590E+01  0.32071212306E+03 -0.57488815820E+03  0.65837080637E+03  0.00000000000E+00 0.  1.
         21    1    1    2  502  501  0.88140557046E-03  0.68224351282E-03  0.41436859498E-02  0.42909748590E-02  0.00000000000E+00 0. -1.
<mgrwt>
<rscale>  1 0.65993978E+03</rscale>
<asrwt>0</asrwt>
<pdfrwt beam="1">  1        1 0.39594394E+00 0.65993978E+03</pdfrwt>
<pdfrwt beam="2">0</pdfrwt>
<totfact> 0.13920807E+00</totfact>
</mgrwt>
</event>
<event>
 6    1  0.2798667E-002  0.6532177E+03  0.7818608E-02  0.9800760E-01
          1   -1    0    0  502    0  0.00000000000E+00  0.00000000000E+00  0.10853800993E+03  0.10853800993E+03  0.00000000000E+00 0.  1.
         13   -1    0    0    0    0 -0.00000000000E+00 -0.00000000000E+00 -0.10000000000E+04  0.10000000000E+04  0.00000000000E+00 0.  1.
    9000005    2    1    2  501    0 -0.22549534405E+01  0.66496637091E-01 -0.89253942184E+03  0.11060379907E+04  0.65321384565E+03 0.  0.
         13    1    3    3    0    0 -0.19520937309E+03  0.15086963044E+03 -0.81135818626E+03  0.84803918019E+03  0.00000000000E+00 0.  1.
          3    1    3    3  501    0  0.19295441965E+03 -0.15080313380E+03 -0.81181235579E+02  0.25799881053E+03  0.00000000000E+00 0.  1.
         21    1    1    2  502  501  0.22549534405E+01 -0.66496637091E-01  0.10774317696E+01  0.25000192078E+01  0.00000000000E+00 0. -1.
<mgrwt>
<rscale>  1 0.65321774E+03</rscale>
<asrwt>0</asrwt>
<pdfrwt beam="1">  1        1 0.39468450E+00 0.65321774E+03</pdfrwt>
<pdfrwt beam="2">0</pdfrwt>
<totfact> 0.14119229E+00</totfact>
</mgrwt>
</event>
<event>
 6    1  0.2798667E-002  0.6480802E+03  0.7818608E-02  0.9810388E-01
          1   -1    0    0  502    0  0.00000000000E+00  0.00000000000E+00  0.10531567353E+03  0.10531567353E+03  0.00000000000E+00 0.  1.
         13   -1    0    0    0    0 -0.00000000000E+00 -0.00000000000E+00 -0.10000000000E+04  0.10000000000E+04  0.00000000000E+00 0.  1.
    9000005    2    1    2  501    0  0.13163126068E+00 -0.17229586217E+00 -0.89495608446E+03  0.11049680170E+04  0.64808014819E+03 0.  0.
         13    1    3    3    0    0 -0.10518493965E+03  0.16180318723E+03 -0.37120835788E+01  0.19302311388E+03  0.00000000000E+00 0.  1.
          3    1    3    3  501    0  0.10531657091E+03 -0.16197548309E+03 -0.89124400088E+03  0.91194490313E+03  0.00000000000E+00 0.  1.
         21    1    1    2  502  501 -0.13163126068E+00  0.17229586217E+00  0.27175798973E+00  0.34765652286E+00  0.00000000000E+00 0. -1.
<mgrwt>
<rscale>  1 0.64808018E+03</rscale>
<asrwt>0</asrwt>
<pdfrwt beam="1">  1        1 0.38296689E+00 0.64808018E+03</pdfrwt>
<pdfrwt beam="2">0</pdfrwt>
<totfact> 0.15927744E+00</totfact>
</mgrwt>
</event>
<event>
 6    1  0.2798667E-002  0.5485582E+03  0.7818608E-02  0.1001828E+00
          1   -1    0    0  502    0  0.00000000000E+00  0.00000000000E+00  0.75229524703E+02  0.75229524703E+02  0.00000000000E+00 0.  1.
         13   -1    0    0    0    0 -0.00000000000E+00 -0.00000000000E+00 -0.10000000000E+04  0.10000000000E+04  0.00000000000E+00 0.  1.
    9000005    2    1    2  501    0  0.23340601842E-05 -0.46723214410E-04 -0.92477097350E+03  0.10752290243E+04  0.54855820229E+03 0.  0.
         13    1    3    3    0    0  0.32517918379E+02  0.18790062812E+03 -0.84880346459E+03  0.86996056380E+03  0.00000000000E+00 0.  1.
          3    1    3    3  501    0 -0.32517916045E+02 -0.18790067484E+03 -0.75967508903E+02  0.20526846051E+03  0.00000000000E+00 0.  1.
         21    1    1    2  502  501 -0.23340601899E-05  0.46723214412E-04  0.49819955947E-03  0.50039115465E-03  0.00000000000E+00 0. -1.
<mgrwt>
<rscale>  1 0.54855820E+03</rscale>
<asrwt>0</asrwt>
<pdfrwt beam="1">  1        1 0.27356248E+00 0.54855820E+03</pdfrwt>
<pdfrwt beam="2">0</pdfrwt>
<totfact> 0.48418882E+00</totfact>
</mgrwt>
</event>
<event>
 6    1  0.2798667E-002  0.6609270E+03  0.7818608E-02  0.9786489E-01
          1   -1    0    0  502    0  0.00000000000E+00  0.00000000000E+00  0.10920614651E+03  0.10920614651E+03  0.00000000000E+00 0.  1.
         13   -1    0    0    0    0 -0.00000000000E+00 -0.00000000000E+00 -0.10000000000E+04  0.10000000000E+04  0.00000000000E+00 0.  1.
    9000005    2    1    2  501    0  0.27468312851E-05  0.96823595186E-06 -0.89079388339E+03  0.11092061165E+04  0.66092697487E+03 0.  0.
         13    1    3    3    0    0 -0.23451594970E+03  0.22249498429E+03 -0.56050597084E+03  0.64704612822E+03  0.00000000000E+00 0.  1.
          1    1    3    3  501    0  0.23451595245E+03 -0.22249498332E+03 -0.33028791255E+03  0.46215998824E+03  0.00000000000E+00 0.  1.
         21    1    1    2  502  501 -0.27468312831E-05 -0.96823595576E-06  0.29905294731E-04  0.30046783787E-04  0.00000000000E+00 0.  1.
<mgrwt>
<rscale>  1 0.66092697E+03</rscale>
<asrwt>0</asrwt>
<pdfrwt beam="1">  1        1 0.39711410E+00 0.66092697E+03</pdfrwt>
<pdfrwt beam="2">0</pdfrwt>
<totfact> 0.13752338E+00</totfact>
</mgrwt>
</event>
<event>
 6    1  0.2798667E-002  0.6649877E+03  0.7818608E-02  0.9779055E-01
          1   -1    0    0  502    0  0.00000000000E+00  0.00000000000E+00  0.11138145766E+03  0.11138145766E+03  0.00000000000E+00 0.  1.
         13   -1    0    0    0    0 -0.00000000000E+00 -0.00000000000E+00 -0.10000000000E+04  0.10000000000E+04  0.00000000000E+00 0.  1.
    9000005    2    1    2  501    0  0.12276545583E-01 -0.25155912427E-01 -0.88944758346E+03  0.11105519441E+04  0.66498768117E+03 0.  0.
         13    1    3    3    0    0 -0.32472340237E+03  0.25410261741E+02 -0.33322726509E+03  0.46597358256E+03  0.00000000000E+00 0.  1.
          3    1    3    3  501    0  0.32473567891E+03 -0.25435417653E+02 -0.55622031837E+03  0.64457836156E+03  0.00000000000E+00 0.  1.
         21    1    1    2  502  501 -0.12276545583E-01  0.25155912427E-01  0.82904111465E+00  0.82951353412E+00  0.00000000000E+00 0.  1.
<mgrwt>
<rscale>  1 0.66498768E+03</rscale>
<asrwt>0</asrwt>
<pdfrwt beam="1">  1        1 0.40502434E+00 0.66498768E+03</pdfrwt>
<pdfrwt beam="2">0</pdfrwt>
<totfact> 0.12669242E+00</totfact>
</mgrwt>
</event>
<event>
 6    1  0.2798667E-002  0.6544451E+03  0.7818608E-02  0.9798474E-01
          1   -1    0    0  502    0  0.00000000000E+00  0.00000000000E+00  0.10842817081E+03  0.10842817081E+03  0.00000000000E+00 0.  1.
         13   -1    0    0    0    0 -0.00000000000E+00 -0.00000000000E+00 -0.10000000000E+04  0.10000000000E+04  0.00000000000E+00 0.  1.
    9000005    2    1    2  501    0  0.22458395886E-01  0.59084974420E-01 -0.89292459155E+03  0.11070739325E+04  0.65444507931E+03 0.  0.
         13    1    3    3    0    0  0.27755085385E+02  0.30006715557E+03 -0.23064595895E+03  0.37948412483E+03  0.00000000000E+00 0.  1.
          1    1    3    3  501    0 -0.27732626989E+02 -0.30000807060E+03 -0.66227863260E+03  0.72758980767E+03  0.00000000000E+00 0.  1.
         21    1    1    2  502  501 -0.22458395886E-01 -0.59084974420E-01  0.13527623573E+01  0.13542383133E+01  0.00000000000E+00 0.  1.
<mgrwt>
<rscale>  1 0.65444508E+03</rscale>
<asrwt>0</asrwt>
<pdfrwt beam="1">  1        1 0.39428509E+00 0.65444508E+03</pdfrwt>
<pdfrwt beam="2">0</pdfrwt>
<totfact> 0.14173806E+00</totfact>
</mgrwt>
</event>
<event>
 6    1  0.2798667E-002  0.6405359E+03  0.7818608E-02  0.9824702E-01
          1   -1    0    0  502    0  0.00000000000E+00  0.00000000000E+00  0.10257216163E+03  0.10257216163E+03  0.00000000000E+00 0.  1.
         13   -1    0    0    0    0 -0.00000000000E+00 -0.00000000000E+00 -0.10000000000E+04  0.10000000000E+04  0.00000000000E+00 0.  1.
    9000005    2    1    2  501    0  0.68107563948E-04  0.10684760809E-04 -0.89742843624E+03  0.11025715598E+04  0.64053590557E+03 0.  0.
         13    1    3    3    0    0  0.20508311829E+03 -0.16649298193E+03 -0.76042448438E+03  0.80499962415E+03  0.00000000000E+00 0.  1.
          3    1    3    3  501    0 -0.20508305018E+03  0.16649299262E+03 -0.13700395186E+03  0.29757193565E+03  0.00000000000E+00 0.  1.
         21    1    1    2  502  501 -0.68107563938E-04 -0.10684760824E-04  0.59786950916E-03  0.60183116766E-03  0.00000000000E+00 0. -1.
<mgrwt>
<rscale>  1 0.64053591E+03</rscale>
<asrwt>0</asrwt>
<pdfrwt beam="1">  1        1 0.37299047E+00 0.64053591E+03</pdfrwt>
<pdfrwt beam="2">0</pdfrwt>
<totfact> 0.17649465E+00</totfact>
</mgrwt>
</event>
<event>
 6    1  0.2798667E-002  0.6528710E+03  0.7818608E-02  0.9801407E-01
          1   -1    0    0  502    0  0.00000000000E+00  0.00000000000E+00  0.10685769742E+03  0.10685769742E+03  0.00000000000E+00 0.  1.
         13   -1    0    0    0    0 -0.00000000000E+00 -0.00000000000E+00 -0.10000000000E+04  0.10000000000E+04  0.00000000000E+00 0.  1.
    9000005    2    1    2  501    0  0.98435699545E-02 -0.71938116861E-01 -0.89343494811E+03  0.11065561789E+04  0.65287101742E+03 0.  0.
         13    1    3    3    0    0  0.10443031924E+03  0.11959575446E+03  0.36700043191E+02  0.16295928703E+03  0.00000000000E+00 0.  1.
          3    1    3    3  501    0 -0.10442047567E+03 -0.11966769258E+03 -0.93013499130E+03  0.94359689191E+03  0.00000000000E+00 0.  1.
         21    1    1    2  502  501 -0.98435699545E-02  0.71938116861E-01  0.29264552573E+00  0.30151847747E+00  0.00000000000E+00 0. -1.
<mgrwt>
<rscale>  1 0.65287102E+03</rscale>
<asrwt>0</asrwt>
<pdfrwt beam="1">  1        1 0.38857426E+00 0.65287102E+03</pdfrwt>
<pdfrwt beam="2">0</pdfrwt>
<totfact> 0.15029947E+00</totfact>
</mgrwt>
</event>
<event>
 6    1  0.2798667E-002  0.6658417E+03  0.7818608E-02  0.9777499E-01
          1   -1    0    0  502    0  0.00000000000E+00  0.00000000000E+00  0.11140948530E+03  0.11140948530E+03  0.00000000000E+00 0.  1.
         13   -1    0    0    0    0 -0.00000000000E+00 -0.00000000000E+00 -0.10000000000E+04  0.10000000000E+04  0.00000000000E+00 0.  1.
    9000005    2    1    2  501    0 -0.29133087835E+00 -0.33131110261E+00 -0.88906780631E+03  0.11107595253E+04  0.66584154585E+03 0.  0.
         13    1    3    3    0    0  0.30901185639E+03 -0.96776075536E+02 -0.57281825288E+03  0.65800812078E+03  0.00000000000E+00 0.  1.
          3    1    3    3  501    0 -0.30930318727E+03  0.96444764434E+02 -0.31624955343E+03  0.45275140451E+03  0.00000000000E+00 0.  1.
         21    1    1    2  502  501  0.29133087835E+00  0.33131110261E+00  0.47729160781E+00  0.64996000360E+00  0.00000000000E+00 0.  1.
<mgrwt>
<rscale>  1 0.66584169E+03</rscale>
<asrwt>0</asrwt>
<pdfrwt beam="1">  1        1 0.40512626E+00 0.66584169E+03</pdfrwt>
<pdfrwt beam="2">0</pdfrwt>
<totfact> 0.12653918E+00</totfact>
</mgrwt>
</event>
<event>
 6    1  0.2798667E-002  0.6469453E+03  0.7818608E-02  0.9812528E-01
          1   -1    0    0  502    0  0.00000000000E+00  0.00000000000E+00  0.10470346926E+03  0.10470346926E+03  0.00000000000E+00 0.  1.
         13   -1    0    0    0    0 -0.00000000000E+00 -0.00000000000E+00 -0.10000000000E+04  0.10000000000E+04  0.00000000000E+00 0.  1.
    9000005    2    1    2  501    0 -0.26113292026E-02  0.28389013174E-03 -0.89536541578E+03  0.11046345342E+04  0.64694530394E+03 0.  0.
         13    1    3    3    0    0  0.10488397178E+03  0.14930315292E+02 -0.96953661960E+03  0.97530755078E+03  0.00000000000E+00 0.  1.
          3    1    3    3  501    0 -0.10488658311E+03 -0.14930031402E+02  0.74171203828E+02  0.12932698338E+03  0.00000000000E+00 0.  1.
         21    1    1    2  502  501  0.26113292026E-02 -0.28389013174E-03  0.68885041042E-01  0.68935103635E-01  0.00000000000E+00 0. -1.
<mgrwt>
<rscale>  1 0.64694530E+03</rscale>
<asrwt>0</asrwt>
<pdfrwt beam="1">  1        1 0.38074069E+00 0.64694530E+03</pdfrwt>
<pdfrwt beam="2">0</pdfrwt>
<totfact> 0.16295827E+00</totfact>
</mgrwt>
</event>
<event>
 6    1  0.2798667E-002  0.6620332E+03  0.7818608E-02  0.9784458E-01
          1   -1    0    0  502    0  0.00000000000E+00  0.00000000000E+00  0.10959747535E+03  0.10959747535E+03  0.00000000000E+00 0.  1.
         13   -1    0    0    0    0 -0.00000000000E+00 -0.00000000000E+00 -0.10000000000E+04  0.10000000000E+04  0.00000000000E+00 0.  1.
    9000005    2    1    2  501    0 -0.70682727017E-03 -0.25728086703E-03 -0.89042800972E+03  0.11095719792E+04  0.66203318383E+03 0.  0.
         13    1    3    3    0    0  0.58537874404E+02 -0.80383923518E+02 -0.97437493884E+03  0.97943594959E+03  0.00000000000E+00 0.  1.
          3    1    3    3  501    0 -0.58538581232E+02  0.80383666237E+02  0.83946929120E+02  0.13013602960E+03  0.00000000000E+00 0.  1.
         21    1    1    2  502  501  0.70682727017E-03  0.25728086703E-03  0.25485072327E-01  0.25496170492E-01  0.00000000000E+00 0.  1.
<mgrwt>
<rscale>  1 0.66203318E+03</rscale>
<asrwt>0</asrwt>
<pdfrwt beam="1">  1        1 0.39853711E+00 0.66203318E+03</pdfrwt>
<pdfrwt beam="2">0</pdfrwt>
<totfact> 0.13550301E+00</totfact>
</mgrwt>
</event>
<event>
 6    1  0.2798667E-002  0.6665499E+03  0.7818608E-02  0.9776211E-01
          1   -1    0    0  502    0  0.00000000000E+00  0.00000000000E+00  0.11107223876E+03  0.11107223876E+03  0.00000000000E+00 0.  1.
         13   -1    0    0    0    0 -0.00000000000E+00 -0.00000000000E+00 -0.10000000000E+04  0.10000000000E+04  0.00000000000E+00 0.  1.
    9000005    2    1    2  501    0 -0.88021633076E-05 -0.63044219019E-05 -0.88892779497E+03  0.11110722033E+04  0.66654993539E+03 0.  0.
         13    1    3    3    0    0  0.19023786288E+03 -0.26832319736E+03 -0.53398778773E+03  0.62716085669E+03  0.00000000000E+00 0.  1.
          1    1    3    3  501    0 -0.19023787168E+03  0.26832319106E+03 -0.35494000723E+03  0.48391134665E+03  0.00000000000E+00 0.  1.
         21    1    1    2  502  501  0.88021633097E-05  0.63044219100E-05  0.33722492445E-04  0.35417937705E-04  0.00000000000E+00 0. -1.
<mgrwt>
<rscale>  1 0.66654994E+03</rscale>
<asrwt>0</asrwt>
<pdfrwt beam="1">  1        1 0.40389990E+00 0.66654994E+03</pdfrwt>
<pdfrwt beam="2">0</pdfrwt>
<totfact> 0.12812982E+00</totfact>
</mgrwt>
</event>
<event>
 6    1  0.2798668E-002  0.6461012E+03  0.7818608E-02  0.9814123E-01
          1   -1    0    0  502    0  0.00000000000E+00  0.00000000000E+00  0.10436170561E+03  0.10436170561E+03  0.00000000000E+00 0.  1.
         13   -1    0    0    0    0 -0.00000000000E+00 -0.00000000000E+00 -0.10000000000E+04  0.10000000000E+04  0.00000000000E+00 0.  1.
    9000005    2    1    2  501    0  0.89345377319E-07  0.44827197598E-06 -0.89563829502E+03  0.11043617048E+04  0.64610124561E+03 0.  0.
         13    1    3    3    0    0  0.85949298833E+02  0.17932377748E+03 -0.12651517615E+02  0.19925952936E+03  0.00000000000E+00 0.  1.
          1    1    3    3  501    0 -0.85949298744E+02 -0.17932377704E+03 -0.88298677741E+03  0.90510217547E+03  0.00000000000E+00 0.  1.
         21    1    1    2  502  501 -0.89345364548E-07 -0.44827199389E-06  0.63030528008E-06  0.77859817670E-06  0.00000000000E+00 0.  1.
<mgrwt>
<rscale>  1 0.64610125E+03</rscale>
<asrwt>0</asrwt>
<pdfrwt beam="1">  1        1 0.37949791E+00 0.64610125E+03</pdfrwt>
<pdfrwt beam="2">0</pdfrwt>
<totfact> 0.16505457E+00</totfact>
</mgrwt>
</event>
<event>
 6    1  0.2798667E-002  0.6458286E+03  0.7818608E-02  0.9814638E-01
          1   -1    0    0  502    0  0.00000000000E+00  0.00000000000E+00  0.10990010249E+03  0.10990010249E+03  0.00000000000E+00 0.  1.
         13   -1    0    0    0    0 -0.00000000000E+00 -0.00000000000E+00 -0.10000000000E+04  0.10000000000E+04  0.00000000000E+00 0.  1.
    9000005    2    1    2  501    0 -0.32622370025E+01  0.88632580338E+01 -0.89096607366E+03  0.11004159160E+04  0.64575958694E+03 0.  0.
         13    1    3    3    0    0  0.48324253185E+02 -0.21004627326E+03 -0.84344035788E+03  0.87054368509E+03  0.00000000000E+00 0.  1.
          1    1    3    3  501    0 -0.51586490188E+02  0.21890953129E+03 -0.47525715785E+02  0.22987223086E+03  0.00000000000E+00 0.  1.
         21    1    1    2  502  501  0.32622370025E+01 -0.88632580338E+01  0.86617615577E+00  0.94841865422E+01  0.00000000000E+00 0.  1.
<mgrwt>
<rscale>  1 0.64582865E+03</rscale>
<asrwt>0</asrwt>
<pdfrwt beam="1">  1        1 0.39963758E+00 0.64582865E+03</pdfrwt>
<pdfrwt beam="2">0</pdfrwt>
<totfact> 0.13439268E+00</totfact>
</mgrwt>
</event>
<event>
 6    1  0.2798667E-002  0.6463196E+03  0.7818608E-02  0.9813710E-01
          1   -1    0    0  502    0  0.00000000000E+00  0.00000000000E+00  0.10443227117E+03  0.10443227117E+03  0.00000000000E+00 0.  1.
         13   -1    0    0    0    0 -0.00000000000E+00 -0.00000000000E+00 -0.10000000000E+04  0.10000000000E+04  0.00000000000E+00 0.  1.
    9000005    2    1    2  501    0 -0.51999336392E-06 -0.35864302390E-05 -0.89556773644E+03  0.11044322627E+04  0.64631962096E+03 0.  0.
         13    1    3    3    0    0  0.27848023278E+03  0.15905847133E+03 -0.51573802701E+03  0.60731914992E+03  0.00000000000E+00 0.  1.
          3    1    3    3  501    0 -0.27848023330E+03 -0.15905847492E+03 -0.37982970943E+03  0.49711311282E+03  0.00000000000E+00 0.  1.
         21    1    1    2  502  501  0.51999335249E-06  0.35864302349E-05  0.76115629659E-05  0.84302292792E-05  0.00000000000E+00 0.  1.
<mgrwt>
<rscale>  1 0.64631962E+03</rscale>
<asrwt>0</asrwt>
<pdfrwt beam="1">  1        1 0.37975451E+00 0.64631962E+03</pdfrwt>
<pdfrwt beam="2">0</pdfrwt>
<totfact> 0.16461831E+00</totfact>
</mgrwt>
</event>
<event>
 6    1  0.2798667E-002  0.6519547E+03  0.7818608E-02  0.9803118E-01
          1   -1    0    0  502    0  0.00000000000E+00  0.00000000000E+00  0.10626235624E+03  0.10626235624E+03  0.00000000000E+00 0.  1.
         13   -1    0    0    0    0 -0.00000000000E+00 -0.00000000000E+00 -0.10000000000E+04  0.10000000000E+04  0.00000000000E+00 0.  1.
    9000005    2    1    2  501    0  0.73700745575E-03  0.42830923803E-04 -0.89373862344E+03  0.11062611295E+04  0.65195472213E+03 0.  0.
         13    1    3    3    0    0  0.78808619492E+02  0.27728739362E+03 -0.18862545848E+03  0.34449769339E+03  0.00000000000E+00 0.  1.
          3    1    3    3  501    0 -0.78807882485E+02 -0.27728735079E+03 -0.70511316496E+03  0.76176343615E+03  0.00000000000E+00 0.  1.
         21    1    1    2  502  501 -0.73700745576E-03 -0.42830923768E-04  0.97967533971E-03  0.12266940324E-02  0.00000000000E+00 0. -1.
<mgrwt>
<rscale>  1 0.65195472E+03</rscale>
<asrwt>0</asrwt>
<pdfrwt beam="1">  1        1 0.38640938E+00 0.65195472E+03</pdfrwt>
<pdfrwt beam="2">0</pdfrwt>
<totfact> 0.15368063E+00</totfact>
</mgrwt>
</event>
<event>
 6    1  0.2798667E-002  0.6319675E+03  0.7818608E-02  0.9841217E-01
          1   -1    0    0  502    0  0.00000000000E+00  0.00000000000E+00  0.99845784611E+02  0.99845784611E+02  0.00000000000E+00 0.  1.
         13   -1    0    0    0    0 -0.00000000000E+00 -0.00000000000E+00 -0.10000000000E+04  0.10000000000E+04  0.00000000000E+00 0.  1.
    9000005    2    1    2  501    0  0.20663901239E-04 -0.21694055652E-04 -0.90015427905E+03  0.10998457143E+04  0.63196745887E+03 0.  0.
         13    1    3    3    0    0  0.27872815767E+03  0.49037687356E+01 -0.19116631593E+03  0.33802069933E+03  0.00000000000E+00 0.  1.
          1    1    3    3  501    0 -0.27872813701E+03 -0.49037904296E+01 -0.70898796312E+03  0.76182501492E+03  0.00000000000E+00 0.  1.
         21    1    1    2  502  501 -0.20663901251E-04  0.21694055652E-04  0.63660731081E-04  0.70358493071E-04  0.00000000000E+00 0. -1.
<mgrwt>
<rscale>  1 0.63196746E+03</rscale>
<asrwt>0</asrwt>
<pdfrwt beam="1">  1        1 0.36307635E+00 0.63196746E+03</pdfrwt>
<pdfrwt beam="2">0</pdfrwt>
<totfact> 0.19539465E+00</totfact>
</mgrwt>
</event>
<event>
 6    1  0.2798667E-002  0.6474292E+03  0.7818608E-02  0.9811615E-01
          1   -1    0    0  502    0  0.00000000000E+00  0.00000000000E+00  0.11558119137E+03  0.11558119137E+03  0.00000000000E+00 0.  1.
         13   -1    0    0    0    0 -0.00000000000E+00 -0.00000000000E+00 -0.10000000000E+04  0.10000000000E+04  0.00000000000E+00 0.  1.
    9000005    2    1    2  501    0 -0.13093872632E+00 -0.87328186645E+00 -0.89518889265E+03  0.11047749674E+04  0.64742860251E+03 0.  0.
         13    1    3    3    0    0 -0.25596319428E+03 -0.19532913641E+03 -0.38593148872E+03  0.50260694618E+03  0.00000000000E+00 0.  1.
          1    1    3    3  501    0  0.25583225556E+03  0.19445585454E+03 -0.50925740393E+03  0.60216802124E+03  0.00000000000E+00 0.  1.
         21    1    1    2  502  501  0.13093872632E+00  0.87328186645E+00  0.10770084024E+02  0.10806223949E+02  0.00000000000E+00 0.  1.
<mgrwt>
<rscale>  1 0.64742920E+03</rscale>
<asrwt>0</asrwt>
<pdfrwt beam="1">  1        1 0.42029613E+00 0.64742920E+03</pdfrwt>
<pdfrwt beam="2">0</pdfrwt>
<totfact> 0.10855300E+00</totfact>
</mgrwt>
</event>
