<event>
 6    1  0.8377077E-003  0.6541458E+03  0.7818608E-02  0.9799031E-01
          1   -1    0    0  502    0  0.00000000000E+00  0.00000000000E+00  0.10703473691E+03  0.10703473691E+03  0.00000000000E+00 0.  1.
         13   -1    0    0    0    0 -0.00000000000E+00 -0.00000000000E+00 -0.10000000000E+04  0.10000000000E+04  0.00000000000E+00 0.  1.
    9000005    2    1    2  501    0  0.16380757563E-02  0.37431483548E-03 -0.89302330973E+03  0.11069766660E+04  0.65414578439E+03 0.  0.
         13    1    3    3    0    0  0.22033213796E+01  0.31781199286E+03 -0.31578666202E+03  0.44802961212E+03  0.00000000000E+00 0.  1.
          1    1    3    3  501    0 -0.22016833039E+01 -0.31781161854E+03 -0.57723664771E+03  0.65894705383E+03  0.00000000000E+00 0.  1.
         21    1    1    2  502  501 -0.16380757563E-02 -0.37431483552E-03  0.58046637462E-01  0.58070952502E-01  0.00000000000E+00 0.  1.
<mgrwt>
<rscale>  1 0.65414578E+03</rscale>
<asrwt>0</asrwt>
<pdfrwt beam="1">  1        1 0.38921805E+00 0.65414578E+03</pdfrwt>
<pdfrwt beam="2">0</pdfrwt>
<totfact> 0.14927996E+00</totfact>
</mgrwt>
</event>
<event>
 6    1  0.8377077E-003  0.6586259E+03  0.7818608E-02  0.9790727E-01
          1   -1    0    0  502    0  0.00000000000E+00  0.00000000000E+00  0.10844709190E+03  0.10844709190E+03  0.00000000000E+00 0.  1.
         13   -1    0    0    0    0 -0.00000000000E+00 -0.00000000000E+00 -0.10000000000E+04  0.10000000000E+04  0.00000000000E+00 0.  1.
    9000005    2    1    2  501    0  0.23369312942E-04 -0.27301532953E-04 -0.89155296116E+03  0.11084470278E+04  0.65862594158E+03 0.  0.
         13    1    3    3    0    0 -0.16776930979E+03 -0.21113239278E+03 -0.76386922363E+03  0.81007383577E+03  0.00000000000E+00 0.  1.
          3    1    3    3  501    0  0.16776933316E+03  0.21113236548E+03 -0.12768373752E+03  0.29837319204E+03  0.00000000000E+00 0.  1.
         21    1    1    2  502  501 -0.23369312940E-04  0.27301532962E-04  0.53054239375E-04  0.64080034372E-04  0.00000000000E+00 0. -1.
<mgrwt>
<rscale>  1 0.65862594E+03</rscale>
<asrwt>0</asrwt>
<pdfrwt beam="1">  1        1 0.39435389E+00 0.65862594E+03</pdfrwt>
<pdfrwt beam="2">0</pdfrwt>
<totfact> 0.14152785E+00</totfact>
</mgrwt>
</event>
<event>
 6    1  0.8377077E-003  0.6455330E+03  0.7818608E-02  0.9815197E-01
          1   -1    0    0  502    0  0.00000000000E+00  0.00000000000E+00  0.11325986745E+03  0.11325986745E+03  0.00000000000E+00 0.  1.
         13   -1    0    0    0    0 -0.00000000000E+00 -0.00000000000E+00 -0.10000000000E+04  0.10000000000E+04  0.00000000000E+00 0.  1.
    9000005    2    1    2  501    0  0.44869224638E+01  0.61569618685E+01 -0.89402368042E+03  0.11027199091E+04  0.64548804490E+03 0.  0.
         13    1    3    3    0    0 -0.81751014722E+02 -0.30820285183E+03 -0.41645742008E+03  0.52450834981E+03  0.00000000000E+00 0.  1.
          3    1    3    3  501    0  0.86237937186E+02  0.31435981369E+03 -0.47756626034E+03  0.57821155928E+03  0.00000000000E+00 0.  1.
         21    1    1    2  502  501 -0.44869224638E+01 -0.61569618685E+01  0.72835478709E+01  0.10539958360E+02  0.00000000000E+00 0.  1.
<mgrwt>
<rscale>  1 0.64553300E+03</rscale>
<asrwt>0</asrwt>
<pdfrwt beam="1">  1        1 0.41185493E+00 0.64553300E+03</pdfrwt>
<pdfrwt beam="2">0</pdfrwt>
<totfact> 0.11851600E+00</totfact>
</mgrwt>
</event>
<event>
 6    1  0.8377077E-003  0.6519997E+03  0.7818608E-02  0.9803034E-01
          1   -1    0    0  502    0  0.00000000000E+00  0.00000000000E+00  0.10627592800E+03  0.10627592800E+03  0.00000000000E+00 0.  1.
         13   -1    0    0    0    0 -0.00000000000E+00 -0.00000000000E+00 -0.10000000000E+04  0.10000000000E+04  0.00000000000E+00 0.  1.
    9000005    2    1    2  501    0 -0.61060275129E-05  0.69918066856E-05 -0.89372408376E+03  0.11062759130E+04  0.65199973759E+03 0.  0.
         13    1    3    3    0    0  0.20602592524E+03 -0.19201918090E+03 -0.72544770807E+03  0.77819819124E+03  0.00000000000E+00 0.  1.
          1    1    3    3  501    0 -0.20602593135E+03  0.19201918790E+03 -0.16827637569E+03  0.32807772178E+03  0.00000000000E+00 0.  1.
         21    1    1    2  502  501  0.61060275270E-05 -0.69918067008E-05  0.11766309653E-04  0.14987160370E-04  0.00000000000E+00 0.  1.
<mgrwt>
<rscale>  1 0.65199974E+03</rscale>
<asrwt>0</asrwt>
<pdfrwt beam="1">  1        1 0.38645873E+00 0.65199974E+03</pdfrwt>
<pdfrwt beam="2">0</pdfrwt>
<totfact> 0.15360207E+00</totfact>
</mgrwt>
</event>
<event>
 6    1  0.8377077E-003  0.6537922E+03  0.7818608E-02  0.9799689E-01
          1   -1    0    0  502    0  0.00000000000E+00  0.00000000000E+00  0.10686111984E+03  0.10686111984E+03  0.00000000000E+00 0.  1.
         13   -1    0    0    0    0 -0.00000000000E+00 -0.00000000000E+00 -0.10000000000E+04  0.10000000000E+04  0.00000000000E+00 0.  1.
    9000005    2    1    2  501    0 -0.10984860978E-04  0.26941245324E-05 -0.89313892596E+03  0.11068610727E+04  0.65379224002E+03 0.  0.
         13    1    3    3    0    0  0.16578183302E+03  0.19878153013E+03 -0.78458782660E+03  0.82618143923E+03  0.00000000000E+00 0.  1.
          3    1    3    3  501    0 -0.16578184400E+03 -0.19878152744E+03 -0.10855109936E+03  0.28067963344E+03  0.00000000000E+00 0.  1.
         21    1    1    2  502  501  0.10984860985E-04 -0.26941245092E-05  0.45796481335E-04  0.47172483297E-04  0.00000000000E+00 0. -1.
<mgrwt>
<rscale>  1 0.65379224E+03</rscale>
<asrwt>0</asrwt>
<pdfrwt beam="1">  1        1 0.38858671E+00 0.65379224E+03</pdfrwt>
<pdfrwt beam="2">0</pdfrwt>
<totfact> 0.15025474E+00</totfact>
</mgrwt>
</event>
<event>
 6    1  0.1274241E-002  0.5341541E+03  0.7818608E-02  0.1005230E+00
          1   -1    0    0  502    0  0.00000000000E+00  0.00000000000E+00  0.71330155238E+02  0.71330155238E+02  0.00000000000E+00 0.  1.
         13   -1    0    0    0    0 -0.00000000000E+00 -0.00000000000E+00 -0.10000000000E+04  0.10000000000E+04  0.00000000000E+00 0.  1.
    9000005    2    1    2  501    0  0.43465474420E-05  0.17251264524E-05 -0.92866984529E+03  0.10713301505E+04  0.53415410687E+03 0.  0.
         13    1    3    3    0    0 -0.50038533278E+02  0.19325431487E+03 -0.82018550912E+03  0.84412993929E+03  0.00000000000E+00 0.  1.
          3    1    3    3  501    0  0.50038537625E+02 -0.19325431314E+03 -0.10848433617E+03  0.22720021125E+03  0.00000000000E+00 0.  1.
         21    1    1    2  502  501 -0.43465474456E-05 -0.17251264468E-05  0.52842846839E-06  0.47061420081E-05  0.00000000000E+00 0. -1.
<mgrwt>
<rscale>  1 0.53415411E+03</rscale>
<asrwt>0</asrwt>
<pdfrwt beam="1">  1        1 0.25938293E+00 0.53415411E+03</pdfrwt>
<pdfrwt beam="2">0</pdfrwt>
<totfact> 0.55904928E+00</totfact>
</mgrwt>
</event>
<event>
 6    1  0.8377077E-003  0.6534693E+03  0.7818608E-02  0.9800291E-01
          1   -1    0    0  502    0  0.00000000000E+00  0.00000000000E+00  0.10679551724E+03  0.10679551724E+03  0.00000000000E+00 0.  1.
         13   -1    0    0    0    0 -0.00000000000E+00 -0.00000000000E+00 -0.10000000000E+04  0.10000000000E+04  0.00000000000E+00 0.  1.
    9000005    2    1    2  501    0 -0.61202272633E-03 -0.18885860982E-03 -0.89324446835E+03  0.11067555265E+04  0.65346929173E+03 0.  0.
         13    1    3    3    0    0 -0.12878305024E+03 -0.22452313731E+03 -0.78433671601E+03  0.82594176387E+03  0.00000000000E+00 0.  1.
          3    1    3    3  501    0  0.12878243822E+03  0.22452294845E+03 -0.10890775234E+03  0.28081376265E+03  0.00000000000E+00 0.  1.
         21    1    1    2  502  501  0.61202272634E-03  0.18885860981E-03  0.39985595763E-01  0.39990725273E-01  0.00000000000E+00 0.  1.
<mgrwt>
<rscale>  1 0.65346929E+03</rscale>
<asrwt>0</asrwt>
<pdfrwt beam="1">  1        1 0.38834815E+00 0.65346929E+03</pdfrwt>
<pdfrwt beam="2">0</pdfrwt>
<totfact> 0.15062992E+00</totfact>
</mgrwt>
</event>
<event>
 6    1  0.8377077E-003  0.6304757E+03  0.7818608E-02  0.9844121E-01
          1   -1    0    0  502    0  0.00000000000E+00  0.00000000000E+00  0.99374918304E+02  0.99374918304E+02  0.00000000000E+00 0.  1.
         13   -1    0    0    0    0 -0.00000000000E+00 -0.00000000000E+00 -0.10000000000E+04  0.10000000000E+04  0.00000000000E+00 0.  1.
    9000005    2    1    2  501    0  0.83985606807E-05  0.39242243020E-05 -0.90062508801E+03  0.10993749071E+04  0.63047572290E+03 0.  0.
         13    1    3    3    0    0  0.14110287244E+03 -0.21482547872E+03 -0.13204179552E+03  0.28895508765E+03  0.00000000000E+00 0.  1.
          3    1    3    3  501    0 -0.14110286404E+03  0.21482548264E+03 -0.76858329250E+03  0.81041981944E+03  0.00000000000E+00 0.  1.
         21    1    1    2  502  501 -0.83985606713E-05 -0.39242242983E-05  0.63174611157E-05  0.11218095767E-04  0.00000000000E+00 0.  1.
<mgrwt>
<rscale>  1 0.63047572E+03</rscale>
<asrwt>0</asrwt>
<pdfrwt beam="1">  1        1 0.36136410E+00 0.63047572E+03</pdfrwt>
<pdfrwt beam="2">0</pdfrwt>
<totfact> 0.19884969E+00</totfact>
</mgrwt>
</event>
<event>
 6    1  0.8377077E-003  0.6664343E+03  0.7818608E-02  0.9776421E-01
          1   -1    0    0  502    0  0.00000000000E+00  0.00000000000E+00  0.11232635034E+03  0.11232635034E+03  0.00000000000E+00 0.  1.
         13   -1    0    0    0    0 -0.00000000000E+00 -0.00000000000E+00 -0.10000000000E+04  0.10000000000E+04  0.00000000000E+00 0.  1.
    9000005    2    1    2  501    0 -0.16117860635E+00 -0.73545324050E-01 -0.88895959307E+03  0.11110282602E+04  0.66643424699E+03 0.  0.
         13    1    3    3    0    0 -0.47142784050E+02 -0.28384519978E+03 -0.72484948776E+03  0.77987006573E+03  0.00000000000E+00 0.  1.
          3    1    3    3  501    0  0.46981605443E+02  0.28377165446E+03 -0.16411010531E+03  0.33115819451E+03  0.00000000000E+00 0.  1.
         21    1    1    2  502  501  0.16117860635E+00  0.73545324050E-01  0.12859434080E+01  0.12980900995E+01  0.00000000000E+00 0. -1.
<mgrwt>
<rscale>  1 0.66643427E+03</rscale>
<asrwt>0</asrwt>
<pdfrwt beam="1">  1        1 0.40846032E+00 0.66643427E+03</pdfrwt>
<pdfrwt beam="2">0</pdfrwt>
<totfact> 0.12225048E+00</totfact>
</mgrwt>
</event>
<event>
 6    1  0.8377077E-003  0.6454782E+03  0.7818608E-02  0.9815301E-01
          1   -1    0    0  502    0  0.00000000000E+00  0.00000000000E+00  0.11751171487E+03  0.11751171487E+03  0.00000000000E+00 0.  1.
         13   -1    0    0    0    0 -0.00000000000E+00 -0.00000000000E+00 -0.10000000000E+04  0.10000000000E+04  0.00000000000E+00 0.  1.
    9000005    2    1    2  501    0  0.81298509913E+00 -0.41897549563E+00 -0.89582216741E+03  0.11041465025E+04  0.64547758044E+03 0.  0.
         13    1    3    3    0    0 -0.22924256530E+02 -0.32071883275E+03 -0.49918484641E+03  0.59377740114E+03  0.00000000000E+00 0.  1.
          3    1    3    3  501    0  0.23737241629E+02  0.32029985726E+03 -0.39663732100E+03  0.51036910135E+03  0.00000000000E+00 0.  1.
         21    1    1    2  502  501 -0.81298509913E+00  0.41897549563E+00  0.13333882284E+02  0.13365212382E+02  0.00000000000E+00 0.  1.
<mgrwt>
<rscale>  1 0.64547823E+03</rscale>
<asrwt>0</asrwt>
<pdfrwt beam="1">  1        1 0.42731623E+00 0.64547823E+03</pdfrwt>
<pdfrwt beam="2">0</pdfrwt>
<totfact> 0.10094332E+00</totfact>
</mgrwt>
</event>
<event>
 6    1  0.8377077E-003  0.6604097E+03  0.7818608E-02  0.9787440E-01
          1   -1    0    0  502    0  0.00000000000E+00  0.00000000000E+00  0.10903529576E+03  0.10903529576E+03  0.00000000000E+00 0.  1.
         13   -1    0    0    0    0 -0.00000000000E+00 -0.00000000000E+00 -0.10000000000E+04  0.10000000000E+04  0.00000000000E+00 0.  1.
    9000005    2    1    2  501    0  0.21164616292E-04  0.48374050465E-04 -0.89096474642E+03  0.11090352282E+04  0.66040968950E+03 0.  0.
         13    1    3    3    0    0 -0.45605676804E+02 -0.14906900363E+03  0.43350298677E+02  0.16180449312E+03  0.00000000000E+00 0.  1.
          1    1    3    3  501    0  0.45605697968E+02  0.14906905200E+03 -0.93431504509E+03  0.94723073506E+03  0.00000000000E+00 0.  1.
         21    1    1    2  502  501 -0.21164616287E-04 -0.48374050448E-04  0.42177727636E-04  0.67579216094E-04  0.00000000000E+00 0.  1.
<mgrwt>
<rscale>  1 0.66040969E+03</rscale>
<asrwt>0</asrwt>
<pdfrwt beam="1">  1        1 0.39649282E+00 0.66040969E+03</pdfrwt>
<pdfrwt beam="2">0</pdfrwt>
<totfact> 0.13841524E+00</totfact>
</mgrwt>
</event>
<event>
 6    1  0.8377077E-003  0.5653336E+03  0.7818608E-02  0.9980058E-01
          1   -1    0    0  502    0  0.00000000000E+00  0.00000000000E+00  0.80295137003E+02  0.80295137003E+02  0.00000000000E+00 0.  1.
         13   -1    0    0    0    0 -0.00000000000E+00 -0.00000000000E+00 -0.10000000000E+04  0.10000000000E+04  0.00000000000E+00 0.  1.
    9000005    2    1    2  501    0  0.22662574867E-02  0.47327573105E-01 -0.92009794721E+03  0.10798992074E+04  0.56533358603E+03 0.  0.
         13    1    3    3    0    0 -0.36692311475E+02 -0.21422793371E+03 -0.11485798273E+03  0.24582979783E+03  0.00000000000E+00 0.  1.
          3    1    3    3  501    0  0.36694577733E+02  0.21427526128E+03 -0.80523996447E+03  0.83406940959E+03  0.00000000000E+00 0.  1.
         21    1    1    2  502  501 -0.22662574867E-02 -0.47327573105E-01  0.39308421093E+00  0.39592957957E+00  0.00000000000E+00 0. -1.
<mgrwt>
<rscale>  1 0.56533359E+03</rscale>
<asrwt>0</asrwt>
<pdfrwt beam="1">  1        1 0.29198293E+00 0.56533359E+03</pdfrwt>
<pdfrwt beam="2">0</pdfrwt>
<totfact> 0.40202010E+00</totfact>
</mgrwt>
</event>
<event>
 6    1  0.8377077E-003  0.6503980E+03  0.7818608E-02  0.9806033E-01
          1   -1    0    0  502    0  0.00000000000E+00  0.00000000000E+00  0.10575745732E+03  0.10575745732E+03  0.00000000000E+00 0.  1.
         13   -1    0    0    0    0 -0.00000000000E+00 -0.00000000000E+00 -0.10000000000E+04  0.10000000000E+04  0.00000000000E+00 0.  1.
    9000005    2    1    2  501    0 -0.41556797558E-02  0.11279876296E-02 -0.89424384162E+03  0.11057529596E+04  0.65039800078E+03 0.  0.
         13    1    3    3    0    0  0.19443099560E+03  0.14983880714E+03 -0.84478431590E+02  0.25959908625E+03  0.00000000000E+00 0.  1.
          1    1    3    3  501    0 -0.19443515128E+03 -0.14983767916E+03 -0.80976541003E+03  0.84615387338E+03  0.00000000000E+00 0.  1.
         21    1    1    2  502  501  0.41556797558E-02 -0.11279876296E-02  0.12989422979E-02  0.44976973463E-02  0.00000000000E+00 0. -1.
<mgrwt>
<rscale>  1 0.65039800E+03</rscale>
<asrwt>0</asrwt>
<pdfrwt beam="1">  1        1 0.38457338E+00 0.65039800E+03</pdfrwt>
<pdfrwt beam="2">0</pdfrwt>
<totfact> 0.15662719E+00</totfact>
</mgrwt>
</event>
<event>
 6    1  0.8377077E-003  0.6408495E+03  0.7818608E-02  0.9824103E-01
          1   -1    0    0  502    0  0.00000000000E+00  0.00000000000E+00  0.10267250241E+03  0.10267250241E+03  0.00000000000E+00 0.  1.
         13   -1    0    0    0    0 -0.00000000000E+00 -0.00000000000E+00 -0.10000000000E+04  0.10000000000E+04  0.00000000000E+00 0.  1.
    9000005    2    1    2  501    0 -0.25210280796E-05  0.11695304465E-04 -0.89732797408E+03  0.11026720258E+04  0.64084951693E+03 0.  0.
         13    1    3    3    0    0  0.18640119025E+03  0.25123086568E+03 -0.56799360711E+03  0.64844358993E+03  0.00000000000E+00 0.  1.
          3    1    3    3  501    0 -0.18640119278E+03 -0.25123085399E+03 -0.32933436697E+03  0.45422843584E+03  0.00000000000E+00 0.  1.
         21    1    1    2  502  501  0.25210280789E-05 -0.11695304456E-04  0.47649177367E-03  0.47664194749E-03  0.00000000000E+00 0.  1.
<mgrwt>
<rscale>  1 0.64084952E+03</rscale>
<asrwt>0</asrwt>
<pdfrwt beam="1">  1        1 0.37335534E+00 0.64084952E+03</pdfrwt>
<pdfrwt beam="2">0</pdfrwt>
<totfact> 0.17583361E+00</totfact>
</mgrwt>
</event>
<event>
 6    1  0.8377077E-003  0.6561154E+03  0.7818608E-02  0.9795371E-01
          1   -1    0    0  502    0  0.00000000000E+00  0.00000000000E+00  0.10789395036E+03  0.10789395036E+03  0.00000000000E+00 0.  1.
         13   -1    0    0    0    0 -0.00000000000E+00 -0.00000000000E+00 -0.10000000000E+04  0.10000000000E+04  0.00000000000E+00 0.  1.
    9000005    2    1    2  501    0 -0.32580523302E+00 -0.25624796517E+00 -0.89219077539E+03  0.11074708776E+04  0.65611522870E+03 0.  0.
         13    1    3    3    0    0  0.11259516859E+03  0.30781378594E+03 -0.43083160985E+03  0.54133434664E+03  0.00000000000E+00 0.  1.
          1    1    3    3  501    0 -0.11292097382E+03 -0.30807003390E+03 -0.46135916554E+03  0.56613653101E+03  0.00000000000E+00 0.  1.
         21    1    1    2  502  501  0.32580523302E+00  0.25624796517E+00  0.84725747735E-01  0.42307271461E+00  0.00000000000E+00 0.  1.
<mgrwt>
<rscale>  1 0.65611536E+03</rscale>
<asrwt>0</asrwt>
<pdfrwt beam="1">  1        1 0.39234247E+00 0.65611536E+03</pdfrwt>
<pdfrwt beam="2">0</pdfrwt>
<totfact> 0.14453765E+00</totfact>
</mgrwt>
</event>
<event>
 6    1  0.8377077E-003  0.6603540E+03  0.7818608E-02  0.9787542E-01
          1   -1    0    0  502    0  0.00000000000E+00  0.00000000000E+00  0.10923751905E+03  0.10923751905E+03  0.00000000000E+00 0.  1.
         13   -1    0    0    0    0 -0.00000000000E+00 -0.00000000000E+00 -0.10000000000E+04  0.10000000000E+04  0.00000000000E+00 0.  1.
    9000005    2    1    2  501    0  0.16753486136E-01  0.41825951882E-02 -0.89098276083E+03  0.11090165634E+04  0.66035403952E+03 0.  0.
         13    1    3    3    0    0  0.16410290268E+03 -0.28418959026E+03 -0.50662523771E+03  0.60362456656E+03  0.00000000000E+00 0.  1.
          1    1    3    3  501    0 -0.16408614919E+03  0.28419377286E+03 -0.38435752312E+03  0.50539199684E+03  0.00000000000E+00 0.  1.
         21    1    1    2  502  501 -0.16753486136E-01 -0.41825951882E-02  0.22027987396E+00  0.22095564322E+00  0.00000000000E+00 0. -1.
<mgrwt>
<rscale>  1 0.66035404E+03</rscale>
<asrwt>0</asrwt>
<pdfrwt beam="1">  1        1 0.39722818E+00 0.66035404E+03</pdfrwt>
<pdfrwt beam="2">0</pdfrwt>
<totfact> 0.13737732E+00</totfact>
</mgrwt>
</event>
<event>
 6    1  0.8377077E-003  0.6482829E+03  0.7818608E-02  0.9810006E-01
          1   -1    0    0  502    0  0.00000000000E+00  0.00000000000E+00  0.10508153851E+03  0.10508153851E+03  0.00000000000E+00 0.  1.
         13   -1    0    0    0    0 -0.00000000000E+00 -0.00000000000E+00 -0.10000000000E+04  0.10000000000E+04  0.00000000000E+00 0.  1.
    9000005    2    1    2  501    0  0.32144162626E-03 -0.56460044259E-02 -0.89493166504E+03  0.11050671749E+04  0.64828294426E+03 0.  0.
         13    1    3    3    0    0  0.16952496023E+03  0.57127556488E+02  0.13299482138E+02  0.17938546785E+03  0.00000000000E+00 0.  1.
          3    1    3    3  501    0 -0.16952463878E+03 -0.57133202492E+02 -0.90823114718E+03  0.92568170701E+03  0.00000000000E+00 0.  1.
         21    1    1    2  502  501 -0.32144162625E-03  0.56460044259E-02  0.13203555034E-01  0.14363654000E-01  0.00000000000E+00 0. -1.
<mgrwt>
<rscale>  1 0.64828294E+03</rscale>
<asrwt>0</asrwt>
<pdfrwt beam="1">  1        1 0.38211549E+00 0.64828294E+03</pdfrwt>
<pdfrwt beam="2">0</pdfrwt>
<totfact> 0.16065686E+00</totfact>
</mgrwt>
</event>
<event>
 6    1  0.8377077E-003  0.6852221E+03  0.7818608E-02  0.9742843E-01
          1   -1    0    0  502    0  0.00000000000E+00  0.00000000000E+00  0.11739077916E+03  0.11739077916E+03  0.00000000000E+00 0.  1.
         13   -1    0    0    0    0 -0.00000000000E+00 -0.00000000000E+00 -0.10000000000E+04  0.10000000000E+04  0.00000000000E+00 0.  1.
    9000005    2    1    2  501    0 -0.18541353064E-02  0.10463456258E-02 -0.88261751062E+03  0.11173822204E+04  0.68522212188E+03 0.  0.
         13    1    3    3    0    0  0.20206737828E+03  0.14643858777E+03 -0.58507997382E+02  0.25631752010E+03  0.00000000000E+00 0.  1.
          3    1    3    3  501    0 -0.20206923241E+03 -0.14643754142E+03 -0.82410951324E+03  0.86106470026E+03  0.00000000000E+00 0.  1.
         21    1    1    2  502  501  0.18541353063E-02 -0.10463456259E-02  0.82897754391E-02  0.85587986151E-02  0.00000000000E+00 0. -1.
<mgrwt>
<rscale>  1 0.68522212E+03</rscale>
<asrwt>0</asrwt>
<pdfrwt beam="1">  1        1 0.42687646E+00 0.68522212E+03</pdfrwt>
<pdfrwt beam="2">0</pdfrwt>
<totfact> 0.10061966E+00</totfact>
</mgrwt>
</event>
<event>
 6    1  0.8377077E-003  0.6472551E+03  0.7818608E-02  0.9811943E-01
          1   -1    0    0  502    0  0.00000000000E+00  0.00000000000E+00  0.10505665684E+03  0.10505665684E+03  0.00000000000E+00 0.  1.
         13   -1    0    0    0    0 -0.00000000000E+00 -0.00000000000E+00 -0.10000000000E+04  0.10000000000E+04  0.00000000000E+00 0.  1.
    9000005    2    1    2  501    0 -0.65418834728E+00  0.50236820138E+00 -0.89451584879E+03  0.11041276317E+04  0.64725462000E+03 0.  0.
         13    1    3    3    0    0  0.31335263631E+03  0.79340777121E+02 -0.46259149375E+03  0.56433653407E+03  0.00000000000E+00 0.  1.
          3    1    3    3  501    0 -0.31400682466E+03 -0.78838408919E+02 -0.43192435503E+03  0.53979109767E+03  0.00000000000E+00 0.  1.
         21    1    1    2  502  501  0.65418834728E+00 -0.50236820138E+00 -0.42749437240E+00  0.92902510294E+00  0.00000000000E+00 0. -1.
<mgrwt>
<rscale>  1 0.64725515E+03</rscale>
<asrwt>0</asrwt>
<pdfrwt beam="1">  1        1 0.38202501E+00 0.64725515E+03</pdfrwt>
<pdfrwt beam="2">0</pdfrwt>
<totfact> 0.16083521E+00</totfact>
</mgrwt>
</event>
<event>
 6    1  0.8377077E-003  0.6592142E+03  0.7818608E-02  0.9789641E-01
          1   -1    0    0  502    0  0.00000000000E+00  0.00000000000E+00  0.13436361704E+03  0.13436361704E+03  0.00000000000E+00 0.  1.
         13   -1    0    0    0    0 -0.00000000000E+00 -0.00000000000E+00 -0.10000000000E+04  0.10000000000E+04  0.00000000000E+00 0.  1.
    9000005    2    1    2  501    0 -0.14603561007E+01 -0.11095475029E+02 -0.89000250648E+03  0.11075503707E+04  0.65911919999E+03 0.  0.
         13    1    3    3    0    0 -0.25533015096E+03 -0.15988443214E+03 -0.21179422305E+03  0.36825712558E+03  0.00000000000E+00 0.  1.
          3    1    3    3  501    0  0.25386979486E+03  0.14878895711E+03 -0.67820828343E+03  0.73929324508E+03  0.00000000000E+00 0.  1.
         21    1    1    2  502  501  0.14603561007E+01  0.11095475029E+02  0.24366123522E+02  0.26813246382E+02  0.00000000000E+00 0.  1.
<mgrwt>
<rscale>  1 0.65921420E+03</rscale>
<asrwt>0</asrwt>
<pdfrwt beam="1">  1        1 0.48859600E+00 0.65921420E+03</pdfrwt>
<pdfrwt beam="2">0</pdfrwt>
<totfact> 0.52317182E-01</totfact>
</mgrwt>
</event>
<event>
 6    1  0.8377077E-003  0.6499969E+03  0.7818608E-02  0.9806785E-01
          1   -1    0    0  502    0  0.00000000000E+00  0.00000000000E+00  0.10688200987E+03  0.10688200987E+03  0.00000000000E+00 0.  1.
         13   -1    0    0    0    0 -0.00000000000E+00 -0.00000000000E+00 -0.10000000000E+04  0.10000000000E+04  0.00000000000E+00 0.  1.
    9000005    2    1    2  501    0  0.20420609438E+00  0.22475930672E-01 -0.89436673267E+03  0.11056164810E+04  0.64999685262E+03 0.  0.
         13    1    3    3    0    0  0.48248482229E+02 -0.72595136960E+02  0.85375865388E+02  0.12201232863E+03  0.00000000000E+00 0.  1.
          1    1    3    3  501    0 -0.48044276134E+02  0.72617612891E+02 -0.97974259806E+03  0.98360415240E+03  0.00000000000E+00 0.  1.
         21    1    1    2  502  501 -0.20420609438E+00 -0.22475930672E-01  0.12487425467E+01  0.12655288398E+01  0.00000000000E+00 0. -1.
<mgrwt>
<rscale>  1 0.64999689E+03</rscale>
<asrwt>0</asrwt>
<pdfrwt beam="1">  1        1 0.38866267E+00 0.64999689E+03</pdfrwt>
<pdfrwt beam="2">0</pdfrwt>
<totfact> 0.15024413E+00</totfact>
</mgrwt>
</event>
<event>
 6    1  0.8377077E-003  0.6449443E+03  0.7818608E-02  0.9816312E-01
          1   -1    0    0  502    0  0.00000000000E+00  0.00000000000E+00  0.10440997531E+03  0.10440997531E+03  0.00000000000E+00 0.  1.
         13   -1    0    0    0    0 -0.00000000000E+00 -0.00000000000E+00 -0.10000000000E+04  0.10000000000E+04  0.00000000000E+00 0.  1.
    9000005    2    1    2  501    0 -0.10803238882E-02  0.55883974565E-02 -0.89601168736E+03  0.11039882742E+04  0.64494431211E+03 0.  0.
         13    1    3    3    0    0  0.19730107394E+03 -0.85333355351E+01 -0.88437756251E+03  0.90615903938E+03  0.00000000000E+00 0.  1.
          1    1    3    3  501    0 -0.19730215426E+03  0.85389239325E+01 -0.11634124851E+02  0.19782923484E+03  0.00000000000E+00 0.  1.
         21    1    1    2  502  501  0.10803238881E-02 -0.55883974565E-02  0.42166266562E+00  0.42170107999E+00  0.00000000000E+00 0. -1.
<mgrwt>
<rscale>  1 0.64494431E+03</rscale>
<asrwt>0</asrwt>
<pdfrwt beam="1">  1        1 0.37967344E+00 0.64494431E+03</pdfrwt>
<pdfrwt beam="2">0</pdfrwt>
<totfact> 0.16479560E+00</totfact>
</mgrwt>
</event>
<event>
 6    1  0.8377077E-003  0.6397114E+03  0.7818608E-02  0.9826279E-01
          1   -1    0    0  502    0  0.00000000000E+00  0.00000000000E+00  0.10230773072E+03  0.10230773072E+03  0.00000000000E+00 0.  1.
         13   -1    0    0    0    0 -0.00000000000E+00 -0.00000000000E+00 -0.10000000000E+04  0.10000000000E+04  0.00000000000E+00 0.  1.
    9000005    2    1    2  501    0  0.20847826264E-04  0.34577622586E-04 -0.89769231795E+03  0.11023076675E+04  0.63971141625E+03 0.  0.
         13    1    3    3    0    0 -0.91524454972E+02 -0.16414281546E+03 -0.28639874423E+01  0.18795688907E+03  0.00000000000E+00 0.  1.
          3    1    3    3  501    0  0.91524475820E+02  0.16414285004E+03 -0.89482833051E+03  0.91435077841E+03  0.00000000000E+00 0.  1.
         21    1    1    2  502  501 -0.20847826258E-04 -0.34577622587E-04  0.48665818903E-04  0.63234529910E-04  0.00000000000E+00 0. -1.
<mgrwt>
<rscale>  1 0.63971142E+03</rscale>
<asrwt>0</asrwt>
<pdfrwt beam="1">  1        1 0.37202890E+00 0.63971142E+03</pdfrwt>
<pdfrwt beam="2">0</pdfrwt>
<totfact> 0.17824803E+00</totfact>
</mgrwt>
</event>
<event>
 6    1  0.8377077E-003  0.6109245E+03  0.7818608E-02  0.9882997E-01
          1   -1    0    0  502    0  0.00000000000E+00  0.00000000000E+00  0.93346145516E+02  0.93346145516E+02  0.00000000000E+00 0.  1.
         13   -1    0    0    0    0 -0.00000000000E+00 -0.00000000000E+00 -0.10000000000E+04  0.10000000000E+04  0.00000000000E+00 0.  1.
    9000005    2    1    2  501    0  0.48206323107E-02 -0.10489906169E-01 -0.90669186404E+03  0.10933064214E+04  0.61092454090E+03 0.  0.
         13    1    3    3    0    0  0.12531683553E+03 -0.14473171908E+03 -0.87932593491E+03  0.89992537445E+03  0.00000000000E+00 0.  1.
          1    1    3    3  501    0 -0.12531201490E+03  0.14472122918E+03 -0.27365929138E+02  0.19338104698E+03  0.00000000000E+00 0.  1.
         21    1    1    2  502  501 -0.48206323107E-02  0.10489906169E-01  0.38009560186E-01  0.39724089579E-01  0.00000000000E+00 0.  1.
<mgrwt>
<rscale>  1 0.61092454E+03</rscale>
<asrwt>0</asrwt>
<pdfrwt beam="1">  1        1 0.33944124E+00 0.61092454E+03</pdfrwt>
<pdfrwt beam="2">0</pdfrwt>
<totfact> 0.24865195E+00</totfact>
</mgrwt>
</event>
<event>
 6    1  0.8377077E-003  0.6401284E+03  0.7818608E-02  0.9825481E-01
          1   -1    0    0  502    0  0.00000000000E+00  0.00000000000E+00  0.12521538310E+03  0.12521538310E+03  0.00000000000E+00 0.  1.
         13   -1    0    0    0    0 -0.00000000000E+00 -0.00000000000E+00 -0.10000000000E+04  0.10000000000E+04  0.00000000000E+00 0.  1.
    9000005    2    1    2  501    0  0.62826275157E+00 -0.17006370950E+00 -0.89755378162E+03  0.11024369174E+04  0.64012806718E+03 0.  0.
         13    1    3    3    0    0  0.83854418827E+02 -0.27657468240E+03 -0.68648224662E+03  0.74483756177E+03  0.00000000000E+00 0.  1.
          1    1    3    3  501    0 -0.83226156076E+02  0.27640461869E+03 -0.21107153500E+03  0.35759935567E+03  0.00000000000E+00 0.  1.
         21    1    1    2  502  501 -0.62826275157E+00  0.17006370950E+00  0.22769164723E+02  0.22778465663E+02  0.00000000000E+00 0.  1.
<mgrwt>
<rscale>  1 0.64012840E+03</rscale>
<asrwt>0</asrwt>
<pdfrwt beam="1">  1        1 0.45532963E+00 0.64012840E+03</pdfrwt>
<pdfrwt beam="2">0</pdfrwt>
<totfact> 0.75231127E-01</totfact>
</mgrwt>
</event>
<event>
 6    1  0.8377077E-003  0.6542796E+03  0.7818608E-02  0.9798782E-01
          1   -1    0    0  502    0  0.00000000000E+00  0.00000000000E+00  0.10702051767E+03  0.10702051767E+03  0.00000000000E+00 0.  1.
         13   -1    0    0    0    0 -0.00000000000E+00 -0.00000000000E+00 -0.10000000000E+04  0.10000000000E+04  0.00000000000E+00 0.  1.
    9000005    2    1    2  501    0 -0.89317281464E-05  0.72991917932E-05 -0.89297954016E+03  0.11070204587E+04  0.65427963200E+03 0.  0.
         13    1    3    3    0    0  0.10345085062E+03 -0.30959955766E+03 -0.48303359513E+03  0.58298835204E+03  0.00000000000E+00 0.  1.
          3    1    3    3  501    0 -0.10345085955E+03  0.30959956496E+03 -0.40994594503E+03  0.52403210666E+03  0.00000000000E+00 0.  1.
         21    1    1    2  502  501  0.89317281491E-05 -0.72991918325E-05  0.57830633954E-04  0.58969790509E-04  0.00000000000E+00 0.  1.
<mgrwt>
<rscale>  1 0.65427963E+03</rscale>
<asrwt>0</asrwt>
<pdfrwt beam="1">  1        1 0.38916634E+00 0.65427963E+03</pdfrwt>
<pdfrwt beam="2">0</pdfrwt>
<totfact> 0.14935507E+00</totfact>
</mgrwt>
</event>
<event>
 6    1  0.8377077E-003  0.6238546E+03  0.7818608E-02  0.9857115E-01
          1   -1    0    0  502    0  0.00000000000E+00  0.00000000000E+00  0.97298648417E+02  0.97298648417E+02  0.00000000000E+00 0.  1.
         13   -1    0    0    0    0 -0.00000000000E+00 -0.00000000000E+00 -0.10000000000E+04  0.10000000000E+04  0.00000000000E+00 0.  1.
    9000005    2    1    2  501    0  0.16350396379E-05 -0.76346493927E-06 -0.90270135762E+03  0.10972986421E+04  0.62385460561E+03 0.  0.
         13    1    3    3    0    0  0.14241331358E+03  0.10428350312E+03  0.10052153111E+01  0.17651518736E+03  0.00000000000E+00 0.  1.
          1    1    3    3  501    0 -0.14241331195E+03 -0.10428350388E+03 -0.90370657293E+03  0.92078345476E+03  0.00000000000E+00 0.  1.
         21    1    1    2  502  501 -0.16350396299E-05  0.76346493168E-06  0.60365976677E-05  0.63005352705E-05  0.00000000000E+00 0. -1.
<mgrwt>
<rscale>  1 0.62385461E+03</rscale>
<asrwt>0</asrwt>
<pdfrwt beam="1">  1        1 0.35381401E+00 0.62385461E+03</pdfrwt>
<pdfrwt beam="2">0</pdfrwt>
<totfact> 0.21479908E+00</totfact>
</mgrwt>
</event>
<event>
 6    1  0.8377077E-003  0.6374314E+03  0.7818608E-02  0.9830653E-01
          1   -1    0    0  502    0  0.00000000000E+00  0.00000000000E+00  0.10161200666E+03  0.10161200666E+03  0.00000000000E+00 0.  1.
         13   -1    0    0    0    0 -0.00000000000E+00 -0.00000000000E+00 -0.10000000000E+04  0.10000000000E+04  0.00000000000E+00 0.  1.
    9000005    2    1    2  501    0  0.24371874213E-01 -0.13248608549E-01 -0.89841360932E+03  0.11015742483E+04  0.63743141621E+03 0.  0.
         13    1    3    3    0    0  0.66423469988E+02  0.31081659772E+03 -0.49002973959E+03  0.58407891630E+03  0.00000000000E+00 0.  1.
          1    1    3    3  501    0 -0.66399098114E+02 -0.31082984633E+03 -0.40838386973E+03  0.51749533201E+03  0.00000000000E+00 0.  1.
         21    1    1    2  502  501 -0.24371874213E-01  0.13248608549E-01  0.25615985838E-01  0.37758344927E-01  0.00000000000E+00 0. -1.
<mgrwt>
<rscale>  1 0.63743142E+03</rscale>
<asrwt>0</asrwt>
<pdfrwt beam="1">  1        1 0.36949899E+00 0.63743142E+03</pdfrwt>
<pdfrwt beam="2">0</pdfrwt>
<totfact> 0.18294476E+00</totfact>
</mgrwt>
</event>
<event>
 6    1  0.8377077E-003  0.6376296E+03  0.7818608E-02  0.9830272E-01
          1   -1    0    0  502    0  0.00000000000E+00  0.00000000000E+00  0.10169528945E+03  0.10169528945E+03  0.00000000000E+00 0.  1.
         13   -1    0    0    0    0 -0.00000000000E+00 -0.00000000000E+00 -0.10000000000E+04  0.10000000000E+04  0.00000000000E+00 0.  1.
    9000005    2    1    2  501    0 -0.13185815606E+00 -0.57298521556E-01 -0.89793575095E+03  0.11012993085E+04  0.63762962094E+03 0.  0.
         13    1    3    3    0    0  0.27400941452E+03  0.40980519342E+02 -0.17664643924E+03  0.32857955918E+03  0.00000000000E+00 0.  1.
          3    1    3    3  501    0 -0.27414127268E+03 -0.41037817864E+02 -0.72128931171E+03  0.77271974937E+03  0.00000000000E+00 0.  1.
         21    1    1    2  502  501  0.13185815606E+00  0.57298521556E-01 -0.36895959723E+00  0.39598090646E+00  0.00000000000E+00 0.  1.
<mgrwt>
<rscale>  1 0.63762964E+03</rscale>
<asrwt>0</asrwt>
<pdfrwt beam="1">  1        1 0.36980183E+00 0.63762964E+03</pdfrwt>
<pdfrwt beam="2">0</pdfrwt>
<totfact> 0.18237884E+00</totfact>
</mgrwt>
</event>
<event>
 6    1  0.8377077E-003  0.6314064E+03  0.7818608E-02  0.9842308E-01
          1   -1    0    0  502    0  0.00000000000E+00  0.00000000000E+00  0.99668613861E+02  0.99668613861E+02  0.00000000000E+00 0.  1.
         13   -1    0    0    0    0 -0.00000000000E+00 -0.00000000000E+00 -0.10000000000E+04  0.10000000000E+04  0.00000000000E+00 0.  1.
    9000005    2    1    2  501    0  0.18089609796E-04  0.28397132183E-04 -0.90033149942E+03  0.10996684957E+04  0.63140636008E+03 0.  0.
         13    1    3    3    0    0 -0.27284412325E+03  0.11645691047E+03 -0.26208418787E+03  0.39584624429E+03  0.00000000000E+00 0.  1.
          1    1    3    3  501    0  0.27284414134E+03 -0.11645688208E+03 -0.63824731155E+03  0.70382225139E+03  0.00000000000E+00 0.  1.
         21    1    1    2  502  501 -0.18089609840E-04 -0.28397132181E-04  0.11327988234E-03  0.11817767489E-03  0.00000000000E+00 0. -1.
<mgrwt>
<rscale>  1 0.63140636E+03</rscale>
<asrwt>0</asrwt>
<pdfrwt beam="1">  1        1 0.36243209E+00 0.63140636E+03</pdfrwt>
<pdfrwt beam="2">0</pdfrwt>
<totfact> 0.19668784E+00</totfact>
</mgrwt>
</event>
<event>
 6    1  0.8377077E-003  0.6541398E+03  0.7818608E-02  0.9799042E-01
          1   -1    0    0  502    0  0.00000000000E+00  0.00000000000E+00  0.10697471506E+03  0.10697471506E+03  0.00000000000E+00 0.  1.
         13   -1    0    0    0    0 -0.00000000000E+00 -0.00000000000E+00 -0.10000000000E+04  0.10000000000E+04  0.00000000000E+00 0.  1.
    9000005    2    1    2  501    0 -0.84129336813E-05 -0.96309823334E-05 -0.89302528530E+03  0.11069747023E+04  0.65413976433E+03 0.  0.
         13    1    3    3    0    0 -0.15531128622E+03 -0.26602598567E+03 -0.63253270355E+03  0.70355457623E+03  0.00000000000E+00 0.  1.
          3    1    3    3  501    0  0.15531127781E+03  0.26602597604E+03 -0.26049258175E+03  0.40342012603E+03  0.00000000000E+00 0.  1.
         21    1    1    2  502  501  0.84129336872E-05  0.96309823738E-05  0.35420831391E-06  0.12792917503E-04  0.00000000000E+00 0. -1.
<mgrwt>
<rscale>  1 0.65413976E+03</rscale>
<asrwt>0</asrwt>
<pdfrwt beam="1">  1        1 0.38899978E+00 0.65413976E+03</pdfrwt>
<pdfrwt beam="2">0</pdfrwt>
<totfact> 0.14961305E+00</totfact>
</mgrwt>
</event>
<event>
 6    1  0.8377077E-003  0.6543914E+03  0.7818608E-02  0.9798574E-01
          1   -1    0    0  502    0  0.00000000000E+00  0.00000000000E+00  0.10705722252E+03  0.10705722252E+03  0.00000000000E+00 0.  1.
         13   -1    0    0    0    0 -0.00000000000E+00 -0.00000000000E+00 -0.10000000000E+04  0.10000000000E+04  0.00000000000E+00 0.  1.
    9000005    2    1    2  501    0  0.10982738857E-04 -0.28593584602E-05 -0.89294297747E+03  0.11070570222E+04  0.65439138853E+03 0.  0.
         13    1    3    3    0    0  0.60782103009E+02  0.20053341743E+03 -0.21347772088E+02  0.21062726064E+03  0.00000000000E+00 0.  1.
          1    1    3    3  501    0 -0.60782092026E+02 -0.20053342029E+03 -0.87159520539E+03  0.89642976156E+03  0.00000000000E+00 0.  1.
         21    1    1    2  502  501 -0.10982738857E-04  0.28593584812E-05  0.19999533415E-03  0.20031707407E-03  0.00000000000E+00 0.  1.
<mgrwt>
<rscale>  1 0.65439139E+03</rscale>
<asrwt>0</asrwt>
<pdfrwt beam="1">  1        1 0.38929981E+00 0.65439139E+03</pdfrwt>
<pdfrwt beam="2">0</pdfrwt>
<totfact> 0.14914863E+00</totfact>
</mgrwt>
</event>
<event>
 6    1  0.8377077E-003  0.6363944E+03  0.7818608E-02  0.9832650E-01
          1   -1    0    0  502    0  0.00000000000E+00  0.00000000000E+00  0.10125275421E+03  0.10125275421E+03  0.00000000000E+00 0.  1.
         13   -1    0    0    0    0 -0.00000000000E+00 -0.00000000000E+00 -0.10000000000E+04  0.10000000000E+04  0.00000000000E+00 0.  1.
    9000005    2    1    2  501    0  0.18058961018E-04  0.45598598916E-04 -0.89875055370E+03  0.11012494459E+04  0.63639436232E+03 0.  0.
         13    1    3    3    0    0  0.28832036352E+03 -0.13457386482E+03 -0.45503256884E+03  0.55524174538E+03  0.00000000000E+00 0.  1.
          1    1    3    3  501    0 -0.28832034546E+03  0.13457391042E+03 -0.44371798486E+03  0.54600770055E+03  0.00000000000E+00 0.  1.
         21    1    1    2  502  501 -0.18058961066E-04 -0.45598598920E-04  0.33079099324E-02  0.33082734891E-02  0.00000000000E+00 0. -1.
<mgrwt>
<rscale>  1 0.63639436E+03</rscale>
<asrwt>0</asrwt>
<pdfrwt beam="1">  1        1 0.36819261E+00 0.63639436E+03</pdfrwt>
<pdfrwt beam="2">0</pdfrwt>
<totfact> 0.18541139E+00</totfact>
</mgrwt>
</event>
<event>
 6    1  0.8377077E-003  0.6475111E+03  0.7818608E-02  0.9811461E-01
          1   -1    0    0  502    0  0.00000000000E+00  0.00000000000E+00  0.10680273181E+03  0.10680273181E+03  0.00000000000E+00 0.  1.
         13   -1    0    0    0    0 -0.00000000000E+00 -0.00000000000E+00 -0.10000000000E+04  0.10000000000E+04  0.00000000000E+00 0.  1.
    9000005    2    1    2  501    0  0.29047015662E+00 -0.18233481784E+00 -0.89516595150E+03  0.11048043993E+04  0.64751105192E+03 0.  0.
         13    1    3    3    0    0 -0.25628922003E+03 -0.11416876227E+03 -0.17210699282E+03  0.32914964311E+03  0.00000000000E+00 0.  1.
          3    1    3    3  501    0  0.25657969019E+03  0.11398642745E+03 -0.72305895868E+03  0.77565475618E+03  0.00000000000E+00 0.  1.
         21    1    1    2  502  501 -0.29047015662E+00  0.18233481784E+00  0.19686833016E+01  0.19983325148E+01  0.00000000000E+00 0. -1.
<mgrwt>
<rscale>  1 0.64751114E+03</rscale>
<asrwt>0</asrwt>
<pdfrwt beam="1">  1        1 0.38837439E+00 0.64751114E+03</pdfrwt>
<pdfrwt beam="2">0</pdfrwt>
<totfact> 0.15075647E+00</totfact>
</mgrwt>
</event>
<event>
 6    1  0.8377077E-003  0.6551180E+03  0.7818608E-02  0.9797223E-01
          1   -1    0    0  502    0  0.00000000000E+00  0.00000000000E+00  0.12105230212E+03  0.12105230212E+03  0.00000000000E+00 0.  1.
         13   -1    0    0    0    0 -0.00000000000E+00 -0.00000000000E+00 -0.10000000000E+04  0.10000000000E+04  0.00000000000E+00 0.  1.
    9000005    2    1    2  501    0 -0.14407046642E+01  0.66550310487E+01 -0.89176587281E+03  0.11065378033E+04  0.65508256967E+03 0.  0.
         13    1    3    3    0    0 -0.17483006680E+03  0.12615342188E+03 -0.27916760990E+02  0.21739269458E+03  0.00000000000E+00 0.  1.
          3    1    3    3  501    0  0.17338936214E+03 -0.11949839083E+03 -0.86384911183E+03  0.88914510869E+03  0.00000000000E+00 0.  1.
         21    1    1    2  502  501  0.14407046642E+01 -0.66550310487E+01  0.12818174937E+02  0.14514498851E+02  0.00000000000E+00 0.  1.
<mgrwt>
<rscale>  1 0.65511796E+03</rscale>
<asrwt>0</asrwt>
<pdfrwt beam="1">  1        1 0.44019112E+00 0.65511796E+03</pdfrwt>
<pdfrwt beam="2">0</pdfrwt>
<totfact> 0.88030191E-01</totfact>
</mgrwt>
</event>
<event>
 6    1  0.8377077E-003  0.6474155E+03  0.7818608E-02  0.9811641E-01
          1   -1    0    0  502    0  0.00000000000E+00  0.00000000000E+00  0.10945786782E+03  0.10945786782E+03  0.00000000000E+00 0.  1.
         13   -1    0    0    0    0 -0.00000000000E+00 -0.00000000000E+00 -0.10000000000E+04  0.10000000000E+04  0.00000000000E+00 0.  1.
    9000005    2    1    2  501    0 -0.10338472229E+01  0.14492597424E+00 -0.89514875126E+03  0.11047344387E+04  0.64741470732E+03 0.  0.
         13    1    3    3    0    0  0.38499269951E+00  0.31856498171E+03 -0.54640745992E+03  0.63249103396E+03  0.00000000000E+00 0.  1.
          3    1    3    3  501    0 -0.14188399225E+01 -0.31842005573E+03 -0.34874129134E+03  0.47224340470E+03  0.00000000000E+00 0.  1.
         21    1    1    2  502  501  0.10338472229E+01 -0.14492597424E+00  0.46066190794E+01  0.47234291527E+01  0.00000000000E+00 0. -1.
<mgrwt>
<rscale>  1 0.64741555E+03</rscale>
<asrwt>0</asrwt>
<pdfrwt beam="1">  1        1 0.39802945E+00 0.64741555E+03</pdfrwt>
<pdfrwt beam="2">0</pdfrwt>
<totfact> 0.13658613E+00</totfact>
</mgrwt>
</event>
<event>
 6    1  0.8377077E-003  0.6553906E+03  0.7818608E-02  0.9796716E-01
          1   -1    0    0  502    0  0.00000000000E+00  0.00000000000E+00  0.11223696242E+03  0.11223696242E+03  0.00000000000E+00 0.  1.
         13   -1    0    0    0    0 -0.00000000000E+00 -0.00000000000E+00 -0.10000000000E+04  0.10000000000E+04  0.00000000000E+00 0.  1.
    9000005    2    1    2  501    0 -0.46661210362E+00 -0.26271487822E+01 -0.89220626080E+03  0.11070541186E+04  0.65538514633E+03 0.  0.
         13    1    3    3    0    0  0.18578664087E+03  0.90401310562E+02 -0.16871441447E+02  0.20730103331E+03  0.00000000000E+00 0.  1.
          1    1    3    3  501    0 -0.18625325297E+03 -0.93028459344E+02 -0.87533481935E+03  0.89975308528E+03  0.00000000000E+00 0.  1.
         21    1    1    2  502  501  0.46661210362E+00  0.26271487822E+01  0.44432232193E+01  0.51828438290E+01  0.00000000000E+00 0.  1.
<mgrwt>
<rscale>  1 0.65539058E+03</rscale>
<asrwt>0</asrwt>
<pdfrwt beam="1">  1        1 0.40813527E+00 0.65539058E+03</pdfrwt>
<pdfrwt beam="2">0</pdfrwt>
<totfact> 0.12291950E+00</totfact>
</mgrwt>
</event>
<event>
 6    1  0.8377077E-003  0.6333026E+03  0.7818608E-02  0.9838625E-01
          1   -1    0    0  502    0  0.00000000000E+00  0.00000000000E+00  0.10032618188E+03  0.10032618188E+03  0.00000000000E+00 0.  1.
         13   -1    0    0    0    0 -0.00000000000E+00 -0.00000000000E+00 -0.10000000000E+04  0.10000000000E+04  0.00000000000E+00 0.  1.
    9000005    2    1    2  501    0  0.12338897712E-02  0.69240078933E-03 -0.89973195618E+03  0.11002680266E+04  0.63330256386E+03 0.  0.
         13    1    3    3    0    0  0.21358880162E+03 -0.11410885539E+03 -0.80433347231E+03  0.83999603674E+03  0.00000000000E+00 0.  1.
          1    1    3    3  501    0 -0.21358756773E+03  0.11410954779E+03 -0.95398483871E+02  0.26027198987E+03  0.00000000000E+00 0.  1.
         21    1    1    2  502  501 -0.12338897712E-02 -0.69240078934E-03  0.58138062729E-01  0.58155276981E-01  0.00000000000E+00 0. -1.
<mgrwt>
<rscale>  1 0.63330256E+03</rscale>
<asrwt>0</asrwt>
<pdfrwt beam="1">  1        1 0.36482325E+00 0.63330256E+03</pdfrwt>
<pdfrwt beam="2">0</pdfrwt>
<totfact> 0.19193555E+00</totfact>
</mgrwt>
</event>
<event>
 6    1  0.8377077E-003  0.6505061E+03  0.7818608E-02  0.9805830E-01
          1   -1    0    0  502    0  0.00000000000E+00  0.00000000000E+00  0.10579138293E+03  0.10579138293E+03  0.00000000000E+00 0.  1.
         13   -1    0    0    0    0 -0.00000000000E+00 -0.00000000000E+00 -0.10000000000E+04  0.10000000000E+04  0.00000000000E+00 0.  1.
    9000005    2    1    2  501    0 -0.41677629795E-04  0.88739792119E-05 -0.89421043932E+03  0.11057895602E+04  0.65050614264E+03 0.  0.
         13    1    3    3    0    0  0.51668751213E+02  0.10310056497E+03  0.69868993853E+02  0.13483717088E+03  0.00000000000E+00 0.  1.
          1    1    3    3  501    0 -0.51668792891E+02 -0.10310055609E+03 -0.96407943317E+03  0.97095238930E+03  0.00000000000E+00 0.  1.
         21    1    1    2  502  501  0.41677629802E-04 -0.88739792183E-05  0.18222508391E-02  0.18227489934E-02  0.00000000000E+00 0.  1.
<mgrwt>
<rscale>  1 0.65050614E+03</rscale>
<asrwt>0</asrwt>
<pdfrwt beam="1">  1        1 0.38469675E+00 0.65050614E+03</pdfrwt>
<pdfrwt beam="2">0</pdfrwt>
<totfact> 0.15642743E+00</totfact>
</mgrwt>
</event>
<event>
 6    1  0.8377077E-003  0.6511033E+03  0.7818608E-02  0.9804711E-01
          1   -1    0    0  502    0  0.00000000000E+00  0.00000000000E+00  0.10599112468E+03  0.10599112468E+03  0.00000000000E+00 0.  1.
         13   -1    0    0    0    0 -0.00000000000E+00 -0.00000000000E+00 -0.10000000000E+04  0.10000000000E+04  0.00000000000E+00 0.  1.
    9000005    2    1    2  501    0  0.39227148250E-04  0.11489127259E-02 -0.89401608665E+03  0.11059838223E+04  0.65110325755E+03 0.  0.
         13    1    3    3    0    0 -0.28669405246E+03 -0.14716126791E+03 -0.36854336076E+03  0.48956524310E+03  0.00000000000E+00 0.  1.
          3    1    3    3  501    0  0.28669409169E+03  0.14716241682E+03 -0.52547272589E+03  0.61641857920E+03  0.00000000000E+00 0.  1.
         21    1    1    2  502  501 -0.39227148257E-04 -0.11489127260E-02  0.72113316497E-02  0.73023861431E-02  0.00000000000E+00 0. -1.
<mgrwt>
<rscale>  1 0.65110326E+03</rscale>
<asrwt>0</asrwt>
<pdfrwt beam="1">  1        1 0.38542308E+00 0.65110326E+03</pdfrwt>
<pdfrwt beam="2">0</pdfrwt>
<totfact> 0.15525735E+00</totfact>
</mgrwt>
</event>
<event>
 6    1  0.8377077E-003  0.6324966E+03  0.7818608E-02  0.9840189E-01
          1   -1    0    0  502    0  0.00000000000E+00  0.00000000000E+00  0.10002521931E+03  0.10002521931E+03  0.00000000000E+00 0.  1.
         13   -1    0    0    0    0 -0.00000000000E+00 -0.00000000000E+00 -0.10000000000E+04  0.10000000000E+04  0.00000000000E+00 0.  1.
    9000005    2    1    2  501    0 -0.14181827322E-03 -0.27014819938E-03 -0.89998702074E+03  0.11000129755E+04  0.63249656810E+03 0.  0.
         13    1    3    3    0    0  0.16337797130E+03 -0.13276243967E+03 -0.39556245933E+02  0.21420299597E+03  0.00000000000E+00 0.  1.
          3    1    3    3  501    0 -0.16337811312E+03  0.13276216952E+03 -0.86043077481E+03  0.88580997948E+03  0.00000000000E+00 0.  1.
         21    1    1    2  502  501  0.14181827320E-03  0.27014819939E-03  0.12240058641E-01  0.12243860830E-01  0.00000000000E+00 0. -1.
<mgrwt>
<rscale>  1 0.63249657E+03</rscale>
<asrwt>0</asrwt>
<pdfrwt beam="1">  1        1 0.36372884E+00 0.63249657E+03</pdfrwt>
<pdfrwt beam="2">0</pdfrwt>
<totfact> 0.19409463E+00</totfact>
</mgrwt>
</event>
<event>
 6    1  0.8377077E-003  0.6644449E+03  0.7818608E-02  0.9780046E-01
          1   -1    0    0  502    0  0.00000000000E+00  0.00000000000E+00  0.11039424314E+03  0.11039424314E+03  0.00000000000E+00 0.  1.
         13   -1    0    0    0    0 -0.00000000000E+00 -0.00000000000E+00 -0.10000000000E+04  0.10000000000E+04  0.00000000000E+00 0.  1.
    9000005    2    1    2  501    0  0.16336676854E-02  0.45693697062E-01 -0.88959854637E+03  0.11103479552E+04  0.66444488545E+03 0.  0.
         13    1    3    3    0    0 -0.19275482531E+03 -0.27054628983E+03 -0.44988532913E+03  0.55923745135E+03  0.00000000000E+00 0.  1.
          3    1    3    3  501    0  0.19275645898E+03  0.27059198353E+03 -0.43971321724E+03  0.55111050384E+03  0.00000000000E+00 0.  1.
         21    1    1    2  502  501 -0.16336676854E-02 -0.45693697062E-01 -0.72104936044E-02  0.46287947020E-01  0.00000000000E+00 0. -1.
<mgrwt>
<rscale>  1 0.66444489E+03</rscale>
<asrwt>0</asrwt>
<pdfrwt beam="1">  1        1 0.40143446E+00 0.66444489E+03</pdfrwt>
<pdfrwt beam="2">0</pdfrwt>
<totfact> 0.13147188E+00</totfact>
</mgrwt>
</event>
<event>
 6    1  0.8377077E-003  0.6472086E+03  0.7818608E-02  0.9812031E-01
          1   -1    0    0  502    0  0.00000000000E+00  0.00000000000E+00  0.10563651850E+03  0.10563651850E+03  0.00000000000E+00 0.  1.
         13   -1    0    0    0    0 -0.00000000000E+00 -0.00000000000E+00 -0.10000000000E+04  0.10000000000E+04  0.00000000000E+00 0.  1.
    9000005    2    1    2  501    0  0.18147182947E+00 -0.12381247570E+00 -0.89526568493E+03  0.11047079537E+04  0.64720859704E+03 0.  0.
         13    1    3    3    0    0 -0.25773696699E+03 -0.43382239029E+02 -0.77305308856E+03  0.81604009739E+03  0.00000000000E+00 0.  1.
          3    1    3    3  501    0  0.25791843882E+03  0.43258426553E+02 -0.12221259637E+03  0.28866785631E+03  0.00000000000E+00 0.  1.
         21    1    1    2  502  501 -0.18147182947E+00  0.12381247570E+00  0.90220343093E+00  0.92856479839E+00  0.00000000000E+00 0.  1.
<mgrwt>
<rscale>  1 0.64720863E+03</rscale>
<asrwt>0</asrwt>
<pdfrwt beam="1">  1        1 0.38413360E+00 0.64720863E+03</pdfrwt>
<pdfrwt beam="2">0</pdfrwt>
<totfact> 0.15742281E+00</totfact>
</mgrwt>
</event>
<event>
 6    1  0.8377077E-003  0.6452246E+03  0.7818608E-02  0.9815781E-01
          1   -1    0    0  502    0  0.00000000000E+00  0.00000000000E+00  0.10471054318E+03  0.10471054318E+03  0.00000000000E+00 0.  1.
         13   -1    0    0    0    0 -0.00000000000E+00 -0.00000000000E+00 -0.10000000000E+04  0.10000000000E+04  0.00000000000E+00 0.  1.
    9000005    2    1    2  501    0  0.83782106479E-01 -0.57987373858E-01 -0.89591675448E+03  0.11040750242E+04  0.64522462585E+03 0.  0.
         13    1    3    3    0    0 -0.14063817676E+03 -0.25672530570E+03 -0.68004385753E+03  0.74036925079E+03  0.00000000000E+00 0.  1.
          3    1    3    3  501    0  0.14072195887E+03  0.25666731832E+03 -0.21587289694E+03  0.36370577345E+03  0.00000000000E+00 0.  1.
         21    1    1    2  502  501 -0.83782106479E-01  0.57987373858E-01  0.62729765318E+00  0.63551893959E+00  0.00000000000E+00 0.  1.
<mgrwt>
<rscale>  1 0.64522463E+03</rscale>
<asrwt>0</asrwt>
<pdfrwt beam="1">  1        1 0.38076641E+00 0.64522463E+03</pdfrwt>
<pdfrwt beam="2">0</pdfrwt>
<totfact> 0.16296730E+00</totfact>
</mgrwt>
</event>
<event>
 6    1  0.8377077E-003  0.6490428E+03  0.7818608E-02  0.9808577E-01
          1   -1    0    0  502    0  0.00000000000E+00  0.00000000000E+00  0.11516910687E+03  0.11516910687E+03  0.00000000000E+00 0.  1.
         13   -1    0    0    0    0 -0.00000000000E+00 -0.00000000000E+00 -0.10000000000E+04  0.10000000000E+04  0.00000000000E+00 0.  1.
    9000005    2    1    2  501    0 -0.50039142563E-01  0.12532270341E+00 -0.89468535899E+03  0.11053137171E+04  0.64904275934E+03 0.  0.
         13    1    3    3    0    0  0.27931335704E+03  0.94302619189E+02 -0.21631419300E+03  0.36565115274E+03  0.00000000000E+00 0.  1.
          3    1    3    3  501    0 -0.27936339618E+03 -0.94177296485E+02 -0.67837116599E+03  0.73966256438E+03  0.00000000000E+00 0.  1.
         21    1    1    2  502  501  0.50039142563E-01 -0.12532270341E+00  0.98544658634E+01  0.98553897512E+01  0.00000000000E+00 0.  1.
<mgrwt>
<rscale>  1 0.64904277E+03</rscale>
<asrwt>0</asrwt>
<pdfrwt beam="1">  1        1 0.41879764E+00 0.64904277E+03</pdfrwt>
<pdfrwt beam="2">0</pdfrwt>
<totfact> 0.11021963E+00</totfact>
</mgrwt>
</event>
<event>
 6    1  0.8377077E-003  0.6227095E+03  0.7818608E-02  0.9859380E-01
          1   -1    0    0  502    0  0.00000000000E+00  0.00000000000E+00  0.97074765512E+02  0.97074765512E+02  0.00000000000E+00 0.  1.
         13   -1    0    0    0    0 -0.00000000000E+00 -0.00000000000E+00 -0.10000000000E+04  0.10000000000E+04  0.00000000000E+00 0.  1.
    9000005    2    1    2  501    0 -0.37908116173E-01  0.17957852046E-02 -0.90305524826E+03  0.10969393261E+04  0.62270948468E+03 0.  0.
         13    1    3    3    0    0 -0.13564653312E+03 -0.14249708004E+03 -0.87665995660E+03  0.89846428937E+03  0.00000000000E+00 0.  1.
          1    1    3    3  501    0  0.13560862500E+03  0.14249887583E+03 -0.26395291665E+02  0.19847503674E+03  0.00000000000E+00 0.  1.
         21    1    1    2  502  501  0.37908116173E-01 -0.17957852046E-02  0.13001377518E+00  0.13543940288E+00  0.00000000000E+00 0. -1.
<mgrwt>
<rscale>  1 0.62270949E+03</rscale>
<asrwt>0</asrwt>
<pdfrwt beam="1">  1        1 0.35299989E+00 0.62270949E+03</pdfrwt>
<pdfrwt beam="2">0</pdfrwt>
<totfact> 0.21660743E+00</totfact>
</mgrwt>
</event>
<event>
 6    1  0.8377077E-003  0.6555261E+03  0.7818608E-02  0.9796465E-01
          1   -1    0    0  502    0  0.00000000000E+00  0.00000000000E+00  0.10750449252E+03  0.10750449252E+03  0.00000000000E+00 0.  1.
         13   -1    0    0    0    0 -0.00000000000E+00 -0.00000000000E+00 -0.10000000000E+04  0.10000000000E+04  0.00000000000E+00 0.  1.
    9000005    2    1    2  501    0  0.10175629879E-01  0.10380759372E-01 -0.89257061005E+03  0.11074279961E+04  0.65552610356E+03 0.  0.
         13    1    3    3    0    0  0.47875324146E+02 -0.27385513044E+03 -0.73955856966E+03  0.79008579096E+03  0.00000000000E+00 0.  1.
          3    1    3    3  501    0 -0.47865148516E+02  0.27386551120E+03 -0.15301204039E+03  0.31734220515E+03  0.00000000000E+00 0.  1.
         21    1    1    2  502  501 -0.10175629879E-01 -0.10380759372E-01  0.75102567721E-01  0.76496400483E-01  0.00000000000E+00 0. -1.
<mgrwt>
<rscale>  1 0.65552610E+03</rscale>
<asrwt>0</asrwt>
<pdfrwt beam="1">  1        1 0.39092625E+00 0.65552610E+03</pdfrwt>
<pdfrwt beam="2">0</pdfrwt>
<totfact> 0.14666097E+00</totfact>
</mgrwt>
</event>
<event>
 6    1  0.8377077E-003  0.6615970E+03  0.7818608E-02  0.9785258E-01
          1   -1    0    0  502    0  0.00000000000E+00  0.00000000000E+00  0.10942770339E+03  0.10942770339E+03  0.00000000000E+00 0.  1.
         13   -1    0    0    0    0 -0.00000000000E+00 -0.00000000000E+00 -0.10000000000E+04  0.10000000000E+04  0.00000000000E+00 0.  1.
    9000005    2    1    2  501    0 -0.76843849115E-05 -0.27076564209E-05 -0.89057235185E+03  0.11094276476E+04  0.66159700065E+03 0.  0.
         13    1    3    3    0    0 -0.20052689927E+03 -0.27178085835E+02 -0.88410058419E+03  0.90696390702E+03  0.00000000000E+00 0.  1.
          1    1    3    3  501    0  0.20052689159E+03  0.27178083127E+02 -0.64717676664E+01  0.20246374053E+03  0.00000000000E+00 0.  1.
         21    1    1    2  502  501  0.76843849047E-05  0.27076564215E-05  0.55246009553E-04  0.55843555995E-04  0.00000000000E+00 0.  1.
<mgrwt>
<rscale>  1 0.66159700E+03</rscale>
<asrwt>0</asrwt>
<pdfrwt beam="1">  1        1 0.39791976E+00 0.66159700E+03</pdfrwt>
<pdfrwt beam="2">0</pdfrwt>
<totfact> 0.13637493E+00</totfact>
</mgrwt>
</event>
<event>
 6    1  0.8377080E-003  0.5823645E+03  0.7818608E-02  0.9942685E-01
          1   -1    0    0  502    0  0.00000000000E+00  0.00000000000E+00  0.84787115367E+02  0.84787115367E+02  0.00000000000E+00 0.  1.
         13   -1    0    0    0    0 -0.00000000000E+00 -0.00000000000E+00 -0.10000000000E+04  0.10000000000E+04  0.00000000000E+00 0.  1.
    9000005    2    1    2  501    0  0.44031300206E-05  0.72618323941E-05 -0.91521288548E+03  0.10847871068E+04  0.58236452623E+03 0.  0.
         13    1    3    3    0    0 -0.10078115390E+03  0.16585790626E+03 -0.53255176157E+02  0.20125058966E+03  0.00000000000E+00 0.  1.
          3    1    3    3  501    0  0.10078115830E+03 -0.16585789900E+03 -0.86195770932E+03  0.88353651718E+03  0.00000000000E+00 0.  1.
         21    1    1    2  502  501 -0.44031300101E-05 -0.72618323960E-05  0.84317469841E-06  0.85342080596E-05  0.00000000000E+00 0. -1.
<mgrwt>
<rscale>  1 0.58236453E+03</rscale>
<asrwt>0</asrwt>
<pdfrwt beam="1">  1        1 0.30831743E+00 0.58236453E+03</pdfrwt>
<pdfrwt beam="2">0</pdfrwt>
<totfact> 0.34078186E+00</totfact>
</mgrwt>
</event>
<event>
 6    1  0.8377077E-003  0.6064943E+03  0.7818608E-02  0.9892023E-01
          1   -1    0    0  502    0  0.00000000000E+00  0.00000000000E+00  0.91976299236E+02  0.91976299236E+02  0.00000000000E+00 0.  1.
         13   -1    0    0    0    0 -0.00000000000E+00 -0.00000000000E+00 -0.10000000000E+04  0.10000000000E+04  0.00000000000E+00 0.  1.
    9000005    2    1    2  501    0 -0.39803292494E-02 -0.85437546686E-02 -0.90803976866E+03  0.10919576709E+04  0.60649429792E+03 0.  0.
         13    1    3    3    0    0  0.17255212770E+02 -0.21294540998E+03 -0.84150460028E+03  0.86820129134E+03  0.00000000000E+00 0.  1.
          3    1    3    3  501    0 -0.17259193099E+02  0.21293686623E+03 -0.66535168386E+02  0.22375637953E+03  0.00000000000E+00 0.  1.
         21    1    1    2  502  501  0.39803292494E-02  0.85437546687E-02  0.16067898083E-01  0.18628368516E-01  0.00000000000E+00 0. -1.
<mgrwt>
<rscale>  1 0.60649430E+03</rscale>
<asrwt>0</asrwt>
<pdfrwt beam="1">  1        1 0.33445998E+00 0.60649430E+03</pdfrwt>
<pdfrwt beam="2">0</pdfrwt>
<totfact> 0.26154673E+00</totfact>
</mgrwt>
</event>
<event>
 6    1  0.8377077E-003  0.6443823E+03  0.7818608E-02  0.9817378E-01
          1   -1    0    0  502    0  0.00000000000E+00  0.00000000000E+00  0.10440952282E+03  0.10440952282E+03  0.00000000000E+00 0.  1.
         13   -1    0    0    0    0 -0.00000000000E+00 -0.00000000000E+00 -0.10000000000E+04  0.10000000000E+04  0.00000000000E+00 0.  1.
    9000005    2    1    2  501    0 -0.12830403701E+00  0.66429826102E-01 -0.89618328034E+03  0.11037993668E+04  0.64438230051E+03 0.  0.
         13    1    3    3    0    0  0.30788057214E+03 -0.48379413391E+02 -0.58751246820E+03  0.66505782804E+03  0.00000000000E+00 0.  1.
          3    1    3    3  501    0 -0.30800887618E+03  0.48445843217E+02 -0.30867081213E+03  0.43874153871E+03  0.00000000000E+00 0.  1.
         21    1    1    2  502  501  0.12830403701E+00 -0.66429826102E-01  0.59280315255E+00  0.61015606642E+00  0.00000000000E+00 0. -1.
<mgrwt>
<rscale>  1 0.64438232E+03</rscale>
<asrwt>0</asrwt>
<pdfrwt beam="1">  1        1 0.37967179E+00 0.64438232E+03</pdfrwt>
<pdfrwt beam="2">0</pdfrwt>
<totfact> 0.16481541E+00</totfact>
</mgrwt>
</event>
<event>
 6    1  0.8377077E-003  0.6500032E+03  0.7818608E-02  0.9806773E-01
          1   -1    0    0  502    0  0.00000000000E+00  0.00000000000E+00  0.10564991215E+03  0.10564991215E+03  0.00000000000E+00 0.  1.
         13   -1    0    0    0    0 -0.00000000000E+00 -0.00000000000E+00 -0.10000000000E+04  0.10000000000E+04  0.00000000000E+00 0.  1.
    9000005    2    1    2  501    0  0.63578932833E-02 -0.64332371619E-01 -0.89430842926E+03  0.11055730063E+04  0.65000315489E+03 0.  0.
         13    1    3    3    0    0  0.26798116646E+03  0.11423810773E+03 -0.69218685762E+03  0.75099061026E+03  0.00000000000E+00 0.  1.
          1    1    3    3  501    0 -0.26797480856E+03 -0.11430244010E+03 -0.20212157164E+03  0.35458239601E+03  0.00000000000E+00 0.  1.
         21    1    1    2  502  501 -0.63578932833E-02  0.64332371619E-01 -0.41658593509E-01  0.76905885719E-01  0.00000000000E+00 0. -1.
<mgrwt>
<rscale>  1 0.65000316E+03</rscale>
<asrwt>0</asrwt>
<pdfrwt beam="1">  1        1 0.38418231E+00 0.65000316E+03</pdfrwt>
<pdfrwt beam="2">0</pdfrwt>
<totfact> 0.15726355E+00</totfact>
</mgrwt>
</event>
<event>
 6    1  0.8377077E-003  0.6450772E+03  0.7818608E-02  0.9816061E-01
          1   -1    0    0  502    0  0.00000000000E+00  0.00000000000E+00  0.10403114957E+03  0.10403114957E+03  0.00000000000E+00 0.  1.
         13   -1    0    0    0    0 -0.00000000000E+00 -0.00000000000E+00 -0.10000000000E+04  0.10000000000E+04  0.00000000000E+00 0.  1.
    9000005    2    1    2  501    0 -0.16297605612E-05  0.26163828579E-05 -0.89596884550E+03  0.11040311438E+04  0.64507720024E+03 0.  0.
         13    1    3    3    0    0 -0.17791661547E+03 -0.26067028892E+03 -0.33409983934E+03  0.45959332483E+03  0.00000000000E+00 0.  1.
          1    1    3    3  501    0  0.17791661384E+03  0.26067029154E+03 -0.56186900617E+03  0.64443781892E+03  0.00000000000E+00 0.  1.
         21    1    1    2  502  501  0.16297605662E-05 -0.26163828012E-05 -0.49300651541E-05  0.58143891243E-05  0.00000000000E+00 0.  1.
<mgrwt>
<rscale>  1 0.64507720E+03</rscale>
<asrwt>0</asrwt>
<pdfrwt beam="1">  1        1 0.37829589E+00 0.64507720E+03</pdfrwt>
<pdfrwt beam="2">0</pdfrwt>
<totfact> 0.16711291E+00</totfact>
</mgrwt>
</event>
<event>
 6    1  0.8377077E-003  0.6468462E+03  0.7818608E-02  0.9812715E-01
          1   -1    0    0  502    0  0.00000000000E+00  0.00000000000E+00  0.10460417920E+03  0.10460417920E+03  0.00000000000E+00 0.  1.
         13   -1    0    0    0    0 -0.00000000000E+00 -0.00000000000E+00 -0.10000000000E+04  0.10000000000E+04  0.00000000000E+00 0.  1.
    9000005    2    1    2  501    0 -0.20083667033E-02  0.17081608142E-02 -0.89539626120E+03  0.11046015061E+04  0.64684621261E+03 0.  0.
         13    1    3    3    0    0  0.31158890977E+02  0.16281873630E+03 -0.92193343833E+03  0.93671878495E+03  0.00000000000E+00 0.  1.
          1    1    3    3  501    0 -0.31160899343E+02 -0.16281702814E+03  0.26537177132E+02  0.16788272117E+03  0.00000000000E+00 0.  1.
         21    1    1    2  502  501  0.20083667033E-02 -0.17081608142E-02  0.44039388551E-03  0.26730688275E-02  0.00000000000E+00 0.  1.
<mgrwt>
<rscale>  1 0.64684621E+03</rscale>
<asrwt>0</asrwt>
<pdfrwt beam="1">  1        1 0.38037964E+00 0.64684621E+03</pdfrwt>
<pdfrwt beam="2">0</pdfrwt>
<totfact> 0.16356027E+00</totfact>
</mgrwt>
</event>
<event>
 6    1  0.8377077E-003  0.6516900E+03  0.7818608E-02  0.9803613E-01
          1   -1    0    0  502    0  0.00000000000E+00  0.00000000000E+00  0.10629596883E+03  0.10629596883E+03  0.00000000000E+00 0.  1.
         13   -1    0    0    0    0 -0.00000000000E+00 -0.00000000000E+00 -0.10000000000E+04  0.10000000000E+04  0.00000000000E+00 0.  1.
    9000005    2    1    2  501    0  0.25727955924E-02 -0.93489343439E-03 -0.89382502536E+03  0.11061749437E+04  0.65168998002E+03 0.  0.
         13    1    3    3    0    0 -0.24669338167E+03  0.18089554492E+03 -0.63739244362E+03  0.70700067179E+03  0.00000000000E+00 0.  1.
          1    1    3    3  501    0  0.24669595446E+03 -0.18089647981E+03 -0.25643258174E+03  0.39917427189E+03  0.00000000000E+00 0.  1.
         21    1    1    2  502  501 -0.25727955925E-02  0.93489343438E-03  0.12099419274E+00  0.12102515433E+00  0.00000000000E+00 0. -1.
<mgrwt>
<rscale>  1 0.65168998E+03</rscale>
<asrwt>0</asrwt>
<pdfrwt beam="1">  1        1 0.38653161E+00 0.65168998E+03</pdfrwt>
<pdfrwt beam="2">0</pdfrwt>
<totfact> 0.15349680E+00</totfact>
</mgrwt>
</event>
<event>
 6    1  0.8377077E-003  0.6459242E+03  0.7818608E-02  0.9814457E-01
          1   -1    0    0  502    0  0.00000000000E+00  0.00000000000E+00  0.10430463880E+03  0.10430463880E+03  0.00000000000E+00 0.  1.
         13   -1    0    0    0    0 -0.00000000000E+00 -0.00000000000E+00 -0.10000000000E+04  0.10000000000E+04  0.00000000000E+00 0.  1.
    9000005    2    1    2  501    0 -0.58542169199E-04  0.12053783394E-04 -0.89569548183E+03  0.11043045042E+04  0.64592417650E+03 0.  0.
         13    1    3    3    0    0  0.14605694265E+03  0.84037890468E+02  0.23189667694E+02  0.17009632041E+03  0.00000000000E+00 0.  1.
          1    1    3    3  501    0 -0.14605700119E+03 -0.84037878415E+02 -0.91888514952E+03  0.93420818377E+03  0.00000000000E+00 0.  1.
         21    1    1    2  502  501  0.58542169186E-04 -0.12053783397E-04  0.12062690626E-03  0.13462291699E-03  0.00000000000E+00 0.  1.
<mgrwt>
<rscale>  1 0.64592418E+03</rscale>
<asrwt>0</asrwt>
<pdfrwt beam="1">  1        1 0.37929040E+00 0.64592418E+03</pdfrwt>
<pdfrwt beam="2">0</pdfrwt>
<totfact> 0.16540819E+00</totfact>
</mgrwt>
</event>
<event>
 6    1  0.8377077E-003  0.6459343E+03  0.7818608E-02  0.9814438E-01
          1   -1    0    0  502    0  0.00000000000E+00  0.00000000000E+00  0.10433875348E+03  0.10433875348E+03  0.00000000000E+00 0.  1.
         13   -1    0    0    0    0 -0.00000000000E+00 -0.00000000000E+00 -0.10000000000E+04  0.10000000000E+04  0.00000000000E+00 0.  1.
    9000005    2    1    2  501    0 -0.83835834560E-02  0.43275585658E-01 -0.89567389471E+03  0.11042928946E+04  0.64593426093E+03 0.  0.
         13    1    3    3    0    0  0.19955498704E+03 -0.12446125815E+03 -0.82621245574E+03  0.85903423660E+03  0.00000000000E+00 0.  1.
          3    1    3    3  501    0 -0.19956337063E+03  0.12450453374E+03 -0.69461438976E+02  0.24525865799E+03  0.00000000000E+00 0.  1.
         21    1    1    2  502  501  0.83835834560E-02 -0.43275585658E-01  0.12648196915E-01  0.45858888678E-01  0.00000000000E+00 0. -1.
<mgrwt>
<rscale>  1 0.64593426E+03</rscale>
<asrwt>0</asrwt>
<pdfrwt beam="1">  1        1 0.37941445E+00 0.64593426E+03</pdfrwt>
<pdfrwt beam="2">0</pdfrwt>
<totfact> 0.16519961E+00</totfact>
</mgrwt>
</event>
<event>
 6    1  0.8377077E-003  0.6523872E+03  0.7818608E-02  0.9802310E-01
          1   -1    0    0  502    0  0.00000000000E+00  0.00000000000E+00  0.10657607504E+03  0.10657607504E+03  0.00000000000E+00 0.  1.
         13   -1    0    0    0    0 -0.00000000000E+00 -0.00000000000E+00 -0.10000000000E+04  0.10000000000E+04  0.00000000000E+00 0.  1.
    9000005    2    1    2  501    0  0.25133216704E-01  0.18624031865E-01 -0.89359618535E+03  0.11064009974E+04  0.65238717310E+03 0.  0.
         13    1    3    3    0    0 -0.94733534326E+02 -0.30850697278E+03 -0.36645897718E+03  0.48830643733E+03  0.00000000000E+00 0.  1.
          1    1    3    3  501    0  0.94758667542E+02  0.30852559682E+03 -0.52713720817E+03  0.61809456008E+03  0.00000000000E+00 0.  1.
         21    1    1    2  502  501 -0.25133216704E-01 -0.18624031865E-01  0.17226038935E+00  0.17507762531E+00  0.00000000000E+00 0.  1.
<mgrwt>
<rscale>  1 0.65238717E+03</rscale>
<asrwt>0</asrwt>
<pdfrwt beam="1">  1        1 0.38755018E+00 0.65238717E+03</pdfrwt>
<pdfrwt beam="2">0</pdfrwt>
<totfact> 0.15189141E+00</totfact>
</mgrwt>
</event>
<event>
 6    1  0.8377077E-003  0.6560091E+03  0.7818608E-02  0.9795568E-01
          3   -1    0    0  502    0  0.00000000000E+00  0.00000000000E+00  0.10905159926E+03  0.10905159926E+03  0.00000000000E+00 0.  1.
         13   -1    0    0    0    0 -0.00000000000E+00 -0.00000000000E+00 -0.10000000000E+04  0.10000000000E+04  0.00000000000E+00 0.  1.
    9000005    2    1    2  501    0  0.10768953405E+01 -0.49299319405E+00 -0.89214297707E+03  0.11073694107E+04  0.65600801625E+03 0.  0.
         13    1    3    3    0    0  0.62530667887E+02  0.33867099309E+01 -0.98987658911E+03  0.99185544103E+03  0.00000000000E+00 0.  1.
          3    1    3    3  501    0 -0.61453772547E+02 -0.38797031250E+01  0.97733612043E+02  0.11551396963E+03  0.00000000000E+00 0.  1.
         21    1    1    2  502  501 -0.10768953405E+01  0.49299319405E+00  0.11945763267E+01  0.16821885935E+01  0.00000000000E+00 0. -1.
<mgrwt>
<rscale>  1 0.65600909E+03</rscale>
<asrwt>0</asrwt>
<pdfrwt beam="1">  1        3 0.39655211E+00 0.65600909E+03</pdfrwt>
<pdfrwt beam="2">0</pdfrwt>
<totfact> 0.61693563E-02</totfact>
</mgrwt>
</event>
<event>
 6    1  0.8377077E-003  0.7406144E+03  0.7818608E-02  0.9650191E-01
          1   -1    0    0  502    0  0.00000000000E+00  0.00000000000E+00  0.13748255034E+03  0.13748255034E+03  0.00000000000E+00 0.  1.
         13   -1    0    0    0    0 -0.00000000000E+00 -0.00000000000E+00 -0.10000000000E+04  0.10000000000E+04  0.00000000000E+00 0.  1.
    9000005    2    1    2  501    0  0.45334533129E+00 -0.29441617468E+00 -0.86261638585E+03  0.11369330130E+04  0.74061417405E+03 0.  0.
         13    1    3    3    0    0 -0.16261710104E+03 -0.24126045545E+03 -0.79651512129E+02  0.30165425954E+03  0.00000000000E+00 0.  1.
          3    1    3    3  501    0  0.16307044638E+03  0.24096603928E+03 -0.78296487372E+03  0.83527875349E+03  0.00000000000E+00 0.  1.
         21    1    1    2  502  501 -0.45334533129E+00  0.29441617468E+00  0.98936181166E-01  0.54953729742E+00  0.00000000000E+00 0. -1.
<mgrwt>
<rscale>  1 0.74061437E+03</rscale>
<asrwt>0</asrwt>
<pdfrwt beam="1">  1        1 0.49993760E+00 0.74061437E+03</pdfrwt>
<pdfrwt beam="2">0</pdfrwt>
<totfact> 0.45386954E-01</totfact>
</mgrwt>
</event>
<event>
 6    1  0.8377077E-003  0.6620359E+03  0.7818608E-02  0.9784453E-01
          1   -1    0    0  502    0  0.00000000000E+00  0.00000000000E+00  0.11393987508E+03  0.11393987508E+03  0.00000000000E+00 0.  1.
         13   -1    0    0    0    0 -0.00000000000E+00 -0.00000000000E+00 -0.10000000000E+04  0.10000000000E+04  0.00000000000E+00 0.  1.
    9000005    2    1    2  501    0  0.10657128528E+01  0.39248413862E+01 -0.88935014489E+03  0.11087087801E+04  0.66202336713E+03 0.  0.
         13    1    3    3    0    0 -0.28375602718E+03  0.10838196185E+03 -0.66596437961E+03  0.73196494966E+03  0.00000000000E+00 0.  1.
          1    1    3    3  501    0  0.28482174003E+03 -0.10445712047E+03 -0.22338576528E+03  0.37674383040E+03  0.00000000000E+00 0.  1.
         21    1    1    2  502  501 -0.10657128528E+01 -0.39248413862E+01  0.32900199758E+01  0.52310950319E+01  0.00000000000E+00 0.  1.
<mgrwt>
<rscale>  1 0.66203586E+03</rscale>
<asrwt>0</asrwt>
<pdfrwt beam="1">  1        1 0.41432769E+00 0.66203586E+03</pdfrwt>
<pdfrwt beam="2">0</pdfrwt>
<totfact> 0.11515402E+00</totfact>
</mgrwt>
</event>
<event>
 6    1  0.8377077E-003  0.6593278E+03  0.7818608E-02  0.9789432E-01
          1   -1    0    0  502    0  0.00000000000E+00  0.00000000000E+00  0.10881423719E+03  0.10881423719E+03  0.00000000000E+00 0.  1.
         13   -1    0    0    0    0 -0.00000000000E+00 -0.00000000000E+00 -0.10000000000E+04  0.10000000000E+04  0.00000000000E+00 0.  1.
    9000005    2    1    2  501    0  0.32369724726E-03  0.24440654163E-02 -0.89132169228E+03  0.11086782854E+04  0.65932782535E+03 0.  0.
         13    1    3    3    0    0  0.51354072213E+02  0.27200692531E+03 -0.14460780060E+03  0.31230821979E+03  0.00000000000E+00 0.  1.
          3    1    3    3  501    0 -0.51353748516E+02 -0.27200448125E+03 -0.74671389168E+03  0.79637006557E+03  0.00000000000E+00 0.  1.
         21    1    1    2  502  501 -0.32369724726E-03 -0.24440654164E-02  0.13592947824E+00  0.13595183445E+00  0.00000000000E+00 0. -1.
<mgrwt>
<rscale>  1 0.65932783E+03</rscale>
<asrwt>0</asrwt>
<pdfrwt beam="1">  1        1 0.39568897E+00 0.65932783E+03</pdfrwt>
<pdfrwt beam="2">0</pdfrwt>
<totfact> 0.13958805E+00</totfact>
</mgrwt>
</event>
<event>
 6    1  0.8377077E-003  0.6552146E+03  0.7818608E-02  0.9797043E-01
          1   -1    0    0  502    0  0.00000000000E+00  0.00000000000E+00  0.10732699472E+03  0.10732699472E+03  0.00000000000E+00 0.  1.
         13   -1    0    0    0    0 -0.00000000000E+00 -0.00000000000E+00 -0.10000000000E+04  0.10000000000E+04  0.00000000000E+00 0.  1.
    9000005    2    1    2  501    0 -0.61790748479E-03 -0.10095900834E-02 -0.89267239008E+03  0.11073256607E+04  0.65521456248E+03 0.  0.
         13    1    3    3    0    0 -0.12678667903E+03 -0.23738635052E+03 -0.76205730795E+03  0.80818220841E+03  0.00000000000E+00 0.  1.
          3    1    3    3  501    0  0.12678606112E+03  0.23738534093E+03 -0.13061508213E+03  0.29914345232E+03  0.00000000000E+00 0.  1.
         21    1    1    2  502  501  0.61790748480E-03  0.10095900834E-02 -0.61519138060E-03  0.13339948392E-02  0.00000000000E+00 0.  1.
<mgrwt>
<rscale>  1 0.65521456E+03</rscale>
<asrwt>0</asrwt>
<pdfrwt beam="1">  1        1 0.39028080E+00 0.65521456E+03</pdfrwt>
<pdfrwt beam="2">0</pdfrwt>
<totfact> 0.14763964E+00</totfact>
</mgrwt>
</event>
<event>
 6    1  0.8377077E-003  0.6477802E+03  0.7818608E-02  0.9810953E-01
          1   -1    0    0  502    0  0.00000000000E+00  0.00000000000E+00  0.10491014885E+03  0.10491014885E+03  0.00000000000E+00 0.  1.
         13   -1    0    0    0    0 -0.00000000000E+00 -0.00000000000E+00 -0.10000000000E+04  0.10000000000E+04  0.00000000000E+00 0.  1.
    9000005    2    1    2  501    0 -0.88747036699E-04 -0.47504724469E-03 -0.89509519799E+03  0.11049047802E+04  0.64778017866E+03 0.  0.
         13    1    3    3    0    0  0.22299163145E+03 -0.22212894455E+03 -0.31721853406E+03  0.44687149613E+03  0.00000000000E+00 0.  1.
          3    1    3    3  501    0 -0.22299172019E+03  0.22212846950E+03 -0.57787666393E+03  0.65803328408E+03  0.00000000000E+00 0.  1.
         21    1    1    2  502  501  0.88747036706E-04  0.47504724470E-03  0.53468470539E-02  0.53686422249E-02  0.00000000000E+00 0.  1.
<mgrwt>
<rscale>  1 0.64778018E+03</rscale>
<asrwt>0</asrwt>
<pdfrwt beam="1">  1        1 0.38149225E+00 0.64778018E+03</pdfrwt>
<pdfrwt beam="2">0</pdfrwt>
<totfact> 0.16169321E+00</totfact>
</mgrwt>
</event>
<event>
 6    1  0.8377077E-003  0.6490735E+03  0.7818608E-02  0.9808519E-01
          1   -1    0    0  502    0  0.00000000000E+00  0.00000000000E+00  0.10544347835E+03  0.10544347835E+03  0.00000000000E+00 0.  1.
         13   -1    0    0    0    0 -0.00000000000E+00 -0.00000000000E+00 -0.10000000000E+04  0.10000000000E+04  0.00000000000E+00 0.  1.
    9000005    2    1    2  501    0  0.63162414547E-02  0.10809254058E-01 -0.89467554487E+03  0.11053237985E+04  0.64907346950E+03 0.  0.
         13    1    3    3    0    0 -0.79349852462E+02  0.24365287709E+03 -0.10819450718E+03  0.27815315023E+03  0.00000000000E+00 0.  1.
          3    1    3    3  501    0  0.79356168704E+02 -0.24364206784E+03 -0.78648103769E+03  0.82717064828E+03  0.00000000000E+00 0.  1.
         21    1    1    2  502  501 -0.63162414547E-02 -0.10809254058E-01  0.11902322868E+00  0.11967983892E+00  0.00000000000E+00 0.  1.
<mgrwt>
<rscale>  1 0.64907347E+03</rscale>
<asrwt>0</asrwt>
<pdfrwt beam="1">  1        1 0.38343164E+00 0.64907347E+03</pdfrwt>
<pdfrwt beam="2">0</pdfrwt>
<totfact> 0.15849695E+00</totfact>
</mgrwt>
</event>
<event>
 6    1  0.8377077E-003  0.6492734E+03  0.7818608E-02  0.9808143E-01
          1   -1    0    0  502    0  0.00000000000E+00  0.00000000000E+00  0.10538944502E+03  0.10538944502E+03  0.00000000000E+00 0.  1.
         13   -1    0    0    0    0 -0.00000000000E+00 -0.00000000000E+00 -0.10000000000E+04  0.10000000000E+04  0.00000000000E+00 0.  1.
    9000005    2    1    2  501    0 -0.78872489527E-03  0.60867952925E-04 -0.89461056566E+03  0.11053886539E+04  0.64927344928E+03 0.  0.
         13    1    3    3    0    0  0.35565712357E+02  0.28284589337E+03 -0.18288393814E+03  0.33869345155E+03  0.00000000000E+00 0.  1.
          1    1    3    3  501    0 -0.35566501082E+02 -0.28284583250E+03 -0.71172662752E+03  0.76669520234E+03  0.00000000000E+00 0.  1.
         21    1    1    2  502  501  0.78872489527E-03 -0.60867952923E-04  0.10684861231E-04  0.79114223397E-03  0.00000000000E+00 0. -1.
<mgrwt>
<rscale>  1 0.64927345E+03</rscale>
<asrwt>0</asrwt>
<pdfrwt beam="1">  1        1 0.38323515E+00 0.64927345E+03</pdfrwt>
<pdfrwt beam="2">0</pdfrwt>
<totfact> 0.15880833E+00</totfact>
</mgrwt>
</event>
<event>
 6    1  0.8377077E-003  0.6631757E+03  0.7818608E-02  0.9782365E-01
          1   -1    0    0  502    0  0.00000000000E+00  0.00000000000E+00  0.10996193492E+03  0.10996193492E+03  0.00000000000E+00 0.  1.
         13   -1    0    0    0    0 -0.00000000000E+00 -0.00000000000E+00 -0.10000000000E+04  0.10000000000E+04  0.00000000000E+00 0.  1.
    9000005    2    1    2  501    0 -0.62972278544E-02  0.46940613636E-02 -0.89004796658E+03  0.11099492965E+04  0.66317573688E+03 0.  0.
         13    1    3    3    0    0 -0.44177488739E+02  0.12108533712E+03  0.66307368847E+02  0.14494818571E+03  0.00000000000E+00 0.  1.
          1    1    3    3  501    0  0.44171191511E+02 -0.12108064306E+03 -0.95635533543E+03  0.96500111082E+03  0.00000000000E+00 0.  1.
         21    1    1    2  502  501  0.62972278544E-02 -0.46940613636E-02  0.99014973234E-02  0.12638391511E-01  0.00000000000E+00 0. -1.
<mgrwt>
<rscale>  1 0.66317574E+03</rscale>
<asrwt>0</asrwt>
<pdfrwt beam="1">  1        1 0.39986242E+00 0.66317574E+03</pdfrwt>
<pdfrwt beam="2">0</pdfrwt>
<totfact> 0.13364382E+00</totfact>
</mgrwt>
</event>
<event>
 6    1  0.8377077E-003  0.6584151E+03  0.7818608E-02  0.9791116E-01
          1   -1    0    0  502    0  0.00000000000E+00  0.00000000000E+00  0.10837766198E+03  0.10837766198E+03  0.00000000000E+00 0.  1.
         13   -1    0    0    0    0 -0.00000000000E+00 -0.00000000000E+00 -0.10000000000E+04  0.10000000000E+04  0.00000000000E+00 0.  1.
    9000005    2    1    2  501    0  0.14633457425E-04  0.26624285510E-04 -0.89162238967E+03  0.11083776021E+04  0.65841508412E+03 0.  0.
         13    1    3    3    0    0 -0.13403274295E+03 -0.20656085595E+03 -0.77975463530E+02  0.25828731349E+03  0.00000000000E+00 0.  1.
          1    1    3    3  501    0  0.13403275758E+03  0.20656088258E+03 -0.81364692614E+03  0.85009028857E+03  0.00000000000E+00 0.  1.
         21    1    1    2  502  501 -0.14633457412E-04 -0.26624285521E-04  0.51646663154E-04  0.59919683497E-04  0.00000000000E+00 0.  1.
<mgrwt>
<rscale>  1 0.65841508E+03</rscale>
<asrwt>0</asrwt>
<pdfrwt beam="1">  1        1 0.39410142E+00 0.65841508E+03</pdfrwt>
<pdfrwt beam="2">0</pdfrwt>
<totfact> 0.14189960E+00</totfact>
</mgrwt>
</event>
<event>
 6    1  0.8377077E-003  0.5990263E+03  0.7818608E-02  0.9907428E-01
          1   -1    0    0  502    0  0.00000000000E+00  0.00000000000E+00  0.89708123621E+02  0.89708123621E+02  0.00000000000E+00 0.  1.
         13   -1    0    0    0    0 -0.00000000000E+00 -0.00000000000E+00 -0.10000000000E+04  0.10000000000E+04  0.00000000000E+00 0.  1.
    9000005    2    1    2  501    0  0.67813558786E-05 -0.79060725966E-06 -0.91029188575E+03  0.10897081120E+04  0.59902625330E+03 0.  0.
         13    1    3    3    0    0 -0.41233937314E+02  0.15754032287E+03  0.21367878921E+01  0.16286115798E+03  0.00000000000E+00 0.  1.
          1    1    3    3  501    0  0.41233944095E+02 -0.15754032366E+03 -0.91242867365E+03  0.92684695404E+03  0.00000000000E+00 0.  1.
         21    1    1    2  502  501 -0.67813558815E-05  0.79060725697E-06  0.93744867897E-05  0.11597105242E-04  0.00000000000E+00 0. -1.
<mgrwt>
<rscale>  1 0.59902625E+03</rscale>
<asrwt>0</asrwt>
<pdfrwt beam="1">  1        1 0.32621205E+00 0.59902625E+03</pdfrwt>
<pdfrwt beam="2">0</pdfrwt>
<totfact> 0.28434918E+00</totfact>
</mgrwt>
</event>
<event>
 6    1  0.8377077E-003  0.6878004E+03  0.7818608E-02  0.9738326E-01
          1   -1    0    0  502    0  0.00000000000E+00  0.00000000000E+00  0.11842262475E+03  0.11842262475E+03  0.00000000000E+00 0.  1.
         13   -1    0    0    0    0 -0.00000000000E+00 -0.00000000000E+00 -0.10000000000E+04  0.10000000000E+04  0.00000000000E+00 0.  1.
    9000005    2    1    2  501    0 -0.10898868895E-01 -0.14610935742E-01 -0.88173205719E+03  0.11182668725E+04  0.68780039045E+03 0.  0.
         13    1    3    3    0    0 -0.64170931208E+02 -0.24151881603E+03 -0.56736145228E+02  0.25625814540E+03  0.00000000000E+00 0.  1.
          3    1    3    3  501    0  0.64160032339E+02  0.24150420509E+03 -0.82499591196E+03  0.86200872709E+03  0.00000000000E+00 0.  1.
         21    1    1    2  502  501  0.10898868895E-01  0.14610935742E-01  0.15468193356E+00  0.15575225635E+00  0.00000000000E+00 0.  1.
<mgrwt>
<rscale>  1 0.68780039E+03</rscale>
<asrwt>0</asrwt>
<pdfrwt beam="1">  1        1 0.43062863E+00 0.68780039E+03</pdfrwt>
<pdfrwt beam="2">0</pdfrwt>
<totfact> 0.96700475E-01</totfact>
</mgrwt>
</event>
<event>
 6    1  0.8377077E-003  0.6527183E+03  0.7818608E-02  0.9801692E-01
          1   -1    0    0  502    0  0.00000000000E+00  0.00000000000E+00  0.10661076914E+03  0.10661076914E+03  0.00000000000E+00 0.  1.
         13   -1    0    0    0    0 -0.00000000000E+00 -0.00000000000E+00 -0.10000000000E+04  0.10000000000E+04  0.00000000000E+00 0.  1.
    9000005    2    1    2  501    0 -0.50633852349E-02 -0.50355055385E-02 -0.89348955372E+03  0.11065101925E+04  0.65271833386E+03 0.  0.
         13    1    3    3    0    0 -0.22257575754E+03 -0.41522782398E+02 -0.48286367744E+02  0.23150741373E+03  0.00000000000E+00 0.  1.
          1    1    3    3  501    0  0.22257069415E+03  0.41517746893E+02 -0.84520318597E+03  0.87500277873E+03  0.00000000000E+00 0.  1.
         21    1    1    2  502  501  0.50633852349E-02  0.50355055385E-02  0.10032285388E+00  0.10057668317E+00  0.00000000000E+00 0. -1.
<mgrwt>
<rscale>  1 0.65271833E+03</rscale>
<asrwt>0</asrwt>
<pdfrwt beam="1">  1        1 0.38767634E+00 0.65271833E+03</pdfrwt>
<pdfrwt beam="2">0</pdfrwt>
<totfact> 0.15168681E+00</totfact>
</mgrwt>
</event>
