<event>
 6    1  0.1590038E-002  0.6506184E+03  0.7818608E-02  0.9805620E-01
          1   -1    0    0  502    0  0.00000000000E+00  0.00000000000E+00  0.10601191757E+03  0.10601191757E+03  0.00000000000E+00 0.  1.
         13   -1    0    0    0    0 -0.00000000000E+00 -0.00000000000E+00 -0.10000000000E+04  0.10000000000E+04  0.00000000000E+00 0.  1.
    9000005    2    1    2  501    0  0.18194802896E-01  0.37804326386E-02 -0.89417342556E+03  0.11058256451E+04  0.65061835365E+03 0.  0.
         13    1    3    3    0    0  0.27030430379E+03  0.18019746802E+03 -0.41785088225E+03  0.52927771909E+03  0.00000000000E+00 0.  1.
          3    1    3    3  501    0 -0.27028610898E+03 -0.18019368759E+03 -0.47632254331E+03  0.57654792605E+03  0.00000000000E+00 0.  1.
         21    1    1    2  502  501 -0.18194802896E-01 -0.37804326386E-02  0.18534313656E+00  0.18627243702E+00  0.00000000000E+00 0. -1.
<mgrwt>
<rscale>  1 0.65061835E+03</rscale>
<asrwt>0</asrwt>
<pdfrwt beam="1">  1        1 0.38549869E+00 0.65061835E+03</pdfrwt>
<pdfrwt beam="2">0</pdfrwt>
<totfact> 0.15515170E+00</totfact>
</mgrwt>
</event>
<event>
 6    1  0.1590038E-002  0.6493730E+03  0.7818608E-02  0.9807956E-01
          1   -1    0    0  502    0  0.00000000000E+00  0.00000000000E+00  0.10544861650E+03  0.10544861650E+03  0.00000000000E+00 0.  1.
         13   -1    0    0    0    0 -0.00000000000E+00 -0.00000000000E+00 -0.10000000000E+04  0.10000000000E+04  0.00000000000E+00 0.  1.
    9000005    2    1    2  501    0 -0.19583492828E-01  0.55754105127E-01 -0.89453733709E+03  0.11053878766E+04  0.64937301053E+03 0.  0.
         13    1    3    3    0    0 -0.11607421998E+03  0.10514016706E+03 -0.93145773734E+03  0.94453226293E+03  0.00000000000E+00 0.  1.
          1    1    3    3  501    0  0.11605463649E+03 -0.10508441295E+03  0.36920400251E+02  0.16085561367E+03  0.00000000000E+00 0.  1.
         21    1    1    2  502  501  0.19583492828E-01 -0.55754105127E-01 -0.14046410831E-01  0.60739896996E-01  0.00000000000E+00 0.  1.
<mgrwt>
<rscale>  1 0.64937301E+03</rscale>
<asrwt>0</asrwt>
<pdfrwt beam="1">  1        1 0.38345032E+00 0.64937301E+03</pdfrwt>
<pdfrwt beam="2">0</pdfrwt>
<totfact> 0.15845807E+00</totfact>
</mgrwt>
</event>
<event>
 6    1  0.1590038E-002  0.6550318E+03  0.7818608E-02  0.9797383E-01
          1   -1    0    0  502    0  0.00000000000E+00  0.00000000000E+00  0.11102614202E+03  0.11102614202E+03  0.00000000000E+00 0.  1.
         13   -1    0    0    0    0 -0.00000000000E+00 -0.00000000000E+00 -0.10000000000E+04  0.10000000000E+04  0.00000000000E+00 0.  1.
    9000005    2    1    2  501    0  0.38242923966E+01  0.38961533668E+01 -0.89039738151E+03  0.11053841882E+04  0.65500908495E+03 0.  0.
         13    1    3    3    0    0  0.19027250669E+03  0.12697828443E+03 -0.47826516312E+02  0.23369742655E+03  0.00000000000E+00 0.  1.
          3    1    3    3  501    0 -0.18644821429E+03 -0.12308213106E+03 -0.84257086519E+03  0.87168676167E+03  0.00000000000E+00 0.  1.
         21    1    1    2  502  501 -0.38242923966E+01 -0.38961533668E+01  0.14235235257E+01  0.56419537946E+01  0.00000000000E+00 0.  1.
<mgrwt>
<rscale>  1 0.65503184E+03</rscale>
<asrwt>0</asrwt>
<pdfrwt beam="1">  1        1 0.40373228E+00 0.65503184E+03</pdfrwt>
<pdfrwt beam="2">0</pdfrwt>
<totfact> 0.12863068E+00</totfact>
</mgrwt>
</event>
<event>
 6    1  0.1590038E-002  0.6420668E+03  0.7818608E-02  0.9821780E-01
          1   -1    0    0  502    0  0.00000000000E+00  0.00000000000E+00  0.10306661737E+03  0.10306661737E+03  0.00000000000E+00 0.  1.
         13   -1    0    0    0    0 -0.00000000000E+00 -0.00000000000E+00 -0.10000000000E+04  0.10000000000E+04  0.00000000000E+00 0.  1.
    9000005    2    1    2  501    0 -0.21836108877E-03 -0.99835493259E-02 -0.89690093805E+03  0.11030326708E+04  0.64206680345E+03 0.  0.
         13    1    3    3    0    0 -0.18471830726E+03  0.26038616793E+03 -0.50640029280E+03  0.59863433416E+03  0.00000000000E+00 0.  1.
          3    1    3    3  501    0  0.18471808890E+03 -0.26039615148E+03 -0.39050064525E+03  0.50439833665E+03  0.00000000000E+00 0.  1.
         21    1    1    2  502  501  0.21836108877E-03  0.99835493259E-02 -0.32444579572E-01  0.33946570995E-01  0.00000000000E+00 0. -1.
<mgrwt>
<rscale>  1 0.64206680E+03</rscale>
<asrwt>0</asrwt>
<pdfrwt beam="1">  1        1 0.37478849E+00 0.64206680E+03</pdfrwt>
<pdfrwt beam="2">0</pdfrwt>
<totfact> 0.17326047E+00</totfact>
</mgrwt>
</event>
<event>
 6    1  0.1590038E-002  0.6503410E+03  0.7818608E-02  0.9806140E-01
          1   -1    0    0  502    0  0.00000000000E+00  0.00000000000E+00  0.11349163489E+03  0.11349163489E+03  0.00000000000E+00 0.  1.
         13   -1    0    0    0    0 -0.00000000000E+00 -0.00000000000E+00 -0.10000000000E+04  0.10000000000E+04  0.00000000000E+00 0.  1.
    9000005    2    1    2  501    0 -0.17188452661E+02 -0.18576178573E+01 -0.83024942163E+03  0.10546361987E+04  0.65011115652E+03 0.  0.
         13    1    3    3    0    0 -0.16944666882E+03 -0.20689124364E+03 -0.10772753449E+03  0.28830779032E+03  0.00000000000E+00 0.  1.
          1    1    3    3  501    0  0.15225821616E+03  0.20503362579E+03 -0.72252188714E+03  0.76632840838E+03  0.00000000000E+00 0.  1.
         21    1    1    2  502  501  0.17188452661E+02  0.18576178573E+01 -0.56258943479E+02  0.58855436201E+02  0.00000000000E+00 0.  1.
<mgrwt>
<rscale>  1 0.65034099E+03</rscale>
<asrwt>0</asrwt>
<pdfrwt beam="1">  1        1 0.41269772E+00 0.65034099E+03</pdfrwt>
<pdfrwt beam="2">0</pdfrwt>
<totfact> 0.11737789E+00</totfact>
</mgrwt>
</event>
<event>
 6    1  0.1590038E-002  0.6475640E+03  0.7818608E-02  0.9811361E-01
          1   -1    0    0  502    0  0.00000000000E+00  0.00000000000E+00  0.10541494728E+03  0.10541494728E+03  0.00000000000E+00 0.  1.
         13   -1    0    0    0    0 -0.00000000000E+00 -0.00000000000E+00 -0.10000000000E+04  0.10000000000E+04  0.00000000000E+00 0.  1.
    9000005    2    1    2  501    0  0.26605657296E+00 -0.84873469633E-01 -0.89512784329E+03  0.11048045284E+04  0.64756398307E+03 0.  0.
         13    1    3    3    0    0  0.22449602005E+03  0.89725721648E+02 -0.80022077002E+02  0.25466193463E+03  0.00000000000E+00 0.  1.
          1    1    3    3  501    0 -0.22422996347E+03 -0.89810595118E+02 -0.81510576628E+03  0.85014259377E+03  0.00000000000E+00 0.  1.
         21    1    1    2  502  501 -0.26605657296E+00  0.84873469633E-01  0.54279056463E+00  0.61041887496E+00  0.00000000000E+00 0. -1.
<mgrwt>
<rscale>  1 0.64756404E+03</rscale>
<asrwt>0</asrwt>
<pdfrwt beam="1">  1        1 0.38332789E+00 0.64756404E+03</pdfrwt>
<pdfrwt beam="2">0</pdfrwt>
<totfact> 0.15870859E+00</totfact>
</mgrwt>
</event>
<event>
 6    1  0.1590038E-002  0.6425763E+03  0.7818608E-02  0.9820810E-01
          3   -1    0    0  502    0  0.00000000000E+00  0.00000000000E+00  0.10322785387E+03  0.10322785387E+03  0.00000000000E+00 0.  1.
         13   -1    0    0    0    0 -0.00000000000E+00 -0.00000000000E+00 -0.10000000000E+04  0.10000000000E+04  0.00000000000E+00 0.  1.
    9000005    2    1    2  501    0  0.40186147112E-03 -0.21137299204E-02 -0.89677315960E+03  0.11032254755E+04  0.64257633794E+03 0.  0.
         13    1    3    3    0    0 -0.18056792960E+03  0.15458007577E+03 -0.77262223586E+02  0.24993844886E+03  0.00000000000E+00 0.  1.
          3    1    3    3  501    0  0.18056833146E+03 -0.15458218950E+03 -0.81951093602E+03  0.85328702667E+03  0.00000000000E+00 0.  1.
         21    1    1    2  502  501 -0.40186147113E-03  0.21137299204E-02  0.10134681641E-02  0.23783323018E-02  0.00000000000E+00 0.  1.
<mgrwt>
<rscale>  1 0.64257634E+03</rscale>
<asrwt>0</asrwt>
<pdfrwt beam="1">  1        3 0.37537481E+00 0.64257634E+03</pdfrwt>
<pdfrwt beam="2">0</pdfrwt>
<totfact> 0.79948289E-02</totfact>
</mgrwt>
</event>
<event>
 6    1  0.1590038E-002  0.6213579E+03  0.7818608E-02  0.9862060E-01
          1   -1    0    0  502    0  0.00000000000E+00  0.00000000000E+00  0.96521406817E+02  0.96521406817E+02  0.00000000000E+00 0.  1.
         13   -1    0    0    0    0 -0.00000000000E+00 -0.00000000000E+00 -0.10000000000E+04  0.10000000000E+04  0.00000000000E+00 0.  1.
    9000005    2    1    2  501    0  0.79954490104E-05 -0.72697513644E-05 -0.90347859562E+03  0.10965213957E+04  0.62135786675E+03 0.  0.
         13    1    3    3    0    0 -0.12000457706E+03  0.20551363318E+03 -0.80417271428E+03  0.83864814215E+03  0.00000000000E+00 0.  1.
          3    1    3    3  501    0  0.12000458506E+03 -0.20551364045E+03 -0.99305881341E+02  0.25787325359E+03  0.00000000000E+00 0.  1.
         21    1    1    2  502  501 -0.79954490052E-05  0.72697513532E-05  0.24365994226E-05  0.11077612842E-04  0.00000000000E+00 0.  1.
<mgrwt>
<rscale>  1 0.62135787E+03</rscale>
<asrwt>0</asrwt>
<pdfrwt beam="1">  1        1 0.35098767E+00 0.62135787E+03</pdfrwt>
<pdfrwt beam="2">0</pdfrwt>
<totfact> 0.22108159E+00</totfact>
</mgrwt>
</event>
<event>
 6    1  0.1590038E-002  0.6491833E+03  0.7818608E-02  0.9808313E-01
          1   -1    0    0  502    0  0.00000000000E+00  0.00000000000E+00  0.10536084217E+03  0.10536084217E+03  0.00000000000E+00 0.  1.
         13   -1    0    0    0    0 -0.00000000000E+00 -0.00000000000E+00 -0.10000000000E+04  0.10000000000E+04  0.00000000000E+00 0.  1.
    9000005    2    1    2  501    0  0.46067800176E-03 -0.44263909666E-03 -0.89464014814E+03  0.11053596637E+04  0.64918332649E+03 0.  0.
         13    1    3    3    0    0  0.88407672445E+02 -0.33898901692E+02 -0.97596375673E+03  0.98054592271E+03  0.00000000000E+00 0.  1.
          3    1    3    3  501    0 -0.88407211767E+02  0.33898459053E+02  0.81323608590E+02  0.12481374096E+03  0.00000000000E+00 0.  1.
         21    1    1    2  502  501 -0.46067800175E-03  0.44263909667E-03  0.99031175805E-03  0.11785036993E-02  0.00000000000E+00 0. -1.
<mgrwt>
<rscale>  1 0.64918333E+03</rscale>
<asrwt>0</asrwt>
<pdfrwt beam="1">  1        1 0.38313114E+00 0.64918333E+03</pdfrwt>
<pdfrwt beam="2">0</pdfrwt>
<totfact> 0.15897914E+00</totfact>
</mgrwt>
</event>
<event>
 6    1  0.1590038E-002  0.6316244E+03  0.7818608E-02  0.9841884E-01
          1   -1    0    0  502    0  0.00000000000E+00  0.00000000000E+00  0.10705075274E+03  0.10705075274E+03  0.00000000000E+00 0.  1.
         13   -1    0    0    0    0 -0.00000000000E+00 -0.00000000000E+00 -0.10000000000E+04  0.10000000000E+04  0.00000000000E+00 0.  1.
    9000005    2    1    2  501    0  0.12984874883E+01  0.43073422448E+01 -0.89949442466E+03  0.10991085481E+04  0.63160837652E+03 0.  0.
         13    1    3    3    0    0 -0.25782936278E+03 -0.16328621307E+03 -0.31770622910E+03  0.44054014084E+03  0.00000000000E+00 0.  1.
          1    1    3    3  501    0  0.25912785027E+03  0.16759355532E+03 -0.58178819556E+03  0.65856840728E+03  0.00000000000E+00 0.  1.
         21    1    1    2  502  501 -0.12984874883E+01 -0.43073422448E+01  0.65451774019E+01  0.79422046180E+01  0.00000000000E+00 0. -1.
<mgrwt>
<rscale>  1 0.63162440E+03</rscale>
<asrwt>0</asrwt>
<pdfrwt beam="1">  1        1 0.38927629E+00 0.63162440E+03</pdfrwt>
<pdfrwt beam="2">0</pdfrwt>
<totfact> 0.14982482E+00</totfact>
</mgrwt>
</event>
<event>
 6    1  0.1590038E-002  0.4818759E+03  0.7818608E-02  0.1018621E+00
          1   -1    0    0  502    0  0.00000000000E+00  0.00000000000E+00  0.58085052249E+02  0.58085052249E+02  0.00000000000E+00 0.  1.
         13   -1    0    0    0    0 -0.00000000000E+00 -0.00000000000E+00 -0.10000000000E+04  0.10000000000E+04  0.00000000000E+00 0.  1.
    9000005    2    1    2  501    0 -0.49145031536E-01  0.82138725006E-01 -0.94186656143E+03  0.10579777991E+04  0.48187591210E+03 0.  0.
         13    1    3    3    0    0 -0.10188533481E+03 -0.67099493607E+01  0.82093714032E+01  0.10243553411E+03  0.00000000000E+00 0.  1.
          3    1    3    3  501    0  0.10183618978E+03  0.67920880857E+01 -0.95007593283E+03  0.95554226498E+03  0.00000000000E+00 0.  1.
         21    1    1    2  502  501  0.49145031536E-01 -0.82138725006E-01 -0.48386321751E-01  0.10725316034E+00  0.00000000000E+00 0.  1.
<mgrwt>
<rscale>  1 0.48187592E+03</rscale>
<asrwt>0</asrwt>
<pdfrwt beam="1">  1        1 0.21121882E+00 0.48187592E+03</pdfrwt>
<pdfrwt beam="2">0</pdfrwt>
<totfact> 0.91777154E+00</totfact>
</mgrwt>
</event>
<event>
 6    1  0.1590038E-002  0.6504090E+03  0.7818608E-02  0.9806012E-01
          1   -1    0    0  502    0  0.00000000000E+00  0.00000000000E+00  0.10576606152E+03  0.10576606152E+03  0.00000000000E+00 0.  1.
         13   -1    0    0    0    0 -0.00000000000E+00 -0.00000000000E+00 -0.10000000000E+04  0.10000000000E+04  0.00000000000E+00 0.  1.
    9000005    2    1    2  501    0 -0.17002051001E-02 -0.22857310759E-02 -0.89424175657E+03  0.11057577406E+04  0.65040899571E+03 0.  0.
         13    1    3    3    0    0 -0.21818205953E+03  0.17047610130E+03 -0.15714388610E+03  0.31837040244E+03  0.00000000000E+00 0.  1.
          3    1    3    3  501    0  0.21818035932E+03 -0.17047838703E+03 -0.73709787047E+03  0.78738733816E+03  0.00000000000E+00 0.  1.
         21    1    1    2  502  501  0.17002051001E-02  0.22857310759E-02  0.78180901717E-02  0.83209253011E-02  0.00000000000E+00 0. -1.
<mgrwt>
<rscale>  1 0.65040900E+03</rscale>
<asrwt>0</asrwt>
<pdfrwt beam="1">  1        1 0.38460467E+00 0.65040900E+03</pdfrwt>
<pdfrwt beam="2">0</pdfrwt>
<totfact> 0.15657698E+00</totfact>
</mgrwt>
</event>
<event>
 6    1  0.1590038E-002  0.6230900E+03  0.7818608E-02  0.9858627E-01
          1   -1    0    0  502    0  0.00000000000E+00  0.00000000000E+00  0.97089171392E+02  0.97089171392E+02  0.00000000000E+00 0.  1.
         13   -1    0    0    0    0 -0.00000000000E+00 -0.00000000000E+00 -0.10000000000E+04  0.10000000000E+04  0.00000000000E+00 0.  1.
    9000005    2    1    2  501    0 -0.48609144848E-02  0.53541355597E-02 -0.90293921492E+03  0.10970598784E+04  0.62309000230E+03 0.  0.
         13    1    3    3    0    0  0.16050838463E+03 -0.19814848591E+03 -0.13634515356E+03  0.28916390665E+03  0.00000000000E+00 0.  1.
          3    1    3    3  501    0 -0.16051324555E+03  0.19815384005E+03 -0.76659406135E+03  0.80789597178E+03  0.00000000000E+00 0.  1.
         21    1    1    2  502  501  0.48609144848E-02 -0.53541355597E-02  0.28386307893E-01  0.29292963882E-01  0.00000000000E+00 0.  1.
<mgrwt>
<rscale>  1 0.62309000E+03</rscale>
<asrwt>0</asrwt>
<pdfrwt beam="1">  1        1 0.35305228E+00 0.62309000E+03</pdfrwt>
<pdfrwt beam="2">0</pdfrwt>
<totfact> 0.21647871E+00</totfact>
</mgrwt>
</event>
<event>
 6    1  0.1590038E-002  0.6522039E+03  0.7818608E-02  0.9802652E-01
          1   -1    0    0  502    0  0.00000000000E+00  0.00000000000E+00  0.10802460529E+03  0.10802460529E+03  0.00000000000E+00 0.  1.
         13   -1    0    0    0    0 -0.00000000000E+00 -0.00000000000E+00 -0.10000000000E+04  0.10000000000E+04  0.00000000000E+00 0.  1.
    9000005    2    1    2  501    0  0.23204259373E-01  0.18471913073E-02 -0.89365741655E+03  0.11063424224E+04  0.65220393812E+03 0.  0.
         13    1    3    3    0    0 -0.74736256947E+02 -0.31501391046E+03 -0.51297803139E+03  0.60660179077E+03  0.00000000000E+00 0.  1.
          3    1    3    3  501    0  0.74759461207E+02  0.31501575765E+03 -0.38067938516E+03  0.49974063162E+03  0.00000000000E+00 0.  1.
         21    1    1    2  502  501 -0.23204259373E-01 -0.18471913073E-02  0.16820218318E+01  0.16821828950E+01  0.00000000000E+00 0.  1.
<mgrwt>
<rscale>  1 0.65220394E+03</rscale>
<asrwt>0</asrwt>
<pdfrwt beam="1">  1        1 0.39281757E+00 0.65220394E+03</pdfrwt>
<pdfrwt beam="2">0</pdfrwt>
<totfact> 0.14394219E+00</totfact>
</mgrwt>
</event>
<event>
 6    1  0.1590038E-002  0.6509247E+03  0.7818608E-02  0.9805046E-01
          1   -1    0    0  502    0  0.00000000000E+00  0.00000000000E+00  0.10592697760E+03  0.10592697760E+03  0.00000000000E+00 0.  1.
         13   -1    0    0    0    0 -0.00000000000E+00 -0.00000000000E+00 -0.10000000000E+04  0.10000000000E+04  0.00000000000E+00 0.  1.
    9000005    2    1    2  501    0  0.35666450518E-03 -0.33817181421E-03 -0.89407418969E+03  0.11059257111E+04  0.65092474351E+03 0.  0.
         13    1    3    3    0    0  0.23789515121E+03 -0.60421143744E+02 -0.81016819563E+03  0.84653252908E+03  0.00000000000E+00 0.  1.
          3    1    3    3  501    0 -0.23789479455E+03  0.60420805572E+02 -0.83905994061E+02  0.25939318198E+03  0.00000000000E+00 0.  1.
         21    1    1    2  502  501 -0.35666450516E-03  0.33817181421E-03  0.11672819387E-02  0.12665373542E-02  0.00000000000E+00 0. -1.
<mgrwt>
<rscale>  1 0.65092474E+03</rscale>
<asrwt>0</asrwt>
<pdfrwt beam="1">  1        1 0.38518982E+00 0.65092474E+03</pdfrwt>
<pdfrwt beam="2">0</pdfrwt>
<totfact> 0.15563183E+00</totfact>
</mgrwt>
</event>
<event>
 6    1  0.1590038E-002  0.6538735E+03  0.7818608E-02  0.9799538E-01
          1   -1    0    0  502    0  0.00000000000E+00  0.00000000000E+00  0.10777134096E+03  0.10777134096E+03  0.00000000000E+00 0.  1.
         13   -1    0    0    0    0 -0.00000000000E+00 -0.00000000000E+00 -0.10000000000E+04  0.10000000000E+04  0.00000000000E+00 0.  1.
    9000005    2    1    2  501    0 -0.25894977138E-02  0.26700968037E-01 -0.89311211981E+03  0.11068874730E+04  0.65387354941E+03 0.  0.
         13    1    3    3    0    0  0.20102817094E+03  0.22662655004E+02 -0.88132267219E+03  0.90424309451E+03  0.00000000000E+00 0.  1.
          1    1    3    3  501    0 -0.20103076044E+03 -0.22635954036E+02 -0.11789447613E+02  0.20264437849E+03  0.00000000000E+00 0.  1.
         21    1    1    2  502  501  0.25894977138E-02 -0.26700968037E-01  0.88346076661E+00  0.88386796148E+00  0.00000000000E+00 0. -1.
<mgrwt>
<rscale>  1 0.65387355E+03</rscale>
<asrwt>0</asrwt>
<pdfrwt beam="1">  1        1 0.39189661E+00 0.65387355E+03</pdfrwt>
<pdfrwt beam="2">0</pdfrwt>
<totfact> 0.14525852E+00</totfact>
</mgrwt>
</event>
<event>
 6    1  0.1590038E-002  0.6534457E+03  0.7818608E-02  0.9800335E-01
          1   -1    0    0  502    0  0.00000000000E+00  0.00000000000E+00  0.10674861816E+03  0.10674861816E+03  0.00000000000E+00 0.  1.
         13   -1    0    0    0    0 -0.00000000000E+00 -0.00000000000E+00 -0.10000000000E+04  0.10000000000E+04  0.00000000000E+00 0.  1.
    9000005    2    1    2  501    0 -0.15117325233E-04  0.37790238849E-05 -0.89325219472E+03  0.11067478051E+04  0.65344565251E+03 0.  0.
         13    1    3    3    0    0 -0.22663869630E+03 -0.12070330057E+03 -0.10445706834E+03  0.27721050585E+03  0.00000000000E+00 0.  1.
          3    1    3    3  501    0  0.22663868118E+03  0.12070330435E+03 -0.78879512639E+03  0.82953729928E+03  0.00000000000E+00 0.  1.
         21    1    1    2  502  501  0.15117325220E-04 -0.37790238750E-05  0.81287880290E-03  0.81302814388E-03  0.00000000000E+00 0. -1.
<mgrwt>
<rscale>  1 0.65344565E+03</rscale>
<asrwt>0</asrwt>
<pdfrwt beam="1">  1        1 0.38817761E+00 0.65344565E+03</pdfrwt>
<pdfrwt beam="2">0</pdfrwt>
<totfact> 0.15089289E+00</totfact>
</mgrwt>
</event>
<event>
 6    1  0.1590038E-002  0.5756860E+03  0.7818608E-02  0.9957175E-01
          1   -1    0    0  502    0  0.00000000000E+00  0.00000000000E+00  0.82885890446E+02  0.82885890446E+02  0.00000000000E+00 0.  1.
         13   -1    0    0    0    0 -0.00000000000E+00 -0.00000000000E+00 -0.10000000000E+04  0.10000000000E+04  0.00000000000E+00 0.  1.
    9000005    2    1    2  501    0 -0.37514637595E-01  0.27706327249E-01 -0.91712731668E+03  0.10828374197E+04  0.57568599100E+03 0.  0.
         13    1    3    3    0    0  0.45114265526E+02  0.25590206889E+03 -0.22563035347E+03  0.34413692366E+03  0.00000000000E+00 0.  1.
          1    1    3    3  501    0 -0.45151780163E+02 -0.25587436256E+03 -0.69149696321E+03  0.73870049601E+03  0.00000000000E+00 0.  1.
         21    1    1    2  502  501  0.37514637595E-01 -0.27706327249E-01  0.13207130820E-01  0.48470784066E-01  0.00000000000E+00 0.  1.
<mgrwt>
<rscale>  1 0.57568599E+03</rscale>
<asrwt>0</asrwt>
<pdfrwt beam="1">  1        1 0.30140387E+00 0.57568599E+03</pdfrwt>
<pdfrwt beam="2">0</pdfrwt>
<totfact> 0.36544462E+00</totfact>
</mgrwt>
</event>
<event>
 6    1  0.1590038E-002  0.6802569E+03  0.7818608E-02  0.9751604E-01
          1   -1    0    0  502    0  0.00000000000E+00  0.00000000000E+00  0.12368891213E+03  0.12368891213E+03  0.00000000000E+00 0.  1.
         13   -1    0    0    0    0 -0.00000000000E+00 -0.00000000000E+00 -0.10000000000E+04  0.10000000000E+04  0.00000000000E+00 0.  1.
    9000005    2    1    2  501    0 -0.38866149969E+01 -0.28966346003E+01 -0.88348464709E+03  0.11150311861E+04  0.68023961077E+03 0.  0.
         13    1    3    3    0    0 -0.17511352979E+03  0.26361772489E+03 -0.23792884502E+03  0.39594089014E+03  0.00000000000E+00 0.  1.
          1    1    3    3  501    0  0.17122691480E+03 -0.26651435949E+03 -0.64555580207E+03  0.71909029596E+03  0.00000000000E+00 0.  1.
         21    1    1    2  502  501  0.38866149969E+01  0.28966346003E+01  0.71735592166E+01  0.86577260280E+01  0.00000000000E+00 0.  1.
<mgrwt>
<rscale>  1 0.68025688E+03</rscale>
<asrwt>0</asrwt>
<pdfrwt beam="1">  1        1 0.44977881E+00 0.68025688E+03</pdfrwt>
<pdfrwt beam="2">0</pdfrwt>
<totfact> 0.79143175E-01</totfact>
</mgrwt>
</event>
<event>
 6    1  0.1590038E-002  0.6385189E+03  0.7818608E-02  0.9828564E-01
          1   -1    0    0  502    0  0.00000000000E+00  0.00000000000E+00  0.10192669944E+03  0.10192669944E+03  0.00000000000E+00 0.  1.
         13   -1    0    0    0    0 -0.00000000000E+00 -0.00000000000E+00 -0.10000000000E+04  0.10000000000E+04  0.00000000000E+00 0.  1.
    9000005    2    1    2  501    0 -0.39184291893E-04 -0.41041899602E-04 -0.89807339943E+03  0.11019265854E+04  0.63851888692E+03 0.  0.
         13    1    3    3    0    0  0.12962460701E+03  0.80362241695E+01 -0.95235211497E+03  0.96116682763E+03  0.00000000000E+00 0.  1.
          1    1    3    3  501    0 -0.12962464620E+03 -0.80362652114E+01  0.54278715539E+02  0.14075975782E+03  0.00000000000E+00 0.  1.
         21    1    1    2  502  501  0.39184291915E-04  0.41041899601E-04  0.98866639613E-04  0.11399323964E-03  0.00000000000E+00 0.  1.
<mgrwt>
<rscale>  1 0.63851889E+03</rscale>
<asrwt>0</asrwt>
<pdfrwt beam="1">  1        1 0.37064332E+00 0.63851889E+03</pdfrwt>
<pdfrwt beam="2">0</pdfrwt>
<totfact> 0.18080400E+00</totfact>
</mgrwt>
</event>
<event>
 6    1  0.1590038E-002  0.6600365E+03  0.7818608E-02  0.9788127E-01
          1   -1    0    0  502    0  0.00000000000E+00  0.00000000000E+00  0.10891204606E+03  0.10891204606E+03  0.00000000000E+00 0.  1.
         13   -1    0    0    0    0 -0.00000000000E+00 -0.00000000000E+00 -0.10000000000E+04  0.10000000000E+04  0.00000000000E+00 0.  1.
    9000005    2    1    2  501    0  0.40698289467E-05  0.27018000424E-05 -0.89108795215E+03  0.11089120409E+04  0.66003649587E+03 0.  0.
         13    1    3    3    0    0 -0.17813260227E+03  0.21945918337E+03 -0.15934601877E+03  0.32447605590E+03  0.00000000000E+00 0.  1.
          3    1    3    3  501    0  0.17813260634E+03 -0.21945918066E+03 -0.73174193338E+03  0.78443598495E+03  0.00000000000E+00 0.  1.
         21    1    1    2  502  501 -0.40698289483E-05 -0.27018000284E-05 -0.17891022506E-05  0.52023185144E-05  0.00000000000E+00 0.  1.
<mgrwt>
<rscale>  1 0.66003650E+03</rscale>
<asrwt>0</asrwt>
<pdfrwt beam="1">  1        1 0.39604464E+00 0.66003650E+03</pdfrwt>
<pdfrwt beam="2">0</pdfrwt>
<totfact> 0.13906202E+00</totfact>
</mgrwt>
</event>
<event>
 6    1  0.1590038E-002  0.6479198E+03  0.7818608E-02  0.9810690E-01
          1   -1    0    0  502    0  0.00000000000E+00  0.00000000000E+00  0.10495136447E+03  0.10495136447E+03  0.00000000000E+00 0.  1.
         13   -1    0    0    0    0 -0.00000000000E+00 -0.00000000000E+00 -0.10000000000E+04  0.10000000000E+04  0.00000000000E+00 0.  1.
    9000005    2    1    2  501    0 -0.71362368823E-03 -0.24300492337E-02 -0.89504855152E+03  0.11049488304E+04  0.64791975448E+03 0.  0.
         13    1    3    3    0    0  0.14412573936E+03  0.19159008137E+03 -0.81908618247E+03  0.85345249566E+03  0.00000000000E+00 0.  1.
          3    1    3    3  501    0 -0.14412645299E+03 -0.19159251142E+03 -0.75962369044E+02  0.25149633475E+03  0.00000000000E+00 0.  1.
         21    1    1    2  502  501  0.71362368824E-03  0.24300492338E-02 -0.84018092562E-04  0.25340594087E-02  0.00000000000E+00 0. -1.
<mgrwt>
<rscale>  1 0.64791975E+03</rscale>
<asrwt>0</asrwt>
<pdfrwt beam="1">  1        1 0.38164213E+00 0.64791975E+03</pdfrwt>
<pdfrwt beam="2">0</pdfrwt>
<totfact> 0.16144286E+00</totfact>
</mgrwt>
</event>
<event>
 6    1  0.1590038E-002  0.6220493E+03  0.7818608E-02  0.9860688E-01
          1   -1    0    0  502    0  0.00000000000E+00  0.00000000000E+00  0.96736741267E+02  0.96736741267E+02  0.00000000000E+00 0.  1.
         13   -1    0    0    0    0 -0.00000000000E+00 -0.00000000000E+00 -0.10000000000E+04  0.10000000000E+04  0.00000000000E+00 0.  1.
    9000005    2    1    2  501    0  0.82437301472E-03  0.77124815310E-03 -0.90326249379E+03  0.10967353776E+04  0.62204931944E+03 0.  0.
         13    1    3    3    0    0  0.24382290484E+03 -0.97973226397E+02 -0.15825618372E+03  0.30674644530E+03  0.00000000000E+00 0.  1.
          3    1    3    3  501    0 -0.24382208047E+03  0.97973997645E+02 -0.74500631007E+03  0.78998893231E+03  0.00000000000E+00 0.  1.
         21    1    1    2  502  501 -0.82437301473E-03 -0.77124815310E-03 -0.76494548999E-03  0.13636554491E-02  0.00000000000E+00 0.  1.
<mgrwt>
<rscale>  1 0.62204932E+03</rscale>
<asrwt>0</asrwt>
<pdfrwt beam="1">  1        1 0.35177071E+00 0.62204932E+03</pdfrwt>
<pdfrwt beam="2">0</pdfrwt>
<totfact> 0.21932351E+00</totfact>
</mgrwt>
</event>
<event>
 6    1  0.1590038E-002  0.6467030E+03  0.7818608E-02  0.9812986E-01
          1   -1    0    0  502    0  0.00000000000E+00  0.00000000000E+00  0.11983135427E+03  0.11983135427E+03  0.00000000000E+00 0.  1.
         13   -1    0    0    0    0 -0.00000000000E+00 -0.00000000000E+00 -0.10000000000E+04  0.10000000000E+04  0.00000000000E+00 0.  1.
    9000005    2    1    2  501    0  0.10576339002E+00 -0.19200676390E+00 -0.89544295160E+03  0.11045554755E+04  0.64670292317E+03 0.  0.
         13    1    3    3    0    0 -0.12957106678E+03  0.21692306390E+03 -0.10321503709E+03  0.27294252303E+03  0.00000000000E+00 0.  1.
          3    1    3    3  501    0  0.12967683017E+03 -0.21711507066E+03 -0.79222791451E+03  0.83161295247E+03  0.00000000000E+00 0.  1.
         21    1    1    2  502  501 -0.10576339002E+00  0.19200676390E+00  0.15274305862E+02  0.15275878765E+02  0.00000000000E+00 0. -1.
<mgrwt>
<rscale>  1 0.64670296E+03</rscale>
<asrwt>0</asrwt>
<pdfrwt beam="1">  1        1 0.43575130E+00 0.64670296E+03</pdfrwt>
<pdfrwt beam="2">0</pdfrwt>
<totfact> 0.92393970E-01</totfact>
</mgrwt>
</event>
<event>
 6    1  0.1590038E-002  0.6480222E+03  0.7818608E-02  0.9810497E-01
          1   -1    0    0  502    0  0.00000000000E+00  0.00000000000E+00  0.10503078203E+03  0.10503078203E+03  0.00000000000E+00 0.  1.
         13   -1    0    0    0    0 -0.00000000000E+00 -0.00000000000E+00 -0.10000000000E+04  0.10000000000E+04  0.00000000000E+00 0.  1.
    9000005    2    1    2  501    0  0.93193526232E-03 -0.79836923159E-03 -0.89501679700E+03  0.11049831872E+04  0.64802220412E+03 0.  0.
         13    1    3    3    0    0  0.30012953228E+03  0.80873890680E+02 -0.29155324209E+03  0.42617087572E+03  0.00000000000E+00 0.  1.
          3    1    3    3  501    0 -0.30012860035E+03 -0.80874689049E+02 -0.60346355491E+03  0.67881231146E+03  0.00000000000E+00 0.  1.
         21    1    1    2  502  501 -0.93193526232E-03  0.79836923159E-03  0.47579032864E-01  0.47594855448E-01  0.00000000000E+00 0. -1.
<mgrwt>
<rscale>  1 0.64802220E+03</rscale>
<asrwt>0</asrwt>
<pdfrwt beam="1">  1        1 0.38193092E+00 0.64802220E+03</pdfrwt>
<pdfrwt beam="2">0</pdfrwt>
<totfact> 0.16096643E+00</totfact>
</mgrwt>
</event>
<event>
 6    1  0.1590038E-002  0.6525132E+03  0.7818608E-02  0.9802075E-01
          1   -1    0    0  502    0  0.00000000000E+00  0.00000000000E+00  0.10646004477E+03  0.10646004477E+03  0.00000000000E+00 0.  1.
         13   -1    0    0    0    0 -0.00000000000E+00 -0.00000000000E+00 -0.10000000000E+04  0.10000000000E+04  0.00000000000E+00 0.  1.
    9000005    2    1    2  501    0  0.28553914685E-02  0.95837157727E-03 -0.89355646772E+03  0.11064432598E+04  0.65251323836E+03 0.  0.
         13    1    3    3    0    0  0.59782467729E+02  0.12806140127E+03 -0.94540215414E+03  0.95590736947E+03  0.00000000000E+00 0.  1.
          1    1    3    3  501    0 -0.59779612338E+02 -0.12806044290E+03  0.51845686429E+02  0.15053589037E+03  0.00000000000E+00 0.  1.
         21    1    1    2  502  501 -0.28553914685E-02 -0.95837157726E-03  0.16512483180E-01  0.16784928874E-01  0.00000000000E+00 0. -1.
<mgrwt>
<rscale>  1 0.65251324E+03</rscale>
<asrwt>0</asrwt>
<pdfrwt beam="1">  1        1 0.38712825E+00 0.65251324E+03</pdfrwt>
<pdfrwt beam="2">0</pdfrwt>
<totfact> 0.15254277E+00</totfact>
</mgrwt>
</event>
<event>
 6    1  0.1590038E-002  0.6468298E+03  0.7818608E-02  0.9812746E-01
          1   -1    0    0  502    0  0.00000000000E+00  0.00000000000E+00  0.10477379782E+03  0.10477379782E+03  0.00000000000E+00 0.  1.
         13   -1    0    0    0    0 -0.00000000000E+00 -0.00000000000E+00 -0.10000000000E+04  0.10000000000E+04  0.00000000000E+00 0.  1.
    9000005    2    1    2  501    0  0.40376460260E-01 -0.52897365277E-02 -0.89540020681E+03  0.11045950918E+04  0.64682979581E+03 0.  0.
         13    1    3    3    0    0  0.20269715145E+03  0.24637243348E+03 -0.53837721869E+03  0.62580791046E+03  0.00000000000E+00 0.  1.
          3    1    3    3  501    0 -0.20265677499E+03 -0.24637772322E+03 -0.35702298812E+03  0.47878718131E+03  0.00000000000E+00 0.  1.
         21    1    1    2  502  501 -0.40376460260E-01  0.52897365277E-02  0.17400463344E+00  0.17870605002E+00  0.00000000000E+00 0.  1.
<mgrwt>
<rscale>  1 0.64682980E+03</rscale>
<asrwt>0</asrwt>
<pdfrwt beam="1">  1        1 0.38099643E+00 0.64682980E+03</pdfrwt>
<pdfrwt beam="2">0</pdfrwt>
<totfact> 0.16253869E+00</totfact>
</mgrwt>
</event>
<event>
 6    1  0.1590038E-002  0.6343779E+03  0.7818608E-02  0.9836543E-01
          1   -1    0    0  502    0  0.00000000000E+00  0.00000000000E+00  0.10060935198E+03  0.10060935198E+03  0.00000000000E+00 0.  1.
         13   -1    0    0    0    0 -0.00000000000E+00 -0.00000000000E+00 -0.10000000000E+04  0.10000000000E+04  0.00000000000E+00 0.  1.
    9000005    2    1    2  501    0  0.12837276756E-04 -0.20297240326E-04 -0.89939117321E+03  0.11006088262E+04  0.63437788891E+03 0.  0.
         13    1    3    3    0    0 -0.19551149445E+03  0.24666881583E+03 -0.51774798710E+03  0.60591519812E+03  0.00000000000E+00 0.  1.
          3    1    3    3  501    0  0.19551150729E+03 -0.24666883613E+03 -0.38164318611E+03  0.49469362812E+03  0.00000000000E+00 0.  1.
         21    1    1    2  502  501 -0.12837276745E-04  0.20297240344E-04  0.52519081118E-03  0.52573963307E-03  0.00000000000E+00 0.  1.
<mgrwt>
<rscale>  1 0.63437789E+03</rscale>
<asrwt>0</asrwt>
<pdfrwt beam="1">  1        1 0.36585296E+00 0.63437789E+03</pdfrwt>
<pdfrwt beam="2">0</pdfrwt>
<totfact> 0.18991423E+00</totfact>
</mgrwt>
</event>
<event>
 6    1  0.1590038E-002  0.6544388E+03  0.7818608E-02  0.9798486E-01
          1   -1    0    0  502    0  0.00000000000E+00  0.00000000000E+00  0.10708571287E+03  0.10708571287E+03  0.00000000000E+00 0.  1.
         13   -1    0    0    0    0 -0.00000000000E+00 -0.00000000000E+00 -0.10000000000E+04  0.10000000000E+04  0.00000000000E+00 0.  1.
    9000005    2    1    2  501    0  0.17094149421E-01  0.15317699082E-01 -0.89291531696E+03  0.11070627367E+04  0.65443879721E+03 0.  0.
         13    1    3    3    0    0 -0.18127539517E+03  0.22500162666E+03 -0.70625521721E+03  0.76307465738E+03  0.00000000000E+00 0.  1.
          1    1    3    3  501    0  0.18129248932E+03 -0.22498630897E+03 -0.18666009975E+03  0.34398807936E+03  0.00000000000E+00 0.  1.
         21    1    1    2  502  501 -0.17094149421E-01 -0.15317699082E-01  0.10298216801E-02  0.22976126355E-01  0.00000000000E+00 0.  1.
<mgrwt>
<rscale>  1 0.65443880E+03</rscale>
<asrwt>0</asrwt>
<pdfrwt beam="1">  1        1 0.38940341E+00 0.65443880E+03</pdfrwt>
<pdfrwt beam="2">0</pdfrwt>
<totfact> 0.14898967E+00</totfact>
</mgrwt>
</event>
<event>
 6    1  0.1590038E-002  0.6475594E+03  0.7818608E-02  0.9811370E-01
          1   -1    0    0  502    0  0.00000000000E+00  0.00000000000E+00  0.10483707044E+03  0.10483707044E+03  0.00000000000E+00 0.  1.
         13   -1    0    0    0    0 -0.00000000000E+00 -0.00000000000E+00 -0.10000000000E+04  0.10000000000E+04  0.00000000000E+00 0.  1.
    9000005    2    1    2  501    0 -0.11118997338E-03 -0.42089155363E-03 -0.89516670763E+03  0.11048332674E+04  0.64755935190E+03 0.  0.
         13    1    3    3    0    0 -0.21266792272E+03 -0.10037063258E+03 -0.82729837689E+03  0.86007238861E+03  0.00000000000E+00 0.  1.
          3    1    3    3  501    0  0.21266781153E+03  0.10037021169E+03 -0.67868330740E+02  0.24476087876E+03  0.00000000000E+00 0.  1.
         21    1    1    2  502  501  0.11118997341E-03  0.42089155364E-03  0.37780737904E-02  0.38030717159E-02  0.00000000000E+00 0.  1.
<mgrwt>
<rscale>  1 0.64755935E+03</rscale>
<asrwt>0</asrwt>
<pdfrwt beam="1">  1        1 0.38122651E+00 0.64755935E+03</pdfrwt>
<pdfrwt beam="2">0</pdfrwt>
<totfact> 0.16213723E+00</totfact>
</mgrwt>
</event>
<event>
 6    1  0.1590038E-002  0.6454018E+03  0.7818608E-02  0.9815446E-01
          1   -1    0    0  502    0  0.00000000000E+00  0.00000000000E+00  0.10518544747E+03  0.10518544747E+03  0.00000000000E+00 0.  1.
         13   -1    0    0    0    0 -0.00000000000E+00 -0.00000000000E+00 -0.10000000000E+04  0.10000000000E+04  0.00000000000E+00 0.  1.
    9000005    2    1    2  501    0  0.35802555248E+00  0.46884742082E-01 -0.89582974521E+03  0.11041079519E+04  0.64540166310E+03 0.  0.
         13    1    3    3    0    0 -0.51789986703E+02 -0.31427949744E+03 -0.53588700300E+03  0.62340090248E+03  0.00000000000E+00 0.  1.
          3    1    3    3  501    0  0.52148012255E+02  0.31432638218E+03 -0.35994274221E+03  0.48070704945E+03  0.00000000000E+00 0.  1.
         21    1    1    2  502  501 -0.35802555248E+00 -0.46884742082E-01  0.10151926717E+01  0.10774955387E+01  0.00000000000E+00 0.  1.
<mgrwt>
<rscale>  1 0.64540176E+03</rscale>
<asrwt>0</asrwt>
<pdfrwt beam="1">  1        1 0.38249334E+00 0.64540176E+03</pdfrwt>
<pdfrwt beam="2">0</pdfrwt>
<totfact> 0.16012576E+00</totfact>
</mgrwt>
</event>
<event>
 6    1  0.1590038E-002  0.6609703E+03  0.7818608E-02  0.9786409E-01
          1   -1    0    0  502    0  0.00000000000E+00  0.00000000000E+00  0.10936757466E+03  0.10936757466E+03  0.00000000000E+00 0.  1.
         13   -1    0    0    0    0 -0.00000000000E+00 -0.00000000000E+00 -0.10000000000E+04  0.10000000000E+04  0.00000000000E+00 0.  1.
    9000005    2    1    2  501    0  0.62777185130E-02 -0.32166035882E-03 -0.89077949165E+03  0.11092203741E+04  0.66097029847E+03 0.  0.
         13    1    3    3    0    0 -0.51489697828E+02 -0.49616735374E+02  0.96083005655E+02  0.11977041950E+03  0.00000000000E+00 0.  1.
          3    1    3    3  501    0  0.51495975547E+02  0.49616413713E+02 -0.98686249731E+03  0.98944995457E+03  0.00000000000E+00 0.  1.
         21    1    1    2  502  501 -0.62777185130E-02  0.32166035882E-03  0.14706631044E+00  0.14720058723E+00  0.00000000000E+00 0. -1.
<mgrwt>
<rscale>  1 0.66097030E+03</rscale>
<asrwt>0</asrwt>
<pdfrwt beam="1">  1        1 0.39770111E+00 0.66097030E+03</pdfrwt>
<pdfrwt beam="2">0</pdfrwt>
<totfact> 0.13669706E+00</totfact>
</mgrwt>
</event>
<event>
 6    1  0.1590038E-002  0.6563789E+03  0.7818608E-02  0.9794883E-01
          1   -1    0    0  502    0  0.00000000000E+00  0.00000000000E+00  0.10772419717E+03  0.10772419717E+03  0.00000000000E+00 0.  1.
         13   -1    0    0    0    0 -0.00000000000E+00 -0.00000000000E+00 -0.10000000000E+04  0.10000000000E+04  0.00000000000E+00 0.  1.
    9000005    2    1    2  501    0  0.11529552531E-01  0.37894502878E-02 -0.89228906488E+03  0.11077062202E+04  0.65637892620E+03 0.  0.
         13    1    3    3    0    0  0.27631874143E+03  0.17665626069E+03 -0.46700636163E+03  0.57066139093E+03  0.00000000000E+00 0.  1.
          1    1    3    3  501    0 -0.27630721188E+03 -0.17665247123E+03 -0.42528270325E+03  0.53704482924E+03  0.00000000000E+00 0.  1.
         21    1    1    2  502  501 -0.11529552531E-01 -0.37894502878E-02  0.13262050137E-01  0.17976998884E-01  0.00000000000E+00 0. -1.
<mgrwt>
<rscale>  1 0.65637893E+03</rscale>
<asrwt>0</asrwt>
<pdfrwt beam="1">  1        1 0.39172518E+00 0.65637893E+03</pdfrwt>
<pdfrwt beam="2">0</pdfrwt>
<totfact> 0.14544547E+00</totfact>
</mgrwt>
</event>
<event>
 6    1  0.1590038E-002  0.6836029E+03  0.7818608E-02  0.9745692E-01
          1   -1    0    0  502    0  0.00000000000E+00  0.00000000000E+00  0.11682976796E+03  0.11682976796E+03  0.00000000000E+00 0.  1.
         13   -1    0    0    0    0 -0.00000000000E+00 -0.00000000000E+00 -0.10000000000E+04  0.10000000000E+04  0.00000000000E+00 0.  1.
    9000005    2    1    2  501    0 -0.44284931576E-04 -0.52443868753E-04 -0.88317175099E+03  0.11168282475E+04  0.68360294951E+03 0.  0.
         13    1    3    3    0    0  0.10073098952E+03 -0.24374051800E+03 -0.79679560747E+03  0.83930888977E+03  0.00000000000E+00 0.  1.
          3    1    3    3  501    0 -0.10073103380E+03  0.24374046556E+03 -0.86376143518E+02  0.27751935769E+03  0.00000000000E+00 0.  1.
         21    1    1    2  502  501  0.44284931582E-04  0.52443868736E-04  0.15189503971E-02  0.15205005174E-02  0.00000000000E+00 0.  1.
<mgrwt>
<rscale>  1 0.68360295E+03</rscale>
<asrwt>0</asrwt>
<pdfrwt beam="1">  1        1 0.42483642E+00 0.68360295E+03</pdfrwt>
<pdfrwt beam="2">0</pdfrwt>
<totfact> 0.10281663E+00</totfact>
</mgrwt>
</event>
<event>
 6    1  0.1590038E-002  0.6320048E+03  0.7818608E-02  0.9841144E-01
          1   -1    0    0  502    0  0.00000000000E+00  0.00000000000E+00  0.10348427838E+03  0.10348427838E+03  0.00000000000E+00 0.  1.
         13   -1    0    0    0    0 -0.00000000000E+00 -0.00000000000E+00 -0.10000000000E+04  0.10000000000E+04  0.00000000000E+00 0.  1.
    9000005    2    1    2  501    0  0.60835498463E-01  0.31298711886E-01 -0.90014212238E+03  0.10998572323E+04  0.63200481513E+03 0.  0.
         13    1    3    3    0    0 -0.14521441073E+03 -0.26693313446E+03 -0.29932268216E+03  0.42653791322E+03  0.00000000000E+00 0.  1.
          3    1    3    3  501    0  0.14527524623E+03  0.26696443317E+03 -0.60081944022E+03  0.67331931911E+03  0.00000000000E+00 0.  1.
         21    1    1    2  502  501 -0.60835498463E-01 -0.31298711886E-01  0.36264007608E+01  0.36270460495E+01  0.00000000000E+00 0. -1.
<mgrwt>
<rscale>  1 0.63200482E+03</rscale>
<asrwt>0</asrwt>
<pdfrwt beam="1">  1        1 0.37630726E+00 0.63200482E+03</pdfrwt>
<pdfrwt beam="2">0</pdfrwt>
<totfact> 0.17093066E+00</totfact>
</mgrwt>
</event>
<event>
 6    1  0.1590038E-002  0.5505635E+03  0.7818608E-02  0.1001364E+00
          1   -1    0    0  502    0  0.00000000000E+00  0.00000000000E+00  0.75782796286E+02  0.75782796286E+02  0.00000000000E+00 0.  1.
         13   -1    0    0    0    0 -0.00000000000E+00 -0.00000000000E+00 -0.10000000000E+04  0.10000000000E+04  0.00000000000E+00 0.  1.
    9000005    2    1    2  501    0 -0.29476632335E-05 -0.19563395401E-03 -0.92421996811E+03  0.10757800250E+04  0.55056345020E+03 0.  0.
         13    1    3    3    0    0  0.13391529306E+03  0.23424754118E+03 -0.35553799895E+03  0.44633225848E+03  0.00000000000E+00 0.  1.
          3    1    3    3  501    0 -0.13391529601E+03 -0.23424773681E+03 -0.56868196915E+03  0.62944776650E+03  0.00000000000E+00 0.  1.
         21    1    1    2  502  501  0.29476632242E-05  0.19563395402E-03  0.27643914488E-02  0.27713068064E-02  0.00000000000E+00 0.  1.
<mgrwt>
<rscale>  1 0.55056345E+03</rscale>
<asrwt>0</asrwt>
<pdfrwt beam="1">  1        1 0.27557439E+00 0.55056345E+03</pdfrwt>
<pdfrwt beam="2">0</pdfrwt>
<totfact> 0.47443096E+00</totfact>
</mgrwt>
</event>
<event>
 6    1  0.1590038E-002  0.6461325E+03  0.7818608E-02  0.9814063E-01
          1   -1    0    0  502    0  0.00000000000E+00  0.00000000000E+00  0.10437180566E+03  0.10437180566E+03  0.00000000000E+00 0.  1.
         13   -1    0    0    0    0 -0.00000000000E+00 -0.00000000000E+00 -0.10000000000E+04  0.10000000000E+04  0.00000000000E+00 0.  1.
    9000005    2    1    2  501    0  0.13462320823E-05 -0.21911228600E-05 -0.89562819412E+03  0.11043718031E+04  0.64613250757E+03 0.  0.
         13    1    3    3    0    0  0.81732351952E+02  0.30690012424E+03 -0.34663936479E+03  0.47013478156E+03  0.00000000000E+00 0.  1.
          3    1    3    3  501    0 -0.81732350605E+02 -0.30690012643E+03 -0.54898882933E+03  0.63423702152E+03  0.00000000000E+00 0.  1.
         21    1    1    2  502  501 -0.13462320851E-05  0.21911228936E-05 -0.21960576540E-06  0.25810050473E-05  0.00000000000E+00 0.  1.
<mgrwt>
<rscale>  1 0.64613251E+03</rscale>
<asrwt>0</asrwt>
<pdfrwt beam="1">  1        1 0.37953464E+00 0.64613251E+03</pdfrwt>
<pdfrwt beam="2">0</pdfrwt>
<totfact> 0.16499206E+00</totfact>
</mgrwt>
</event>
