<event>
 6    1  0.2475480E-003  0.6687633E+03  0.7818608E-02  0.9772194E-01
          1   -1    0    0  502    0  0.00000000000E+00  0.00000000000E+00  0.11182271263E+03  0.11182271263E+03  0.00000000000E+00 0.  1.
         13   -1    0    0    0    0 -0.00000000000E+00 -0.00000000000E+00 -0.10000000000E+04  0.10000000000E+04  0.00000000000E+00 0.  1.
    9000005    2    1    2  501    0 -0.12705987535E-02  0.10905678676E-02 -0.88818883654E+03  0.11118110427E+04  0.66876332533E+03 0.  0.
         13    1    3    3    0    0 -0.57003654793E+02  0.32851956468E+03 -0.40213577472E+03  0.52238654495E+03  0.00000000000E+00 0.  1.
          1    1    3    3  501    0  0.57002384194E+02 -0.32851847411E+03 -0.48605306183E+03  0.58942449775E+03  0.00000000000E+00 0.  1.
         21    1    1    2  502  501  0.12705987535E-02 -0.10905678676E-02  0.11549171612E-01  0.11669923924E-01  0.00000000000E+00 0. -1.
<mgrwt>
<rscale>  1 0.66876333E+03</rscale>
<asrwt>0</asrwt>
<pdfrwt beam="1">  1        1 0.40662890E+00 0.66876333E+03</pdfrwt>
<pdfrwt beam="2">0</pdfrwt>
<totfact> 0.12452672E+00</totfact>
</mgrwt>
</event>
<event>
 6    1  0.2475480E-003  0.6489872E+03  0.7818608E-02  0.9808682E-01
          1   -1    0    0  502    0  0.00000000000E+00  0.00000000000E+00  0.10536103749E+03  0.10536103749E+03  0.00000000000E+00 0.  1.
         13   -1    0    0    0    0 -0.00000000000E+00 -0.00000000000E+00 -0.10000000000E+04  0.10000000000E+04  0.00000000000E+00 0.  1.
    9000005    2    1    2  501    0 -0.60798003986E-01 -0.16295795905E-01 -0.89468661123E+03  0.11052820923E+04  0.64898718568E+03 0.  0.
         13    1    3    3    0    0  0.29881168029E+03  0.12352072469E+03 -0.40128169292E+03  0.51533754644E+03  0.00000000000E+00 0.  1.
          1    1    3    3  501    0 -0.29887247829E+03 -0.12353702049E+03 -0.49340491831E+03  0.58994454581E+03  0.00000000000E+00 0.  1.
         21    1    1    2  502  501  0.60798003986E-01  0.16295795905E-01  0.47648723827E-01  0.78945241371E-01  0.00000000000E+00 0.  1.
<mgrwt>
<rscale>  1 0.64898719E+03</rscale>
<asrwt>0</asrwt>
<pdfrwt beam="1">  1        1 0.38313185E+00 0.64898719E+03</pdfrwt>
<pdfrwt beam="2">0</pdfrwt>
<totfact> 0.15898374E+00</totfact>
</mgrwt>
</event>
<event>
 6    1  0.2475480E-003  0.6449306E+03  0.7818608E-02  0.9816338E-01
          1   -1    0    0  502    0  0.00000000000E+00  0.00000000000E+00  0.10400188811E+03  0.10400188811E+03  0.00000000000E+00 0.  1.
         13   -1    0    0    0    0 -0.00000000000E+00 -0.00000000000E+00 -0.10000000000E+04  0.10000000000E+04  0.00000000000E+00 0.  1.
    9000005    2    1    2  501    0  0.13077105663E-03 -0.14132445452E-02 -0.89601609994E+03  0.11039838442E+04  0.64493059844E+03 0.  0.
         13    1    3    3    0    0 -0.60375853118E+02 -0.58416483263E+02 -0.98093844802E+03  0.98452931290E+03  0.00000000000E+00 0.  1.
          1    1    3    3  501    0  0.60375983889E+02  0.58415070019E+02  0.84922348075E+02  0.11945453126E+03  0.00000000000E+00 0.  1.
         21    1    1    2  502  501 -0.13077105662E-03  0.14132445452E-02  0.17988046241E-01  0.18043951031E-01  0.00000000000E+00 0. -1.
<mgrwt>
<rscale>  1 0.64493060E+03</rscale>
<asrwt>0</asrwt>
<pdfrwt beam="1">  1        1 0.37818948E+00 0.64493060E+03</pdfrwt>
<pdfrwt beam="2">0</pdfrwt>
<totfact> 0.16729801E+00</totfact>
</mgrwt>
</event>
<event>
 6    1  0.2475480E-003  0.6742021E+03  0.7818608E-02  0.9762396E-01
          1   -1    0    0  502    0  0.00000000000E+00  0.00000000000E+00  0.11384618299E+03  0.11384618299E+03  0.00000000000E+00 0.  1.
         13   -1    0    0    0    0 -0.00000000000E+00 -0.00000000000E+00 -0.10000000000E+04  0.10000000000E+04  0.00000000000E+00 0.  1.
    9000005    2    1    2  501    0  0.17731666142E+00  0.60717272386E-01 -0.88631499538E+03  0.11135989862E+04  0.67420204383E+03 0.  0.
         13    1    3    3    0    0 -0.69247874807E+02 -0.32971691220E+03 -0.45930196259E+03  0.56961987605E+03  0.00000000000E+00 0.  1.
          3    1    3    3  501    0  0.69425191468E+02  0.32977762947E+03 -0.42701303279E+03  0.54397911015E+03  0.00000000000E+00 0.  1.
         21    1    1    2  502  501 -0.17731666142E+00 -0.60717272386E-01  0.16117836552E+00  0.24719678617E+00  0.00000000000E+00 0. -1.
<mgrwt>
<rscale>  1 0.67420207E+03</rscale>
<asrwt>0</asrwt>
<pdfrwt beam="1">  1        1 0.41398699E+00 0.67420207E+03</pdfrwt>
<pdfrwt beam="2">0</pdfrwt>
<totfact> 0.11529287E+00</totfact>
</mgrwt>
</event>
<event>
 6    1  0.2475480E-003  0.6582262E+03  0.7818608E-02  0.9791465E-01
          1   -1    0    0  502    0  0.00000000000E+00  0.00000000000E+00  0.10832804026E+03  0.10832804026E+03  0.00000000000E+00 0.  1.
         13   -1    0    0    0    0 -0.00000000000E+00 -0.00000000000E+00 -0.10000000000E+04  0.10000000000E+04  0.00000000000E+00 0.  1.
    9000005    2    1    2  501    0  0.32576530869E-03  0.90590354631E-03 -0.89168456258E+03  0.11083154007E+04  0.65822615285E+03 0.  0.
         13    1    3    3    0    0 -0.12431332506E+03  0.13250433762E+03  0.16217269930E+02  0.18241217646E+03  0.00000000000E+00 0.  1.
          1    1    3    3  501    0  0.12431365082E+03 -0.13250343172E+03 -0.90790183251E+03  0.92590322425E+03  0.00000000000E+00 0.  1.
         21    1    1    2  502  501 -0.32576530869E-03 -0.90590354632E-03  0.12602844669E-01  0.12639560041E-01  0.00000000000E+00 0. -1.
<mgrwt>
<rscale>  1 0.65822615E+03</rscale>
<asrwt>0</asrwt>
<pdfrwt beam="1">  1        1 0.39392098E+00 0.65822615E+03</pdfrwt>
<pdfrwt beam="2">0</pdfrwt>
<totfact> 0.14216687E+00</totfact>
</mgrwt>
</event>
<event>
 6    1  0.2475480E-003  0.6463982E+03  0.7818608E-02  0.9813561E-01
          1   -1    0    0  502    0  0.00000000000E+00  0.00000000000E+00  0.10450449762E+03  0.10450449762E+03  0.00000000000E+00 0.  1.
         13   -1    0    0    0    0 -0.00000000000E+00 -0.00000000000E+00 -0.10000000000E+04  0.10000000000E+04  0.00000000000E+00 0.  1.
    9000005    2    1    2  501    0  0.24725745198E-01 -0.63851169476E-01 -0.89551296581E+03  0.11044338343E+04  0.64639818821E+03 0.  0.
         13    1    3    3    0    0  0.29035631544E+03  0.87759645472E+02 -0.25711013584E+03  0.39763572178E+03  0.00000000000E+00 0.  1.
          1    1    3    3  501    0 -0.29033158969E+03 -0.87823496641E+02 -0.63840282997E+03  0.70679811251E+03  0.00000000000E+00 0.  1.
         21    1    1    2  502  501 -0.24725745198E-01  0.63851169476E-01  0.17463430508E-01  0.70663326585E-01  0.00000000000E+00 0. -1.
<mgrwt>
<rscale>  1 0.64639819E+03</rscale>
<asrwt>0</asrwt>
<pdfrwt beam="1">  1        1 0.38001716E+00 0.64639819E+03</pdfrwt>
<pdfrwt beam="2">0</pdfrwt>
<totfact> 0.16417729E+00</totfact>
</mgrwt>
</event>
<event>
 6    1  0.2475480E-003  0.6195281E+03  0.7818608E-02  0.9865700E-01
          3   -1    0    0  502    0  0.00000000000E+00  0.00000000000E+00  0.96027625154E+02  0.96027625154E+02  0.00000000000E+00 0.  1.
         13   -1    0    0    0    0 -0.00000000000E+00 -0.00000000000E+00 -0.10000000000E+04  0.10000000000E+04  0.00000000000E+00 0.  1.
    9000005    2    1    2  501    0  0.37428890799E-02  0.15608373640E-02 -0.90404616002E+03  0.10959537286E+04  0.61952813965E+03 0.  0.
         13    1    3    3    0    0 -0.69562087368E+02  0.21802624662E+03 -0.82729094790E+02  0.24334837443E+03  0.00000000000E+00 0.  1.
          1    1    3    3  501    0  0.69565830257E+02 -0.21802468578E+03 -0.82131706523E+03  0.85260535419E+03  0.00000000000E+00 0.  1.
         21    1    1    2  502  501 -0.37428890799E-02 -0.15608373640E-02  0.73785175081E-01  0.73896532352E-01  0.00000000000E+00 0. -1.
<mgrwt>
<rscale>  1 0.61952814E+03</rscale>
<asrwt>0</asrwt>
<pdfrwt beam="1">  1        3 0.34919210E+00 0.61952814E+03</pdfrwt>
<pdfrwt beam="2">0</pdfrwt>
<totfact> 0.11051537E-01</totfact>
</mgrwt>
</event>
<event>
 6    1  0.2475480E-003  0.6500076E+03  0.7818608E-02  0.9806765E-01
          1   -1    0    0  502    0  0.00000000000E+00  0.00000000000E+00  0.10562813680E+03  0.10562813680E+03  0.00000000000E+00 0.  1.
         13   -1    0    0    0    0 -0.00000000000E+00 -0.00000000000E+00 -0.10000000000E+04  0.10000000000E+04  0.00000000000E+00 0.  1.
    9000005    2    1    2  501    0  0.29995359796E-05 -0.40179013226E-04 -0.89437253471E+03  0.11056274641E+04  0.65000758341E+03 0.  0.
         13    1    3    3    0    0  0.26533866876E+03 -0.63336035603E+02 -0.14668448866E+03  0.30972956229E+03  0.00000000000E+00 0.  1.
          3    1    3    3  501    0 -0.26533866576E+03  0.63335995424E+02 -0.74768804605E+03  0.79589790179E+03  0.00000000000E+00 0.  1.
         21    1    1    2  502  501 -0.29995359493E-05  0.40179013226E-04  0.67150847163E-03  0.67271611977E-03  0.00000000000E+00 0. -1.
<mgrwt>
<rscale>  1 0.65000758E+03</rscale>
<asrwt>0</asrwt>
<pdfrwt beam="1">  1        1 0.38410313E+00 0.65000758E+03</pdfrwt>
<pdfrwt beam="2">0</pdfrwt>
<totfact> 0.15739024E+00</totfact>
</mgrwt>
</event>
<event>
 6    1  0.2475480E-003  0.5802955E+03  0.7818608E-02  0.9947151E-01
          1   -1    0    0  502    0  0.00000000000E+00  0.00000000000E+00  0.84187374222E+02  0.84187374222E+02  0.00000000000E+00 0.  1.
         13   -1    0    0    0    0 -0.00000000000E+00 -0.00000000000E+00 -0.10000000000E+04  0.10000000000E+04  0.00000000000E+00 0.  1.
    9000005    2    1    2  501    0  0.17732557689E-03  0.33907590664E-02 -0.91581218740E+03  0.10841839506E+04  0.58029550769E+03 0.  0.
         13    1    3    3    0    0 -0.27951806269E+03  0.61046912759E+02 -0.36774521593E+03  0.46593306039E+03  0.00000000000E+00 0.  1.
          1    1    3    3  501    0  0.27951824002E+03 -0.61043522000E+02 -0.54806697147E+03  0.61825089026E+03  0.00000000000E+00 0.  1.
         21    1    1    2  502  501 -0.17732557692E-03 -0.33907590664E-02 -0.43837910705E-03  0.34235752727E-02  0.00000000000E+00 0. -1.
<mgrwt>
<rscale>  1 0.58029551E+03</rscale>
<asrwt>0</asrwt>
<pdfrwt beam="1">  1        1 0.30613655E+00 0.58029551E+03</pdfrwt>
<pdfrwt beam="2">0</pdfrwt>
<totfact> 0.34837588E+00</totfact>
</mgrwt>
</event>
<event>
 6    1  0.2475480E-003  0.6517074E+03  0.7818608E-02  0.9803581E-01
          1   -1    0    0  502    0  0.00000000000E+00  0.00000000000E+00  0.10648594172E+03  0.10648594172E+03  0.00000000000E+00 0.  1.
         13   -1    0    0    0    0 -0.00000000000E+00 -0.00000000000E+00 -0.10000000000E+04  0.10000000000E+04  0.00000000000E+00 0.  1.
    9000005    2    1    2  501    0 -0.54767749299E+00 -0.87284666356E-01 -0.89351083589E+03  0.11059313431E+04  0.65170715374E+03 0.  0.
         13    1    3    3    0    0 -0.43509326629E+02  0.11499869061E+03  0.65344111037E+02  0.13923940962E+03  0.00000000000E+00 0.  1.
          3    1    3    3  501    0  0.42961649136E+02 -0.11508597527E+03 -0.95885494693E+03  0.96669193348E+03  0.00000000000E+00 0.  1.
         21    1    1    2  502  501  0.54767749299E+00  0.87284666355E-01 -0.32223854140E-02  0.55459862340E+00  0.00000000000E+00 0. -1.
<mgrwt>
<rscale>  1 0.65170739E+03</rscale>
<asrwt>0</asrwt>
<pdfrwt beam="1">  1        1 0.38722242E+00 0.65170739E+03</pdfrwt>
<pdfrwt beam="2">0</pdfrwt>
<totfact> 0.15241910E+00</totfact>
</mgrwt>
</event>
<event>
 6    1  0.2475480E-003  0.5961238E+03  0.7818608E-02  0.9913481E-01
          1   -1    0    0  502    0  0.00000000000E+00  0.00000000000E+00  0.88847419213E+02  0.88847419213E+02  0.00000000000E+00 0.  1.
         13   -1    0    0    0    0 -0.00000000000E+00 -0.00000000000E+00 -0.10000000000E+04  0.10000000000E+04  0.00000000000E+00 0.  1.
    9000005    2    1    2  501    0  0.88977750011E-04  0.23510328668E-02 -0.91115886418E+03  0.10888407098E+04  0.59612382565E+03 0.  0.
         13    1    3    3    0    0 -0.21029972937E+03  0.18793491242E+03 -0.63168552721E+03  0.69178906667E+03  0.00000000000E+00 0.  1.
          1    1    3    3  501    0  0.21029981835E+03 -0.18793256138E+03 -0.27947333697E+03  0.39705164312E+03  0.00000000000E+00 0.  1.
         21    1    1    2  502  501 -0.88977750022E-04 -0.23510328668E-02  0.62833966213E-02  0.67094221571E-02  0.00000000000E+00 0. -1.
<mgrwt>
<rscale>  1 0.59612383E+03</rscale>
<asrwt>0</asrwt>
<pdfrwt beam="1">  1        1 0.32308221E+00 0.59612383E+03</pdfrwt>
<pdfrwt beam="2">0</pdfrwt>
<totfact> 0.29350468E+00</totfact>
</mgrwt>
</event>
<event>
 6    1  0.2475480E-003  0.5762787E+03  0.7818608E-02  0.9955880E-01
          1   -1    0    0  502    0  0.00000000000E+00  0.00000000000E+00  0.11702101257E+03  0.11702101257E+03  0.00000000000E+00 0.  1.
         13   -1    0    0    0    0 -0.00000000000E+00 -0.00000000000E+00 -0.10000000000E+04  0.10000000000E+04  0.00000000000E+00 0.  1.
    9000005    2    1    2  501    0  0.13801585425E+00  0.16733718753E+01 -0.91695327450E+03  0.10830052603E+04  0.57627620719E+03 0.  0.
         13    1    3    3    0    0 -0.16632953389E+03 -0.83541334584E+02 -0.45364226404E+02  0.19157917806E+03  0.00000000000E+00 0.  1.
          1    1    3    3  501    0  0.16646754974E+03  0.85214706459E+02 -0.87158904809E+03  0.89142608223E+03  0.00000000000E+00 0.  1.
         21    1    1    2  502  501 -0.13801585425E+00 -0.16733718753E+01  0.33974287064E+02  0.34015752282E+02  0.00000000000E+00 0. -1.
<mgrwt>
<rscale>  1 0.57627865E+03</rscale>
<asrwt>0</asrwt>
<pdfrwt beam="1">  1        1 0.42553185E+00 0.57627865E+03</pdfrwt>
<pdfrwt beam="2">0</pdfrwt>
<totfact> 0.10437144E+00</totfact>
</mgrwt>
</event>
<event>
 6    1  0.2475480E-003  0.6535018E+03  0.7818608E-02  0.9800230E-01
          1   -1    0    0  502    0  0.00000000000E+00  0.00000000000E+00  0.10676826596E+03  0.10676826596E+03  0.00000000000E+00 0.  1.
         13   -1    0    0    0    0 -0.00000000000E+00 -0.00000000000E+00 -0.10000000000E+04  0.10000000000E+04  0.00000000000E+00 0.  1.
    9000005    2    1    2  501    0 -0.45463480291E-04  0.15178478691E-04 -0.89323383623E+03  0.11067661632E+04  0.65350183921E+03 0.  0.
         13    1    3    3    0    0 -0.17609517596E+03  0.12233392569E+03 -0.86418662504E+03  0.89038959072E+03  0.00000000000E+00 0.  1.
          3    1    3    3  501    0  0.17609513050E+03 -0.12233391051E+03 -0.29047211195E+02  0.21637657249E+03  0.00000000000E+00 0.  1.
         21    1    1    2  502  501  0.45463480268E-04 -0.15178478688E-04  0.21021949750E-02  0.21027413125E-02  0.00000000000E+00 0.  1.
<mgrwt>
<rscale>  1 0.65350184E+03</rscale>
<asrwt>0</asrwt>
<pdfrwt beam="1">  1        1 0.38824906E+00 0.65350184E+03</pdfrwt>
<pdfrwt beam="2">0</pdfrwt>
<totfact> 0.15078137E+00</totfact>
</mgrwt>
</event>
<event>
 6    1  0.2475480E-003  0.6298968E+03  0.7818608E-02  0.9845250E-01
          1   -1    0    0  502    0  0.00000000000E+00  0.00000000000E+00  0.99192834300E+02  0.99192834300E+02  0.00000000000E+00 0.  1.
         13   -1    0    0    0    0 -0.00000000000E+00 -0.00000000000E+00 -0.10000000000E+04  0.10000000000E+04  0.00000000000E+00 0.  1.
    9000005    2    1    2  501    0  0.25349625403E-04 -0.24274461936E-04 -0.90080750365E+03  0.10991924945E+04  0.62989680220E+03 0.  0.
         13    1    3    3    0    0 -0.88324452317E+02  0.59812244661E+02  0.66709526062E+02  0.12581285449E+03  0.00000000000E+00 0.  1.
          3    1    3    3  501    0  0.88324477666E+02 -0.59812268936E+02 -0.96751702971E+03  0.97337964004E+03  0.00000000000E+00 0.  1.
         21    1    1    2  502  501 -0.25349625399E-04  0.24274461941E-04  0.33794633584E-03  0.33976400474E-03  0.00000000000E+00 0.  1.
<mgrwt>
<rscale>  1 0.62989680E+03</rscale>
<asrwt>0</asrwt>
<pdfrwt beam="1">  1        1 0.36070198E+00 0.62989680E+03</pdfrwt>
<pdfrwt beam="2">0</pdfrwt>
<totfact> 0.20020148E+00</totfact>
</mgrwt>
</event>
<event>
 6    1  0.2475480E-003  0.5451673E+03  0.7818608E-02  0.1002619E+00
          1   -1    0    0  502    0  0.00000000000E+00  0.00000000000E+00  0.74394809902E+02  0.74394809902E+02  0.00000000000E+00 0.  1.
         13   -1    0    0    0    0 -0.00000000000E+00 -0.00000000000E+00 -0.10000000000E+04  0.10000000000E+04  0.00000000000E+00 0.  1.
    9000005    2    1    2  501    0  0.51029494473E-02 -0.51877389850E-01 -0.92569026254E+03  0.10742950370E+04  0.54516727866E+03 0.  0.
         13    1    3    3    0    0 -0.14610226479E+02  0.27022123912E+03 -0.39880228777E+03  0.48195045546E+03  0.00000000000E+00 0.  1.
          1    1    3    3  501    0  0.14615329429E+02 -0.27027311651E+03 -0.52688797478E+03  0.59234458158E+03  0.00000000000E+00 0.  1.
         21    1    1    2  502  501 -0.51029494473E-02  0.51877389850E-01  0.85072444606E-01  0.99772864557E-01  0.00000000000E+00 0.  1.
<mgrwt>
<rscale>  1 0.54516728E+03</rscale>
<asrwt>0</asrwt>
<pdfrwt beam="1">  1        1 0.27052715E+00 0.54516728E+03</pdfrwt>
<pdfrwt beam="2">0</pdfrwt>
<totfact> 0.49932862E+00</totfact>
</mgrwt>
</event>
<event>
 6    1  0.2475480E-003  0.5991270E+03  0.7818608E-02  0.9907219E-01
          1   -1    0    0  502    0  0.00000000000E+00  0.00000000000E+00  0.89759760132E+02  0.89759760132E+02  0.00000000000E+00 0.  1.
         13   -1    0    0    0    0 -0.00000000000E+00 -0.00000000000E+00 -0.10000000000E+04  0.10000000000E+04  0.00000000000E+00 0.  1.
    9000005    2    1    2  501    0  0.16625051051E-01  0.43503126864E-02 -0.91025790042E+03  0.10897351184E+04  0.59912701725E+03 0.  0.
         13    1    3    3    0    0 -0.12759898922E+03  0.27092206206E+03 -0.44138388908E+03  0.53338541722E+03  0.00000000000E+00 0.  1.
          1    1    3    3  501    0  0.12761561427E+03 -0.27091771175E+03 -0.46887401134E+03  0.55634970123E+03  0.00000000000E+00 0.  1.
         21    1    1    2  502  501 -0.16625051051E-01 -0.43503126863E-02  0.17660551428E-01  0.24641684595E-01  0.00000000000E+00 0. -1.
<mgrwt>
<rscale>  1 0.59912702E+03</rscale>
<asrwt>0</asrwt>
<pdfrwt beam="1">  1        1 0.32639982E+00 0.59912702E+03</pdfrwt>
<pdfrwt beam="2">0</pdfrwt>
<totfact> 0.28381255E+00</totfact>
</mgrwt>
</event>
<event>
 6    1  0.2475480E-003  0.6574988E+03  0.7818608E-02  0.9792809E-01
          1   -1    0    0  502    0  0.00000000000E+00  0.00000000000E+00  0.10807621260E+03  0.10807621260E+03  0.00000000000E+00 0.  1.
         13   -1    0    0    0    0 -0.00000000000E+00 -0.00000000000E+00 -0.10000000000E+04  0.10000000000E+04  0.00000000000E+00 0.  1.
    9000005    2    1    2  501    0 -0.13576400363E-04 -0.83155384658E-05 -0.89192382289E+03  0.11080761737E+04  0.65749882196E+03 0.  0.
         13    1    3    3    0    0 -0.15474637644E+03  0.11515004521E+03  0.26868487084E+01  0.19290721368E+03  0.00000000000E+00 0.  1.
          3    1    3    3  501    0  0.15474636286E+03 -0.11515005353E+03 -0.89461067160E+03  0.91516896002E+03  0.00000000000E+00 0.  1.
         21    1    1    2  502  501  0.13576400355E-04  0.83155384667E-05  0.35489179088E-04  0.38896640715E-04  0.00000000000E+00 0.  1.
<mgrwt>
<rscale>  1 0.65749882E+03</rscale>
<asrwt>0</asrwt>
<pdfrwt beam="1">  1        1 0.39300524E+00 0.65749882E+03</pdfrwt>
<pdfrwt beam="2">0</pdfrwt>
<totfact> 0.14352443E+00</totfact>
</mgrwt>
</event>
<event>
 6    1  0.2475480E-003  0.6416293E+03  0.7818608E-02  0.9822614E-01
          1   -1    0    0  502    0  0.00000000000E+00  0.00000000000E+00  0.10292539080E+03  0.10292539080E+03  0.00000000000E+00 0.  1.
         13   -1    0    0    0    0 -0.00000000000E+00 -0.00000000000E+00 -0.10000000000E+04  0.10000000000E+04  0.00000000000E+00 0.  1.
    9000005    2    1    2  501    0  0.91715629180E-02 -0.47831741694E-02 -0.89706290047E+03  0.11029097674E+04  0.64162926017E+03 0.  0.
         13    1    3    3    0    0  0.20575021290E+03 -0.60843207100E+02 -0.85852366105E+03  0.88492820191E+03  0.00000000000E+00 0.  1.
          1    1    3    3  501    0 -0.20574104133E+03  0.60838423926E+02 -0.38539239418E+02  0.21798156548E+03  0.00000000000E+00 0.  1.
         21    1    1    2  502  501 -0.91715629180E-02  0.47831741694E-02 -0.11708732616E-01  0.15623403629E-01  0.00000000000E+00 0.  1.
<mgrwt>
<rscale>  1 0.64162926E+03</rscale>
<asrwt>0</asrwt>
<pdfrwt beam="1">  1        1 0.37427494E+00 0.64162926E+03</pdfrwt>
<pdfrwt beam="2">0</pdfrwt>
<totfact> 0.17417841E+00</totfact>
</mgrwt>
</event>
<event>
 6    1  0.2475480E-003  0.6435830E+03  0.7818608E-02  0.9818895E-01
          1   -1    0    0  502    0  0.00000000000E+00  0.00000000000E+00  0.10553914523E+03  0.10553914523E+03  0.00000000000E+00 0.  1.
         13   -1    0    0    0    0 -0.00000000000E+00 -0.00000000000E+00 -0.10000000000E+04  0.10000000000E+04  0.00000000000E+00 0.  1.
    9000005    2    1    2  501    0  0.17423335852E+00 -0.46171011959E+00 -0.89641641463E+03  0.11035222794E+04  0.64358277566E+03 0.  0.
         13    1    3    3    0    0 -0.18052840022E+03  0.18190558537E+03 -0.11479375517E+03  0.28081622371E+03  0.00000000000E+00 0.  1.
          1    1    3    3  501    0  0.18070263358E+03 -0.18236729549E+03 -0.78162265946E+03  0.82270605566E+03  0.00000000000E+00 0.  1.
         21    1    1    2  502  501 -0.17423335852E+00  0.46171011959E+00  0.19555598611E+01  0.20168658528E+01  0.00000000000E+00 0. -1.
<mgrwt>
<rscale>  1 0.64358296E+03</rscale>
<asrwt>0</asrwt>
<pdfrwt beam="1">  1        1 0.38377952E+00 0.64358296E+03</pdfrwt>
<pdfrwt beam="2">0</pdfrwt>
<totfact> 0.15809746E+00</totfact>
</mgrwt>
</event>
<event>
 6    1  0.2475480E-003  0.6588616E+03  0.7818608E-02  0.9790292E-01
          1   -1    0    0  502    0  0.00000000000E+00  0.00000000000E+00  0.10864444265E+03  0.10864444265E+03  0.00000000000E+00 0.  1.
         13   -1    0    0    0    0 -0.00000000000E+00 -0.00000000000E+00 -0.10000000000E+04  0.10000000000E+04  0.00000000000E+00 0.  1.
    9000005    2    1    2  501    0  0.82059481597E-01 -0.16539701852E-01 -0.89145890060E+03  0.11085114496E+04  0.65886163605E+03 0.  0.
         13    1    3    3    0    0  0.19056052776E+03  0.14907459116E+03 -0.69541112867E+02  0.25173898158E+03  0.00000000000E+00 0.  1.
          1    1    3    3  501    0 -0.19047846828E+03 -0.14909113086E+03 -0.82191778773E+03  0.85677246803E+03  0.00000000000E+00 0.  1.
         21    1    1    2  502  501 -0.82059481597E-01  0.16539701852E-01  0.10334324723E+00  0.13299303367E+00  0.00000000000E+00 0. -1.
<mgrwt>
<rscale>  1 0.65886164E+03</rscale>
<asrwt>0</asrwt>
<pdfrwt beam="1">  1        1 0.39507153E+00 0.65886164E+03</pdfrwt>
<pdfrwt beam="2">0</pdfrwt>
<totfact> 0.14048571E+00</totfact>
</mgrwt>
</event>
<event>
 6    1  0.2475480E-003  0.6727976E+03  0.7818608E-02  0.9764917E-01
          1   -1    0    0  502    0  0.00000000000E+00  0.00000000000E+00  0.11325835916E+03  0.11325835916E+03  0.00000000000E+00 0.  1.
         13   -1    0    0    0    0 -0.00000000000E+00 -0.00000000000E+00 -0.10000000000E+04  0.10000000000E+04  0.00000000000E+00 0.  1.
    9000005    2    1    2  501    0  0.10322607172E+00  0.71781642939E-01 -0.88678652519E+03  0.11131248570E+04  0.67279758483E+03 0.  0.
         13    1    3    3    0    0  0.14575722324E+03  0.24571448182E+03 -0.73745122085E+03  0.79085717916E+03  0.00000000000E+00 0.  1.
          3    1    3    3  501    0 -0.14565399717E+03 -0.24564270017E+03 -0.14933530434E+03  0.32226767782E+03  0.00000000000E+00 0.  1.
         21    1    1    2  502  501 -0.10322607172E+00 -0.71781642939E-01  0.44884349938E-01  0.13350217607E+00  0.00000000000E+00 0. -1.
<mgrwt>
<rscale>  1 0.67279760E+03</rscale>
<asrwt>0</asrwt>
<pdfrwt beam="1">  1        1 0.41184945E+00 0.67279760E+03</pdfrwt>
<pdfrwt beam="2">0</pdfrwt>
<totfact> 0.11790281E+00</totfact>
</mgrwt>
</event>
<event>
 6    1  0.2475480E-003  0.6572851E+03  0.7818608E-02  0.9793204E-01
          1   -1    0    0  502    0  0.00000000000E+00  0.00000000000E+00  0.13341139129E+03  0.13341139129E+03  0.00000000000E+00 0.  1.
         13   -1    0    0    0    0 -0.00000000000E+00 -0.00000000000E+00 -0.10000000000E+04  0.10000000000E+04  0.00000000000E+00 0.  1.
    9000005    2    1    2  501    0  0.56627213451E+01 -0.60833172469E+02 -0.84047480174E+03  0.10669683917E+04  0.65443938999E+03 0.  0.
         13    1    3    3    0    0 -0.29797856396E+02 -0.23738110852E+03 -0.35217285917E+02  0.24182216639E+03  0.00000000000E+00 0.  1.
          3    1    3    3  501    0  0.35460577741E+02  0.17654793605E+03 -0.80525751582E+03  0.82514622528E+03  0.00000000000E+00 0.  1.
         21    1    1    2  502  501 -0.56627213451E+01  0.60833172469E+02 -0.26113806965E+02  0.66442999630E+02  0.00000000000E+00 0.  1.
<mgrwt>
<rscale>  1 0.65728506E+03</rscale>
<asrwt>0</asrwt>
<pdfrwt beam="1">  1        1 0.48513335E+00 0.65728506E+03</pdfrwt>
<pdfrwt beam="2">0</pdfrwt>
<totfact> 0.54359944E-01</totfact>
</mgrwt>
</event>
<event>
 6    1  0.2475480E-003  0.6856512E+03  0.7818608E-02  0.9742090E-01
          3   -1    0    0  502    0  0.00000000000E+00  0.00000000000E+00  0.11825111161E+03  0.11825111161E+03  0.00000000000E+00 0.  1.
         13   -1    0    0    0    0 -0.00000000000E+00 -0.00000000000E+00 -0.10000000000E+04  0.10000000000E+04  0.00000000000E+00 0.  1.
    9000005    2    1    2  501    0  0.76790981892E+00 -0.19521800040E+01 -0.87927000467E+03  0.11150037193E+04  0.68564797984E+03 0.  0.
         13    1    3    3    0    0 -0.20238390016E+03 -0.13224325211E+03 -0.83543511206E+03  0.86971222093E+03  0.00000000000E+00 0.  1.
          1    1    3    3  501    0  0.20315180998E+03  0.13029107210E+03 -0.43834892618E+02  0.24529149838E+03  0.00000000000E+00 0.  1.
         21    1    1    2  502  501 -0.76790981892E+00  0.19521800040E+01 -0.24788837191E+01  0.32473923001E+01  0.00000000000E+00 0. -1.
<mgrwt>
<rscale>  1 0.68565119E+03</rscale>
<asrwt>0</asrwt>
<pdfrwt beam="1">  1        3 0.43000495E+00 0.68565119E+03</pdfrwt>
<pdfrwt beam="2">0</pdfrwt>
<totfact> 0.41111202E-02</totfact>
</mgrwt>
</event>
<event>
 6    1  0.2475480E-003  0.6492543E+03  0.7818608E-02  0.9808179E-01
          1   -1    0    0  502    0  0.00000000000E+00  0.00000000000E+00  0.10538280931E+03  0.10538280931E+03  0.00000000000E+00 0.  1.
         13   -1    0    0    0    0 -0.00000000000E+00 -0.00000000000E+00 -0.10000000000E+04  0.10000000000E+04  0.00000000000E+00 0.  1.
    9000005    2    1    2  501    0  0.75476596635E-05 -0.14045618215E-04 -0.89461721079E+03  0.11053827837E+04  0.64925429884E+03 0.  0.
         13    1    3    3    0    0  0.31411271633E+03 -0.74284803015E+02 -0.38838591931E+03  0.50500361666E+03  0.00000000000E+00 0.  1.
          1    1    3    3  501    0 -0.31411270878E+03  0.74284788969E+02 -0.50623129148E+03  0.60037916700E+03  0.00000000000E+00 0.  1.
         21    1    1    2  502  501 -0.75476596558E-05  0.14045618219E-04  0.20100481937E-04  0.25656888578E-04  0.00000000000E+00 0. -1.
<mgrwt>
<rscale>  1 0.64925430E+03</rscale>
<asrwt>0</asrwt>
<pdfrwt beam="1">  1        1 0.38321102E+00 0.64925430E+03</pdfrwt>
<pdfrwt beam="2">0</pdfrwt>
<totfact> 0.15884789E+00</totfact>
</mgrwt>
</event>
<event>
 6    1  0.2475480E-003  0.6565494E+03  0.7818608E-02  0.9794567E-01
          1   -1    0    0  502    0  0.00000000000E+00  0.00000000000E+00  0.10778738647E+03  0.10778738647E+03  0.00000000000E+00 0.  1.
         13   -1    0    0    0    0 -0.00000000000E+00 -0.00000000000E+00 -0.10000000000E+04  0.10000000000E+04  0.00000000000E+00 0.  1.
    9000005    2    1    2  501    0  0.17883633083E-01  0.26418940182E-01 -0.89222281495E+03  0.11077538924E+04  0.65654941441E+03 0.  0.
         13    1    3    3    0    0  0.27184032230E+03  0.14200395358E+03 -0.64369163629E+03  0.71302258470E+03  0.00000000000E+00 0.  1.
          3    1    3    3  501    0 -0.27182243867E+03 -0.14197753464E+03 -0.24853117866E+03  0.39473130769E+03  0.00000000000E+00 0.  1.
         21    1    1    2  502  501 -0.17883633083E-01 -0.26418940182E-01  0.10201422319E-01  0.33494085298E-01  0.00000000000E+00 0. -1.
<mgrwt>
<rscale>  1 0.65654942E+03</rscale>
<asrwt>0</asrwt>
<pdfrwt beam="1">  1        1 0.39195496E+00 0.65654942E+03</pdfrwt>
<pdfrwt beam="2">0</pdfrwt>
<totfact> 0.14509967E+00</totfact>
</mgrwt>
</event>
<event>
 6    1  0.2475480E-003  0.6504306E+03  0.7818608E-02  0.9805971E-01
          1   -1    0    0  502    0  0.00000000000E+00  0.00000000000E+00  0.10580713476E+03  0.10580713476E+03  0.00000000000E+00 0.  1.
         13   -1    0    0    0    0 -0.00000000000E+00 -0.00000000000E+00 -0.10000000000E+04  0.10000000000E+04  0.00000000000E+00 0.  1.
    9000005    2    1    2  501    0  0.52252174895E-01  0.93894096906E-01 -0.89413780499E+03  0.11056863953E+04  0.65043061031E+03 0.  0.
         13    1    3    3    0    0  0.32053398314E+03 -0.41327907355E+02 -0.50904051429E+03  0.60296954771E+03  0.00000000000E+00 0.  1.
          3    1    3    3  501    0 -0.32048173097E+03  0.41421801452E+02 -0.38509729071E+03  0.50271684757E+03  0.00000000000E+00 0.  1.
         21    1    1    2  502  501 -0.52252174895E-01 -0.93894096906E-01 -0.55060250444E-01  0.12073948150E+00  0.00000000000E+00 0.  1.
<mgrwt>
<rscale>  1 0.65043062E+03</rscale>
<asrwt>0</asrwt>
<pdfrwt beam="1">  1        1 0.38475403E+00 0.65043062E+03</pdfrwt>
<pdfrwt beam="2">0</pdfrwt>
<totfact> 0.15633839E+00</totfact>
</mgrwt>
</event>
<event>
 6    1  0.2475480E-003  0.6447557E+03  0.7818608E-02  0.9816670E-01
          1   -1    0    0  502    0  0.00000000000E+00  0.00000000000E+00  0.10393248387E+03  0.10393248387E+03  0.00000000000E+00 0.  1.
         13   -1    0    0    0    0 -0.00000000000E+00 -0.00000000000E+00 -0.10000000000E+04  0.10000000000E+04  0.00000000000E+00 0.  1.
    9000005    2    1    2  501    0  0.22458449098E-03 -0.35896515865E-03 -0.89607252102E+03  0.11039274611E+04  0.64475567189E+03 0.  0.
         13    1    3    3    0    0  0.16300452687E+03  0.19587936220E+03 -0.10996189086E+03  0.27754426270E+03  0.00000000000E+00 0.  1.
          3    1    3    3  501    0 -0.16300430229E+03 -0.19587972117E+03 -0.78611063016E+03  0.82638319839E+03  0.00000000000E+00 0.  1.
         21    1    1    2  502  501 -0.22458449099E-03  0.35896515867E-03  0.50048953494E-02  0.50227752923E-02  0.00000000000E+00 0. -1.
<mgrwt>
<rscale>  1 0.64475567E+03</rscale>
<asrwt>0</asrwt>
<pdfrwt beam="1">  1        1 0.37793710E+00 0.64475567E+03</pdfrwt>
<pdfrwt beam="2">0</pdfrwt>
<totfact> 0.16773250E+00</totfact>
</mgrwt>
</event>
<event>
 6    1  0.2475480E-003  0.6517777E+03  0.7818608E-02  0.9803449E-01
          1   -1    0    0  502    0  0.00000000000E+00  0.00000000000E+00  0.11321007643E+03  0.11321007643E+03  0.00000000000E+00 0.  1.
         13   -1    0    0    0    0 -0.00000000000E+00 -0.00000000000E+00 -0.10000000000E+04  0.10000000000E+04  0.00000000000E+00 0.  1.
    9000005    2    1    2  501    0 -0.34895105211E+00 -0.44944612585E-01 -0.89379156277E+03  0.11061996030E+04  0.65177763088E+03 0.  0.
         13    1    3    3    0    0 -0.72479963847E+02 -0.29333648058E+03 -0.65444080984E+03  0.72082758658E+03  0.00000000000E+00 0.  1.
          1    1    3    3  501    0  0.72131012795E+02  0.29329153596E+03 -0.23935075293E+03  0.38537201637E+03  0.00000000000E+00 0.  1.
         21    1    1    2  502  501  0.34895105211E+00  0.44944612585E-01  0.70016392018E+01  0.70104734767E+01  0.00000000000E+00 0. -1.
<mgrwt>
<rscale>  1 0.65177773E+03</rscale>
<asrwt>0</asrwt>
<pdfrwt beam="1">  1        1 0.41167387E+00 0.65177773E+03</pdfrwt>
<pdfrwt beam="2">0</pdfrwt>
<totfact> 0.11859340E+00</totfact>
</mgrwt>
</event>
<event>
 6    1  0.2475480E-003  0.6504580E+03  0.7818608E-02  0.9805920E-01
          1   -1    0    0  502    0  0.00000000000E+00  0.00000000000E+00  0.10642281759E+03  0.10642281759E+03  0.00000000000E+00 0.  1.
         13   -1    0    0    0    0 -0.00000000000E+00 -0.00000000000E+00 -0.10000000000E+04  0.10000000000E+04  0.00000000000E+00 0.  1.
    9000005    2    1    2  501    0 -0.37865210136E-01  0.27710877976E-01 -0.89422515807E+03  0.11057731453E+04  0.65045800269E+03 0.  0.
         13    1    3    3    0    0  0.19776308327E+03 -0.90164686974E+02 -0.85834894673E+03  0.88543933854E+03  0.00000000000E+00 0.  1.
          1    1    3    3  501    0 -0.19780094848E+03  0.90192397852E+02 -0.35876211346E+02  0.22033380673E+03  0.00000000000E+00 0.  1.
         21    1    1    2  502  501  0.37865210136E-01 -0.27710877976E-01  0.64797565827E+00  0.64967231787E+00  0.00000000000E+00 0.  1.
<mgrwt>
<rscale>  1 0.65045800E+03</rscale>
<asrwt>0</asrwt>
<pdfrwt beam="1">  1        1 0.38699288E+00 0.65045800E+03</pdfrwt>
<pdfrwt beam="2">0</pdfrwt>
<totfact> 0.15281159E+00</totfact>
</mgrwt>
</event>
<event>
 6    1  0.2475480E-003  0.6363836E+03  0.7818608E-02  0.9832670E-01
          1   -1    0    0  502    0  0.00000000000E+00  0.00000000000E+00  0.10124985276E+03  0.10124985276E+03  0.00000000000E+00 0.  1.
         13   -1    0    0    0    0 -0.00000000000E+00 -0.00000000000E+00 -0.10000000000E+04  0.10000000000E+04  0.00000000000E+00 0.  1.
    9000005    2    1    2  501    0 -0.31839261806E-02 -0.21252306810E-02 -0.89875289156E+03  0.11012451426E+04  0.63638361391E+03 0.  0.
         13    1    3    3    0    0 -0.83096951444E+02 -0.27680044060E+03 -0.21900235153E+03  0.36260945552E+03  0.00000000000E+00 0.  1.
          3    1    3    3  501    0  0.83093767518E+02  0.27679831537E+03 -0.67975054004E+03  0.73863568711E+03  0.00000000000E+00 0.  1.
         21    1    1    2  502  501  0.31839261806E-02  0.21252306811E-02  0.27443195597E-02  0.47101253929E-02  0.00000000000E+00 0. -1.
<mgrwt>
<rscale>  1 0.63638361E+03</rscale>
<asrwt>0</asrwt>
<pdfrwt beam="1">  1        1 0.36818206E+00 0.63638361E+03</pdfrwt>
<pdfrwt beam="2">0</pdfrwt>
<totfact> 0.18543152E+00</totfact>
</mgrwt>
</event>
<event>
 6    1  0.2475480E-003  0.6381693E+03  0.7818608E-02  0.9829235E-01
          1   -1    0    0  502    0  0.00000000000E+00  0.00000000000E+00  0.10182203980E+03  0.10182203980E+03  0.00000000000E+00 0.  1.
         13   -1    0    0    0    0 -0.00000000000E+00 -0.00000000000E+00 -0.10000000000E+04  0.10000000000E+04  0.00000000000E+00 0.  1.
    9000005    2    1    2  501    0  0.18705307788E-02  0.15277772996E-02 -0.89818476812E+03  0.11018148162E+04  0.63816926551E+03 0.  0.
         13    1    3    3    0    0 -0.30246297488E+02 -0.19092673355E+03 -0.88739356053E+03  0.90820437533E+03  0.00000000000E+00 0.  1.
          1    1    3    3  501    0  0.30248168019E+02  0.19092826133E+03 -0.10791207592E+02  0.19361044084E+03  0.00000000000E+00 0.  1.
         21    1    1    2  502  501 -0.18705307788E-02 -0.15277772996E-02  0.68079264180E-02  0.72236314264E-02  0.00000000000E+00 0. -1.
<mgrwt>
<rscale>  1 0.63816927E+03</rscale>
<asrwt>0</asrwt>
<pdfrwt beam="1">  1        1 0.37026274E+00 0.63816927E+03</pdfrwt>
<pdfrwt beam="2">0</pdfrwt>
<totfact> 0.18151290E+00</totfact>
</mgrwt>
</event>
<event>
 6    1  0.2475480E-003  0.4960129E+03  0.7818608E-02  0.1014825E+00
          1   -1    0    0  502    0  0.00000000000E+00  0.00000000000E+00  0.61507775284E+02  0.61507775284E+02  0.00000000000E+00 0.  1.
         13   -1    0    0    0    0 -0.00000000000E+00 -0.00000000000E+00 -0.10000000000E+04  0.10000000000E+04  0.00000000000E+00 0.  1.
    9000005    2    1    2  501    0 -0.18716487348E-04 -0.21634999198E-02 -0.93848942315E+03  0.10615042355E+04  0.49601294810E+03 0.  0.
         13    1    3    3    0    0  0.12675160441E+02  0.24768126666E+03 -0.46940179013E+03  0.53089048788E+03  0.00000000000E+00 0.  1.
          3    1    3    3  501    0 -0.12675179157E+02 -0.24768343016E+03 -0.46908763301E+03  0.53061374764E+03  0.00000000000E+00 0.  1.
         21    1    1    2  502  501  0.18716487348E-04  0.21634999198E-02 -0.28015705539E-02  0.35397570225E-02  0.00000000000E+00 0.  1.
<mgrwt>
<rscale>  1 0.49601295E+03</rscale>
<asrwt>0</asrwt>
<pdfrwt beam="1">  1        1 0.22366511E+00 0.49601295E+03</pdfrwt>
<pdfrwt beam="2">0</pdfrwt>
<totfact> 0.80609115E+00</totfact>
</mgrwt>
</event>
<event>
 6    1  0.2475480E-003  0.6360804E+03  0.7818608E-02  0.9833255E-01
          1   -1    0    0  502    0  0.00000000000E+00  0.00000000000E+00  0.10152835343E+03  0.10152835343E+03  0.00000000000E+00 0.  1.
         13   -1    0    0    0    0 -0.00000000000E+00 -0.00000000000E+00 -0.10000000000E+04  0.10000000000E+04  0.00000000000E+00 0.  1.
    9000005    2    1    2  501    0 -0.42913630442E+00  0.58790065722E-01 -0.89870925184E+03  0.11010343185E+04  0.63608023360E+03 0.  0.
         13    1    3    3    0    0  0.21574137746E+03 -0.29851872432E+01 -0.85325965494E+03  0.88011663547E+03  0.00000000000E+00 0.  1.
          1    1    3    3  501    0 -0.21617051376E+03  0.30439773089E+01 -0.45449596903E+02  0.22091768304E+03  0.00000000000E+00 0.  1.
         21    1    1    2  502  501  0.42913630442E+00 -0.58790065722E-01  0.23760526441E+00  0.49403491908E+00  0.00000000000E+00 0.  1.
<mgrwt>
<rscale>  1 0.63608038E+03</rscale>
<asrwt>0</asrwt>
<pdfrwt beam="1">  1        1 0.36919479E+00 0.63608038E+03</pdfrwt>
<pdfrwt beam="2">0</pdfrwt>
<totfact> 0.18355339E+00</totfact>
</mgrwt>
</event>
<event>
 6    1  0.2475480E-003  0.6469824E+03  0.7818608E-02  0.9812458E-01
          1   -1    0    0  502    0  0.00000000000E+00  0.00000000000E+00  0.10465175213E+03  0.10465175213E+03  0.00000000000E+00 0.  1.
         13   -1    0    0    0    0 -0.00000000000E+00 -0.00000000000E+00 -0.10000000000E+04  0.10000000000E+04  0.00000000000E+00 0.  1.
    9000005    2    1    2  501    0  0.99262048573E-03  0.75837287682E-04 -0.89535340379E+03  0.11046465010E+04  0.64698236023E+03 0.  0.
         13    1    3    3    0    0  0.39500480252E+02 -0.35936574200E+02 -0.99242246002E+03  0.99385817120E+03  0.00000000000E+00 0.  1.
          1    1    3    3  501    0 -0.39499487632E+02  0.35936650037E+02  0.97069056229E+02  0.11078832978E+03  0.00000000000E+00 0.  1.
         21    1    1    2  502  501 -0.99262048573E-03 -0.75837287679E-04  0.51559190451E-02  0.52511472958E-02  0.00000000000E+00 0. -1.
<mgrwt>
<rscale>  1 0.64698236E+03</rscale>
<asrwt>0</asrwt>
<pdfrwt beam="1">  1        1 0.38055263E+00 0.64698236E+03</pdfrwt>
<pdfrwt beam="2">0</pdfrwt>
<totfact> 0.16326890E+00</totfact>
</mgrwt>
</event>
<event>
 6    1  0.2475480E-003  0.6086265E+03  0.7818608E-02  0.9887669E-01
          1   -1    0    0  502    0  0.00000000000E+00  0.00000000000E+00  0.96577860851E+02  0.96577860851E+02  0.00000000000E+00 0.  1.
         13   -1    0    0    0    0 -0.00000000000E+00 -0.00000000000E+00 -0.10000000000E+04  0.10000000000E+04  0.00000000000E+00 0.  1.
    9000005    2    1    2  501    0 -0.31714852753E+00  0.32554361277E+00 -0.90737922905E+03  0.10925947562E+04  0.60862634638E+03 0.  0.
         13    1    3    3    0    0  0.23163832287E+02 -0.25178825006E+03 -0.75697446324E+03  0.79808785480E+03  0.00000000000E+00 0.  1.
          3    1    3    3  501    0 -0.23480980815E+02  0.25211379367E+03 -0.15040476581E+03  0.29450690144E+03  0.00000000000E+00 0.  1.
         21    1    1    2  502  501  0.31714852753E+00 -0.32554361277E+00  0.39570898989E+01  0.39831046058E+01  0.00000000000E+00 0.  1.
<mgrwt>
<rscale>  1 0.60862652E+03</rscale>
<asrwt>0</asrwt>
<pdfrwt beam="1">  1        1 0.35119296E+00 0.60862652E+03</pdfrwt>
<pdfrwt beam="2">0</pdfrwt>
<totfact> 0.22113460E+00</totfact>
</mgrwt>
</event>
<event>
 6    1  0.2475480E-003  0.6487175E+03  0.7818608E-02  0.9809189E-01
          1   -1    0    0  502    0  0.00000000000E+00  0.00000000000E+00  0.10521347875E+03  0.10521347875E+03  0.00000000000E+00 0.  1.
         13   -1    0    0    0    0 -0.00000000000E+00 -0.00000000000E+00 -0.10000000000E+04  0.10000000000E+04  0.00000000000E+00 0.  1.
    9000005    2    1    2  501    0 -0.61660262779E-02  0.21181248918E-02 -0.89478886737E+03  0.11052065498E+04  0.64871750437E+03 0.  0.
         13    1    3    3    0    0  0.11278779056E+03  0.30020965454E+03 -0.36460148739E+03  0.48557302950E+03  0.00000000000E+00 0.  1.
          1    1    3    3  501    0 -0.11279395658E+03 -0.30020753641E+03 -0.53018737998E+03  0.61963352028E+03  0.00000000000E+00 0.  1.
         21    1    1    2  502  501  0.61660262779E-02 -0.21181248918E-02  0.23461245764E-02  0.69289706050E-02  0.00000000000E+00 0.  1.
<mgrwt>
<rscale>  1 0.64871750E+03</rscale>
<asrwt>0</asrwt>
<pdfrwt beam="1">  1        1 0.38259527E+00 0.64871750E+03</pdfrwt>
<pdfrwt beam="2">0</pdfrwt>
<totfact> 0.15986196E+00</totfact>
</mgrwt>
</event>
<event>
 6    1  0.2475480E-003  0.6447886E+03  0.7818608E-02  0.9816607E-01
          1   -1    0    0  502    0  0.00000000000E+00  0.00000000000E+00  0.10542016465E+03  0.10542016465E+03  0.00000000000E+00 0.  1.
         13   -1    0    0    0    0 -0.00000000000E+00 -0.00000000000E+00 -0.10000000000E+04  0.10000000000E+04  0.00000000000E+00 0.  1.
    9000005    2    1    2  501    0  0.91889399988E-01  0.70996362897E-01 -0.89605941464E+03  0.11039360356E+04  0.64478855657E+03 0.  0.
         13    1    3    3    0    0 -0.18318264702E+03  0.22041362289E+03 -0.70080744624E+03  0.75714537840E+03  0.00000000000E+00 0.  1.
          3    1    3    3  501    0  0.18327453642E+03 -0.22034262653E+03 -0.19525196840E+03  0.34679065721E+03  0.00000000000E+00 0.  1.
         21    1    1    2  502  501 -0.91889399988E-01 -0.70996362897E-01  0.14795792867E+01  0.14841290412E+01  0.00000000000E+00 0. -1.
<mgrwt>
<rscale>  1 0.64478857E+03</rscale>
<asrwt>0</asrwt>
<pdfrwt beam="1">  1        1 0.38334686E+00 0.64478857E+03</pdfrwt>
<pdfrwt beam="2">0</pdfrwt>
<totfact> 0.15875949E+00</totfact>
</mgrwt>
</event>
<event>
 6    1  0.2475480E-003  0.6706627E+03  0.7818608E-02  0.9768761E-01
          1   -1    0    0  502    0  0.00000000000E+00  0.00000000000E+00  0.11244809292E+03  0.11244809292E+03  0.00000000000E+00 0.  1.
         13   -1    0    0    0    0 -0.00000000000E+00 -0.00000000000E+00 -0.10000000000E+04  0.10000000000E+04  0.00000000000E+00 0.  1.
    9000005    2    1    2  501    0  0.20042676389E-02  0.30136382179E-04 -0.88755153248E+03  0.11124460537E+04  0.67066273166E+03 0.  0.
         13    1    3    3    0    0 -0.51746921230E+01 -0.32341738400E+03 -0.59047246283E+03  0.67326318114E+03  0.00000000000E+00 0.  1.
          1    1    3    3  501    0  0.51766963907E+01  0.32341741413E+03 -0.29707906964E+03  0.43918287258E+03  0.00000000000E+00 0.  1.
         21    1    1    2  502  501 -0.20042676389E-02 -0.30136382182E-04 -0.37460728258E-03  0.20391977800E-02  0.00000000000E+00 0. -1.
<mgrwt>
<rscale>  1 0.67066273E+03</rscale>
<asrwt>0</asrwt>
<pdfrwt beam="1">  1        1 0.40890302E+00 0.67066273E+03</pdfrwt>
<pdfrwt beam="2">0</pdfrwt>
<totfact> 0.12159609E+00</totfact>
</mgrwt>
</event>
<event>
 6    1  0.2475480E-003  0.6375860E+03  0.7818608E-02  0.9830356E-01
          1   -1    0    0  502    0  0.00000000000E+00  0.00000000000E+00  0.10265825540E+03  0.10265825540E+03  0.00000000000E+00 0.  1.
         13   -1    0    0    0    0 -0.00000000000E+00 -0.00000000000E+00 -0.10000000000E+04  0.10000000000E+04  0.00000000000E+00 0.  1.
    9000005    2    1    2  501    0  0.37229720520E-01  0.45886314265E-02 -0.89837065684E+03  0.11016286596E+04  0.63758596689E+03 0.  0.
         13    1    3    3    0    0 -0.79443156889E+02 -0.26541150010E+03 -0.72165763760E+03  0.77300984824E+03  0.00000000000E+00 0.  1.
          1    1    3    3  501    0  0.79480386609E+02  0.26541608873E+03 -0.17671301924E+03  0.32861881136E+03  0.00000000000E+00 0.  1.
         21    1    1    2  502  501 -0.37229720520E-01 -0.45886314264E-02  0.10289122441E+01  0.10295958012E+01  0.00000000000E+00 0. -1.
<mgrwt>
<rscale>  1 0.63758597E+03</rscale>
<asrwt>0</asrwt>
<pdfrwt beam="1">  1        1 0.37330353E+00 0.63758597E+03</pdfrwt>
<pdfrwt beam="2">0</pdfrwt>
<totfact> 0.17603103E+00</totfact>
</mgrwt>
</event>
<event>
 6    1  0.2475480E-003  0.6089786E+03  0.7818608E-02  0.9886952E-01
          1   -1    0    0  502    0  0.00000000000E+00  0.00000000000E+00  0.92727968146E+02  0.92727968146E+02  0.00000000000E+00 0.  1.
         13   -1    0    0    0    0 -0.00000000000E+00 -0.00000000000E+00 -0.10000000000E+04  0.10000000000E+04  0.00000000000E+00 0.  1.
    9000005    2    1    2  501    0  0.20366586393E-02 -0.14054993554E-02 -0.90728615756E+03  0.10927136273E+04  0.60897857076E+03 0.  0.
         13    1    3    3    0    0 -0.14182095782E+03  0.26937094046E+03 -0.46487145645E+03  0.55567918682E+03  0.00000000000E+00 0.  1.
          1    1    3    3  501    0  0.14182299448E+03 -0.26937234596E+03 -0.44241470111E+03  0.53703444051E+03  0.00000000000E+00 0.  1.
         21    1    1    2  502  501 -0.20366586393E-02  0.14054993554E-02  0.14125706997E-01  0.14340816051E-01  0.00000000000E+00 0. -1.
<mgrwt>
<rscale>  1 0.60897857E+03</rscale>
<asrwt>0</asrwt>
<pdfrwt beam="1">  1        1 0.33719332E+00 0.60897857E+03</pdfrwt>
<pdfrwt beam="2">0</pdfrwt>
<totfact> 0.25439025E+00</totfact>
</mgrwt>
</event>
<event>
 6    1  0.2475480E-003  0.6554617E+03  0.7818608E-02  0.9796584E-01
          1   -1    0    0  502    0  0.00000000000E+00  0.00000000000E+00  0.10741501347E+03  0.10741501347E+03  0.00000000000E+00 0.  1.
         13   -1    0    0    0    0 -0.00000000000E+00 -0.00000000000E+00 -0.10000000000E+04  0.10000000000E+04  0.00000000000E+00 0.  1.
    9000005    2    1    2  501    0 -0.49048800818E-04 -0.10725042478E-03 -0.89259249941E+03  0.11074074997E+04  0.65546166958E+03 0.  0.
         13    1    3    3    0    0 -0.95721565829E+02  0.22282873738E+03 -0.81872523068E+03  0.85388890830E+03  0.00000000000E+00 0.  1.
          1    1    3    3  501    0  0.95721516780E+02 -0.22282884463E+03 -0.73867268736E+02  0.25351859136E+03  0.00000000000E+00 0.  1.
         21    1    1    2  502  501  0.49048800817E-04  0.10725042476E-03  0.75128856300E-02  0.75138112119E-02  0.00000000000E+00 0. -1.
<mgrwt>
<rscale>  1 0.65546167E+03</rscale>
<asrwt>0</asrwt>
<pdfrwt beam="1">  1        1 0.39060087E+00 0.65546167E+03</pdfrwt>
<pdfrwt beam="2">0</pdfrwt>
<totfact> 0.14715103E+00</totfact>
</mgrwt>
</event>
<event>
 6    1  0.2475480E-003  0.6496426E+03  0.7818608E-02  0.9807450E-01
          1   -1    0    0  502    0  0.00000000000E+00  0.00000000000E+00  0.10767960226E+03  0.10767960226E+03  0.00000000000E+00 0.  1.
         13   -1    0    0    0    0 -0.00000000000E+00 -0.00000000000E+00 -0.10000000000E+04  0.10000000000E+04  0.00000000000E+00 0.  1.
    9000005    2    1    2  501    0 -0.11367507124E+00 -0.96203546173E-01 -0.89448829895E+03  0.11055065922E+04  0.64964258344E+03 0.  0.
         13    1    3    3    0    0  0.27046634434E+03 -0.16917380532E+03 -0.55104006296E+03  0.63672362200E+03  0.00000000000E+00 0.  1.
          1    1    3    3  501    0 -0.27058001941E+03  0.16907760177E+03 -0.34344823599E+03  0.46878297018E+03  0.00000000000E+00 0.  1.
         21    1    1    2  502  501  0.11367507124E+00  0.96203546173E-01  0.21679012133E+01  0.21730100816E+01  0.00000000000E+00 0.  1.
<mgrwt>
<rscale>  1 0.64964260E+03</rscale>
<asrwt>0</asrwt>
<pdfrwt beam="1">  1        1 0.39156302E+00 0.64964260E+03</pdfrwt>
<pdfrwt beam="2">0</pdfrwt>
<totfact> 0.14586981E+00</totfact>
</mgrwt>
</event>
<event>
 6    1  0.2475480E-003  0.6463443E+03  0.7818608E-02  0.9813663E-01
          1   -1    0    0  502    0  0.00000000000E+00  0.00000000000E+00  0.10444372179E+03  0.10444372179E+03  0.00000000000E+00 0.  1.
         13   -1    0    0    0    0 -0.00000000000E+00 -0.00000000000E+00 -0.10000000000E+04  0.10000000000E+04  0.00000000000E+00 0.  1.
    9000005    2    1    2  501    0 -0.38779721938E-03 -0.12318929086E-02 -0.89555964256E+03  0.11044401181E+04  0.64634425890E+03 0.  0.
         13    1    3    3    0    0  0.99444809259E+01  0.15259907569E+03  0.38703154548E+02  0.15774442866E+03  0.00000000000E+00 0.  1.
          1    1    3    3  501    0 -0.99448687231E+01 -0.15260030758E+03 -0.93426279711E+03  0.94669568941E+03  0.00000000000E+00 0.  1.
         21    1    1    2  502  501  0.38779721938E-03  0.12318929086E-02  0.33643515039E-02  0.36037213909E-02  0.00000000000E+00 0. -1.
<mgrwt>
<rscale>  1 0.64634426E+03</rscale>
<asrwt>0</asrwt>
<pdfrwt beam="1">  1        1 0.37979615E+00 0.64634426E+03</pdfrwt>
<pdfrwt beam="2">0</pdfrwt>
<totfact> 0.16454794E+00</totfact>
</mgrwt>
</event>
<event>
 6    1  0.2475480E-003  0.5758409E+03  0.7818608E-02  0.9956836E-01
          3   -1    0    0  502    0  0.00000000000E+00  0.00000000000E+00  0.82963780586E+02  0.82963780586E+02  0.00000000000E+00 0.  1.
         13   -1    0    0    0    0 -0.00000000000E+00 -0.00000000000E+00 -0.10000000000E+04  0.10000000000E+04  0.00000000000E+00 0.  1.
    9000005    2    1    2  501    0 -0.10523082330E-01 -0.13472324383E-01 -0.91710060758E+03  0.10828971617E+04  0.57584089655E+03 0.  0.
         13    1    3    3    0    0 -0.13093452594E+03  0.22049177020E+03 -0.21237258605E+03  0.33296033715E+03  0.00000000000E+00 0.  1.
          3    1    3    3  501    0  0.13092400286E+03 -0.22050524253E+03 -0.70472802153E+03  0.74993682456E+03  0.00000000000E+00 0.  1.
         21    1    1    2  502  501  0.10523082330E-01  0.13472324383E-01  0.64388161489E-01  0.66618872146E-01  0.00000000000E+00 0. -1.
<mgrwt>
<rscale>  1 0.57584090E+03</rscale>
<asrwt>0</asrwt>
<pdfrwt beam="1">  1        3 0.30168711E+00 0.57584090E+03</pdfrwt>
<pdfrwt beam="2">0</pdfrwt>
<totfact> 0.20000754E-01</totfact>
</mgrwt>
</event>
<event>
 6    1  0.2475480E-003  0.6513232E+03  0.7818608E-02  0.9804299E-01
          1   -1    0    0  502    0  0.00000000000E+00  0.00000000000E+00  0.10621865315E+03  0.10621865315E+03  0.00000000000E+00 0.  1.
         13   -1    0    0    0    0 -0.00000000000E+00 -0.00000000000E+00 -0.10000000000E+04  0.10000000000E+04  0.00000000000E+00 0.  1.
    9000005    2    1    2  501    0 -0.14016977178E+00  0.59316178453E-01 -0.89390429967E+03  0.11060229918E+04  0.65132322100E+03 0.  0.
         13    1    3    3    0    0  0.21198794645E+03  0.24279161010E+03 -0.52572256634E+03  0.61666106747E+03  0.00000000000E+00 0.  1.
          3    1    3    3  501    0 -0.21212811622E+03 -0.24273229392E+03 -0.36818173333E+03  0.48936192431E+03  0.00000000000E+00 0.  1.
         21    1    1    2  502  501  0.14016977178E+00 -0.59316178453E-01  0.12295282369E+00  0.19566136768E+00  0.00000000000E+00 0.  1.
<mgrwt>
<rscale>  1 0.65132324E+03</rscale>
<asrwt>0</asrwt>
<pdfrwt beam="1">  1        1 0.38625046E+00 0.65132324E+03</pdfrwt>
<pdfrwt beam="2">0</pdfrwt>
<totfact> 0.15394771E+00</totfact>
</mgrwt>
</event>
<event>
 6    1  0.2475480E-003  0.6692714E+03  0.7818608E-02  0.9771275E-01
          1   -1    0    0  502    0  0.00000000000E+00  0.00000000000E+00  0.11198395323E+03  0.11198395323E+03  0.00000000000E+00 0.  1.
         13   -1    0    0    0    0 -0.00000000000E+00 -0.00000000000E+00 -0.10000000000E+04  0.10000000000E+04  0.00000000000E+00 0.  1.
    9000005    2    1    2  501    0  0.50118996626E-03 -0.30448780475E-03 -0.88801891222E+03  0.11119810284E+04  0.66927140910E+03 0.  0.
         13    1    3    3    0    0 -0.15456551653E+03 -0.31190507132E+02 -0.93440671863E+03  0.94761767737E+03  0.00000000000E+00 0.  1.
          1    1    3    3  501    0  0.15456601772E+03  0.31190202644E+02  0.46387806412E+02  0.16436335102E+03  0.00000000000E+00 0.  1.
         21    1    1    2  502  501 -0.50118996626E-03  0.30448780475E-03  0.28654467508E-02  0.29248400447E-02  0.00000000000E+00 0. -1.
<mgrwt>
<rscale>  1 0.66927141E+03</rscale>
<asrwt>0</asrwt>
<pdfrwt beam="1">  1        1 0.40721523E+00 0.66927141E+03</pdfrwt>
<pdfrwt beam="2">0</pdfrwt>
<totfact> 0.12376439E+00</totfact>
</mgrwt>
</event>
<event>
 6    1  0.2475480E-003  0.7187472E+03  0.7818608E-02  0.9685698E-01
          1   -1    0    0  502    0  0.00000000000E+00  0.00000000000E+00  0.12938509259E+03  0.12938509259E+03  0.00000000000E+00 0.  1.
         13   -1    0    0    0    0 -0.00000000000E+00 -0.00000000000E+00 -0.10000000000E+04  0.10000000000E+04  0.00000000000E+00 0.  1.
    9000005    2    1    2  501    0  0.10382788449E+00  0.52572292199E-01 -0.87083427106E+03  0.11291367692E+04  0.71874717562E+03 0.  0.
         13    1    3    3    0    0  0.31715171630E+03 -0.16878761072E+03 -0.41982976465E+03  0.55256809533E+03  0.00000000000E+00 0.  1.
          3    1    3    3  501    0 -0.31704788841E+03  0.16884018301E+03 -0.45100450640E+03  0.57656867392E+03  0.00000000000E+00 0.  1.
         21    1    1    2  502  501 -0.10382788449E+00 -0.52572292199E-01  0.21936364765E+00  0.24832334851E+00  0.00000000000E+00 0. -1.
<mgrwt>
<rscale>  1 0.71874719E+03</rscale>
<asrwt>0</asrwt>
<pdfrwt beam="1">  1        1 0.47049224E+00 0.71874719E+03</pdfrwt>
<pdfrwt beam="2">0</pdfrwt>
<totfact> 0.62917912E-01</totfact>
</mgrwt>
</event>
<event>
 6    1  0.2475480E-003  0.6578023E+03  0.7818608E-02  0.9792248E-01
          1   -1    0    0  502    0  0.00000000000E+00  0.00000000000E+00  0.10821031019E+03  0.10821031019E+03  0.00000000000E+00 0.  1.
         13   -1    0    0    0    0 -0.00000000000E+00 -0.00000000000E+00 -0.10000000000E+04  0.10000000000E+04  0.00000000000E+00 0.  1.
    9000005    2    1    2  501    0 -0.42092902328E-01 -0.32859874208E-01 -0.89179929192E+03  0.11081560535E+04  0.65780229482E+03 0.  0.
         13    1    3    3    0    0 -0.15683277334E+03  0.22631044640E+03 -0.74895505030E+03  0.79796403698E+03  0.00000000000E+00 0.  1.
          1    1    3    3  501    0  0.15679068044E+03 -0.22634330628E+03 -0.14284424162E+03  0.31019201655E+03  0.00000000000E+00 0.  1.
         21    1    1    2  502  501  0.42092902328E-01  0.32859874208E-01  0.96021075246E-02  0.54256651466E-01  0.00000000000E+00 0.  1.
<mgrwt>
<rscale>  1 0.65780230E+03</rscale>
<asrwt>0</asrwt>
<pdfrwt beam="1">  1        1 0.39349287E+00 0.65780230E+03</pdfrwt>
<pdfrwt beam="2">0</pdfrwt>
<totfact> 0.14280224E+00</totfact>
</mgrwt>
</event>
<event>
 6    1  0.2475480E-003  0.6514910E+03  0.7818608E-02  0.9803986E-01
          1   -1    0    0  502    0  0.00000000000E+00  0.00000000000E+00  0.10885500377E+03  0.10885500377E+03  0.00000000000E+00 0.  1.
         13   -1    0    0    0    0 -0.00000000000E+00 -0.00000000000E+00 -0.10000000000E+04  0.10000000000E+04  0.00000000000E+00 0.  1.
    9000005    2    1    2  501    0 -0.52801755887E+00 -0.38603817466E-01 -0.89386161659E+03  0.11060872756E+04  0.65149074548E+03 0.  0.
         13    1    3    3    0    0 -0.96342511060E+02  0.30807631170E+03 -0.37192422170E+03  0.49246372451E+03  0.00000000000E+00 0.  1.
          1    1    3    3  501    0  0.95814493501E+02 -0.30811491552E+03 -0.52193739489E+03  0.61362355114E+03  0.00000000000E+00 0.  1.
         21    1    1    2  502  501  0.52801755887E+00  0.38603817466E-01  0.27166203549E+01  0.27677281206E+01  0.00000000000E+00 0. -1.
<mgrwt>
<rscale>  1 0.65149096E+03</rscale>
<asrwt>0</asrwt>
<pdfrwt beam="1">  1        1 0.39583721E+00 0.65149096E+03</pdfrwt>
<pdfrwt beam="2">0</pdfrwt>
<totfact> 0.13958109E+00</totfact>
</mgrwt>
</event>
<event>
 6    1  0.2475480E-003  0.6225254E+03  0.7818608E-02  0.9859745E-01
          1   -1    0    0  502    0  0.00000000000E+00  0.00000000000E+00  0.96934083584E+02  0.96934083584E+02  0.00000000000E+00 0.  1.
         13   -1    0    0    0    0 -0.00000000000E+00 -0.00000000000E+00 -0.10000000000E+04  0.10000000000E+04  0.00000000000E+00 0.  1.
    9000005    2    1    2  501    0  0.83572123643E-01 -0.31009273482E-01 -0.90306753841E+03  0.10968449292E+04  0.62252535034E+03 0.  0.
         13    1    3    3    0    0 -0.19807654604E+03 -0.21182690410E+03 -0.65061235107E+03  0.71232112615E+03  0.00000000000E+00 0.  1.
          1    1    3    3  501    0  0.19816011816E+03  0.21179589482E+03 -0.25245518734E+03  0.38452380305E+03  0.00000000000E+00 0.  1.
         21    1    1    2  502  501 -0.83572123643E-01  0.31009273482E-01  0.16219937245E-02  0.89154392801E-01  0.00000000000E+00 0.  1.
<mgrwt>
<rscale>  1 0.62252536E+03</rscale>
<asrwt>0</asrwt>
<pdfrwt beam="1">  1        1 0.35248832E+00 0.62252536E+03</pdfrwt>
<pdfrwt beam="2">0</pdfrwt>
<totfact> 0.21773033E+00</totfact>
</mgrwt>
</event>
<event>
 6    1  0.2475480E-003  0.6530310E+03  0.7818608E-02  0.9801108E-01
          1   -1    0    0  502    0  0.00000000000E+00  0.00000000000E+00  0.10661811924E+03  0.10661811924E+03  0.00000000000E+00 0.  1.
         13   -1    0    0    0    0 -0.00000000000E+00 -0.00000000000E+00 -0.10000000000E+04  0.10000000000E+04  0.00000000000E+00 0.  1.
    9000005    2    1    2  501    0 -0.42017972541E-03 -0.13741721702E-04 -0.89338761817E+03  0.11066123664E+04  0.65303100483E+03 0.  0.
         13    1    3    3    0    0  0.14064125517E+03 -0.58983628884E+02 -0.93593494599E+03  0.94827910145E+03  0.00000000000E+00 0.  1.
          3    1    3    3  501    0 -0.14064167535E+03  0.58983615143E+02  0.42547327817E+02  0.15833326499E+03  0.00000000000E+00 0.  1.
         21    1    1    2  502  501  0.42017972543E-03  0.13741721702E-04  0.57374128517E-02  0.57527946310E-02  0.00000000000E+00 0.  1.
<mgrwt>
<rscale>  1 0.65303100E+03</rscale>
<asrwt>0</asrwt>
<pdfrwt beam="1">  1        1 0.38770307E+00 0.65303100E+03</pdfrwt>
<pdfrwt beam="2">0</pdfrwt>
<totfact> 0.15163669E+00</totfact>
</mgrwt>
</event>
<event>
 6    1  0.2475480E-003  0.6545653E+03  0.7818608E-02  0.9798250E-01
          1   -1    0    0  502    0  0.00000000000E+00  0.00000000000E+00  0.10711623141E+03  0.10711623141E+03  0.00000000000E+00 0.  1.
         13   -1    0    0    0    0 -0.00000000000E+00 -0.00000000000E+00 -0.10000000000E+04  0.10000000000E+04  0.00000000000E+00 0.  1.
    9000005    2    1    2  501    0 -0.39128235471E-04 -0.60713281840E-04 -0.89288606797E+03  0.11071139309E+04  0.65456529515E+03 0.  0.
         13    1    3    3    0    0 -0.24985669931E+03  0.18663967280E+03 -0.27856891575E+03  0.41816668743E+03  0.00000000000E+00 0.  1.
          1    1    3    3  501    0  0.24985666019E+03 -0.18663973352E+03 -0.61431715222E+03  0.68894724346E+03  0.00000000000E+00 0.  1.
         21    1    1    2  502  501  0.39128235451E-04  0.60713281845E-04  0.22993845076E-02  0.23005186883E-02  0.00000000000E+00 0.  1.
<mgrwt>
<rscale>  1 0.65456530E+03</rscale>
<asrwt>0</asrwt>
<pdfrwt beam="1">  1        1 0.38951439E+00 0.65456530E+03</pdfrwt>
<pdfrwt beam="2">0</pdfrwt>
<totfact> 0.14881749E+00</totfact>
</mgrwt>
</event>
<event>
 6    1  0.2475480E-003  0.6445558E+03  0.7818608E-02  0.9817049E-01
          3   -1    0    0  502    0  0.00000000000E+00  0.00000000000E+00  0.10386306681E+03  0.10386306681E+03  0.00000000000E+00 0.  1.
         13   -1    0    0    0    0 -0.00000000000E+00 -0.00000000000E+00 -0.10000000000E+04  0.10000000000E+04  0.00000000000E+00 0.  1.
    9000005    2    1    2  501    0  0.78722444528E-05  0.28425528072E-04 -0.89613691612E+03  0.11038630327E+04  0.64455583357E+03 0.  0.
         13    1    3    3    0    0  0.28799239894E+03 -0.13022489244E+02 -0.69478825277E+03  0.75222332008E+03  0.00000000000E+00 0.  1.
          1    1    3    3  501    0 -0.28799239107E+03  0.13022517670E+02 -0.20134866335E+03  0.35163971265E+03  0.00000000000E+00 0.  1.
         21    1    1    2  502  501 -0.78722444417E-05 -0.28425528071E-04 -0.17073975248E-04  0.34080837863E-04  0.00000000000E+00 0. -1.
<mgrwt>
<rscale>  1 0.64455583E+03</rscale>
<asrwt>0</asrwt>
<pdfrwt beam="1">  1        3 0.37768468E+00 0.64455583E+03</pdfrwt>
<pdfrwt beam="2">0</pdfrwt>
<totfact> 0.77705639E-02</totfact>
</mgrwt>
</event>
<event>
 6    1  0.2475480E-003  0.6471981E+03  0.7818608E-02  0.9812051E-01
          1   -1    0    0  502    0  0.00000000000E+00  0.00000000000E+00  0.11275021959E+03  0.11275021959E+03  0.00000000000E+00 0.  1.
         13   -1    0    0    0    0 -0.00000000000E+00 -0.00000000000E+00 -0.10000000000E+04  0.10000000000E+04  0.00000000000E+00 0.  1.
    9000005    2    1    2  501    0 -0.15954546375E+00  0.40292919106E-01 -0.89528271173E+03  0.11047156030E+04  0.64719811687E+03 0.  0.
         13    1    3    3    0    0 -0.18342237807E+03 -0.14983709565E+03 -0.82416130778E+03  0.85751780462E+03  0.00000000000E+00 0.  1.
          3    1    3    3  501    0  0.18326283260E+03  0.14987738857E+03 -0.71121403954E+02  0.24719779837E+03  0.00000000000E+00 0.  1.
         21    1    1    2  502  501  0.15954546375E+00 -0.40292919106E-01  0.80329313241E+01  0.80346166014E+01  0.00000000000E+00 0.  1.
<mgrwt>
<rscale>  1 0.64719814E+03</rscale>
<asrwt>0</asrwt>
<pdfrwt beam="1">  1        1 0.41000166E+00 0.64719814E+03</pdfrwt>
<pdfrwt beam="2">0</pdfrwt>
<totfact> 0.12076653E+00</totfact>
</mgrwt>
</event>
<event>
 6    1  0.2475480E-003  0.6472725E+03  0.7818608E-02  0.9811911E-01
          1   -1    0    0  502    0  0.00000000000E+00  0.00000000000E+00  0.10477116017E+03  0.10477116017E+03  0.00000000000E+00 0.  1.
         13   -1    0    0    0    0 -0.00000000000E+00 -0.00000000000E+00 -0.10000000000E+04  0.10000000000E+04  0.00000000000E+00 0.  1.
    9000005    2    1    2  501    0 -0.10220787356E-02 -0.48624680733E-04 -0.89525955580E+03  0.11047404272E+04  0.64727253855E+03 0.  0.
         13    1    3    3    0    0 -0.29839410786E+03  0.26122474609E+02 -0.23846106410E+03  0.38286434462E+03  0.00000000000E+00 0.  1.
          1    1    3    3  501    0  0.29839308578E+03 -0.26122523234E+02 -0.65679849170E+03  0.72187608255E+03  0.00000000000E+00 0.  1.
         21    1    1    2  502  501  0.10220787355E-02  0.48624680735E-04  0.30715968087E-01  0.30733006765E-01  0.00000000000E+00 0.  1.
<mgrwt>
<rscale>  1 0.64727254E+03</rscale>
<asrwt>0</asrwt>
<pdfrwt beam="1">  1        1 0.38098684E+00 0.64727254E+03</pdfrwt>
<pdfrwt beam="2">0</pdfrwt>
<totfact> 0.16254130E+00</totfact>
</mgrwt>
</event>
<event>
 6    1  0.2475480E-003  0.6467330E+03  0.7818608E-02  0.9812929E-01
          1   -1    0    0  502    0  0.00000000000E+00  0.00000000000E+00  0.10456632570E+03  0.10456632570E+03  0.00000000000E+00 0.  1.
         13   -1    0    0    0    0 -0.00000000000E+00 -0.00000000000E+00 -0.10000000000E+04  0.10000000000E+04  0.00000000000E+00 0.  1.
    9000005    2    1    2  501    0 -0.89624316502E-06 -0.53555743534E-04 -0.89543409857E+03  0.11045658981E+04  0.64673301931E+03 0.  0.
         13    1    3    3    0    0 -0.82111525447E+02  0.12768771957E+03  0.39920560067E+02  0.15697167725E+03  0.00000000000E+00 0.  1.
          1    1    3    3  501    0  0.82111524551E+02 -0.12768777313E+03 -0.93535465864E+03  0.94759422081E+03  0.00000000000E+00 0.  1.
         21    1    1    2  502  501  0.89624315762E-06  0.53555743541E-04  0.42427225893E-03  0.42764000119E-03  0.00000000000E+00 0. -1.
<mgrwt>
<rscale>  1 0.64673302E+03</rscale>
<asrwt>0</asrwt>
<pdfrwt beam="1">  1        1 0.38024199E+00 0.64673302E+03</pdfrwt>
<pdfrwt beam="2">0</pdfrwt>
<totfact> 0.16379260E+00</totfact>
</mgrwt>
</event>
<event>
 6    1  0.2475480E-003  0.6560677E+03  0.7818608E-02  0.9795460E-01
          1   -1    0    0  502    0  0.00000000000E+00  0.00000000000E+00  0.10760734158E+03  0.10760734158E+03  0.00000000000E+00 0.  1.
         13   -1    0    0    0    0 -0.00000000000E+00 -0.00000000000E+00 -0.10000000000E+04  0.10000000000E+04  0.00000000000E+00 0.  1.
    9000005    2    1    2  501    0  0.69433262013E-04  0.85578019480E-05 -0.89239377578E+03  0.11076062220E+04  0.65606774959E+03 0.  0.
         13    1    3    3    0    0  0.27796921968E+03 -0.14215616038E+03 -0.27626991069E+03  0.41689366099E+03  0.00000000000E+00 0.  1.
          3    1    3    3  501    0 -0.27796915025E+03  0.14215616894E+03 -0.61612386509E+03  0.69071256104E+03  0.00000000000E+00 0.  1.
         21    1    1    2  502  501 -0.69433262038E-04 -0.85578019468E-05  0.11173517011E-02  0.11195396544E-02  0.00000000000E+00 0.  1.
<mgrwt>
<rscale>  1 0.65606775E+03</rscale>
<asrwt>0</asrwt>
<pdfrwt beam="1">  1        1 0.39130025E+00 0.65606775E+03</pdfrwt>
<pdfrwt beam="2">0</pdfrwt>
<totfact> 0.14608691E+00</totfact>
</mgrwt>
</event>
<event>
 6    1  0.2475480E-003  0.6613899E+03  0.7818608E-02  0.9785639E-01
          1   -1    0    0  502    0  0.00000000000E+00  0.00000000000E+00  0.10935925326E+03  0.10935925326E+03  0.00000000000E+00 0.  1.
         13   -1    0    0    0    0 -0.00000000000E+00 -0.00000000000E+00 -0.10000000000E+04  0.10000000000E+04  0.00000000000E+00 0.  1.
    9000005    2    1    2  501    0 -0.48494011367E-05 -0.20296047452E-04 -0.89064086232E+03  0.11093591358E+04  0.66138985976E+03 0.  0.
         13    1    3    3    0    0  0.32064814606E+03  0.73194902460E+02 -0.38754656923E+03  0.50829624299E+03  0.00000000000E+00 0.  1.
          3    1    3    3  501    0 -0.32064815090E+03 -0.73194922756E+02 -0.50309429308E+03  0.60106289282E+03  0.00000000000E+00 0.  1.
         21    1    1    2  502  501  0.48494011287E-05  0.20296047456E-04  0.11557375681E-03  0.11744249442E-03  0.00000000000E+00 0. -1.
<mgrwt>
<rscale>  1 0.66138986E+03</rscale>
<asrwt>0</asrwt>
<pdfrwt beam="1">  1        1 0.39767085E+00 0.66138986E+03</pdfrwt>
<pdfrwt beam="2">0</pdfrwt>
<totfact> 0.13672878E+00</totfact>
</mgrwt>
</event>
<event>
 6    1  0.2475480E-003  0.6701518E+03  0.7818608E-02  0.9769684E-01
          1   -1    0    0  502    0  0.00000000000E+00  0.00000000000E+00  0.11550225115E+03  0.11550225115E+03  0.00000000000E+00 0.  1.
         13   -1    0    0    0    0 -0.00000000000E+00 -0.00000000000E+00 -0.10000000000E+04  0.10000000000E+04  0.00000000000E+00 0.  1.
    9000005    2    1    2  501    0  0.37495056682E+01  0.49514914089E+01 -0.88395170307E+03  0.11092673313E+04  0.67012299080E+03 0.  0.
         13    1    3    3    0    0  0.22109899709E+03  0.93136780251E+02 -0.83614934907E+03  0.86988790100E+03  0.00000000000E+00 0.  1.
          3    1    3    3  501    0 -0.21734949143E+03 -0.88185288842E+02 -0.47802354006E+02  0.23937943028E+03  0.00000000000E+00 0.  1.
         21    1    1    2  502  501 -0.37495056682E+01 -0.49514914089E+01 -0.54604577292E+00  0.62349198804E+01  0.00000000000E+00 0.  1.
<mgrwt>
<rscale>  1 0.67015177E+03</rscale>
<asrwt>0</asrwt>
<pdfrwt beam="1">  1        1 0.42000907E+00 0.67015177E+03</pdfrwt>
<pdfrwt beam="2">0</pdfrwt>
<totfact> 0.10839476E+00</totfact>
</mgrwt>
</event>
<event>
 6    1  0.2475480E-003  0.6996243E+03  0.7818608E-02  0.9717875E-01
          1   -1    0    0  502    0  0.00000000000E+00  0.00000000000E+00  0.13795903683E+03  0.13795903683E+03  0.00000000000E+00 0.  1.
         13   -1    0    0    0    0 -0.00000000000E+00 -0.00000000000E+00 -0.10000000000E+04  0.10000000000E+04  0.00000000000E+00 0.  1.
    9000005    2    1    2  501    0  0.50513501364E+01  0.16757161050E+00 -0.87717021504E+03  0.11220079090E+04  0.69960604441E+03 0.  0.
         13    1    3    3    0    0 -0.22862880202E+03  0.17074470636E+03 -0.11657170588E+03  0.30824316128E+03  0.00000000000E+00 0.  1.
          1    1    3    3  501    0  0.23368015216E+03 -0.17057713475E+03 -0.76059850916E+03  0.81376474767E+03  0.00000000000E+00 0.  1.
         21    1    1    2  502  501 -0.50513501364E+01 -0.16757161050E+00  0.15129251874E+02  0.15951127883E+02  0.00000000000E+00 0.  1.
<mgrwt>
<rscale>  1 0.69962430E+03</rscale>
<asrwt>0</asrwt>
<pdfrwt beam="1">  1        1 0.50167028E+00 0.69962430E+03</pdfrwt>
<pdfrwt beam="2">0</pdfrwt>
<totfact> 0.44894908E-01</totfact>
</mgrwt>
</event>
<event>
 6    1  0.2475480E-003  0.5951501E+03  0.7818608E-02  0.9915519E-01
          1   -1    0    0  502    0  0.00000000000E+00  0.00000000000E+00  0.89550930774E+02  0.89550930774E+02  0.00000000000E+00 0.  1.
         13   -1    0    0    0    0 -0.00000000000E+00 -0.00000000000E+00 -0.10000000000E+04  0.10000000000E+04  0.00000000000E+00 0.  1.
    9000005    2    1    2  501    0 -0.11466787192E+00 -0.58207924635E+00 -0.91135254858E+03  0.10884700793E+04  0.59514980781E+03 0.  0.
         13    1    3    3    0    0  0.23997295055E+02  0.28305047750E+03 -0.29486517488E+03  0.40943731430E+03  0.00000000000E+00 0.  1.
          1    1    3    3  501    0 -0.24111962927E+02 -0.28363255675E+03 -0.61648737370E+03  0.67903276499E+03  0.00000000000E+00 0.  1.
         21    1    1    2  502  501  0.11466787192E+00  0.58207924635E+00  0.90347935834E+00  0.10808514795E+01  0.00000000000E+00 0.  1.
<mgrwt>
<rscale>  1 0.59515010E+03</rscale>
<asrwt>0</asrwt>
<pdfrwt beam="1">  1        1 0.32564043E+00 0.59515010E+03</pdfrwt>
<pdfrwt beam="2">0</pdfrwt>
<totfact> 0.28616991E+00</totfact>
</mgrwt>
</event>
<event>
 6    1  0.2475480E-003  0.6534664E+03  0.7818608E-02  0.9800296E-01
          1   -1    0    0  502    0  0.00000000000E+00  0.00000000000E+00  0.10680717215E+03  0.10680717215E+03  0.00000000000E+00 0.  1.
         13   -1    0    0    0    0 -0.00000000000E+00 -0.00000000000E+00 -0.10000000000E+04  0.10000000000E+04  0.00000000000E+00 0.  1.
    9000005    2    1    2  501    0  0.64543878375E-03 -0.58989327283E-03 -0.89324541483E+03  0.11067545779E+04  0.65346639131E+03 0.  0.
         13    1    3    3    0    0  0.12834166780E+03 -0.27631031043E+03 -0.24668543035E+03  0.39201106221E+03  0.00000000000E+00 0.  1.
          3    1    3    3  501    0 -0.12834102236E+03  0.27630972054E+03 -0.64655998448E+03  0.71474351569E+03  0.00000000000E+00 0.  1.
         21    1    1    2  502  501 -0.64543878375E-03  0.58989327283E-03  0.52586978695E-01  0.52594247723E-01  0.00000000000E+00 0. -1.
<mgrwt>
<rscale>  1 0.65346639E+03</rscale>
<asrwt>0</asrwt>
<pdfrwt beam="1">  1        1 0.38839054E+00 0.65346639E+03</pdfrwt>
<pdfrwt beam="2">0</pdfrwt>
<totfact> 0.15056488E+00</totfact>
</mgrwt>
</event>
<event>
 6    1  0.2475480E-003  0.6512653E+03  0.7818608E-02  0.9804408E-01
          1   -1    0    0  502    0  0.00000000000E+00  0.00000000000E+00  0.11053561454E+03  0.11053561454E+03  0.00000000000E+00 0.  1.
         13   -1    0    0    0    0 -0.00000000000E+00 -0.00000000000E+00 -0.10000000000E+04  0.10000000000E+04  0.00000000000E+00 0.  1.
    9000005    2    1    2  501    0  0.14966214935E+00  0.14140664723E+00 -0.89396076383E+03  0.11060345243E+04  0.65126529109E+03 0.  0.
         13    1    3    3    0    0 -0.17193381256E+03 -0.27076947131E+03 -0.54132956242E+03  0.62921779826E+03  0.00000000000E+00 0.  1.
          1    1    3    3  501    0  0.17208347471E+03  0.27091087796E+03 -0.35263120140E+03  0.47681672608E+03  0.00000000000E+00 0.  1.
         21    1    1    2  502  501 -0.14966214935E+00 -0.14140664723E+00  0.44963783684E+01  0.45010902046E+01  0.00000000000E+00 0. -1.
<mgrwt>
<rscale>  1 0.65126532E+03</rscale>
<asrwt>0</asrwt>
<pdfrwt beam="1">  1        1 0.40194854E+00 0.65126532E+03</pdfrwt>
<pdfrwt beam="2">0</pdfrwt>
<totfact> 0.13110529E+00</totfact>
</mgrwt>
</event>
<event>
 6    1  0.2475480E-003  0.6533534E+03  0.7818608E-02  0.9800507E-01
          1   -1    0    0  502    0  0.00000000000E+00  0.00000000000E+00  0.14840345262E+03  0.14840345262E+03  0.00000000000E+00 0.  1.
         13   -1    0    0    0    0 -0.00000000000E+00 -0.00000000000E+00 -0.10000000000E+04  0.10000000000E+04  0.00000000000E+00 0.  1.
    9000005    2    1    2  501    0 -0.75541604698E+00 -0.11254180367E+02 -0.89243617433E+03  0.11060348043E+04  0.65325602629E+03 0.  0.
         13    1    3    3    0    0  0.26132259422E+03 -0.10926591272E+03 -0.72876783789E+03  0.78187665234E+03  0.00000000000E+00 0.  1.
          3    1    3    3  501    0 -0.26207801026E+03  0.98011732358E+02 -0.16366833644E+03  0.32415815198E+03  0.00000000000E+00 0.  1.
         21    1    1    2  502  501  0.75541604698E+00  0.11254180367E+02  0.40839626954E+02  0.42368648301E+02  0.00000000000E+00 0.  1.
<mgrwt>
<rscale>  1 0.65335340E+03</rscale>
<asrwt>0</asrwt>
<pdfrwt beam="1">  1        1 0.53965006E+00 0.65335340E+03</pdfrwt>
<pdfrwt beam="2">0</pdfrwt>
<totfact> 0.29507866E-01</totfact>
</mgrwt>
</event>
<event>
 6    1  0.2475480E-003  0.5619054E+03  0.7818608E-02  0.9987752E-01
          1   -1    0    0  502    0  0.00000000000E+00  0.00000000000E+00  0.78992847850E+02  0.78992847850E+02  0.00000000000E+00 0.  1.
         13   -1    0    0    0    0 -0.00000000000E+00 -0.00000000000E+00 -0.10000000000E+04  0.10000000000E+04  0.00000000000E+00 0.  1.
    9000005    2    1    2  501    0  0.15295240498E-01  0.60199639843E-01 -0.92104733992E+03  0.10789188681E+04  0.56190543492E+03 0.  0.
         13    1    3    3    0    0  0.10971137448E+03  0.25782755939E+03 -0.50085001042E+03  0.57390100976E+03  0.00000000000E+00 0.  1.
          3    1    3    3  501    0 -0.10969607924E+03 -0.25776735975E+03 -0.42019732950E+03  0.50501785837E+03  0.00000000000E+00 0.  1.
         21    1    1    2  502  501 -0.15295240498E-01 -0.60199639843E-01  0.40187769616E-01  0.73979712393E-01  0.00000000000E+00 0. -1.
<mgrwt>
<rscale>  1 0.56190544E+03</rscale>
<asrwt>0</asrwt>
<pdfrwt beam="1">  1        1 0.28724733E+00 0.56190544E+03</pdfrwt>
<pdfrwt beam="2">0</pdfrwt>
<totfact> 0.42163324E+00</totfact>
</mgrwt>
</event>
<event>
 6    1  0.2475480E-003  0.6481168E+03  0.7818608E-02  0.9810319E-01
          1   -1    0    0  502    0  0.00000000000E+00  0.00000000000E+00  0.10501384416E+03  0.10501384416E+03  0.00000000000E+00 0.  1.
         13   -1    0    0    0    0 -0.00000000000E+00 -0.00000000000E+00 -0.10000000000E+04  0.10000000000E+04  0.00000000000E+00 0.  1.
    9000005    2    1    2  501    0 -0.19648675249E-04  0.14245561829E-04 -0.89498615627E+03  0.11050138199E+04  0.64811675046E+03 0.  0.
         13    1    3    3    0    0 -0.15391321597E+03  0.28399426469E+03 -0.49168472340E+03  0.58829914810E+03  0.00000000000E+00 0.  1.
          3    1    3    3  501    0  0.15391319632E+03 -0.28399425045E+03 -0.40330143286E+03  0.51671467178E+03  0.00000000000E+00 0.  1.
         21    1    1    2  502  501  0.19648675257E-04 -0.14245561816E-04  0.42279634814E-06  0.24273137983E-04  0.00000000000E+00 0.  1.
<mgrwt>
<rscale>  1 0.64811675E+03</rscale>
<asrwt>0</asrwt>
<pdfrwt beam="1">  1        1 0.38186933E+00 0.64811675E+03</pdfrwt>
<pdfrwt beam="2">0</pdfrwt>
<totfact> 0.16106448E+00</totfact>
</mgrwt>
</event>
<event>
 6    1  0.2475480E-003  0.6530368E+03  0.7818608E-02  0.9801098E-01
          3   -1    0    0  502    0  0.00000000000E+00  0.00000000000E+00  0.10661445749E+03  0.10661445749E+03  0.00000000000E+00 0.  1.
         13   -1    0    0    0    0 -0.00000000000E+00 -0.00000000000E+00 -0.10000000000E+04  0.10000000000E+04  0.00000000000E+00 0.  1.
    9000005    2    1    2  501    0 -0.64445597843E-04  0.62679290309E-05 -0.89338573650E+03  0.11066142530E+04  0.65303677593E+03 0.  0.
         13    1    3    3    0    0 -0.32481058118E+03  0.33030010982E+02 -0.45452898526E+03  0.55963335651E+03  0.00000000000E+00 0.  1.
          1    1    3    3  501    0  0.32481051674E+03 -0.33030004714E+02 -0.43885675124E+03  0.54698089647E+03  0.00000000000E+00 0.  1.
         21    1    1    2  502  501  0.64445597844E-04 -0.62679290320E-05  0.19399508797E-03  0.20451556462E-03  0.00000000000E+00 0. -1.
<mgrwt>
<rscale>  1 0.65303678E+03</rscale>
<asrwt>0</asrwt>
<pdfrwt beam="1">  1        3 0.38768975E+00 0.65303678E+03</pdfrwt>
<pdfrwt beam="2">0</pdfrwt>
<totfact> 0.68714356E-02</totfact>
</mgrwt>
</event>
<event>
 6    1  0.2475480E-003  0.6535603E+03  0.7818608E-02  0.9800121E-01
          1   -1    0    0  502    0  0.00000000000E+00  0.00000000000E+00  0.10678571359E+03  0.10678571359E+03  0.00000000000E+00 0.  1.
         13   -1    0    0    0    0 -0.00000000000E+00 -0.00000000000E+00 -0.10000000000E+04  0.10000000000E+04  0.00000000000E+00 0.  1.
    9000005    2    1    2  501    0 -0.78659279126E-05 -0.17878480890E-04 -0.89321474080E+03  0.11067852588E+04  0.65356027716E+03 0.  0.
         13    1    3    3    0    0  0.67301171805E+02 -0.28127484164E+03 -0.18899779644E+03  0.34549262124E+03  0.00000000000E+00 0.  1.
          1    1    3    3  501    0 -0.67301179671E+02  0.28127482376E+03 -0.70421694435E+03  0.76129263755E+03  0.00000000000E+00 0.  1.
         21    1    1    2  502  501  0.78659279106E-05  0.17878480866E-04  0.45438902421E-03  0.45480863913E-03  0.00000000000E+00 0. -1.
<mgrwt>
<rscale>  1 0.65356028E+03</rscale>
<asrwt>0</asrwt>
<pdfrwt beam="1">  1        1 0.38831250E+00 0.65356028E+03</pdfrwt>
<pdfrwt beam="2">0</pdfrwt>
<totfact> 0.15068217E+00</totfact>
</mgrwt>
</event>
<event>
 6    1  0.2475480E-003  0.6506411E+03  0.7818608E-02  0.9805577E-01
          1   -1    0    0  502    0  0.00000000000E+00  0.00000000000E+00  0.10585222647E+03  0.10585222647E+03  0.00000000000E+00 0.  1.
         13   -1    0    0    0    0 -0.00000000000E+00 -0.00000000000E+00 -0.10000000000E+04  0.10000000000E+04  0.00000000000E+00 0.  1.
    9000005    2    1    2  501    0  0.27390406655E-03  0.85867514315E-04 -0.89416655090E+03  0.11058334469E+04  0.65064106200E+03 0.  0.
         13    1    3    3    0    0 -0.67134003456E+02 -0.15214112554E+03 -0.92230325600E+03  0.93717511305E+03  0.00000000000E+00 0.  1.
          1    1    3    3  501    0  0.67134277360E+02  0.15214121141E+03  0.28136705102E+02  0.16865833386E+03  0.00000000000E+00 0.  1.
         21    1    1    2  502  501 -0.27390406653E-03 -0.85867514317E-04  0.18777363862E-01  0.18779557776E-01  0.00000000000E+00 0.  1.
<mgrwt>
<rscale>  1 0.65064106E+03</rscale>
<asrwt>0</asrwt>
<pdfrwt beam="1">  1        1 0.38491800E+00 0.65064106E+03</pdfrwt>
<pdfrwt beam="2">0</pdfrwt>
<totfact> 0.15607148E+00</totfact>
</mgrwt>
</event>
<event>
 6    1  0.2475480E-003  0.6621746E+03  0.7818608E-02  0.9784199E-01
          1   -1    0    0  502    0  0.00000000000E+00  0.00000000000E+00  0.10961885902E+03  0.10961885902E+03  0.00000000000E+00 0.  1.
         13   -1    0    0    0    0 -0.00000000000E+00 -0.00000000000E+00 -0.10000000000E+04  0.10000000000E+04  0.00000000000E+00 0.  1.
    9000005    2    1    2  501    0  0.73142925828E-04 -0.28296079876E-04 -0.89038114958E+03  0.11096187801E+04  0.66217463382E+03 0.  0.
         13    1    3    3    0    0 -0.10985660675E+03 -0.22667158448E+03 -0.80525709115E+03  0.84373423784E+03  0.00000000000E+00 0.  1.
          3    1    3    3  501    0  0.10985667990E+03  0.22667155619E+03 -0.85124058439E+02  0.26588454229E+03  0.00000000000E+00 0.  1.
         21    1    1    2  502  501 -0.73142925818E-04  0.28296079900E-04  0.86070761887E-05  0.78896371878E-04  0.00000000000E+00 0. -1.
<mgrwt>
<rscale>  1 0.66217463E+03</rscale>
<asrwt>0</asrwt>
<pdfrwt beam="1">  1        1 0.39861487E+00 0.66217463E+03</pdfrwt>
<pdfrwt beam="2">0</pdfrwt>
<totfact> 0.13539138E+00</totfact>
</mgrwt>
</event>
<event>
 6    1  0.2475480E-003  0.6505797E+03  0.7818608E-02  0.9805692E-01
          1   -1    0    0  502    0  0.00000000000E+00  0.00000000000E+00  0.10581351871E+03  0.10581351871E+03  0.00000000000E+00 0.  1.
         13   -1    0    0    0    0 -0.00000000000E+00 -0.00000000000E+00 -0.10000000000E+04  0.10000000000E+04  0.00000000000E+00 0.  1.
    9000005    2    1    2  501    0  0.64665357513E-05  0.79781318547E-05 -0.89418652656E+03  0.11058134723E+04  0.65057965786E+03 0.  0.
         13    1    3    3    0    0 -0.31438403415E+03  0.61869088043E+02 -0.54246594805E+03  0.63002730876E+03  0.00000000000E+00 0.  1.
          1    1    3    3  501    0  0.31438404062E+03 -0.61869080064E+02 -0.35172057851E+03  0.47578616354E+03  0.00000000000E+00 0.  1.
         21    1    1    2  502  501 -0.64665357783E-05 -0.79781318549E-05  0.45271024555E-04  0.46421248767E-04  0.00000000000E+00 0.  1.
<mgrwt>
<rscale>  1 0.65057966E+03</rscale>
<asrwt>0</asrwt>
<pdfrwt beam="1">  1        1 0.38477724E+00 0.65057966E+03</pdfrwt>
<pdfrwt beam="2">0</pdfrwt>
<totfact> 0.15629713E+00</totfact>
</mgrwt>
</event>
<event>
 6    1  0.2475480E-003  0.6376318E+03  0.7818608E-02  0.9830268E-01
          1   -1    0    0  502    0  0.00000000000E+00  0.00000000000E+00  0.10170630997E+03  0.10170630997E+03  0.00000000000E+00 0.  1.
         13   -1    0    0    0    0 -0.00000000000E+00 -0.00000000000E+00 -0.10000000000E+04  0.10000000000E+04  0.00000000000E+00 0.  1.
    9000005    2    1    2  501    0  0.65643441482E-02 -0.24782834736E-01 -0.89835353511E+03  0.11016412046E+04  0.63763176591E+03 0.  0.
         13    1    3    3    0    0 -0.79395419655E+02 -0.22763869202E+01  0.84275574099E+02  0.11580667938E+03  0.00000000000E+00 0.  1.
          3    1    3    3  501    0  0.79401983999E+02  0.22516040855E+01 -0.98262910921E+03  0.98583452519E+03  0.00000000000E+00 0.  1.
         21    1    1    2  502  501 -0.65643441482E-02  0.24782834736E-01  0.59845084737E-01  0.65105404375E-01  0.00000000000E+00 0.  1.
<mgrwt>
<rscale>  1 0.63763177E+03</rscale>
<asrwt>0</asrwt>
<pdfrwt beam="1">  1        1 0.36984191E+00 0.63763177E+03</pdfrwt>
<pdfrwt beam="2">0</pdfrwt>
<totfact> 0.18230488E+00</totfact>
</mgrwt>
</event>
<event>
 6    1  0.2475480E-003  0.6458929E+03  0.7818608E-02  0.9814516E-01
          1   -1    0    0  502    0  0.00000000000E+00  0.00000000000E+00  0.10429534937E+03  0.10429534937E+03  0.00000000000E+00 0.  1.
         13   -1    0    0    0    0 -0.00000000000E+00 -0.00000000000E+00 -0.10000000000E+04  0.10000000000E+04  0.00000000000E+00 0.  1.
    9000005    2    1    2  501    0  0.20981504699E-03 -0.19544896321E-03 -0.89570555982E+03  0.11042943960E+04  0.64589291930E+03 0.  0.
         13    1    3    3    0    0  0.89164476471E+02 -0.31010973879E+03 -0.42516189073E+03  0.53374243534E+03  0.00000000000E+00 0.  1.
          1    1    3    3  501    0 -0.89164266655E+02  0.31010954334E+03 -0.47054366910E+03  0.57055196069E+03  0.00000000000E+00 0.  1.
         21    1    1    2  502  501 -0.20981504698E-03  0.19544896320E-03  0.90919523375E-03  0.95334077025E-03  0.00000000000E+00 0.  1.
<mgrwt>
<rscale>  1 0.64589292E+03</rscale>
<asrwt>0</asrwt>
<pdfrwt beam="1">  1        1 0.37925662E+00 0.64589292E+03</pdfrwt>
<pdfrwt beam="2">0</pdfrwt>
<totfact> 0.16546590E+00</totfact>
</mgrwt>
</event>
<event>
 6    1  0.2475480E-003  0.6678984E+03  0.7818608E-02  0.9773762E-01
          1   -1    0    0  502    0  0.00000000000E+00  0.00000000000E+00  0.11153876448E+03  0.11153876448E+03  0.00000000000E+00 0.  1.
         13   -1    0    0    0    0 -0.00000000000E+00 -0.00000000000E+00 -0.10000000000E+04  0.10000000000E+04  0.00000000000E+00 0.  1.
    9000005    2    1    2  501    0  0.34877542504E-03 -0.27935417079E-03 -0.88847791705E+03  0.11115220770E+04  0.66789843427E+03 0.  0.
         13    1    3    3    0    0  0.24382231969E+03 -0.12095818726E+03 -0.76626237912E+03  0.81316556758E+03  0.00000000000E+00 0.  1.
          1    1    3    3  501    0 -0.24382197091E+03  0.12095790790E+03 -0.12221553793E+03  0.29835650939E+03  0.00000000000E+00 0.  1.
         21    1    1    2  502  501 -0.34877542504E-03  0.27935417079E-03  0.16681529601E-01  0.16687513681E-01  0.00000000000E+00 0.  1.
<mgrwt>
<rscale>  1 0.66789843E+03</rscale>
<asrwt>0</asrwt>
<pdfrwt beam="1">  1        1 0.40559636E+00 0.66789843E+03</pdfrwt>
<pdfrwt beam="2">0</pdfrwt>
<totfact> 0.12587925E+00</totfact>
</mgrwt>
</event>
<event>
 6    1  0.2475480E-003  0.6268946E+03  0.7818608E-02  0.9851128E-01
          1   -1    0    0  502    0  0.00000000000E+00  0.00000000000E+00  0.99241089575E+02  0.99241089575E+02  0.00000000000E+00 0.  1.
         13   -1    0    0    0    0 -0.00000000000E+00 -0.00000000000E+00 -0.10000000000E+04  0.10000000000E+04  0.00000000000E+00 0.  1.
    9000005    2    1    2  501    0 -0.16514899214E-01  0.16423068371E-02 -0.90175070863E+03  0.10982491525E+04  0.62689461651E+03 0.  0.
         13    1    3    3    0    0  0.76872936761E+02  0.21539999034E+03 -0.75373337519E+02  0.24080644562E+03  0.00000000000E+00 0.  1.
          3    1    3    3  501    0 -0.76889451660E+02 -0.21539834803E+03 -0.82637737112E+03  0.85744270689E+03  0.00000000000E+00 0.  1.
         21    1    1    2  502  501  0.16514899214E-01 -0.16423068371E-02  0.99179820885E+00  0.99193705755E+00  0.00000000000E+00 0. -1.
<mgrwt>
<rscale>  1 0.62689462E+03</rscale>
<asrwt>0</asrwt>
<pdfrwt beam="1">  1        1 0.36087745E+00 0.62689462E+03</pdfrwt>
<pdfrwt beam="2">0</pdfrwt>
<totfact> 0.19995656E+00</totfact>
</mgrwt>
</event>
<event>
 6    1  0.2475480E-003  0.6331576E+03  0.7818608E-02  0.9838906E-01
          1   -1    0    0  502    0  0.00000000000E+00  0.00000000000E+00  0.10028194387E+03  0.10028194387E+03  0.00000000000E+00 0.  1.
         13   -1    0    0    0    0 -0.00000000000E+00 -0.00000000000E+00 -0.10000000000E+04  0.10000000000E+04  0.00000000000E+00 0.  1.
    9000005    2    1    2  501    0 -0.91418647661E-02 -0.15590796072E+00 -0.89963425170E+03  0.11001047038E+04  0.63315760129E+03 0.  0.
         13    1    3    3    0    0 -0.15338610064E+03  0.26874401420E+03 -0.56538348054E+03  0.64452239768E+03  0.00000000000E+00 0.  1.
          1    1    3    3  501    0  0.15337695878E+03 -0.26889992216E+03 -0.33425077116E+03  0.45558230611E+03  0.00000000000E+00 0.  1.
         21    1    1    2  502  501  0.91418647661E-02  0.15590796072E+00 -0.83804431239E-01  0.17724008746E+00  0.00000000000E+00 0.  1.
<mgrwt>
<rscale>  1 0.63315762E+03</rscale>
<asrwt>0</asrwt>
<pdfrwt beam="1">  1        1 0.36466238E+00 0.63315762E+03</pdfrwt>
<pdfrwt beam="2">0</pdfrwt>
<totfact> 0.19225239E+00</totfact>
</mgrwt>
</event>
<event>
 6    1  0.2475480E-003  0.6347095E+03  0.7818608E-02  0.9835901E-01
          1   -1    0    0  502    0  0.00000000000E+00  0.00000000000E+00  0.10082456633E+03  0.10082456633E+03  0.00000000000E+00 0.  1.
         13   -1    0    0    0    0 -0.00000000000E+00 -0.00000000000E+00 -0.10000000000E+04  0.10000000000E+04  0.00000000000E+00 0.  1.
    9000005    2    1    2  501    0 -0.20952469775E-02 -0.33907149525E-02 -0.89928592000E+03  0.11007140081E+04  0.63470950975E+03 0.  0.
         13    1    3    3    0    0  0.35848157445E+01 -0.27370885934E+03 -0.72812107106E+03  0.77787510868E+03  0.00000000000E+00 0.  1.
          3    1    3    3  501    0 -0.35869109915E+01  0.27370546862E+03 -0.17116484894E+03  0.32283889945E+03  0.00000000000E+00 0.  1.
         21    1    1    2  502  501  0.20952469775E-02  0.33907149525E-02  0.11048633023E+00  0.11055820266E+00  0.00000000000E+00 0.  1.
<mgrwt>
<rscale>  1 0.63470951E+03</rscale>
<asrwt>0</asrwt>
<pdfrwt beam="1">  1        1 0.36663556E+00 0.63470951E+03</pdfrwt>
<pdfrwt beam="2">0</pdfrwt>
<totfact> 0.18840826E+00</totfact>
</mgrwt>
</event>
<event>
 6    1  0.2475480E-003  0.5995731E+03  0.7818608E-02  0.9906292E-01
          1   -1    0    0  502    0  0.00000000000E+00  0.00000000000E+00  0.89872016629E+02  0.89872016629E+02  0.00000000000E+00 0.  1.
         13   -1    0    0    0    0 -0.00000000000E+00 -0.00000000000E+00 -0.10000000000E+04  0.10000000000E+04  0.00000000000E+00 0.  1.
    9000005    2    1    2  501    0 -0.44421621510E-05 -0.66988209255E-05 -0.91012800936E+03  0.10898719894E+04  0.59957314810E+03 0.  0.
         13    1    3    3    0    0 -0.25690936388E+03  0.15026982564E+03 -0.38981352991E+03  0.49044676557E+03  0.00000000000E+00 0.  1.
          3    1    3    3  501    0  0.25690935944E+03 -0.15026983234E+03 -0.52031447945E+03  0.59942522386E+03  0.00000000000E+00 0.  1.
         21    1    1    2  502  501  0.44421621267E-05  0.66988209509E-05  0.25986983398E-04  0.27201660108E-04  0.00000000000E+00 0. -1.
<mgrwt>
<rscale>  1 0.59957315E+03</rscale>
<asrwt>0</asrwt>
<pdfrwt beam="1">  1        1 0.32680802E+00 0.59957315E+03</pdfrwt>
<pdfrwt beam="2">0</pdfrwt>
<totfact> 0.28263812E+00</totfact>
</mgrwt>
</event>
<event>
 6    1  0.2475480E-003  0.6561458E+03  0.7818608E-02  0.9795315E-01
          1   -1    0    0  502    0  0.00000000000E+00  0.00000000000E+00  0.11536607059E+03  0.11536607059E+03  0.00000000000E+00 0.  1.
         13   -1    0    0    0    0 -0.00000000000E+00 -0.00000000000E+00 -0.10000000000E+04  0.10000000000E+04  0.00000000000E+00 0.  1.
    9000005    2    1    2  501    0 -0.15838318693E+00 -0.35138800564E+00 -0.89236284869E+03  0.11076275467E+04  0.65614570022E+03 0.  0.
         13    1    3    3    0    0 -0.27460978023E+03 -0.16933160598E+03 -0.54839528474E+03  0.63625554026E+03  0.00000000000E+00 0.  1.
          1    1    3    3  501    0  0.27445139704E+03  0.16898021798E+03 -0.34396756395E+03  0.47137200644E+03  0.00000000000E+00 0.  1.
         21    1    1    2  502  501  0.15838318693E+00  0.35138800564E+00  0.77289192838E+01  0.77385238941E+01  0.00000000000E+00 0.  1.
<mgrwt>
<rscale>  1 0.65614581E+03</rscale>
<asrwt>0</asrwt>
<pdfrwt beam="1">  1        1 0.41951387E+00 0.65614581E+03</pdfrwt>
<pdfrwt beam="2">0</pdfrwt>
<totfact> 0.10925050E+00</totfact>
</mgrwt>
</event>
<event>
 6    1  0.2475480E-003  0.6426047E+03  0.7818608E-02  0.9820756E-01
          1   -1    0    0  502    0  0.00000000000E+00  0.00000000000E+00  0.12345844502E+03  0.12345844502E+03  0.00000000000E+00 0.  1.
         13   -1    0    0    0    0 -0.00000000000E+00 -0.00000000000E+00 -0.10000000000E+04  0.10000000000E+04  0.00000000000E+00 0.  1.
    9000005    2    1    2  501    0  0.16941772929E+01  0.27257774017E+01 -0.89662421918E+03  0.11031209550E+04  0.64259672490E+03 0.  0.
         13    1    3    3    0    0  0.19587647266E+03 -0.98560300778E+02 -0.45076921322E+02  0.22386079216E+03  0.00000000000E+00 0.  1.
          1    1    3    3  501    0 -0.19418229537E+03  0.10128607818E+03 -0.85154729785E+03  0.87926016284E+03  0.00000000000E+00 0.  1.
         21    1    1    2  502  501 -0.16941772929E+01 -0.27257774017E+01  0.20082664196E+02  0.20337490021E+02  0.00000000000E+00 0. -1.
<mgrwt>
<rscale>  1 0.64260474E+03</rscale>
<asrwt>0</asrwt>
<pdfrwt beam="1">  1        1 0.44894075E+00 0.64260474E+03</pdfrwt>
<pdfrwt beam="2">0</pdfrwt>
<totfact> 0.80469260E-01</totfact>
</mgrwt>
</event>
<event>
 6    1  0.2475480E-003  0.6504833E+03  0.7818608E-02  0.9805873E-01
          1   -1    0    0  502    0  0.00000000000E+00  0.00000000000E+00  0.10578296288E+03  0.10578296288E+03  0.00000000000E+00 0.  1.
         13   -1    0    0    0    0 -0.00000000000E+00 -0.00000000000E+00 -0.10000000000E+04  0.10000000000E+04  0.00000000000E+00 0.  1.
    9000005    2    1    2  501    0 -0.73677816204E-06 -0.28832344704E-04 -0.89421787013E+03  0.11057821294E+04  0.65048329601E+03 0.  0.
         13    1    3    3    0    0 -0.25487642606E+03 -0.36732869168E+02 -0.10937743439E+03  0.27977619519E+03  0.00000000000E+00 0.  1.
          3    1    3    3  501    0  0.25487642533E+03  0.36732840336E+02 -0.78484043574E+03  0.82600593419E+03  0.00000000000E+00 0.  1.
         21    1    1    2  502  501  0.73677815533E-06  0.28832344710E-04  0.83300769331E-03  0.83350684704E-03  0.00000000000E+00 0.  1.
<mgrwt>
<rscale>  1 0.65048330E+03</rscale>
<asrwt>0</asrwt>
<pdfrwt beam="1">  1        1 0.38466613E+00 0.65048330E+03</pdfrwt>
<pdfrwt beam="2">0</pdfrwt>
<totfact> 0.15647687E+00</totfact>
</mgrwt>
</event>
<event>
 6    1  0.2475480E-003  0.6487588E+03  0.7818608E-02  0.9809111E-01
          1   -1    0    0  502    0  0.00000000000E+00  0.00000000000E+00  0.10526827178E+03  0.10526827178E+03  0.00000000000E+00 0.  1.
         13   -1    0    0    0    0 -0.00000000000E+00 -0.00000000000E+00 -0.10000000000E+04  0.10000000000E+04  0.00000000000E+00 0.  1.
    9000005    2    1    2  501    0 -0.50045661108E-02  0.89124796943E-02 -0.89477738388E+03  0.11052214859E+04  0.64875878887E+03 0.  0.
         13    1    3    3    0    0  0.30778177858E+03 -0.96620436003E+02 -0.38950003486E+03  0.50574243349E+03  0.00000000000E+00 0.  1.
          1    1    3    3  501    0 -0.30778678315E+03  0.96629348483E+02 -0.50527734902E+03  0.59947905243E+03  0.00000000000E+00 0.  1.
         21    1    1    2  502  501  0.50045661108E-02 -0.89124796943E-02  0.45655653235E-01  0.46785859494E-01  0.00000000000E+00 0.  1.
<mgrwt>
<rscale>  1 0.64875879E+03</rscale>
<asrwt>0</asrwt>
<pdfrwt beam="1">  1        1 0.38279452E+00 0.64875879E+03</pdfrwt>
<pdfrwt beam="2">0</pdfrwt>
<totfact> 0.15953704E+00</totfact>
</mgrwt>
</event>
<event>
 6    1  0.2475480E-003  0.6456172E+03  0.7818608E-02  0.9815038E-01
          3   -1    0    0  502    0  0.00000000000E+00  0.00000000000E+00  0.10422979263E+03  0.10422979263E+03  0.00000000000E+00 0.  1.
         13   -1    0    0    0    0 -0.00000000000E+00 -0.00000000000E+00 -0.10000000000E+04  0.10000000000E+04  0.00000000000E+00 0.  1.
    9000005    2    1    2  501    0 -0.11570039056E-01  0.31012324037E-02 -0.89579296073E+03  0.11042040788E+04  0.64561723884E+03 0.  0.
         13    1    3    3    0    0  0.17785818856E+03 -0.19905842847E+03 -0.75832421983E+03  0.80393620117E+03  0.00000000000E+00 0.  1.
          1    1    3    3  501    0 -0.17786975860E+03  0.19906152971E+03 -0.13746874091E+03  0.30026787767E+03  0.00000000000E+00 0.  1.
         21    1    1    2  502  501  0.11570039056E-01 -0.31012324037E-02  0.22753362970E-01  0.25713789542E-01  0.00000000000E+00 0. -1.
<mgrwt>
<rscale>  1 0.64561724E+03</rscale>
<asrwt>0</asrwt>
<pdfrwt beam="1">  1        3 0.37901823E+00 0.64561724E+03</pdfrwt>
<pdfrwt beam="2">0</pdfrwt>
<totfact> 0.76441381E-02</totfact>
</mgrwt>
</event>
<event>
 6    1  0.2475480E-003  0.5881972E+03  0.7818608E-02  0.9930200E-01
          1   -1    0    0  502    0  0.00000000000E+00  0.00000000000E+00  0.86768060148E+02  0.86768060148E+02  0.00000000000E+00 0.  1.
         13   -1    0    0    0    0 -0.00000000000E+00 -0.00000000000E+00 -0.10000000000E+04  0.10000000000E+04  0.00000000000E+00 0.  1.
    9000005    2    1    2  501    0  0.10343172801E-01  0.16846442080E-01 -0.91350561161E+03  0.10864936754E+04  0.58819724900E+03 0.  0.
         13    1    3    3    0    0  0.13411494804E+03 -0.16467984144E+03 -0.80969935123E+02  0.22729364237E+03  0.00000000000E+00 0.  1.
          1    1    3    3  501    0 -0.13410460487E+03  0.16469668788E+03 -0.83253567649E+03  0.85920003298E+03  0.00000000000E+00 0.  1.
         21    1    1    2  502  501 -0.10343172801E-01 -0.16846442080E-01  0.27367176270E+00  0.27438479830E+00  0.00000000000E+00 0. -1.
<mgrwt>
<rscale>  1 0.58819725E+03</rscale>
<asrwt>0</asrwt>
<pdfrwt beam="1">  1        1 0.31552088E+00 0.58819725E+03</pdfrwt>
<pdfrwt beam="2">0</pdfrwt>
<totfact> 0.31689838E+00</totfact>
</mgrwt>
</event>
<event>
 6    1  0.2475480E-003  0.6578807E+03  0.7818608E-02  0.9792103E-01
          1   -1    0    0  502    0  0.00000000000E+00  0.00000000000E+00  0.10823591235E+03  0.10823591235E+03  0.00000000000E+00 0.  1.
         13   -1    0    0    0    0 -0.00000000000E+00 -0.00000000000E+00 -0.10000000000E+04  0.10000000000E+04  0.00000000000E+00 0.  1.
    9000005    2    1    2  501    0 -0.93978339774E-02 -0.21999494115E-03 -0.89179751403E+03  0.11082011893E+04  0.65788074134E+03 0.  0.
         13    1    3    3    0    0 -0.26393205687E+03  0.92533746217E+02 -0.73757859358E+03  0.78882495304E+03  0.00000000000E+00 0.  1.
          1    1    3    3  501    0  0.26392265904E+03 -0.92533966212E+02 -0.15421892045E+03  0.31937623625E+03  0.00000000000E+00 0.  1.
         21    1    1    2  502  501  0.93978339774E-02  0.21999494114E-03  0.33426378386E-01  0.34723053628E-01  0.00000000000E+00 0.  1.
<mgrwt>
<rscale>  1 0.65788074E+03</rscale>
<asrwt>0</asrwt>
<pdfrwt beam="1">  1        1 0.39358597E+00 0.65788074E+03</pdfrwt>
<pdfrwt beam="2">0</pdfrwt>
<totfact> 0.14266420E+00</totfact>
</mgrwt>
</event>
<event>
 6    1  0.2475480E-003  0.7205870E+03  0.7818608E-02  0.9682659E-01
          1   -1    0    0  502    0  0.00000000000E+00  0.00000000000E+00  0.12985295835E+03  0.12985295835E+03  0.00000000000E+00 0.  1.
         13   -1    0    0    0    0 -0.00000000000E+00 -0.00000000000E+00 -0.10000000000E+04  0.10000000000E+04  0.00000000000E+00 0.  1.
    9000005    2    1    2  501    0 -0.36478785472E-02 -0.84685513681E-02 -0.87018802322E+03  0.11298109523E+04  0.72058697739E+03 0.  0.
         13    1    3    3    0    0  0.18713683891E+03 -0.25412730218E+03 -0.70762313999E+03  0.77481055132E+03  0.00000000000E+00 0.  1.
          1    1    3    3  501    0 -0.18714048679E+03  0.25411883363E+03 -0.16256488323E+03  0.35500040093E+03  0.00000000000E+00 0.  1.
         21    1    1    2  502  501  0.36478785472E-02  0.84685513681E-02  0.40981564006E-01  0.42006094422E-01  0.00000000000E+00 0. -1.
<mgrwt>
<rscale>  1 0.72058698E+03</rscale>
<asrwt>0</asrwt>
<pdfrwt beam="1">  1        1 0.47219357E+00 0.72058698E+03</pdfrwt>
<pdfrwt beam="2">0</pdfrwt>
<totfact> 0.61749127E-01</totfact>
</mgrwt>
</event>
<event>
 6    1  0.2475480E-003  0.6417665E+03  0.7818608E-02  0.9822353E-01
          1   -1    0    0  502    0  0.00000000000E+00  0.00000000000E+00  0.10442915828E+03  0.10442915828E+03  0.00000000000E+00 0.  1.
         13   -1    0    0    0    0 -0.00000000000E+00 -0.00000000000E+00 -0.10000000000E+04  0.10000000000E+04  0.00000000000E+00 0.  1.
    9000005    2    1    2  501    0 -0.34656998462E-01  0.38258263149E-01 -0.89703343956E+03  0.11029656497E+04  0.64176649193E+03 0.  0.
         13    1    3    3    0    0  0.63122293769E+02 -0.14426587382E+03 -0.92898598828E+03  0.94223777930E+03  0.00000000000E+00 0.  1.
          3    1    3    3  501    0 -0.63156950767E+02  0.14430413209E+03  0.31952548720E+02  0.16072787044E+03  0.00000000000E+00 0.  1.
         21    1    1    2  502  501  0.34656998462E-01 -0.38258263149E-01  0.14625978421E+01  0.14635085411E+01  0.00000000000E+00 0. -1.
<mgrwt>
<rscale>  1 0.64176649E+03</rscale>
<asrwt>0</asrwt>
<pdfrwt beam="1">  1        1 0.37974319E+00 0.64176649E+03</pdfrwt>
<pdfrwt beam="2">0</pdfrwt>
<totfact> 0.16477543E+00</totfact>
</mgrwt>
</event>
<event>
 6    1  0.2475480E-003  0.6700362E+03  0.7818608E-02  0.9769892E-01
          1   -1    0    0  502    0  0.00000000000E+00  0.00000000000E+00  0.11263726951E+03  0.11263726951E+03  0.00000000000E+00 0.  1.
         13   -1    0    0    0    0 -0.00000000000E+00 -0.00000000000E+00 -0.10000000000E+04  0.10000000000E+04  0.00000000000E+00 0.  1.
    9000005    2    1    2  501    0 -0.90254977419E-01 -0.19439731292E+00 -0.88773067783E+03  0.11122114509E+04  0.67003619986E+03 0.  0.
         13    1    3    3    0    0  0.20438918863E+03  0.14946089974E+03 -0.79811271057E+02  0.26548698644E+03  0.00000000000E+00 0.  1.
          3    1    3    3  501    0 -0.20447944361E+03 -0.14965529706E+03 -0.80791940678E+03  0.84672446442E+03  0.00000000000E+00 0.  1.
         21    1    1    2  502  501  0.90254977419E-01  0.19439731292E+00  0.36794734505E+00  0.42581865265E+00  0.00000000000E+00 0. -1.
<mgrwt>
<rscale>  1 0.67003623E+03</rscale>
<asrwt>0</asrwt>
<pdfrwt beam="1">  1        1 0.40959093E+00 0.67003623E+03</pdfrwt>
<pdfrwt beam="2">0</pdfrwt>
<totfact> 0.12074981E+00</totfact>
</mgrwt>
</event>
<event>
 6    1  0.2475480E-003  0.6467108E+03  0.7818608E-02  0.9812971E-01
          1   -1    0    0  502    0  0.00000000000E+00  0.00000000000E+00  0.10504345150E+03  0.10504345150E+03  0.00000000000E+00 0.  1.
         13   -1    0    0    0    0 -0.00000000000E+00 -0.00000000000E+00 -0.10000000000E+04  0.10000000000E+04  0.00000000000E+00 0.  1.
    9000005    2    1    2  501    0 -0.37075169873E-01  0.37537597772E+00 -0.89535892142E+03  0.11044919212E+04  0.64671064902E+03 0.  0.
         13    1    3    3    0    0 -0.91315259184E+02 -0.46112636153E+02  0.76193056522E+02  0.12755482600E+03  0.00000000000E+00 0.  1.
          1    1    3    3  501    0  0.91278184014E+02  0.46488012131E+02 -0.97155197795E+03  0.97693709521E+03  0.00000000000E+00 0.  1.
         21    1    1    2  502  501  0.37075169873E-01 -0.37537597772E+00  0.40237292371E+00  0.55153029164E+00  0.00000000000E+00 0. -1.
<mgrwt>
<rscale>  1 0.64671076E+03</rscale>
<asrwt>0</asrwt>
<pdfrwt beam="1">  1        1 0.38197699E+00 0.64671076E+03</pdfrwt>
<pdfrwt beam="2">0</pdfrwt>
<totfact> 0.16092992E+00</totfact>
</mgrwt>
</event>
<event>
 6    1  0.2475480E-003  0.6596618E+03  0.7818608E-02  0.9788817E-01
          1   -1    0    0  502    0  0.00000000000E+00  0.00000000000E+00  0.10878853917E+03  0.10878853917E+03  0.00000000000E+00 0.  1.
         13   -1    0    0    0    0 -0.00000000000E+00 -0.00000000000E+00 -0.10000000000E+04  0.10000000000E+04  0.00000000000E+00 0.  1.
    9000005    2    1    2  501    0 -0.16648997797E-03  0.25030671235E-04 -0.89121150137E+03  0.11087883660E+04  0.65966180758E+03 0.  0.
         13    1    3    3    0    0 -0.26548293607E+03 -0.29082742040E+02 -0.77093256897E+03  0.81588235741E+03  0.00000000000E+00 0.  1.
          3    1    3    3  501    0  0.26548276958E+03  0.29082767070E+02 -0.12027893240E+03  0.29290600858E+03  0.00000000000E+00 0.  1.
         21    1    1    2  502  501  0.16648997794E-03 -0.25030671236E-04  0.40541440667E-04  0.17317348431E-03  0.00000000000E+00 0. -1.
<mgrwt>
<rscale>  1 0.65966181E+03</rscale>
<asrwt>0</asrwt>
<pdfrwt beam="1">  1        1 0.39559552E+00 0.65966181E+03</pdfrwt>
<pdfrwt beam="2">0</pdfrwt>
<totfact> 0.13971303E+00</totfact>
</mgrwt>
</event>
<event>
 6    1  0.2475480E-003  0.6518967E+03  0.7818608E-02  0.9803227E-01
          1   -1    0    0  502    0  0.00000000000E+00  0.00000000000E+00  0.10626716945E+03  0.10626716945E+03  0.00000000000E+00 0.  1.
         13   -1    0    0    0    0 -0.00000000000E+00 -0.00000000000E+00 -0.10000000000E+04  0.10000000000E+04  0.00000000000E+00 0.  1.
    9000005    2    1    2  501    0  0.41428643573E-03 -0.33471454081E-03 -0.89375768421E+03  0.11062423101E+04  0.65189665633E+03 0.  0.
         13    1    3    3    0    0  0.24048216914E+03 -0.18742044024E+02 -0.81889457580E+03  0.85368100844E+03  0.00000000000E+00 0.  1.
          3    1    3    3  501    0 -0.24048175486E+03  0.18741709309E+02 -0.74863108408E+02  0.25256130164E+03  0.00000000000E+00 0.  1.
         21    1    1    2  502  501 -0.41428643575E-03  0.33471454080E-03  0.24853659788E-01  0.24859365880E-01  0.00000000000E+00 0. -1.
<mgrwt>
<rscale>  1 0.65189666E+03</rscale>
<asrwt>0</asrwt>
<pdfrwt beam="1">  1        1 0.38642689E+00 0.65189666E+03</pdfrwt>
<pdfrwt beam="2">0</pdfrwt>
<totfact> 0.15365486E+00</totfact>
</mgrwt>
</event>
<event>
 6    1  0.2475480E-003  0.5949569E+03  0.7818608E-02  0.9915924E-01
          1   -1    0    0  502    0  0.00000000000E+00  0.00000000000E+00  0.88500068479E+02  0.88500068479E+02  0.00000000000E+00 0.  1.
         13   -1    0    0    0    0 -0.00000000000E+00 -0.00000000000E+00 -0.10000000000E+04  0.10000000000E+04  0.00000000000E+00 0.  1.
    9000005    2    1    2  501    0  0.14345405183E-02  0.17197244167E-02 -0.91150635360E+03  0.10884932671E+04  0.59495693955E+03 0.  0.
         13    1    3    3    0    0 -0.65229318781E+02 -0.28783570647E+03 -0.38757624935E+03  0.48715460278E+03  0.00000000000E+00 0.  1.
          1    1    3    3  501    0  0.65230753322E+02  0.28783742620E+03 -0.52393010424E+03  0.60133866434E+03  0.00000000000E+00 0.  1.
         21    1    1    2  502  501 -0.14345405183E-02 -0.17197244167E-02  0.64220760072E-02  0.68013541895E-02  0.00000000000E+00 0. -1.
<mgrwt>
<rscale>  1 0.59495694E+03</rscale>
<asrwt>0</asrwt>
<pdfrwt beam="1">  1        1 0.32181911E+00 0.59495694E+03</pdfrwt>
<pdfrwt beam="2">0</pdfrwt>
<totfact> 0.29728260E+00</totfact>
</mgrwt>
</event>
<event>
 6    1  0.2475480E-003  0.6540873E+03  0.7818608E-02  0.9799140E-01
          1   -1    0    0  502    0  0.00000000000E+00  0.00000000000E+00  0.10904776621E+03  0.10904776621E+03  0.00000000000E+00 0.  1.
         13   -1    0    0    0    0 -0.00000000000E+00 -0.00000000000E+00 -0.10000000000E+04  0.10000000000E+04  0.00000000000E+00 0.  1.
    9000005    2    1    2  501    0  0.19145446897E+00  0.73301092806E+00 -0.89296617849E+03  0.11068960383E+04  0.65408689766E+03 0.  0.
         13    1    3    3    0    0 -0.62673955609E+02 -0.25234607284E+03 -0.78092746534E+03  0.82307610299E+03  0.00000000000E+00 0.  1.
          3    1    3    3  501    0  0.62865410078E+02  0.25307908377E+03 -0.11203871314E+03  0.28381993529E+03  0.00000000000E+00 0.  1.
         21    1    1    2  502  501 -0.19145446897E+00 -0.73301092806E+00  0.20139446925E+01  0.21517279239E+01  0.00000000000E+00 0. -1.
<mgrwt>
<rscale>  1 0.65408734E+03</rscale>
<asrwt>0</asrwt>
<pdfrwt beam="1">  1        1 0.39653817E+00 0.65408734E+03</pdfrwt>
<pdfrwt beam="2">0</pdfrwt>
<totfact> 0.13851478E+00</totfact>
</mgrwt>
</event>
<event>
 6    1  0.2475480E-003  0.6553762E+03  0.7818608E-02  0.9796743E-01
          1   -1    0    0  502    0  0.00000000000E+00  0.00000000000E+00  0.11070473658E+03  0.11070473658E+03  0.00000000000E+00 0.  1.
         13   -1    0    0    0    0 -0.00000000000E+00 -0.00000000000E+00 -0.10000000000E+04  0.10000000000E+04  0.00000000000E+00 0.  1.
    9000005    2    1    2  501    0  0.12485578953E+00 -0.80433759418E-01 -0.89261865931E+03  0.11073780237E+04  0.65537622348E+03 0.  0.
         13    1    3    3    0    0  0.32708281661E+03 -0.19018257963E+02 -0.43157024828E+03  0.54184660400E+03  0.00000000000E+00 0.  1.
          1    1    3    3  501    0 -0.32695796082E+03  0.18937824204E+02 -0.46104841102E+03  0.56553141967E+03  0.00000000000E+00 0.  1.
         21    1    1    2  502  501 -0.12485578953E+00  0.80433759418E-01  0.33233958910E+01  0.33267129131E+01  0.00000000000E+00 0. -1.
<mgrwt>
<rscale>  1 0.65537624E+03</rscale>
<asrwt>0</asrwt>
<pdfrwt beam="1">  1        1 0.40256353E+00 0.65537624E+03</pdfrwt>
<pdfrwt beam="2">0</pdfrwt>
<totfact> 0.13017739E+00</totfact>
</mgrwt>
</event>
<event>
 6    1  0.2475480E-003  0.6467432E+03  0.7818608E-02  0.9812910E-01
          1   -1    0    0  502    0  0.00000000000E+00  0.00000000000E+00  0.10688917558E+03  0.10688917558E+03  0.00000000000E+00 0.  1.
         13   -1    0    0    0    0 -0.00000000000E+00 -0.00000000000E+00 -0.10000000000E+04  0.10000000000E+04  0.00000000000E+00 0.  1.
    9000005    2    1    2  501    0  0.35554256949E+00  0.47809222336E+00 -0.89538848013E+03  0.11045348820E+04  0.64674293212E+03 0.  0.
         13    1    3    3    0    0  0.26880549579E+03 -0.59847603571E+02 -0.15801767394E+03  0.31750230786E+03  0.00000000000E+00 0.  1.
          3    1    3    3  501    0 -0.26844995322E+03  0.60325695794E+02 -0.73737080618E+03  0.78703257415E+03  0.00000000000E+00 0.  1.
         21    1    1    2  502  501 -0.35554256949E+00 -0.47809222336E+00  0.22776557045E+01  0.23542935673E+01  0.00000000000E+00 0. -1.
<mgrwt>
<rscale>  1 0.64674321E+03</rscale>
<asrwt>0</asrwt>
<pdfrwt beam="1">  1        1 0.38868873E+00 0.64674321E+03</pdfrwt>
<pdfrwt beam="2">0</pdfrwt>
<totfact> 0.15029538E+00</totfact>
</mgrwt>
</event>
<event>
 6    1  0.2475480E-003  0.5403535E+03  0.7818608E-02  0.1003752E+00
          1   -1    0    0  502    0  0.00000000000E+00  0.00000000000E+00  0.73005546287E+02  0.73005546287E+02  0.00000000000E+00 0.  1.
         13   -1    0    0    0    0 -0.00000000000E+00 -0.00000000000E+00 -0.10000000000E+04  0.10000000000E+04  0.00000000000E+00 0.  1.
    9000005    2    1    2  501    0 -0.52169011575E-02 -0.10980830393E-02 -0.92700374861E+03  0.10729948310E+04  0.54035354855E+03 0.  0.
         13    1    3    3    0    0  0.11580797356E+03 -0.18351058526E+03 -0.78311922360E+03  0.81262743002E+03  0.00000000000E+00 0.  1.
          3    1    3    3  501    0 -0.11581319046E+03  0.18350948717E+03 -0.14388452501E+03  0.26036740100E+03  0.00000000000E+00 0.  1.
         21    1    1    2  502  501  0.52169011575E-02  0.10980830393E-02  0.92948958236E-02  0.10715266325E-01  0.00000000000E+00 0.  1.
<mgrwt>
<rscale>  1 0.54035355E+03</rscale>
<asrwt>0</asrwt>
<pdfrwt beam="1">  1        1 0.26547527E+00 0.54035355E+03</pdfrwt>
<pdfrwt beam="2">0</pdfrwt>
<totfact> 0.52553023E+00</totfact>
</mgrwt>
</event>
<event>
 6    1  0.2475480E-003  0.7046189E+03  0.7818608E-02  0.9709366E-01
          1   -1    0    0  502    0  0.00000000000E+00  0.00000000000E+00  0.12433655813E+03  0.12433655813E+03  0.00000000000E+00 0.  1.
         13   -1    0    0    0    0 -0.00000000000E+00 -0.00000000000E+00 -0.10000000000E+04  0.10000000000E+04  0.00000000000E+00 0.  1.
    9000005    2    1    2  501    0 -0.17428720661E+00  0.16034029497E+00 -0.87580159438E+03  0.11240623845E+04  0.70461887253E+03 0.  0.
         13    1    3    3    0    0  0.85143006859E+02  0.75078825642E+02 -0.96994632441E+03  0.97656645136E+03  0.00000000000E+00 0.  1.
          1    1    3    3  501    0 -0.85317294065E+02 -0.74918485347E+02  0.94144730028E+02  0.14749593318E+03  0.00000000000E+00 0.  1.
         21    1    1    2  502  501  0.17428720661E+00 -0.16034029497E+00  0.13815251580E+00  0.27417359136E+00  0.00000000000E+00 0. -1.
<mgrwt>
<rscale>  1 0.70461891E+03</rscale>
<asrwt>0</asrwt>
<pdfrwt beam="1">  1        1 0.45213389E+00 0.70461891E+03</pdfrwt>
<pdfrwt beam="2">0</pdfrwt>
<totfact> 0.76815898E-01</totfact>
</mgrwt>
</event>
<event>
 6    1  0.2475480E-003  0.6484730E+03  0.7818608E-02  0.9809649E-01
          1   -1    0    0  502    0  0.00000000000E+00  0.00000000000E+00  0.10512932558E+03  0.10512932558E+03  0.00000000000E+00 0.  1.
         13   -1    0    0    0    0 -0.00000000000E+00 -0.00000000000E+00 -0.10000000000E+04  0.10000000000E+04  0.00000000000E+00 0.  1.
    9000005    2    1    2  501    0 -0.15344003486E-04  0.55359567625E-04 -0.89487067794E+03  0.11051292680E+04  0.64847295149E+03 0.  0.
         13    1    3    3    0    0 -0.14177919238E+03 -0.18783307777E+03 -0.82754004249E+03  0.86035174575E+03  0.00000000000E+00 0.  1.
          3    1    3    3  501    0  0.14177917703E+03  0.18783313313E+03 -0.67330635449E+02  0.24477752227E+03  0.00000000000E+00 0.  1.
         21    1    1    2  502  501  0.15344003478E-04 -0.55359567608E-04  0.35187814739E-05  0.57554339468E-04  0.00000000000E+00 0. -1.
<mgrwt>
<rscale>  1 0.64847295E+03</rscale>
<asrwt>0</asrwt>
<pdfrwt beam="1">  1        1 0.38228926E+00 0.64847295E+03</pdfrwt>
<pdfrwt beam="2">0</pdfrwt>
<totfact> 0.16036757E+00</totfact>
</mgrwt>
</event>
<event>
 6    1  0.2475480E-003  0.6530644E+03  0.7818608E-02  0.9801046E-01
          1   -1    0    0  502    0  0.00000000000E+00  0.00000000000E+00  0.10956771573E+03  0.10956771573E+03  0.00000000000E+00 0.  1.
         13   -1    0    0    0    0 -0.00000000000E+00 -0.00000000000E+00 -0.10000000000E+04  0.10000000000E+04  0.00000000000E+00 0.  1.
    9000005    2    1    2  501    0  0.25867140030E+01 -0.29263223469E+01 -0.89186871855E+03  0.11054062502E+04  0.65305276390E+03 0.  0.
         13    1    3    3    0    0  0.32028916769E+02  0.19625489256E+03 -0.81261030772E+01  0.19901725532E+03  0.00000000000E+00 0.  1.
          3    1    3    3  501    0 -0.29442202766E+02 -0.19918121491E+03 -0.88374261547E+03  0.90638899490E+03  0.00000000000E+00 0.  1.
         21    1    1    2  502  501 -0.25867140030E+01  0.29263223469E+01  0.14364342822E+01  0.41614655181E+01  0.00000000000E+00 0. -1.
<mgrwt>
<rscale>  1 0.65306444E+03</rscale>
<asrwt>0</asrwt>
<pdfrwt beam="1">  1        1 0.39842890E+00 0.65306444E+03</pdfrwt>
<pdfrwt beam="2">0</pdfrwt>
<totfact> 0.13588224E+00</totfact>
</mgrwt>
</event>
<event>
 6    1  0.2475480E-003  0.6562075E+03  0.7818608E-02  0.9795200E-01
          1   -1    0    0  502    0  0.00000000000E+00  0.00000000000E+00  0.10765208395E+03  0.10765208395E+03  0.00000000000E+00 0.  1.
         13   -1    0    0    0    0 -0.00000000000E+00 -0.00000000000E+00 -0.10000000000E+04  0.10000000000E+04  0.00000000000E+00 0.  1.
    9000005    2    1    2  501    0 -0.37075846535E-05 -0.16599054220E-05 -0.89234791589E+03  0.11076520799E+04  0.65620753354E+03 0.  0.
         13    1    3    3    0    0 -0.97622231823E+02 -0.67585226816E+02  0.70116197231E+02  0.13789178418E+03  0.00000000000E+00 0.  1.
          3    1    3    3  501    0  0.97622228115E+02  0.67585225156E+02 -0.96246411312E+03  0.96976029571E+03  0.00000000000E+00 0.  1.
         21    1    1    2  502  501  0.37075846459E-05  0.16599054221E-05 -0.15861943289E-06  0.40652958123E-05  0.00000000000E+00 0. -1.
<mgrwt>
<rscale>  1 0.65620753E+03</rscale>
<asrwt>0</asrwt>
<pdfrwt beam="1">  1        1 0.39146295E+00 0.65620753E+03</pdfrwt>
<pdfrwt beam="2">0</pdfrwt>
<totfact> 0.14584044E+00</totfact>
</mgrwt>
</event>
<event>
 6    1  0.2475480E-003  0.6451683E+03  0.7818608E-02  0.9815888E-01
          3   -1    0    0  502    0  0.00000000000E+00  0.00000000000E+00  0.10406442948E+03  0.10406442948E+03  0.00000000000E+00 0.  1.
         13   -1    0    0    0    0 -0.00000000000E+00 -0.00000000000E+00 -0.10000000000E+04  0.10000000000E+04  0.00000000000E+00 0.  1.
    9000005    2    1    2  501    0 -0.65355759679E-03  0.57731659894E-03 -0.89593940397E+03  0.11040604981E+04  0.64516832522E+03 0.  0.
         13    1    3    3    0    0 -0.10898828776E+03  0.26309162411E+03 -0.18863935128E+03  0.34158520810E+03  0.00000000000E+00 0.  1.
          3    1    3    3  501    0  0.10898763421E+03 -0.26309104679E+03 -0.70730005269E+03  0.76247528999E+03  0.00000000000E+00 0.  1.
         21    1    1    2  502  501  0.65355759679E-03 -0.57731659894E-03  0.38334482905E-02  0.39313811547E-02  0.00000000000E+00 0.  1.
<mgrwt>
<rscale>  1 0.64516833E+03</rscale>
<asrwt>0</asrwt>
<pdfrwt beam="1">  1        3 0.37841691E+00 0.64516833E+03</pdfrwt>
<pdfrwt beam="2">0</pdfrwt>
<totfact> 0.77008445E-02</totfact>
</mgrwt>
</event>
<event>
 6    1  0.2475480E-003  0.6555610E+03  0.7818608E-02  0.9796400E-01
          1   -1    0    0  502    0  0.00000000000E+00  0.00000000000E+00  0.10770193858E+03  0.10770193858E+03  0.00000000000E+00 0.  1.
         13   -1    0    0    0    0 -0.00000000000E+00 -0.00000000000E+00 -0.10000000000E+04  0.10000000000E+04  0.00000000000E+00 0.  1.
    9000005    2    1    2  501    0 -0.25688045928E-01 -0.15873386153E+00 -0.89253231752E+03  0.11074178044E+04  0.65556100389E+03 0.  0.
         13    1    3    3    0    0 -0.26511129860E+03 -0.33828939556E+01 -0.77188499598E+03  0.81615065499E+03  0.00000000000E+00 0.  1.
          3    1    3    3  501    0  0.26508561055E+03  0.32241600941E+01 -0.12064732154E+03  0.29126714941E+03  0.00000000000E+00 0.  1.
         21    1    1    2  502  501  0.25688045928E-01  0.15873386153E+00  0.23425609707E+00  0.28413418224E+00  0.00000000000E+00 0. -1.
<mgrwt>
<rscale>  1 0.65556102E+03</rscale>
<asrwt>0</asrwt>
<pdfrwt beam="1">  1        1 0.39164424E+00 0.65556102E+03</pdfrwt>
<pdfrwt beam="2">0</pdfrwt>
<totfact> 0.14558796E+00</totfact>
</mgrwt>
</event>
<event>
 6    1  0.2475480E-003  0.6472150E+03  0.7818608E-02  0.9812019E-01
          1   -1    0    0  502    0  0.00000000000E+00  0.00000000000E+00  0.11513431755E+03  0.11513431755E+03  0.00000000000E+00 0.  1.
         13   -1    0    0    0    0 -0.00000000000E+00 -0.00000000000E+00 -0.10000000000E+04  0.10000000000E+04  0.00000000000E+00 0.  1.
    9000005    2    1    2  501    0  0.22928245986E+01  0.26526911155E+01 -0.89495112677E+03  0.11044567709E+04  0.64720548957E+03 0.  0.
         13    1    3    3    0    0 -0.28840714633E+03 -0.12318168082E+03 -0.57049081906E+03  0.65100858917E+03  0.00000000000E+00 0.  1.
          3    1    3    3  501    0  0.29069997093E+03  0.12583437193E+03 -0.32446030771E+03  0.45344818176E+03  0.00000000000E+00 0.  1.
         21    1    1    2  502  501 -0.22928245986E+01 -0.26526911155E+01  0.10085444323E+02  0.10677546628E+02  0.00000000000E+00 0. -1.
<mgrwt>
<rscale>  1 0.64721499E+03</rscale>
<asrwt>0</asrwt>
<pdfrwt beam="1">  1        1 0.41867113E+00 0.64721499E+03</pdfrwt>
<pdfrwt beam="2">0</pdfrwt>
<totfact> 0.11040429E+00</totfact>
</mgrwt>
</event>
<event>
 6    1  0.2964688E-003  0.6241802E+03  0.7818608E-02  0.9856472E-01
          1   -1    0    0  502    0  0.00000000000E+00  0.00000000000E+00  0.97400218855E+02  0.97400218855E+02  0.00000000000E+00 0.  1.
         13   -1    0    0    0    0 -0.00000000000E+00 -0.00000000000E+00 -0.10000000000E+04  0.10000000000E+04  0.00000000000E+00 0.  1.
    9000005    2    1    2  501    0 -0.19422666355E-05 -0.99282782884E-06 -0.90259978404E+03  0.10974002152E+04  0.62418015207E+03 0.  0.
         13    1    3    3    0    0 -0.25451165003E+03  0.23518064365E+02 -0.76615512081E+03  0.80766512150E+03  0.00000000000E+00 0.  1.
          1    1    3    3  501    0  0.25451164809E+03 -0.23518065358E+02 -0.13644466323E+03  0.28973509373E+03  0.00000000000E+00 0.  1.
         21    1    1    2  502  501  0.19422666444E-05  0.99282782817E-06  0.28939051881E-05  0.36239197083E-05  0.00000000000E+00 0. -1.
<mgrwt>
<rscale>  1 0.62418015E+03</rscale>
<asrwt>0</asrwt>
<pdfrwt beam="1">  1        1 0.35418336E+00 0.62418015E+03</pdfrwt>
<pdfrwt beam="2">0</pdfrwt>
<totfact> 0.21399093E+00</totfact>
</mgrwt>
</event>
<event>
 6    1  0.2475480E-003  0.6565969E+03  0.7818608E-02  0.9794479E-01
          1   -1    0    0  502    0  0.00000000000E+00  0.00000000000E+00  0.10904600732E+03  0.10904600732E+03  0.00000000000E+00 0.  1.
         13   -1    0    0    0    0 -0.00000000000E+00 -0.00000000000E+00 -0.10000000000E+04  0.10000000000E+04  0.00000000000E+00 0.  1.
    9000005    2    1    2  501    0 -0.15547107830E+01  0.17901963867E+01 -0.89084473094E+03  0.11066724305E+04  0.65659265294E+03 0.  0.
         13    1    3    3    0    0  0.28428234337E+03 -0.37050119386E+02 -0.71128912979E+03  0.76689072772E+03  0.00000000000E+00 0.  1.
          3    1    3    3  501    0 -0.28583705415E+03  0.38840315772E+02 -0.17955560114E+03  0.33978170280E+03  0.00000000000E+00 0.  1.
         21    1    1    2  502  501  0.15547107830E+01 -0.17901963867E+01 -0.10926174631E+00  0.23735768054E+01  0.00000000000E+00 0.  1.
<mgrwt>
<rscale>  1 0.65659693E+03</rscale>
<asrwt>0</asrwt>
<pdfrwt beam="1">  1        1 0.39653177E+00 0.65659693E+03</pdfrwt>
<pdfrwt beam="2">0</pdfrwt>
<totfact> 0.13845863E+00</totfact>
</mgrwt>
</event>
<event>
 6    1  0.2475480E-003  0.6505872E+03  0.7818608E-02  0.9805678E-01
          1   -1    0    0  502    0  0.00000000000E+00  0.00000000000E+00  0.10657422797E+03  0.10657422797E+03  0.00000000000E+00 0.  1.
         13   -1    0    0    0    0 -0.00000000000E+00 -0.00000000000E+00 -0.10000000000E+04  0.10000000000E+04  0.00000000000E+00 0.  1.
    9000005    2    1    2  501    0  0.39179067899E+00 -0.13007095577E+00 -0.89412144285E+03  0.11057652927E+04  0.65058708683E+03 0.  0.
         13    1    3    3    0    0 -0.31880915163E+03 -0.60624159665E+02 -0.48013214352E+03  0.57951828197E+03  0.00000000000E+00 0.  1.
          3    1    3    3  501    0  0.31920094231E+03  0.60494088710E+02 -0.41398929933E+03  0.52624701072E+03  0.00000000000E+00 0.  1.
         21    1    1    2  502  501 -0.39179067899E+00  0.13007095577E+00  0.69567082009E+00  0.80893527528E+00  0.00000000000E+00 0. -1.
<mgrwt>
<rscale>  1 0.65058722E+03</rscale>
<asrwt>0</asrwt>
<pdfrwt beam="1">  1        1 0.38754346E+00 0.65058722E+03</pdfrwt>
<pdfrwt beam="2">0</pdfrwt>
<totfact> 0.15195250E+00</totfact>
</mgrwt>
</event>
<event>
 6    1  0.2475480E-003  0.6425177E+03  0.7818608E-02  0.9820921E-01
          1   -1    0    0  502    0  0.00000000000E+00  0.00000000000E+00  0.10320918533E+03  0.10320918533E+03  0.00000000000E+00 0.  1.
         13   -1    0    0    0    0 -0.00000000000E+00 -0.00000000000E+00 -0.10000000000E+04  0.10000000000E+04  0.00000000000E+00 0.  1.
    9000005    2    1    2  501    0  0.11068137579E-02  0.65868811052E-03 -0.89679252172E+03  0.11032070469E+04  0.64251767390E+03 0.  0.
         13    1    3    3    0    0  0.11229395470E+03 -0.25273891352E+03 -0.72906402348E+03  0.77975716797E+03  0.00000000000E+00 0.  1.
          3    1    3    3  501    0 -0.11229284789E+03  0.25273957221E+03 -0.16772849824E+03  0.32344987891E+03  0.00000000000E+00 0.  1.
         21    1    1    2  502  501 -0.11068137579E-02 -0.65868811054E-03  0.17070554963E-02  0.21384445724E-02  0.00000000000E+00 0.  1.
<mgrwt>
<rscale>  1 0.64251767E+03</rscale>
<asrwt>0</asrwt>
<pdfrwt beam="1">  1        1 0.37530692E+00 0.64251767E+03</pdfrwt>
<pdfrwt beam="2">0</pdfrwt>
<totfact> 0.17233820E+00</totfact>
</mgrwt>
</event>
<event>
 6    1  0.2475480E-003  0.6513451E+03  0.7818608E-02  0.9804259E-01
          1   -1    0    0  502    0  0.00000000000E+00  0.00000000000E+00  0.10629445550E+03  0.10629445550E+03  0.00000000000E+00 0.  1.
         13   -1    0    0    0    0 -0.00000000000E+00 -0.00000000000E+00 -0.10000000000E+04  0.10000000000E+04  0.00000000000E+00 0.  1.
    9000005    2    1    2  501    0  0.10790220011E+00  0.19444434716E+00 -0.89387691674E+03  0.11060137066E+04  0.65134501417E+03 0.  0.
         13    1    3    3    0    0 -0.13432913582E+03  0.19007939391E+03 -0.83386654104E+03  0.86574124367E+03  0.00000000000E+00 0.  1.
          3    1    3    3  501    0  0.13443703802E+03 -0.18988494956E+03 -0.60010375703E+02  0.24027246295E+03  0.00000000000E+00 0.  1.
         21    1    1    2  502  501 -0.10790220011E+00 -0.19444434716E+00  0.17137223903E+00  0.28074887933E+00  0.00000000000E+00 0.  1.
<mgrwt>
<rscale>  1 0.65134505E+03</rscale>
<asrwt>0</asrwt>
<pdfrwt beam="1">  1        1 0.38652611E+00 0.65134505E+03</pdfrwt>
<pdfrwt beam="2">0</pdfrwt>
<totfact> 0.15351520E+00</totfact>
</mgrwt>
</event>
<event>
 6    1  0.4611889E-003  0.6605369E+03  0.7818608E-02  0.9787206E-01
          1   -1    0    0  502    0  0.00000000000E+00  0.00000000000E+00  0.10907725864E+03  0.10907725864E+03  0.00000000000E+00 0.  1.
         13   -1    0    0    0    0 -0.00000000000E+00 -0.00000000000E+00 -0.10000000000E+04  0.10000000000E+04  0.00000000000E+00 0.  1.
    9000005    2    1    2  501    0 -0.63125230554E-06  0.15855801507E-05 -0.89092274309E+03  0.11090772562E+04  0.66053692258E+03 0.  0.
         13    1    3    3    0    0  0.16790125373E+03  0.25427809744E+03 -0.65936176585E+03  0.72636500473E+03  0.00000000000E+00 0.  1.
          3    1    3    3  501    0 -0.16790125436E+03 -0.25427809586E+03 -0.23156097724E+03  0.38271225148E+03  0.00000000000E+00 0.  1.
         21    1    1    2  502  501  0.63125231734E-06 -0.15855801569E-05  0.17284327309E-05  0.24289964239E-05  0.00000000000E+00 0. -1.
<mgrwt>
<rscale>  1 0.66053692E+03</rscale>
<asrwt>0</asrwt>
<pdfrwt beam="1">  1        1 0.39664541E+00 0.66053692E+03</pdfrwt>
<pdfrwt beam="2">0</pdfrwt>
<totfact> 0.13819568E+00</totfact>
</mgrwt>
</event>
<event>
 6    1  0.2475480E-003  0.6528310E+03  0.7818608E-02  0.9801482E-01
          1   -1    0    0  502    0  0.00000000000E+00  0.00000000000E+00  0.10654728725E+03  0.10654728725E+03  0.00000000000E+00 0.  1.
         13   -1    0    0    0    0 -0.00000000000E+00 -0.00000000000E+00 -0.10000000000E+04  0.10000000000E+04  0.00000000000E+00 0.  1.
    9000005    2    1    2  501    0  0.45637689027E-04  0.26341575818E-04 -0.89345293367E+03  0.11065470601E+04  0.65283095179E+03 0.  0.
         13    1    3    3    0    0 -0.27043370602E+03  0.17858547889E+03 -0.38064560274E+03  0.49991823082E+03  0.00000000000E+00 0.  1.
          1    1    3    3  501    0  0.27043375166E+03 -0.17858545255E+03 -0.51280733093E+03  0.60662882931E+03  0.00000000000E+00 0.  1.
         21    1    1    2  502  501 -0.45637689022E-04 -0.26341575836E-04  0.22092261108E-03  0.22711996249E-03  0.00000000000E+00 0.  1.
<mgrwt>
<rscale>  1 0.65283095E+03</rscale>
<asrwt>0</asrwt>
<pdfrwt beam="1">  1        1 0.38744550E+00 0.65283095E+03</pdfrwt>
<pdfrwt beam="2">0</pdfrwt>
<totfact> 0.15204117E+00</totfact>
</mgrwt>
</event>
<event>
 6    1  0.2475480E-003  0.6283118E+03  0.7818608E-02  0.9848349E-01
          1   -1    0    0  502    0  0.00000000000E+00  0.00000000000E+00  0.98694212343E+02  0.98694212343E+02  0.00000000000E+00 0.  1.
         13   -1    0    0    0    0 -0.00000000000E+00 -0.00000000000E+00 -0.10000000000E+04  0.10000000000E+04  0.00000000000E+00 0.  1.
    9000005    2    1    2  501    0  0.75032874275E-03  0.21284357792E-03 -0.90130524121E+03  0.10986932600E+04  0.62831181893E+03 0.  0.
         13    1    3    3    0    0 -0.25723736328E+03  0.54169022114E+02 -0.75144127200E+03  0.79609630655E+03  0.00000000000E+00 0.  1.
          3    1    3    3  501    0  0.25723811361E+03 -0.54168809271E+02 -0.14986396920E+03  0.30259695348E+03  0.00000000000E+00 0.  1.
         21    1    1    2  502  501 -0.75032874278E-03 -0.21284357792E-03 -0.54644810296E-03  0.95231357238E-03  0.00000000000E+00 0. -1.
<mgrwt>
<rscale>  1 0.62831182E+03</rscale>
<asrwt>0</asrwt>
<pdfrwt beam="1">  1        1 0.35888880E+00 0.62831182E+03</pdfrwt>
<pdfrwt beam="2">0</pdfrwt>
<totfact> 0.20394858E+00</totfact>
</mgrwt>
</event>
<event>
 6    1  0.2475480E-003  0.6471078E+03  0.7818608E-02  0.9812221E-01
          1   -1    0    0  502    0  0.00000000000E+00  0.00000000000E+00  0.10468904591E+03  0.10468904591E+03  0.00000000000E+00 0.  1.
         13   -1    0    0    0    0 -0.00000000000E+00 -0.00000000000E+00 -0.10000000000E+04  0.10000000000E+04  0.00000000000E+00 0.  1.
    9000005    2    1    2  501    0 -0.17417944437E-02 -0.46724096171E-03 -0.89531239601E+03  0.11046867370E+04  0.64710779654E+03 0.  0.
         13    1    3    3    0    0  0.11613853737E+03  0.24719422104E+03 -0.74379754583E+03  0.79235593767E+03  0.00000000000E+00 0.  1.
          3    1    3    3  501    0 -0.11614027917E+03 -0.24719468828E+03 -0.15151485018E+03  0.31233079928E+03  0.00000000000E+00 0.  1.
         21    1    1    2  502  501  0.17417944437E-02  0.46724096173E-03  0.14419220328E-02  0.23089610541E-02  0.00000000000E+00 0.  1.
<mgrwt>
<rscale>  1 0.64710780E+03</rscale>
<asrwt>0</asrwt>
<pdfrwt beam="1">  1        1 0.38068824E+00 0.64710780E+03</pdfrwt>
<pdfrwt beam="2">0</pdfrwt>
<totfact> 0.16304028E+00</totfact>
</mgrwt>
</event>
<event>
 6    1  0.2475480E-003  0.5805993E+03  0.7818608E-02  0.9946494E-01
          1   -1    0    0  502    0  0.00000000000E+00  0.00000000000E+00  0.87553222837E+02  0.87553222837E+02  0.00000000000E+00 0.  1.
         13   -1    0    0    0    0 -0.00000000000E+00 -0.00000000000E+00 -0.10000000000E+04  0.10000000000E+04  0.00000000000E+00 0.  1.
    9000005    2    1    2  501    0 -0.17702814272E-01  0.98212784565E-01 -0.91572527553E+03  0.10842732060E+04  0.58059934117E+03 0.  0.
         13    1    3    3    0    0  0.35881025936E+02 -0.10698997519E+03  0.41628654968E+02  0.12027987250E+03  0.00000000000E+00 0.  1.
          3    1    3    3  501    0 -0.35898728750E+02  0.10708818797E+03 -0.95735393050E+03  0.96399333347E+03  0.00000000000E+00 0.  1.
         21    1    1    2  502  501  0.17702814272E-01 -0.98212784565E-01  0.32784983678E+01  0.32800168732E+01  0.00000000000E+00 0. -1.
<mgrwt>
<rscale>  1 0.58059935E+03</rscale>
<asrwt>0</asrwt>
<pdfrwt beam="1">  1        1 0.31837603E+00 0.58059935E+03</pdfrwt>
<pdfrwt beam="2">0</pdfrwt>
<totfact> 0.30844942E+00</totfact>
</mgrwt>
</event>
<event>
 6    1  0.2475480E-003  0.6482986E+03  0.7818608E-02  0.9809977E-01
          1   -1    0    0  502    0  0.00000000000E+00  0.00000000000E+00  0.10507287920E+03  0.10507287920E+03  0.00000000000E+00 0.  1.
         13   -1    0    0    0    0 -0.00000000000E+00 -0.00000000000E+00 -0.10000000000E+04  0.10000000000E+04  0.00000000000E+00 0.  1.
    9000005    2    1    2  501    0  0.45856639630E-04  0.75529877588E-04 -0.89492721601E+03  0.11050727493E+04  0.64829858809E+03 0.  0.
         13    1    3    3    0    0 -0.99458528427E+02 -0.19213285505E+02  0.77400123986E+02  0.12748305146E+03  0.00000000000E+00 0.  1.
          1    1    3    3  501    0  0.99458574284E+02  0.19213361035E+02 -0.97232733999E+03  0.97758969785E+03  0.00000000000E+00 0.  1.
         21    1    1    2  502  501 -0.45856639639E-04 -0.75529877586E-04  0.95203220554E-04  0.12988936450E-03  0.00000000000E+00 0. -1.
<mgrwt>
<rscale>  1 0.64829859E+03</rscale>
<asrwt>0</asrwt>
<pdfrwt beam="1">  1        1 0.38208400E+00 0.64829859E+03</pdfrwt>
<pdfrwt beam="2">0</pdfrwt>
<totfact> 0.16070786E+00</totfact>
</mgrwt>
</event>
<event>
 6    1  0.2475480E-003  0.6359796E+03  0.7818608E-02  0.9833449E-01
          1   -1    0    0  502    0  0.00000000000E+00  0.00000000000E+00  0.10112366522E+03  0.10112366522E+03  0.00000000000E+00 0.  1.
         13   -1    0    0    0    0 -0.00000000000E+00 -0.00000000000E+00 -0.10000000000E+04  0.10000000000E+04  0.00000000000E+00 0.  1.
    9000005    2    1    2  501    0  0.43795787056E-02 -0.15148356494E-01 -0.89886844344E+03  0.11011060321E+04  0.63597957128E+03 0.  0.
         13    1    3    3    0    0  0.43667998637E+02 -0.30596924961E+03 -0.31990244487E+03  0.44481642286E+03  0.00000000000E+00 0.  1.
          1    1    3    3  501    0 -0.43663619059E+02  0.30595410126E+03 -0.57896599857E+03  0.65628960925E+03  0.00000000000E+00 0.  1.
         21    1    1    2  502  501 -0.43795787056E-02  0.15148356494E-01 -0.78913369191E-02  0.17633111253E-01  0.00000000000E+00 0.  1.
<mgrwt>
<rscale>  1 0.63597957E+03</rscale>
<asrwt>0</asrwt>
<pdfrwt beam="1">  1        1 0.36772319E+00 0.63597957E+03</pdfrwt>
<pdfrwt beam="2">0</pdfrwt>
<totfact> 0.18630688E+00</totfact>
</mgrwt>
</event>
<event>
 6    1  0.2475480E-003  0.6389779E+03  0.7818608E-02  0.9827684E-01
          1   -1    0    0  502    0  0.00000000000E+00  0.00000000000E+00  0.10207408659E+03  0.10207408659E+03  0.00000000000E+00 0.  1.
         13   -1    0    0    0    0 -0.00000000000E+00 -0.00000000000E+00 -0.10000000000E+04  0.10000000000E+04  0.00000000000E+00 0.  1.
    9000005    2    1    2  501    0 -0.88768334933E-04 -0.40424101113E-03 -0.89792676664E+03  0.11020731383E+04  0.63897787432E+03 0.  0.
         13    1    3    3    0    0  0.17758620213E+03  0.25262736417E+03 -0.59030394646E+03  0.66619531185E+03  0.00000000000E+00 0.  1.
          1    1    3    3  501    0 -0.17758629090E+03 -0.25262776841E+03 -0.30762282017E+03  0.43587782644E+03  0.00000000000E+00 0.  1.
         21    1    1    2  502  501  0.88768334942E-04  0.40424101113E-03  0.85322819726E-03  0.94830847775E-03  0.00000000000E+00 0.  1.
<mgrwt>
<rscale>  1 0.63897787E+03</rscale>
<asrwt>0</asrwt>
<pdfrwt beam="1">  1        1 0.37117928E+00 0.63897787E+03</pdfrwt>
<pdfrwt beam="2">0</pdfrwt>
<totfact> 0.17981127E+00</totfact>
</mgrwt>
</event>
<event>
 6    1  0.2475480E-003  0.6592142E+03  0.7818608E-02  0.9789641E-01
          1   -1    0    0  502    0  0.00000000000E+00  0.00000000000E+00  0.10865992838E+03  0.10865992838E+03  0.00000000000E+00 0.  1.
         13   -1    0    0    0    0 -0.00000000000E+00 -0.00000000000E+00 -0.10000000000E+04  0.10000000000E+04  0.00000000000E+00 0.  1.
    9000005    2    1    2  501    0 -0.57033144037E-03 -0.19393519289E-02 -0.89135909383E+03  0.11086407991E+04  0.65921421949E+03 0.  0.
         13    1    3    3    0    0  0.27824370788E+03  0.10362616489E+03 -0.68636780764E+03  0.74783601838E+03  0.00000000000E+00 0.  1.
          3    1    3    3  501    0 -0.27824427821E+03 -0.10362810424E+03 -0.20499128619E+03  0.36080478068E+03  0.00000000000E+00 0.  1.
         21    1    1    2  502  501  0.57033144041E-03  0.19393519289E-02  0.19022215875E-01  0.19129324627E-01  0.00000000000E+00 0.  1.
<mgrwt>
<rscale>  1 0.65921422E+03</rscale>
<asrwt>0</asrwt>
<pdfrwt beam="1">  1        1 0.39512785E+00 0.65921422E+03</pdfrwt>
<pdfrwt beam="2">0</pdfrwt>
<totfact> 0.14039550E+00</totfact>
</mgrwt>
</event>
<event>
 6    1  0.2475480E-003  0.6576673E+03  0.7818608E-02  0.9792498E-01
          1   -1    0    0  502    0  0.00000000000E+00  0.00000000000E+00  0.10813172834E+03  0.10813172834E+03  0.00000000000E+00 0.  1.
         13   -1    0    0    0    0 -0.00000000000E+00 -0.00000000000E+00 -0.10000000000E+04  0.10000000000E+04  0.00000000000E+00 0.  1.
    9000005    2    1    2  501    0  0.55395514380E-05  0.19206133857E-04 -0.89186843889E+03  0.11081315599E+04  0.65766727286E+03 0.  0.
         13    1    3    3    0    0  0.24792500996E+03 -0.18902350892E+03 -0.26973996916E+03  0.41225762388E+03  0.00000000000E+00 0.  1.
          3    1    3    3  501    0 -0.24792500442E+03  0.18902352812E+03 -0.62212846974E+03  0.69587393604E+03  0.00000000000E+00 0.  1.
         21    1    1    2  502  501 -0.55395514195E-05 -0.19206133854E-04  0.16723015977E-03  0.16842057044E-03  0.00000000000E+00 0.  1.
<mgrwt>
<rscale>  1 0.65766727E+03</rscale>
<asrwt>0</asrwt>
<pdfrwt beam="1">  1        1 0.39320711E+00 0.65766727E+03</pdfrwt>
<pdfrwt beam="2">0</pdfrwt>
<totfact> 0.14322389E+00</totfact>
</mgrwt>
</event>
<event>
 6    1  0.2475480E-003  0.6452212E+03  0.7818608E-02  0.9815788E-01
          1   -1    0    0  502    0  0.00000000000E+00  0.00000000000E+00  0.10408455771E+03  0.10408455771E+03  0.00000000000E+00 0.  1.
         13   -1    0    0    0    0 -0.00000000000E+00 -0.00000000000E+00 -0.10000000000E+04  0.10000000000E+04  0.00000000000E+00 0.  1.
    9000005    2    1    2  501    0  0.89502143702E-03  0.21696887183E-02 -0.89592217301E+03  0.11040774295E+04  0.64522122582E+03 0.  0.
         13    1    3    3    0    0  0.36150221131E+02 -0.75179685983E+02 -0.98122473788E+03  0.98476434232E+03  0.00000000000E+00 0.  1.
          3    1    3    3  501    0 -0.36149326110E+02  0.75181855672E+02  0.85302564871E+02  0.11931308719E+03  0.00000000000E+00 0.  1.
         21    1    1    2  502  501 -0.89502143701E-03 -0.21696887183E-02  0.67307216306E-02  0.71281993642E-02  0.00000000000E+00 0.  1.
<mgrwt>
<rscale>  1 0.64522123E+03</rscale>
<asrwt>0</asrwt>
<pdfrwt beam="1">  1        1 0.37849010E+00 0.64522123E+03</pdfrwt>
<pdfrwt beam="2">0</pdfrwt>
<totfact> 0.16677935E+00</totfact>
</mgrwt>
</event>
<event>
 6    1  0.2475480E-003  0.6397151E+03  0.7818608E-02  0.9826272E-01
          1   -1    0    0  502    0  0.00000000000E+00  0.00000000000E+00  0.10231089344E+03  0.10231089344E+03  0.00000000000E+00 0.  1.
         13   -1    0    0    0    0 -0.00000000000E+00 -0.00000000000E+00 -0.10000000000E+04  0.10000000000E+04  0.00000000000E+00 0.  1.
    9000005    2    1    2  501    0 -0.97741899424E-04  0.58231319568E-03 -0.89769110067E+03  0.11023088137E+04  0.63971509959E+03 0.  0.
         13    1    3    3    0    0  0.23701132403E+03  0.21416086268E+03 -0.47714443570E+03  0.57420036167E+03  0.00000000000E+00 0.  1.
          1    1    3    3  501    0 -0.23701142177E+03 -0.21416028037E+03 -0.42054666497E+03  0.52810845208E+03  0.00000000000E+00 0.  1.
         21    1    1    2  502  501  0.97741899415E-04 -0.58231319569E-03  0.19941076186E-02  0.20796892392E-02  0.00000000000E+00 0. -1.
<mgrwt>
<rscale>  1 0.63971510E+03</rscale>
<asrwt>0</asrwt>
<pdfrwt beam="1">  1        1 0.37204040E+00 0.63971510E+03</pdfrwt>
<pdfrwt beam="2">0</pdfrwt>
<totfact> 0.17822716E+00</totfact>
</mgrwt>
</event>
<event>
 6    1  0.2475480E-003  0.6552050E+03  0.7818608E-02  0.9797061E-01
          1   -1    0    0  502    0  0.00000000000E+00  0.00000000000E+00  0.10732583223E+03  0.10732583223E+03  0.00000000000E+00 0.  1.
         13   -1    0    0    0    0 -0.00000000000E+00 -0.00000000000E+00 -0.10000000000E+04  0.10000000000E+04  0.00000000000E+00 0.  1.
    9000005    2    1    2  501    0  0.20947403935E-03 -0.55819720387E-02 -0.89267238421E+03  0.11073199685E+04  0.65520495043E+03 0.  0.
         13    1    3    3    0    0  0.10797304124E+03  0.30488279204E+03 -0.53431215171E+03  0.62458079539E+03  0.00000000000E+00 0.  1.
          1    1    3    3  501    0 -0.10797283177E+03 -0.30488837401E+03 -0.35836023251E+03  0.48273917310E+03  0.00000000000E+00 0.  1.
         21    1    1    2  502  501 -0.20947403935E-03  0.55819720387E-02 -0.17835594463E-02  0.58637339224E-02  0.00000000000E+00 0. -1.
<mgrwt>
<rscale>  1 0.65520495E+03</rscale>
<asrwt>0</asrwt>
<pdfrwt beam="1">  1        1 0.39027658E+00 0.65520495E+03</pdfrwt>
<pdfrwt beam="2">0</pdfrwt>
<totfact> 0.14764628E+00</totfact>
</mgrwt>
</event>
<event>
 6    1  0.2475480E-003  0.6310535E+03  0.7818608E-02  0.9842995E-01
          1   -1    0    0  502    0  0.00000000000E+00  0.00000000000E+00  0.99915217047E+02  0.99915217047E+02  0.00000000000E+00 0.  1.
         13   -1    0    0    0    0 -0.00000000000E+00 -0.00000000000E+00 -0.10000000000E+04  0.10000000000E+04  0.00000000000E+00 0.  1.
    9000005    2    1    2  501    0  0.31307782939E-01  0.21319896138E+00 -0.90040689567E+03  0.10995276728E+04  0.63105346759E+03 0.  0.
         13    1    3    3    0    0 -0.31186701684E+03  0.38675984909E+02 -0.49944220167E+03  0.59008421502E+03  0.00000000000E+00 0.  1.
          1    1    3    3  501    0  0.31189832462E+03 -0.38462785947E+02 -0.40096469399E+03  0.50944345774E+03  0.00000000000E+00 0.  1.
         21    1    1    2  502  501 -0.31307782939E-01 -0.21319896138E+00  0.32211271531E+00  0.38754428878E+00  0.00000000000E+00 0. -1.
<mgrwt>
<rscale>  1 0.63105350E+03</rscale>
<asrwt>0</asrwt>
<pdfrwt beam="1">  1        1 0.36332883E+00 0.63105350E+03</pdfrwt>
<pdfrwt beam="2">0</pdfrwt>
<totfact> 0.19493012E+00</totfact>
</mgrwt>
</event>
<event>
 6    1  0.2475480E-003  0.6446758E+03  0.7818608E-02  0.9816821E-01
          1   -1    0    0  502    0  0.00000000000E+00  0.00000000000E+00  0.10390181155E+03  0.10390181155E+03  0.00000000000E+00 0.  1.
         13   -1    0    0    0    0 -0.00000000000E+00 -0.00000000000E+00 -0.10000000000E+04  0.10000000000E+04  0.00000000000E+00 0.  1.
    9000005    2    1    2  501    0 -0.82505655996E-06 -0.92571156074E-05 -0.89609828876E+03  0.11039017108E+04  0.64467576659E+03 0.  0.
         13    1    3    3    0    0  0.15804611602E+03  0.27823792916E+03 -0.38158074553E+03  0.49799476440E+03  0.00000000000E+00 0.  1.
          3    1    3    3  501    0 -0.15804611685E+03 -0.27823793842E+03 -0.51451754323E+03  0.60590694641E+03  0.00000000000E+00 0.  1.
         21    1    1    2  502  501  0.82505657349E-06  0.92571156127E-05  0.10030794026E-03  0.10073756890E-03  0.00000000000E+00 0. -1.
<mgrwt>
<rscale>  1 0.64467577E+03</rscale>
<asrwt>0</asrwt>
<pdfrwt beam="1">  1        1 0.37782557E+00 0.64467577E+03</pdfrwt>
<pdfrwt beam="2">0</pdfrwt>
<totfact> 0.16792494E+00</totfact>
</mgrwt>
</event>
<event>
 6    1  0.2475480E-003  0.6525730E+03  0.7818608E-02  0.9801963E-01
          1   -1    0    0  502    0  0.00000000000E+00  0.00000000000E+00  0.10773448841E+03  0.10773448841E+03  0.00000000000E+00 0.  1.
         13   -1    0    0    0    0 -0.00000000000E+00 -0.00000000000E+00 -0.10000000000E+04  0.10000000000E+04  0.00000000000E+00 0.  1.
    9000005    2    1    2  501    0  0.18395991465E+00  0.39697618331E-01 -0.89352940213E+03  0.11064566635E+04  0.65257300001E+03 0.  0.
         13    1    3    3    0    0 -0.12635323832E+03  0.47333806561E+02  0.56929068817E+02  0.14644640301E+03  0.00000000000E+00 0.  1.
          1    1    3    3  501    0  0.12653719824E+03 -0.47294108943E+02 -0.95045847095E+03  0.96001026051E+03  0.00000000000E+00 0.  1.
         21    1    1    2  502  501 -0.18395991465E+00 -0.39697618331E-01  0.12638905385E+01  0.12778248880E+01  0.00000000000E+00 0. -1.
<mgrwt>
<rscale>  1 0.65257303E+03</rscale>
<asrwt>0</asrwt>
<pdfrwt beam="1">  1        1 0.39176260E+00 0.65257303E+03</pdfrwt>
<pdfrwt beam="2">0</pdfrwt>
<totfact> 0.14549288E+00</totfact>
</mgrwt>
</event>
<event>
 6    1  0.2475480E-003  0.6271583E+03  0.7818608E-02  0.9850610E-01
          1   -1    0    0  502    0  0.00000000000E+00  0.00000000000E+00  0.10015355272E+03  0.10015355272E+03  0.00000000000E+00 0.  1.
         13   -1    0    0    0    0 -0.00000000000E+00 -0.00000000000E+00 -0.10000000000E+04  0.10000000000E+04  0.00000000000E+00 0.  1.
    9000005    2    1    2  501    0  0.10734378567E+00  0.23225027436E+00 -0.90165824747E+03  0.10983237760E+04  0.62715823862E+03 0.  0.
         13    1    3    3    0    0 -0.12076299347E+03 -0.16558787627E+03 -0.35259813162E+02  0.20795744705E+03  0.00000000000E+00 0.  1.
          1    1    3    3  501    0  0.12087033725E+03  0.16582012654E+03 -0.86639843430E+03  0.89036632897E+03  0.00000000000E+00 0.  1.
         21    1    1    2  502  501 -0.10734378567E+00 -0.23225027436E+00  0.18118001876E+01  0.18297767072E+01  0.00000000000E+00 0. -1.
<mgrwt>
<rscale>  1 0.62715829E+03</rscale>
<asrwt>0</asrwt>
<pdfrwt beam="1">  1        1 0.36419551E+00 0.62715829E+03</pdfrwt>
<pdfrwt beam="2">0</pdfrwt>
<totfact> 0.19337090E+00</totfact>
</mgrwt>
</event>
<event>
 6    1  0.2475480E-003  0.6398937E+03  0.7818608E-02  0.9825930E-01
          1   -1    0    0  502    0  0.00000000000E+00  0.00000000000E+00  0.10254262873E+03  0.10254262873E+03  0.00000000000E+00 0.  1.
         13   -1    0    0    0    0 -0.00000000000E+00 -0.00000000000E+00 -0.10000000000E+04  0.10000000000E+04  0.00000000000E+00 0.  1.
    9000005    2    1    2  501    0 -0.35251294497E+00  0.21206370321E+00 -0.89731714018E+03  0.11021080011E+04  0.63989360590E+03 0.  0.
         13    1    3    3    0    0  0.22506113598E+03  0.21249441539E+03 -0.58771139227E+03  0.66423721072E+03  0.00000000000E+00 0.  1.
          3    1    3    3  501    0 -0.22541364893E+03 -0.21228235169E+03 -0.30960574791E+03  0.43787079042E+03  0.00000000000E+00 0.  1.
         21    1    1    2  502  501  0.35251294497E+00 -0.21206370321E+00 -0.14023108768E+00  0.43462759754E+00  0.00000000000E+00 0.  1.
<mgrwt>
<rscale>  1 0.63989374E+03</rscale>
<asrwt>0</asrwt>
<pdfrwt beam="1">  1        1 0.37288307E+00 0.63989374E+03</pdfrwt>
<pdfrwt beam="2">0</pdfrwt>
<totfact> 0.17670741E+00</totfact>
</mgrwt>
</event>
<event>
 6    1  0.2475480E-003  0.6616885E+03  0.7818608E-02  0.9785090E-01
          1   -1    0    0  502    0  0.00000000000E+00  0.00000000000E+00  0.10945865883E+03  0.10945865883E+03  0.00000000000E+00 0.  1.
         13   -1    0    0    0    0 -0.00000000000E+00 -0.00000000000E+00 -0.10000000000E+04  0.10000000000E+04  0.00000000000E+00 0.  1.
    9000005    2    1    2  501    0  0.18264813438E-02 -0.11789608643E-02 -0.89053902923E+03  0.11094554853E+04  0.66168853049E+03 0.  0.
         13    1    3    3    0    0  0.13309451710E+03 -0.50612052819E+02 -0.94599146581E+03  0.95664809818E+03  0.00000000000E+00 0.  1.
          1    1    3    3  501    0 -0.13309269062E+03  0.50610873859E+02  0.55452436581E+02  0.15280738716E+03  0.00000000000E+00 0.  1.
         21    1    1    2  502  501 -0.18264813438E-02  0.11789608643E-02 -0.23119367118E-02  0.31734892750E-02  0.00000000000E+00 0.  1.
<mgrwt>
<rscale>  1 0.66168853E+03</rscale>
<asrwt>0</asrwt>
<pdfrwt beam="1">  1        1 0.39803233E+00 0.66168853E+03</pdfrwt>
<pdfrwt beam="2">0</pdfrwt>
<totfact> 0.13621525E+00</totfact>
</mgrwt>
</event>
<event>
 6    1  0.2475480E-003  0.6484683E+03  0.7818608E-02  0.9809658E-01
          1   -1    0    0  502    0  0.00000000000E+00  0.00000000000E+00  0.10512805951E+03  0.10512805951E+03  0.00000000000E+00 0.  1.
         13   -1    0    0    0    0 -0.00000000000E+00 -0.00000000000E+00 -0.10000000000E+04  0.10000000000E+04  0.00000000000E+00 0.  1.
    9000005    2    1    2  501    0  0.21805722673E-03 -0.70095313660E-04 -0.89487216375E+03  0.11051277397E+04  0.64846829644E+03 0.  0.
         13    1    3    3    0    0 -0.12501035127E+03  0.11043528395E+03  0.26396987874E+02  0.16887966376E+03  0.00000000000E+00 0.  1.
          1    1    3    3  501    0  0.12501056932E+03 -0.11043535404E+03 -0.92126915163E+03  0.93624807589E+03  0.00000000000E+00 0.  1.
         21    1    1    2  502  501 -0.21805722674E-03  0.70095313664E-04  0.22326028059E-03  0.31985537360E-03  0.00000000000E+00 0. -1.
<mgrwt>
<rscale>  1 0.64846830E+03</rscale>
<asrwt>0</asrwt>
<pdfrwt beam="1">  1        1 0.38228466E+00 0.64846830E+03</pdfrwt>
<pdfrwt beam="2">0</pdfrwt>
<totfact> 0.16037521E+00</totfact>
</mgrwt>
</event>
<event>
 6    1  0.2475480E-003  0.6562301E+03  0.7818608E-02  0.9795159E-01
          1   -1    0    0  502    0  0.00000000000E+00  0.00000000000E+00  0.10769582063E+03  0.10769582063E+03  0.00000000000E+00 0.  1.
         13   -1    0    0    0    0 -0.00000000000E+00 -0.00000000000E+00 -0.10000000000E+04  0.10000000000E+04  0.00000000000E+00 0.  1.
    9000005    2    1    2  501    0 -0.94563163994E-02  0.40669673127E-02 -0.89233969671E+03  0.11076588417E+04  0.65623012358E+03 0.  0.
         13    1    3    3    0    0 -0.24695867569E+03 -0.19170612416E+03 -0.61429814282E+03  0.68927645674E+03  0.00000000000E+00 0.  1.
          3    1    3    3  501    0  0.24694921937E+03  0.19171019113E+03 -0.27804155389E+03  0.41838238493E+03  0.00000000000E+00 0.  1.
         21    1    1    2  502  501  0.94563163994E-02 -0.40669673127E-02  0.35517344778E-01  0.36978965954E-01  0.00000000000E+00 0. -1.
<mgrwt>
<rscale>  1 0.65623012E+03</rscale>
<asrwt>0</asrwt>
<pdfrwt beam="1">  1        1 0.39162199E+00 0.65623012E+03</pdfrwt>
<pdfrwt beam="2">0</pdfrwt>
<totfact> 0.14560297E+00</totfact>
</mgrwt>
</event>
<event>
 6    1  0.2475480E-003  0.6535220E+03  0.7818608E-02  0.9800193E-01
          1   -1    0    0  502    0  0.00000000000E+00  0.00000000000E+00  0.10679959113E+03  0.10679959113E+03  0.00000000000E+00 0.  1.
         13   -1    0    0    0    0 -0.00000000000E+00 -0.00000000000E+00 -0.10000000000E+04  0.10000000000E+04  0.00000000000E+00 0.  1.
    9000005    2    1    2  501    0  0.26517600897E-02 -0.18773520065E-03 -0.89322718343E+03  0.11067726849E+04  0.65352197732E+03 0.  0.
         13    1    3    3    0    0  0.18094746832E+03 -0.69692070971E+02 -0.11938020620E+01  0.19390821594E+03  0.00000000000E+00 0.  1.
          1    1    3    3  501    0 -0.18094481656E+03  0.69691883236E+02 -0.89203338137E+03  0.91286446897E+03  0.00000000000E+00 0.  1.
         21    1    1    2  502  501 -0.26517600897E-02  0.18773520066E-03  0.26774563490E-01  0.26906213523E-01  0.00000000000E+00 0.  1.
<mgrwt>
<rscale>  1 0.65352198E+03</rscale>
<asrwt>0</asrwt>
<pdfrwt beam="1">  1        1 0.38836297E+00 0.65352198E+03</pdfrwt>
<pdfrwt beam="2">0</pdfrwt>
<totfact> 0.15060568E+00</totfact>
</mgrwt>
</event>
<event>
 6    1  0.2475480E-003  0.6020438E+03  0.7818608E-02  0.9901175E-01
          1   -1    0    0  502    0  0.00000000000E+00  0.00000000000E+00  0.90614392986E+02  0.90614392986E+02  0.00000000000E+00 0.  1.
         13   -1    0    0    0    0 -0.00000000000E+00 -0.00000000000E+00 -0.10000000000E+04  0.10000000000E+04  0.00000000000E+00 0.  1.
    9000005    2    1    2  501    0  0.29285472511E-04 -0.42639892115E-04 -0.90938582035E+03  0.10906141735E+04  0.60204377342E+03 0.  0.
         13    1    3    3    0    0  0.28494942597E+02 -0.29057593684E+03 -0.32197080741E+03  0.43463954911E+03  0.00000000000E+00 0.  1.
          3    1    3    3  501    0 -0.28494913311E+02  0.29057589420E+03 -0.58741501294E+03  0.65597462436E+03  0.00000000000E+00 0.  1.
         21    1    1    2  502  501 -0.29285472511E-04  0.42639892106E-04  0.21333782068E-03  0.21951953223E-03  0.00000000000E+00 0.  1.
<mgrwt>
<rscale>  1 0.60204377E+03</rscale>
<asrwt>0</asrwt>
<pdfrwt beam="1">  1        1 0.32950758E+00 0.60204377E+03</pdfrwt>
<pdfrwt beam="2">0</pdfrwt>
<totfact> 0.27501308E+00</totfact>
</mgrwt>
</event>
<event>
 6    1  0.2475480E-003  0.6538828E+03  0.7818608E-02  0.9799521E-01
          1   -1    0    0  502    0  0.00000000000E+00  0.00000000000E+00  0.10776765744E+03  0.10776765744E+03  0.00000000000E+00 0.  1.
         13   -1    0    0    0    0 -0.00000000000E+00 -0.00000000000E+00 -0.10000000000E+04  0.10000000000E+04  0.00000000000E+00 0.  1.
    9000005    2    1    2  501    0 -0.21212757352E-01 -0.27645577431E-01 -0.89310893105E+03  0.11068903766E+04  0.65388281971E+03 0.  0.
         13    1    3    3    0    0  0.32483884009E+03 -0.36414981221E+02 -0.45704274484E+03  0.56190247686E+03  0.00000000000E+00 0.  1.
          1    1    3    3  501    0 -0.32486005285E+03  0.36387335644E+02 -0.43606618621E+03  0.54498789976E+03  0.00000000000E+00 0.  1.
         21    1    1    2  502  501  0.21212757352E-01  0.27645577431E-01  0.87658849068E+00  0.87728082221E+00  0.00000000000E+00 0.  1.
<mgrwt>
<rscale>  1 0.65388282E+03</rscale>
<asrwt>0</asrwt>
<pdfrwt beam="1">  1        1 0.39188322E+00 0.65388282E+03</pdfrwt>
<pdfrwt beam="2">0</pdfrwt>
<totfact> 0.14527816E+00</totfact>
</mgrwt>
</event>
<event>
 6    1  0.2475480E-003  0.6592365E+03  0.7818608E-02  0.9789600E-01
          1   -1    0    0  502    0  0.00000000000E+00  0.00000000000E+00  0.11354128596E+03  0.11354128596E+03  0.00000000000E+00 0.  1.
         13   -1    0    0    0    0 -0.00000000000E+00 -0.00000000000E+00 -0.10000000000E+04  0.10000000000E+04  0.00000000000E+00 0.  1.
    9000005    2    1    2  501    0  0.28414502178E+01  0.19107035120E+00 -0.89088809829E+03  0.11082753775E+04  0.65923030750E+03 0.  0.
         13    1    3    3    0    0 -0.21518248908E+03 -0.17820558361E+03 -0.73499948960E+03  0.78631099659E+03  0.00000000000E+00 0.  1.
          1    1    3    3  501    0  0.21802393930E+03  0.17839665396E+03 -0.15588860868E+03  0.32196438090E+03  0.00000000000E+00 0.  1.
         21    1    1    2  502  501 -0.28414502178E+01 -0.19107035120E+00  0.44293842510E+01  0.52659084746E+01  0.00000000000E+00 0.  1.
<mgrwt>
<rscale>  1 0.65923646E+03</rscale>
<asrwt>0</asrwt>
<pdfrwt beam="1">  1        1 0.41287827E+00 0.65923646E+03</pdfrwt>
<pdfrwt beam="2">0</pdfrwt>
<totfact> 0.11695717E+00</totfact>
</mgrwt>
</event>
<event>
 6    1  0.2475480E-003  0.6500034E+03  0.7818608E-02  0.9806773E-01
          1   -1    0    0  502    0  0.00000000000E+00  0.00000000000E+00  0.10562643961E+03  0.10562643961E+03  0.00000000000E+00 0.  1.
         13   -1    0    0    0    0 -0.00000000000E+00 -0.00000000000E+00 -0.10000000000E+04  0.10000000000E+04  0.00000000000E+00 0.  1.
    9000005    2    1    2  501    0 -0.55359220177E-03  0.17295123092E-03 -0.89437359245E+03  0.11056258587E+04  0.65000339742E+03 0.  0.
         13    1    3    3    0    0 -0.10621736737E+03 -0.21609936107E+03 -0.75906878750E+02  0.25247359709E+03  0.00000000000E+00 0.  1.
          3    1    3    3  501    0  0.10621681378E+03  0.21609953402E+03 -0.81846671370E+03  0.85315226166E+03  0.00000000000E+00 0.  1.
         21    1    1    2  502  501  0.55359220177E-03 -0.17295123093E-03  0.32063142042E-04  0.58086530213E-03  0.00000000000E+00 0.  1.
<mgrwt>
<rscale>  1 0.65000340E+03</rscale>
<asrwt>0</asrwt>
<pdfrwt beam="1">  1        1 0.38409695E+00 0.65000340E+03</pdfrwt>
<pdfrwt beam="2">0</pdfrwt>
<totfact> 0.15740025E+00</totfact>
</mgrwt>
</event>
<event>
 6    1  0.2475480E-003  0.6614663E+03  0.7818608E-02  0.9785498E-01
          1   -1    0    0  502    0  0.00000000000E+00  0.00000000000E+00  0.10967390879E+03  0.10967390879E+03  0.00000000000E+00 0.  1.
         13   -1    0    0    0    0 -0.00000000000E+00 -0.00000000000E+00 -0.10000000000E+04  0.10000000000E+04  0.00000000000E+00 0.  1.
    9000005    2    1    2  501    0 -0.63487052655E-02  0.31443851869E-02 -0.89061553475E+03  0.11093843786E+04  0.66146630192E+03 0.  0.
         13    1    3    3    0    0  0.31698104758E+03 -0.67030166278E+02 -0.55670710631E+03  0.64412175086E+03  0.00000000000E+00 0.  1.
          1    1    3    3  501    0 -0.31698739628E+03  0.67033310664E+02 -0.33390842844E+03  0.46526262769E+03  0.00000000000E+00 0.  1.
         21    1    1    2  502  501  0.63487052654E-02 -0.31443851869E-02  0.28944354601E+00  0.28953023942E+00  0.00000000000E+00 0. -1.
<mgrwt>
<rscale>  1 0.66146630E+03</rscale>
<asrwt>0</asrwt>
<pdfrwt beam="1">  1        1 0.39881505E+00 0.66146630E+03</pdfrwt>
<pdfrwt beam="2">0</pdfrwt>
<totfact> 0.13513146E+00</totfact>
</mgrwt>
</event>
<event>
 6    1  0.2475480E-003  0.6645152E+03  0.7818608E-02  0.9779917E-01
          1   -1    0    0  502    0  0.00000000000E+00  0.00000000000E+00  0.12351108779E+03  0.12351108779E+03  0.00000000000E+00 0.  1.
         13   -1    0    0    0    0 -0.00000000000E+00 -0.00000000000E+00 -0.10000000000E+04  0.10000000000E+04  0.00000000000E+00 0.  1.
    9000005    2    1    2  501    0 -0.34636553427E+00 -0.34034165594E+00 -0.88959988330E+03  0.11103911273E+04  0.66451506176E+03 0.  0.
         13    1    3    3    0    0 -0.28587995633E+03 -0.12049054119E+01 -0.16159456412E+03  0.32839245482E+03  0.00000000000E+00 0.  1.
          1    1    3    3  501    0  0.28553359079E+03  0.86456375592E+00 -0.72800531918E+03  0.78199867244E+03  0.00000000000E+00 0.  1.
         21    1    1    2  502  501  0.34636553427E+00  0.34034165594E+00  0.13110971089E+02  0.13119960534E+02  0.00000000000E+00 0.  1.
<mgrwt>
<rscale>  1 0.66451524E+03</rscale>
<asrwt>0</asrwt>
<pdfrwt beam="1">  1        1 0.44913218E+00 0.66451524E+03</pdfrwt>
<pdfrwt beam="2">0</pdfrwt>
<totfact> 0.79942226E-01</totfact>
</mgrwt>
</event>
<event>
 6    1  0.2475480E-003  0.6528108E+03  0.7818608E-02  0.9801519E-01
          1   -1    0    0  502    0  0.00000000000E+00  0.00000000000E+00  0.10654048113E+03  0.10654048113E+03  0.00000000000E+00 0.  1.
         13   -1    0    0    0    0 -0.00000000000E+00 -0.00000000000E+00 -0.10000000000E+04  0.10000000000E+04  0.00000000000E+00 0.  1.
    9000005    2    1    2  501    0 -0.11175826103E-04  0.66098490663E-05 -0.89345951332E+03  0.11065404670E+04  0.65281077134E+03 0.  0.
         13    1    3    3    0    0 -0.32355105816E+03 -0.43061045280E+02 -0.44837165229E+03  0.55459596053E+03  0.00000000000E+00 0.  1.
          1    1    3    3  501    0  0.32355104698E+03  0.43061051890E+02 -0.44508786103E+03  0.55194450648E+03  0.00000000000E+00 0.  1.
         21    1    1    2  502  501  0.11175826129E-04 -0.66098490685E-05 -0.55497369920E-05  0.14120509022E-04  0.00000000000E+00 0.  1.
<mgrwt>
<rscale>  1 0.65281077E+03</rscale>
<asrwt>0</asrwt>
<pdfrwt beam="1">  1        1 0.38742075E+00 0.65281077E+03</pdfrwt>
<pdfrwt beam="2">0</pdfrwt>
<totfact> 0.15208012E+00</totfact>
</mgrwt>
</event>
<event>
 6    1  0.2475480E-003  0.5483825E+03  0.7818608E-02  0.1001869E+00
          1   -1    0    0  502    0  0.00000000000E+00  0.00000000000E+00  0.75250368009E+02  0.75250368009E+02  0.00000000000E+00 0.  1.
         13   -1    0    0    0    0 -0.00000000000E+00 -0.00000000000E+00 -0.10000000000E+04  0.10000000000E+04  0.00000000000E+00 0.  1.
    9000005    2    1    2  501    0  0.24101299484E-01  0.52582181938E-02 -0.92481678970E+03  0.10751788231E+04  0.54838253661E+03 0.  0.
         13    1    3    3    0    0  0.26977270063E+03  0.34916539492E+02 -0.53009399222E+03  0.59581550444E+03  0.00000000000E+00 0.  1.
          3    1    3    3  501    0 -0.26974859933E+03 -0.34911281274E+02 -0.39472279748E+03  0.47936331863E+03  0.00000000000E+00 0.  1.
         21    1    1    2  502  501 -0.24101299484E-01 -0.52582181938E-02  0.67157705668E-01  0.71544943400E-01  0.00000000000E+00 0.  1.
<mgrwt>
<rscale>  1 0.54838254E+03</rscale>
<asrwt>0</asrwt>
<pdfrwt beam="1">  1        1 0.27363828E+00 0.54838254E+03</pdfrwt>
<pdfrwt beam="2">0</pdfrwt>
<totfact> 0.48383825E+00</totfact>
</mgrwt>
</event>
<event>
 6    1  0.2475480E-003  0.6472240E+03  0.7818608E-02  0.9812002E-01
          1   -1    0    0  502    0  0.00000000000E+00  0.00000000000E+00  0.10507191163E+03  0.10507191163E+03  0.00000000000E+00 0.  1.
         13   -1    0    0    0    0 -0.00000000000E+00 -0.00000000000E+00 -0.10000000000E+04  0.10000000000E+04  0.00000000000E+00 0.  1.
    9000005    2    1    2  501    0 -0.58062709872E-01  0.22641991089E-01 -0.89527219375E+03  0.11047222083E+04  0.64722395863E+03 0.  0.
         13    1    3    3    0    0 -0.23862621818E+02  0.29634259965E+03 -0.22943889315E+03  0.37554036637E+03  0.00000000000E+00 0.  1.
          1    1    3    3  501    0  0.23804559108E+02 -0.29631995766E+03 -0.66583330060E+03  0.72918184188E+03  0.00000000000E+00 0.  1.
         21    1    1    2  502  501  0.58062709872E-01 -0.22641991089E-01  0.34410537895E+00  0.34970337411E+00  0.00000000000E+00 0.  1.
<mgrwt>
<rscale>  1 0.64722396E+03</rscale>
<asrwt>0</asrwt>
<pdfrwt beam="1">  1        1 0.38208048E+00 0.64722396E+03</pdfrwt>
<pdfrwt beam="2">0</pdfrwt>
<totfact> 0.16074543E+00</totfact>
</mgrwt>
</event>
<event>
 6    1  0.2475480E-003  0.6428521E+03  0.7818608E-02  0.9820285E-01
          1   -1    0    0  502    0  0.00000000000E+00  0.00000000000E+00  0.10331534835E+03  0.10331534835E+03  0.00000000000E+00 0.  1.
         13   -1    0    0    0    0 -0.00000000000E+00 -0.00000000000E+00 -0.10000000000E+04  0.10000000000E+04  0.00000000000E+00 0.  1.
    9000005    2    1    2  501    0  0.16024060733E-03 -0.34535745016E-04 -0.89668529077E+03  0.11033146885E+04  0.64285207572E+03 0.  0.
         13    1    3    3    0    0  0.16325266938E+03 -0.23678882573E+03 -0.69464157619E+03  0.75182930338E+03  0.00000000000E+00 0.  1.
          3    1    3    3  501    0 -0.16325250914E+03  0.23678879120E+03 -0.20204371458E+03  0.35148538516E+03  0.00000000000E+00 0.  1.
         21    1    1    2  502  501 -0.16024060731E-03  0.34535745019E-04  0.63912494970E-03  0.65981093598E-03  0.00000000000E+00 0.  1.
<mgrwt>
<rscale>  1 0.64285208E+03</rscale>
<asrwt>0</asrwt>
<pdfrwt beam="1">  1        1 0.37569297E+00 0.64285208E+03</pdfrwt>
<pdfrwt beam="2">0</pdfrwt>
<totfact> 0.17165453E+00</totfact>
</mgrwt>
</event>
<event>
 6    1  0.2475480E-003  0.6525954E+03  0.7818608E-02  0.9801921E-01
          1   -1    0    0  502    0  0.00000000000E+00  0.00000000000E+00  0.10648547811E+03  0.10648547811E+03  0.00000000000E+00 0.  1.
         13   -1    0    0    0    0 -0.00000000000E+00 -0.00000000000E+00 -0.10000000000E+04  0.10000000000E+04  0.00000000000E+00 0.  1.
    9000005    2    1    2  501    0 -0.40643673665E-02  0.18467108301E-02 -0.89352945014E+03  0.11064698966E+04  0.65259539831E+03 0.  0.
         13    1    3    3    0    0  0.29421657145E+03 -0.42922395612E+02 -0.21888907291E+03  0.36921287789E+03  0.00000000000E+00 0.  1.
          3    1    3    3  501    0 -0.29422063582E+03  0.42924242322E+02 -0.67464037723E+03  0.73725701876E+03  0.00000000000E+00 0.  1.
         21    1    1    2  502  501  0.40643673665E-02 -0.18467108301E-02  0.14928253064E-01  0.15581468561E-01  0.00000000000E+00 0.  1.
<mgrwt>
<rscale>  1 0.65259540E+03</rscale>
<asrwt>0</asrwt>
<pdfrwt beam="1">  1        1 0.38722074E+00 0.65259540E+03</pdfrwt>
<pdfrwt beam="2">0</pdfrwt>
<totfact> 0.15239668E+00</totfact>
</mgrwt>
</event>
<event>
 6    1  0.2475480E-003  0.6548531E+03  0.7818608E-02  0.9797715E-01
          1   -1    0    0  502    0  0.00000000000E+00  0.00000000000E+00  0.13275821991E+03  0.13275821991E+03  0.00000000000E+00 0.  1.
         13   -1    0    0    0    0 -0.00000000000E+00 -0.00000000000E+00 -0.10000000000E+04  0.10000000000E+04  0.00000000000E+00 0.  1.
    9000005    2    1    2  501    0 -0.71355570082E+00 -0.29124742026E+00 -0.89278541895E+03  0.11072029568E+04  0.65485264697E+03 0.  0.
         13    1    3    3    0    0  0.22462984536E+03 -0.15154295084E+03 -0.75638567686E+03  0.80345698425E+03  0.00000000000E+00 0.  1.
          1    1    3    3  501    0 -0.22534340106E+03  0.15125170342E+03 -0.13639974209E+03  0.30374597254E+03  0.00000000000E+00 0.  1.
         21    1    1    2  502  501  0.71355570082E+00  0.29124742026E+00  0.25543638859E+02  0.25555263117E+02  0.00000000000E+00 0.  1.
<mgrwt>
<rscale>  1 0.65485310E+03</rscale>
<asrwt>0</asrwt>
<pdfrwt beam="1">  1        1 0.48275818E+00 0.65485310E+03</pdfrwt>
<pdfrwt beam="2">0</pdfrwt>
<totfact> 0.55816549E-01</totfact>
</mgrwt>
</event>
<event>
 6    1  0.2475480E-003  0.6424449E+03  0.7818608E-02  0.9821060E-01
          1   -1    0    0  502    0  0.00000000000E+00  0.00000000000E+00  0.10322361069E+03  0.10322361069E+03  0.00000000000E+00 0.  1.
         13   -1    0    0    0    0 -0.00000000000E+00 -0.00000000000E+00 -0.10000000000E+04  0.10000000000E+04  0.00000000000E+00 0.  1.
    9000005    2    1    2  501    0  0.33800113568E-01 -0.58141491073E-02 -0.89680781486E+03  0.11031770938E+04  0.64244489446E+03 0.  0.
         13    1    3    3    0    0 -0.31198018896E+03  0.71644290715E+02 -0.40267808280E+03  0.51440663008E+03  0.00000000000E+00 0.  1.
          3    1    3    3  501    0  0.31201398908E+03 -0.71650104864E+02 -0.49412973205E+03  0.58877046377E+03  0.00000000000E+00 0.  1.
         21    1    1    2  502  501 -0.33800113568E-01  0.58141491073E-02  0.31425548945E-01  0.46516847846E-01  0.00000000000E+00 0.  1.
<mgrwt>
<rscale>  1 0.64244490E+03</rscale>
<asrwt>0</asrwt>
<pdfrwt beam="1">  1        1 0.37535938E+00 0.64244490E+03</pdfrwt>
<pdfrwt beam="2">0</pdfrwt>
<totfact> 0.17224888E+00</totfact>
</mgrwt>
</event>
<event>
 6    1  0.2618426E-003  0.6428729E+03  0.7818608E-02  0.9820245E-01
          1   -1    0    0  502    0  0.00000000000E+00  0.00000000000E+00  0.10332141280E+03  0.10332141280E+03  0.00000000000E+00 0.  1.
         13   -1    0    0    0    0 -0.00000000000E+00 -0.00000000000E+00 -0.10000000000E+04  0.10000000000E+04  0.00000000000E+00 0.  1.
    9000005    2    1    2  501    0 -0.13160457684E-04  0.46540888206E-04 -0.89667850487E+03  0.11033213173E+04  0.64287291756E+03 0.  0.
         13    1    3    3    0    0 -0.13267327276E+03  0.28830585157E+03 -0.36084576085E+03  0.48055397665E+03  0.00000000000E+00 0.  1.
          3    1    3    3  501    0  0.13267325960E+03 -0.28830580503E+03 -0.53583274402E+03  0.62276734065E+03  0.00000000000E+00 0.  1.
         21    1    1    2  502  501  0.13160457685E-04 -0.46540888194E-04 -0.82333133159E-04  0.95488202078E-04  0.00000000000E+00 0.  1.
<mgrwt>
<rscale>  1 0.64287292E+03</rscale>
<asrwt>0</asrwt>
<pdfrwt beam="1">  1        1 0.37571502E+00 0.64287292E+03</pdfrwt>
<pdfrwt beam="2">0</pdfrwt>
<totfact> 0.17161550E+00</totfact>
</mgrwt>
</event>
<event>
 6    1  0.2475480E-003  0.6500431E+03  0.7818608E-02  0.9806698E-01
          1   -1    0    0  502    0  0.00000000000E+00  0.00000000000E+00  0.10564136087E+03  0.10564136087E+03  0.00000000000E+00 0.  1.
         13   -1    0    0    0    0 -0.00000000000E+00 -0.00000000000E+00 -0.10000000000E+04  0.10000000000E+04  0.00000000000E+00 0.  1.
    9000005    2    1    2  501    0 -0.10854626341E-02 -0.15189071963E-02 -0.89436055903E+03  0.11056386829E+04  0.65004314292E+03 0.  0.
         13    1    3    3    0    0  0.24585101588E+03 -0.14253749292E+03 -0.71546136812E+03  0.76983415627E+03  0.00000000000E+00 0.  1.
          3    1    3    3  501    0 -0.24585210134E+03  0.14253597402E+03 -0.17889919091E+03  0.33580452667E+03  0.00000000000E+00 0.  1.
         21    1    1    2  502  501  0.10854626341E-02  0.15189071963E-02  0.19199025301E-02  0.26779346381E-02  0.00000000000E+00 0.  1.
<mgrwt>
<rscale>  1 0.65004314E+03</rscale>
<asrwt>0</asrwt>
<pdfrwt beam="1">  1        1 0.38415121E+00 0.65004314E+03</pdfrwt>
<pdfrwt beam="2">0</pdfrwt>
<totfact> 0.15731218E+00</totfact>
</mgrwt>
</event>
<event>
 6    1  0.2475480E-003  0.6324131E+03  0.7818608E-02  0.9840351E-01
          1   -1    0    0  502    0  0.00000000000E+00  0.00000000000E+00  0.99987551651E+02  0.99987551651E+02  0.00000000000E+00 0.  1.
         13   -1    0    0    0    0 -0.00000000000E+00 -0.00000000000E+00 -0.10000000000E+04  0.10000000000E+04  0.00000000000E+00 0.  1.
    9000005    2    1    2  501    0  0.23042855179E-03  0.36917653286E-03 -0.90001337864E+03  0.10999865246E+04  0.63241305536E+03 0.  0.
         13    1    3    3    0    0 -0.61875428453E+02 -0.12736874622E+03 -0.94176905365E+03  0.95235514205E+03  0.00000000000E+00 0.  1.
          3    1    3    3  501    0  0.61875658881E+02  0.12736911540E+03  0.41755675017E+02  0.14763138256E+03  0.00000000000E+00 0.  1.
         21    1    1    2  502  501 -0.23042855179E-03 -0.36917653286E-03  0.93028838202E-03  0.10270467874E-02  0.00000000000E+00 0. -1.
<mgrwt>
<rscale>  1 0.63241306E+03</rscale>
<asrwt>0</asrwt>
<pdfrwt beam="1">  1        1 0.36359186E+00 0.63241306E+03</pdfrwt>
<pdfrwt beam="2">0</pdfrwt>
<totfact> 0.19436587E+00</totfact>
</mgrwt>
</event>
<event>
 6    1  0.2475480E-003  0.6801164E+03  0.7818608E-02  0.9751853E-01
          3   -1    0    0  502    0  0.00000000000E+00  0.00000000000E+00  0.11563984575E+03  0.11563984575E+03  0.00000000000E+00 0.  1.
         13   -1    0    0    0    0 -0.00000000000E+00 -0.00000000000E+00 -0.10000000000E+04  0.10000000000E+04  0.00000000000E+00 0.  1.
    9000005    2    1    2  501    0  0.39022379440E-04  0.20852568383E-04 -0.88436042234E+03  0.11156395740E+04  0.68011638898E+03 0.  0.
         13    1    3    3    0    0  0.19458609967E+03  0.24442915554E+03 -0.66244308676E+03  0.73242078443E+03  0.00000000000E+00 0.  1.
          3    1    3    3  501    0 -0.19458606064E+03 -0.24442913469E+03 -0.22191733557E+03  0.38321878961E+03  0.00000000000E+00 0.  1.
         21    1    1    2  502  501 -0.39022379440E-04 -0.20852568358E-04  0.26808721076E-03  0.27171368806E-03  0.00000000000E+00 0.  1.
<mgrwt>
<rscale>  1 0.68011639E+03</rscale>
<asrwt>0</asrwt>
<pdfrwt beam="1">  1        3 0.42050942E+00 0.68011639E+03</pdfrwt>
<pdfrwt beam="2">0</pdfrwt>
<totfact> 0.46073675E-02</totfact>
</mgrwt>
</event>
<event>
 6    1  0.2475480E-003  0.6910010E+03  0.7818608E-02  0.9732747E-01
          1   -1    0    0  502    0  0.00000000000E+00  0.00000000000E+00  0.12097748175E+03  0.12097748175E+03  0.00000000000E+00 0.  1.
         13   -1    0    0    0    0 -0.00000000000E+00 -0.00000000000E+00 -0.10000000000E+04  0.10000000000E+04  0.00000000000E+00 0.  1.
    9000005    2    1    2  501    0 -0.10439478498E+01 -0.11095601052E-02 -0.88043715541E+03  0.11192193502E+04  0.69100020213E+03 0.  0.
         13    1    3    3    0    0  0.26457856400E+02  0.33274040575E+03 -0.29596776385E+03  0.44610885782E+03  0.00000000000E+00 0.  1.
          3    1    3    3  501    0 -0.27501804250E+02 -0.33274151531E+03 -0.58446939156E+03  0.67311049235E+03  0.00000000000E+00 0.  1.
         21    1    1    2  502  501  0.10439478498E+01  0.11095601053E-02  0.14146371575E+01  0.17581315740E+01  0.00000000000E+00 0.  1.
<mgrwt>
<rscale>  1 0.69100099E+03</rscale>
<asrwt>0</asrwt>
<pdfrwt beam="1">  1        1 0.43991904E+00 0.69100099E+03</pdfrwt>
<pdfrwt beam="2">0</pdfrwt>
<totfact> 0.87654855E-01</totfact>
</mgrwt>
</event>
<event>
 6    1  0.2475480E-003  0.5694235E+03  0.7818608E-02  0.9970955E-01
          1   -1    0    0  502    0  0.00000000000E+00  0.00000000000E+00  0.81062490047E+02  0.81062490047E+02  0.00000000000E+00 0.  1.
         13   -1    0    0    0    0 -0.00000000000E+00 -0.00000000000E+00 -0.10000000000E+04  0.10000000000E+04  0.00000000000E+00 0.  1.
    9000005    2    1    2  501    0 -0.71317258119E-04  0.86724099901E-05 -0.91893920504E+03  0.10810607934E+04  0.56942354759E+03 0.  0.
         13    1    3    3    0    0  0.23163444844E+03 -0.16554771476E+03 -0.45859413480E+03  0.53978620215E+03  0.00000000000E+00 0.  1.
          3    1    3    3  501    0 -0.23163451975E+03  0.16554772343E+03 -0.46034507024E+03  0.54127459128E+03  0.00000000000E+00 0.  1.
         21    1    1    2  502  501  0.71317258130E-04 -0.86724099931E-05  0.16950862935E-02  0.16966080586E-02  0.00000000000E+00 0.  1.
<mgrwt>
<rscale>  1 0.56942355E+03</rscale>
<asrwt>0</asrwt>
<pdfrwt beam="1">  1        1 0.29477331E+00 0.56942355E+03</pdfrwt>
<pdfrwt beam="2">0</pdfrwt>
<totfact> 0.39075222E+00</totfact>
</mgrwt>
</event>
<event>
 6    1  0.2475480E-003  0.6495876E+03  0.7818608E-02  0.9807553E-01
          1   -1    0    0  502    0  0.00000000000E+00  0.00000000000E+00  0.11249331902E+03  0.11249331902E+03  0.00000000000E+00 0.  1.
         13   -1    0    0    0    0 -0.00000000000E+00 -0.00000000000E+00 -0.10000000000E+04  0.10000000000E+04  0.00000000000E+00 0.  1.
    9000005    2    1    2  501    0  0.70718114271E-01 -0.11760234760E+00 -0.89450823556E+03  0.11054904198E+04  0.64958761217E+03 0.  0.
         13    1    3    3    0    0 -0.11949722492E+03  0.46669142298E+02 -0.95498603939E+03  0.96356418107E+03  0.00000000000E+00 0.  1.
          1    1    3    3  501    0  0.11956794304E+03 -0.46786744645E+02  0.60477803826E+02  0.14192623870E+03  0.00000000000E+00 0.  1.
         21    1    1    2  502  501 -0.70718114271E-01  0.11760234760E+00  0.70015545826E+01  0.70028992522E+01  0.00000000000E+00 0.  1.
<mgrwt>
<rscale>  1 0.64958763E+03</rscale>
<asrwt>0</asrwt>
<pdfrwt beam="1">  1        1 0.40906748E+00 0.64958763E+03</pdfrwt>
<pdfrwt beam="2">0</pdfrwt>
<totfact> 0.12187964E+00</totfact>
</mgrwt>
</event>
<event>
 6    1  0.2475480E-003  0.6453239E+03  0.7818608E-02  0.9815593E-01
          1   -1    0    0  502    0  0.00000000000E+00  0.00000000000E+00  0.10411120326E+03  0.10411120326E+03  0.00000000000E+00 0.  1.
         13   -1    0    0    0    0 -0.00000000000E+00 -0.00000000000E+00 -0.10000000000E+04  0.10000000000E+04  0.00000000000E+00 0.  1.
    9000005    2    1    2  501    0 -0.66749105457E-04  0.23178102552E-03 -0.89588923288E+03  0.11041107049E+04  0.64532389620E+03 0.  0.
         13    1    3    3    0    0  0.23223980655E+03 -0.22102607870E+03 -0.51017217164E+03  0.60254750844E+03  0.00000000000E+00 0.  1.
          1    1    3    3  501    0 -0.23223987330E+03  0.22102631048E+03 -0.38571706124E+03  0.50156319642E+03  0.00000000000E+00 0.  1.
         21    1    1    2  502  501  0.66749105457E-04 -0.23178102551E-03  0.43613704835E-03  0.49839082236E-03  0.00000000000E+00 0. -1.
<mgrwt>
<rscale>  1 0.64532390E+03</rscale>
<asrwt>0</asrwt>
<pdfrwt beam="1">  1        1 0.37858699E+00 0.64532390E+03</pdfrwt>
<pdfrwt beam="2">0</pdfrwt>
<totfact> 0.16661223E+00</totfact>
</mgrwt>
</event>
<event>
 6    1  0.2475480E-003  0.6504724E+03  0.7818608E-02  0.9805893E-01
          1   -1    0    0  502    0  0.00000000000E+00  0.00000000000E+00  0.10577966544E+03  0.10577966544E+03  0.00000000000E+00 0.  1.
         13   -1    0    0    0    0 -0.00000000000E+00 -0.00000000000E+00 -0.10000000000E+04  0.10000000000E+04  0.00000000000E+00 0.  1.
    9000005    2    1    2  501    0  0.21578288153E-02  0.12197402873E-02 -0.89421946532E+03  0.11057770387E+04  0.65047244925E+03 0.  0.
         13    1    3    3    0    0  0.17311183636E+03  0.12087396159E+03 -0.86766076502E+03  0.89298008132E+03  0.00000000000E+00 0.  1.
          3    1    3    3  501    0 -0.17310967853E+03 -0.12087274185E+03 -0.26558700303E+02  0.21279695742E+03  0.00000000000E+00 0.  1.
         21    1    1    2  502  501 -0.21578288152E-02 -0.12197402873E-02 -0.86923689490E-03  0.26267021803E-02  0.00000000000E+00 0. -1.
<mgrwt>
<rscale>  1 0.65047245E+03</rscale>
<asrwt>0</asrwt>
<pdfrwt beam="1">  1        1 0.38465414E+00 0.65047245E+03</pdfrwt>
<pdfrwt beam="2">0</pdfrwt>
<totfact> 0.15649629E+00</totfact>
</mgrwt>
</event>
<event>
 6    1  0.2475480E-003  0.6455480E+03  0.7818608E-02  0.9815169E-01
          1   -1    0    0  502    0  0.00000000000E+00  0.00000000000E+00  0.10418452986E+03  0.10418452986E+03  0.00000000000E+00 0.  1.
         13   -1    0    0    0    0 -0.00000000000E+00 -0.00000000000E+00 -0.10000000000E+04  0.10000000000E+04  0.00000000000E+00 0.  1.
    9000005    2    1    2  501    0 -0.69775141485E-03  0.25653321586E-02 -0.89581545695E+03  0.11041818713E+04  0.64554804003E+03 0.  0.
         13    1    3    3    0    0 -0.10221849646E+03 -0.28845106899E+03 -0.62342413041E+03  0.69448562735E+03  0.00000000000E+00 0.  1.
          1    1    3    3  501    0  0.10221779871E+03  0.28845363432E+03 -0.27239132654E+03  0.40969624395E+03  0.00000000000E+00 0.  1.
         21    1    1    2  502  501  0.69775141484E-03 -0.25653321586E-02 -0.13184280292E-04  0.26585635117E-02  0.00000000000E+00 0.  1.
<mgrwt>
<rscale>  1 0.64554804E+03</rscale>
<asrwt>0</asrwt>
<pdfrwt beam="1">  1        1 0.37885363E+00 0.64554804E+03</pdfrwt>
<pdfrwt beam="2">0</pdfrwt>
<totfact> 0.16615493E+00</totfact>
</mgrwt>
</event>
<event>
 6    1  0.2475480E-003  0.6566786E+03  0.7818608E-02  0.9794327E-01
          1   -1    0    0  502    0  0.00000000000E+00  0.00000000000E+00  0.11047148937E+03  0.11047148937E+03  0.00000000000E+00 0.  1.
         13   -1    0    0    0    0 -0.00000000000E+00 -0.00000000000E+00 -0.10000000000E+04  0.10000000000E+04  0.00000000000E+00 0.  1.
    9000005    2    1    2  501    0 -0.46145864399E+00 -0.98773793667E+00 -0.89206921298E+03  0.11077067581E+04  0.65667769319E+03 0.  0.
         13    1    3    3    0    0  0.21673565337E+03  0.23283602465E+03 -0.31157522034E+03  0.44527078924E+03  0.00000000000E+00 0.  1.
          3    1    3    3  501    0 -0.21719711201E+03 -0.23382376259E+03 -0.58049399264E+03  0.66243596891E+03  0.00000000000E+00 0.  1.
         21    1    1    2  502  501  0.46145864399E+00  0.98773793667E+00  0.25407023532E+01  0.27647312273E+01  0.00000000000E+00 0.  1.
<mgrwt>
<rscale>  1 0.65667860E+03</rscale>
<asrwt>0</asrwt>
<pdfrwt beam="1">  1        1 0.40171535E+00 0.65667860E+03</pdfrwt>
<pdfrwt beam="2">0</pdfrwt>
<totfact> 0.13128471E+00</totfact>
</mgrwt>
</event>
<event>
 6    1  0.2475480E-003  0.6512955E+03  0.7818608E-02  0.9804351E-01
          1   -1    0    0  502    0  0.00000000000E+00  0.00000000000E+00  0.10604672467E+03  0.10604672467E+03  0.00000000000E+00 0.  1.
         13   -1    0    0    0    0 -0.00000000000E+00 -0.00000000000E+00 -0.10000000000E+04  0.10000000000E+04  0.00000000000E+00 0.  1.
    9000005    2    1    2  501    0  0.13804377659E-04  0.23104516629E-04 -0.89395355198E+03  0.11060464467E+04  0.65129546995E+03 0.  0.
         13    1    3    3    0    0  0.17777698033E+03  0.64672193979E+02  0.31628238205E+01  0.18920135006E+03  0.00000000000E+00 0.  1.
          1    1    3    3  501    0 -0.17777696653E+03 -0.64672170874E+02 -0.89711637580E+03  0.91684509665E+03  0.00000000000E+00 0.  1.
         21    1    1    2  502  501 -0.13804377640E-04 -0.23104516629E-04  0.27665063393E-03  0.27795674625E-03  0.00000000000E+00 0. -1.
<mgrwt>
<rscale>  1 0.65129547E+03</rscale>
<asrwt>0</asrwt>
<pdfrwt beam="1">  1        1 0.38562527E+00 0.65129547E+03</pdfrwt>
<pdfrwt beam="2">0</pdfrwt>
<totfact> 0.15493238E+00</totfact>
</mgrwt>
</event>
<event>
 6    1  0.2475480E-003  0.6481884E+03  0.7818608E-02  0.9810185E-01
          1   -1    0    0  502    0  0.00000000000E+00  0.00000000000E+00  0.10521759458E+03  0.10521759458E+03  0.00000000000E+00 0.  1.
         13   -1    0    0    0    0 -0.00000000000E+00 -0.00000000000E+00 -0.10000000000E+04  0.10000000000E+04  0.00000000000E+00 0.  1.
    9000005    2    1    2  501    0  0.22935602274E+00  0.38139898241E+00 -0.89458445079E+03  0.11047305059E+04  0.64818820797E+03 0.  0.
         13    1    3    3    0    0 -0.33618945379E+02  0.23499027176E+03 -0.71089046626E+02  0.24779893838E+03  0.00000000000E+00 0.  1.
          3    1    3    3  501    0  0.33848301401E+02 -0.23460887278E+03 -0.82349540417E+03  0.85693156750E+03  0.00000000000E+00 0.  1.
         21    1    1    2  502  501 -0.22935602274E+00 -0.38139898241E+00 -0.19795462304E+00  0.48708870007E+00  0.00000000000E+00 0.  1.
<mgrwt>
<rscale>  1 0.64818836E+03</rscale>
<asrwt>0</asrwt>
<pdfrwt beam="1">  1        1 0.38261024E+00 0.64818836E+03</pdfrwt>
<pdfrwt beam="2">0</pdfrwt>
<totfact> 0.15985321E+00</totfact>
</mgrwt>
</event>
<event>
 6    1  0.2475480E-003  0.6486088E+03  0.7818608E-02  0.9809393E-01
          1   -1    0    0  502    0  0.00000000000E+00  0.00000000000E+00  0.10517335131E+03  0.10517335131E+03  0.00000000000E+00 0.  1.
         13   -1    0    0    0    0 -0.00000000000E+00 -0.00000000000E+00 -0.10000000000E+04  0.10000000000E+04  0.00000000000E+00 0.  1.
    9000005    2    1    2  501    0 -0.21013247817E-05  0.96016168811E-05 -0.89482666388E+03  0.11051733332E+04  0.64860877118E+03 0.  0.
         13    1    3    3    0    0 -0.21497981677E+03 -0.23095761650E+03 -0.57509992015E+03  0.65597077709E+03  0.00000000000E+00 0.  1.
          1    1    3    3  501    0  0.21497981467E+03  0.23095762611E+03 -0.31972674374E+03  0.44920255613E+03  0.00000000000E+00 0.  1.
         21    1    1    2  502  501  0.21013247819E-05 -0.96016168820E-05  0.15191001506E-04  0.18093455705E-04  0.00000000000E+00 0. -1.
<mgrwt>
<rscale>  1 0.64860877E+03</rscale>
<asrwt>0</asrwt>
<pdfrwt beam="1">  1        1 0.38244936E+00 0.64860877E+03</pdfrwt>
<pdfrwt beam="2">0</pdfrwt>
<totfact> 0.16010263E+00</totfact>
</mgrwt>
</event>
<event>
 6    1  0.2475480E-003  0.6204986E+03  0.7818608E-02  0.9863768E-01
          1   -1    0    0  502    0  0.00000000000E+00  0.00000000000E+00  0.97029611751E+02  0.97029611751E+02  0.00000000000E+00 0.  1.
         13   -1    0    0    0    0 -0.00000000000E+00 -0.00000000000E+00 -0.10000000000E+04  0.10000000000E+04  0.00000000000E+00 0.  1.
    9000005    2    1    2  501    0  0.23213590396E+00  0.38859412661E-01 -0.90372574244E+03  0.10962384372E+04  0.62049854017E+03 0.  0.
         13    1    3    3    0    0  0.18487778232E+03  0.45173827831E+02 -0.18930797452E+02  0.19125596516E+03  0.00000000000E+00 0.  1.
          3    1    3    3  501    0 -0.18464564641E+03 -0.45134968418E+02 -0.88479494499E+03  0.90498247209E+03  0.00000000000E+00 0.  1.
         21    1    1    2  502  501 -0.23213590396E+00 -0.38859412661E-01  0.75535419548E+00  0.79117450192E+00  0.00000000000E+00 0.  1.
<mgrwt>
<rscale>  1 0.62049858E+03</rscale>
<asrwt>0</asrwt>
<pdfrwt beam="1">  1        1 0.35283570E+00 0.62049858E+03</pdfrwt>
<pdfrwt beam="2">0</pdfrwt>
<totfact> 0.21705110E+00</totfact>
</mgrwt>
</event>
<event>
 6    1  0.2475480E-003  0.6435519E+03  0.7818608E-02  0.9818954E-01
          1   -1    0    0  502    0  0.00000000000E+00  0.00000000000E+00  0.10358775396E+03  0.10358775396E+03  0.00000000000E+00 0.  1.
         13   -1    0    0    0    0 -0.00000000000E+00 -0.00000000000E+00 -0.10000000000E+04  0.10000000000E+04  0.00000000000E+00 0.  1.
    9000005    2    1    2  501    0 -0.67383959206E-02  0.25135024143E-01 -0.89645632329E+03  0.11035365682E+04  0.64355187604E+03 0.  0.
         13    1    3    3    0    0  0.14519415087E+03  0.12059342957E+03 -0.89511641489E+03  0.91479916534E+03  0.00000000000E+00 0.  1.
          1    1    3    3  501    0 -0.14520088926E+03 -0.12056829455E+03 -0.13399084017E+01  0.18873740288E+03  0.00000000000E+00 0.  1.
         21    1    1    2  502  501  0.67383959206E-02 -0.25135024143E-01  0.44077246934E-01  0.51185731562E-01  0.00000000000E+00 0. -1.
<mgrwt>
<rscale>  1 0.64355188E+03</rscale>
<asrwt>0</asrwt>
<pdfrwt beam="1">  1        1 0.37668354E+00 0.64355188E+03</pdfrwt>
<pdfrwt beam="2">0</pdfrwt>
<totfact> 0.16991705E+00</totfact>
</mgrwt>
</event>
<event>
 6    1  0.2475480E-003  0.6060858E+03  0.7818608E-02  0.9892860E-01
          1   -1    0    0  502    0  0.00000000000E+00  0.00000000000E+00  0.98315129456E+02  0.98315129456E+02  0.00000000000E+00 0.  1.
         13   -1    0    0    0    0 -0.00000000000E+00 -0.00000000000E+00 -0.10000000000E+04  0.10000000000E+04  0.00000000000E+00 0.  1.
    9000005    2    1    2  501    0 -0.15115716520E+00  0.40286977172E+00 -0.90815719635E+03  0.10918285160E+04  0.60608566222E+03 0.  0.
         13    1    3    3    0    0 -0.26316443794E+03  0.14474666542E+03 -0.52916016781E+03  0.60845509427E+03  0.00000000000E+00 0.  1.
          3    1    3    3  501    0  0.26301328077E+03 -0.14434379565E+03 -0.37899702854E+03  0.48337342175E+03  0.00000000000E+00 0.  1.
         21    1    1    2  502  501  0.15115716520E+00 -0.40286977172E+00  0.64723258091E+01  0.64866134400E+01  0.00000000000E+00 0. -1.
<mgrwt>
<rscale>  1 0.60608581E+03</rscale>
<asrwt>0</asrwt>
<pdfrwt beam="1">  1        1 0.35751032E+00 0.60608581E+03</pdfrwt>
<pdfrwt beam="2">0</pdfrwt>
<totfact> 0.20763857E+00</totfact>
</mgrwt>
</event>
<event>
 6    1  0.2475480E-003  0.6714962E+03  0.7818608E-02  0.9767259E-01
          1   -1    0    0  502    0  0.00000000000E+00  0.00000000000E+00  0.11293208937E+03  0.11293208937E+03  0.00000000000E+00 0.  1.
         13   -1    0    0    0    0 -0.00000000000E+00 -0.00000000000E+00 -0.10000000000E+04  0.10000000000E+04  0.00000000000E+00 0.  1.
    9000005    2    1    2  501    0 -0.13969675628E-01 -0.28509210893E-01 -0.88727186026E+03  0.11127256835E+04  0.67149615912E+03 0.  0.
         13    1    3    3    0    0 -0.27857480731E+03 -0.35693636673E+02 -0.13875234814E+03  0.31325735918E+03  0.00000000000E+00 0.  1.
          1    1    3    3  501    0  0.27856083763E+03  0.35665127462E+02 -0.74851951212E+03  0.79946832433E+03  0.00000000000E+00 0.  1.
         21    1    1    2  502  501  0.13969675628E-01  0.28509210893E-01  0.20394963025E+00  0.20640585898E+00  0.00000000000E+00 0.  1.
<mgrwt>
<rscale>  1 0.67149616E+03</rscale>
<asrwt>0</asrwt>
<pdfrwt beam="1">  1        1 0.41066301E+00 0.67149616E+03</pdfrwt>
<pdfrwt beam="2">0</pdfrwt>
<totfact> 0.11938706E+00</totfact>
</mgrwt>
</event>
<event>
 6    1  0.2475480E-003  0.6107971E+03  0.7818608E-02  0.9883255E-01
          1   -1    0    0  502    0  0.00000000000E+00  0.00000000000E+00  0.93324982880E+02  0.93324982880E+02  0.00000000000E+00 0.  1.
         13   -1    0    0    0    0 -0.00000000000E+00 -0.00000000000E+00 -0.10000000000E+04  0.10000000000E+04  0.00000000000E+00 0.  1.
    9000005    2    1    2  501    0  0.99271897693E-02  0.17407132527E-01 -0.90672979968E+03  0.10932666503E+04  0.61079705196E+03 0.  0.
         13    1    3    3    0    0  0.45333254301E+02 -0.90116300238E+02 -0.96931072838E+03  0.97454570937E+03  0.00000000000E+00 0.  1.
          1    1    3    3  501    0 -0.45323327111E+02  0.90133707371E+02  0.62580928692E+02  0.11872094095E+03  0.00000000000E+00 0.  1.
         21    1    1    2  502  501 -0.99271897693E-02 -0.17407132527E-01  0.54782564402E-01  0.58332552850E-01  0.00000000000E+00 0.  1.
<mgrwt>
<rscale>  1 0.61079705E+03</rscale>
<asrwt>0</asrwt>
<pdfrwt beam="1">  1        1 0.33936429E+00 0.61079705E+03</pdfrwt>
<pdfrwt beam="2">0</pdfrwt>
<totfact> 0.24884897E+00</totfact>
</mgrwt>
</event>
<event>
 6    1  0.2475480E-003  0.6709242E+03  0.7818608E-02  0.9768290E-01
          1   -1    0    0  502    0  0.00000000000E+00  0.00000000000E+00  0.11403598909E+03  0.11403598909E+03  0.00000000000E+00 0.  1.
         13   -1    0    0    0    0 -0.00000000000E+00 -0.00000000000E+00 -0.10000000000E+04  0.10000000000E+04  0.00000000000E+00 0.  1.
    9000005    2    1    2  501    0  0.35390648120E+01 -0.98378851274E-01 -0.88457992573E+03  0.11102346275E+04  0.67091485932E+03 0.  0.
         13    1    3    3    0    0 -0.64324096763E+02  0.17244933070E+03 -0.90515928138E+03  0.92368267590E+03  0.00000000000E+00 0.  1.
          1    1    3    3  501    0  0.67863161575E+02 -0.17254770955E+03  0.20579355654E+02  0.18655195161E+03  0.00000000000E+00 0.  1.
         21    1    1    2  502  501 -0.35390648120E+01  0.98378851274E-01 -0.13840851788E+01  0.38013615882E+01  0.00000000000E+00 0.  1.
<mgrwt>
<rscale>  1 0.67092420E+03</rscale>
<asrwt>0</asrwt>
<pdfrwt beam="1">  1        1 0.41467720E+00 0.67092420E+03</pdfrwt>
<pdfrwt beam="2">0</pdfrwt>
<totfact> 0.11454294E+00</totfact>
</mgrwt>
</event>
<event>
 6    1  0.2475480E-003  0.6420776E+03  0.7818608E-02  0.9821760E-01
          3   -1    0    0  502    0  0.00000000000E+00  0.00000000000E+00  0.10306665609E+03  0.10306665609E+03  0.00000000000E+00 0.  1.
         13   -1    0    0    0    0 -0.00000000000E+00 -0.00000000000E+00 -0.10000000000E+04  0.10000000000E+04  0.00000000000E+00 0.  1.
    9000005    2    1    2  501    0 -0.16919283041E-05 -0.29886637407E-04 -0.89693407335E+03  0.11030659260E+04  0.64207764737E+03 0.  0.
         13    1    3    3    0    0 -0.14706809298E+03 -0.14313764474E+03 -0.24340451640E+02  0.20666365646E+03  0.00000000000E+00 0.  1.
          1    1    3    3  501    0  0.14706809129E+03  0.14313761485E+03 -0.87259362171E+03  0.89640226958E+03  0.00000000000E+00 0.  1.
         21    1    1    2  502  501  0.16919283048E-05  0.29886637413E-04  0.72943653677E-03  0.73005050160E-03  0.00000000000E+00 0.  1.
<mgrwt>
<rscale>  1 0.64207765E+03</rscale>
<asrwt>0</asrwt>
<pdfrwt beam="1">  1        3 0.37478863E+00 0.64207765E+03</pdfrwt>
<pdfrwt beam="2">0</pdfrwt>
<totfact> 0.80527642E-02</totfact>
</mgrwt>
</event>
<event>
 6    1  0.2475480E-003  0.5929634E+03  0.7818608E-02  0.9920113E-01
          1   -1    0    0  502    0  0.00000000000E+00  0.00000000000E+00  0.87914848326E+02  0.87914848326E+02  0.00000000000E+00 0.  1.
         13   -1    0    0    0    0 -0.00000000000E+00 -0.00000000000E+00 -0.10000000000E+04  0.10000000000E+04  0.00000000000E+00 0.  1.
    9000005    2    1    2  501    0 -0.19622015805E-03  0.22098256721E-04 -0.91209861083E+03  0.10879013877E+04  0.59296336610E+03 0.  0.
         13    1    3    3    0    0 -0.32560498143E+02 -0.17993857410E+03 -0.27881809949E+02  0.18497424636E+03  0.00000000000E+00 0.  1.
          3    1    3    3  501    0  0.32560301923E+02  0.17993859620E+03 -0.88421680088E+03  0.90292714137E+03  0.00000000000E+00 0.  1.
         21    1    1    2  502  501  0.19622015804E-03 -0.22098256723E-04  0.13459153926E-01  0.13460602330E-01  0.00000000000E+00 0. -1.
<mgrwt>
<rscale>  1 0.59296337E+03</rscale>
<asrwt>0</asrwt>
<pdfrwt beam="1">  1        1 0.31969103E+00 0.59296337E+03</pdfrwt>
<pdfrwt beam="2">0</pdfrwt>
<totfact> 0.30375735E+00</totfact>
</mgrwt>
</event>
<event>
 6    1  0.4092086E-003  0.6523435E+03  0.7818608E-02  0.9802392E-01
          1   -1    0    0  502    0  0.00000000000E+00  0.00000000000E+00  0.10638802988E+03  0.10638802988E+03  0.00000000000E+00 0.  1.
         13   -1    0    0    0    0 -0.00000000000E+00 -0.00000000000E+00 -0.10000000000E+04  0.10000000000E+04  0.00000000000E+00 0.  1.
    9000005    2    1    2  501    0  0.66140901822E-05  0.70506047223E-07 -0.89361197038E+03  0.11063880233E+04  0.65234354785E+03 0.  0.
         13    1    3    3    0    0  0.27884454611E+03 -0.11019276640E+03 -0.22900564697E+03  0.37728015189E+03  0.00000000000E+00 0.  1.
          1    1    3    3  501    0 -0.27884453950E+03  0.11019276648E+03 -0.66460632341E+03  0.72910787137E+03  0.00000000000E+00 0.  1.
         21    1    1    2  502  501 -0.66140901917E-05 -0.70506058884E-07  0.26077020424E-06  0.66196043136E-05  0.00000000000E+00 0. -1.
<mgrwt>
<rscale>  1 0.65234355E+03</rscale>
<asrwt>0</asrwt>
<pdfrwt beam="1">  1        1 0.38686638E+00 0.65234355E+03</pdfrwt>
<pdfrwt beam="2">0</pdfrwt>
<totfact> 0.15295539E+00</totfact>
</mgrwt>
</event>
<event>
 6    1  0.2475480E-003  0.6491677E+03  0.7818608E-02  0.9808342E-01
          1   -1    0    0  502    0  0.00000000000E+00  0.00000000000E+00  0.10954431116E+03  0.10954431116E+03  0.00000000000E+00 0.  1.
         13   -1    0    0    0    0 -0.00000000000E+00 -0.00000000000E+00 -0.10000000000E+04  0.10000000000E+04  0.00000000000E+00 0.  1.
    9000005    2    1    2  501    0 -0.29358964218E+00  0.17701516527E+00 -0.89463755596E+03  0.11053484153E+04  0.64916765569E+03 0.  0.
         13    1    3    3    0    0  0.34295350907E+02  0.30993003144E+03 -0.29354024887E+03  0.42825071300E+03  0.00000000000E+00 0.  1.
          3    1    3    3  501    0 -0.34588940549E+02 -0.30975301627E+03 -0.60109730709E+03  0.67709770232E+03  0.00000000000E+00 0.  1.
         21    1    1    2  502  501  0.29358964218E+00 -0.17701516527E+00  0.41818671198E+01  0.41958958345E+01  0.00000000000E+00 0.  1.
<mgrwt>
<rscale>  1 0.64916775E+03</rscale>
<asrwt>0</asrwt>
<pdfrwt beam="1">  1        1 0.39834379E+00 0.64916775E+03</pdfrwt>
<pdfrwt beam="2">0</pdfrwt>
<totfact> 0.13610131E+00</totfact>
</mgrwt>
</event>
<event>
 6    1  0.2475480E-003  0.6633459E+03  0.7818608E-02  0.9782054E-01
          1   -1    0    0  502    0  0.00000000000E+00  0.00000000000E+00  0.11054700936E+03  0.11054700936E+03  0.00000000000E+00 0.  1.
         13   -1    0    0    0    0 -0.00000000000E+00 -0.00000000000E+00 -0.10000000000E+04  0.10000000000E+04  0.00000000000E+00 0.  1.
    9000005    2    1    2  501    0  0.25625864297E+00 -0.22247360791E+00 -0.88993323601E+03  0.11099589629E+04  0.66334577685E+03 0.  0.
         13    1    3    3    0    0  0.52815120748E+02 -0.16526232686E+03  0.28075098419E+02  0.17575347738E+03  0.00000000000E+00 0.  1.
          1    1    3    3  501    0 -0.52558862105E+02  0.16503985326E+03 -0.91800833442E+03  0.93420548554E+03  0.00000000000E+00 0.  1.
         21    1    1    2  502  501 -0.25625864297E+00  0.22247360791E+00  0.48024536832E+00  0.58804643703E+00  0.00000000000E+00 0.  1.
<mgrwt>
<rscale>  1 0.66334586E+03</rscale>
<asrwt>0</asrwt>
<pdfrwt beam="1">  1        1 0.40198997E+00 0.66334586E+03</pdfrwt>
<pdfrwt beam="2">0</pdfrwt>
<totfact> 0.13075031E+00</totfact>
</mgrwt>
</event>
<event>
 6    1  0.2475480E-003  0.6485429E+03  0.7818608E-02  0.9809517E-01
          1   -1    0    0  502    0  0.00000000000E+00  0.00000000000E+00  0.12629287250E+03  0.12629287250E+03  0.00000000000E+00 0.  1.
         13   -1    0    0    0    0 -0.00000000000E+00 -0.00000000000E+00 -0.10000000000E+04  0.10000000000E+04  0.00000000000E+00 0.  1.
    9000005    2    1    2  501    0 -0.38354695893E+00  0.43901753665E+00 -0.89484358940E+03  0.11051483728E+04  0.64854262515E+03 0.  0.
         13    1    3    3    0    0  0.27620751959E+03 -0.13680950142E+03 -0.61728921994E+03  0.68996624164E+03  0.00000000000E+00 0.  1.
          3    1    3    3  501    0 -0.27659106655E+03  0.13724851895E+03 -0.27755436946E+03  0.41518213118E+03  0.00000000000E+00 0.  1.
         21    1    1    2  502  501  0.38354695893E+00 -0.43901753665E+00  0.21136461902E+02  0.21144499673E+02  0.00000000000E+00 0. -1.
<mgrwt>
<rscale>  1 0.64854289E+03</rscale>
<asrwt>0</asrwt>
<pdfrwt beam="1">  1        1 0.45924778E+00 0.64854289E+03</pdfrwt>
<pdfrwt beam="2">0</pdfrwt>
<totfact> 0.72024164E-01</totfact>
</mgrwt>
</event>
<event>
 6    1  0.2475480E-003  0.6440152E+03  0.7818608E-02  0.9818075E-01
          1   -1    0    0  502    0  0.00000000000E+00  0.00000000000E+00  0.10369713290E+03  0.10369713290E+03  0.00000000000E+00 0.  1.
         13   -1    0    0    0    0 -0.00000000000E+00 -0.00000000000E+00 -0.10000000000E+04  0.10000000000E+04  0.00000000000E+00 0.  1.
    9000005    2    1    2  501    0  0.30906692055E-04  0.11322302106E-03 -0.89631111652E+03  0.11036888826E+04  0.64401516446E+03 0.  0.
         13    1    3    3    0    0  0.49038551919E+01 -0.30933983883E+03 -0.60118653083E+03  0.67612160780E+03  0.00000000000E+00 0.  1.
          3    1    3    3  501    0 -0.49038242852E+01  0.30933995206E+03 -0.29512458570E+03  0.42756727484E+03  0.00000000000E+00 0.  1.
         21    1    1    2  502  501 -0.30906692055E-04 -0.11322302109E-03  0.82494212626E-02  0.82502561078E-02  0.00000000000E+00 0.  1.
<mgrwt>
<rscale>  1 0.64401516E+03</rscale>
<asrwt>0</asrwt>
<pdfrwt beam="1">  1        1 0.37708128E+00 0.64401516E+03</pdfrwt>
<pdfrwt beam="2">0</pdfrwt>
<totfact> 0.16921847E+00</totfact>
</mgrwt>
</event>
<event>
 6    1  0.2475480E-003  0.6522271E+03  0.7818608E-02  0.9802609E-01
          1   -1    0    0  502    0  0.00000000000E+00  0.00000000000E+00  0.10651245560E+03  0.10651245560E+03  0.00000000000E+00 0.  1.
         13   -1    0    0    0    0 -0.00000000000E+00 -0.00000000000E+00 -0.10000000000E+04  0.10000000000E+04  0.00000000000E+00 0.  1.
    9000005    2    1    2  501    0 -0.38525249676E-02  0.29403436542E-02 -0.89364992438E+03  0.11063500033E+04  0.65222706358E+03 0.  0.
         13    1    3    3    0    0  0.22409823663E+03  0.23630036647E+03 -0.41783960068E+03  0.52976203596E+03  0.00000000000E+00 0.  1.
          1    1    3    3  501    0 -0.22410208915E+03 -0.23629742612E+03 -0.47581032370E+03  0.57658796735E+03  0.00000000000E+00 0.  1.
         21    1    1    2  502  501  0.38525249676E-02 -0.29403436542E-02  0.16237998117E+00  0.16245228793E+00  0.00000000000E+00 0.  1.
<mgrwt>
<rscale>  1 0.65222706E+03</rscale>
<asrwt>0</asrwt>
<pdfrwt beam="1">  1        1 0.38731884E+00 0.65222706E+03</pdfrwt>
<pdfrwt beam="2">0</pdfrwt>
<totfact> 0.15225468E+00</totfact>
</mgrwt>
</event>
<event>
 6    1  0.2475480E-003  0.6374555E+03  0.7818608E-02  0.9830607E-01
          1   -1    0    0  502    0  0.00000000000E+00  0.00000000000E+00  0.10193814081E+03  0.10193814081E+03  0.00000000000E+00 0.  1.
         13   -1    0    0    0    0 -0.00000000000E+00 -0.00000000000E+00 -0.10000000000E+04  0.10000000000E+04  0.00000000000E+00 0.  1.
    9000005    2    1    2  501    0 -0.49251043597E-02  0.40320852502E-01 -0.89841133298E+03  0.11015863142E+04  0.63745547513E+03 0.  0.
         13    1    3    3    0    0  0.87322085025E+02  0.29937506144E+03 -0.56318690424E+03  0.64376242749E+03  0.00000000000E+00 0.  1.
          1    1    3    3  501    0 -0.87327010129E+02 -0.29933474059E+03 -0.33522442874E+03  0.45782388671E+03  0.00000000000E+00 0.  1.
         21    1    1    2  502  501  0.49251043597E-02 -0.40320852502E-01  0.34947379201E+00  0.35182660374E+00  0.00000000000E+00 0. -1.
<mgrwt>
<rscale>  1 0.63745548E+03</rscale>
<asrwt>0</asrwt>
<pdfrwt beam="1">  1        1 0.37068493E+00 0.63745548E+03</pdfrwt>
<pdfrwt beam="2">0</pdfrwt>
<totfact> 0.18076297E+00</totfact>
</mgrwt>
</event>
<event>
 6    1  0.2475480E-003  0.6861812E+03  0.7818608E-02  0.9741160E-01
          1   -1    0    0  502    0  0.00000000000E+00  0.00000000000E+00  0.11777905653E+03  0.11777905653E+03  0.00000000000E+00 0.  1.
         13   -1    0    0    0    0 -0.00000000000E+00 -0.00000000000E+00 -0.10000000000E+04  0.10000000000E+04  0.00000000000E+00 0.  1.
    9000005    2    1    2  501    0  0.17812285410E-02  0.13923457894E-02 -0.88228880653E+03  0.11177111558E+04  0.68618123679E+03 0.  0.
         13    1    3    3    0    0 -0.65984158303E+02  0.32875349142E+03 -0.32279835403E+03  0.46543693948E+03  0.00000000000E+00 0.  1.
          3    1    3    3  501    0  0.65985939532E+02 -0.32875209908E+03 -0.55949045250E+03  0.65227421634E+03  0.00000000000E+00 0.  1.
         21    1    1    2  502  501 -0.17812285410E-02 -0.13923457894E-02  0.67863055207E-01  0.67900704443E-01  0.00000000000E+00 0.  1.
<mgrwt>
<rscale>  1 0.68618124E+03</rscale>
<asrwt>0</asrwt>
<pdfrwt beam="1">  1        1 0.42828838E+00 0.68618124E+03</pdfrwt>
<pdfrwt beam="2">0</pdfrwt>
<totfact> 0.99128004E-01</totfact>
</mgrwt>
</event>
<event>
 6    1  0.2475480E-003  0.6466420E+03  0.7818608E-02  0.9813101E-01
          1   -1    0    0  502    0  0.00000000000E+00  0.00000000000E+00  0.10471379050E+03  0.10471379050E+03  0.00000000000E+00 0.  1.
         13   -1    0    0    0    0 -0.00000000000E+00 -0.00000000000E+00 -0.10000000000E+04  0.10000000000E+04  0.00000000000E+00 0.  1.
    9000005    2    1    2  501    0  0.13727093918E+00  0.13000100524E+00 -0.89540612762E+03  0.11044899068E+04  0.64664192952E+03 0.  0.
         13    1    3    3    0    0  0.20674841638E+03 -0.21898759726E+03 -0.64861265845E+03  0.71512156738E+03  0.00000000000E+00 0.  1.
          1    1    3    3  501    0 -0.20661114544E+03  0.21911759827E+03 -0.24679346917E+03  0.38936833939E+03  0.00000000000E+00 0.  1.
         21    1    1    2  502  501 -0.13727093918E+00 -0.13000100524E+00  0.11991812090E+00  0.22388373730E+00  0.00000000000E+00 0. -1.
<mgrwt>
<rscale>  1 0.64664196E+03</rscale>
<asrwt>0</asrwt>
<pdfrwt beam="1">  1        1 0.38077822E+00 0.64664196E+03</pdfrwt>
<pdfrwt beam="2">0</pdfrwt>
<totfact> 0.16290521E+00</totfact>
</mgrwt>
</event>
<event>
 6    1  0.2475480E-003  0.5972222E+03  0.7818608E-02  0.9911186E-01
          1   -1    0    0  502    0  0.00000000000E+00  0.00000000000E+00  0.89173058135E+02  0.89173058135E+02  0.00000000000E+00 0.  1.
         13   -1    0    0    0    0 -0.00000000000E+00 -0.00000000000E+00 -0.10000000000E+04  0.10000000000E+04  0.00000000000E+00 0.  1.
    9000005    2    1    2  501    0  0.37781988524E-03  0.64439071158E-02 -0.91082873458E+03  0.10891663588E+04  0.59722221446E+03 0.  0.
         13    1    3    3    0    0 -0.17535040821E+03  0.52982167281E+02 -0.88549611606E+03  0.90424457270E+03  0.00000000000E+00 0.  1.
          1    1    3    3  501    0  0.17535078603E+03 -0.52975723374E+02 -0.25332618527E+02  0.18492178614E+03  0.00000000000E+00 0.  1.
         21    1    1    2  502  501 -0.37781988526E-03 -0.64439071158E-02  0.17927189733E-02  0.66992931044E-02  0.00000000000E+00 0. -1.
<mgrwt>
<rscale>  1 0.59722221E+03</rscale>
<asrwt>0</asrwt>
<pdfrwt beam="1">  1        1 0.32426635E+00 0.59722221E+03</pdfrwt>
<pdfrwt beam="2">0</pdfrwt>
<totfact> 0.29000706E+00</totfact>
</mgrwt>
</event>
<event>
 6    1  0.2475480E-003  0.6418384E+03  0.7818608E-02  0.9822215E-01
          1   -1    0    0  502    0  0.00000000000E+00  0.00000000000E+00  0.10475313026E+03  0.10475313026E+03  0.00000000000E+00 0.  1.
         13   -1    0    0    0    0 -0.00000000000E+00 -0.00000000000E+00 -0.10000000000E+04  0.10000000000E+04  0.00000000000E+00 0.  1.
    9000005    2    1    2  501    0  0.48387390763E+00 -0.15980562612E+01 -0.89656447420E+03  0.11026261608E+04  0.64183627667E+03 0.  0.
         13    1    3    3    0    0 -0.31245014995E+03 -0.28598292682E+02 -0.33358752963E+03  0.45795589140E+03  0.00000000000E+00 0.  1.
          1    1    3    3  501    0  0.31293402386E+03  0.27000236421E+02 -0.56297694458E+03  0.64467026935E+03  0.00000000000E+00 0.  1.
         21    1    1    2  502  501 -0.48387390763E+00  0.15980562612E+01  0.13176044600E+01  0.21269695074E+01  0.00000000000E+00 0.  1.
<mgrwt>
<rscale>  1 0.64183845E+03</rscale>
<asrwt>0</asrwt>
<pdfrwt beam="1">  1        1 0.38092128E+00 0.64183845E+03</pdfrwt>
<pdfrwt beam="2">0</pdfrwt>
<totfact> 0.16281288E+00</totfact>
</mgrwt>
</event>
<event>
 6    1  0.2475480E-003  0.6093475E+03  0.7818608E-02  0.9886201E-01
          1   -1    0    0  502    0  0.00000000000E+00  0.00000000000E+00  0.92826401016E+02  0.92826401016E+02  0.00000000000E+00 0.  1.
         13   -1    0    0    0    0 -0.00000000000E+00 -0.00000000000E+00 -0.10000000000E+04  0.10000000000E+04  0.00000000000E+00 0.  1.
    9000005    2    1    2  501    0 -0.47864215162E-04  0.33829558134E-04 -0.90717390264E+03  0.10928260918E+04  0.60934750118E+03 0.  0.
         13    1    3    3    0    0  0.14096198974E+03  0.10959380779E+03 -0.89633338917E+03  0.91394454416E+03  0.00000000000E+00 0.  1.
          1    1    3    3  501    0 -0.14096203761E+03 -0.10959377396E+03 -0.10840513466E+02  0.17888154760E+03  0.00000000000E+00 0.  1.
         21    1    1    2  502  501  0.47864215150E-04 -0.33829558133E-04  0.30365444222E-03  0.30925950652E-03  0.00000000000E+00 0.  1.
<mgrwt>
<rscale>  1 0.60934750E+03</rscale>
<asrwt>0</asrwt>
<pdfrwt beam="1">  1        1 0.33755126E+00 0.60934750E+03</pdfrwt>
<pdfrwt beam="2">0</pdfrwt>
<totfact> 0.25346534E+00</totfact>
</mgrwt>
</event>
<event>
 6    1  0.2475480E-003  0.6097498E+03  0.7818608E-02  0.9885382E-01
          1   -1    0    0  502    0  0.00000000000E+00  0.00000000000E+00  0.95018115980E+02  0.95018115980E+02  0.00000000000E+00 0.  1.
         13   -1    0    0    0    0 -0.00000000000E+00 -0.00000000000E+00 -0.10000000000E+04  0.10000000000E+04  0.00000000000E+00 0.  1.
    9000005    2    1    2  501    0 -0.34188569116E-01  0.62250977229E-01 -0.90705062639E+03  0.10929481549E+04  0.60974980552E+03 0.  0.
         13    1    3    3    0    0 -0.20326874725E+03 -0.13917658433E+03 -0.13158388143E+03  0.27928949692E+03  0.00000000000E+00 0.  1.
          1    1    3    3  501    0  0.20323455868E+03  0.13923883531E+03 -0.77546674496E+03  0.81365865794E+03  0.00000000000E+00 0.  1.
         21    1    1    2  502  501  0.34188569116E-01 -0.62250977229E-01  0.20687423710E+01  0.20699611204E+01  0.00000000000E+00 0. -1.
<mgrwt>
<rscale>  1 0.60974981E+03</rscale>
<asrwt>0</asrwt>
<pdfrwt beam="1">  1        1 0.34552115E+00 0.60974981E+03</pdfrwt>
<pdfrwt beam="2">0</pdfrwt>
<totfact> 0.23402329E+00</totfact>
</mgrwt>
</event>
<event>
 6    1  0.2475480E-003  0.6507537E+03  0.7818608E-02  0.9805366E-01
          1   -1    0    0  502    0  0.00000000000E+00  0.00000000000E+00  0.10855257947E+03  0.10855257947E+03  0.00000000000E+00 0.  1.
         13   -1    0    0    0    0 -0.00000000000E+00 -0.00000000000E+00 -0.10000000000E+04  0.10000000000E+04  0.00000000000E+00 0.  1.
    9000005    2    1    2  501    0  0.42312815041E-01 -0.12762665920E+00 -0.89412803759E+03  0.11058685924E+04  0.65075369988E+03 0.  0.
         13    1    3    3    0    0 -0.27304029620E+03  0.42232004572E+02 -0.73899589493E+03  0.78895467442E+03  0.00000000000E+00 0.  1.
          1    1    3    3  501    0  0.27308260902E+03 -0.42359631231E+02 -0.15513214266E+03  0.31691391795E+03  0.00000000000E+00 0.  1.
         21    1    1    2  502  501 -0.42312815041E-01  0.12762665920E+00  0.26806170539E+01  0.26839870954E+01  0.00000000000E+00 0. -1.
<mgrwt>
<rscale>  1 0.65075371E+03</rscale>
<asrwt>0</asrwt>
<pdfrwt beam="1">  1        1 0.39473748E+00 0.65075371E+03</pdfrwt>
<pdfrwt beam="2">0</pdfrwt>
<totfact> 0.14118109E+00</totfact>
</mgrwt>
</event>
<event>
 6    1  0.2475480E-003  0.6517832E+03  0.7818608E-02  0.9803439E-01
          1   -1    0    0  502    0  0.00000000000E+00  0.00000000000E+00  0.10620535757E+03  0.10620535757E+03  0.00000000000E+00 0.  1.
         13   -1    0    0    0    0 -0.00000000000E+00 -0.00000000000E+00 -0.10000000000E+04  0.10000000000E+04  0.00000000000E+00 0.  1.
    9000005    2    1    2  501    0 -0.19405782012E-04  0.64334224703E-06 -0.89379467010E+03  0.11062053238E+04  0.65178317410E+03 0.  0.
         13    1    3    3    0    0 -0.15724738906E+03 -0.24937298316E+03 -0.68262898589E+03  0.74356974015E+03  0.00000000000E+00 0.  1.
          3    1    3    3  501    0  0.15724736965E+03  0.24937298381E+03 -0.21116568421E+03  0.36263558361E+03  0.00000000000E+00 0.  1.
         21    1    1    2  502  501  0.19405782005E-04 -0.64334222810E-06  0.27667228716E-04  0.33800500134E-04  0.00000000000E+00 0. -1.
<mgrwt>
<rscale>  1 0.65178317E+03</rscale>
<asrwt>0</asrwt>
<pdfrwt beam="1">  1        1 0.38620211E+00 0.65178317E+03</pdfrwt>
<pdfrwt beam="2">0</pdfrwt>
<totfact> 0.15401049E+00</totfact>
</mgrwt>
</event>
<event>
 6    1  0.2475480E-003  0.6415872E+03  0.7818608E-02  0.9822695E-01
          1   -1    0    0  502    0  0.00000000000E+00  0.00000000000E+00  0.10330828218E+03  0.10330828218E+03  0.00000000000E+00 0.  1.
         13   -1    0    0    0    0 -0.00000000000E+00 -0.00000000000E+00 -0.10000000000E+04  0.10000000000E+04  0.00000000000E+00 0.  1.
    9000005    2    1    2  501    0 -0.39492497299E-01  0.59857947214E-02 -0.89709037079E+03  0.11029076331E+04  0.64158718208E+03 0.  0.
         13    1    3    3    0    0  0.28595317106E+03  0.13682419574E+03 -0.53287713017E+03  0.62003879914E+03  0.00000000000E+00 0.  1.
          1    1    3    3  501    0 -0.28599266355E+03 -0.13681820994E+03 -0.36421324062E+03  0.48286883397E+03  0.00000000000E+00 0.  1.
         21    1    1    2  502  501  0.39492497299E-01 -0.59857947214E-02  0.39865296828E+00  0.40064906864E+00  0.00000000000E+00 0. -1.
<mgrwt>
<rscale>  1 0.64158718E+03</rscale>
<asrwt>0</asrwt>
<pdfrwt beam="1">  1        1 0.37566727E+00 0.64158718E+03</pdfrwt>
<pdfrwt beam="2">0</pdfrwt>
<totfact> 0.17173905E+00</totfact>
</mgrwt>
</event>
<event>
 6    1  0.2475480E-003  0.6430545E+03  0.7818608E-02  0.9819900E-01
          1   -1    0    0  502    0  0.00000000000E+00  0.00000000000E+00  0.10339334990E+03  0.10339334990E+03  0.00000000000E+00 0.  1.
         13   -1    0    0    0    0 -0.00000000000E+00 -0.00000000000E+00 -0.10000000000E+04  0.10000000000E+04  0.00000000000E+00 0.  1.
    9000005    2    1    2  501    0  0.23894092220E-02 -0.25447976097E-03 -0.89662010465E+03  0.11033796825E+04  0.64305451682E+03 0.  0.
         13    1    3    3    0    0  0.23893558643E+03 -0.14933634364E+03 -0.71406653665E+03  0.76764742998E+03  0.00000000000E+00 0.  1.
          1    1    3    3  501    0 -0.23893319702E+03  0.14933608916E+03 -0.18255356800E+03  0.33573225248E+03  0.00000000000E+00 0.  1.
         21    1    1    2  502  501 -0.23894092220E-02  0.25447976099E-03  0.13454549508E-01  0.13667440830E-01  0.00000000000E+00 0. -1.
<mgrwt>
<rscale>  1 0.64305452E+03</rscale>
<asrwt>0</asrwt>
<pdfrwt beam="1">  1        1 0.37597661E+00 0.64305452E+03</pdfrwt>
<pdfrwt beam="2">0</pdfrwt>
<totfact> 0.17115523E+00</totfact>
</mgrwt>
</event>
<event>
 6    1  0.2475480E-003  0.5900891E+03  0.7818608E-02  0.9926184E-01
          1   -1    0    0  502    0  0.00000000000E+00  0.00000000000E+00  0.87164243375E+02  0.87164243375E+02  0.00000000000E+00 0.  1.
         13   -1    0    0    0    0 -0.00000000000E+00 -0.00000000000E+00 -0.10000000000E+04  0.10000000000E+04  0.00000000000E+00 0.  1.
    9000005    2    1    2  501    0 -0.18801253792E-01 -0.26840221164E-01 -0.91294613079E+03  0.10870491072E+04  0.59008908027E+03 0.  0.
         13    1    3    3    0    0  0.14883568777E+03  0.25226348940E+03 -0.39124472361E+03  0.48873445120E+03  0.00000000000E+00 0.  1.
          1    1    3    3  501    0 -0.14885448902E+03 -0.25229032962E+03 -0.52170140718E+03  0.59831465599E+03  0.00000000000E+00 0.  1.
         21    1    1    2  502  501  0.18801253792E-01  0.26840221164E-01  0.11037416214E+00  0.11513618147E+00  0.00000000000E+00 0.  1.
<mgrwt>
<rscale>  1 0.59008908E+03</rscale>
<asrwt>0</asrwt>
<pdfrwt beam="1">  1        1 0.31696155E+00 0.59008908E+03</pdfrwt>
<pdfrwt beam="2">0</pdfrwt>
<totfact> 0.31228285E+00</totfact>
</mgrwt>
</event>
<event>
 6    1  0.2475480E-003  0.6482470E+03  0.7818608E-02  0.9810074E-01
          1   -1    0    0  502    0  0.00000000000E+00  0.00000000000E+00  0.10545484057E+03  0.10545484057E+03  0.00000000000E+00 0.  1.
         13   -1    0    0    0    0 -0.00000000000E+00 -0.00000000000E+00 -0.10000000000E+04  0.10000000000E+04  0.00000000000E+00 0.  1.
    9000005    2    1    2  501    0  0.16235438839E-01 -0.80775171006E+00 -0.89442832469E+03  0.11046385215E+04  0.64824654455E+03 0.  0.
         13    1    3    3    0    0 -0.22141640846E+03 -0.65755757719E+02 -0.59650042328E+02  0.23855224409E+03  0.00000000000E+00 0.  1.
          3    1    3    3  501    0  0.22143264390E+03  0.64948006009E+02 -0.83477828237E+03  0.86608627745E+03  0.00000000000E+00 0.  1.
         21    1    1    2  502  501 -0.16235438839E-01  0.80775171006E+00 -0.11683473534E+00  0.81631903687E+00  0.00000000000E+00 0. -1.
<mgrwt>
<rscale>  1 0.64824705E+03</rscale>
<asrwt>0</asrwt>
<pdfrwt beam="1">  1        1 0.38347296E+00 0.64824705E+03</pdfrwt>
<pdfrwt beam="2">0</pdfrwt>
<totfact> 0.15845448E+00</totfact>
</mgrwt>
</event>
<event>
 6    1  0.2475480E-003  0.6458470E+03  0.7818608E-02  0.9814603E-01
          1   -1    0    0  502    0  0.00000000000E+00  0.00000000000E+00  0.10430502842E+03  0.10430502842E+03  0.00000000000E+00 0.  1.
         13   -1    0    0    0    0 -0.00000000000E+00 -0.00000000000E+00 -0.10000000000E+04  0.10000000000E+04  0.00000000000E+00 0.  1.
    9000005    2    1    2  501    0 -0.19667579121E-01  0.76263906607E-01 -0.89558044994E+03  0.11041660385E+04  0.64584695713E+03 0.  0.
         13    1    3    3    0    0 -0.24304424479E+03  0.35158027037E+02 -0.89268763961E+02  0.26129581706E+03  0.00000000000E+00 0.  1.
          3    1    3    3  501    0  0.24302457721E+03 -0.35081763130E+02 -0.80631168598E+03  0.84287022143E+03  0.00000000000E+00 0.  1.
         21    1    1    2  502  501  0.19667579121E-01 -0.76263906607E-01 -0.11452163894E+00  0.13898993814E+00  0.00000000000E+00 0. -1.
<mgrwt>
<rscale>  1 0.64584696E+03</rscale>
<asrwt>0</asrwt>
<pdfrwt beam="1">  1        1 0.37929181E+00 0.64584696E+03</pdfrwt>
<pdfrwt beam="2">0</pdfrwt>
<totfact> 0.16540816E+00</totfact>
</mgrwt>
</event>
<event>
 6    1  0.2475480E-003  0.6522865E+03  0.7818608E-02  0.9802498E-01
          1   -1    0    0  502    0  0.00000000000E+00  0.00000000000E+00  0.10686549893E+03  0.10686549893E+03  0.00000000000E+00 0.  1.
         13   -1    0    0    0    0 -0.00000000000E+00 -0.00000000000E+00 -0.10000000000E+04  0.10000000000E+04  0.00000000000E+00 0.  1.
    9000005    2    1    2  501    0 -0.36973497184E-02  0.25149428312E+00 -0.89359505107E+03  0.11063407425E+04  0.65228648606E+03 0.  0.
         13    1    3    3    0    0  0.21020706663E+03 -0.14410151686E+02 -0.24564703899E+02  0.21212752771E+03  0.00000000000E+00 0.  1.
          3    1    3    3  501    0 -0.21021076398E+03  0.14661645970E+02 -0.86903034717E+03  0.89421321476E+03  0.00000000000E+00 0.  1.
         21    1    1    2  502  501  0.36973497184E-02 -0.25149428312E+00  0.46054999896E+00  0.52475646388E+00  0.00000000000E+00 0.  1.
<mgrwt>
<rscale>  1 0.65228653E+03</rscale>
<asrwt>0</asrwt>
<pdfrwt beam="1">  1        1 0.38860263E+00 0.65228653E+03</pdfrwt>
<pdfrwt beam="2">0</pdfrwt>
<totfact> 0.15027225E+00</totfact>
</mgrwt>
</event>
<event>
 6    1  0.2475480E-003  0.6532387E+03  0.7818608E-02  0.9800721E-01
          1   -1    0    0  502    0  0.00000000000E+00  0.00000000000E+00  0.10690451079E+03  0.10690451079E+03  0.00000000000E+00 0.  1.
         13   -1    0    0    0    0 -0.00000000000E+00 -0.00000000000E+00 -0.10000000000E+04  0.10000000000E+04  0.00000000000E+00 0.  1.
    9000005    2    1    2  501    0 -0.18945218148E+00  0.30530176676E-01 -0.89327345632E+03  0.11066427924E+04  0.65323867415E+03 0.  0.
         13    1    3    3    0    0 -0.20074347206E+03  0.55586306304E+01 -0.10215495861E+02  0.20108007436E+03  0.00000000000E+00 0.  1.
          1    1    3    3  501    0  0.20055401988E+03 -0.55281004537E+01 -0.88305796046E+03  0.90556271804E+03  0.00000000000E+00 0.  1.
         21    1    1    2  502  501  0.18945218148E+00 -0.30530176676E-01  0.17796711002E+00  0.26171838492E+00  0.00000000000E+00 0. -1.
<mgrwt>
<rscale>  1 0.65323870E+03</rscale>
<asrwt>0</asrwt>
<pdfrwt beam="1">  1        1 0.38874450E+00 0.65323870E+03</pdfrwt>
<pdfrwt beam="2">0</pdfrwt>
<totfact> 0.15002839E+00</totfact>
</mgrwt>
</event>
<event>
 6    1  0.2475480E-003  0.6605741E+03  0.7818608E-02  0.9787137E-01
          1   -1    0    0  502    0  0.00000000000E+00  0.00000000000E+00  0.10917061012E+03  0.10917061012E+03  0.00000000000E+00 0.  1.
         13   -1    0    0    0    0 -0.00000000000E+00 -0.00000000000E+00 -0.10000000000E+04  0.10000000000E+04  0.00000000000E+00 0.  1.
    9000005    2    1    2  501    0  0.14767139494E-01 -0.16760349084E-03 -0.89090971564E+03  0.11090889381E+04  0.66057410704E+03 0.  0.
         13    1    3    3    0    0  0.48187576845E+02 -0.24611862415E+03 -0.80631494899E+03  0.84441708692E+03  0.00000000000E+00 0.  1.
          3    1    3    3  501    0 -0.48172809706E+02  0.24611845654E+03 -0.84594766654E+02  0.26467185115E+03  0.00000000000E+00 0.  1.
         21    1    1    2  502  501 -0.14767139494E-01  0.16760349086E-03  0.80325759348E-01  0.81672052225E-01  0.00000000000E+00 0. -1.
<mgrwt>
<rscale>  1 0.66057411E+03</rscale>
<asrwt>0</asrwt>
<pdfrwt beam="1">  1        1 0.39698487E+00 0.66057411E+03</pdfrwt>
<pdfrwt beam="2">0</pdfrwt>
<totfact> 0.13771474E+00</totfact>
</mgrwt>
</event>
<event>
 6    1  0.2475480E-003  0.6476286E+03  0.7818608E-02  0.9811239E-01
          1   -1    0    0  502    0  0.00000000000E+00  0.00000000000E+00  0.10485713852E+03  0.10485713852E+03  0.00000000000E+00 0.  1.
         13   -1    0    0    0    0 -0.00000000000E+00 -0.00000000000E+00 -0.10000000000E+04  0.10000000000E+04  0.00000000000E+00 0.  1.
    9000005    2    1    2  501    0 -0.37379110671E-03  0.25608493780E-03 -0.89514427445E+03  0.11048556547E+04  0.64762855525E+03 0.  0.
         13    1    3    3    0    0 -0.32473135582E+02  0.43949017778E+01 -0.99716406135E+03  0.99770235288E+03  0.00000000000E+00 0.  1.
          1    1    3    3  501    0  0.32472761791E+02 -0.43946456929E+01  0.10201978689E+03  0.10715330180E+03  0.00000000000E+00 0.  1.
         21    1    1    2  502  501  0.37379110671E-03 -0.25608493780E-03  0.14129703523E-02  0.14838411314E-02  0.00000000000E+00 0.  1.
<mgrwt>
<rscale>  1 0.64762856E+03</rscale>
<asrwt>0</asrwt>
<pdfrwt beam="1">  1        1 0.38129949E+00 0.64762856E+03</pdfrwt>
<pdfrwt beam="2">0</pdfrwt>
<totfact> 0.16201493E+00</totfact>
</mgrwt>
</event>
<event>
 6    1  0.2475480E-003  0.6747307E+03  0.7818608E-02  0.9761449E-01
          1   -1    0    0  502    0  0.00000000000E+00  0.00000000000E+00  0.13418758919E+03  0.13418758919E+03  0.00000000000E+00 0.  1.
         13   -1    0    0    0    0 -0.00000000000E+00 -0.00000000000E+00 -0.10000000000E+04  0.10000000000E+04  0.00000000000E+00 0.  1.
    9000005    2    1    2  501    0 -0.31220158702E+00  0.26438062029E+00 -0.88618234600E+03  0.11138135462E+04  0.67473053734E+03 0.  0.
         13    1    3    3    0    0 -0.22817870420E+03 -0.24848956302E+03 -0.43836305027E+03  0.55314984210E+03  0.00000000000E+00 0.  1.
          1    1    3    3  501    0  0.22786650261E+03  0.24875394364E+03 -0.44781929574E+03  0.56066370412E+03  0.00000000000E+00 0.  1.
         21    1    1    2  502  501  0.31220158702E+00 -0.26438062029E+00  0.20369935192E+02  0.20374042963E+02  0.00000000000E+00 0.  1.
<mgrwt>
<rscale>  1 0.67473066E+03</rscale>
<asrwt>0</asrwt>
<pdfrwt beam="1">  1        1 0.48795590E+00 0.67473066E+03</pdfrwt>
<pdfrwt beam="2">0</pdfrwt>
<totfact> 0.52507668E-01</totfact>
</mgrwt>
</event>
<event>
 6    1  0.2475480E-003  0.6525837E+03  0.7818608E-02  0.9801943E-01
          1   -1    0    0  502    0  0.00000000000E+00  0.00000000000E+00  0.10646649566E+03  0.10646649566E+03  0.00000000000E+00 0.  1.
         13   -1    0    0    0    0 -0.00000000000E+00 -0.00000000000E+00 -0.10000000000E+04  0.10000000000E+04  0.00000000000E+00 0.  1.
    9000005    2    1    2  501    0  0.95850995109E-04 -0.26910621273E-04 -0.89353362131E+03  0.11064663421E+04  0.65258366031E+03 0.  0.
         13    1    3    3    0    0 -0.14340207181E+03 -0.28875765740E+03 -0.53190154084E+03  0.62198423457E+03  0.00000000000E+00 0.  1.
          3    1    3    3  501    0  0.14340216766E+03  0.28875763049E+03 -0.36163208047E+03  0.48448210749E+03  0.00000000000E+00 0.  1.
         21    1    1    2  502  501 -0.95850995122E-04  0.26910621292E-04  0.11696726341E-03  0.15359992029E-03  0.00000000000E+00 0.  1.
<mgrwt>
<rscale>  1 0.65258366E+03</rscale>
<asrwt>0</asrwt>
<pdfrwt beam="1">  1        1 0.38715171E+00 0.65258366E+03</pdfrwt>
<pdfrwt beam="2">0</pdfrwt>
<totfact> 0.15250431E+00</totfact>
</mgrwt>
</event>
<event>
 6    1  0.2475480E-003  0.6456344E+03  0.7818608E-02  0.9815006E-01
          1   -1    0    0  502    0  0.00000000000E+00  0.00000000000E+00  0.10421122682E+03  0.10421122682E+03  0.00000000000E+00 0.  1.
         13   -1    0    0    0    0 -0.00000000000E+00 -0.00000000000E+00 -0.10000000000E+04  0.10000000000E+04  0.00000000000E+00 0.  1.
    9000005    2    1    2  501    0 -0.37500674512E-03 -0.21187635838E-04 -0.89578889734E+03  0.11042108312E+04  0.64563442536E+03 0.  0.
         13    1    3    3    0    0 -0.14214996612E+03 -0.17899411031E+03 -0.58021802889E+02  0.23582203884E+03  0.00000000000E+00 0.  1.
          1    1    3    3  501    0  0.14214959111E+03  0.17899408913E+03 -0.83776709445E+03  0.86838879238E+03  0.00000000000E+00 0.  1.
         21    1    1    2  502  501  0.37500674513E-03  0.21187635838E-04  0.12415839872E-03  0.39559358283E-03  0.00000000000E+00 0.  1.
<mgrwt>
<rscale>  1 0.64563443E+03</rscale>
<asrwt>0</asrwt>
<pdfrwt beam="1">  1        1 0.37895071E+00 0.64563443E+03</pdfrwt>
<pdfrwt beam="2">0</pdfrwt>
<totfact> 0.16598859E+00</totfact>
</mgrwt>
</event>
<event>
 6    1  0.2475480E-003  0.6502604E+03  0.7818608E-02  0.9806291E-01
          1   -1    0    0  502    0  0.00000000000E+00  0.00000000000E+00  0.10573187677E+03  0.10573187677E+03  0.00000000000E+00 0.  1.
         13   -1    0    0    0    0 -0.00000000000E+00 -0.00000000000E+00 -0.10000000000E+04  0.10000000000E+04  0.00000000000E+00 0.  1.
    9000005    2    1    2  501    0  0.12160867817E-02 -0.60233445015E-03 -0.89429031778E+03  0.11057096408E+04  0.65026043800E+03 0.  0.
         13    1    3    3    0    0 -0.28349948512E+03 -0.15295381104E+03 -0.37219952272E+03  0.49223907920E+03  0.00000000000E+00 0.  1.
          3    1    3    3  501    0  0.28350070121E+03  0.15295320871E+03 -0.52209079506E+03  0.61347056158E+03  0.00000000000E+00 0.  1.
         21    1    1    2  502  501 -0.12160867817E-02  0.60233445016E-03  0.22194543494E-01  0.22235994126E-01  0.00000000000E+00 0.  1.
<mgrwt>
<rscale>  1 0.65026044E+03</rscale>
<asrwt>0</asrwt>
<pdfrwt beam="1">  1        1 0.38448036E+00 0.65026044E+03</pdfrwt>
<pdfrwt beam="2">0</pdfrwt>
<totfact> 0.15677959E+00</totfact>
</mgrwt>
</event>
<event>
 6    1  0.2475480E-003  0.6378031E+03  0.7818608E-02  0.9829939E-01
          1   -1    0    0  502    0  0.00000000000E+00  0.00000000000E+00  0.10173150920E+03  0.10173150920E+03  0.00000000000E+00 0.  1.
         13   -1    0    0    0    0 -0.00000000000E+00 -0.00000000000E+00 -0.10000000000E+04  0.10000000000E+04  0.00000000000E+00 0.  1.
    9000005    2    1    2  501    0  0.15150513583E-02 -0.31468011440E-02 -0.89830168539E+03  0.11016981314E+04  0.63780314731E+03 0.  0.
         13    1    3    3    0    0 -0.36167890396E+02  0.17974667007E+03 -0.89984959809E+03  0.91833887040E+03  0.00000000000E+00 0.  1.
          1    1    3    3  501    0  0.36169405447E+02 -0.17974981687E+03  0.15479127080E+01  0.18335926099E+03  0.00000000000E+00 0.  1.
         21    1    1    2  502  501 -0.15150513583E-02  0.31468011440E-02  0.33194582579E-01  0.33377807757E-01  0.00000000000E+00 0.  1.
<mgrwt>
<rscale>  1 0.63780315E+03</rscale>
<asrwt>0</asrwt>
<pdfrwt beam="1">  1        1 0.36993354E+00 0.63780315E+03</pdfrwt>
<pdfrwt beam="2">0</pdfrwt>
<totfact> 0.18213035E+00</totfact>
</mgrwt>
</event>
<event>
 6    1  0.2475480E-003  0.6510446E+03  0.7818608E-02  0.9804821E-01
          1   -1    0    0  502    0  0.00000000000E+00  0.00000000000E+00  0.10596488303E+03  0.10596488303E+03  0.00000000000E+00 0.  1.
         13   -1    0    0    0    0 -0.00000000000E+00 -0.00000000000E+00 -0.10000000000E+04  0.10000000000E+04  0.00000000000E+00 0.  1.
    9000005    2    1    2  501    0  0.46012610554E-04  0.37580456080E-05 -0.89403523755E+03  0.11059647539E+04  0.65104456907E+03 0.  0.
         13    1    3    3    0    0 -0.21860745065E+02  0.93460143933E+02 -0.97541504034E+03  0.98012611005E+03  0.00000000000E+00 0.  1.
          3    1    3    3  501    0  0.21860791078E+02 -0.93460140175E+02  0.81379802788E+02  0.12583864387E+03  0.00000000000E+00 0.  1.
         21    1    1    2  502  501 -0.46012610553E-04 -0.37580456054E-05  0.12057992580E-03  0.12911545896E-03  0.00000000000E+00 0.  1.
<mgrwt>
<rscale>  1 0.65104457E+03</rscale>
<asrwt>0</asrwt>
<pdfrwt beam="1">  1        1 0.38532766E+00 0.65104457E+03</pdfrwt>
<pdfrwt beam="2">0</pdfrwt>
<totfact> 0.15541003E+00</totfact>
</mgrwt>
</event>
<event>
 6    1  0.2475480E-003  0.6459050E+03  0.7818608E-02  0.9814494E-01
          1   -1    0    0  502    0  0.00000000000E+00  0.00000000000E+00  0.10430224310E+03  0.10430224310E+03  0.00000000000E+00 0.  1.
         13   -1    0    0    0    0 -0.00000000000E+00 -0.00000000000E+00 -0.10000000000E+04  0.10000000000E+04  0.00000000000E+00 0.  1.
    9000005    2    1    2  501    0  0.25186116383E-03 -0.58107683029E-03 -0.89570165847E+03  0.11042982905E+04  0.64590498785E+03 0.  0.
         13    1    3    3    0    0  0.24174445830E+03  0.20436361157E+03 -0.33846535919E+03  0.46342601160E+03  0.00000000000E+00 0.  1.
          1    1    3    3  501    0 -0.24174420644E+03 -0.20436419265E+03 -0.55723629928E+03  0.64087227887E+03  0.00000000000E+00 0.  1.
         21    1    1    2  502  501 -0.25186116385E-03  0.58107683030E-03  0.39015731480E-02  0.39526392902E-02  0.00000000000E+00 0.  1.
<mgrwt>
<rscale>  1 0.64590499E+03</rscale>
<asrwt>0</asrwt>
<pdfrwt beam="1">  1        1 0.37928168E+00 0.64590499E+03</pdfrwt>
<pdfrwt beam="2">0</pdfrwt>
<totfact> 0.16542341E+00</totfact>
</mgrwt>
</event>
<event>
 6    1  0.2475480E-003  0.6633571E+03  0.7818608E-02  0.9782033E-01
          1   -1    0    0  502    0  0.00000000000E+00  0.00000000000E+00  0.11002117099E+03  0.11002117099E+03  0.00000000000E+00 0.  1.
         13   -1    0    0    0    0 -0.00000000000E+00 -0.00000000000E+00 -0.10000000000E+04  0.10000000000E+04  0.00000000000E+00 0.  1.
    9000005    2    1    2  501    0  0.25165943806E-03 -0.20545778540E-03 -0.88998932935E+03  0.11100106656E+04  0.66335712210E+03 0.  0.
         13    1    3    3    0    0  0.71403969752E+02  0.36878652586E+01  0.96961906329E+02  0.12047297840E+03  0.00000000000E+00 0.  1.
          1    1    3    3  501    0 -0.71403718093E+02 -0.36880707164E+01 -0.98695123568E+03  0.98953768722E+03  0.00000000000E+00 0.  1.
         21    1    1    2  502  501 -0.25165943807E-03  0.20545778540E-03  0.10500339003E-01  0.10505363609E-01  0.00000000000E+00 0. -1.
<mgrwt>
<rscale>  1 0.66335712E+03</rscale>
<asrwt>0</asrwt>
<pdfrwt beam="1">  1        1 0.40007783E+00 0.66335712E+03</pdfrwt>
<pdfrwt beam="2">0</pdfrwt>
<totfact> 0.13334404E+00</totfact>
</mgrwt>
</event>
<event>
 6    1  0.2475480E-003  0.6830415E+03  0.7818608E-02  0.9746681E-01
          1   -1    0    0  502    0  0.00000000000E+00  0.00000000000E+00  0.11663676123E+03  0.11663676123E+03  0.00000000000E+00 0.  1.
         13   -1    0    0    0    0 -0.00000000000E+00 -0.00000000000E+00 -0.10000000000E+04  0.10000000000E+04  0.00000000000E+00 0.  1.
    9000005    2    1    2  501    0 -0.85781930380E-04 -0.14985591065E-04 -0.88336356653E+03  0.11166364221E+04  0.68304151299E+03 0.  0.
         13    1    3    3    0    0 -0.19926794812E+03 -0.24658488996E+03 -0.64927329010E+03  0.72254247511E+03  0.00000000000E+00 0.  1.
          1    1    3    3  501    0  0.19926786234E+03  0.24658487497E+03 -0.23409027643E+03  0.39409394698E+03  0.00000000000E+00 0.  1.
         21    1    1    2  502  501  0.85781930376E-04  0.14985591060E-04  0.32776547503E-03  0.33913612921E-03  0.00000000000E+00 0. -1.
<mgrwt>
<rscale>  1 0.68304151E+03</rscale>
<asrwt>0</asrwt>
<pdfrwt beam="1">  1        1 0.42413457E+00 0.68304151E+03</pdfrwt>
<pdfrwt beam="2">0</pdfrwt>
<totfact> 0.10358286E+00</totfact>
</mgrwt>
</event>
<event>
 6    1  0.2475480E-003  0.6495556E+03  0.7818608E-02  0.9807613E-01
          1   -1    0    0  502    0  0.00000000000E+00  0.00000000000E+00  0.10552959176E+03  0.10552959176E+03  0.00000000000E+00 0.  1.
         13   -1    0    0    0    0 -0.00000000000E+00 -0.00000000000E+00 -0.10000000000E+04  0.10000000000E+04  0.00000000000E+00 0.  1.
    9000005    2    1    2  501    0 -0.15389908668E-01 -0.10320137953E-01 -0.89451743287E+03  0.11054790480E+04  0.64955560774E+03 0.  0.
         13    1    3    3    0    0  0.11680945034E+03  0.27093017381E+03 -0.21621372746E+03  0.36578133182E+03  0.00000000000E+00 0.  1.
          1    1    3    3  501    0 -0.11682484025E+03 -0.27094049395E+03 -0.67830370541E+03  0.73969771619E+03  0.00000000000E+00 0.  1.
         21    1    1    2  502  501  0.15389908668E-01  0.10320137953E-01  0.47024625578E-01  0.50543742906E-01  0.00000000000E+00 0.  1.
<mgrwt>
<rscale>  1 0.64955561E+03</rscale>
<asrwt>0</asrwt>
<pdfrwt beam="1">  1        1 0.38374478E+00 0.64955561E+03</pdfrwt>
<pdfrwt beam="2">0</pdfrwt>
<totfact> 0.15797858E+00</totfact>
</mgrwt>
</event>
<event>
 6    1  0.2475480E-003  0.5023577E+03  0.7818608E-02  0.1013165E+00
          1   -1    0    0  502    0  0.00000000000E+00  0.00000000000E+00  0.63155190466E+02  0.63155190466E+02  0.00000000000E+00 0.  1.
         13   -1    0    0    0    0 -0.00000000000E+00 -0.00000000000E+00 -0.10000000000E+04  0.10000000000E+04  0.00000000000E+00 0.  1.
    9000005    2    1    2  501    0 -0.42255094077E-03 -0.15207132592E-02 -0.93690917122E+03  0.10630908094E+04  0.50235771514E+03 0.  0.
         13    1    3    3    0    0  0.64269737393E+02  0.21640243172E+03 -0.70152253196E+03  0.73694943819E+03  0.00000000000E+00 0.  1.
          3    1    3    3  501    0 -0.64270159944E+02 -0.21640395243E+03 -0.23538663926E+03  0.32614137123E+03  0.00000000000E+00 0.  1.
         21    1    1    2  502  501  0.42255094077E-03  0.15207132592E-02  0.64361689375E-01  0.64381038959E-01  0.00000000000E+00 0. -1.
<mgrwt>
<rscale>  1 0.50235772E+03</rscale>
<asrwt>0</asrwt>
<pdfrwt beam="1">  1        1 0.22965572E+00 0.50235772E+03</pdfrwt>
<pdfrwt beam="2">0</pdfrwt>
<totfact> 0.75771392E+00</totfact>
</mgrwt>
</event>
<event>
 6    1  0.2475480E-003  0.6868516E+03  0.7818608E-02  0.9739986E-01
          1   -1    0    0  502    0  0.00000000000E+00  0.00000000000E+00  0.11794146260E+03  0.11794146260E+03  0.00000000000E+00 0.  1.
         13   -1    0    0    0    0 -0.00000000000E+00 -0.00000000000E+00 -0.10000000000E+04  0.10000000000E+04  0.00000000000E+00 0.  1.
    9000005    2    1    2  501    0 -0.23043566813E-04 -0.17222991460E-05 -0.88205870959E+03  0.11179412889E+04  0.68685162748E+03 0.  0.
         13    1    3    3    0    0 -0.10124714020E+03 -0.12661590885E+03 -0.93379788388E+03  0.94776635291E+03  0.00000000000E+00 0.  1.
          3    1    3    3  501    0  0.10124711716E+03  0.12661590713E+03  0.51739174282E+02  0.17017493595E+03  0.00000000000E+00 0.  1.
         21    1    1    2  502  501  0.23043566809E-04  0.17222991383E-05  0.17219455740E-03  0.17373813019E-03  0.00000000000E+00 0. -1.
<mgrwt>
<rscale>  1 0.68685163E+03</rscale>
<asrwt>0</asrwt>
<pdfrwt beam="1">  1        1 0.42887895E+00 0.68685163E+03</pdfrwt>
<pdfrwt beam="2">0</pdfrwt>
<totfact> 0.98505155E-01</totfact>
</mgrwt>
</event>
<event>
 6    1  0.2475480E-003  0.6431226E+03  0.7818608E-02  0.9819770E-01
          1   -1    0    0  502    0  0.00000000000E+00  0.00000000000E+00  0.10354276821E+03  0.10354276821E+03  0.00000000000E+00 0.  1.
         13   -1    0    0    0    0 -0.00000000000E+00 -0.00000000000E+00 -0.10000000000E+04  0.10000000000E+04  0.00000000000E+00 0.  1.
    9000005    2    1    2  501    0  0.28680356594E-01 -0.56740861111E-01 -0.89659038614E+03  0.11033952143E+04  0.64312259663E+03 0.  0.
         13    1    3    3    0    0 -0.17478793819E+03 -0.26930695291E+03 -0.41692102177E+03  0.52621307150E+03  0.00000000000E+00 0.  1.
          3    1    3    3  501    0  0.17481661855E+03  0.26925021205E+03 -0.47966936437E+03  0.57718214276E+03  0.00000000000E+00 0.  1.
         21    1    1    2  502  501 -0.28680356594E-01  0.56740861111E-01  0.13315434500E+00  0.14755394867E+00  0.00000000000E+00 0.  1.
<mgrwt>
<rscale>  1 0.64312260E+03</rscale>
<asrwt>0</asrwt>
<pdfrwt beam="1">  1        1 0.37651995E+00 0.64312260E+03</pdfrwt>
<pdfrwt beam="2">0</pdfrwt>
<totfact> 0.17021260E+00</totfact>
</mgrwt>
</event>
<event>
 6    1  0.2475480E-003  0.6516118E+03  0.7818608E-02  0.9803759E-01
          1   -1    0    0  502    0  0.00000000000E+00  0.00000000000E+00  0.10614955996E+03  0.10614955996E+03  0.00000000000E+00 0.  1.
         13   -1    0    0    0    0 -0.00000000000E+00 -0.00000000000E+00 -0.10000000000E+04  0.10000000000E+04  0.00000000000E+00 0.  1.
    9000005    2    1    2  501    0 -0.13398169423E-03  0.10446106180E-03 -0.89385035977E+03  0.11061493721E+04  0.65161182282E+03 0.  0.
         13    1    3    3    0    0 -0.19855703992E+03 -0.18305757818E+03 -0.75630277733E+03  0.80307463292E+03  0.00000000000E+00 0.  1.
          3    1    3    3  501    0  0.19855690594E+03  0.18305768264E+03 -0.13754758243E+03  0.30307473914E+03  0.00000000000E+00 0.  1.
         21    1    1    2  502  501  0.13398169424E-03 -0.10446106180E-03 -0.80276714463E-04  0.18790305668E-03  0.00000000000E+00 0.  1.
<mgrwt>
<rscale>  1 0.65161182E+03</rscale>
<asrwt>0</asrwt>
<pdfrwt beam="1">  1        1 0.38599921E+00 0.65161182E+03</pdfrwt>
<pdfrwt beam="2">0</pdfrwt>
<totfact> 0.15433416E+00</totfact>
</mgrwt>
</event>
<event>
 6    1  0.2475480E-003  0.6443221E+03  0.7818608E-02  0.9817492E-01
          1   -1    0    0  502    0  0.00000000000E+00  0.00000000000E+00  0.10381079262E+03  0.10381079262E+03  0.00000000000E+00 0.  1.
         13   -1    0    0    0    0 -0.00000000000E+00 -0.00000000000E+00 -0.10000000000E+04  0.10000000000E+04  0.00000000000E+00 0.  1.
    9000005    2    1    2  501    0  0.30340937431E-02 -0.65254041925E-02 -0.89621162333E+03  0.11037872499E+04  0.64432213924E+03 0.  0.
         13    1    3    3    0    0  0.18379860398E+03  0.15997255587E+03 -0.87075116570E+02  0.25875707021E+03  0.00000000000E+00 0.  1.
          1    1    3    3  501    0 -0.18379556989E+03 -0.15997908127E+03 -0.80913650676E+03  0.84503017965E+03  0.00000000000E+00 0.  1.
         21    1    1    2  502  501 -0.30340937431E-02  0.65254041925E-02  0.22415952829E-01  0.23542760373E-01  0.00000000000E+00 0. -1.
<mgrwt>
<rscale>  1 0.64432214E+03</rscale>
<asrwt>0</asrwt>
<pdfrwt beam="1">  1        1 0.37749459E+00 0.64432214E+03</pdfrwt>
<pdfrwt beam="2">0</pdfrwt>
<totfact> 0.16850085E+00</totfact>
</mgrwt>
</event>
<event>
 6    1  0.2475480E-003  0.6505895E+03  0.7818608E-02  0.9805674E-01
          1   -1    0    0  502    0  0.00000000000E+00  0.00000000000E+00  0.10581672707E+03  0.10581672707E+03  0.00000000000E+00 0.  1.
         13   -1    0    0    0    0 -0.00000000000E+00 -0.00000000000E+00 -0.10000000000E+04  0.10000000000E+04  0.00000000000E+00 0.  1.
    9000005    2    1    2  501    0 -0.49080469466E-06 -0.84583109867E-05 -0.89418333605E+03  0.11058166634E+04  0.65058946699E+03 0.  0.
         13    1    3    3    0    0 -0.71212947208E+02 -0.19778003510E+03 -0.86904720525E+03  0.89410920535E+03  0.00000000000E+00 0.  1.
          3    1    3    3  501    0  0.71212946717E+02  0.19778002664E+03 -0.25136130797E+02  0.21170745804E+03  0.00000000000E+00 0.  1.
         21    1    1    2  502  501  0.49080469502E-06  0.84583110085E-05  0.63121750013E-04  0.63687826459E-04  0.00000000000E+00 0.  1.
<mgrwt>
<rscale>  1 0.65058947E+03</rscale>
<asrwt>0</asrwt>
<pdfrwt beam="1">  1        1 0.38478891E+00 0.65058947E+03</pdfrwt>
<pdfrwt beam="2">0</pdfrwt>
<totfact> 0.15627828E+00</totfact>
</mgrwt>
</event>
<event>
 6    1  0.2475480E-003  0.6493723E+03  0.7818608E-02  0.9807958E-01
          1   -1    0    0  502    0  0.00000000000E+00  0.00000000000E+00  0.10553634212E+03  0.10553634212E+03  0.00000000000E+00 0.  1.
         13   -1    0    0    0    0 -0.00000000000E+00 -0.00000000000E+00 -0.10000000000E+04  0.10000000000E+04  0.00000000000E+00 0.  1.
    9000005    2    1    2  501    0 -0.63345914023E-03 -0.22076570307E-02 -0.89457890225E+03  0.11054210749E+04  0.64937226642E+03 0.  0.
         13    1    3    3    0    0  0.24115591510E+03  0.21721693669E+03 -0.43195993695E+03  0.54030432175E+03  0.00000000000E+00 0.  1.
          1    1    3    3  501    0 -0.24115654856E+03 -0.21721914435E+03 -0.46261896530E+03  0.56511675311E+03  0.00000000000E+00 0.  1.
         21    1    1    2  502  501  0.63345914023E-03  0.22076570307E-02  0.11524436945E+00  0.11526725341E+00  0.00000000000E+00 0.  1.
<mgrwt>
<rscale>  1 0.64937227E+03</rscale>
<asrwt>0</asrwt>
<pdfrwt beam="1">  1        1 0.38376933E+00 0.64937227E+03</pdfrwt>
<pdfrwt beam="2">0</pdfrwt>
<totfact> 0.15794445E+00</totfact>
</mgrwt>
</event>
<event>
 6    1  0.2475480E-003  0.6212988E+03  0.7818608E-02  0.9862177E-01
          1   -1    0    0  502    0  0.00000000000E+00  0.00000000000E+00  0.96537459789E+02  0.96537459789E+02  0.00000000000E+00 0.  1.
         13   -1    0    0    0    0 -0.00000000000E+00 -0.00000000000E+00 -0.10000000000E+04  0.10000000000E+04  0.00000000000E+00 0.  1.
    9000005    2    1    2  501    0 -0.46812784770E-03  0.69110192453E-03 -0.90349693361E+03  0.10965030563E+04  0.62129883577E+03 0.  0.
         13    1    3    3    0    0 -0.91602112479E+02 -0.54838025544E+02 -0.96660546981E+03  0.97248356815E+03  0.00000000000E+00 0.  1.
          1    1    3    3  501    0  0.91601644351E+02  0.54838716646E+02  0.63108536192E+02  0.12401948811E+03  0.00000000000E+00 0.  1.
         21    1    1    2  502  501  0.46812784770E-03 -0.69110192453E-03  0.34393403195E-01  0.34403531052E-01  0.00000000000E+00 0. -1.
<mgrwt>
<rscale>  1 0.62129884E+03</rscale>
<asrwt>0</asrwt>
<pdfrwt beam="1">  1        1 0.35104605E+00 0.62129884E+03</pdfrwt>
<pdfrwt beam="2">0</pdfrwt>
<totfact> 0.22095443E+00</totfact>
</mgrwt>
</event>
<event>
 6    1  0.2475480E-003  0.5065501E+03  0.7818608E-02  0.1012083E+00
          1   -1    0    0  502    0  0.00000000000E+00  0.00000000000E+00  0.64189459435E+02  0.64189459435E+02  0.00000000000E+00 0.  1.
         13   -1    0    0    0    0 -0.00000000000E+00 -0.00000000000E+00 -0.10000000000E+04  0.10000000000E+04  0.00000000000E+00 0.  1.
    9000005    2    1    2  501    0 -0.28752311271E-02  0.13559099468E-02 -0.93585168435E+03  0.10641481930E+04  0.50655009783E+03 0.  0.
         13    1    3    3    0    0 -0.76696200181E+02 -0.23076926903E+03 -0.31920904428E+03  0.40128690061E+03  0.00000000000E+00 0.  1.
          1    1    3    3  501    0  0.76693324950E+02  0.23077062494E+03 -0.61664264007E+03  0.66286129242E+03  0.00000000000E+00 0.  1.
         21    1    1    2  502  501  0.28752311271E-02 -0.13559099468E-02  0.41143784571E-01  0.41266408308E-01  0.00000000000E+00 0.  1.
<mgrwt>
<rscale>  1 0.50655010E+03</rscale>
<asrwt>0</asrwt>
<pdfrwt beam="1">  1        1 0.23341671E+00 0.50655010E+03</pdfrwt>
<pdfrwt beam="2">0</pdfrwt>
<totfact> 0.72890842E+00</totfact>
</mgrwt>
</event>
<event>
 6    1  0.2475480E-003  0.6504447E+03  0.7818608E-02  0.9805945E-01
          1   -1    0    0  502    0  0.00000000000E+00  0.00000000000E+00  0.10576981187E+03  0.10576981187E+03  0.00000000000E+00 0.  1.
         13   -1    0    0    0    0 -0.00000000000E+00 -0.00000000000E+00 -0.10000000000E+04  0.10000000000E+04  0.00000000000E+00 0.  1.
    9000005    2    1    2  501    0  0.17386264403E-04 -0.89002036816E-05 -0.89423041307E+03  0.11057695861E+04  0.65044472929E+03 0.  0.
         13    1    3    3    0    0 -0.19428352901E+03 -0.25085720817E+03 -0.56845140573E+03  0.65100877814E+03  0.00000000000E+00 0.  1.
          3    1    3    3  501    0  0.19428354639E+03  0.25085719927E+03 -0.32577900734E+03  0.45476080795E+03  0.00000000000E+00 0.  1.
         21    1    1    2  502  501 -0.17386264401E-04  0.89002036703E-05  0.22493494642E-03  0.22578136756E-03  0.00000000000E+00 0.  1.
<mgrwt>
<rscale>  1 0.65044473E+03</rscale>
<asrwt>0</asrwt>
<pdfrwt beam="1">  1        1 0.38461831E+00 0.65044473E+03</pdfrwt>
<pdfrwt beam="2">0</pdfrwt>
<totfact> 0.15655420E+00</totfact>
</mgrwt>
</event>
<event>
 6    1  0.2475480E-003  0.6807165E+03  0.7818608E-02  0.9750790E-01
          1   -1    0    0  502    0  0.00000000000E+00  0.00000000000E+00  0.11585727821E+03  0.11585727821E+03  0.00000000000E+00 0.  1.
         13   -1    0    0    0    0 -0.00000000000E+00 -0.00000000000E+00 -0.10000000000E+04  0.10000000000E+04  0.00000000000E+00 0.  1.
    9000005    2    1    2  501    0 -0.31943964441E-03 -0.10548348545E-02 -0.88415623528E+03  0.11158437198E+04  0.68071650394E+03 0.  0.
         13    1    3    3    0    0 -0.10096847610E+02 -0.33765848372E+03 -0.37391996632E+03  0.50391600408E+03  0.00000000000E+00 0.  1.
          1    1    3    3  501    0  0.10096528170E+02  0.33765742888E+03 -0.51023626896E+03  0.61192771577E+03  0.00000000000E+00 0.  1.
         21    1    1    2  502  501  0.31943964441E-03  0.10548348545E-02  0.13513491070E-01  0.13558361227E-01  0.00000000000E+00 0. -1.
<mgrwt>
<rscale>  1 0.68071650E+03</rscale>
<asrwt>0</asrwt>
<pdfrwt beam="1">  1        1 0.42130008E+00 0.68071650E+03</pdfrwt>
<pdfrwt beam="2">0</pdfrwt>
<totfact> 0.10673333E+00</totfact>
</mgrwt>
</event>
<event>
 6    1  0.2475480E-003  0.6710169E+03  0.7818608E-02  0.9768123E-01
          1   -1    0    0  502    0  0.00000000000E+00  0.00000000000E+00  0.11408638969E+03  0.11408638969E+03  0.00000000000E+00 0.  1.
         13   -1    0    0    0    0 -0.00000000000E+00 -0.00000000000E+00 -0.10000000000E+04  0.10000000000E+04  0.00000000000E+00 0.  1.
    9000005    2    1    2  501    0 -0.28622576730E+00 -0.15191293490E+00 -0.88741486109E+03  0.11125505653E+04  0.67101678043E+03 0.  0.
         13    1    3    3    0    0 -0.95854526095E+01  0.30341940865E+03 -0.68024270570E+03  0.74490627404E+03  0.00000000000E+00 0.  1.
          1    1    3    3  501    0  0.92992268422E+01 -0.30357132159E+03 -0.20717215539E+03  0.36764429123E+03  0.00000000000E+00 0.  1.
         21    1    1    2  502  501  0.28622576730E+00  0.15191293490E+00  0.15012507730E+01  0.15358244083E+01  0.00000000000E+00 0.  1.
<mgrwt>
<rscale>  1 0.67101686E+03</rscale>
<asrwt>0</asrwt>
<pdfrwt beam="1">  1        1 0.41486047E+00 0.67101686E+03</pdfrwt>
<pdfrwt beam="2">0</pdfrwt>
<totfact> 0.11432367E+00</totfact>
</mgrwt>
</event>
<event>
 6    1  0.2475480E-003  0.6493546E+03  0.7818608E-02  0.9807991E-01
          1   -1    0    0  502    0  0.00000000000E+00  0.00000000000E+00  0.10548303192E+03  0.10548303192E+03  0.00000000000E+00 0.  1.
         13   -1    0    0    0    0 -0.00000000000E+00 -0.00000000000E+00 -0.10000000000E+04  0.10000000000E+04  0.00000000000E+00 0.  1.
    9000005    2    1    2  501    0  0.12884540262E+00  0.12108606804E+00 -0.89441780686E+03  0.11052803106E+04  0.64935454150E+03 0.  0.
         13    1    3    3    0    0 -0.29578409911E+02  0.11965151118E+03  0.64070096078E+02  0.13891127986E+03  0.00000000000E+00 0.  1.
          1    1    3    3  501    0  0.29707255314E+02 -0.11953042511E+03 -0.95848790294E+03  0.96636903077E+03  0.00000000000E+00 0.  1.
         21    1    1    2  502  501 -0.12884540262E+00 -0.12108606804E+00 -0.99161219197E-01  0.20272128907E+00  0.00000000000E+00 0. -1.
<mgrwt>
<rscale>  1 0.64935457E+03</rscale>
<asrwt>0</asrwt>
<pdfrwt beam="1">  1        1 0.38357547E+00 0.64935457E+03</pdfrwt>
<pdfrwt beam="2">0</pdfrwt>
<totfact> 0.15825691E+00</totfact>
</mgrwt>
</event>
<event>
 6    1  0.2475480E-003  0.6516333E+03  0.7818608E-02  0.9803719E-01
          1   -1    0    0  502    0  0.00000000000E+00  0.00000000000E+00  0.10615650890E+03  0.10615650890E+03  0.00000000000E+00 0.  1.
         13   -1    0    0    0    0 -0.00000000000E+00 -0.00000000000E+00 -0.10000000000E+04  0.10000000000E+04  0.00000000000E+00 0.  1.
    9000005    2    1    2  501    0 -0.58857816612E-05  0.12716729429E-04 -0.89384348979E+03  0.11061564948E+04  0.65163333769E+03 0.  0.
         13    1    3    3    0    0 -0.12911249579E+03 -0.25811014522E+03 -0.70360924381E+03  0.76049776569E+03  0.00000000000E+00 0.  1.
          1    1    3    3  501    0  0.12911248991E+03  0.25811015794E+03 -0.19023424598E+03  0.34565872913E+03  0.00000000000E+00 0.  1.
         21    1    1    2  502  501  0.58857816511E-05 -0.12716729476E-04 -0.13109350834E-05  0.14073954135E-04  0.00000000000E+00 0.  1.
<mgrwt>
<rscale>  1 0.65163334E+03</rscale>
<asrwt>0</asrwt>
<pdfrwt beam="1">  1        1 0.38602448E+00 0.65163334E+03</pdfrwt>
<pdfrwt beam="2">0</pdfrwt>
<totfact> 0.15429381E+00</totfact>
</mgrwt>
</event>
<event>
 6    1  0.2475480E-003  0.5900317E+03  0.7818608E-02  0.9926306E-01
          1   -1    0    0  502    0  0.00000000000E+00  0.00000000000E+00  0.87063784180E+02  0.87063784180E+02  0.00000000000E+00 0.  1.
         13   -1    0    0    0    0 -0.00000000000E+00 -0.00000000000E+00 -0.10000000000E+04  0.10000000000E+04  0.00000000000E+00 0.  1.
    9000005    2    1    2  501    0 -0.61491183624E-03  0.22199304913E-02 -0.91296561168E+03  0.10870342982E+04  0.59003165794E+03 0.  0.
         13    1    3    3    0    0  0.22489652631E+03  0.18768915681E+03 -0.39189801866E+03  0.48927469193E+03  0.00000000000E+00 0.  1.
          3    1    3    3  501    0 -0.22489714122E+03 -0.18768693688E+03 -0.52106759301E+03  0.59775960628E+03  0.00000000000E+00 0.  1.
         21    1    1    2  502  501  0.61491183622E-03 -0.22199304913E-02  0.29395857341E-01  0.29485973559E-01  0.00000000000E+00 0. -1.
<mgrwt>
<rscale>  1 0.59003166E+03</rscale>
<asrwt>0</asrwt>
<pdfrwt beam="1">  1        1 0.31659625E+00 0.59003166E+03</pdfrwt>
<pdfrwt beam="2">0</pdfrwt>
<totfact> 0.31342315E+00</totfact>
</mgrwt>
</event>
<event>
 6    1  0.2475480E-003  0.6663481E+03  0.7818608E-02  0.9776578E-01
          1   -1    0    0  502    0  0.00000000000E+00  0.00000000000E+00  0.11126851352E+03  0.11126851352E+03  0.00000000000E+00 0.  1.
         13   -1    0    0    0    0 -0.00000000000E+00 -0.00000000000E+00 -0.10000000000E+04  0.10000000000E+04  0.00000000000E+00 0.  1.
    9000005    2    1    2  501    0  0.41024029006E-02 -0.53798241676E-02 -0.88899499436E+03  0.11110049188E+04  0.66634812942E+03 0.  0.
         13    1    3    3    0    0  0.13662910008E+02 -0.26165859228E+03 -0.10136566583E+03  0.28093930347E+03  0.00000000000E+00 0.  1.
          3    1    3    3  501    0 -0.13658807605E+02  0.26165321246E+03 -0.78762932852E+03  0.83006561534E+03  0.00000000000E+00 0.  1.
         21    1    1    2  502  501 -0.41024029006E-02  0.53798241676E-02  0.26350787754E+00  0.26359471494E+00  0.00000000000E+00 0. -1.
<mgrwt>
<rscale>  1 0.66634813E+03</rscale>
<asrwt>0</asrwt>
<pdfrwt beam="1">  1        1 0.40461363E+00 0.66634813E+03</pdfrwt>
<pdfrwt beam="2">0</pdfrwt>
<totfact> 0.12719676E+00</totfact>
</mgrwt>
</event>
<event>
 6    1  0.2475480E-003  0.6467992E+03  0.7818608E-02  0.9812804E-01
          1   -1    0    0  502    0  0.00000000000E+00  0.00000000000E+00  0.10510821014E+03  0.10510821014E+03  0.00000000000E+00 0.  1.
         13   -1    0    0    0    0 -0.00000000000E+00 -0.00000000000E+00 -0.10000000000E+04  0.10000000000E+04  0.00000000000E+00 0.  1.
    9000005    2    1    2  501    0  0.40523889347E-02 -0.14679052565E-01 -0.89541257969E+03  0.11045871977E+04  0.64679918774E+03 0.  0.
         13    1    3    3    0    0  0.17980357531E+03 -0.57180814748E+02  0.85317935072E+00  0.18867882548E+03  0.00000000000E+00 0.  1.
          1    1    3    3  501    0 -0.17979952292E+03  0.57166135695E+02 -0.89626575904E+03  0.91590837224E+03  0.00000000000E+00 0.  1.
         21    1    1    2  502  501 -0.40523889347E-02  0.14679052565E-01  0.52078982575E+00  0.52101241736E+00  0.00000000000E+00 0. -1.
<mgrwt>
<rscale>  1 0.64679919E+03</rscale>
<asrwt>0</asrwt>
<pdfrwt beam="1">  1        1 0.38221248E+00 0.64679919E+03</pdfrwt>
<pdfrwt beam="2">0</pdfrwt>
<totfact> 0.16054237E+00</totfact>
</mgrwt>
</event>
<event>
 6    1  0.2475480E-003  0.6445784E+03  0.7818608E-02  0.9817006E-01
          1   -1    0    0  502    0  0.00000000000E+00  0.00000000000E+00  0.10512632393E+03  0.10512632393E+03  0.00000000000E+00 0.  1.
         13   -1    0    0    0    0 -0.00000000000E+00 -0.00000000000E+00 -0.10000000000E+04  0.10000000000E+04  0.00000000000E+00 0.  1.
    9000005    2    1    2  501    0  0.12119742658E-01 -0.16978173576E-01 -0.89612959172E+03  0.11038702351E+04  0.64457835075E+03 0.  0.
         13    1    3    3    0    0 -0.66547418406E+02 -0.21265368895E+03 -0.49290315789E+02  0.22820974026E+03  0.00000000000E+00 0.  1.
          3    1    3    3  501    0  0.66559538148E+02  0.21263671078E+03 -0.84683927593E+03  0.87566049479E+03  0.00000000000E+00 0.  1.
         21    1    1    2  502  501 -0.12119742658E-01  0.16978173576E-01  0.12559156480E+01  0.12560888749E+01  0.00000000000E+00 0.  1.
<mgrwt>
<rscale>  1 0.64457835E+03</rscale>
<asrwt>0</asrwt>
<pdfrwt beam="1">  1        1 0.38227835E+00 0.64457835E+03</pdfrwt>
<pdfrwt beam="2">0</pdfrwt>
<totfact> 0.16050072E+00</totfact>
</mgrwt>
</event>
<event>
 6    1  0.2475480E-003  0.6565876E+03  0.7818608E-02  0.9794496E-01
          1   -1    0    0  502    0  0.00000000000E+00  0.00000000000E+00  0.10779225081E+03  0.10779225081E+03  0.00000000000E+00 0.  1.
         13   -1    0    0    0    0 -0.00000000000E+00 -0.00000000000E+00 -0.10000000000E+04  0.10000000000E+04  0.00000000000E+00 0.  1.
    9000005    2    1    2  501    0  0.33451785379E-03 -0.18392607208E-03 -0.89222318788E+03  0.11077768074E+04  0.65658757071E+03 0.  0.
         13    1    3    3    0    0  0.17344929327E+03 -0.53007991093E+02 -0.90780060944E+03  0.92574102802E+03  0.00000000000E+00 0.  1.
          3    1    3    3  501    0 -0.17344895875E+03  0.53007807167E+02  0.15577421555E+02  0.18203577938E+03  0.00000000000E+00 0.  1.
         21    1    1    2  502  501 -0.33451785377E-03  0.18392607207E-03  0.15438692460E-01  0.15443411407E-01  0.00000000000E+00 0.  1.
<mgrwt>
<rscale>  1 0.65658757E+03</rscale>
<asrwt>0</asrwt>
<pdfrwt beam="1">  1        1 0.39197265E+00 0.65658757E+03</pdfrwt>
<pdfrwt beam="2">0</pdfrwt>
<totfact> 0.14507241E+00</totfact>
</mgrwt>
</event>
<event>
 6    1  0.2475480E-003  0.6565157E+03  0.7818608E-02  0.9794629E-01
          1   -1    0    0  502    0  0.00000000000E+00  0.00000000000E+00  0.10776556884E+03  0.10776556884E+03  0.00000000000E+00 0.  1.
         13   -1    0    0    0    0 -0.00000000000E+00 -0.00000000000E+00 -0.10000000000E+04  0.10000000000E+04  0.00000000000E+00 0.  1.
    9000005    2    1    2  501    0  0.14672805086E-02  0.13282350563E-02 -0.89224670524E+03  0.11077531362E+04  0.65651567215E+03 0.  0.
         13    1    3    3    0    0 -0.10593058035E+03 -0.30800633002E+03 -0.51494040595E+03  0.60930518532E+03  0.00000000000E+00 0.  1.
          3    1    3    3  501    0  0.10593204763E+03  0.30800765826E+03 -0.37730629929E+03  0.49844795089E+03  0.00000000000E+00 0.  1.
         21    1    1    2  502  501 -0.14672805086E-02 -0.13282350563E-02  0.12274081724E-01  0.12432626537E-01  0.00000000000E+00 0.  1.
<mgrwt>
<rscale>  1 0.65651567E+03</rscale>
<asrwt>0</asrwt>
<pdfrwt beam="1">  1        1 0.39187562E+00 0.65651567E+03</pdfrwt>
<pdfrwt beam="2">0</pdfrwt>
<totfact> 0.14521830E+00</totfact>
</mgrwt>
</event>
<event>
 6    1  0.2475480E-003  0.6337646E+03  0.7818608E-02  0.9837730E-01
          1   -1    0    0  502    0  0.00000000000E+00  0.00000000000E+00  0.10252020090E+03  0.10252020090E+03  0.00000000000E+00 0.  1.
         13   -1    0    0    0    0 -0.00000000000E+00 -0.00000000000E+00 -0.10000000000E+04  0.10000000000E+04  0.00000000000E+00 0.  1.
    9000005    2    1    2  501    0  0.11127248035E+00  0.29926966546E-01 -0.89958386269E+03  0.11004129845E+04  0.63376462291E+03 0.  0.
         13    1    3    3    0    0 -0.51827279998E+02  0.72360170281E+02  0.78262593342E+02  0.11852044006E+03  0.00000000000E+00 0.  1.
          3    1    3    3  501    0  0.51938552478E+02 -0.72330243314E+02 -0.97784645603E+03  0.98189254448E+03  0.00000000000E+00 0.  1.
         21    1    1    2  502  501 -0.11127248035E+00 -0.29926966546E-01  0.21040635955E+01  0.21072163634E+01  0.00000000000E+00 0.  1.
<mgrwt>
<rscale>  1 0.63376463E+03</rscale>
<asrwt>0</asrwt>
<pdfrwt beam="1">  1        1 0.37280152E+00 0.63376463E+03</pdfrwt>
<pdfrwt beam="2">0</pdfrwt>
<totfact> 0.17705238E+00</totfact>
</mgrwt>
</event>
<event>
 6    1  0.2475480E-003  0.6499263E+03  0.7818608E-02  0.9806917E-01
          1   -1    0    0  502    0  0.00000000000E+00  0.00000000000E+00  0.10560810600E+03  0.10560810600E+03  0.00000000000E+00 0.  1.
         13   -1    0    0    0    0 -0.00000000000E+00 -0.00000000000E+00 -0.10000000000E+04  0.10000000000E+04  0.00000000000E+00 0.  1.
    9000005    2    1    2  501    0  0.56616797204E-03  0.82396443318E-03 -0.89439890901E+03  0.11056010201E+04  0.64992630909E+03 0.  0.
         13    1    3    3    0    0  0.21532581654E+03  0.24304548491E+03 -0.42534498159E+03  0.53512117166E+03  0.00000000000E+00 0.  1.
          1    1    3    3  501    0 -0.21532525037E+03 -0.24304466094E+03 -0.46905392742E+03  0.57047984845E+03  0.00000000000E+00 0.  1.
         21    1    1    2  502  501 -0.56616797205E-03 -0.82396443318E-03  0.70150058760E-02  0.70858853364E-02  0.00000000000E+00 0. -1.
<mgrwt>
<rscale>  1 0.64992631E+03</rscale>
<asrwt>0</asrwt>
<pdfrwt beam="1">  1        1 0.38403029E+00 0.64992631E+03</pdfrwt>
<pdfrwt beam="2">0</pdfrwt>
<totfact> 0.15750936E+00</totfact>
</mgrwt>
</event>
<event>
 6    1  0.2475480E-003  0.6512325E+03  0.7818608E-02  0.9804469E-01
          1   -1    0    0  502    0  0.00000000000E+00  0.00000000000E+00  0.10604262337E+03  0.10604262337E+03  0.00000000000E+00 0.  1.
         13   -1    0    0    0    0 -0.00000000000E+00 -0.00000000000E+00 -0.10000000000E+04  0.10000000000E+04  0.00000000000E+00 0.  1.
    9000005    2    1    2  501    0 -0.86194863218E-03  0.67823653742E-03 -0.89397402750E+03  0.11060259364E+04  0.65123253158E+03 0.  0.
         13    1    3    3    0    0  0.18700757523E+03  0.18431441303E+03 -0.77403564754E+03  0.81735844016E+03  0.00000000000E+00 0.  1.
          3    1    3    3  501    0 -0.18700843718E+03 -0.18431373479E+03 -0.11993837996E+03  0.28866749626E+03  0.00000000000E+00 0.  1.
         21    1    1    2  502  501  0.86194863217E-03 -0.67823653742E-03  0.16650873252E-01  0.16686957191E-01  0.00000000000E+00 0. -1.
<mgrwt>
<rscale>  1 0.65123253E+03</rscale>
<asrwt>0</asrwt>
<pdfrwt beam="1">  1        1 0.38561035E+00 0.65123253E+03</pdfrwt>
<pdfrwt beam="2">0</pdfrwt>
<totfact> 0.15495772E+00</totfact>
</mgrwt>
</event>
<event>
 6    1  0.2475480E-003  0.6522047E+03  0.7818608E-02  0.9802651E-01
          1   -1    0    0  502    0  0.00000000000E+00  0.00000000000E+00  0.11022977495E+03  0.11022977495E+03  0.00000000000E+00 0.  1.
         13   -1    0    0    0    0 -0.00000000000E+00 -0.00000000000E+00 -0.10000000000E+04  0.10000000000E+04  0.00000000000E+00 0.  1.
    9000005    2    1    2  501    0 -0.27019200303E-01 -0.61842912230E-01 -0.89365693593E+03  0.11063424782E+04  0.65220468825E+03 0.  0.
         13    1    3    3    0    0 -0.16291361936E+03  0.27539141372E+03 -0.34020617107E+03  0.46703481343E+03  0.00000000000E+00 0.  1.
          1    1    3    3  501    0  0.16288660016E+03 -0.27545325664E+03 -0.55345076486E+03  0.63930766477E+03  0.00000000000E+00 0.  1.
         21    1    1    2  502  501  0.27019200303E-01  0.61842912230E-01  0.38867108780E+01  0.38872967512E+01  0.00000000000E+00 0.  1.
<mgrwt>
<rscale>  1 0.65220469E+03</rscale>
<asrwt>0</asrwt>
<pdfrwt beam="1">  1        1 0.40083639E+00 0.65220469E+03</pdfrwt>
<pdfrwt beam="2">0</pdfrwt>
<totfact> 0.13258786E+00</totfact>
</mgrwt>
</event>
