<event>
 6    1  0.9034271E-003  0.6472859E+03  0.7818608E-02  0.9811885E-01
          1   -1    0    0  502    0  0.00000000000E+00  0.00000000000E+00  0.10476412838E+03  0.10476412838E+03  0.00000000000E+00 0.  1.
         13   -1    0    0    0    0 -0.00000000000E+00 -0.00000000000E+00 -0.10000000000E+04  0.10000000000E+04  0.00000000000E+00 0.  1.
    9000005    2    1    2  501    0  0.21510724315E-02 -0.16214902796E-02 -0.89525513435E+03  0.11047446782E+04  0.64728590935E+03 0.  0.
         13    1    3    3    0    0 -0.20393967931E+03  0.15180352222E+03 -0.10581725699E+03  0.27537791130E+03  0.00000000000E+00 0.  1.
          1    1    3    3  501    0  0.20394183039E+03 -0.15180514371E+03 -0.78943787736E+03  0.82936676691E+03  0.00000000000E+00 0.  1.
         21    1    1    2  502  501 -0.21510724315E-02  0.16214902796E-02  0.19262731273E-01  0.19450171193E-01  0.00000000000E+00 0. -1.
<mgrwt>
<rscale>  1 0.64728591E+03</rscale>
<asrwt>0</asrwt>
<pdfrwt beam="1">  1        1 0.38096127E+00 0.64728591E+03</pdfrwt>
<pdfrwt beam="2">0</pdfrwt>
<totfact> 0.16258315E+00</totfact>
</mgrwt>
</event>
<event>
 6    1  0.9034271E-003  0.6396811E+03  0.7818608E-02  0.9826337E-01
          1   -1    0    0  502    0  0.00000000000E+00  0.00000000000E+00  0.10291478102E+03  0.10291478102E+03  0.00000000000E+00 0.  1.
         13   -1    0    0    0    0 -0.00000000000E+00 -0.00000000000E+00 -0.10000000000E+04  0.10000000000E+04  0.00000000000E+00 0.  1.
    9000005    2    1    2  501    0  0.58531014847E+00 -0.45725564106E+00 -0.89744565534E+03  0.11020891994E+04  0.63968066049E+03 0.  0.
         13    1    3    3    0    0 -0.11974644154E+02 -0.44328249862E+02  0.96620486383E+02  0.10697618533E+03  0.00000000000E+00 0.  1.
          3    1    3    3  501    0  0.12559954303E+02  0.43870994221E+02 -0.99406614173E+03  0.99511301404E+03  0.00000000000E+00 0.  1.
         21    1    1    2  502  501 -0.58531014847E+00  0.45725564106E+00  0.36043636449E+00  0.82558165195E+00  0.00000000000E+00 0. -1.
<mgrwt>
<rscale>  1 0.63968109E+03</rscale>
<asrwt>0</asrwt>
<pdfrwt beam="1">  1        1 0.37423636E+00 0.63968109E+03</pdfrwt>
<pdfrwt beam="2">0</pdfrwt>
<totfact> 0.17430866E+00</totfact>
</mgrwt>
</event>
<event>
 6    1  0.9034271E-003  0.6253796E+03  0.7818608E-02  0.9854107E-01
          1   -1    0    0  502    0  0.00000000000E+00  0.00000000000E+00  0.98490770284E+02  0.98490770284E+02  0.00000000000E+00 0.  1.
         13   -1    0    0    0    0 -0.00000000000E+00 -0.00000000000E+00 -0.10000000000E+04  0.10000000000E+04  0.00000000000E+00 0.  1.
    9000005    2    1    2  501    0  0.13535700481E-01 -0.10199250964E-01 -0.90222496580E+03  0.10977748336E+04  0.62537964152E+03 0.  0.
         13    1    3    3    0    0 -0.28646075429E+03  0.71270666698E+02 -0.63209310668E+03  0.69762523406E+03  0.00000000000E+00 0.  1.
          1    1    3    3  501    0  0.28647428999E+03 -0.71280865949E+02 -0.27013185912E+03  0.40014959951E+03  0.00000000000E+00 0.  1.
         21    1    1    2  502  501 -0.13535700481E-01  0.10199250964E-01  0.71573608203E+00  0.71593671440E+00  0.00000000000E+00 0.  1.
<mgrwt>
<rscale>  1 0.62537964E+03</rscale>
<asrwt>0</asrwt>
<pdfrwt beam="1">  1        1 0.35814901E+00 0.62537964E+03</pdfrwt>
<pdfrwt beam="2">0</pdfrwt>
<totfact> 0.20558146E+00</totfact>
</mgrwt>
</event>
<event>
 6    1  0.9034271E-003  0.6518955E+03  0.7818608E-02  0.9803229E-01
          1   -1    0    0  502    0  0.00000000000E+00  0.00000000000E+00  0.10624458712E+03  0.10624458712E+03  0.00000000000E+00 0.  1.
         13   -1    0    0    0    0 -0.00000000000E+00 -0.00000000000E+00 -0.10000000000E+04  0.10000000000E+04  0.00000000000E+00 0.  1.
    9000005    2    1    2  501    0  0.44370516863E-02  0.31984854159E-02 -0.89375449769E+03  0.11062390414E+04  0.65189547820E+03 0.  0.
         13    1    3    3    0    0 -0.89912826910E+02  0.25487480107E+03 -0.13769232135E+03  0.30332269289E+03  0.00000000000E+00 0.  1.
          1    1    3    3  501    0  0.89917263962E+02 -0.25487160259E+03 -0.75606217635E+03  0.80291634849E+03  0.00000000000E+00 0.  1.
         21    1    1    2  502  501 -0.44370516863E-02 -0.31984854159E-02 -0.91518214246E-03  0.55457456646E-02  0.00000000000E+00 0. -1.
<mgrwt>
<rscale>  1 0.65189548E+03</rscale>
<asrwt>0</asrwt>
<pdfrwt beam="1">  1        1 0.38634477E+00 0.65189548E+03</pdfrwt>
<pdfrwt beam="2">0</pdfrwt>
<totfact> 0.15378355E+00</totfact>
</mgrwt>
</event>
<event>
 6    1  0.9034271E-003  0.6363452E+03  0.7818608E-02  0.9832744E-01
          1   -1    0    0  502    0  0.00000000000E+00  0.00000000000E+00  0.10125647159E+03  0.10125647159E+03  0.00000000000E+00 0.  1.
         13   -1    0    0    0    0 -0.00000000000E+00 -0.00000000000E+00 -0.10000000000E+04  0.10000000000E+04  0.00000000000E+00 0.  1.
    9000005    2    1    2  501    0  0.13537626065E-02  0.12785662541E-01 -0.89876415817E+03  0.11012321633E+04  0.63634524066E+03 0.  0.
         13    1    3    3    0    0  0.30962247274E+03  0.41475666843E+02 -0.34485421471E+03  0.46530714154E+03  0.00000000000E+00 0.  1.
          1    1    3    3  501    0 -0.30962111898E+03 -0.41462881180E+02 -0.55390994346E+03  0.63592502176E+03  0.00000000000E+00 0.  1.
         21    1    1    2  502  501 -0.13537626065E-02 -0.12785662541E-01  0.20629760669E-01  0.24308287991E-01  0.00000000000E+00 0. -1.
<mgrwt>
<rscale>  1 0.63634524E+03</rscale>
<asrwt>0</asrwt>
<pdfrwt beam="1">  1        1 0.36820613E+00 0.63634524E+03</pdfrwt>
<pdfrwt beam="2">0</pdfrwt>
<totfact> 0.18538772E+00</totfact>
</mgrwt>
</event>
<event>
 6    1  0.9034271E-003  0.6243261E+03  0.7818608E-02  0.9856184E-01
          1   -1    0    0  502    0  0.00000000000E+00  0.00000000000E+00  0.98007801437E+02  0.98007801437E+02  0.00000000000E+00 0.  1.
         13   -1    0    0    0    0 -0.00000000000E+00 -0.00000000000E+00 -0.10000000000E+04  0.10000000000E+04  0.00000000000E+00 0.  1.
    9000005    2    1    2  501    0  0.10043797080E-01  0.24425900542E-01 -0.90255388613E+03  0.10974454933E+04  0.62432611088E+03 0.  0.
         13    1    3    3    0    0  0.16733672426E+03  0.13914127124E+03 -0.57881277684E+02  0.22519350558E+03  0.00000000000E+00 0.  1.
          3    1    3    3  501    0 -0.16732668046E+03 -0.13911684534E+03 -0.84467260845E+03  0.87225198774E+03  0.00000000000E+00 0.  1.
         21    1    1    2  502  501 -0.10043797080E-01 -0.24425900542E-01  0.56168756900E+00  0.56230812519E+00  0.00000000000E+00 0.  1.
<mgrwt>
<rscale>  1 0.62432611E+03</rscale>
<asrwt>0</asrwt>
<pdfrwt beam="1">  1        1 0.35639276E+00 0.62432611E+03</pdfrwt>
<pdfrwt beam="2">0</pdfrwt>
<totfact> 0.20928533E+00</totfact>
</mgrwt>
</event>
<event>
 6    1  0.9034271E-003  0.6488166E+03  0.7818608E-02  0.9809002E-01
          1   -1    0    0  502    0  0.00000000000E+00  0.00000000000E+00  0.10524076323E+03  0.10524076323E+03  0.00000000000E+00 0.  1.
         13   -1    0    0    0    0 -0.00000000000E+00 -0.00000000000E+00 -0.10000000000E+04  0.10000000000E+04  0.00000000000E+00 0.  1.
    9000005    2    1    2  501    0 -0.43977259452E-05 -0.68511861002E-05 -0.89475924486E+03  0.11052407518E+04  0.64881662516E+03 0.  0.
         13    1    3    3    0    0 -0.20853422267E+03 -0.23124909122E+03 -0.29239092878E+03  0.42714765532E+03  0.00000000000E+00 0.  1.
          1    1    3    3  501    0  0.20853421827E+03  0.23124908437E+03 -0.60236831608E+03  0.67809309643E+03  0.00000000000E+00 0.  1.
         21    1    1    2  502  501  0.43977259552E-05  0.68511860993E-05  0.80827774691E-05  0.11472141742E-04  0.00000000000E+00 0.  1.
<mgrwt>
<rscale>  1 0.64881663E+03</rscale>
<asrwt>0</asrwt>
<pdfrwt beam="1">  1        1 0.38269449E+00 0.64881663E+03</pdfrwt>
<pdfrwt beam="2">0</pdfrwt>
<totfact> 0.15969778E+00</totfact>
</mgrwt>
</event>
<event>
 6    1  0.9034271E-003  0.5800124E+03  0.7818608E-02  0.9947764E-01
          1   -1    0    0  502    0  0.00000000000E+00  0.00000000000E+00  0.84103597748E+02  0.84103597748E+02  0.00000000000E+00 0.  1.
         13   -1    0    0    0    0 -0.00000000000E+00 -0.00000000000E+00 -0.10000000000E+04  0.10000000000E+04  0.00000000000E+00 0.  1.
    9000005    2    1    2  501    0 -0.16450705239E-04 -0.67376919333E-05 -0.91589639875E+03  0.10841035796E+04  0.58001237756E+03 0.  0.
         13    1    3    3    0    0 -0.32526024264E+02  0.27016496538E+03 -0.64538624481E+03  0.70040734988E+03  0.00000000000E+00 0.  1.
          1    1    3    3  501    0  0.32526007813E+02 -0.27016497211E+03 -0.27051015393E+03  0.38369622975E+03  0.00000000000E+00 0.  1.
         21    1    1    2  502  501  0.16450705240E-04  0.67376919066E-05 -0.35043392076E-05  0.18119122175E-04  0.00000000000E+00 0.  1.
<mgrwt>
<rscale>  1 0.58001238E+03</rscale>
<asrwt>0</asrwt>
<pdfrwt beam="1">  1        1 0.30583191E+00 0.58001238E+03</pdfrwt>
<pdfrwt beam="2">0</pdfrwt>
<totfact> 0.34944955E+00</totfact>
</mgrwt>
</event>
<event>
 6    1  0.9034271E-003  0.6368754E+03  0.7818608E-02  0.9831723E-01
          1   -1    0    0  502    0  0.00000000000E+00  0.00000000000E+00  0.10149406653E+03  0.10149406653E+03  0.00000000000E+00 0.  1.
         13   -1    0    0    0    0 -0.00000000000E+00 -0.00000000000E+00 -0.10000000000E+04  0.10000000000E+04  0.00000000000E+00 0.  1.
    9000005    2    1    2  501    0  0.48847041615E-02  0.33925898018E-02 -0.89859731989E+03  0.11014024868E+04  0.63687541527E+03 0.  0.
         13    1    3    3    0    0 -0.10000115933E+03  0.30206413203E+03 -0.47118447067E+03  0.56855762868E+03  0.00000000000E+00 0.  1.
          1    1    3    3  501    0  0.10000604404E+03 -0.30206073944E+03 -0.42741284921E+03  0.53284485812E+03  0.00000000000E+00 0.  1.
         21    1    1    2  502  501 -0.48847041615E-02 -0.33925898018E-02  0.91386419721E-01  0.91579734165E-01  0.00000000000E+00 0. -1.
<mgrwt>
<rscale>  1 0.63687542E+03</rscale>
<asrwt>0</asrwt>
<pdfrwt beam="1">  1        1 0.36907011E+00 0.63687542E+03</pdfrwt>
<pdfrwt beam="2">0</pdfrwt>
<totfact> 0.18375826E+00</totfact>
</mgrwt>
</event>
<event>
 6    1  0.9034271E-003  0.6385326E+03  0.7818608E-02  0.9828538E-01
          1   -1    0    0  502    0  0.00000000000E+00  0.00000000000E+00  0.10236179573E+03  0.10236179573E+03  0.00000000000E+00 0.  1.
         13   -1    0    0    0    0 -0.00000000000E+00 -0.00000000000E+00 -0.10000000000E+04  0.10000000000E+04  0.00000000000E+00 0.  1.
    9000005    2    1    2  501    0 -0.53281795978E-02  0.58772200716E-02 -0.89806898896E+03  0.11019309380E+04  0.63853260146E+03 0.  0.
         13    1    3    3    0    0  0.10979597477E+03 -0.28879730061E+03 -0.31022234670E+03  0.43783209260E+03  0.00000000000E+00 0.  1.
          1    1    3    3  501    0 -0.10980130295E+03  0.28880317783E+03 -0.58784664226E+03  0.66409884541E+03  0.00000000000E+00 0.  1.
         21    1    1    2  502  501  0.53281795978E-02 -0.58772200716E-02  0.43078469323E+00  0.43085772957E+00  0.00000000000E+00 0. -1.
<mgrwt>
<rscale>  1 0.63853260E+03</rscale>
<asrwt>0</asrwt>
<pdfrwt beam="1">  1        1 0.37222550E+00 0.63853260E+03</pdfrwt>
<pdfrwt beam="2">0</pdfrwt>
<totfact> 0.17793197E+00</totfact>
</mgrwt>
</event>
<event>
 6    1  0.9034271E-003  0.6501235E+03  0.7818608E-02  0.9806548E-01
          1   -1    0    0  502    0  0.00000000000E+00  0.00000000000E+00  0.10566534780E+03  0.10566534780E+03  0.00000000000E+00 0.  1.
         13   -1    0    0    0    0 -0.00000000000E+00 -0.00000000000E+00 -0.10000000000E+04  0.10000000000E+04  0.00000000000E+00 0.  1.
    9000005    2    1    2  501    0 -0.91142960486E-04 -0.26125127752E-03 -0.89433477125E+03  0.11056650466E+04  0.65012345917E+03 0.  0.
         13    1    3    3    0    0  0.25222120694E+03 -0.18600571402E+03 -0.59397530614E+03  0.67158046963E+03  0.00000000000E+00 0.  1.
          1    1    3    3  501    0 -0.25222129809E+03  0.18600545277E+03 -0.30035946511E+03  0.43408457695E+03  0.00000000000E+00 0.  1.
         21    1    1    2  502  501  0.91142960494E-04  0.26125127752E-03  0.11904607626E-03  0.30121626371E-03  0.00000000000E+00 0. -1.
<mgrwt>
<rscale>  1 0.65012346E+03</rscale>
<asrwt>0</asrwt>
<pdfrwt beam="1">  1        1 0.38423844E+00 0.65012346E+03</pdfrwt>
<pdfrwt beam="2">0</pdfrwt>
<totfact> 0.15717022E+00</totfact>
</mgrwt>
</event>
<event>
 6    1  0.9034271E-003  0.6477930E+03  0.7818608E-02  0.9810929E-01
          1   -1    0    0  502    0  0.00000000000E+00  0.00000000000E+00  0.11328962808E+03  0.11328962808E+03  0.00000000000E+00 0.  1.
         13   -1    0    0    0    0 -0.00000000000E+00 -0.00000000000E+00 -0.10000000000E+04  0.10000000000E+04  0.00000000000E+00 0.  1.
    9000005    2    1    2  501    0 -0.15436915572E+02 -0.68459649835E+01 -0.88436940086E+03  0.10962412925E+04  0.64757282888E+03 0.  0.
         13    1    3    3    0    0  0.18558139010E+03 -0.22666859183E+03 -0.21436164932E+03  0.36300140437E+03  0.00000000000E+00 0.  1.
          3    1    3    3  501    0 -0.20101830568E+03  0.21982262684E+03 -0.67000775154E+03  0.73323988818E+03  0.00000000000E+00 0.  1.
         21    1    1    2  502  501  0.15436915572E+02  0.68459649835E+01 -0.23409710611E+01  0.17048335533E+02  0.00000000000E+00 0.  1.
<mgrwt>
<rscale>  1 0.64779297E+03</rscale>
<asrwt>0</asrwt>
<pdfrwt beam="1">  1        1 0.41196315E+00 0.64779297E+03</pdfrwt>
<pdfrwt beam="2">0</pdfrwt>
<totfact> 0.11833124E+00</totfact>
</mgrwt>
</event>
<event>
 6    1  0.9034271E-003  0.6519356E+03  0.7818608E-02  0.9803154E-01
          1   -1    0    0  502    0  0.00000000000E+00  0.00000000000E+00  0.10625545802E+03  0.10625545802E+03  0.00000000000E+00 0.  1.
         13   -1    0    0    0    0 -0.00000000000E+00 -0.00000000000E+00 -0.10000000000E+04  0.10000000000E+04  0.00000000000E+00 0.  1.
    9000005    2    1    2  501    0 -0.49321423130E-04  0.21253006821E-05 -0.89374498663E+03  0.11062550106E+04  0.65193561602E+03 0.  0.
         13    1    3    3    0    0 -0.32169419450E+01 -0.28659330108E+03 -0.71034761988E+03  0.76598943205E+03  0.00000000000E+00 0.  1.
          3    1    3    3  501    0  0.32168926236E+01  0.28659330321E+03 -0.18339736675E+03  0.34026557859E+03  0.00000000000E+00 0.  1.
         21    1    1    2  502  501  0.49321423130E-04 -0.21253006923E-05  0.44464577290E-03  0.44737789736E-03  0.00000000000E+00 0. -1.
<mgrwt>
<rscale>  1 0.65193562E+03</rscale>
<asrwt>0</asrwt>
<pdfrwt beam="1">  1        1 0.38638430E+00 0.65193562E+03</pdfrwt>
<pdfrwt beam="2">0</pdfrwt>
<totfact> 0.15372047E+00</totfact>
</mgrwt>
</event>
<event>
 6    1  0.9034271E-003  0.6425651E+03  0.7818608E-02  0.9820831E-01
          1   -1    0    0  502    0  0.00000000000E+00  0.00000000000E+00  0.10375814009E+03  0.10375814009E+03  0.00000000000E+00 0.  1.
         13   -1    0    0    0    0 -0.00000000000E+00 -0.00000000000E+00 -0.10000000000E+04  0.10000000000E+04  0.00000000000E+00 0.  1.
    9000005    2    1    2  501    0 -0.44233874153E+00 -0.40366983626E+00 -0.89658649995E+03  0.11030672062E+04  0.64256482229E+03 0.  0.
         13    1    3    3    0    0 -0.81726640447E+02  0.26481994967E+03 -0.16951743945E+03  0.32487691789E+03  0.00000000000E+00 0.  1.
          3    1    3    3  501    0  0.81284301705E+02 -0.26522361951E+03 -0.72706906051E+03  0.77819028829E+03  0.00000000000E+00 0.  1.
         21    1    1    2  502  501  0.44233874153E+00  0.40366983626E+00  0.34464004081E+00  0.69093390182E+00  0.00000000000E+00 0.  1.
<mgrwt>
<rscale>  1 0.64256510E+03</rscale>
<asrwt>0</asrwt>
<pdfrwt beam="1">  1        1 0.37730312E+00 0.64256510E+03</pdfrwt>
<pdfrwt beam="2">0</pdfrwt>
<totfact> 0.16888297E+00</totfact>
</mgrwt>
</event>
<event>
 6    1  0.9034271E-003  0.6539963E+03  0.7818608E-02  0.9799309E-01
          1   -1    0    0  502    0  0.00000000000E+00  0.00000000000E+00  0.10726022145E+03  0.10726022145E+03  0.00000000000E+00 0.  1.
         13   -1    0    0    0    0 -0.00000000000E+00 -0.00000000000E+00 -0.10000000000E+04  0.10000000000E+04  0.00000000000E+00 0.  1.
    9000005    2    1    2  501    0  0.26938103543E+00  0.97405534371E+00 -0.89152946393E+03  0.11056834490E+04  0.65399547623E+03 0.  0.
         13    1    3    3    0    0 -0.94689840002E+02 -0.31033716392E+03 -0.38355342365E+03  0.50238287182E+03  0.00000000000E+00 0.  1.
          1    1    3    3  501    0  0.94959221037E+02  0.31131121926E+03 -0.50797604028E+03  0.60330057715E+03  0.00000000000E+00 0.  1.
         21    1    1    2  502  501 -0.26938103543E+00 -0.97405534371E+00 -0.12103146236E+01  0.15767724766E+01  0.00000000000E+00 0.  1.
<mgrwt>
<rscale>  1 0.65399626E+03</rscale>
<asrwt>0</asrwt>
<pdfrwt beam="1">  1        1 0.39003799E+00 0.65399626E+03</pdfrwt>
<pdfrwt beam="2">0</pdfrwt>
<totfact> 0.14803965E+00</totfact>
</mgrwt>
</event>
<event>
 6    1  0.9034271E-003  0.6387873E+03  0.7818608E-02  0.9828049E-01
          1   -1    0    0  502    0  0.00000000000E+00  0.00000000000E+00  0.10261325816E+03  0.10261325816E+03  0.00000000000E+00 0.  1.
         13   -1    0    0    0    0 -0.00000000000E+00 -0.00000000000E+00 -0.10000000000E+04  0.10000000000E+04  0.00000000000E+00 0.  1.
    9000005    2    1    2  501    0 -0.33835022838E-02  0.43887945172E-01 -0.89798680257E+03  0.11020115851E+04  0.63878731528E+03 0.  0.
         13    1    3    3    0    0  0.46042990710E+02 -0.15715481220E+03 -0.92202365417E+03  0.93645352839E+03  0.00000000000E+00 0.  1.
          3    1    3    3  501    0 -0.46046374212E+02  0.15719870014E+03  0.24036851606E+02  0.16555805670E+03  0.00000000000E+00 0.  1.
         21    1    1    2  502  501  0.33835022838E-02 -0.43887945172E-01  0.60006072800E+00  0.60167306497E+00  0.00000000000E+00 0.  1.
<mgrwt>
<rscale>  1 0.63878732E+03</rscale>
<asrwt>0</asrwt>
<pdfrwt beam="1">  1        1 0.37313991E+00 0.63878732E+03</pdfrwt>
<pdfrwt beam="2">0</pdfrwt>
<totfact> 0.17628412E+00</totfact>
</mgrwt>
</event>
<event>
 6    1  0.9034271E-003  0.6541047E+03  0.7818608E-02  0.9799107E-01
          1   -1    0    0  502    0  0.00000000000E+00  0.00000000000E+00  0.10707029404E+03  0.10707029404E+03  0.00000000000E+00 0.  1.
         13   -1    0    0    0    0 -0.00000000000E+00 -0.00000000000E+00 -0.10000000000E+04  0.10000000000E+04  0.00000000000E+00 0.  1.
    9000005    2    1    2  501    0 -0.66807508645E-02  0.10528974426E+00 -0.89300718401E+03  0.11069393994E+04  0.65410472563E+03 0.  0.
         13    1    3    3    0    0  0.20011916484E+03  0.24627731700E+03 -0.58074501790E+03  0.66178922085E+03  0.00000000000E+00 0.  1.
          3    1    3    3  501    0 -0.20012584559E+03 -0.24617202726E+03 -0.31226216610E+03  0.44515017854E+03  0.00000000000E+00 0.  1.
         21    1    1    2  502  501  0.66807508645E-02 -0.10528974426E+00  0.77478044155E-01  0.13089465231E+00  0.00000000000E+00 0. -1.
<mgrwt>
<rscale>  1 0.65410473E+03</rscale>
<asrwt>0</asrwt>
<pdfrwt beam="1">  1        1 0.38934734E+00 0.65410473E+03</pdfrwt>
<pdfrwt beam="2">0</pdfrwt>
<totfact> 0.14908420E+00</totfact>
</mgrwt>
</event>
<event>
 6    1  0.9034271E-003  0.6500586E+03  0.7818608E-02  0.9806669E-01
          1   -1    0    0  502    0  0.00000000000E+00  0.00000000000E+00  0.10572192953E+03  0.10572192953E+03  0.00000000000E+00 0.  1.
         13   -1    0    0    0    0 -0.00000000000E+00 -0.00000000000E+00 -0.10000000000E+04  0.10000000000E+04  0.00000000000E+00 0.  1.
    9000005    2    1    2  501    0  0.76628157810E-02 -0.17747803225E-02 -0.89435573830E+03  0.11056438644E+04  0.65005858831E+03 0.  0.
         13    1    3    3    0    0 -0.80320046250E+02  0.30709573489E+03 -0.56603681938E+03  0.64896593216E+03  0.00000000000E+00 0.  1.
          3    1    3    3  501    0  0.80327709066E+02 -0.30709750967E+03 -0.32831891892E+03  0.45667793226E+03  0.00000000000E+00 0.  1.
         21    1    1    2  502  501 -0.76628157810E-02  0.17747803225E-02  0.77667834276E-01  0.78065107904E-01  0.00000000000E+00 0. -1.
<mgrwt>
<rscale>  1 0.65005859E+03</rscale>
<asrwt>0</asrwt>
<pdfrwt beam="1">  1        1 0.38444419E+00 0.65005859E+03</pdfrwt>
<pdfrwt beam="2">0</pdfrwt>
<totfact> 0.15684319E+00</totfact>
</mgrwt>
</event>
<event>
 6    1  0.9034271E-003  0.6562360E+03  0.7818608E-02  0.9795148E-01
          1   -1    0    0  502    0  0.00000000000E+00  0.00000000000E+00  0.10772191233E+03  0.10772191233E+03  0.00000000000E+00 0.  1.
         13   -1    0    0    0    0 -0.00000000000E+00 -0.00000000000E+00 -0.10000000000E+04  0.10000000000E+04  0.00000000000E+00 0.  1.
    9000005    2    1    2  501    0  0.32248458989E-02 -0.27461080045E-03 -0.89233851760E+03  0.11076613958E+04  0.65623603812E+03 0.  0.
         13    1    3    3    0    0 -0.74613097415E+02 -0.11827484616E+03 -0.94718027248E+03  0.95744792136E+03  0.00000000000E+00 0.  1.
          3    1    3    3  501    0  0.74616322261E+02  0.11827457155E+03  0.54841754881E+02  0.15021347443E+03  0.00000000000E+00 0.  1.
         21    1    1    2  502  501 -0.32248458989E-02  0.27461080045E-03  0.60429931891E-01  0.60516540801E-01  0.00000000000E+00 0.  1.
<mgrwt>
<rscale>  1 0.65623604E+03</rscale>
<asrwt>0</asrwt>
<pdfrwt beam="1">  1        1 0.39171687E+00 0.65623604E+03</pdfrwt>
<pdfrwt beam="2">0</pdfrwt>
<totfact> 0.14546168E+00</totfact>
</mgrwt>
</event>
<event>
 6    1  0.9034271E-003  0.6696380E+03  0.7818608E-02  0.9770612E-01
          1   -1    0    0  502    0  0.00000000000E+00  0.00000000000E+00  0.11217537416E+03  0.11217537416E+03  0.00000000000E+00 0.  1.
         13   -1    0    0    0    0 -0.00000000000E+00 -0.00000000000E+00 -0.10000000000E+04  0.10000000000E+04  0.00000000000E+00 0.  1.
    9000005    2    1    2  501    0  0.11517224587E-02 -0.72361797535E-03 -0.88789622698E+03  0.11121037601E+04  0.66963800918E+03 0.  0.
         13    1    3    3    0    0 -0.22781067462E+03 -0.20585363721E+03 -0.66570812383E+03  0.73310349171E+03  0.00000000000E+00 0.  1.
          3    1    3    3  501    0  0.22781182634E+03  0.20585291359E+03 -0.22218810315E+03  0.37900026839E+03  0.00000000000E+00 0.  1.
         21    1    1    2  502  501 -0.11517224587E-02  0.72361797534E-03  0.71601143562E-01  0.71614061797E-01  0.00000000000E+00 0. -1.
<mgrwt>
<rscale>  1 0.66963801E+03</rscale>
<asrwt>0</asrwt>
<pdfrwt beam="1">  1        1 0.40791131E+00 0.66963801E+03</pdfrwt>
<pdfrwt beam="2">0</pdfrwt>
<totfact> 0.12287056E+00</totfact>
</mgrwt>
</event>
<event>
 6    1  0.9034271E-003  0.6500588E+03  0.7818608E-02  0.9806669E-01
          1   -1    0    0  502    0  0.00000000000E+00  0.00000000000E+00  0.10564432809E+03  0.10564432809E+03  0.00000000000E+00 0.  1.
         13   -1    0    0    0    0 -0.00000000000E+00 -0.00000000000E+00 -0.10000000000E+04  0.10000000000E+04  0.00000000000E+00 0.  1.
    9000005    2    1    2  501    0 -0.52853121355E-03 -0.65528986752E-04 -0.89435539376E+03  0.11056437272E+04  0.65005882907E+03 0.  0.
         13    1    3    3    0    0  0.30717197059E+03 -0.92675386193E+02 -0.53556552118E+03  0.62431864797E+03  0.00000000000E+00 0.  1.
          3    1    3    3  501    0 -0.30717249912E+03  0.92675320664E+02 -0.35878987258E+03  0.48132507928E+03  0.00000000000E+00 0.  1.
         21    1    1    2  502  501  0.52853121354E-03  0.65528986742E-04 -0.27815559723E-03  0.60084093408E-03  0.00000000000E+00 0.  1.
<mgrwt>
<rscale>  1 0.65005883E+03</rscale>
<asrwt>0</asrwt>
<pdfrwt beam="1">  1        1 0.38416200E+00 0.65005883E+03</pdfrwt>
<pdfrwt beam="2">0</pdfrwt>
<totfact> 0.15729445E+00</totfact>
</mgrwt>
</event>
<event>
 6    1  0.9034271E-003  0.6443810E+03  0.7818608E-02  0.9817380E-01
          1   -1    0    0  502    0  0.00000000000E+00  0.00000000000E+00  0.10380919508E+03  0.10380919508E+03  0.00000000000E+00 0.  1.
         13   -1    0    0    0    0 -0.00000000000E+00 -0.00000000000E+00 -0.10000000000E+04  0.10000000000E+04  0.00000000000E+00 0.  1.
    9000005    2    1    2  501    0  0.55813408119E-03 -0.28601296927E-03 -0.89619323164E+03  0.11038066886E+04  0.64438101883E+03 0.  0.
         13    1    3    3    0    0 -0.10496288651E+03  0.21130692859E+03 -0.82393187731E+03  0.85704816905E+03  0.00000000000E+00 0.  1.
          3    1    3    3  501    0  0.10496344465E+03 -0.21130721461E+03 -0.72261354330E+02  0.24675851958E+03  0.00000000000E+00 0.  1.
         21    1    1    2  502  501 -0.55813408120E-03  0.28601296926E-03  0.24267250842E-02  0.25064540102E-02  0.00000000000E+00 0.  1.
<mgrwt>
<rscale>  1 0.64438102E+03</rscale>
<asrwt>0</asrwt>
<pdfrwt beam="1">  1        1 0.37748878E+00 0.64438102E+03</pdfrwt>
<pdfrwt beam="2">0</pdfrwt>
<totfact> 0.16850896E+00</totfact>
</mgrwt>
</event>
<event>
 6    1  0.9034271E-003  0.6447409E+03  0.7818608E-02  0.9816698E-01
          1   -1    0    0  502    0  0.00000000000E+00  0.00000000000E+00  0.10392290234E+03  0.10392290234E+03  0.00000000000E+00 0.  1.
         13   -1    0    0    0    0 -0.00000000000E+00 -0.00000000000E+00 -0.10000000000E+04  0.10000000000E+04  0.00000000000E+00 0.  1.
    9000005    2    1    2  501    0 -0.57630697796E-04  0.16347907746E-04 -0.89607728616E+03  0.11039227045E+04  0.64474090519E+03 0.  0.
         13    1    3    3    0    0 -0.21344141357E+03  0.22859733154E+03 -0.31421605518E+03  0.44333475653E+03  0.00000000000E+00 0.  1.
          1    1    3    3  501    0  0.21344135594E+03 -0.22859731519E+03 -0.58186123098E+03  0.66058794801E+03  0.00000000000E+00 0.  1.
         21    1    1    2  502  501  0.57630697804E-04 -0.16347907748E-04  0.18850769001E-03  0.19779711982E-03  0.00000000000E+00 0.  1.
<mgrwt>
<rscale>  1 0.64474091E+03</rscale>
<asrwt>0</asrwt>
<pdfrwt beam="1">  1        1 0.37790226E+00 0.64474091E+03</pdfrwt>
<pdfrwt beam="2">0</pdfrwt>
<totfact> 0.16779228E+00</totfact>
</mgrwt>
</event>
<event>
 6    1  0.9034271E-003  0.6457792E+03  0.7818608E-02  0.9814732E-01
          1   -1    0    0  502    0  0.00000000000E+00  0.00000000000E+00  0.10427475712E+03  0.10427475712E+03  0.00000000000E+00 0.  1.
         13   -1    0    0    0    0 -0.00000000000E+00 -0.00000000000E+00 -0.10000000000E+04  0.10000000000E+04  0.00000000000E+00 0.  1.
    9000005    2    1    2  501    0 -0.41896073353E-03  0.80293572330E-03 -0.89574230555E+03  0.11042576704E+04  0.64577916098E+03 0.  0.
         13    1    3    3    0    0  0.43849896829E+02 -0.16230888454E+03  0.23503767811E+02  0.16976281853E+03  0.00000000000E+00 0.  1.
          3    1    3    3  501    0 -0.43850315790E+02  0.16230968748E+03 -0.91924607336E+03  0.93449485190E+03  0.00000000000E+00 0.  1.
         21    1    1    2  502  501  0.41896073353E-03 -0.80293572330E-03  0.17062668024E-01  0.17086687039E-01  0.00000000000E+00 0.  1.
<mgrwt>
<rscale>  1 0.64577916E+03</rscale>
<asrwt>0</asrwt>
<pdfrwt beam="1">  1        1 0.37918173E+00 0.64577916E+03</pdfrwt>
<pdfrwt beam="2">0</pdfrwt>
<totfact> 0.16559524E+00</totfact>
</mgrwt>
</event>
<event>
 6    1  0.9034271E-003  0.6510125E+03  0.7818608E-02  0.9804881E-01
          3   -1    0    0  502    0  0.00000000000E+00  0.00000000000E+00  0.10612255928E+03  0.10612255928E+03  0.00000000000E+00 0.  1.
         13   -1    0    0    0    0 -0.00000000000E+00 -0.00000000000E+00 -0.10000000000E+04  0.10000000000E+04  0.00000000000E+00 0.  1.
    9000005    2    1    2  501    0 -0.17532709365E-01 -0.10845511053E-01 -0.89404497139E+03  0.11059537649E+04  0.65101253352E+03 0.  0.
         13    1    3    3    0    0  0.22189095029E+03 -0.20440255994E+03 -0.65464140308E+03  0.72081299028E+03  0.00000000000E+00 0.  1.
          3    1    3    3  501    0 -0.22190848300E+03  0.20439171443E+03 -0.23940356831E+03  0.38514077462E+03  0.00000000000E+00 0.  1.
         21    1    1    2  502  501  0.17532709365E-01  0.10845511053E-01  0.16753066557E+00  0.16879438650E+00  0.00000000000E+00 0. -1.
<mgrwt>
<rscale>  1 0.65101253E+03</rscale>
<asrwt>0</asrwt>
<pdfrwt beam="1">  1        3 0.38590103E+00 0.65101253E+03</pdfrwt>
<pdfrwt beam="2">0</pdfrwt>
<totfact> 0.70245390E-02</totfact>
</mgrwt>
</event>
<event>
 6    1  0.9034271E-003  0.6461376E+03  0.7818608E-02  0.9814054E-01
          1   -1    0    0  502    0  0.00000000000E+00  0.00000000000E+00  0.10451221018E+03  0.10451221018E+03  0.00000000000E+00 0.  1.
         13   -1    0    0    0    0 -0.00000000000E+00 -0.00000000000E+00 -0.10000000000E+04  0.10000000000E+04  0.00000000000E+00 0.  1.
    9000005    2    1    2  501    0 -0.33622942744E+00 -0.28038616201E-01 -0.89534673227E+03  0.11041465141E+04  0.64613747746E+03 0.  0.
         13    1    3    3    0    0 -0.28876700668E+03  0.13464305319E+03 -0.35503463123E+03  0.47703744643E+03  0.00000000000E+00 0.  1.
          3    1    3    3  501    0  0.28843077725E+03 -0.13467109180E+03 -0.54031210104E+03  0.62710906767E+03  0.00000000000E+00 0.  1.
         21    1    1    2  502  501  0.33622942744E+00  0.28038616201E-01 -0.14105754766E+00  0.36569608096E+00  0.00000000000E+00 0.  1.
<mgrwt>
<rscale>  1 0.64613757E+03</rscale>
<asrwt>0</asrwt>
<pdfrwt beam="1">  1        1 0.38004520E+00 0.64613757E+03</pdfrwt>
<pdfrwt beam="2">0</pdfrwt>
<totfact> 0.16413838E+00</totfact>
</mgrwt>
</event>
<event>
 6    1  0.9034271E-003  0.6491768E+03  0.7818608E-02  0.9808325E-01
          1   -1    0    0  502    0  0.00000000000E+00  0.00000000000E+00  0.10545566749E+03  0.10545566749E+03  0.00000000000E+00 0.  1.
         13   -1    0    0    0    0 -0.00000000000E+00 -0.00000000000E+00 -0.10000000000E+04  0.10000000000E+04  0.00000000000E+00 0.  1.
    9000005    2    1    2  501    0 -0.57566278435E-01  0.48436132527E-01 -0.89462615020E+03  0.11053445186E+04  0.64917682536E+03 0.  0.
         13    1    3    3    0    0 -0.17252867414E+03 -0.27384746786E+03 -0.48886427258E+03  0.58629928881E+03  0.00000000000E+00 0.  1.
          3    1    3    3  501    0  0.17247110786E+03  0.27389590399E+03 -0.40576187762E+03  0.51904522982E+03  0.00000000000E+00 0.  1.
         21    1    1    2  502  501  0.57566278435E-01 -0.48436132527E-01  0.81817685826E-01  0.11114885992E+00  0.00000000000E+00 0. -1.
<mgrwt>
<rscale>  1 0.64917683E+03</rscale>
<asrwt>0</asrwt>
<pdfrwt beam="1">  1        1 0.38347596E+00 0.64917683E+03</pdfrwt>
<pdfrwt beam="2">0</pdfrwt>
<totfact> 0.15842245E+00</totfact>
</mgrwt>
</event>
<event>
 6    1  0.9034271E-003  0.6383434E+03  0.7818608E-02  0.9828901E-01
          1   -1    0    0  502    0  0.00000000000E+00  0.00000000000E+00  0.10187652702E+03  0.10187652702E+03  0.00000000000E+00 0.  1.
         13   -1    0    0    0    0 -0.00000000000E+00 -0.00000000000E+00 -0.10000000000E+04  0.10000000000E+04  0.00000000000E+00 0.  1.
    9000005    2    1    2  501    0  0.53771515395E-02 -0.80416141291E-02 -0.89812477021E+03  0.11018667667E+04  0.63834337826E+03 0.  0.
         13    1    3    3    0    0 -0.15394833606E+03  0.11937004515E+03 -0.88546508354E+03  0.90664089474E+03  0.00000000000E+00 0.  1.
          1    1    3    3  501    0  0.15395371321E+03 -0.11937808676E+03 -0.12659686672E+02  0.19522587195E+03  0.00000000000E+00 0.  1.
         21    1    1    2  502  501 -0.53771515395E-02  0.80416141291E-02  0.12972300888E-02  0.97603341328E-02  0.00000000000E+00 0. -1.
<mgrwt>
<rscale>  1 0.63834338E+03</rscale>
<asrwt>0</asrwt>
<pdfrwt beam="1">  1        1 0.37046088E+00 0.63834338E+03</pdfrwt>
<pdfrwt beam="2">0</pdfrwt>
<totfact> 0.18114376E+00</totfact>
</mgrwt>
</event>
<event>
 6    1  0.9034271E-003  0.6467994E+03  0.7818608E-02  0.9812803E-01
          1   -1    0    0  502    0  0.00000000000E+00  0.00000000000E+00  0.10458961253E+03  0.10458961253E+03  0.00000000000E+00 0.  1.
         13   -1    0    0    0    0 -0.00000000000E+00 -0.00000000000E+00 -0.10000000000E+04  0.10000000000E+04  0.00000000000E+00 0.  1.
    9000005    2    1    2  501    0 -0.17173255620E-02  0.30261965474E-02 -0.89541101282E+03  0.11045860773E+04  0.64679944354E+03 0.  0.
         13    1    3    3    0    0 -0.29811556981E+03 -0.12535732531E+03 -0.44702124248E+03  0.55173847355E+03  0.00000000000E+00 0.  1.
          3    1    3    3  501    0  0.29811385248E+03  0.12536035150E+03 -0.44838977034E+03  0.55284760370E+03  0.00000000000E+00 0.  1.
         21    1    1    2  502  501  0.17173255620E-02 -0.30261965474E-02  0.62534896712E-03  0.35352699982E-02  0.00000000000E+00 0. -1.
<mgrwt>
<rscale>  1 0.64679944E+03</rscale>
<asrwt>0</asrwt>
<pdfrwt beam="1">  1        1 0.38032667E+00 0.64679944E+03</pdfrwt>
<pdfrwt beam="2">0</pdfrwt>
<totfact> 0.16364973E+00</totfact>
</mgrwt>
</event>
<event>
 6    1  0.9034271E-003  0.6540930E+03  0.7818608E-02  0.9799129E-01
          1   -1    0    0  502    0  0.00000000000E+00  0.00000000000E+00  0.10749562362E+03  0.10749562362E+03  0.00000000000E+00 0.  1.
         13   -1    0    0    0    0 -0.00000000000E+00 -0.00000000000E+00 -0.10000000000E+04  0.10000000000E+04  0.00000000000E+00 0.  1.
    9000005    2    1    2  501    0 -0.31977394820E-01 -0.49054499937E-01 -0.89303882077E+03  0.11069579809E+04  0.65409298469E+03 0.  0.
         13    1    3    3    0    0 -0.13769287384E+02 -0.21711184322E+03 -0.85984946643E+03  0.88694320600E+03  0.00000000000E+00 0.  1.
          1    1    3    3  501    0  0.13737309989E+02  0.21706278872E+03 -0.33189354339E+02  0.22001477489E+03  0.00000000000E+00 0.  1.
         21    1    1    2  502  501  0.31977394820E-01  0.49054499937E-01  0.53444439448E+00  0.53764273317E+00  0.00000000000E+00 0. -1.
<mgrwt>
<rscale>  1 0.65409299E+03</rscale>
<asrwt>0</asrwt>
<pdfrwt beam="1">  1        1 0.39089400E+00 0.65409299E+03</pdfrwt>
<pdfrwt beam="2">0</pdfrwt>
<totfact> 0.14674835E+00</totfact>
</mgrwt>
</event>
<event>
 6    1  0.9034271E-003  0.6593910E+03  0.7818608E-02  0.9789315E-01
          1   -1    0    0  502    0  0.00000000000E+00  0.00000000000E+00  0.11477093688E+03  0.11477093688E+03  0.00000000000E+00 0.  1.
         13   -1    0    0    0    0 -0.00000000000E+00 -0.00000000000E+00 -0.10000000000E+04  0.10000000000E+04  0.00000000000E+00 0.  1.
    9000005    2    1    2  501    0  0.85873082306E+01  0.27555953424E+01 -0.88733142287E+03  0.11055105327E+04  0.65932931743E+03 0.  0.
         13    1    3    3    0    0  0.18232115619E+03  0.21664111515E+03 -0.15444415796E+03  0.32253274980E+03  0.00000000000E+00 0.  1.
          1    1    3    3  501    0 -0.17373384796E+03 -0.21388551981E+03 -0.73288726491E+03  0.78297778294E+03  0.00000000000E+00 0.  1.
         21    1    1    2  502  501 -0.85873082306E+01 -0.27555953424E+01  0.21023597533E+01  0.92604041419E+01  0.00000000000E+00 0.  1.
<mgrwt>
<rscale>  1 0.65939099E+03</rscale>
<asrwt>0</asrwt>
<pdfrwt beam="1">  1        1 0.41734974E+00 0.65939099E+03</pdfrwt>
<pdfrwt beam="2">0</pdfrwt>
<totfact> 0.11166107E+00</totfact>
</mgrwt>
</event>
<event>
 6    1  0.9034271E-003  0.6698321E+03  0.7818608E-02  0.9770261E-01
          1   -1    0    0  502    0  0.00000000000E+00  0.00000000000E+00  0.11216965656E+03  0.11216965656E+03  0.00000000000E+00 0.  1.
         13   -1    0    0    0    0 -0.00000000000E+00 -0.00000000000E+00 -0.10000000000E+04  0.10000000000E+04  0.00000000000E+00 0.  1.
    9000005    2    1    2  501    0  0.23347401526E-03 -0.15205967830E-03 -0.88783122081E+03  0.11121687360E+04  0.66983208396E+03 0.  0.
         13    1    3    3    0    0 -0.22029958687E+03 -0.17342094704E+03 -0.74809414603E+03  0.79890649276E+03  0.00000000000E+00 0.  1.
          3    1    3    3  501    0  0.22029982035E+03  0.17342079498E+03 -0.13973707478E+03  0.31326224325E+03  0.00000000000E+00 0.  1.
         21    1    1    2  502  501 -0.23347401524E-03  0.15205967830E-03  0.87737459501E-03  0.92055333443E-03  0.00000000000E+00 0. -1.
<mgrwt>
<rscale>  1 0.66983208E+03</rscale>
<asrwt>0</asrwt>
<pdfrwt beam="1">  1        1 0.40789052E+00 0.66983208E+03</pdfrwt>
<pdfrwt beam="2">0</pdfrwt>
<totfact> 0.12289242E+00</totfact>
</mgrwt>
</event>
<event>
 6    1  0.9034271E-003  0.6407539E+03  0.7818608E-02  0.9824285E-01
          1   -1    0    0  502    0  0.00000000000E+00  0.00000000000E+00  0.10265109073E+03  0.10265109073E+03  0.00000000000E+00 0.  1.
         13   -1    0    0    0    0 -0.00000000000E+00 -0.00000000000E+00 -0.10000000000E+04  0.10000000000E+04  0.00000000000E+00 0.  1.
    9000005    2    1    2  501    0  0.45186549499E-04 -0.14200327234E-03 -0.89735861890E+03  0.11026413800E+04  0.64075386998E+03 0.  0.
         13    1    3    3    0    0  0.24402401554E+03 -0.20719768741E+03 -0.42672124947E+03  0.53345067867E+03  0.00000000000E+00 0.  1.
          1    1    3    3  501    0 -0.24402397036E+03  0.20719754540E+03 -0.47063736943E+03  0.56919070129E+03  0.00000000000E+00 0.  1.
         21    1    1    2  502  501 -0.45186549509E-04  0.14200327235E-03  0.97096233430E-02  0.97107668192E-02  0.00000000000E+00 0.  1.
<mgrwt>
<rscale>  1 0.64075387E+03</rscale>
<asrwt>0</asrwt>
<pdfrwt beam="1">  1        1 0.37327748E+00 0.64075387E+03</pdfrwt>
<pdfrwt beam="2">0</pdfrwt>
<totfact> 0.17597540E+00</totfact>
</mgrwt>
</event>
<event>
 6    1  0.9034271E-003  0.6504530E+03  0.7818608E-02  0.9805930E-01
          1   -1    0    0  502    0  0.00000000000E+00  0.00000000000E+00  0.11104414488E+03  0.11104414488E+03  0.00000000000E+00 0.  1.
         13   -1    0    0    0    0 -0.00000000000E+00 -0.00000000000E+00 -0.10000000000E+04  0.10000000000E+04  0.00000000000E+00 0.  1.
    9000005    2    1    2  501    0  0.97861716465E+01  0.11964334738E+02 -0.87450335872E+03  0.10898831167E+04  0.65026930513E+03 0.  0.
         13    1    3    3    0    0 -0.11742691015E+03  0.30252006295E+03 -0.53122708817E+03  0.62250276057E+03  0.00000000000E+00 0.  1.
          3    1    3    3  501    0  0.12721308180E+03 -0.29055572821E+03 -0.34327627054E+03  0.46738035612E+03  0.00000000000E+00 0.  1.
         21    1    1    2  502  501 -0.97861716465E+01 -0.11964334738E+02 -0.14452496407E+02  0.21161028180E+02  0.00000000000E+00 0. -1.
<mgrwt>
<rscale>  1 0.65045298E+03</rscale>
<asrwt>0</asrwt>
<pdfrwt beam="1">  1        1 0.40379774E+00 0.65045298E+03</pdfrwt>
<pdfrwt beam="2">0</pdfrwt>
<totfact> 0.12865657E+00</totfact>
</mgrwt>
</event>
<event>
 6    1  0.9034271E-003  0.6530770E+03  0.7818608E-02  0.9801022E-01
          1   -1    0    0  502    0  0.00000000000E+00  0.00000000000E+00  0.10662745888E+03  0.10662745888E+03  0.00000000000E+00 0.  1.
         13   -1    0    0    0    0 -0.00000000000E+00 -0.00000000000E+00 -0.10000000000E+04  0.10000000000E+04  0.00000000000E+00 0.  1.
    9000005    2    1    2  501    0 -0.45786496003E-04  0.14092388014E-03 -0.89337242596E+03  0.11066272712E+04  0.65307704440E+03 0.  0.
         13    1    3    3    0    0  0.30400074585E+03  0.93359270523E+02 -0.32107721295E+03  0.45191037114E+03  0.00000000000E+00 0.  1.
          3    1    3    3  501    0 -0.30400079164E+03 -0.93359129599E+02 -0.57229521301E+03  0.65471690006E+03  0.00000000000E+00 0.  1.
         21    1    1    2  502  501  0.45786495953E-04 -0.14092388015E-03 -0.11516642679E-03  0.18766792231E-03  0.00000000000E+00 0. -1.
<mgrwt>
<rscale>  1 0.65307704E+03</rscale>
<asrwt>0</asrwt>
<pdfrwt beam="1">  1        1 0.38773703E+00 0.65307704E+03</pdfrwt>
<pdfrwt beam="2">0</pdfrwt>
<totfact> 0.15158289E+00</totfact>
</mgrwt>
</event>
<event>
 6    1  0.9034271E-003  0.5597674E+03  0.7818608E-02  0.9992581E-01
          1   -1    0    0  502    0  0.00000000000E+00  0.00000000000E+00  0.78642095962E+02  0.78642095962E+02  0.00000000000E+00 0.  1.
         13   -1    0    0    0    0 -0.00000000000E+00 -0.00000000000E+00 -0.10000000000E+04  0.10000000000E+04  0.00000000000E+00 0.  1.
    9000005    2    1    2  501    0 -0.77683029311E-01 -0.17087945744E+00 -0.92163396933E+03  0.10783082599E+04  0.55976735774E+03 0.  0.
         13    1    3    3    0    0  0.27474844487E+03 -0.21044308370E+02 -0.55489111599E+03  0.61954315546E+03  0.00000000000E+00 0.  1.
          1    1    3    3  501    0 -0.27482612790E+03  0.20873428912E+02 -0.36674285335E+03  0.45876510448E+03  0.00000000000E+00 0.  1.
         21    1    1    2  502  501  0.77683029311E-01  0.17087945744E+00  0.27606529581E+00  0.33383602198E+00  0.00000000000E+00 0.  1.
<mgrwt>
<rscale>  1 0.55976739E+03</rscale>
<asrwt>0</asrwt>
<pdfrwt beam="1">  1        1 0.28597186E+00 0.55976739E+03</pdfrwt>
<pdfrwt beam="2">0</pdfrwt>
<totfact> 0.42716793E+00</totfact>
</mgrwt>
</event>
<event>
 6    1  0.9034271E-003  0.6346712E+03  0.7818608E-02  0.9835975E-01
          1   -1    0    0  502    0  0.00000000000E+00  0.00000000000E+00  0.10130463485E+03  0.10130463485E+03  0.00000000000E+00 0.  1.
         13   -1    0    0    0    0 -0.00000000000E+00 -0.00000000000E+00 -0.10000000000E+04  0.10000000000E+04  0.00000000000E+00 0.  1.
    9000005    2    1    2  501    0 -0.85848708460E-01 -0.22947226932E-01 -0.89929450128E+03  0.11006989446E+04  0.63467122097E+03 0.  0.
         13    1    3    3    0    0 -0.66488251584E+02 -0.14707093162E+03  0.24208755897E+02  0.16320726206E+03  0.00000000000E+00 0.  1.
          1    1    3    3  501    0  0.66402402875E+02  0.14704798440E+03 -0.92350325718E+03  0.93749168254E+03  0.00000000000E+00 0.  1.
         21    1    1    2  502  501  0.85848708460E-01  0.22947226932E-01  0.59913612543E+00  0.60569024490E+00  0.00000000000E+00 0.  1.
<mgrwt>
<rscale>  1 0.63467123E+03</rscale>
<asrwt>0</asrwt>
<pdfrwt beam="1">  1        1 0.36838127E+00 0.63467123E+03</pdfrwt>
<pdfrwt beam="2">0</pdfrwt>
<totfact> 0.18511634E+00</totfact>
</mgrwt>
</event>
<event>
 6    1  0.9034271E-003  0.6460458E+03  0.7818608E-02  0.9814227E-01
          3   -1    0    0  502    0  0.00000000000E+00  0.00000000000E+00  0.10463313192E+03  0.10463313192E+03  0.00000000000E+00 0.  1.
         13   -1    0    0    0    0 -0.00000000000E+00 -0.00000000000E+00 -0.10000000000E+04  0.10000000000E+04  0.00000000000E+00 0.  1.
    9000005    2    1    2  501    0  0.15170346668E-01 -0.29723191120E-01 -0.89565513348E+03  0.11043429414E+04  0.64604582883E+03 0.  0.
         13    1    3    3    0    0  0.15245215680E+03 -0.57439034435E+02  0.28978627303E+02  0.16547103562E+03  0.00000000000E+00 0.  1.
          3    1    3    3  501    0 -0.15243698645E+03  0.57409311244E+02 -0.92463376078E+03  0.93887190576E+03  0.00000000000E+00 0.  1.
         21    1    1    2  502  501 -0.15170346668E-01  0.29723191120E-01  0.28826540008E+00  0.29019053808E+00  0.00000000000E+00 0.  1.
<mgrwt>
<rscale>  1 0.64604583E+03</rscale>
<asrwt>0</asrwt>
<pdfrwt beam="1">  1        3 0.38048492E+00 0.64604583E+03</pdfrwt>
<pdfrwt beam="2">0</pdfrwt>
<totfact> 0.75084449E-02</totfact>
</mgrwt>
</event>
<event>
 6    1  0.9034271E-003  0.6531477E+03  0.7818608E-02  0.9800891E-01
          1   -1    0    0  502    0  0.00000000000E+00  0.00000000000E+00  0.11171347886E+03  0.11171347886E+03  0.00000000000E+00 0.  1.
         13   -1    0    0    0    0 -0.00000000000E+00 -0.00000000000E+00 -0.10000000000E+04  0.10000000000E+04  0.00000000000E+00 0.  1.
    9000005    2    1    2  501    0  0.32473587306E+01 -0.96775702807E+00 -0.89271439843E+03  0.11061378184E+04  0.65313887820E+03 0.  0.
         13    1    3    3    0    0  0.26589343224E+03 -0.13728171191E+03 -0.67625967129E+03  0.73950843723E+03  0.00000000000E+00 0.  1.
          1    1    3    3  501    0 -0.26264607351E+03  0.13631395488E+03 -0.21645472714E+03  0.36662938116E+03  0.00000000000E+00 0.  1.
         21    1    1    2  502  501 -0.32473587306E+01  0.96775702807E+00  0.44278772932E+01  0.55756604733E+01  0.00000000000E+00 0. -1.
<mgrwt>
<rscale>  1 0.65314767E+03</rscale>
<asrwt>0</asrwt>
<pdfrwt beam="1">  1        1 0.40623169E+00 0.65314767E+03</pdfrwt>
<pdfrwt beam="2">0</pdfrwt>
<totfact> 0.12540878E+00</totfact>
</mgrwt>
</event>
<event>
 6    1  0.9034271E-003  0.6352388E+03  0.7818608E-02  0.9834879E-01
          1   -1    0    0  502    0  0.00000000000E+00  0.00000000000E+00  0.10088208492E+03  0.10088208492E+03  0.00000000000E+00 0.  1.
         13   -1    0    0    0    0 -0.00000000000E+00 -0.00000000000E+00 -0.10000000000E+04  0.10000000000E+04  0.00000000000E+00 0.  1.
    9000005    2    1    2  501    0 -0.12242858134E-04  0.36586594092E-05 -0.89911792964E+03  0.11008820656E+04  0.63523875106E+03 0.  0.
         13    1    3    3    0    0 -0.18652648840E+03  0.19560222143E+03 -0.16045226905E+03  0.31432036292E+03  0.00000000000E+00 0.  1.
          1    1    3    3  501    0  0.18652647616E+03 -0.19560221777E+03 -0.73866566059E+03  0.78656170263E+03  0.00000000000E+00 0.  1.
         21    1    1    2  502  501  0.12242858108E-04 -0.36586594156E-05  0.14560871024E-04  0.19372463146E-04  0.00000000000E+00 0. -1.
<mgrwt>
<rscale>  1 0.63523875E+03</rscale>
<asrwt>0</asrwt>
<pdfrwt beam="1">  1        1 0.36684472E+00 0.63523875E+03</pdfrwt>
<pdfrwt beam="2">0</pdfrwt>
<totfact> 0.18799267E+00</totfact>
</mgrwt>
</event>
<event>
 6    1  0.9034271E-003  0.6603830E+03  0.7818608E-02  0.9787489E-01
          1   -1    0    0  502    0  0.00000000000E+00  0.00000000000E+00  0.10902645646E+03  0.10902645646E+03  0.00000000000E+00 0.  1.
         13   -1    0    0    0    0 -0.00000000000E+00 -0.00000000000E+00 -0.10000000000E+04  0.10000000000E+04  0.00000000000E+00 0.  1.
    9000005    2    1    2  501    0 -0.39390088489E-05  0.77289978435E-05 -0.89097355861E+03  0.11090264391E+04  0.66038304068E+03 0.  0.
         13    1    3    3    0    0  0.34601158125E+02  0.12288152511E+03 -0.95687951453E+03  0.96535771333E+03  0.00000000000E+00 0.  1.
          1    1    3    3  501    0 -0.34601162064E+02 -0.12288151738E+03  0.65905955925E+02  0.14366872574E+03  0.00000000000E+00 0.  1.
         21    1    1    2  502  501  0.39390088499E-05 -0.77289978350E-05  0.15068848095E-04  0.17387448955E-04  0.00000000000E+00 0.  1.
<mgrwt>
<rscale>  1 0.66038304E+03</rscale>
<asrwt>0</asrwt>
<pdfrwt beam="1">  1        1 0.39646068E+00 0.66038304E+03</pdfrwt>
<pdfrwt beam="2">0</pdfrwt>
<totfact> 0.13846153E+00</totfact>
</mgrwt>
</event>
<event>
 6    1  0.9034271E-003  0.6464964E+03  0.7818608E-02  0.9813376E-01
          1   -1    0    0  502    0  0.00000000000E+00  0.00000000000E+00  0.10453110034E+03  0.10453110034E+03  0.00000000000E+00 0.  1.
         13   -1    0    0    0    0 -0.00000000000E+00 -0.00000000000E+00 -0.10000000000E+04  0.10000000000E+04  0.00000000000E+00 0.  1.
    9000005    2    1    2  501    0  0.17080549159E-02  0.16908761970E-02 -0.89551055974E+03  0.11044893710E+04  0.64649640991E+03 0.  0.
         13    1    3    3    0    0 -0.66681534594E+02  0.31624704263E+03 -0.45729949662E+03  0.55998343604E+03  0.00000000000E+00 0.  1.
          1    1    3    3  501    0  0.66683242649E+02 -0.31624535176E+03 -0.43821106311E+03  0.54450593495E+03  0.00000000000E+00 0.  1.
         21    1    1    2  502  501 -0.17080549159E-02 -0.16908761970E-02  0.41660074362E-01  0.41729345906E-01  0.00000000000E+00 0. -1.
<mgrwt>
<rscale>  1 0.64649641E+03</rscale>
<asrwt>0</asrwt>
<pdfrwt beam="1">  1        1 0.38011389E+00 0.64649641E+03</pdfrwt>
<pdfrwt beam="2">0</pdfrwt>
<totfact> 0.16401305E+00</totfact>
</mgrwt>
</event>
<event>
 6    1  0.9034271E-003  0.6533208E+03  0.7818608E-02  0.9800568E-01
          1   -1    0    0  502    0  0.00000000000E+00  0.00000000000E+00  0.10670747887E+03  0.10670747887E+03  0.00000000000E+00 0.  1.
         13   -1    0    0    0    0 -0.00000000000E+00 -0.00000000000E+00 -0.10000000000E+04  0.10000000000E+04  0.00000000000E+00 0.  1.
    9000005    2    1    2  501    0 -0.28914771300E-03  0.24320703227E-03 -0.89329291153E+03  0.11067069356E+04  0.65332076002E+03 0.  0.
         13    1    3    3    0    0 -0.69346936258E+02  0.26709984245E+03 -0.74275641735E+03  0.79236255522E+03  0.00000000000E+00 0.  1.
          3    1    3    3  501    0  0.69346647110E+02 -0.26709959924E+03 -0.15053649418E+03  0.31434438035E+03  0.00000000000E+00 0.  1.
         21    1    1    2  502  501  0.28914771300E-03 -0.24320703228E-03  0.39039913267E-03  0.54329323875E-03  0.00000000000E+00 0.  1.
<mgrwt>
<rscale>  1 0.65332076E+03</rscale>
<asrwt>0</asrwt>
<pdfrwt beam="1">  1        1 0.38802801E+00 0.65332076E+03</pdfrwt>
<pdfrwt beam="2">0</pdfrwt>
<totfact> 0.15112683E+00</totfact>
</mgrwt>
</event>
<event>
 6    1  0.9034271E-003  0.6466336E+03  0.7818608E-02  0.9813116E-01
          1   -1    0    0  502    0  0.00000000000E+00  0.00000000000E+00  0.11257580389E+03  0.11257580389E+03  0.00000000000E+00 0.  1.
         13   -1    0    0    0    0 -0.00000000000E+00 -0.00000000000E+00 -0.10000000000E+04  0.10000000000E+04  0.00000000000E+00 0.  1.
    9000005    2    1    2  501    0 -0.36070693265E+00 -0.74977738430E+00 -0.89544245570E+03  0.11045144912E+04  0.64663310888E+03 0.  0.
         13    1    3    3    0    0 -0.29136018287E+03 -0.10810364002E+03 -0.29398741502E+03  0.42779171724E+03  0.00000000000E+00 0.  1.
          3    1    3    3  501    0  0.29099947594E+03  0.10735386264E+03 -0.60145504068E+03  0.67672277395E+03  0.00000000000E+00 0.  1.
         21    1    1    2  502  501  0.36070693265E+00  0.74977738430E+00  0.80182595894E+01  0.80613127008E+01  0.00000000000E+00 0. -1.
<mgrwt>
<rscale>  1 0.64663364E+03</rscale>
<asrwt>0</asrwt>
<pdfrwt beam="1">  1        1 0.40936742E+00 0.64663364E+03</pdfrwt>
<pdfrwt beam="2">0</pdfrwt>
<totfact> 0.12157282E+00</totfact>
</mgrwt>
</event>
<event>
 6    1  0.9034271E-003  0.6287731E+03  0.7818608E-02  0.9847446E-01
          1   -1    0    0  502    0  0.00000000000E+00  0.00000000000E+00  0.98841317821E+02  0.98841317821E+02  0.00000000000E+00 0.  1.
         13   -1    0    0    0    0 -0.00000000000E+00 -0.00000000000E+00 -0.10000000000E+04  0.10000000000E+04  0.00000000000E+00 0.  1.
    9000005    2    1    2  501    0 -0.10337382465E-02  0.98856504661E-03 -0.90116087413E+03  0.10988387005E+04  0.62877306606E+03 0.  0.
         13    1    3    3    0    0 -0.20933208989E+03 -0.18519154092E+03 -0.70215542140E+03  0.75573677063E+03  0.00000000000E+00 0.  1.
          3    1    3    3  501    0  0.20933105615E+03  0.18519252948E+03 -0.19900545273E+03  0.34310192984E+03  0.00000000000E+00 0.  1.
         21    1    1    2  502  501  0.10337382466E-02 -0.98856504660E-03  0.21919474662E-02  0.26173477622E-02  0.00000000000E+00 0. -1.
<mgrwt>
<rscale>  1 0.62877307E+03</rscale>
<asrwt>0</asrwt>
<pdfrwt beam="1">  1        1 0.35942373E+00 0.62877307E+03</pdfrwt>
<pdfrwt beam="2">0</pdfrwt>
<totfact> 0.20283638E+00</totfact>
</mgrwt>
</event>
<event>
 6    1  0.9034271E-003  0.6441231E+03  0.7818608E-02  0.9817870E-01
          1   -1    0    0  502    0  0.00000000000E+00  0.00000000000E+00  0.10372367155E+03  0.10372367155E+03  0.00000000000E+00 0.  1.
         13   -1    0    0    0    0 -0.00000000000E+00 -0.00000000000E+00 -0.10000000000E+04  0.10000000000E+04  0.00000000000E+00 0.  1.
    9000005    2    1    2  501    0 -0.18025434336E-05 -0.51147096372E-05 -0.89627634338E+03  0.11037236557E+04  0.64412314380E+03 0.  0.
         13    1    3    3    0    0 -0.28608037940E+02 -0.17994421047E+03  0.69169139761E+01  0.18233535701E+03  0.00000000000E+00 0.  1.
          3    1    3    3  501    0  0.28608036138E+02  0.17994420535E+03 -0.90319325736E+03  0.92138829866E+03  0.00000000000E+00 0.  1.
         21    1    1    2  502  501  0.18025434318E-05  0.51147096524E-05  0.14929513178E-04  0.15883947286E-04  0.00000000000E+00 0.  1.
<mgrwt>
<rscale>  1 0.64412314E+03</rscale>
<asrwt>0</asrwt>
<pdfrwt beam="1">  1        1 0.37717778E+00 0.64412314E+03</pdfrwt>
<pdfrwt beam="2">0</pdfrwt>
<totfact> 0.16904953E+00</totfact>
</mgrwt>
</event>
<event>
 6    1  0.9034271E-003  0.6584479E+03  0.7818608E-02  0.9791055E-01
          1   -1    0    0  502    0  0.00000000000E+00  0.00000000000E+00  0.10838842228E+03  0.10838842228E+03  0.00000000000E+00 0.  1.
         13   -1    0    0    0    0 -0.00000000000E+00 -0.00000000000E+00 -0.10000000000E+04  0.10000000000E+04  0.00000000000E+00 0.  1.
    9000005    2    1    2  501    0 -0.49302174148E-05  0.95733958290E-05 -0.89161159471E+03  0.11083884022E+04  0.65844788271E+03 0.  0.
         13    1    3    3    0    0  0.23956436289E+03 -0.17650610974E+03 -0.20868302777E+03  0.36344751591E+03  0.00000000000E+00 0.  1.
          1    1    3    3  501    0 -0.23956436782E+03  0.17650611931E+03 -0.68292856693E+03  0.74494088626E+03  0.00000000000E+00 0.  1.
         21    1    1    2  502  501  0.49302174098E-05 -0.95733958268E-05  0.16983194282E-04  0.20109347065E-04  0.00000000000E+00 0. -1.
<mgrwt>
<rscale>  1 0.65844788E+03</rscale>
<asrwt>0</asrwt>
<pdfrwt beam="1">  1        1 0.39414055E+00 0.65844788E+03</pdfrwt>
<pdfrwt beam="2">0</pdfrwt>
<totfact> 0.14184192E+00</totfact>
</mgrwt>
</event>
<event>
 6    1  0.9034271E-003  0.6501892E+03  0.7818608E-02  0.9806424E-01
          1   -1    0    0  502    0  0.00000000000E+00  0.00000000000E+00  0.10568911171E+03  0.10568911171E+03  0.00000000000E+00 0.  1.
         13   -1    0    0    0    0 -0.00000000000E+00 -0.00000000000E+00 -0.10000000000E+04  0.10000000000E+04  0.00000000000E+00 0.  1.
    9000005    2    1    2  501    0 -0.42969496698E-03  0.78987558879E-03 -0.89431339896E+03  0.11056864449E+04  0.65018924846E+03 0.  0.
         13    1    3    3    0    0 -0.14166831687E+03 -0.15273823158E+03 -0.22739432401E+02  0.20956135421E+03  0.00000000000E+00 0.  1.
          1    1    3    3  501    0  0.14166788718E+03  0.15273902146E+03 -0.87157396656E+03  0.89612509067E+03  0.00000000000E+00 0.  1.
         21    1    1    2  502  501  0.42969496699E-03 -0.78987558878E-03  0.25106766597E-02  0.26668405464E-02  0.00000000000E+00 0.  1.
<mgrwt>
<rscale>  1 0.65018925E+03</rscale>
<asrwt>0</asrwt>
<pdfrwt beam="1">  1        1 0.38432485E+00 0.65018925E+03</pdfrwt>
<pdfrwt beam="2">0</pdfrwt>
<totfact> 0.15703009E+00</totfact>
</mgrwt>
</event>
<event>
 6    1  0.9034271E-003  0.6270268E+03  0.7818608E-02  0.9850868E-01
          1   -1    0    0  502    0  0.00000000000E+00  0.00000000000E+00  0.98323478161E+02  0.98323478161E+02  0.00000000000E+00 0.  1.
         13   -1    0    0    0    0 -0.00000000000E+00 -0.00000000000E+00 -0.10000000000E+04  0.10000000000E+04  0.00000000000E+00 0.  1.
    9000005    2    1    2  501    0 -0.21130679878E-02  0.10769323739E-02 -0.90170929801E+03  0.10982906163E+04  0.62702680942E+03 0.  0.
         13    1    3    3    0    0  0.24473563671E+03 -0.17015624314E+03 -0.28065815904E+03  0.40941138381E+03  0.00000000000E+00 0.  1.
          1    1    3    3  501    0 -0.24473774978E+03  0.17015732008E+03 -0.62105113896E+03  0.68887923249E+03  0.00000000000E+00 0.  1.
         21    1    1    2  502  501  0.21130679878E-02 -0.10769323739E-02  0.32776168047E-01  0.32861862873E-01  0.00000000000E+00 0.  1.
<mgrwt>
<rscale>  1 0.62702681E+03</rscale>
<asrwt>0</asrwt>
<pdfrwt beam="1">  1        1 0.35754067E+00 0.62702681E+03</pdfrwt>
<pdfrwt beam="2">0</pdfrwt>
<totfact> 0.20678216E+00</totfact>
</mgrwt>
</event>
<event>
 6    1  0.9034271E-003  0.6848106E+03  0.7818608E-02  0.9743567E-01
          1   -1    0    0  502    0  0.00000000000E+00  0.00000000000E+00  0.11728089520E+03  0.11728089520E+03  0.00000000000E+00 0.  1.
         13   -1    0    0    0    0 -0.00000000000E+00 -0.00000000000E+00 -0.10000000000E+04  0.10000000000E+04  0.00000000000E+00 0.  1.
    9000005    2    1    2  501    0 -0.27423233002E-01 -0.21925435983E-01 -0.88274968662E+03  0.11172343333E+04  0.68481059070E+03 0.  0.
         13    1    3    3    0    0 -0.27527722671E+03 -0.19841706522E+03 -0.36652092477E+03  0.49948420557E+03  0.00000000000E+00 0.  1.
          3    1    3    3  501    0  0.27524980348E+03  0.19839513979E+03 -0.51622876185E+03  0.61775012777E+03  0.00000000000E+00 0.  1.
         21    1    1    2  502  501  0.27423233002E-01  0.21925435983E-01  0.30581821606E-01  0.46561854173E-01  0.00000000000E+00 0. -1.
<mgrwt>
<rscale>  1 0.68481059E+03</rscale>
<asrwt>0</asrwt>
<pdfrwt beam="1">  1        1 0.42647688E+00 0.68481059E+03</pdfrwt>
<pdfrwt beam="2">0</pdfrwt>
<totfact> 0.10104831E+00</totfact>
</mgrwt>
</event>
<event>
 6    1  0.9034271E-003  0.6474356E+03  0.7818608E-02  0.9811603E-01
          1   -1    0    0  502    0  0.00000000000E+00  0.00000000000E+00  0.10479616804E+03  0.10479616804E+03  0.00000000000E+00 0.  1.
         13   -1    0    0    0    0 -0.00000000000E+00 -0.00000000000E+00 -0.10000000000E+04  0.10000000000E+04  0.00000000000E+00 0.  1.
    9000005    2    1    2  501    0 -0.50326878920E-04 -0.83301692115E-04 -0.89520677915E+03  0.11047932192E+04  0.64743561830E+03 0.  0.
         13    1    3    3    0    0 -0.18288789285E+03 -0.19411996024E+03 -0.13452085399E+03  0.29870788486E+03  0.00000000000E+00 0.  1.
          3    1    3    3  501    0  0.18288784253E+03  0.19411987694E+03 -0.76068592516E+03  0.80608533438E+03  0.00000000000E+00 0.  1.
         21    1    1    2  502  501  0.50326878916E-04  0.83301692135E-04  0.29471930266E-02  0.29487995359E-02  0.00000000000E+00 0. -1.
<mgrwt>
<rscale>  1 0.64743562E+03</rscale>
<asrwt>0</asrwt>
<pdfrwt beam="1">  1        1 0.38107778E+00 0.64743562E+03</pdfrwt>
<pdfrwt beam="2">0</pdfrwt>
<totfact> 0.16238625E+00</totfact>
</mgrwt>
</event>
<event>
 6    1  0.9034271E-003  0.6369977E+03  0.7818608E-02  0.9831488E-01
          1   -1    0    0  502    0  0.00000000000E+00  0.00000000000E+00  0.10144214438E+03  0.10144214438E+03  0.00000000000E+00 0.  1.
         13   -1    0    0    0    0 -0.00000000000E+00 -0.00000000000E+00 -0.10000000000E+04  0.10000000000E+04  0.00000000000E+00 0.  1.
    9000005    2    1    2  501    0  0.85524145817E-04  0.50372533937E-03 -0.89855834958E+03  0.11014414337E+04  0.63699774276E+03 0.  0.
         13    1    3    3    0    0 -0.20362509022E+03  0.18885722692E+03 -0.71888457857E+03  0.77066547012E+03  0.00000000000E+00 0.  1.
          1    1    3    3  501    0  0.20362517575E+03 -0.18885672320E+03 -0.17967377101E+03  0.33077596358E+03  0.00000000000E+00 0.  1.
         21    1    1    2  502  501 -0.85524145810E-04 -0.50372533937E-03  0.49396128445E-03  0.71066964729E-03  0.00000000000E+00 0.  1.
<mgrwt>
<rscale>  1 0.63699774E+03</rscale>
<asrwt>0</asrwt>
<pdfrwt beam="1">  1        1 0.36888130E+00 0.63699774E+03</pdfrwt>
<pdfrwt beam="2">0</pdfrwt>
<totfact> 0.18410520E+00</totfact>
</mgrwt>
</event>
<event>
 6    1  0.9034271E-003  0.6567113E+03  0.7818608E-02  0.9794267E-01
          1   -1    0    0  502    0  0.00000000000E+00  0.00000000000E+00  0.10781757389E+03  0.10781757389E+03  0.00000000000E+00 0.  1.
         13   -1    0    0    0    0 -0.00000000000E+00 -0.00000000000E+00 -0.10000000000E+04  0.10000000000E+04  0.00000000000E+00 0.  1.
    9000005    2    1    2  501    0 -0.43411189662E-04 -0.26223188303E-04 -0.89218256454E+03  0.11078174265E+04  0.65671129264E+03 0.  0.
         13    1    3    3    0    0  0.10274828747E+02 -0.30911190172E+02 -0.99726764116E+03  0.99779948982E+03  0.00000000000E+00 0.  1.
          3    1    3    3  501    0 -0.10274872158E+02  0.30911163949E+02  0.10508507661E+03  0.11001793664E+03  0.00000000000E+00 0.  1.
         21    1    1    2  502  501  0.43411189662E-04  0.26223188305E-04  0.13843761494E-03  0.14743527469E-03  0.00000000000E+00 0. -1.
<mgrwt>
<rscale>  1 0.65671129E+03</rscale>
<asrwt>0</asrwt>
<pdfrwt beam="1">  1        1 0.39206473E+00 0.65671129E+03</pdfrwt>
<pdfrwt beam="2">0</pdfrwt>
<totfact> 0.14493258E+00</totfact>
</mgrwt>
</event>
<event>
 6    1  0.9034271E-003  0.7128284E+03  0.7818608E-02  0.9695542E-01
          1   -1    0    0  502    0  0.00000000000E+00  0.00000000000E+00  0.12703111897E+03  0.12703111897E+03  0.00000000000E+00 0.  1.
         13   -1    0    0    0    0 -0.00000000000E+00 -0.00000000000E+00 -0.10000000000E+04  0.10000000000E+04  0.00000000000E+00 0.  1.
    9000005    2    1    2  501    0 -0.11393117802E-04 -0.12611890355E-04 -0.87296891219E+03  0.11270310835E+04  0.71282840955E+03 0.  0.
         13    1    3    3    0    0  0.26006844530E+03  0.16771858734E+03 -0.15691688833E+03  0.34696978344E+03  0.00000000000E+00 0.  1.
          3    1    3    3  501    0 -0.26006845669E+03 -0.16771859995E+03 -0.71605202386E+03  0.78006130003E+03  0.00000000000E+00 0.  1.
         21    1    1    2  502  501  0.11393117801E-04  0.12611890355E-04  0.31157668573E-04  0.35491734565E-04  0.00000000000E+00 0.  1.
<mgrwt>
<rscale>  1 0.71282841E+03</rscale>
<asrwt>0</asrwt>
<pdfrwt beam="1">  1        1 0.46193232E+00 0.71282841E+03</pdfrwt>
<pdfrwt beam="2">0</pdfrwt>
<totfact> 0.69071042E-01</totfact>
</mgrwt>
</event>
<event>
 6    1  0.9034271E-003  0.6490464E+03  0.7818608E-02  0.9808570E-01
          1   -1    0    0  502    0  0.00000000000E+00  0.00000000000E+00  0.12077754748E+03  0.12077754748E+03  0.00000000000E+00 0.  1.
         13   -1    0    0    0    0 -0.00000000000E+00 -0.00000000000E+00 -0.10000000000E+04  0.10000000000E+04  0.00000000000E+00 0.  1.
    9000005    2    1    2  501    0 -0.66958363738E+00 -0.57126817559E+01 -0.89409126332E+03  0.11048350066E+04  0.64902089458E+03 0.  0.
         13    1    3    3    0    0 -0.15772669207E+03 -0.22491273486E+02 -0.92942391912E+03  0.94298058740E+03  0.00000000000E+00 0.  1.
          3    1    3    3  501    0  0.15705710843E+03  0.16778591731E+02  0.35332655804E+02  0.16185441921E+03  0.00000000000E+00 0.  1.
         21    1    1    2  502  501  0.66958363738E+00  0.57126817559E+01  0.14868810801E+02  0.15942540881E+02  0.00000000000E+00 0.  1.
<mgrwt>
<rscale>  1 0.64904638E+03</rscale>
<asrwt>0</asrwt>
<pdfrwt beam="1">  1        1 0.43919201E+00 0.64904638E+03</pdfrwt>
<pdfrwt beam="2">0</pdfrwt>
<totfact> 0.89071084E-01</totfact>
</mgrwt>
</event>
<event>
 6    1  0.9034271E-003  0.6416048E+03  0.7818608E-02  0.9822661E-01
          1   -1    0    0  502    0  0.00000000000E+00  0.00000000000E+00  0.10695040489E+03  0.10695040489E+03  0.00000000000E+00 0.  1.
         13   -1    0    0    0    0 -0.00000000000E+00 -0.00000000000E+00 -0.10000000000E+04  0.10000000000E+04  0.00000000000E+00 0.  1.
    9000005    2    1    2  501    0 -0.12064673386E+01  0.66421876419E+00 -0.89695583914E+03  0.11028084860E+04  0.64160336858E+03 0.  0.
         13    1    3    3    0    0  0.14431658439E+03 -0.38600009125E+02 -0.93540146904E+03  0.94725558617E+03  0.00000000000E+00 0.  1.
          1    1    3    3  501    0 -0.14552305172E+03  0.39264227889E+02  0.38445629902E+02  0.15555289979E+03  0.00000000000E+00 0.  1.
         21    1    1    2  502  501  0.12064673386E+01 -0.66421876419E+00  0.39062440337E+01  0.41419189341E+01  0.00000000000E+00 0.  1.
<mgrwt>
<rscale>  1 0.64160485E+03</rscale>
<asrwt>0</asrwt>
<pdfrwt beam="1">  1        1 0.38891138E+00 0.64160485E+03</pdfrwt>
<pdfrwt beam="2">0</pdfrwt>
<totfact> 0.15009904E+00</totfact>
</mgrwt>
</event>
<event>
 6    1  0.9034271E-003  0.6494418E+03  0.7818608E-02  0.9807827E-01
          1   -1    0    0  502    0  0.00000000000E+00  0.00000000000E+00  0.10544629710E+03  0.10544629710E+03  0.00000000000E+00 0.  1.
         13   -1    0    0    0    0 -0.00000000000E+00 -0.00000000000E+00 -0.10000000000E+04  0.10000000000E+04  0.00000000000E+00 0.  1.
    9000005    2    1    2  501    0  0.74817787150E-03  0.12846940027E-02 -0.89455610308E+03  0.11054434738E+04  0.64944180046E+03 0.  0.
         13    1    3    3    0    0  0.57339490483E+02 -0.20330215241E+03 -0.27486418193E+02  0.21301428480E+03  0.00000000000E+00 0.  1.
          3    1    3    3  501    0 -0.57338742306E+02  0.20330343711E+03 -0.86706968489E+03  0.89242918899E+03  0.00000000000E+00 0.  1.
         21    1    1    2  502  501 -0.74817787150E-03 -0.12846940027E-02  0.24001770050E-02  0.28233062999E-02  0.00000000000E+00 0. -1.
<mgrwt>
<rscale>  1 0.64944180E+03</rscale>
<asrwt>0</asrwt>
<pdfrwt beam="1">  1        1 0.38344189E+00 0.64944180E+03</pdfrwt>
<pdfrwt beam="2">0</pdfrwt>
<totfact> 0.15846966E+00</totfact>
</mgrwt>
</event>
<event>
 6    1  0.9034271E-003  0.6509453E+03  0.7818608E-02  0.9805007E-01
          1   -1    0    0  502    0  0.00000000000E+00  0.00000000000E+00  0.10603448358E+03  0.10603448358E+03  0.00000000000E+00 0.  1.
         13   -1    0    0    0    0 -0.00000000000E+00 -0.00000000000E+00 -0.10000000000E+04  0.10000000000E+04  0.00000000000E+00 0.  1.
    9000005    2    1    2  501    0 -0.29920373236E+00 -0.86911995885E-01 -0.89347736873E+03  0.11054553767E+04  0.65094522385E+03 0.  0.
         13    1    3    3    0    0  0.45948196671E+02 -0.16430852960E+03  0.23962583227E+02  0.17228678148E+03  0.00000000000E+00 0.  1.
          1    1    3    3  501    0 -0.46247400403E+02  0.16422161761E+03 -0.91743995196E+03  0.93316859526E+03  0.00000000000E+00 0.  1.
         21    1    1    2  502  501  0.29920373236E+00  0.86911995885E-01 -0.48814769033E+00  0.57910684339E+00  0.00000000000E+00 0.  1.
<mgrwt>
<rscale>  1 0.65094530E+03</rscale>
<asrwt>0</asrwt>
<pdfrwt beam="1">  1        1 0.38558075E+00 0.65094530E+03</pdfrwt>
<pdfrwt beam="2">0</pdfrwt>
<totfact> 0.15501268E+00</totfact>
</mgrwt>
</event>
<event>
 6    1  0.9034271E-003  0.6292686E+03  0.7818608E-02  0.9846477E-01
          1   -1    0    0  502    0  0.00000000000E+00  0.00000000000E+00  0.98996009803E+02  0.98996009803E+02  0.00000000000E+00 0.  1.
         13   -1    0    0    0    0 -0.00000000000E+00 -0.00000000000E+00 -0.10000000000E+04  0.10000000000E+04  0.00000000000E+00 0.  1.
    9000005    2    1    2  501    0 -0.34801275078E-03 -0.13540469408E-03 -0.90100523662E+03  0.10989947086E+04  0.62926857001E+03 0.  0.
         13    1    3    3    0    0  0.20198673802E+03 -0.22869439411E+03 -0.58459325112E+03  0.65943084359E+03  0.00000000000E+00 0.  1.
          1    1    3    3  501    0 -0.20198708603E+03  0.22869425870E+03 -0.31641198551E+03  0.43956386505E+03  0.00000000000E+00 0.  1.
         21    1    1    2  502  501  0.34801275078E-03  0.13540469408E-03  0.12464238361E-02  0.13011608990E-02  0.00000000000E+00 0.  1.
<mgrwt>
<rscale>  1 0.62926857E+03</rscale>
<asrwt>0</asrwt>
<pdfrwt beam="1">  1        1 0.35998625E+00 0.62926857E+03</pdfrwt>
<pdfrwt beam="2">0</pdfrwt>
<totfact> 0.20167273E+00</totfact>
</mgrwt>
</event>
<event>
 6    1  0.1000186E-002  0.6655649E+03  0.7818608E-02  0.9778003E-01
          1   -1    0    0  502    0  0.00000000000E+00  0.00000000000E+00  0.11074417646E+03  0.11074417646E+03  0.00000000000E+00 0.  1.
         13   -1    0    0    0    0 -0.00000000000E+00 -0.00000000000E+00 -0.10000000000E+04  0.10000000000E+04  0.00000000000E+00 0.  1.
    9000005    2    1    2  501    0  0.12338616983E-04  0.19916319673E-04 -0.88925577394E+03  0.11107441216E+04  0.66556492710E+03 0.  0.
         13    1    3    3    0    0 -0.10935751158E+03 -0.30057099828E+03 -0.29128956968E+03  0.43261022151E+03  0.00000000000E+00 0.  1.
          1    1    3    3  501    0  0.10935752392E+03  0.30057101820E+03 -0.59796620426E+03  0.67813390009E+03  0.00000000000E+00 0.  1.
         21    1    1    2  502  501 -0.12338616979E-04 -0.19916319710E-04 -0.49605908993E-04  0.54860253980E-04  0.00000000000E+00 0. -1.
<mgrwt>
<rscale>  1 0.66556493E+03</rscale>
<asrwt>0</asrwt>
<pdfrwt beam="1">  1        1 0.40270695E+00 0.66556493E+03</pdfrwt>
<pdfrwt beam="2">0</pdfrwt>
<totfact> 0.12973599E+00</totfact>
</mgrwt>
</event>
<event>
 6    1  0.9034271E-003  0.6380928E+03  0.7818608E-02  0.9829382E-01
          1   -1    0    0  502    0  0.00000000000E+00  0.00000000000E+00  0.10265342547E+03  0.10265342547E+03  0.00000000000E+00 0.  1.
         13   -1    0    0    0    0 -0.00000000000E+00 -0.00000000000E+00 -0.10000000000E+04  0.10000000000E+04  0.00000000000E+00 0.  1.
    9000005    2    1    2  501    0 -0.42556591243E-01  0.52295007040E-01 -0.89820793918E+03  0.11017894261E+04  0.63809280903E+03 0.  0.
         13    1    3    3    0    0  0.66105977658E+02 -0.31206120434E+03 -0.44148003404E+03  0.54466211176E+03  0.00000000000E+00 0.  1.
          3    1    3    3  501    0 -0.66148534249E+02  0.31211349935E+03 -0.45672790514E+03  0.55712731435E+03  0.00000000000E+00 0.  1.
         21    1    1    2  502  501  0.42556591243E-01 -0.52295007040E-01  0.86136465291E+00  0.86399936140E+00  0.00000000000E+00 0.  1.
<mgrwt>
<rscale>  1 0.63809281E+03</rscale>
<asrwt>0</asrwt>
<pdfrwt beam="1">  1        1 0.37328597E+00 0.63809281E+03</pdfrwt>
<pdfrwt beam="2">0</pdfrwt>
<totfact> 0.17604597E+00</totfact>
</mgrwt>
</event>
