<event>
 6    1  0.1132867E-002  0.3000000E+03  0.7818608E-02  0.1093470E+00
         21   -1    0    0  501  502  0.00000000000E+00  0.00000000000E+00  0.10727926085E+01  0.10727926085E+01  0.00000000000E+00 0. -1.
         13   -1    0    0    0    0 -0.00000000000E+00 -0.00000000000E+00 -0.10000000000E+04  0.10000000000E+04  0.00000000000E+00 0.  1.
    9000005    2    1    2  501    0 -0.26481081754E+02  0.12596329612E+02 -0.64088127440E+03  0.64182802182E+03  0.18827811876E+02 0.  0.
         13    1    3    3    0    0  0.24902389981E+01 -0.13121774541E+00 -0.93201465343E+02  0.93234819947E+02  0.00000000000E+00 0.  1.
          3    1    3    3  501    0 -0.28971320752E+02  0.12727547358E+02 -0.54767980906E+03  0.54859320187E+03  0.00000000000E+00 0.  1.
         -1    1    1    2    0  502  0.26481081754E+02 -0.12596329612E+02 -0.35804593299E+03  0.35924477079E+03  0.00000000000E+00 0. -1.
<mgrwt>
<rscale>  1 0.30000000E+03</rscale>
<asrwt>0</asrwt>
<pdfrwt beam="1">  1       21 0.39010723E-02 0.30000000E+03</pdfrwt>
<pdfrwt beam="2">0</pdfrwt>
<totfact> 0.43857384E+04</totfact>
</mgrwt>
</event>
<event>
 6    1  0.1132867E-002  0.3000000E+03  0.7818608E-02  0.1093470E+00
         21   -1    0    0  501  502  0.00000000000E+00  0.00000000000E+00  0.13712248768E+01  0.13712248768E+01  0.00000000000E+00 0. -1.
         13   -1    0    0    0    0 -0.00000000000E+00 -0.00000000000E+00 -0.10000000000E+04  0.10000000000E+04  0.00000000000E+00 0.  1.
    9000005    2    1    2  501    0  0.13347100850E+02 -0.20764995965E+02 -0.86840564794E+03  0.86882918244E+03  0.11244942695E+02 0.  0.
         13    1    3    3    0    0  0.33087426297E+01  0.71808584618E+00 -0.96363073014E+02  0.96422535052E+02  0.00000000000E+00 0.  1.
          1    1    3    3  501    0  0.10038358220E+02 -0.21483081811E+02 -0.77204257492E+03  0.77240664739E+03  0.00000000000E+00 0.  1.
         -1    1    1    2    0  502 -0.13347100850E+02  0.20764995965E+02 -0.13022312719E+03  0.13254204243E+03  0.00000000000E+00 0. -1.
<mgrwt>
<rscale>  1 0.30000000E+03</rscale>
<asrwt>0</asrwt>
<pdfrwt beam="1">  1       21 0.49862828E-02 0.30000000E+03</pdfrwt>
<pdfrwt beam="2">0</pdfrwt>
<totfact> 0.28939862E+04</totfact>
</mgrwt>
</event>
<event>
 6    1  0.1132867E-002  0.3000000E+03  0.7818608E-02  0.1093470E+00
         21   -1    0    0  501  502  0.00000000000E+00  0.00000000000E+00  0.86690296207E+00  0.86690296207E+00  0.00000000000E+00 0. -1.
         13   -1    0    0    0    0 -0.00000000000E+00 -0.00000000000E+00 -0.10000000000E+04  0.10000000000E+04  0.00000000000E+00 0.  1.
    9000005    2    1    2  501    0  0.14636196818E+02 -0.41658011456E+01 -0.92614705472E+03  0.92631132282E+03  0.85280518816E+01 0.  0.
         13    1    3    3    0    0  0.99923272566E+01 -0.24270307946E+01 -0.80109449877E+03  0.80116049144E+03  0.00000000000E+00 0.  1.
          1    1    3    3  501    0  0.46438695617E+01 -0.17387703510E+01 -0.12505255595E+03  0.12515083138E+03  0.00000000000E+00 0.  1.
         -1    1    1    2    0  502 -0.14636196818E+02  0.41658011456E+01 -0.72986042317E+02  0.74555580138E+02  0.00000000000E+00 0. -1.
<mgrwt>
<rscale>  1 0.30000000E+03</rscale>
<asrwt>0</asrwt>
<pdfrwt beam="1">  1       21 0.31523811E-02 0.30000000E+03</pdfrwt>
<pdfrwt beam="2">0</pdfrwt>
<totfact> 0.62652558E+04</totfact>
</mgrwt>
</event>
<event>
 6    1  0.1132867E-002  0.3000000E+03  0.7818608E-02  0.1093470E+00
         21   -1    0    0  501  502  0.00000000000E+00  0.00000000000E+00  0.10585278558E+00  0.10585278558E+00  0.00000000000E+00 0. -1.
         13   -1    0    0    0    0 -0.00000000000E+00 -0.00000000000E+00 -0.10000000000E+04  0.10000000000E+04  0.00000000000E+00 0.  1.
    9000005    2    1    2  501    0  0.61885221819E+00  0.92213037624E+01 -0.43915621164E+03  0.43929175898E+03  0.58013673123E+01 0.  0.
         13    1    3    3    0    0 -0.14056031925E+01  0.23275309551E+01 -0.53884257117E+02  0.53952815364E+02  0.00000000000E+00 0.  1.
          3    1    3    3  501    0  0.20244554107E+01  0.68937728073E+01 -0.38527195452E+03  0.38533894361E+03  0.00000000000E+00 0.  1.
         -3    1    1    2    0  502 -0.61885221819E+00 -0.92213037624E+01 -0.56073793557E+03  0.56081409381E+03  0.00000000000E+00 0. -1.
<mgrwt>
<rscale>  1 0.30000000E+03</rscale>
<asrwt>0</asrwt>
<pdfrwt beam="1">  1       21 0.38492003E-03 0.30000000E+03</pdfrwt>
<pdfrwt beam="2">0</pdfrwt>
<totfact> 0.17969371E+06</totfact>
</mgrwt>
</event>
<event>
 6    1  0.1132867E-002  0.3000000E+03  0.7818608E-02  0.1093470E+00
         21   -1    0    0  501  502  0.00000000000E+00  0.00000000000E+00  0.62505077371E+00  0.62505077371E+00  0.00000000000E+00 0. -1.
         13   -1    0    0    0    0 -0.00000000000E+00 -0.00000000000E+00 -0.10000000000E+04  0.10000000000E+04  0.00000000000E+00 0.  1.
    9000005    2    1    2  501    0 -0.17175954869E+02  0.10756956399E+01 -0.85641776602E+03  0.85663572208E+03  0.87863442711E+01 0.  0.
         13    1    3    3    0    0 -0.96853504332E+01 -0.19959221148E+01 -0.30925499410E+03  0.30941305902E+03  0.00000000000E+00 0.  1.
          1    1    3    3  501    0 -0.74906044359E+01  0.30716177547E+01 -0.54716277192E+03  0.54722266306E+03  0.00000000000E+00 0.  1.
         -3    1    1    2    0  502  0.17175954869E+02 -0.10756956399E+01 -0.14295718320E+03  0.14398932869E+03  0.00000000000E+00 0. -1.
<mgrwt>
<rscale>  1 0.30000000E+03</rscale>
<asrwt>0</asrwt>
<pdfrwt beam="1">  1       21 0.22729167E-02 0.30000000E+03</pdfrwt>
<pdfrwt beam="2">0</pdfrwt>
<totfact> 0.10753888E+05</totfact>
</mgrwt>
</event>
<event>
 6    1  0.1132867E-002  0.3000000E+03  0.7818608E-02  0.1093470E+00
         21   -1    0    0  501  502  0.00000000000E+00  0.00000000000E+00  0.12704988523E+00  0.12704988523E+00  0.00000000000E+00 0. -1.
         13   -1    0    0    0    0 -0.00000000000E+00 -0.00000000000E+00 -0.10000000000E+04  0.10000000000E+04  0.00000000000E+00 0.  1.
    9000005    2    1    2  501    0  0.37202059865E+01  0.82010845373E+01 -0.78586390031E+03  0.78592861124E+03  0.45403120316E+01 0.  0.
         13    1    3    3    0    0  0.38611093597E+01  0.33114897877E+01 -0.34338186468E+03  0.34341953806E+03  0.00000000000E+00 0.  1.
          3    1    3    3  501    0 -0.14090337322E+00  0.48895947496E+01 -0.44248203563E+03  0.44250907318E+03  0.00000000000E+00 0.  1.
         -1    1    1    2    0  502 -0.37202059865E+01 -0.82010845373E+01 -0.21400904980E+03  0.21419843864E+03  0.00000000000E+00 0. -1.
<mgrwt>
<rscale>  1 0.30000000E+03</rscale>
<asrwt>0</asrwt>
<pdfrwt beam="1">  1       21 0.46200056E-03 0.30000000E+03</pdfrwt>
<pdfrwt beam="2">0</pdfrwt>
<totfact> 0.13554466E+06</totfact>
</mgrwt>
</event>
<event>
 6    1  0.1132867E-002  0.3000000E+03  0.7818608E-02  0.1093470E+00
         21   -1    0    0  501  502  0.00000000000E+00  0.00000000000E+00  0.14625346230E+00  0.14625346230E+00  0.00000000000E+00 0. -1.
         13   -1    0    0    0    0 -0.00000000000E+00 -0.00000000000E+00 -0.10000000000E+04  0.10000000000E+04  0.00000000000E+00 0.  1.
    9000005    2    1    2  501    0  0.21483128910E+01 -0.93163784250E+01 -0.77690429478E+03  0.77699189390E+03  0.66865367921E+01 0.  0.
         13    1    3    3    0    0 -0.25137059013E-01 -0.46583031920E+01 -0.16427597980E+03  0.16434201520E+03  0.00000000000E+00 0.  1.
          3    1    3    3  501    0  0.21734499500E+01 -0.46580752330E+01 -0.61262831498E+03  0.61264987870E+03  0.00000000000E+00 0.  1.
         -3    1    1    2    0  502 -0.21483128910E+01  0.93163784250E+01 -0.22294945175E+03  0.22315435956E+03  0.00000000000E+00 0. -1.
<mgrwt>
<rscale>  1 0.30000000E+03</rscale>
<asrwt>0</asrwt>
<pdfrwt beam="1">  1       21 0.53183189E-03 0.30000000E+03</pdfrwt>
<pdfrwt beam="2">0</pdfrwt>
<totfact> 0.10894024E+06</totfact>
</mgrwt>
</event>
<event>
 6    1  0.1132867E-002  0.3000000E+03  0.7818608E-02  0.1093470E+00
         21   -1    0    0  501  502  0.00000000000E+00  0.00000000000E+00  0.11749656515E+00  0.11749656515E+00  0.00000000000E+00 0. -1.
         13   -1    0    0    0    0 -0.00000000000E+00 -0.00000000000E+00 -0.10000000000E+04  0.10000000000E+04  0.00000000000E+00 0.  1.
    9000005    2    1    2  501    0  0.11468307440E+01  0.79967624733E+01 -0.55152218973E+03  0.55168440865E+03  0.10662905472E+02 0.  0.
         13    1    3    3    0    0  0.20460376489E+01  0.21384498218E+01 -0.34078045331E+02  0.34206321219E+02  0.00000000000E+00 0.  1.
          3    1    3    3  501    0 -0.89920690497E+00  0.58583126515E+01 -0.51744414440E+03  0.51747808744E+03  0.00000000000E+00 0.  1.
         -3    1    1    2    0  502 -0.11468307440E+01 -0.79967624733E+01 -0.44836031370E+03  0.44843308791E+03  0.00000000000E+00 0. -1.
<mgrwt>
<rscale>  1 0.30000000E+03</rscale>
<asrwt>0</asrwt>
<pdfrwt beam="1">  1       21 0.42726114E-03 0.30000000E+03</pdfrwt>
<pdfrwt beam="2">0</pdfrwt>
<totfact> 0.15296409E+06</totfact>
</mgrwt>
</event>
<event>
 6    1  0.1132867E-002  0.3000000E+03  0.7818608E-02  0.1093470E+00
         21   -1    0    0  501  502  0.00000000000E+00  0.00000000000E+00  0.13831467595E+00  0.13831467595E+00  0.00000000000E+00 0. -1.
         13   -1    0    0    0    0 -0.00000000000E+00 -0.00000000000E+00 -0.10000000000E+04  0.10000000000E+04  0.00000000000E+00 0.  1.
    9000005    2    1    2  501    0  0.55738874386E+01 -0.85215575059E+01 -0.32463729338E+03  0.32483714879E+03  0.51103640654E+01 0.  0.
         13    1    3    3    0    0  0.12267261858E+01 -0.36796520732E+00 -0.13007605389E+02  0.13070503184E+02  0.00000000000E+00 0.  1.
          3    1    3    3  501    0  0.43471612528E+01 -0.81535922986E+01 -0.31162968799E+03  0.31176664561E+03  0.00000000000E+00 0.  1.
         -3    1    1    2    0  502 -0.55738874386E+01  0.85215575059E+01 -0.67522439194E+03  0.67530116588E+03  0.00000000000E+00 0. -1.
<mgrwt>
<rscale>  1 0.30000000E+03</rscale>
<asrwt>0</asrwt>
<pdfrwt beam="1">  1       21 0.50296352E-03 0.30000000E+03</pdfrwt>
<pdfrwt beam="2">0</pdfrwt>
<totfact> 0.11880997E+06</totfact>
</mgrwt>
</event>
<event>
 6    1  0.1132867E-002  0.3000000E+03  0.7818608E-02  0.1093470E+00
         21   -1    0    0  501  502  0.00000000000E+00  0.00000000000E+00  0.11136457897E+00  0.11136457897E+00  0.00000000000E+00 0. -1.
         13   -1    0    0    0    0 -0.00000000000E+00 -0.00000000000E+00 -0.10000000000E+04  0.10000000000E+04  0.00000000000E+00 0.  1.
    9000005    2    1    2  501    0 -0.87047851152E+01 -0.28963768716E+01 -0.66838214585E+03  0.66847796019E+03  0.66278260275E+01 0.  0.
         13    1    3    3    0    0 -0.56885094630E+01 -0.43989027431E+01 -0.32634830758E+03  0.32642752235E+03  0.00000000000E+00 0.  1.
          1    1    3    3  501    0 -0.30162756522E+01  0.15025258715E+01 -0.34203383827E+03  0.34205043784E+03  0.00000000000E+00 0.  1.
         -1    1    1    2    0  502  0.87047851152E+01  0.28963768716E+01 -0.33150648957E+03  0.33163340439E+03  0.00000000000E+00 0. -1.
<mgrwt>
<rscale>  1 0.30000000E+03</rscale>
<asrwt>0</asrwt>
<pdfrwt beam="1">  1       21 0.40496296E-03 0.30000000E+03</pdfrwt>
<pdfrwt beam="2">0</pdfrwt>
<totfact> 0.16616121E+06</totfact>
</mgrwt>
</event>
<event>
 6    1  0.1132867E-002  0.3000000E+03  0.7818608E-02  0.1093470E+00
         21   -1    0    0  501  502  0.00000000000E+00  0.00000000000E+00  0.24420176313E+00  0.24420176313E+00  0.00000000000E+00 0. -1.
         13   -1    0    0    0    0 -0.00000000000E+00 -0.00000000000E+00 -0.10000000000E+04  0.10000000000E+04  0.00000000000E+00 0.  1.
    9000005    2    1    2  501    0  0.80969808654E+01  0.11946128135E+02 -0.37880253699E+03  0.37912326045E+03  0.59002976646E+01 0.  0.
         13    1    3    3    0    0  0.29691636555E+01  0.61157148626E+01 -0.24600887628E+03  0.24610279379E+03  0.00000000000E+00 0.  1.
          1    1    3    3  501    0  0.51278172100E+01  0.58304132724E+01 -0.13279366070E+03  0.13302046666E+03  0.00000000000E+00 0.  1.
         -3    1    1    2    0  502 -0.80969808654E+01 -0.11946128135E+02 -0.62095326125E+03  0.62112094131E+03  0.00000000000E+00 0. -1.
<mgrwt>
<rscale>  1 0.30000000E+03</rscale>
<asrwt>0</asrwt>
<pdfrwt beam="1">  1       21 0.88800828E-03 0.30000000E+03</pdfrwt>
<pdfrwt beam="2">0</pdfrwt>
<totfact> 0.48772055E+05</totfact>
</mgrwt>
</event>
<event>
 6    1  0.1132867E-002  0.3000000E+03  0.7818608E-02  0.1093470E+00
         21   -1    0    0  501  502  0.00000000000E+00  0.00000000000E+00  0.23704161215E+00  0.23704161215E+00  0.00000000000E+00 0. -1.
         13   -1    0    0    0    0 -0.00000000000E+00 -0.00000000000E+00 -0.10000000000E+04  0.10000000000E+04  0.00000000000E+00 0.  1.
    9000005    2    1    2  501    0 -0.12440412025E+02 -0.93496516480E+00 -0.61847036118E+03  0.61874040638E+03  0.13359072297E+02 0.  0.
         13    1    3    3    0    0  0.28998363497E+01 -0.30572737047E+00 -0.10620942587E+03  0.10624944548E+03  0.00000000000E+00 0.  1.
          1    1    3    3  501    0 -0.15340248375E+02 -0.62923779433E+00 -0.51226093531E+03  0.51249096090E+03  0.00000000000E+00 0.  1.
         -1    1    1    2    0  502  0.12440412025E+02  0.93496516480E+00 -0.38129259721E+03  0.38149663524E+03  0.00000000000E+00 0. -1.
<mgrwt>
<rscale>  1 0.30000000E+03</rscale>
<asrwt>0</asrwt>
<pdfrwt beam="1">  1       21 0.86197132E-03 0.30000000E+03</pdfrwt>
<pdfrwt beam="2">0</pdfrwt>
<totfact> 0.51119471E+05</totfact>
</mgrwt>
</event>
<event>
 6    1  0.1132867E-002  0.3000000E+03  0.7818608E-02  0.1093470E+00
         21   -1    0    0  501  502  0.00000000000E+00  0.00000000000E+00  0.25309311235E+00  0.25309311235E+00  0.00000000000E+00 0. -1.
         13   -1    0    0    0    0 -0.00000000000E+00 -0.00000000000E+00 -0.10000000000E+04  0.10000000000E+04  0.00000000000E+00 0.  1.
    9000005    2    1    2  501    0  0.87738090061E+01  0.42764367341E+01 -0.89124826124E+03  0.89131630528E+03  0.51014959603E+01 0.  0.
         13    1    3    3    0    0  0.81688227844E+01  0.22395496641E+01 -0.79205028595E+03  0.79209557550E+03  0.00000000000E+00 0.  1.
          3    1    3    3  501    0  0.60498622170E+00  0.20368870700E+01 -0.99197975285E+02  0.99220729779E+02  0.00000000000E+00 0.  1.
         -1    1    1    2    0  502 -0.87738090061E+01 -0.42764367341E+01 -0.10849864565E+03  0.10893678783E+03  0.00000000000E+00 0. -1.
<mgrwt>
<rscale>  1 0.30000000E+03</rscale>
<asrwt>0</asrwt>
<pdfrwt beam="1">  1       21 0.92034053E-03 0.30000000E+03</pdfrwt>
<pdfrwt beam="2">0</pdfrwt>
<totfact> 0.46090688E+05</totfact>
</mgrwt>
</event>
<event>
 6    1  0.1132867E-002  0.3000000E+03  0.7818608E-02  0.1093470E+00
         21   -1    0    0  501  502  0.00000000000E+00  0.00000000000E+00  0.22366129314E+00  0.22366129314E+00  0.00000000000E+00 0. -1.
         13   -1    0    0    0    0 -0.00000000000E+00 -0.00000000000E+00 -0.10000000000E+04  0.10000000000E+04  0.00000000000E+00 0.  1.
    9000005    2    1    2  501    0  0.59331742348E+01  0.10122496580E+02 -0.76566557269E+03  0.76581905754E+03  0.98687487706E+01 0.  0.
         13    1    3    3    0    0  0.31914642191E+01  0.11115482796E+02 -0.69067726773E+03  0.69077407853E+03  0.00000000000E+00 0.  1.
          3    1    3    3  501    0  0.27417100157E+01 -0.99298621608E+00 -0.74988304957E+02  0.75044979018E+02  0.00000000000E+00 0.  1.
         -3    1    1    2    0  502 -0.59331742348E+01 -0.10122496580E+02 -0.23411076602E+03  0.23440460375E+03  0.00000000000E+00 0. -1.
<mgrwt>
<rscale>  1 0.30000000E+03</rscale>
<asrwt>0</asrwt>
<pdfrwt beam="1">  1       21 0.81331551E-03 0.30000000E+03</pdfrwt>
<pdfrwt beam="2">0</pdfrwt>
<totfact> 0.56027847E+05</totfact>
</mgrwt>
</event>
<event>
 6    1  0.1132867E-002  0.3000000E+03  0.7818608E-02  0.1093470E+00
         21   -1    0    0  501  502  0.00000000000E+00  0.00000000000E+00  0.44485978657E+00  0.44485978657E+00  0.00000000000E+00 0. -1.
         13   -1    0    0    0    0 -0.00000000000E+00 -0.00000000000E+00 -0.10000000000E+04  0.10000000000E+04  0.00000000000E+00 0.  1.
    9000005    2    1    2  501    0  0.12996654903E+02 -0.89101164866E+01 -0.82160351992E+03  0.82179693122E+03  0.83396049372E+01 0.  0.
         13    1    3    3    0    0  0.10460767456E+02 -0.73761634786E+01 -0.45110333205E+03  0.45128488965E+03  0.00000000000E+00 0.  1.
          3    1    3    3  501    0  0.25358874470E+01 -0.15339530080E+01 -0.37050018787E+03  0.37051204157E+03  0.00000000000E+00 0.  1.
         -3    1    1    2    0  502 -0.12996654903E+02  0.89101164866E+01 -0.17795162029E+03  0.17864792856E+03  0.00000000000E+00 0. -1.
<mgrwt>
<rscale>  1 0.30000000E+03</rscale>
<asrwt>0</asrwt>
<pdfrwt beam="1">  1       21 0.16176754E-02 0.30000000E+03</pdfrwt>
<pdfrwt beam="2">0</pdfrwt>
<totfact> 0.18706386E+05</totfact>
</mgrwt>
</event>
<event>
 6    1  0.1132867E-002  0.3000000E+03  0.7818608E-02  0.1093470E+00
         21   -1    0    0  501  502  0.00000000000E+00  0.00000000000E+00  0.79620477443E+00  0.79620477443E+00  0.00000000000E+00 0. -1.
         13   -1    0    0    0    0 -0.00000000000E+00 -0.00000000000E+00 -0.10000000000E+04  0.10000000000E+04  0.00000000000E+00 0.  1.
    9000005    2    1    2  501    0 -0.10220795355E+01  0.11518352251E+02 -0.95105777587E+03  0.95128099231E+03  0.17056266037E+02 0.  0.
         13    1    3    3    0    0 -0.76433491475E+01  0.38969745476E+00 -0.34438262406E+03  0.34446765364E+03  0.00000000000E+00 0.  1.
          3    1    3    3  501    0  0.66212696119E+01  0.11128654797E+02 -0.60667515181E+03  0.60681333867E+03  0.00000000000E+00 0.  1.
         -3    1    1    2    0  502  0.10220795355E+01 -0.11518352251E+02 -0.48146019358E+02  0.49515212463E+02  0.00000000000E+00 0. -1.
<mgrwt>
<rscale>  1 0.30000000E+03</rscale>
<asrwt>0</asrwt>
<pdfrwt beam="1">  1       21 0.28952962E-02 0.30000000E+03</pdfrwt>
<pdfrwt beam="2">0</pdfrwt>
<totfact> 0.72160588E+04</totfact>
</mgrwt>
</event>
<event>
 6    1  0.1132867E-002  0.3000000E+03  0.7818608E-02  0.1093470E+00
         21   -1    0    0  501  502  0.00000000000E+00  0.00000000000E+00  0.59403580240E+00  0.59403580240E+00  0.00000000000E+00 0.  1.
         13   -1    0    0    0    0 -0.00000000000E+00 -0.00000000000E+00 -0.10000000000E+04  0.10000000000E+04  0.00000000000E+00 0.  1.
    9000005    2    1    2  501    0 -0.15761426192E+00 -0.20704616959E+02 -0.74656796186E+03  0.74690966216E+03  0.90341431492E+01 0.  0.
         13    1    3    3    0    0  0.29888179387E+00  0.46497577205E+00 -0.38046709732E+01  0.38446136359E+01  0.00000000000E+00 0.  1.
          3    1    3    3  501    0 -0.45649605579E+00 -0.21169592731E+02 -0.74276329089E+03  0.74306504852E+03  0.00000000000E+00 0.  1.
         -1    1    1    2    0  502  0.15761426192E+00  0.20704616959E+02 -0.25283800234E+03  0.25368437365E+03  0.00000000000E+00 0. -1.
<mgrwt>
<rscale>  1 0.30000000E+03</rscale>
<asrwt>0</asrwt>
<pdfrwt beam="1">  1       21 0.21601347E-02 0.30000000E+03</pdfrwt>
<pdfrwt beam="2">0</pdfrwt>
<totfact> 0.11689046E+05</totfact>
</mgrwt>
</event>
<event>
 6    1  0.1132867E-002  0.3000000E+03  0.7818608E-02  0.1093470E+00
         21   -1    0    0  501  502  0.00000000000E+00  0.00000000000E+00  0.73301250040E+00  0.73301250040E+00  0.00000000000E+00 0. -1.
         13   -1    0    0    0    0 -0.00000000000E+00 -0.00000000000E+00 -0.10000000000E+04  0.10000000000E+04  0.00000000000E+00 0.  1.
    9000005    2    1    2  501    0 -0.20031041610E+01  0.13019325430E+02 -0.93559054859E+03  0.93570836999E+03  0.68530142494E+01 0.  0.
         13    1    3    3    0    0 -0.72671339626E+00  0.13438230385E+02 -0.86981561567E+03  0.86991972010E+03  0.00000000000E+00 0.  1.
          1    1    3    3  501    0 -0.12763907648E+01 -0.41890495517E+00 -0.65774932914E+02  0.65788649891E+02  0.00000000000E+00 0.  1.
         -3    1    1    2    0  502  0.20031041610E+01 -0.13019325430E+02 -0.63676438913E+02  0.65024642510E+02  0.00000000000E+00 0. -1.
<mgrwt>
<rscale>  1 0.30000000E+03</rscale>
<asrwt>0</asrwt>
<pdfrwt beam="1">  1       21 0.26655056E-02 0.30000000E+03</pdfrwt>
<pdfrwt beam="2">0</pdfrwt>
<totfact> 0.82746954E+04</totfact>
</mgrwt>
</event>
<event>
 6    1  0.1132867E-002  0.3000000E+03  0.7818608E-02  0.1093470E+00
         21   -1    0    0  501  502  0.00000000000E+00  0.00000000000E+00  0.97924062530E-01  0.97924062530E-01  0.00000000000E+00 0. -1.
         13   -1    0    0    0    0 -0.00000000000E+00 -0.00000000000E+00 -0.10000000000E+04  0.10000000000E+04  0.00000000000E+00 0.  1.
    9000005    2    1    2  501    0  0.18305858029E+01 -0.78984110806E+01 -0.62881247343E+03  0.62891976060E+03  0.83188094407E+01 0.  0.
         13    1    3    3    0    0  0.33958100730E+01 -0.57713377079E+01 -0.57793545319E+03  0.57797424504E+03  0.00000000000E+00 0.  1.
          3    1    3    3  501    0 -0.15652242701E+01 -0.21270733726E+01 -0.50877020231E+02  0.50945515561E+02  0.00000000000E+00 0.  1.
         -1    1    1    2    0  502 -0.18305858029E+01  0.78984110806E+01 -0.37108960251E+03  0.37117816347E+03  0.00000000000E+00 0. -1.
<mgrwt>
<rscale>  1 0.30000000E+03</rscale>
<asrwt>0</asrwt>
<pdfrwt beam="1">  1       21 0.35608825E-03 0.30000000E+03</pdfrwt>
<pdfrwt beam="2">0</pdfrwt>
<totfact> 0.20257762E+06</totfact>
</mgrwt>
</event>
<event>
 6    1  0.1132867E-002  0.3000000E+03  0.7818608E-02  0.1093470E+00
         21   -1    0    0  501  502  0.00000000000E+00  0.00000000000E+00  0.86892933675E-01  0.86892933675E-01  0.00000000000E+00 0. -1.
         13   -1    0    0    0    0 -0.00000000000E+00 -0.00000000000E+00 -0.10000000000E+04  0.10000000000E+04  0.00000000000E+00 0.  1.
    9000005    2    1    2  501    0 -0.79557233960E+01  0.11673495210E+01 -0.65262870940E+03  0.65270941943E+03  0.63794695512E+01 0.  0.
         13    1    3    3    0    0 -0.88014464109E+00  0.26811748654E+01 -0.24762960657E+03  0.24764568521E+03  0.00000000000E+00 0.  1.
          1    1    3    3  501    0 -0.70755787549E+01 -0.15138253444E+01 -0.40499910284E+03  0.40506373422E+03  0.00000000000E+00 0.  1.
         -1    1    1    2    0  502  0.79557233960E+01 -0.11673495210E+01 -0.34728439766E+03  0.34737747351E+03  0.00000000000E+00 0. -1.
<mgrwt>
<rscale>  1 0.30000000E+03</rscale>
<asrwt>0</asrwt>
<pdfrwt beam="1">  1       21 0.31597497E-03 0.30000000E+03</pdfrwt>
<pdfrwt beam="2">0</pdfrwt>
<totfact> 0.24336664E+06</totfact>
</mgrwt>
</event>
<event>
 6    1  0.1132867E-002  0.3000000E+03  0.7818608E-02  0.1093470E+00
         21   -1    0    0  501  502  0.00000000000E+00  0.00000000000E+00  0.29432312378E+00  0.29432312378E+00  0.00000000000E+00 0. -1.
         13   -1    0    0    0    0 -0.00000000000E+00 -0.00000000000E+00 -0.10000000000E+04  0.10000000000E+04  0.00000000000E+00 0.  1.
    9000005    2    1    2  501    0  0.90594184952E+01  0.46463412014E+01 -0.89586740102E+03  0.89595809220E+03  0.76708032874E+01 0.  0.
         13    1    3    3    0    0  0.95764475291E+01  0.45908088860E+01 -0.89094656551E+03  0.89100985767E+03  0.00000000000E+00 0.  1.
          3    1    3    3  501    0 -0.51702903392E+00  0.55532315391E-01 -0.49208355075E+01  0.49482345288E+01  0.00000000000E+00 0.  1.
         -3    1    1    2    0  502 -0.90594184952E+01 -0.46463412014E+01 -0.10383827586E+03  0.10433623092E+03  0.00000000000E+00 0. -1.
<mgrwt>
<rscale>  1 0.30000000E+03</rscale>
<asrwt>0</asrwt>
<pdfrwt beam="1">  1       21 0.10702682E-02 0.30000000E+03</pdfrwt>
<pdfrwt beam="2">0</pdfrwt>
<totfact> 0.36273717E+05</totfact>
</mgrwt>
</event>
<event>
 6    1  0.1132867E-002  0.3000000E+03  0.7818608E-02  0.1093470E+00
         21   -1    0    0  501  502  0.00000000000E+00  0.00000000000E+00  0.27819676171E+00  0.27819676171E+00  0.00000000000E+00 0. -1.
         13   -1    0    0    0    0 -0.00000000000E+00 -0.00000000000E+00 -0.10000000000E+04  0.10000000000E+04  0.00000000000E+00 0.  1.
    9000005    2    1    2  501    0 -0.92450356519E+01 -0.10574839285E+02 -0.65664817091E+03  0.65691714028E+03  0.12490433242E+02 0.  0.
         13    1    3    3    0    0  0.70984201057E+00  0.15911962383E+01 -0.18277522311E+03  0.18278352760E+03  0.00000000000E+00 0.  1.
          1    1    3    3  501    0 -0.99548776625E+01 -0.12166035523E+02 -0.47387294780E+03  0.47413361267E+03  0.00000000000E+00 0.  1.
         -3    1    1    2    0  502  0.92450356519E+01  0.10574839285E+02 -0.34307363233E+03  0.34336105649E+03  0.00000000000E+00 0. -1.
<mgrwt>
<rscale>  1 0.30000000E+03</rscale>
<asrwt>0</asrwt>
<pdfrwt beam="1">  1       21 0.10116267E-02 0.30000000E+03</pdfrwt>
<pdfrwt beam="2">0</pdfrwt>
<totfact> 0.39674356E+05</totfact>
</mgrwt>
</event>
<event>
 6    1  0.1132867E-002  0.3000000E+03  0.7818608E-02  0.1093470E+00
         21   -1    0    0  501  502  0.00000000000E+00  0.00000000000E+00  0.67954687917E+00  0.67954687917E+00  0.00000000000E+00 0. -1.
         13   -1    0    0    0    0 -0.00000000000E+00 -0.00000000000E+00 -0.10000000000E+04  0.10000000000E+04  0.00000000000E+00 0.  1.
    9000005    2    1    2  501    0 -0.53392106370E+01 -0.86184506003E+01 -0.96030194257E+03  0.96036541751E+03  0.43737157476E+01 0.  0.
         13    1    3    3    0    0 -0.53593035365E+01 -0.57040011186E+01 -0.78755759642E+03  0.78759648643E+03  0.00000000000E+00 0.  1.
          1    1    3    3  501    0  0.20092899543E-01 -0.29144494817E+01 -0.17274434615E+03  0.17276893108E+03  0.00000000000E+00 0.  1.
         -3    1    1    2    0  502  0.53392106370E+01  0.86184506003E+01 -0.39018510549E+02  0.40314129365E+02  0.00000000000E+00 0. -1.
<mgrwt>
<rscale>  1 0.30000000E+03</rscale>
<asrwt>0</asrwt>
<pdfrwt beam="1">  1       21 0.24710848E-02 0.30000000E+03</pdfrwt>
<pdfrwt beam="2">0</pdfrwt>
<totfact> 0.93746616E+04</totfact>
</mgrwt>
</event>
<event>
 6    1  0.1132867E-002  0.3000000E+03  0.7818608E-02  0.1093470E+00
         21   -1    0    0  501  502  0.00000000000E+00  0.00000000000E+00  0.22493282899E+01  0.22493282899E+01  0.00000000000E+00 0. -1.
         13   -1    0    0    0    0 -0.00000000000E+00 -0.00000000000E+00 -0.10000000000E+04  0.10000000000E+04  0.00000000000E+00 0.  1.
    9000005    2    1    2  501    0 -0.10322538158E+02  0.40030093405E+01 -0.98531270006E+03  0.98559754110E+03  0.20947965241E+02 0.  0.
         13    1    3    3    0    0 -0.16452938747E+02  0.49760633750E+01 -0.78713113915E+03  0.78731879859E+03  0.00000000000E+00 0.  1.
          1    1    3    3  501    0  0.61304005885E+01 -0.97305403448E+00 -0.19818156091E+03  0.19827874251E+03  0.00000000000E+00 0.  1.
         -1    1    1    2    0  502  0.10322538158E+02 -0.40030093405E+01 -0.12437971651E+02  0.16651787189E+02  0.00000000000E+00 0. -1.
<mgrwt>
<rscale>  1 0.30000000E+03</rscale>
<asrwt>0</asrwt>
<pdfrwt beam="1">  1       21 0.81793928E-02 0.30000000E+03</pdfrwt>
<pdfrwt beam="2">0</pdfrwt>
<totfact> 0.12285556E+04</totfact>
</mgrwt>
</event>
<event>
 6    1  0.1132867E-002  0.3000000E+03  0.7818608E-02  0.1093470E+00
         21   -1    0    0  501  502  0.00000000000E+00  0.00000000000E+00  0.83489492081E+00  0.83489492081E+00  0.00000000000E+00 0. -1.
         13   -1    0    0    0    0 -0.00000000000E+00 -0.00000000000E+00 -0.10000000000E+04  0.10000000000E+04  0.00000000000E+00 0.  1.
    9000005    2    1    2  501    0  0.19876623583E+02  0.12760159037E+02 -0.72008361742E+03  0.72075565867E+03  0.20258371287E+02 0.  0.
         13    1    3    3    0    0 -0.11747137128E+01  0.66345065227E+00 -0.27970324090E+03  0.27970649454E+03  0.00000000000E+00 0.  1.
          3    1    3    3  501    0  0.21051337296E+02  0.12096708385E+02 -0.44038037652E+03  0.44104916413E+03  0.00000000000E+00 0.  1.
         -3    1    1    2    0  502 -0.19876623583E+02 -0.12760159037E+02 -0.27908148766E+03  0.28007923625E+03  0.00000000000E+00 0. -1.
<mgrwt>
<rscale>  1 0.30000000E+03</rscale>
<asrwt>0</asrwt>
<pdfrwt beam="1">  1       21 0.30359879E-02 0.30000000E+03</pdfrwt>
<pdfrwt beam="2">0</pdfrwt>
<totfact> 0.66696243E+04</totfact>
</mgrwt>
</event>
<event>
 6    1  0.1132867E-002  0.3000000E+03  0.7818608E-02  0.1093470E+00
         21   -1    0    0  501  502  0.00000000000E+00  0.00000000000E+00  0.20411617925E+00  0.20411617925E+00  0.00000000000E+00 0. -1.
         13   -1    0    0    0    0 -0.00000000000E+00 -0.00000000000E+00 -0.10000000000E+04  0.10000000000E+04  0.00000000000E+00 0.  1.
    9000005    2    1    2  501    0 -0.38162688009E+01  0.11480441894E+02 -0.74570841870E+03  0.74582879429E+03  0.57602275700E+01 0.  0.
         13    1    3    3    0    0 -0.42039716616E+01  0.38119851990E+01 -0.28668676742E+03  0.28674292881E+03  0.00000000000E+00 0.  1.
          1    1    3    3  501    0  0.38770286067E+00  0.76684566952E+01 -0.45902165128E+03  0.45908586548E+03  0.00000000000E+00 0.  1.
         -1    1    1    2    0  502  0.38162688009E+01 -0.11480441894E+02 -0.25408746512E+03  0.25437532188E+03  0.00000000000E+00 0. -1.
<mgrwt>
<rscale>  1 0.30000000E+03</rscale>
<asrwt>0</asrwt>
<pdfrwt beam="1">  1       21 0.74224222E-03 0.30000000E+03</pdfrwt>
<pdfrwt beam="2">0</pdfrwt>
<totfact> 0.64701375E+05</totfact>
</mgrwt>
</event>
<event>
 6    1  0.1132867E-002  0.3000000E+03  0.7818608E-02  0.1093470E+00
         21   -1    0    0  501  502  0.00000000000E+00  0.00000000000E+00  0.32017283402E+00  0.32017283402E+00  0.00000000000E+00 0. -1.
         13   -1    0    0    0    0 -0.00000000000E+00 -0.00000000000E+00 -0.10000000000E+04  0.10000000000E+04  0.00000000000E+00 0.  1.
    9000005    2    1    2  501    0 -0.49114913739E+01  0.10901167510E+02 -0.85142168112E+03  0.85158068221E+03  0.11305796745E+02 0.  0.
         13    1    3    3    0    0 -0.32747681516E+01  0.37702066656E+01 -0.10104026328E+03  0.10116359705E+03  0.00000000000E+00 0.  1.
          1    1    3    3  501    0 -0.16367232223E+01  0.71309608447E+01 -0.75038141784E+03  0.75041708516E+03  0.00000000000E+00 0.  1.
         -3    1    1    2    0  502  0.49114913739E+01 -0.10901167510E+02 -0.14825814605E+03  0.14873949062E+03  0.00000000000E+00 0. -1.
<mgrwt>
<rscale>  1 0.30000000E+03</rscale>
<asrwt>0</asrwt>
<pdfrwt beam="1">  1       21 0.11642673E-02 0.30000000E+03</pdfrwt>
<pdfrwt beam="2">0</pdfrwt>
<totfact> 0.31720992E+05</totfact>
</mgrwt>
</event>
<event>
 6    1  0.1132867E-002  0.3000000E+03  0.7818608E-02  0.1093470E+00
         21   -1    0    0  501  502  0.00000000000E+00  0.00000000000E+00  0.56287404534E+00  0.56287404534E+00  0.00000000000E+00 0. -1.
         13   -1    0    0    0    0 -0.00000000000E+00 -0.00000000000E+00 -0.10000000000E+04  0.10000000000E+04  0.00000000000E+00 0.  1.
    9000005    2    1    2  501    0  0.12772579844E+02 -0.49624193875E+01 -0.89891732997E+03  0.89911340984E+03  0.12837181853E+02 0.  0.
         13    1    3    3    0    0  0.10462305982E+02 -0.14815889397E+00 -0.31912120021E+03  0.31929269053E+03  0.00000000000E+00 0.  1.
          1    1    3    3  501    0  0.23102738620E+01 -0.48142604935E+01 -0.57979612975E+03  0.57982071931E+03  0.00000000000E+00 0.  1.
         -3    1    1    2    0  502 -0.12772579844E+02  0.49624193875E+01 -0.10051979599E+03  0.10144946420E+03  0.00000000000E+00 0. -1.
<mgrwt>
<rscale>  1 0.30000000E+03</rscale>
<asrwt>0</asrwt>
<pdfrwt beam="1">  1       21 0.20468190E-02 0.30000000E+03</pdfrwt>
<pdfrwt beam="2">0</pdfrwt>
<totfact> 0.12765240E+05</totfact>
</mgrwt>
</event>
<event>
 6    1  0.1132867E-002  0.3000000E+03  0.7818608E-02  0.1093470E+00
         21   -1    0    0  501  502  0.00000000000E+00  0.00000000000E+00  0.70594674771E-01  0.70594674771E-01  0.00000000000E+00 0. -1.
         13   -1    0    0    0    0 -0.00000000000E+00 -0.00000000000E+00 -0.10000000000E+04  0.10000000000E+04  0.00000000000E+00 0.  1.
    9000005    2    1    2  501    0  0.69248814587E+01  0.37027365198E+01 -0.46359893414E+03  0.46368263940E+03  0.39942590337E+01 0.  0.
         13    1    3    3    0    0  0.65246498643E+01  0.21380462310E+01 -0.41519702430E+03  0.41525379141E+03  0.00000000000E+00 0.  1.
          1    1    3    3  501    0  0.40023159440E+00  0.15646902888E+01 -0.48401909846E+02  0.48428847991E+02  0.00000000000E+00 0.  1.
         -1    1    1    2    0  502 -0.69248814587E+01 -0.37027365198E+01 -0.53633047118E+03  0.53638795527E+03  0.00000000000E+00 0. -1.
<mgrwt>
<rscale>  1 0.30000000E+03</rscale>
<asrwt>0</asrwt>
<pdfrwt beam="1">  1       21 0.25670845E-03 0.30000000E+03</pdfrwt>
<pdfrwt beam="2">0</pdfrwt>
<totfact> 0.33433550E+06</totfact>
</mgrwt>
</event>
<event>
 6    1  0.1132867E-002  0.3000000E+03  0.7818608E-02  0.1093470E+00
         21   -1    0    0  501  502  0.00000000000E+00  0.00000000000E+00  0.32895590582E+00  0.32895590582E+00  0.00000000000E+00 0. -1.
         13   -1    0    0    0    0 -0.00000000000E+00 -0.00000000000E+00 -0.10000000000E+04  0.10000000000E+04  0.00000000000E+00 0.  1.
    9000005    2    1    2  501    0  0.64817433430E+01  0.97285880425E+01 -0.82581502876E+03  0.82608036196E+03  0.17367909438E+02 0.  0.
         13    1    3    3    0    0  0.42470628809E+01  0.70207577148E+00 -0.44008247484E+02  0.44218280158E+02  0.00000000000E+00 0.  1.
          3    1    3    3  501    0  0.22346804620E+01  0.90265122710E+01 -0.78180678127E+03  0.78186208180E+03  0.00000000000E+00 0.  1.
         -1    1    1    2    0  502 -0.64817433430E+01 -0.97285880425E+01 -0.17385601534E+03  0.17424859394E+03  0.00000000000E+00 0. -1.
<mgrwt>
<rscale>  1 0.30000000E+03</rscale>
<asrwt>0</asrwt>
<pdfrwt beam="1">  1       21 0.11962058E-02 0.30000000E+03</pdfrwt>
<pdfrwt beam="2">0</pdfrwt>
<totfact> 0.30380064E+05</totfact>
</mgrwt>
</event>
<event>
 6    1  0.1132867E-002  0.3000000E+03  0.7818608E-02  0.1093470E+00
         21   -1    0    0  501  502  0.00000000000E+00  0.00000000000E+00  0.26546002070E+00  0.26546002070E+00  0.00000000000E+00 0. -1.
         13   -1    0    0    0    0 -0.00000000000E+00 -0.00000000000E+00 -0.10000000000E+04  0.10000000000E+04  0.00000000000E+00 0.  1.
    9000005    2    1    2  501    0  0.12225492500E+02 -0.14288149883E+00 -0.23848340426E+03  0.23891614813E+03  0.75570264012E+01 0.  0.
         13    1    3    3    0    0  0.71815181369E+01  0.23941232524E+01 -0.18045557847E+03  0.18061429021E+03  0.00000000000E+00 0.  1.
          1    1    3    3  501    0  0.50439743628E+01 -0.25370047512E+01 -0.58027825796E+02  0.58301857921E+02  0.00000000000E+00 0.  1.
         -1    1    1    2    0  502 -0.12225492500E+02  0.14288149883E+00 -0.76125113572E+03  0.76134931189E+03  0.00000000000E+00 0. -1.
<mgrwt>
<rscale>  1 0.30000000E+03</rscale>
<asrwt>0</asrwt>
<pdfrwt beam="1">  1       21 0.96531120E-03 0.30000000E+03</pdfrwt>
<pdfrwt beam="2">0</pdfrwt>
<totfact> 0.42737062E+05</totfact>
</mgrwt>
</event>
<event>
 6    1  0.1132867E-002  0.3000000E+03  0.7818608E-02  0.1093470E+00
         21   -1    0    0  501  502  0.00000000000E+00  0.00000000000E+00  0.10374949219E+01  0.10374949219E+01  0.00000000000E+00 0. -1.
         13   -1    0    0    0    0 -0.00000000000E+00 -0.00000000000E+00 -0.10000000000E+04  0.10000000000E+04  0.00000000000E+00 0.  1.
    9000005    2    1    2  501    0  0.34487117345E+01 -0.18064343989E+02 -0.90594222554E+03  0.90621668212E+03  0.12615260086E+02 0.  0.
         13    1    3    3    0    0  0.29506085454E+01 -0.51675692911E+00 -0.31380956819E+03  0.31382386496E+03  0.00000000000E+00 0.  1.
          1    1    3    3  501    0  0.49810318910E+00 -0.17547587060E+02 -0.59213265736E+03  0.59239281716E+03  0.00000000000E+00 0.  1.
         -1    1    1    2    0  502 -0.34487117345E+01  0.18064343989E+02 -0.93020279534E+02  0.94820812805E+02  0.00000000000E+00 0. -1.
<mgrwt>
<rscale>  1 0.30000000E+03</rscale>
<asrwt>0</asrwt>
<pdfrwt beam="1">  1       21 0.37727168E-02 0.30000000E+03</pdfrwt>
<pdfrwt beam="2">0</pdfrwt>
<totfact> 0.46394292E+04</totfact>
</mgrwt>
</event>
<event>
 6    1  0.1132867E-002  0.3000000E+03  0.7818608E-02  0.1093470E+00
         21   -1    0    0  501  502  0.00000000000E+00  0.00000000000E+00  0.15009304699E+00  0.15009304699E+00  0.00000000000E+00 0. -1.
         13   -1    0    0    0    0 -0.00000000000E+00 -0.00000000000E+00 -0.10000000000E+04  0.10000000000E+04  0.00000000000E+00 0.  1.
    9000005    2    1    2  501    0  0.35031846606E+00 -0.89865246658E+01 -0.80835487459E+03  0.80844399568E+03  0.79505047891E+01 0.  0.
         13    1    3    3    0    0  0.22480376539E+01 -0.60166325038E+01 -0.26549522128E+03  0.26557290160E+03  0.00000000000E+00 0.  1.
          3    1    3    3  501    0 -0.18977191879E+01 -0.29698921620E+01 -0.54285965331E+03  0.54287109408E+03  0.00000000000E+00 0.  1.
         -3    1    1    2    0  502 -0.35031846606E+00  0.89865246658E+01 -0.19149503236E+03  0.19170609737E+03  0.00000000000E+00 0. -1.
<mgrwt>
<rscale>  1 0.30000000E+03</rscale>
<asrwt>0</asrwt>
<pdfrwt beam="1">  1       21 0.54579405E-03 0.30000000E+03</pdfrwt>
<pdfrwt beam="2">0</pdfrwt>
<totfact> 0.10463667E+06</totfact>
</mgrwt>
</event>
<event>
 6    1  0.1132867E-002  0.3000000E+03  0.7818608E-02  0.1093470E+00
         21   -1    0    0  501  502  0.00000000000E+00  0.00000000000E+00  0.12141975207E+01  0.12141975207E+01  0.00000000000E+00 0. -1.
         13   -1    0    0    0    0 -0.00000000000E+00 -0.00000000000E+00 -0.10000000000E+04  0.10000000000E+04  0.00000000000E+00 0.  1.
    9000005    2    1    2  501    0  0.13147381405E+02  0.11592562391E+02 -0.92914433595E+03  0.92940072385E+03  0.13010277497E+02 0.  0.
         13    1    3    3    0    0  0.14264618851E+02  0.66852634193E+01 -0.80544722466E+03  0.80560126850E+03  0.00000000000E+00 0.  1.
          3    1    3    3  501    0 -0.11172374463E+01  0.49072989714E+01 -0.12369711129E+03  0.12379945535E+03  0.00000000000E+00 0.  1.
         -1    1    1    2    0  502 -0.13147381405E+02 -0.11592562391E+02 -0.69641466528E+02  0.71813473672E+02  0.00000000000E+00 0. -1.
<mgrwt>
<rscale>  1 0.30000000E+03</rscale>
<asrwt>0</asrwt>
<pdfrwt beam="1">  1       21 0.44152730E-02 0.30000000E+03</pdfrwt>
<pdfrwt beam="2">0</pdfrwt>
<totfact> 0.35586875E+04</totfact>
</mgrwt>
</event>
<event>
 6    1  0.1132867E-002  0.3000000E+03  0.7818608E-02  0.1093470E+00
         21   -1    0    0  501  502  0.00000000000E+00  0.00000000000E+00  0.16073030203E+00  0.16073030203E+00  0.00000000000E+00 0.  1.
         13   -1    0    0    0    0 -0.00000000000E+00 -0.00000000000E+00 -0.10000000000E+04  0.10000000000E+04  0.00000000000E+00 0.  1.
    9000005    2    1    2  501    0 -0.85231826347E+01  0.41955896236E+01 -0.80286001583E+03  0.80295253050E+03  0.76363344849E+01 0.  0.
         13    1    3    3    0    0 -0.70431647047E+01  0.62890561840E+01 -0.56746161667E+03  0.56754017020E+03  0.00000000000E+00 0.  1.
          3    1    3    3  501    0 -0.14800179300E+01 -0.20934665604E+01 -0.23539839916E+03  0.23541236030E+03  0.00000000000E+00 0.  1.
         -1    1    1    2    0  502  0.85231826347E+01 -0.41955896236E+01 -0.19697925387E+03  0.19720819981E+03  0.00000000000E+00 0. -1.
<mgrwt>
<rscale>  1 0.30000000E+03</rscale>
<asrwt>0</asrwt>
<pdfrwt beam="1">  1       21 0.58447506E-03 0.30000000E+03</pdfrwt>
<pdfrwt beam="2">0</pdfrwt>
<totfact> 0.94052372E+05</totfact>
</mgrwt>
</event>
<event>
 6    1  0.1132867E-002  0.3000000E+03  0.7818608E-02  0.1093470E+00
         21   -1    0    0  501  502  0.00000000000E+00  0.00000000000E+00  0.26231601449E+00  0.26231601449E+00  0.00000000000E+00 0. -1.
         13   -1    0    0    0    0 -0.00000000000E+00 -0.00000000000E+00 -0.10000000000E+04  0.10000000000E+04  0.00000000000E+00 0.  1.
    9000005    2    1    2  501    0 -0.12706024453E+02  0.14225238856E+01 -0.76147407524E+03  0.76165591651E+03  0.10653697104E+02 0.  0.
         13    1    3    3    0    0 -0.38036425528E+01 -0.43576625339E+01 -0.20969476456E+03  0.20977452468E+03  0.00000000000E+00 0.  1.
          3    1    3    3  501    0 -0.89023818997E+01  0.57801864195E+01 -0.55177931068E+03  0.55188139184E+03  0.00000000000E+00 0.  1.
         -3    1    1    2    0  502  0.12706024453E+02 -0.14225238856E+01 -0.23826360874E+03  0.23860639950E+03  0.00000000000E+00 0. -1.
<mgrwt>
<rscale>  1 0.30000000E+03</rscale>
<asrwt>0</asrwt>
<pdfrwt beam="1">  1       21 0.95387843E-03 0.30000000E+03</pdfrwt>
<pdfrwt beam="2">0</pdfrwt>
<totfact> 0.43551596E+05</totfact>
</mgrwt>
</event>
<event>
 6    1  0.1132867E-002  0.3000000E+03  0.7818608E-02  0.1093470E+00
         21   -1    0    0  501  502  0.00000000000E+00  0.00000000000E+00  0.30121598035E+00  0.30121598035E+00  0.00000000000E+00 0. -1.
         13   -1    0    0    0    0 -0.00000000000E+00 -0.00000000000E+00 -0.10000000000E+04  0.10000000000E+04  0.00000000000E+00 0.  1.
    9000005    2    1    2  501    0  0.10037963644E+02 -0.41012080187E+01 -0.88672634344E+03  0.88680957332E+03  0.54800159601E+01 0.  0.
         13    1    3    3    0    0  0.38522813622E+01  0.39122424298E+00 -0.17862888079E+03  0.17867084312E+03  0.00000000000E+00 0.  1.
          1    1    3    3  501    0  0.61856822821E+01 -0.44924322617E+01 -0.70809746265E+03  0.70813873021E+03  0.00000000000E+00 0.  1.
         -1    1    1    2    0  502 -0.10037963644E+02  0.41012080187E+01 -0.11297244058E+03  0.11349164266E+03  0.00000000000E+00 0. -1.
<mgrwt>
<rscale>  1 0.30000000E+03</rscale>
<asrwt>0</asrwt>
<pdfrwt beam="1">  1       21 0.10953331E-02 0.30000000E+03</pdfrwt>
<pdfrwt beam="2">0</pdfrwt>
<totfact> 0.34961392E+05</totfact>
</mgrwt>
</event>
<event>
 6    1  0.1132867E-002  0.3000000E+03  0.7818608E-02  0.1093470E+00
         21   -1    0    0  501  502  0.00000000000E+00  0.00000000000E+00  0.20494108955E+00  0.20494108955E+00  0.00000000000E+00 0. -1.
         13   -1    0    0    0    0 -0.00000000000E+00 -0.00000000000E+00 -0.10000000000E+04  0.10000000000E+04  0.00000000000E+00 0.  1.
    9000005    2    1    2  501    0 -0.10716389967E+02 -0.15883073071E+01 -0.70917377368E+03  0.70938180727E+03  0.13332047104E+02 0.  0.
         13    1    3    3    0    0 -0.11720459832E+02  0.61876731846E+00 -0.34432050780E+03  0.34452048436E+03  0.00000000000E+00 0.  1.
          1    1    3    3  501    0  0.10040698644E+01 -0.22070746255E+01 -0.36485326588E+03  0.36486132291E+03  0.00000000000E+00 0.  1.
         -3    1    1    2    0  502  0.10716389967E+02  0.15883073071E+01 -0.29062128523E+03  0.29082313382E+03  0.00000000000E+00 0. -1.
<mgrwt>
<rscale>  1 0.30000000E+03</rscale>
<asrwt>0</asrwt>
<pdfrwt beam="1">  1       21 0.74524190E-03 0.30000000E+03</pdfrwt>
<pdfrwt beam="2">0</pdfrwt>
<totfact> 0.64292698E+05</totfact>
</mgrwt>
</event>
<event>
 6    1  0.1132867E-002  0.3000000E+03  0.7818608E-02  0.1093470E+00
         21   -1    0    0  501  502  0.00000000000E+00  0.00000000000E+00  0.24598375519E+00  0.24598375519E+00  0.00000000000E+00 0. -1.
         13   -1    0    0    0    0 -0.00000000000E+00 -0.00000000000E+00 -0.10000000000E+04  0.10000000000E+04  0.00000000000E+00 0.  1.
    9000005    2    1    2  501    0 -0.11202175073E+02 -0.73600538529E+01 -0.71364555723E+03  0.71382372652E+03  0.86413003452E+01 0.  0.
         13    1    3    3    0    0 -0.84895826661E+00 -0.84568167673E+00 -0.28787348926E+03  0.28787598324E+03  0.00000000000E+00 0.  1.
          3    1    3    3  501    0 -0.10353216807E+02 -0.65143721761E+01 -0.42577206797E+03  0.42594774328E+03  0.00000000000E+00 0.  1.
         -3    1    1    2    0  502  0.11202175073E+02  0.73600538529E+01 -0.28610845901E+03  0.28642225723E+03  0.00000000000E+00 0. -1.
<mgrwt>
<rscale>  1 0.30000000E+03</rscale>
<asrwt>0</asrwt>
<pdfrwt beam="1">  1       21 0.89448827E-03 0.30000000E+03</pdfrwt>
<pdfrwt beam="2">0</pdfrwt>
<totfact> 0.48214823E+05</totfact>
</mgrwt>
</event>
<event>
 6    1  0.1132867E-002  0.3000000E+03  0.7818608E-02  0.1093470E+00
         21   -1    0    0  501  502  0.00000000000E+00  0.00000000000E+00  0.19672120197E+00  0.19672120197E+00  0.00000000000E+00 0. -1.
         13   -1    0    0    0    0 -0.00000000000E+00 -0.00000000000E+00 -0.10000000000E+04  0.10000000000E+04  0.00000000000E+00 0.  1.
    9000005    2    1    2  501    0  0.33477412739E+00 -0.12994936943E+02 -0.64948308277E+03  0.64963542813E+03  0.53790527677E+01 0.  0.
         13    1    3    3    0    0 -0.24614927640E+01 -0.46153746904E+01 -0.23442339123E+03  0.23448174127E+03  0.00000000000E+00 0.  1.
          3    1    3    3  501    0  0.27962668914E+01 -0.83795622523E+01 -0.41505969154E+03  0.41515368686E+03  0.00000000000E+00 0.  1.
         -1    1    1    2    0  502 -0.33477412739E+00  0.12994936943E+02 -0.35032019602E+03  0.35056129307E+03  0.00000000000E+00 0. -1.
<mgrwt>
<rscale>  1 0.30000000E+03</rscale>
<asrwt>0</asrwt>
<pdfrwt beam="1">  1       21 0.71535133E-03 0.30000000E+03</pdfrwt>
<pdfrwt beam="2">0</pdfrwt>
<totfact> 0.68560312E+05</totfact>
</mgrwt>
</event>
<event>
 6    1  0.1132867E-002  0.3000000E+03  0.7818608E-02  0.1093470E+00
         21   -1    0    0  501  502  0.00000000000E+00  0.00000000000E+00  0.47657931946E+00  0.47657931946E+00  0.00000000000E+00 0. -1.
         13   -1    0    0    0    0 -0.00000000000E+00 -0.00000000000E+00 -0.10000000000E+04  0.10000000000E+04  0.00000000000E+00 0.  1.
    9000005    2    1    2  501    0 -0.99944052580E+01  0.37963527304E+01 -0.68050436721E+03  0.68127843254E+03  0.30656294967E+02 0.  0.
         13    1    3    3    0    0 -0.78338880540E+01  0.18051475946E+01 -0.41730041678E+02  0.42497349780E+02  0.00000000000E+00 0.  1.
          3    1    3    3  501    0 -0.21605172040E+01  0.19912051359E+01 -0.63877432553E+03  0.63878108276E+03  0.00000000000E+00 0.  1.
         -3    1    1    2    0  502  0.99944052580E+01 -0.37963527304E+01 -0.31901905347E+03  0.31919814678E+03  0.00000000000E+00 0. -1.
<mgrwt>
<rscale>  1 0.30000000E+03</rscale>
<asrwt>0</asrwt>
<pdfrwt beam="1">  1       21 0.17330194E-02 0.30000000E+03</pdfrwt>
<pdfrwt beam="2">0</pdfrwt>
<totfact> 0.16732269E+05</totfact>
</mgrwt>
</event>
<event>
 6    1  0.1132867E-002  0.3000000E+03  0.7818608E-02  0.1093470E+00
         21   -1    0    0  501  502  0.00000000000E+00  0.00000000000E+00  0.18486385050E+00  0.18486385050E+00  0.00000000000E+00 0. -1.
         13   -1    0    0    0    0 -0.00000000000E+00 -0.00000000000E+00 -0.10000000000E+04  0.10000000000E+04  0.00000000000E+00 0.  1.
    9000005    2    1    2  501    0 -0.22057579092E+01  0.97605220139E+01 -0.81652192773E+03  0.81661870844E+03  0.76107397297E+01 0.  0.
         13    1    3    3    0    0 -0.29147925139E+01  0.64119539220E+00 -0.12175533256E+03  0.12179190512E+03  0.00000000000E+00 0.  1.
          1    1    3    3  501    0  0.70903460470E+00  0.91193266217E+01 -0.69476659517E+03  0.69482680332E+03  0.00000000000E+00 0.  1.
         -3    1    1    2    0  502  0.22057579092E+01 -0.97605220139E+01 -0.18329320842E+03  0.18356615541E+03  0.00000000000E+00 0. -1.
<mgrwt>
<rscale>  1 0.30000000E+03</rscale>
<asrwt>0</asrwt>
<pdfrwt beam="1">  1       21 0.67223360E-03 0.30000000E+03</pdfrwt>
<pdfrwt beam="2">0</pdfrwt>
<totfact> 0.75577640E+05</totfact>
</mgrwt>
</event>
<event>
 6    1  0.1132867E-002  0.3000000E+03  0.7818608E-02  0.1093470E+00
         21   -1    0    0  501  502  0.00000000000E+00  0.00000000000E+00  0.30746490496E+00  0.30746490496E+00  0.00000000000E+00 0. -1.
         13   -1    0    0    0    0 -0.00000000000E+00 -0.00000000000E+00 -0.10000000000E+04  0.10000000000E+04  0.00000000000E+00 0.  1.
    9000005    2    1    2  501    0  0.14082243911E+01 -0.14622875318E+02 -0.74391034033E+03  0.74410375155E+03  0.84845177278E+01 0.  0.
         13    1    3    3    0    0  0.23517270429E+01 -0.78007558323E+01 -0.22457395374E+03  0.22472170146E+03  0.00000000000E+00 0.  1.
          1    1    3    3  501    0 -0.94350265175E+00 -0.68221194856E+01 -0.51933638659E+03  0.51938205009E+03  0.00000000000E+00 0.  1.
         -3    1    1    2    0  502 -0.14082243911E+01  0.14622875318E+02 -0.25578219476E+03  0.25620371336E+03  0.00000000000E+00 0. -1.
<mgrwt>
<rscale>  1 0.30000000E+03</rscale>
<asrwt>0</asrwt>
<pdfrwt beam="1">  1       21 0.11180566E-02 0.30000000E+03</pdfrwt>
<pdfrwt beam="2">0</pdfrwt>
<totfact> 0.33836534E+05</totfact>
</mgrwt>
</event>
<event>
 6    1  0.1132867E-002  0.3000000E+03  0.7818608E-02  0.1093470E+00
         21   -1    0    0  501  502  0.00000000000E+00  0.00000000000E+00  0.68125043308E+01  0.68125043308E+01  0.00000000000E+00 0. -1.
         13   -1    0    0    0    0 -0.00000000000E+00 -0.00000000000E+00 -0.10000000000E+04  0.10000000000E+04  0.00000000000E+00 0.  1.
    9000005    2    1    2  501    0 -0.47302284854E+02  0.11933111389E+02 -0.90197331967E+03  0.90337203254E+03  0.12052157107E+02 0.  0.
         13    1    3    3    0    0 -0.27855168411E+01 -0.21414636955E+01 -0.53705348464E+02  0.53820158161E+02  0.00000000000E+00 0.  1.
          1    1    3    3  501    0 -0.44516768013E+02  0.14074575085E+02 -0.84826797120E+03  0.84955187438E+03  0.00000000000E+00 0.  1.
         -3    1    1    2    0  502  0.47302284854E+02 -0.11933111389E+02 -0.91214176003E+02  0.10344047179E+03  0.00000000000E+00 0. -1.
<mgrwt>
<rscale>  1 0.30000000E+03</rscale>
<asrwt>0</asrwt>
<pdfrwt beam="1">  1       21 0.24772795E-01 0.30000000E+03</pdfrwt>
<pdfrwt beam="2">0</pdfrwt>
<totfact> 0.15876971E+03</totfact>
</mgrwt>
</event>
<event>
 6    1  0.1132867E-002  0.3000000E+03  0.7818608E-02  0.1093470E+00
         21   -1    0    0  501  502  0.00000000000E+00  0.00000000000E+00  0.14152950401E+00  0.14152950401E+00  0.00000000000E+00 0. -1.
         13   -1    0    0    0    0 -0.00000000000E+00 -0.00000000000E+00 -0.10000000000E+04  0.10000000000E+04  0.00000000000E+00 0.  1.
    9000005    2    1    2  501    0  0.89852276152E+01 -0.55488790624E+01 -0.37515509702E+03  0.37534890054E+03  0.58245981112E+01 0.  0.
         13    1    3    3    0    0  0.82174734528E+01 -0.25815257539E+01 -0.31273672066E+03  0.31285531415E+03  0.00000000000E+00 0.  1.
          1    1    3    3  501    0  0.76775416240E+00 -0.29673533085E+01 -0.62418376358E+02  0.62493586385E+02  0.00000000000E+00 0.  1.
         -3    1    1    2    0  502 -0.89852276152E+01  0.55488790624E+01 -0.62470337348E+03  0.62479262897E+03  0.00000000000E+00 0. -1.
<mgrwt>
<rscale>  1 0.30000000E+03</rscale>
<asrwt>0</asrwt>
<pdfrwt beam="1">  1       21 0.51465383E-03 0.30000000E+03</pdfrwt>
<pdfrwt beam="2">0</pdfrwt>
<totfact> 0.11464400E+06</totfact>
</mgrwt>
</event>
<event>
 6    1  0.1132867E-002  0.3000000E+03  0.7818608E-02  0.1093470E+00
         21   -1    0    0  501  502  0.00000000000E+00  0.00000000000E+00  0.28247399986E+00  0.28247399986E+00  0.00000000000E+00 0. -1.
         13   -1    0    0    0    0 -0.00000000000E+00 -0.00000000000E+00 -0.10000000000E+04  0.10000000000E+04  0.00000000000E+00 0.  1.
    9000005    2    1    2  501    0  0.80417483429E+01 -0.41243369076E+01 -0.78458474307E+03  0.78495993881E+03  0.22521247738E+02 0.  0.
         13    1    3    3    0    0  0.51888289258E+01 -0.79923366003E+01 -0.74801652665E+03  0.74807721896E+03  0.00000000000E+00 0.  1.
          3    1    3    3  501    0  0.28529194172E+01  0.38679996927E+01 -0.36568216421E+02  0.36882719843E+02  0.00000000000E+00 0.  1.
         -1    1    1    2    0  502 -0.80417483429E+01  0.41243369076E+01 -0.21513278293E+03  0.21532253519E+03  0.00000000000E+00 0. -1.
<mgrwt>
<rscale>  1 0.30000000E+03</rscale>
<asrwt>0</asrwt>
<pdfrwt beam="1">  1       21 0.10271803E-02 0.30000000E+03</pdfrwt>
<pdfrwt beam="2">0</pdfrwt>
<totfact> 0.38723917E+05</totfact>
</mgrwt>
</event>
<event>
 6    1  0.1132867E-002  0.3000000E+03  0.7818608E-02  0.1093470E+00
         21   -1    0    0  501  502  0.00000000000E+00  0.00000000000E+00  0.23937536108E+00  0.23937536108E+00  0.00000000000E+00 0. -1.
         13   -1    0    0    0    0 -0.00000000000E+00 -0.00000000000E+00 -0.10000000000E+04  0.10000000000E+04  0.00000000000E+00 0.  1.
    9000005    2    1    2  501    0 -0.48097970545E+01  0.11820211989E+02 -0.57742510372E+03  0.57771109963E+03  0.12942668770E+02 0.  0.
         13    1    3    3    0    0 -0.74746750467E+01  0.12270197800E+02 -0.38664847209E+03  0.38691532599E+03  0.00000000000E+00 0.  1.
          1    1    3    3  501    0  0.26648779922E+01 -0.44998581092E+00 -0.19077663163E+03  0.19079577364E+03  0.00000000000E+00 0.  1.
         -1    1    1    2    0  502  0.48097970545E+01 -0.11820211989E+02 -0.42233552092E+03  0.42252827573E+03  0.00000000000E+00 0. -1.
<mgrwt>
<rscale>  1 0.30000000E+03</rscale>
<asrwt>0</asrwt>
<pdfrwt beam="1">  1       21 0.87045769E-03 0.30000000E+03</pdfrwt>
<pdfrwt beam="2">0</pdfrwt>
<totfact> 0.50334659E+05</totfact>
</mgrwt>
</event>
<event>
 6    1  0.1132867E-002  0.3000000E+03  0.7818608E-02  0.1093470E+00
         21   -1    0    0  501  502  0.00000000000E+00  0.00000000000E+00  0.22662967549E+00  0.22662967549E+00  0.00000000000E+00 0. -1.
         13   -1    0    0    0    0 -0.00000000000E+00 -0.00000000000E+00 -0.10000000000E+04  0.10000000000E+04  0.00000000000E+00 0.  1.
    9000005    2    1    2  501    0 -0.11431031088E+02  0.35864754636E+01 -0.77726983642E+03  0.77740079213E+03  0.77499495139E+01 0.  0.
         13    1    3    3    0    0 -0.26095455026E+00 -0.14603805674E+01 -0.17471588657E+03  0.17472218471E+03  0.00000000000E+00 0.  1.
          1    1    3    3  501    0 -0.11170076538E+02  0.50468560311E+01 -0.60255394985E+03  0.60267860743E+03  0.00000000000E+00 0.  1.
         -1    1    1    2    0  502  0.11431031088E+02 -0.35864754636E+01 -0.22250353390E+03  0.22282583754E+03  0.00000000000E+00 0. -1.
<mgrwt>
<rscale>  1 0.30000000E+03</rscale>
<asrwt>0</asrwt>
<pdfrwt beam="1">  1       21 0.82410965E-03 0.30000000E+03</pdfrwt>
<pdfrwt beam="2">0</pdfrwt>
<totfact> 0.54874795E+05</totfact>
</mgrwt>
</event>
<event>
 6    1  0.1132867E-002  0.3000000E+03  0.7818608E-02  0.1093470E+00
         21   -1    0    0  501  502  0.00000000000E+00  0.00000000000E+00  0.21913537557E+00  0.21913537557E+00  0.00000000000E+00 0. -1.
         13   -1    0    0    0    0 -0.00000000000E+00 -0.00000000000E+00 -0.10000000000E+04  0.10000000000E+04  0.00000000000E+00 0.  1.
    9000005    2    1    2  501    0  0.24143639212E+01  0.11140023593E+02 -0.74931984639E+03  0.74949887107E+03  0.11764194037E+02 0.  0.
         13    1    3    3    0    0 -0.25309083389E+01  0.86908923750E+01 -0.61375729782E+03  0.61382404460E+03  0.00000000000E+00 0.  1.
          1    1    3    3  501    0  0.49452722601E+01  0.24491312183E+01 -0.13556254857E+03  0.13567482647E+03  0.00000000000E+00 0.  1.
         -1    1    1    2    0  502 -0.24143639212E+01 -0.11140023593E+02 -0.25046101823E+03  0.25072026430E+03  0.00000000000E+00 0. -1.
<mgrwt>
<rscale>  1 0.30000000E+03</rscale>
<asrwt>0</asrwt>
<pdfrwt beam="1">  1       21 0.79685759E-03 0.30000000E+03</pdfrwt>
<pdfrwt beam="2">0</pdfrwt>
<totfact> 0.57863059E+05</totfact>
</mgrwt>
</event>
<event>
 6    1  0.1132867E-002  0.3000000E+03  0.7818608E-02  0.1093470E+00
         21   -1    0    0  501  502  0.00000000000E+00  0.00000000000E+00  0.20948057909E+00  0.20948057909E+00  0.00000000000E+00 0. -1.
         13   -1    0    0    0    0 -0.00000000000E+00 -0.00000000000E+00 -0.10000000000E+04  0.10000000000E+04  0.00000000000E+00 0.  1.
    9000005    2    1    2  501    0  0.11693557335E+02 -0.55450647936E+01 -0.67822724700E+03  0.67838588729E+03  0.69084351239E+01 0.  0.
         13    1    3    3    0    0  0.65371611990E+01 -0.64589063410E+01 -0.36969009149E+03  0.36980429377E+03  0.00000000000E+00 0.  1.
          1    1    3    3  501    0  0.51563961364E+01  0.91384154734E+00 -0.30853715551E+03  0.30858159352E+03  0.00000000000E+00 0.  1.
         -3    1    1    2    0  502 -0.11693557335E+02  0.55450647936E+01 -0.32156327242E+03  0.32182359329E+03  0.00000000000E+00 0. -1.
<mgrwt>
<rscale>  1 0.30000000E+03</rscale>
<asrwt>0</asrwt>
<pdfrwt beam="1">  1       21 0.76174917E-03 0.30000000E+03</pdfrwt>
<pdfrwt beam="2">0</pdfrwt>
<totfact> 0.62116344E+05</totfact>
</mgrwt>
</event>
<event>
 6    1  0.1132867E-002  0.3000000E+03  0.7818608E-02  0.1093470E+00
         21   -1    0    0  501  502  0.00000000000E+00  0.00000000000E+00  0.18141374566E+00  0.18141374566E+00  0.00000000000E+00 0. -1.
         13   -1    0    0    0    0 -0.00000000000E+00 -0.00000000000E+00 -0.10000000000E+04  0.10000000000E+04  0.00000000000E+00 0.  1.
    9000005    2    1    2  501    0 -0.18154418549E+00  0.89911251632E+01 -0.74922124122E+03  0.74942275960E+03  0.14870474885E+02 0.  0.
         13    1    3    3    0    0 -0.21059474231E+01 -0.37078942200E+01 -0.13531271787E+03  0.13537989183E+03  0.00000000000E+00 0.  1.
          3    1    3    3  501    0  0.19244032376E+01  0.12699019383E+02 -0.61390852336E+03  0.61404286778E+03  0.00000000000E+00 0.  1.
         -3    1    1    2    0  502  0.18154418549E+00 -0.89911251632E+01 -0.25059734503E+03  0.25075865414E+03  0.00000000000E+00 0. -1.
<mgrwt>
<rscale>  1 0.30000000E+03</rscale>
<asrwt>0</asrwt>
<pdfrwt beam="1">  1       21 0.65968774E-03 0.30000000E+03</pdfrwt>
<pdfrwt beam="2">0</pdfrwt>
<totfact> 0.77840392E+05</totfact>
</mgrwt>
</event>
<event>
 6    1  0.1132867E-002  0.3000000E+03  0.7818608E-02  0.1093470E+00
         21   -1    0    0  501  502  0.00000000000E+00  0.00000000000E+00  0.10232276188E+01  0.10232276188E+01  0.00000000000E+00 0. -1.
         13   -1    0    0    0    0 -0.00000000000E+00 -0.00000000000E+00 -0.10000000000E+04  0.10000000000E+04  0.00000000000E+00 0.  1.
    9000005    2    1    2  501    0 -0.59467325829E+01  0.10023168493E+02 -0.96380030664E+03  0.96396636216E+03  0.13575300215E+02 0.  0.
         13    1    3    3    0    0  0.36514510841E+01  0.30404146217E+01 -0.14012377955E+03  0.14020431809E+03  0.00000000000E+00 0.  1.
          1    1    3    3  501    0 -0.95981836671E+01  0.69827538713E+01 -0.82367652708E+03  0.82376204407E+03  0.00000000000E+00 0.  1.
         -1    1    1    2    0  502  0.59467325829E+01 -0.10023168493E+02 -0.35176465745E+02  0.37056865455E+02  0.00000000000E+00 0. -1.
<mgrwt>
<rscale>  1 0.30000000E+03</rscale>
<asrwt>0</asrwt>
<pdfrwt beam="1">  1       21 0.37208356E-02 0.30000000E+03</pdfrwt>
<pdfrwt beam="2">0</pdfrwt>
<totfact> 0.47485711E+04</totfact>
</mgrwt>
</event>
<event>
 6    1  0.1132867E-002  0.3000000E+03  0.7818608E-02  0.1093470E+00
         21   -1    0    0  501  502  0.00000000000E+00  0.00000000000E+00  0.25008635381E+00  0.25008635381E+00  0.00000000000E+00 0. -1.
         13   -1    0    0    0    0 -0.00000000000E+00 -0.00000000000E+00 -0.10000000000E+04  0.10000000000E+04  0.00000000000E+00 0.  1.
    9000005    2    1    2  501    0 -0.57953448274E+01 -0.71195732897E+01 -0.86379348430E+03  0.86398407803E+03  0.15653409049E+02 0.  0.
         13    1    3    3    0    0 -0.32736630876E+01 -0.32578424636E+01 -0.60044081313E+02  0.60221442263E+02  0.00000000000E+00 0.  1.
          3    1    3    3  501    0 -0.25216817397E+01 -0.38617308261E+01 -0.80374940299E+03  0.80376263576E+03  0.00000000000E+00 0.  1.
         -1    1    1    2    0  502  0.57953448274E+01  0.71195732897E+01 -0.13595642934E+03  0.13626600833E+03  0.00000000000E+00 0. -1.
<mgrwt>
<rscale>  1 0.30000000E+03</rscale>
<asrwt>0</asrwt>
<pdfrwt beam="1">  1       21 0.90940684E-03 0.30000000E+03</pdfrwt>
<pdfrwt beam="2">0</pdfrwt>
<totfact> 0.46970277E+05</totfact>
</mgrwt>
</event>
<event>
 6    1  0.1132867E-002  0.3000000E+03  0.7818608E-02  0.1093470E+00
         21   -1    0    0  501  502  0.00000000000E+00  0.00000000000E+00  0.15861261594E+00  0.15861261594E+00  0.00000000000E+00 0. -1.
         13   -1    0    0    0    0 -0.00000000000E+00 -0.00000000000E+00 -0.10000000000E+04  0.10000000000E+04  0.00000000000E+00 0.  1.
    9000005    2    1    2  501    0 -0.59422934001E+01 -0.71359105091E+01 -0.80614507725E+03  0.80623983418E+03  0.81579763575E+01 0.  0.
         13    1    3    3    0    0 -0.44205838395E+01 -0.18498191190E+01 -0.16098168327E+03  0.16105299048E+03  0.00000000000E+00 0.  1.
          3    1    3    3  501    0 -0.15217095606E+01 -0.52860913901E+01 -0.64516339398E+03  0.64518684371E+03  0.00000000000E+00 0.  1.
         -3    1    1    2    0  502  0.59422934001E+01  0.71359105091E+01 -0.19369631013E+03  0.19391877843E+03  0.00000000000E+00 0. -1.
<mgrwt>
<rscale>  1 0.30000000E+03</rscale>
<asrwt>0</asrwt>
<pdfrwt beam="1">  1       21 0.57677437E-03 0.30000000E+03</pdfrwt>
<pdfrwt beam="2">0</pdfrwt>
<totfact> 0.96017157E+05</totfact>
</mgrwt>
</event>
<event>
 6    1  0.1132867E-002  0.3000000E+03  0.7818608E-02  0.1093470E+00
         21   -1    0    0  501  502  0.00000000000E+00  0.00000000000E+00  0.23318818036E+00  0.23318818036E+00  0.00000000000E+00 0. -1.
         13   -1    0    0    0    0 -0.00000000000E+00 -0.00000000000E+00 -0.10000000000E+04  0.10000000000E+04  0.00000000000E+00 0.  1.
    9000005    2    1    2  501    0  0.62273332562E+01 -0.12546519678E+02 -0.65057821302E+03  0.65076377268E+03  0.67291713065E+01 0.  0.
         13    1    3    3    0    0  0.49170575537E+01 -0.12158944141E+02 -0.47727698451E+03  0.47745715758E+03  0.00000000000E+00 0.  1.
          1    1    3    3  501    0  0.13102757025E+01 -0.38757553742E+00 -0.17330122851E+03  0.17330661511E+03  0.00000000000E+00 0.  1.
         -3    1    1    2    0  502 -0.62273332562E+01  0.12546519678E+02 -0.34918859880E+03  0.34946941550E+03  0.00000000000E+00 0. -1.
<mgrwt>
<rscale>  1 0.30000000E+03</rscale>
<asrwt>0</asrwt>
<pdfrwt beam="1">  1       21 0.84795881E-03 0.30000000E+03</pdfrwt>
<pdfrwt beam="2">0</pdfrwt>
<totfact> 0.52459415E+05</totfact>
</mgrwt>
</event>
<event>
 6    1  0.1132867E-002  0.3000000E+03  0.7818608E-02  0.1093470E+00
         21   -1    0    0  501  502  0.00000000000E+00  0.00000000000E+00  0.88425583172E+00  0.88425583172E+00  0.00000000000E+00 0. -1.
         13   -1    0    0    0    0 -0.00000000000E+00 -0.00000000000E+00 -0.10000000000E+04  0.10000000000E+04  0.00000000000E+00 0.  1.
    9000005    2    1    2  501    0  0.16819267773E+02 -0.16927119228E+02 -0.79397462405E+03  0.79435993694E+03  0.65261499276E+01 0.  0.
         13    1    3    3    0    0  0.12180620591E+02 -0.10654725469E+02 -0.61897101101E+03  0.61918252814E+03  0.00000000000E+00 0.  1.
          3    1    3    3  501    0  0.46386471822E+01 -0.62723937588E+01 -0.17500361305E+03  0.17517740879E+03  0.00000000000E+00 0.  1.
         -1    1    1    2    0  502 -0.16819267773E+02  0.16927119228E+02 -0.20514112011E+03  0.20652431890E+03  0.00000000000E+00 0. -1.
<mgrwt>
<rscale>  1 0.30000000E+03</rscale>
<asrwt>0</asrwt>
<pdfrwt beam="1">  1       21 0.32154825E-02 0.30000000E+03</pdfrwt>
<pdfrwt beam="2">0</pdfrwt>
<totfact> 0.60619109E+04</totfact>
</mgrwt>
</event>
<event>
 6    1  0.1132867E-002  0.3000000E+03  0.7818608E-02  0.1093470E+00
         21   -1    0    0  501  502  0.00000000000E+00  0.00000000000E+00  0.18918579238E+01  0.18918579238E+01  0.00000000000E+00 0. -1.
         13   -1    0    0    0    0 -0.00000000000E+00 -0.00000000000E+00 -0.10000000000E+04  0.10000000000E+04  0.00000000000E+00 0.  1.
    9000005    2    1    2  501    0 -0.11815595720E+02 -0.33344338498E+01 -0.97799150621E+03  0.97832480911E+03  0.22390157354E+02 0.  0.
         13    1    3    3    0    0 -0.16271116711E+02 -0.86836970855E+01 -0.75179516977E+03  0.75202136481E+03  0.00000000000E+00 0.  1.
          1    1    3    3  501    0  0.44555209915E+01  0.53492632356E+01 -0.22619633643E+03  0.22630344430E+03  0.00000000000E+00 0.  1.
         -1    1    1    2    0  502  0.11815595720E+02  0.33344338498E+01 -0.20116635868E+02  0.23567048817E+02  0.00000000000E+00 0. -1.
<mgrwt>
<rscale>  1 0.30000000E+03</rscale>
<asrwt>0</asrwt>
<pdfrwt beam="1">  1       21 0.68794979E-02 0.30000000E+03</pdfrwt>
<pdfrwt beam="2">0</pdfrwt>
<totfact> 0.16629992E+04</totfact>
</mgrwt>
</event>
<event>
 6    1  0.1132867E-002  0.3000000E+03  0.7818608E-02  0.1093470E+00
         21   -1    0    0  501  502  0.00000000000E+00  0.00000000000E+00  0.44897114084E+00  0.44897114084E+00  0.00000000000E+00 0. -1.
         13   -1    0    0    0    0 -0.00000000000E+00 -0.00000000000E+00 -0.10000000000E+04  0.10000000000E+04  0.00000000000E+00 0.  1.
    9000005    2    1    2  501    0 -0.10411122780E+02 -0.99260156945E+00 -0.91618048094E+03  0.91642501625E+03  0.18405434387E+02 0.  0.
         13    1    3    3    0    0 -0.73892083821E+01  0.83707616866E+01 -0.54351542577E+03  0.54363010227E+03  0.00000000000E+00 0.  1.
          1    1    3    3  501    0 -0.30219143983E+01 -0.93633632560E+01 -0.37266505518E+03  0.37279491398E+03  0.00000000000E+00 0.  1.
         -1    1    1    2    0  502  0.10411122780E+02  0.99260156945E+00 -0.83370547916E+02  0.84023954889E+02  0.00000000000E+00 0. -1.
<mgrwt>
<rscale>  1 0.30000000E+03</rscale>
<asrwt>0</asrwt>
<pdfrwt beam="1">  1       21 0.16326258E-02 0.30000000E+03</pdfrwt>
<pdfrwt beam="2">0</pdfrwt>
<totfact> 0.18430235E+05</totfact>
</mgrwt>
</event>
<event>
 6    1  0.1132867E-002  0.3000000E+03  0.7818608E-02  0.1093470E+00
         21   -1    0    0  501  502  0.00000000000E+00  0.00000000000E+00  0.25124856078E+00  0.25124856078E+00  0.00000000000E+00 0. -1.
         13   -1    0    0    0    0 -0.00000000000E+00 -0.00000000000E+00 -0.10000000000E+04  0.10000000000E+04  0.00000000000E+00 0.  1.
    9000005    2    1    2  501    0  0.10287385831E+02 -0.32332258954E+01 -0.86044882356E+03  0.86053455677E+03  0.55911875310E+01 0.  0.
         13    1    3    3    0    0  0.89531168086E+01 -0.40782913722E+01 -0.81285477170E+03  0.81291430707E+03  0.00000000000E+00 0.  1.
          1    1    3    3  501    0  0.13342690225E+01  0.84506547675E+00 -0.47594051863E+02  0.47620249708E+02  0.00000000000E+00 0.  1.
         -1    1    1    2    0  502 -0.10287385831E+02  0.32332258954E+01 -0.13929992788E+03  0.13971669179E+03  0.00000000000E+00 0. -1.
<mgrwt>
<rscale>  1 0.30000000E+03</rscale>
<asrwt>0</asrwt>
<pdfrwt beam="1">  1       21 0.91363306E-03 0.30000000E+03</pdfrwt>
<pdfrwt beam="2">0</pdfrwt>
<totfact> 0.46627108E+05</totfact>
</mgrwt>
</event>
<event>
 6    1  0.1132867E-002  0.3000000E+03  0.7818608E-02  0.1093470E+00
         21   -1    0    0  501  502  0.00000000000E+00  0.00000000000E+00  0.16124835196E+00  0.16124835196E+00  0.00000000000E+00 0. -1.
         13   -1    0    0    0    0 -0.00000000000E+00 -0.00000000000E+00 -0.10000000000E+04  0.10000000000E+04  0.00000000000E+00 0.  1.
    9000005    2    1    2  501    0 -0.84846437233E+01  0.12078429325E+01 -0.75524728759E+03  0.75541968598E+03  0.13674373328E+02 0.  0.
         13    1    3    3    0    0  0.14369819594E+00 -0.42290203872E+01 -0.40991688938E+03  0.40993872891E+03  0.00000000000E+00 0.  1.
          1    1    3    3  501    0 -0.86283419193E+01  0.54368633197E+01 -0.34533039821E+03  0.34548095707E+03  0.00000000000E+00 0.  1.
         -1    1    1    2    0  502  0.84846437233E+01 -0.12078429325E+01 -0.24459146406E+03  0.24474156237E+03  0.00000000000E+00 0. -1.
<mgrwt>
<rscale>  1 0.30000000E+03</rscale>
<asrwt>0</asrwt>
<pdfrwt beam="1">  1       21 0.58635888E-03 0.30000000E+03</pdfrwt>
<pdfrwt beam="2">0</pdfrwt>
<totfact> 0.93581618E+05</totfact>
</mgrwt>
</event>
<event>
 6    1  0.1132867E-002  0.3000000E+03  0.7818608E-02  0.1093470E+00
         21   -1    0    0  501  502  0.00000000000E+00  0.00000000000E+00  0.37451511229E+00  0.37451511229E+00  0.00000000000E+00 0. -1.
         13   -1    0    0    0    0 -0.00000000000E+00 -0.00000000000E+00 -0.10000000000E+04  0.10000000000E+04  0.00000000000E+00 0.  1.
    9000005    2    1    2  501    0 -0.76141806433E+01 -0.71060640891E+01 -0.91807260073E+03  0.91815928047E+03  0.71198454132E+01 0.  0.
         13    1    3    3    0    0 -0.45932840029E+01 -0.71770880988E-02 -0.25056975688E+03  0.25061185401E+03  0.00000000000E+00 0.  1.
          1    1    3    3  501    0 -0.30208966404E+01 -0.70988870010E+01 -0.66750284386E+03  0.66754742646E+03  0.00000000000E+00 0.  1.
         -1    1    1    2    0  502  0.76141806433E+01  0.71060640891E+01 -0.81552884155E+02  0.82215234645E+02  0.00000000000E+00 0. -1.
<mgrwt>
<rscale>  1 0.30000000E+03</rscale>
<asrwt>0</asrwt>
<pdfrwt beam="1">  1       21 0.13618760E-02 0.30000000E+03</pdfrwt>
<pdfrwt beam="2">0</pdfrwt>
<totfact> 0.24681259E+05</totfact>
</mgrwt>
</event>
<event>
 6    1  0.1132867E-002  0.3000000E+03  0.7818608E-02  0.1093470E+00
         21   -1    0    0  501  502  0.00000000000E+00  0.00000000000E+00  0.95426127237E+00  0.95426127237E+00  0.00000000000E+00 0.  1.
         13   -1    0    0    0    0 -0.00000000000E+00 -0.00000000000E+00 -0.10000000000E+04  0.10000000000E+04  0.00000000000E+00 0.  1.
    9000005    2    1    2  501    0  0.30154431346E+01 -0.17125606529E+02 -0.77595657676E+03  0.77718841606E+03  0.40135342831E+02 0.  0.
         13    1    3    3    0    0 -0.10789980531E+02  0.83941071187E+01 -0.17570875238E+03  0.17623975254E+03  0.00000000000E+00 0.  1.
          3    1    3    3  501    0  0.13805423666E+02 -0.25519713648E+02 -0.60024782438E+03  0.60094866351E+03  0.00000000000E+00 0.  1.
         -1    1    1    2    0  502 -0.30154431346E+01  0.17125606529E+02 -0.22308916197E+03  0.22376584521E+03  0.00000000000E+00 0. -1.
<mgrwt>
<rscale>  1 0.30000000E+03</rscale>
<asrwt>0</asrwt>
<pdfrwt beam="1">  1       21 0.34700483E-02 0.30000000E+03</pdfrwt>
<pdfrwt beam="2">0</pdfrwt>
<totfact> 0.53379259E+04</totfact>
</mgrwt>
</event>
<event>
 6    1  0.1132867E-002  0.3000000E+03  0.7818608E-02  0.1093470E+00
         21   -1    0    0  501  502  0.00000000000E+00  0.00000000000E+00  0.35033116847E+00  0.35033116847E+00  0.00000000000E+00 0. -1.
         13   -1    0    0    0    0 -0.00000000000E+00 -0.00000000000E+00 -0.10000000000E+04  0.10000000000E+04  0.00000000000E+00 0.  1.
    9000005    2    1    2  501    0 -0.83514967313E+01 -0.68799049425E+01 -0.78322256866E+03  0.78365291476E+03  0.23605468921E+02 0.  0.
         13    1    3    3    0    0  0.48089733505E+01 -0.91972079605E+01 -0.19279695111E+03  0.19307609696E+03  0.00000000000E+00 0.  1.
          1    1    3    3  501    0 -0.13160470082E+02  0.23173030180E+01 -0.59042561755E+03  0.59057681780E+03  0.00000000000E+00 0.  1.
         -1    1    1    2    0  502  0.83514967313E+01  0.68799049425E+01 -0.21642710017E+03  0.21669741641E+03  0.00000000000E+00 0. -1.
<mgrwt>
<rscale>  1 0.30000000E+03</rscale>
<asrwt>0</asrwt>
<pdfrwt beam="1">  1       21 0.12739342E-02 0.30000000E+03</pdfrwt>
<pdfrwt beam="2">0</pdfrwt>
<totfact> 0.27470673E+05</totfact>
</mgrwt>
</event>
<event>
 6    1  0.1132867E-002  0.3000000E+03  0.7818608E-02  0.1093470E+00
         21   -1    0    0  501  502  0.00000000000E+00  0.00000000000E+00  0.16640230222E+00  0.16640230222E+00  0.00000000000E+00 0. -1.
         13   -1    0    0    0    0 -0.00000000000E+00 -0.00000000000E+00 -0.10000000000E+04  0.10000000000E+04  0.00000000000E+00 0.  1.
    9000005    2    1    2  501    0 -0.11063296667E+02 -0.23951122261E+01 -0.65504597182E+03  0.65519301195E+03  0.80327211476E+01 0.  0.
         13    1    3    3    0    0 -0.37992017876E+01 -0.32112511949E+01 -0.12842168958E+03  0.12851800039E+03  0.00000000000E+00 0.  1.
          1    1    3    3  501    0 -0.72640948789E+01  0.81613896880E+00 -0.52662428224E+03  0.52667501156E+03  0.00000000000E+00 0.  1.
         -1    1    1    2    0  502  0.11063296667E+02  0.23951122261E+01 -0.34478762588E+03  0.34497339035E+03  0.00000000000E+00 0. -1.
<mgrwt>
<rscale>  1 0.30000000E+03</rscale>
<asrwt>0</asrwt>
<pdfrwt beam="1">  1       21 0.60510056E-03 0.30000000E+03</pdfrwt>
<pdfrwt beam="2">0</pdfrwt>
<totfact> 0.89098268E+05</totfact>
</mgrwt>
</event>
<event>
 6    1  0.1132867E-002  0.3000000E+03  0.7818608E-02  0.1093470E+00
         21   -1    0    0  501  502  0.00000000000E+00  0.00000000000E+00  0.27011353160E+00  0.27011353160E+00  0.00000000000E+00 0. -1.
         13   -1    0    0    0    0 -0.00000000000E+00 -0.00000000000E+00 -0.10000000000E+04  0.10000000000E+04  0.00000000000E+00 0.  1.
    9000005    2    1    2  501    0 -0.91479363978E+01  0.26038683624E+01 -0.89974465987E+03  0.89983351458E+03  0.83328343440E+01 0.  0.
         13    1    3    3    0    0 -0.74534870578E+01 -0.11612711283E+01 -0.72863907949E+03  0.72867812591E+03  0.00000000000E+00 0.  1.
          1    1    3    3  501    0 -0.16944493400E+01  0.37651394908E+01 -0.17110558038E+03  0.17115538867E+03  0.00000000000E+00 0.  1.
         -3    1    1    2    0  502  0.91479363978E+01 -0.26038683624E+01 -0.99985226598E+02  0.10043659895E+03  0.00000000000E+00 0. -1.
<mgrwt>
<rscale>  1 0.30000000E+03</rscale>
<asrwt>0</asrwt>
<pdfrwt beam="1">  1       21 0.98223310E-03 0.30000000E+03</pdfrwt>
<pdfrwt beam="2">0</pdfrwt>
<totfact> 0.41575501E+05</totfact>
</mgrwt>
</event>
<event>
 6    1  0.1132867E-002  0.3000000E+03  0.7818608E-02  0.1093470E+00
         21   -1    0    0  501  502  0.00000000000E+00  0.00000000000E+00  0.29189318922E+00  0.29189318922E+00  0.00000000000E+00 0. -1.
         13   -1    0    0    0    0 -0.00000000000E+00 -0.00000000000E+00 -0.10000000000E+04  0.10000000000E+04  0.00000000000E+00 0.  1.
    9000005    2    1    2  501    0 -0.13448785434E+02 -0.35830650098E+00 -0.79300274586E+03  0.79314917800E+03  0.71599857363E+01 0.  0.
         13    1    3    3    0    0 -0.12694636053E+02  0.17255970010E+01 -0.62085555053E+03  0.62098771815E+03  0.00000000000E+00 0.  1.
          3    1    3    3  501    0 -0.75414938164E+00 -0.20839035020E+01 -0.17214719534E+03  0.17216145985E+03  0.00000000000E+00 0.  1.
         -1    1    1    2    0  502  0.13448785434E+02  0.35830650098E+00 -0.20670536095E+03  0.20714271519E+03  0.00000000000E+00 0. -1.
<mgrwt>
<rscale>  1 0.30000000E+03</rscale>
<asrwt>0</asrwt>
<pdfrwt beam="1">  1       21 0.10614320E-02 0.30000000E+03</pdfrwt>
<pdfrwt beam="2">0</pdfrwt>
<totfact> 0.36755399E+05</totfact>
</mgrwt>
</event>
<event>
 6    1  0.1132867E-002  0.3000000E+03  0.7818608E-02  0.1093470E+00
         21   -1    0    0  501  502  0.00000000000E+00  0.00000000000E+00  0.20021625274E+00  0.20021625274E+00  0.00000000000E+00 0. -1.
         13   -1    0    0    0    0 -0.00000000000E+00 -0.00000000000E+00 -0.10000000000E+04  0.10000000000E+04  0.00000000000E+00 0.  1.
    9000005    2    1    2  501    0  0.10524577630E+02  0.10991381944E+01 -0.81700057443E+03  0.81709498485E+03  0.65039075485E+01 0.  0.
         13    1    3    3    0    0  0.11892824230E+01  0.24495382682E+01 -0.26323432955E+03  0.26324841288E+03  0.00000000000E+00 0.  1.
          1    1    3    3  501    0  0.93352952068E+01 -0.13504000738E+01 -0.55376624488E+03  0.55384657197E+03  0.00000000000E+00 0.  1.
         -1    1    1    2    0  502 -0.10524577630E+02 -0.10991381944E+01 -0.18279920932E+03  0.18310523140E+03  0.00000000000E+00 0. -1.
<mgrwt>
<rscale>  1 0.30000000E+03</rscale>
<asrwt>0</asrwt>
<pdfrwt beam="1">  1       21 0.72806064E-03 0.30000000E+03</pdfrwt>
<pdfrwt beam="2">0</pdfrwt>
<totfact> 0.66691450E+05</totfact>
</mgrwt>
</event>
<event>
 6    1  0.1132867E-002  0.3000000E+03  0.7818608E-02  0.1093470E+00
         21   -1    0    0  501  502  0.00000000000E+00  0.00000000000E+00  0.24353374591E+00  0.24353374591E+00  0.00000000000E+00 0. -1.
         13   -1    0    0    0    0 -0.00000000000E+00 -0.00000000000E+00 -0.10000000000E+04  0.10000000000E+04  0.00000000000E+00 0.  1.
    9000005    2    1    2  501    0  0.10158856133E+02 -0.66539185010E+01 -0.79756054665E+03  0.79768325410E+03  0.69477546808E+01 0.  0.
         13    1    3    3    0    0  0.43298458179E+01 -0.16439215415E+00 -0.14589715857E+03  0.14596148625E+03  0.00000000000E+00 0.  1.
          1    1    3    3  501    0  0.58290103152E+01 -0.64895263469E+01 -0.65166338808E+03  0.65172176784E+03  0.00000000000E+00 0.  1.
         -3    1    1    2    0  502 -0.10158856133E+02  0.66539185010E+01 -0.20219591960E+03  0.20256027965E+03  0.00000000000E+00 0. -1.
<mgrwt>
<rscale>  1 0.30000000E+03</rscale>
<asrwt>0</asrwt>
<pdfrwt beam="1">  1       21 0.88557913E-03 0.30000000E+03</pdfrwt>
<pdfrwt beam="2">0</pdfrwt>
<totfact> 0.48983628E+05</totfact>
</mgrwt>
</event>
<event>
 6    1  0.1132867E-002  0.3000000E+03  0.7818608E-02  0.1093470E+00
         21   -1    0    0  501  502  0.00000000000E+00  0.00000000000E+00  0.20794422685E+00  0.20794422685E+00  0.00000000000E+00 0. -1.
         13   -1    0    0    0    0 -0.00000000000E+00 -0.00000000000E+00 -0.10000000000E+04  0.10000000000E+04  0.00000000000E+00 0.  1.
    9000005    2    1    2  501    0 -0.11938538217E+02 -0.25008464977E+01 -0.36557585788E+03  0.36587446049E+03  0.83444617213E+01 0.  0.
         13    1    3    3    0    0  0.25232075593E+00  0.16200703758E+01 -0.69108338158E+02  0.69127785272E+02  0.00000000000E+00 0.  1.
          3    1    3    3  501    0 -0.12190858973E+02 -0.41209168735E+01 -0.29646751973E+03  0.29674667521E+03  0.00000000000E+00 0.  1.
         -1    1    1    2    0  502  0.11938538217E+02  0.25008464977E+01 -0.63421619789E+03  0.63433348374E+03  0.00000000000E+00 0. -1.
<mgrwt>
<rscale>  1 0.30000000E+03</rscale>
<asrwt>0</asrwt>
<pdfrwt beam="1">  1       21 0.75616242E-03 0.30000000E+03</pdfrwt>
<pdfrwt beam="2">0</pdfrwt>
<totfact> 0.62839460E+05</totfact>
</mgrwt>
</event>
<event>
 6    1  0.1132867E-002  0.3000000E+03  0.7818608E-02  0.1093470E+00
         21   -1    0    0  501  502  0.00000000000E+00  0.00000000000E+00  0.46400041896E+00  0.46400041896E+00  0.00000000000E+00 0. -1.
         13   -1    0    0    0    0 -0.00000000000E+00 -0.00000000000E+00 -0.10000000000E+04  0.10000000000E+04  0.00000000000E+00 0.  1.
    9000005    2    1    2  501    0  0.53206783812E+01  0.11778155900E+02 -0.89505980909E+03  0.89519145436E+03  0.82851391502E+01 0.  0.
         13    1    3    3    0    0  0.68951880429E+01  0.11832608004E+02 -0.77072405062E+03  0.77084571507E+03  0.00000000000E+00 0.  1.
          1    1    3    3  501    0 -0.15745096617E+01 -0.54452104371E-01 -0.12433575847E+03  0.12434573929E+03  0.00000000000E+00 0.  1.
         -1    1    1    2    0  502 -0.53206783812E+01 -0.11778155900E+02 -0.10447619049E+03  0.10527254606E+03  0.00000000000E+00 0. -1.
<mgrwt>
<rscale>  1 0.30000000E+03</rscale>
<asrwt>0</asrwt>
<pdfrwt beam="1">  1       21 0.16872778E-02 0.30000000E+03</pdfrwt>
<pdfrwt beam="2">0</pdfrwt>
<totfact> 0.17473688E+05</totfact>
</mgrwt>
</event>
<event>
 6    1  0.1132867E-002  0.3000000E+03  0.7818608E-02  0.1093470E+00
         21   -1    0    0  501  502  0.00000000000E+00  0.00000000000E+00  0.20592154259E+00  0.20592154259E+00  0.00000000000E+00 0. -1.
         13   -1    0    0    0    0 -0.00000000000E+00 -0.00000000000E+00 -0.10000000000E+04  0.10000000000E+04  0.00000000000E+00 0.  1.
    9000005    2    1    2  501    0  0.98346588040E+01 -0.29401687870E+01 -0.77788572557E+03  0.77806028871E+03  0.12893630695E+02 0.  0.
         13    1    3    3    0    0  0.15549082291E+01 -0.42945627214E+01 -0.84169183192E+02  0.84293015178E+02  0.00000000000E+00 0.  1.
          1    1    3    3  501    0  0.82797505749E+01  0.13543939344E+01 -0.69371654238E+03  0.69376727353E+03  0.00000000000E+00 0.  1.
         -3    1    1    2    0  502 -0.98346588040E+01  0.29401687870E+01 -0.22190835289E+03  0.22214563284E+03  0.00000000000E+00 0. -1.
<mgrwt>
<rscale>  1 0.30000000E+03</rscale>
<asrwt>0</asrwt>
<pdfrwt beam="1">  1       21 0.74880719E-03 0.30000000E+03</pdfrwt>
<pdfrwt beam="2">0</pdfrwt>
<totfact> 0.63812349E+05</totfact>
</mgrwt>
</event>
<event>
 6    1  0.1132867E-002  0.3000000E+03  0.7818608E-02  0.1093470E+00
         21   -1    0    0  501  502  0.00000000000E+00  0.00000000000E+00  0.33670069503E+00  0.33670069503E+00  0.00000000000E+00 0. -1.
         13   -1    0    0    0    0 -0.00000000000E+00 -0.00000000000E+00 -0.10000000000E+04  0.10000000000E+04  0.00000000000E+00 0.  1.
    9000005    2    1    2  501    0  0.13208394846E+02  0.21401258642E+01 -0.81279832244E+03  0.81299326897E+03  0.11743108200E+02 0.  0.
         13    1    3    3    0    0  0.12338608134E+02  0.55886441596E+01 -0.71893829029E+03  0.71906587977E+03  0.00000000000E+00 0.  1.
          1    1    3    3  501    0  0.86978671180E+00 -0.34485182955E+01 -0.93860032148E+02  0.93927389201E+02  0.00000000000E+00 0.  1.
         -3    1    1    2    0  502 -0.13208394846E+02 -0.21401258642E+01 -0.18686497686E+03  0.18734343173E+03  0.00000000000E+00 0. -1.
<mgrwt>
<rscale>  1 0.30000000E+03</rscale>
<asrwt>0</asrwt>
<pdfrwt beam="1">  1       21 0.12243687E-02 0.30000000E+03</pdfrwt>
<pdfrwt beam="2">0</pdfrwt>
<totfact> 0.29271358E+05</totfact>
</mgrwt>
</event>
<event>
 6    1  0.1132867E-002  0.3000000E+03  0.7818608E-02  0.1093470E+00
         21   -1    0    0  501  502  0.00000000000E+00  0.00000000000E+00  0.34336912275E+00  0.34336912275E+00  0.00000000000E+00 0. -1.
         13   -1    0    0    0    0 -0.00000000000E+00 -0.00000000000E+00 -0.10000000000E+04  0.10000000000E+04  0.00000000000E+00 0.  1.
    9000005    2    1    2  501    0  0.91988405324E+01  0.14281833117E+02 -0.68090437164E+03  0.68113874480E+03  0.55350624284E+01 0.  0.
         13    1    3    3    0    0  0.97801947846E+01  0.11980131688E+02 -0.60240128402E+03  0.60259976996E+03  0.00000000000E+00 0.  1.
          3    1    3    3  501    0 -0.58135425221E+00  0.23017014290E+01 -0.78503087622E+02  0.78538974837E+02  0.00000000000E+00 0.  1.
         -3    1    1    2    0  502 -0.91988405324E+01 -0.14281833117E+02 -0.31875225923E+03  0.31920462433E+03  0.00000000000E+00 0. -1.
<mgrwt>
<rscale>  1 0.30000000E+03</rscale>
<asrwt>0</asrwt>
<pdfrwt beam="1">  1       21 0.12486176E-02 0.30000000E+03</pdfrwt>
<pdfrwt beam="2">0</pdfrwt>
<totfact> 0.28367621E+05</totfact>
</mgrwt>
</event>
<event>
 6    1  0.1132867E-002  0.3000000E+03  0.7818608E-02  0.1093470E+00
         21   -1    0    0  501  502  0.00000000000E+00  0.00000000000E+00  0.35060778668E+00  0.35060778668E+00  0.00000000000E+00 0. -1.
         13   -1    0    0    0    0 -0.00000000000E+00 -0.00000000000E+00 -0.10000000000E+04  0.10000000000E+04  0.00000000000E+00 0.  1.
    9000005    2    1    2  501    0 -0.10054596797E+02  0.34776596509E+01 -0.90493093776E+03  0.90503652358E+03  0.88271100630E+01 0.  0.
         13    1    3    3    0    0  0.15293656673E+01  0.50933392455E-01 -0.16372818570E+03  0.16373533628E+03  0.00000000000E+00 0.  1.
          3    1    3    3  501    0 -0.11583962465E+02  0.34267262585E+01 -0.74120275205E+03  0.74130118730E+03  0.00000000000E+00 0.  1.
         -1    1    1    2    0  502  0.10054596797E+02 -0.34776596509E+01 -0.94718454456E+02  0.95314084206E+02  0.00000000000E+00 0. -1.
<mgrwt>
<rscale>  1 0.30000000E+03</rscale>
<asrwt>0</asrwt>
<pdfrwt beam="1">  1       21 0.12749401E-02 0.30000000E+03</pdfrwt>
<pdfrwt beam="2">0</pdfrwt>
<totfact> 0.27435971E+05</totfact>
</mgrwt>
</event>
<event>
 6    1  0.1132867E-002  0.3000000E+03  0.7818608E-02  0.1093470E+00
         21   -1    0    0  501  502  0.00000000000E+00  0.00000000000E+00  0.69435813295E+00  0.69435813295E+00  0.00000000000E+00 0. -1.
         13   -1    0    0    0    0 -0.00000000000E+00 -0.00000000000E+00 -0.10000000000E+04  0.10000000000E+04  0.00000000000E+00 0.  1.
    9000005    2    1    2  501    0 -0.21249841459E+02  0.14087393837E+01 -0.75214146379E+03  0.75261438870E+03  0.16065373308E+02 0.  0.
         13    1    3    3    0    0 -0.44427810207E+01 -0.38805839121E+01 -0.38993657025E+03  0.38998118680E+03  0.00000000000E+00 0.  1.
          1    1    3    3  501    0 -0.16807060438E+02  0.52893232957E+01 -0.36220489354E+03  0.36263320191E+03  0.00000000000E+00 0.  1.
         -3    1    1    2    0  502  0.21249841459E+02 -0.14087393837E+01 -0.24716417808E+03  0.24807996943E+03  0.00000000000E+00 0. -1.
<mgrwt>
<rscale>  1 0.30000000E+03</rscale>
<asrwt>0</asrwt>
<pdfrwt beam="1">  1       21 0.25249440E-02 0.30000000E+03</pdfrwt>
<pdfrwt beam="2">0</pdfrwt>
<totfact> 0.90478705E+04</totfact>
</mgrwt>
</event>
<event>
 6    1  0.1132867E-002  0.3000000E+03  0.7818608E-02  0.1093470E+00
         21   -1    0    0  501  502  0.00000000000E+00  0.00000000000E+00  0.35400473175E+00  0.35400473175E+00  0.00000000000E+00 0. -1.
         13   -1    0    0    0    0 -0.00000000000E+00 -0.00000000000E+00 -0.10000000000E+04  0.10000000000E+04  0.00000000000E+00 0.  1.
    9000005    2    1    2  501    0  0.19077763701E+01  0.11758654494E+02 -0.86653290461E+03  0.86670895069E+03  0.12775948574E+02 0.  0.
         13    1    3    3    0    0  0.17856012844E+01  0.35178071372E+01 -0.57987018826E+02  0.58121060652E+02  0.00000000000E+00 0.  1.
          1    1    3    3  501    0  0.12217508568E+00  0.82408473566E+01 -0.80854588579E+03  0.80858789004E+03  0.00000000000E+00 0.  1.
         -1    1    1    2    0  502 -0.19077763701E+01 -0.11758654494E+02 -0.13311309066E+03  0.13364505404E+03  0.00000000000E+00 0. -1.
<mgrwt>
<rscale>  1 0.30000000E+03</rscale>
<asrwt>0</asrwt>
<pdfrwt beam="1">  1       21 0.12872926E-02 0.30000000E+03</pdfrwt>
<pdfrwt beam="2">0</pdfrwt>
<totfact> 0.27015452E+05</totfact>
</mgrwt>
</event>
<event>
 6    1  0.1132867E-002  0.3000000E+03  0.7818608E-02  0.1093470E+00
         21   -1    0    0  501  502  0.00000000000E+00  0.00000000000E+00  0.12306890647E+00  0.12306890647E+00  0.00000000000E+00 0. -1.
         13   -1    0    0    0    0 -0.00000000000E+00 -0.00000000000E+00 -0.10000000000E+04  0.10000000000E+04  0.00000000000E+00 0.  1.
    9000005    2    1    2  501    0  0.63299490739E-01  0.10265112442E+02 -0.37517220559E+03  0.37533400802E+03  0.40071419763E+01 0.  0.
         13    1    3    3    0    0  0.20300367811E+01  0.53889920657E+01 -0.19158273324E+03  0.19166926190E+03  0.00000000000E+00 0.  1.
          1    1    3    3  501    0 -0.19667372903E+01  0.48761203765E+01 -0.18358947236E+03  0.18366474612E+03  0.00000000000E+00 0.  1.
         -3    1    1    2    0  502 -0.63299490739E-01 -0.10265112442E+02 -0.62470472550E+03  0.62478906089E+03  0.00000000000E+00 0. -1.
<mgrwt>
<rscale>  1 0.30000000E+03</rscale>
<asrwt>0</asrwt>
<pdfrwt beam="1">  1       21 0.44752424E-03 0.30000000E+03</pdfrwt>
<pdfrwt beam="2">0</pdfrwt>
<totfact> 0.14239070E+06</totfact>
</mgrwt>
</event>
<event>
 6    1  0.1132867E-002  0.3000000E+03  0.7818608E-02  0.1093470E+00
         21   -1    0    0  501  502  0.00000000000E+00  0.00000000000E+00  0.15420500893E+00  0.15420500893E+00  0.00000000000E+00 0.  1.
         13   -1    0    0    0    0 -0.00000000000E+00 -0.00000000000E+00 -0.10000000000E+04  0.10000000000E+04  0.00000000000E+00 0.  1.
    9000005    2    1    2  501    0  0.80369650384E+01  0.32375425267E+01 -0.58080174008E+03  0.58102058139E+03  0.13385822138E+02 0.  0.
         13    1    3    3    0    0  0.29176057649E+01  0.70541140408E+01 -0.44837848229E+03  0.44844345946E+03  0.00000000000E+00 0.  1.
          3    1    3    3  501    0  0.51193592735E+01 -0.38165715141E+01 -0.13242325778E+03  0.13257712193E+03  0.00000000000E+00 0.  1.
         -1    1    1    2    0  502 -0.80369650384E+01 -0.32375425267E+01 -0.41904405491E+03  0.41913362362E+03  0.00000000000E+00 0. -1.
<mgrwt>
<rscale>  1 0.30000000E+03</rscale>
<asrwt>0</asrwt>
<pdfrwt beam="1">  1       21 0.56074667E-03 0.30000000E+03</pdfrwt>
<pdfrwt beam="2">0</pdfrwt>
<totfact> 0.10032626E+06</totfact>
</mgrwt>
</event>
<event>
 6    1  0.1132867E-002  0.3000000E+03  0.7818608E-02  0.1093470E+00
         21   -1    0    0  501  502  0.00000000000E+00  0.00000000000E+00  0.16152582556E+00  0.16152582556E+00  0.00000000000E+00 0. -1.
         13   -1    0    0    0    0 -0.00000000000E+00 -0.00000000000E+00 -0.10000000000E+04  0.10000000000E+04  0.00000000000E+00 0.  1.
    9000005    2    1    2  501    0  0.45795029940E+00  0.98216180970E+01 -0.75134176490E+03  0.75147037516E+03  0.98286904187E+01 0.  0.
         13    1    3    3    0    0 -0.46393602076E+01  0.52573378535E+01 -0.41162048875E+03  0.41168020358E+03  0.00000000000E+00 0.  1.
          3    1    3    3  501    0  0.50973105070E+01  0.45642802435E+01 -0.33972127616E+03  0.33979017158E+03  0.00000000000E+00 0.  1.
         -1    1    1    2    0  502 -0.45795029940E+00 -0.98216180970E+01 -0.24849670927E+03  0.24869115067E+03  0.00000000000E+00 0. -1.
<mgrwt>
<rscale>  1 0.30000000E+03</rscale>
<asrwt>0</asrwt>
<pdfrwt beam="1">  1       21 0.58736788E-03 0.30000000E+03</pdfrwt>
<pdfrwt beam="2">0</pdfrwt>
<totfact> 0.93331042E+05</totfact>
</mgrwt>
</event>
<event>
 6    1  0.1132867E-002  0.3000000E+03  0.7818608E-02  0.1093470E+00
         21   -1    0    0  501  502  0.00000000000E+00  0.00000000000E+00  0.24546690990E+00  0.24546690990E+00  0.00000000000E+00 0. -1.
         13   -1    0    0    0    0 -0.00000000000E+00 -0.00000000000E+00 -0.10000000000E+04  0.10000000000E+04  0.00000000000E+00 0.  1.
    9000005    2    1    2  501    0 -0.96793859772E+01  0.47664794123E+01 -0.81989182202E+03  0.82005943895E+03  0.12588635947E+02 0.  0.
         13    1    3    3    0    0 -0.24114977180E+01  0.80624892085E+01 -0.35970943409E+03  0.35980785987E+03  0.00000000000E+00 0.  1.
          3    1    3    3  501    0 -0.72678882592E+01 -0.32960097963E+01 -0.46018238793E+03  0.46025157908E+03  0.00000000000E+00 0.  1.
         -1    1    1    2    0  502  0.96793859772E+01 -0.47664794123E+01 -0.17986271107E+03  0.18018602796E+03  0.00000000000E+00 0. -1.
<mgrwt>
<rscale>  1 0.30000000E+03</rscale>
<asrwt>0</asrwt>
<pdfrwt beam="1">  1       21 0.89260883E-03 0.30000000E+03</pdfrwt>
<pdfrwt beam="2">0</pdfrwt>
<totfact> 0.48375379E+05</totfact>
</mgrwt>
</event>
<event>
 6    1  0.1132867E-002  0.3000000E+03  0.7818608E-02  0.1093470E+00
         21   -1    0    0  501  502  0.00000000000E+00  0.00000000000E+00  0.50483438611E+01  0.50483438611E+01  0.00000000000E+00 0. -1.
         13   -1    0    0    0    0 -0.00000000000E+00 -0.00000000000E+00 -0.10000000000E+04  0.10000000000E+04  0.00000000000E+00 0.  1.
    9000005    2    1    2  501    0 -0.82772384098E+00 -0.10789829943E+02 -0.99399974187E+03  0.99418502495E+03  0.15851543661E+02 0.  0.
         13    1    3    3    0    0 -0.10572743915E+01 -0.13183439057E+02 -0.48693356737E+03  0.48711314899E+03  0.00000000000E+00 0.  1.
          1    1    3    3  501    0  0.22955055049E+00  0.23936091145E+01 -0.50706617451E+03  0.50707187596E+03  0.00000000000E+00 0.  1.
         -1    1    1    2    0  502  0.82772384098E+00  0.10789829943E+02 -0.95191426480E+00  0.10863318909E+02  0.00000000000E+00 0. -1.
<mgrwt>
<rscale>  1 0.30000000E+03</rscale>
<asrwt>0</asrwt>
<pdfrwt beam="1">  1       21 0.18357653E-01 0.30000000E+03</pdfrwt>
<pdfrwt beam="2">0</pdfrwt>
<totfact> 0.28228695E+03</totfact>
</mgrwt>
</event>
<event>
 6    1  0.1132867E-002  0.3000000E+03  0.7818608E-02  0.1093470E+00
         21   -1    0    0  501  502  0.00000000000E+00  0.00000000000E+00  0.23776707367E+00  0.23776707367E+00  0.00000000000E+00 0. -1.
         13   -1    0    0    0    0 -0.00000000000E+00 -0.00000000000E+00 -0.10000000000E+04  0.10000000000E+04  0.00000000000E+00 0.  1.
    9000005    2    1    2  501    0 -0.95018137423E+01  0.15592281058E+00 -0.24696605055E+03  0.24738160487E+03  0.10729376713E+02 0.  0.
         13    1    3    3    0    0  0.11885473430E-01 -0.25934801833E+01 -0.12068015321E+03  0.12070801821E+03  0.00000000000E+00 0.  1.
          1    1    3    3  501    0 -0.95136992157E+01  0.27494029939E+01 -0.12628589734E+03  0.12667358666E+03  0.00000000000E+00 0.  1.
         -1    1    1    2    0  502  0.95018137423E+01 -0.15592281058E+00 -0.75279618237E+03  0.75285616221E+03  0.00000000000E+00 0. -1.
<mgrwt>
<rscale>  1 0.30000000E+03</rscale>
<asrwt>0</asrwt>
<pdfrwt beam="1">  1       21 0.86460936E-03 0.30000000E+03</pdfrwt>
<pdfrwt beam="2">0</pdfrwt>
<totfact> 0.50873400E+05</totfact>
</mgrwt>
</event>
<event>
 6    1  0.1132867E-002  0.3000000E+03  0.7818608E-02  0.1093470E+00
         21   -1    0    0  501  502  0.00000000000E+00  0.00000000000E+00  0.94279764808E+01  0.94279764808E+01  0.00000000000E+00 0. -1.
         13   -1    0    0    0    0 -0.00000000000E+00 -0.00000000000E+00 -0.10000000000E+04  0.10000000000E+04  0.00000000000E+00 0.  1.
    9000005    2    1    2  501    0 -0.35948064974E+02  0.77038286347E+01 -0.96165675187E+03  0.96265506460E+03  0.23863206833E+02 0.  0.
         13    1    3    3    0    0 -0.27801109465E+02  0.16094769791E+02 -0.71431189913E+03  0.71503386810E+03  0.00000000000E+00 0.  1.
          1    1    3    3  501    0 -0.81469555084E+01 -0.83909411568E+01 -0.24734485274E+03  0.24762119650E+03  0.00000000000E+00 0.  1.
         -3    1    1    2    0  502  0.35948064974E+02 -0.77038286347E+01 -0.28915271653E+02  0.46772911880E+02  0.00000000000E+00 0. -1.
<mgrwt>
<rscale>  1 0.30000000E+03</rscale>
<asrwt>0</asrwt>
<pdfrwt beam="1">  1       21 0.34283623E-01 0.30000000E+03</pdfrwt>
<pdfrwt beam="2">0</pdfrwt>
<totfact> 0.83013665E+02</totfact>
</mgrwt>
</event>
<event>
 6    1  0.1132867E-002  0.3000000E+03  0.7818608E-02  0.1093470E+00
         21   -1    0    0  501  502  0.00000000000E+00  0.00000000000E+00  0.33811155259E+00  0.33811155259E+00  0.00000000000E+00 0. -1.
         13   -1    0    0    0    0 -0.00000000000E+00 -0.00000000000E+00 -0.10000000000E+04  0.10000000000E+04  0.00000000000E+00 0.  1.
    9000005    2    1    2  501    0 -0.34901654472E+01  0.12194750644E+02 -0.84196102699E+03  0.84212795100E+03  0.10964564965E+02 0.  0.
         13    1    3    3    0    0 -0.72472320451E+01  0.71788883687E+01 -0.59490513374E+03  0.59499258563E+03  0.00000000000E+00 0.  1.
          1    1    3    3  501    0  0.37570665980E+01  0.50158622751E+01 -0.24705589326E+03  0.24713536537E+03  0.00000000000E+00 0.  1.
         -1    1    1    2    0  502  0.34901654472E+01 -0.12194750644E+02 -0.15770086145E+03  0.15821016055E+03  0.00000000000E+00 0. -1.
<mgrwt>
<rscale>  1 0.30000000E+03</rscale>
<asrwt>0</asrwt>
<pdfrwt beam="1">  1       21 0.12294991E-02 0.30000000E+03</pdfrwt>
<pdfrwt beam="2">0</pdfrwt>
<totfact> 0.29076352E+05</totfact>
</mgrwt>
</event>
<event>
 6    1  0.1132867E-002  0.3000000E+03  0.7818608E-02  0.1093470E+00
         21   -1    0    0  501  502  0.00000000000E+00  0.00000000000E+00  0.59112449138E+00  0.59112449138E+00  0.00000000000E+00 0. -1.
         13   -1    0    0    0    0 -0.00000000000E+00 -0.00000000000E+00 -0.10000000000E+04  0.10000000000E+04  0.00000000000E+00 0.  1.
    9000005    2    1    2  501    0 -0.93578902437E+01  0.13548660183E+02 -0.81881254451E+03  0.81924567770E+03  0.20937074226E+02 0.  0.
         13    1    3    3    0    0 -0.78830330933E+01  0.93297221131E+01 -0.78949086433E+03  0.78958534104E+03  0.00000000000E+00 0.  1.
          1    1    3    3  501    0 -0.14748571504E+01  0.42189380700E+01 -0.29321680180E+02  0.29660336658E+02  0.00000000000E+00 0.  1.
         -1    1    1    2    0  502  0.93578902437E+01 -0.13548660183E+02 -0.18059633099E+03  0.18134544679E+03  0.00000000000E+00 0. -1.
<mgrwt>
<rscale>  1 0.30000000E+03</rscale>
<asrwt>0</asrwt>
<pdfrwt beam="1">  1       21 0.21495481E-02 0.30000000E+03</pdfrwt>
<pdfrwt beam="2">0</pdfrwt>
<totfact> 0.11783432E+05</totfact>
</mgrwt>
</event>
<event>
 6    1  0.1132867E-002  0.3000000E+03  0.7818608E-02  0.1093470E+00
         21   -1    0    0  501  502  0.00000000000E+00  0.00000000000E+00  0.71995997094E+00  0.71995997094E+00  0.00000000000E+00 0. -1.
         13   -1    0    0    0    0 -0.00000000000E+00 -0.00000000000E+00 -0.10000000000E+04  0.10000000000E+04  0.00000000000E+00 0.  1.
    9000005    2    1    2  501    0 -0.55468357543E+01 -0.18607646268E+02 -0.28227211445E+03  0.28344917622E+03  0.16996382393E+02 0.  0.
         13    1    3    3    0    0 -0.97891850656E+01 -0.47288178649E+01 -0.96317234493E+02  0.96928837418E+02  0.00000000000E+00 0.  1.
          1    1    3    3  501    0  0.42423493113E+01 -0.13878828403E+02 -0.18595487996E+03  0.18652033880E+03  0.00000000000E+00 0.  1.
         -1    1    1    2    0  502  0.55468357543E+01  0.18607646268E+02 -0.71700792558E+03  0.71727078375E+03  0.00000000000E+00 0. -1.
<mgrwt>
<rscale>  1 0.30000000E+03</rscale>
<asrwt>0</asrwt>
<pdfrwt beam="1">  1       21 0.26180418E-02 0.30000000E+03</pdfrwt>
<pdfrwt beam="2">0</pdfrwt>
<totfact> 0.85237673E+04</totfact>
</mgrwt>
</event>
<event>
 6    1  0.1132867E-002  0.3000000E+03  0.7818608E-02  0.1093470E+00
         21   -1    0    0  501  502  0.00000000000E+00  0.00000000000E+00  0.25988791969E+01  0.25988791969E+01  0.00000000000E+00 0. -1.
         13   -1    0    0    0    0 -0.00000000000E+00 -0.00000000000E+00 -0.10000000000E+04  0.10000000000E+04  0.00000000000E+00 0.  1.
    9000005    2    1    2  501    0  0.19797571560E+02  0.26371677349E+02 -0.82019710978E+03  0.82235273991E+03  0.49531007831E+02 0.  0.
         13    1    3    3    0    0  0.14867472118E+02  0.21627885013E+01 -0.63526451560E+02  0.65278858975E+02  0.00000000000E+00 0.  1.
          1    1    3    3  501    0  0.49300994426E+01  0.24208888848E+02 -0.75667065822E+03  0.75707388093E+03  0.00000000000E+00 0.  1.
         -3    1    1    2    0  502 -0.19797571560E+02 -0.26371677349E+02 -0.17720401103E+03  0.18024613929E+03  0.00000000000E+00 0. -1.
<mgrwt>
<rscale>  1 0.30000000E+03</rscale>
<asrwt>0</asrwt>
<pdfrwt beam="1">  1       21 0.94504897E-02 0.30000000E+03</pdfrwt>
<pdfrwt beam="2">0</pdfrwt>
<totfact> 0.95158615E+03</totfact>
</mgrwt>
</event>
<event>
 6    1  0.1132867E-002  0.3000000E+03  0.7818608E-02  0.1093470E+00
         21   -1    0    0  501  502  0.00000000000E+00  0.00000000000E+00  0.15167325943E+00  0.15167325943E+00  0.00000000000E+00 0. -1.
         13   -1    0    0    0    0 -0.00000000000E+00 -0.00000000000E+00 -0.10000000000E+04  0.10000000000E+04  0.00000000000E+00 0.  1.
    9000005    2    1    2  501    0  0.91827903808E+01 -0.17325562076E+01 -0.81352676830E+03  0.81359592146E+03  0.50194903612E+01 0.  0.
         13    1    3    3    0    0  0.13921395595E+00  0.49709910133E+00 -0.87269185063E+01  0.87421733372E+01  0.00000000000E+00 0.  1.
          3    1    3    3  501    0  0.90435764248E+01 -0.22296553089E+01 -0.80479984979E+03  0.80485374812E+03  0.00000000000E+00 0.  1.
         -1    1    1    2    0  502 -0.91827903808E+01  0.17325562076E+01 -0.18632155844E+03  0.18655575180E+03  0.00000000000E+00 0. -1.
<mgrwt>
<rscale>  1 0.30000000E+03</rscale>
<asrwt>0</asrwt>
<pdfrwt beam="1">  1       21 0.55154029E-03 0.30000000E+03</pdfrwt>
<pdfrwt beam="2">0</pdfrwt>
<totfact> 0.10294523E+06</totfact>
</mgrwt>
</event>
<event>
 6    1  0.1132867E-002  0.3000000E+03  0.7818608E-02  0.1093470E+00
         21   -1    0    0  501  502  0.00000000000E+00  0.00000000000E+00  0.22590068541E+00  0.22590068541E+00  0.00000000000E+00 0. -1.
         13   -1    0    0    0    0 -0.00000000000E+00 -0.00000000000E+00 -0.10000000000E+04  0.10000000000E+04  0.00000000000E+00 0.  1.
    9000005    2    1    2  501    0  0.94878114939E+01  0.86976727584E+00 -0.88259907380E+03  0.88266416513E+03  0.49120538427E+01 0.  0.
         13    1    3    3    0    0  0.49221752045E+01 -0.18844987265E+01 -0.37387094022E+03  0.37390808909E+03  0.00000000000E+00 0.  1.
          3    1    3    3  501    0  0.45656362893E+01  0.27542660023E+01 -0.50872813358E+03  0.50875607604E+03  0.00000000000E+00 0.  1.
         -1    1    1    2    0  502 -0.94878114939E+01 -0.86976727584E+00 -0.11717502552E+03  0.11756173556E+03  0.00000000000E+00 0. -1.
<mgrwt>
<rscale>  1 0.30000000E+03</rscale>
<asrwt>0</asrwt>
<pdfrwt beam="1">  1       21 0.82145877E-03 0.30000000E+03</pdfrwt>
<pdfrwt beam="2">0</pdfrwt>
<totfact> 0.55154379E+05</totfact>
</mgrwt>
</event>
<event>
 6    1  0.1132867E-002  0.3000000E+03  0.7818608E-02  0.1093470E+00
         21   -1    0    0  501  502  0.00000000000E+00  0.00000000000E+00  0.14032373548E+00  0.14032373548E+00  0.00000000000E+00 0. -1.
         13   -1    0    0    0    0 -0.00000000000E+00 -0.00000000000E+00 -0.10000000000E+04  0.10000000000E+04  0.00000000000E+00 0.  1.
    9000005    2    1    2  501    0  0.99794808222E+01 -0.14162496667E+01 -0.64815908410E+03  0.64829532615E+03  0.86623206738E+01 0.  0.
         13    1    3    3    0    0  0.77151497243E+01  0.26399769161E+01 -0.32232940410E+03  0.32243253211E+03  0.00000000000E+00 0.  1.
          1    1    3    3  501    0  0.22643310979E+01 -0.40562265828E+01 -0.32582968000E+03  0.32586279404E+03  0.00000000000E+00 0.  1.
         -3    1    1    2    0  502 -0.99794808222E+01  0.14162496667E+01 -0.35170059216E+03  0.35184499759E+03  0.00000000000E+00 0. -1.
<mgrwt>
<rscale>  1 0.30000000E+03</rscale>
<asrwt>0</asrwt>
<pdfrwt beam="1">  1       21 0.51026921E-03 0.30000000E+03</pdfrwt>
<pdfrwt beam="2">0</pdfrwt>
<totfact> 0.11617816E+06</totfact>
</mgrwt>
</event>
<event>
 6    1  0.1132867E-002  0.3000000E+03  0.7818608E-02  0.1093470E+00
         21   -1    0    0  501  502  0.00000000000E+00  0.00000000000E+00  0.14605800905E+00  0.14605800905E+00  0.00000000000E+00 0. -1.
         13   -1    0    0    0    0 -0.00000000000E+00 -0.00000000000E+00 -0.10000000000E+04  0.10000000000E+04  0.00000000000E+00 0.  1.
    9000005    2    1    2  501    0  0.75288440958E+01  0.58305270288E+01 -0.45810826770E+03  0.45831669912E+03  0.10016647157E+02 0.  0.
         13    1    3    3    0    0 -0.11485175356E+01 -0.11644497072E+00 -0.77423795706E+01  0.78279686621E+01  0.00000000000E+00 0.  1.
          1    1    3    3  501    0  0.86773616313E+01  0.59469719996E+01 -0.45036588813E+03  0.45048873046E+03  0.00000000000E+00 0.  1.
         -1    1    1    2    0  502 -0.75288440958E+01 -0.58305270288E+01 -0.54174567429E+03  0.54182935889E+03  0.00000000000E+00 0. -1.
<mgrwt>
<rscale>  1 0.30000000E+03</rscale>
<asrwt>0</asrwt>
<pdfrwt beam="1">  1       21 0.53112115E-03 0.30000000E+03</pdfrwt>
<pdfrwt beam="2">0</pdfrwt>
<totfact> 0.10916699E+06</totfact>
</mgrwt>
</event>
<event>
 6    1  0.1132867E-002  0.3000000E+03  0.7818608E-02  0.1093470E+00
         21   -1    0    0  501  502  0.00000000000E+00  0.00000000000E+00  0.43590666428E+01  0.43590666428E+01  0.00000000000E+00 0. -1.
         13   -1    0    0    0    0 -0.00000000000E+00 -0.00000000000E+00 -0.10000000000E+04  0.10000000000E+04  0.00000000000E+00 0.  1.
    9000005    2    1    2  501    0 -0.24016289358E+02 -0.36284745251E+01 -0.96459241923E+03  0.96493878999E+03  0.88535421612E+01 0.  0.
         13    1    3    3    0    0 -0.15954119311E+02 -0.10894199275E+01 -0.76551978095E+03  0.76568678700E+03  0.00000000000E+00 0.  1.
          3    1    3    3  501    0 -0.80621700472E+01 -0.25390545975E+01 -0.19907263828E+03  0.19925200299E+03  0.00000000000E+00 0.  1.
         -1    1    1    2    0  502  0.24016289358E+02  0.36284745251E+01 -0.31048514128E+02  0.39420276654E+02  0.00000000000E+00 0. -1.
<mgrwt>
<rscale>  1 0.30000000E+03</rscale>
<asrwt>0</asrwt>
<pdfrwt beam="1">  1       21 0.15851185E-01 0.30000000E+03</pdfrwt>
<pdfrwt beam="2">0</pdfrwt>
<totfact> 0.37168196E+03</totfact>
</mgrwt>
</event>
<event>
 6    1  0.1132867E-002  0.3000000E+03  0.7818608E-02  0.1093470E+00
         21   -1    0    0  501  502  0.00000000000E+00  0.00000000000E+00  0.18616805620E+00  0.18616805620E+00  0.00000000000E+00 0. -1.
         13   -1    0    0    0    0 -0.00000000000E+00 -0.00000000000E+00 -0.10000000000E+04  0.10000000000E+04  0.00000000000E+00 0.  1.
    9000005    2    1    2  501    0  0.85052206731E+01  0.63780857096E+01 -0.78548419804E+03  0.78559303973E+03  0.76144562323E+01 0.  0.
         13    1    3    3    0    0 -0.13494464669E+01  0.30945500081E+00 -0.56396766076E+02  0.56413757116E+02  0.00000000000E+00 0.  1.
          1    1    3    3  501    0  0.98546671400E+01  0.60686307088E+01 -0.72908743196E+03  0.72917928261E+03  0.00000000000E+00 0.  1.
         -1    1    1    2    0  502 -0.85052206731E+01 -0.63780857096E+01 -0.21432963390E+03  0.21459312833E+03  0.00000000000E+00 0. -1.
<mgrwt>
<rscale>  1 0.30000000E+03</rscale>
<asrwt>0</asrwt>
<pdfrwt beam="1">  1       21 0.67697618E-03 0.30000000E+03</pdfrwt>
<pdfrwt beam="2">0</pdfrwt>
<totfact> 0.74749973E+05</totfact>
</mgrwt>
</event>
<event>
 6    1  0.1132867E-002  0.3000000E+03  0.7818608E-02  0.1093470E+00
         21   -1    0    0  501  502  0.00000000000E+00  0.00000000000E+00  0.30964935102E+00  0.30964935102E+00  0.00000000000E+00 0. -1.
         13   -1    0    0    0    0 -0.00000000000E+00 -0.00000000000E+00 -0.10000000000E+04  0.10000000000E+04  0.00000000000E+00 0.  1.
    9000005    2    1    2  501    0 -0.12532531476E+02 -0.69817301999E+01 -0.78478245200E+03  0.78492345248E+03  0.39395914533E+01 0.  0.
         13    1    3    3    0    0 -0.94094794775E+01 -0.36623636920E+01 -0.59906675401E+03  0.59915183966E+03  0.00000000000E+00 0.  1.
          3    1    3    3  501    0 -0.31230519982E+01 -0.33193665079E+01 -0.18571569799E+03  0.18577161281E+03  0.00000000000E+00 0.  1.
         -1    1    1    2    0  502  0.12532531476E+02  0.69817301999E+01 -0.21490789865E+03  0.21538619687E+03  0.00000000000E+00 0. -1.
<mgrwt>
<rscale>  1 0.30000000E+03</rscale>
<asrwt>0</asrwt>
<pdfrwt beam="1">  1       21 0.11260000E-02 0.30000000E+03</pdfrwt>
<pdfrwt beam="2">0</pdfrwt>
<totfact> 0.33457005E+05</totfact>
</mgrwt>
</event>
<event>
 6    1  0.1132867E-002  0.3000000E+03  0.7818608E-02  0.1093470E+00
         21   -1    0    0  501  502  0.00000000000E+00  0.00000000000E+00  0.14575105278E+00  0.14575105278E+00  0.00000000000E+00 0.  1.
         13   -1    0    0    0    0 -0.00000000000E+00 -0.00000000000E+00 -0.10000000000E+04  0.10000000000E+04  0.00000000000E+00 0.  1.
    9000005    2    1    2  501    0 -0.86402039230E+01  0.19941629822E+01 -0.69280209673E+03  0.69296558570E+03  0.12162561826E+02 0.  0.
         13    1    3    3    0    0 -0.34183336660E+01 -0.80938278189E+00 -0.57794140987E+03  0.57795208568E+03  0.00000000000E+00 0.  1.
          3    1    3    3  501    0 -0.52218702570E+01  0.28035457641E+01 -0.11486068687E+03  0.11501350001E+03  0.00000000000E+00 0.  1.
         -1    1    1    2    0  502  0.86402039230E+01 -0.19941629822E+01 -0.30705215221E+03  0.30718016536E+03  0.00000000000E+00 0. -1.
<mgrwt>
<rscale>  1 0.30000000E+03</rscale>
<asrwt>0</asrwt>
<pdfrwt beam="1">  1       21 0.53000495E-03 0.30000000E+03</pdfrwt>
<pdfrwt beam="2">0</pdfrwt>
<totfact> 0.10952466E+06</totfact>
</mgrwt>
</event>
<event>
 6    1  0.1132867E-002  0.3000000E+03  0.7818608E-02  0.1093470E+00
         21   -1    0    0  501  502  0.00000000000E+00  0.00000000000E+00  0.28591582464E+00  0.28591582464E+00  0.00000000000E+00 0. -1.
         13   -1    0    0    0    0 -0.00000000000E+00 -0.00000000000E+00 -0.10000000000E+04  0.10000000000E+04  0.00000000000E+00 0.  1.
    9000005    2    1    2  501    0  0.87910168498E+01 -0.12586668490E+02 -0.64414791446E+03  0.64438844850E+03  0.86157215684E+01 0.  0.
         13    1    3    3    0    0  0.54125834615E+01 -0.46573831798E+01 -0.44096185624E+03  0.44101966616E+03  0.00000000000E+00 0.  1.
          1    1    3    3  501    0  0.33784333883E+01 -0.79292853104E+01 -0.20318605822E+03  0.20336878234E+03  0.00000000000E+00 0.  1.
         -3    1    1    2    0  502 -0.87910168498E+01  0.12586668490E+02 -0.35556616972E+03  0.35589746732E+03  0.00000000000E+00 0. -1.
<mgrwt>
<rscale>  1 0.30000000E+03</rscale>
<asrwt>0</asrwt>
<pdfrwt beam="1">  1       21 0.10396961E-02 0.30000000E+03</pdfrwt>
<pdfrwt beam="2">0</pdfrwt>
<totfact> 0.37985270E+05</totfact>
</mgrwt>
</event>
<event>
 6    1  0.1132867E-002  0.3000000E+03  0.7818608E-02  0.1093470E+00
         21   -1    0    0  501  502  0.00000000000E+00  0.00000000000E+00  0.15815342516E+00  0.15815342516E+00  0.00000000000E+00 0. -1.
         13   -1    0    0    0    0 -0.00000000000E+00 -0.00000000000E+00 -0.10000000000E+04  0.10000000000E+04  0.00000000000E+00 0.  1.
    9000005    2    1    2  501    0  0.68553742759E+01  0.82964892417E+01 -0.69464452985E+03  0.69477113663E+03  0.77512292724E+01 0.  0.
         13    1    3    3    0    0  0.14032417009E+01 -0.72663045939E+00 -0.23669546693E+03  0.23670074175E+03  0.00000000000E+00 0.  1.
          3    1    3    3  501    0  0.54521325750E+01  0.90231197011E+01 -0.45794906292E+03  0.45807039489E+03  0.00000000000E+00 0.  1.
         -3    1    1    2    0  502 -0.68553742759E+01 -0.82964892417E+01 -0.30519731672E+03  0.30538701679E+03  0.00000000000E+00 0. -1.
<mgrwt>
<rscale>  1 0.30000000E+03</rscale>
<asrwt>0</asrwt>
<pdfrwt beam="1">  1       21 0.57510458E-03 0.30000000E+03</pdfrwt>
<pdfrwt beam="2">0</pdfrwt>
<totfact> 0.96451965E+05</totfact>
</mgrwt>
</event>
<event>
 6    1  0.1132867E-002  0.3000000E+03  0.7818608E-02  0.1093470E+00
         21   -1    0    0  501  502  0.00000000000E+00  0.00000000000E+00  0.90552492429E-01  0.90552492429E-01  0.00000000000E+00 0. -1.
         13   -1    0    0    0    0 -0.00000000000E+00 -0.00000000000E+00 -0.10000000000E+04  0.10000000000E+04  0.00000000000E+00 0.  1.
    9000005    2    1    2  501    0  0.82535840458E+01 -0.19951122704E+01 -0.64854650272E+03  0.64862501920E+03  0.54541011716E+01 0.  0.
         13    1    3    3    0    0  0.26511112740E+01 -0.86456797655E-01 -0.39713485059E+03  0.39714370878E+03  0.00000000000E+00 0.  1.
          3    1    3    3  501    0  0.56024727718E+01 -0.19086554728E+01 -0.25141165213E+03  0.25148131042E+03  0.00000000000E+00 0.  1.
         -1    1    1    2    0  502 -0.82535840458E+01  0.19951122704E+01 -0.35136294479E+03  0.35146553329E+03  0.00000000000E+00 0. -1.
<mgrwt>
<rscale>  1 0.30000000E+03</rscale>
<asrwt>0</asrwt>
<pdfrwt beam="1">  1       21 0.32928249E-03 0.30000000E+03</pdfrwt>
<pdfrwt beam="2">0</pdfrwt>
<totfact> 0.22844788E+06</totfact>
</mgrwt>
</event>
<event>
 6    1  0.1132867E-002  0.3000000E+03  0.7818608E-02  0.1093470E+00
         21   -1    0    0  501  502  0.00000000000E+00  0.00000000000E+00  0.90165806000E+00  0.90165806000E+00  0.00000000000E+00 0. -1.
         13   -1    0    0    0    0 -0.00000000000E+00 -0.00000000000E+00 -0.10000000000E+04  0.10000000000E+04  0.00000000000E+00 0.  1.
    9000005    2    1    2  501    0  0.13229665370E+02  0.11853651158E+02 -0.88470836697E+03  0.88514069977E+03  0.21204497241E+02 0.  0.
         13    1    3    3    0    0 -0.64226153217E+00 -0.53191586668E+01 -0.22240204125E+03  0.22246656805E+03  0.00000000000E+00 0.  1.
          1    1    3    3  501    0  0.13871926903E+02  0.17172809825E+02 -0.66230632572E+03  0.66267413171E+03  0.00000000000E+00 0.  1.
         -1    1    1    2    0  502 -0.13229665370E+02 -0.11853651158E+02 -0.11438997497E+03  0.11576095829E+03  0.00000000000E+00 0. -1.
<mgrwt>
<rscale>  1 0.30000000E+03</rscale>
<asrwt>0</asrwt>
<pdfrwt beam="1">  1       21 0.32787635E-02 0.30000000E+03</pdfrwt>
<pdfrwt beam="2">0</pdfrwt>
<totfact> 0.58681947E+04</totfact>
</mgrwt>
</event>
<event>
 6    1  0.1132867E-002  0.3000000E+03  0.7818608E-02  0.1093470E+00
         21   -1    0    0  501  502  0.00000000000E+00  0.00000000000E+00  0.85668604088E+00  0.85668604088E+00  0.00000000000E+00 0.  1.
         13   -1    0    0    0    0 -0.00000000000E+00 -0.00000000000E+00 -0.10000000000E+04  0.10000000000E+04  0.00000000000E+00 0.  1.
    9000005    2    1    2  501    0  0.10024374583E+02  0.45987314341E+01 -0.92541695557E+03  0.92630997359E+03  0.39140632223E+02 0.  0.
         13    1    3    3    0    0 -0.68334483759E+01 -0.13187919658E+02 -0.46948263686E+03  0.46971753593E+03  0.00000000000E+00 0.  1.
          3    1    3    3  501    0  0.16857822959E+02  0.17786651092E+02 -0.45593431871E+03  0.45659243766E+03  0.00000000000E+00 0.  1.
         -3    1    1    2    0  502 -0.10024374583E+02 -0.45987314341E+01 -0.73726358387E+02  0.74546712453E+02  0.00000000000E+00 0. -1.
<mgrwt>
<rscale>  1 0.30000000E+03</rscale>
<asrwt>0</asrwt>
<pdfrwt beam="1">  1       21 0.31152285E-02 0.30000000E+03</pdfrwt>
<pdfrwt beam="2">0</pdfrwt>
<totfact> 0.63900399E+04</totfact>
</mgrwt>
</event>
<event>
 6    1  0.1132867E-002  0.3000000E+03  0.7818608E-02  0.1093470E+00
         21   -1    0    0  501  502  0.00000000000E+00  0.00000000000E+00  0.19448659151E+00  0.19448659151E+00  0.00000000000E+00 0. -1.
         13   -1    0    0    0    0 -0.00000000000E+00 -0.00000000000E+00 -0.10000000000E+04  0.10000000000E+04  0.00000000000E+00 0.  1.
    9000005    2    1    2  501    0  0.10863947809E+02  0.57088187451E+01 -0.39654562194E+03  0.39680977297E+03  0.76778691004E+01 0.  0.
         13    1    3    3    0    0  0.25757592333E+01 -0.56391579633E+00 -0.17559329045E+03  0.17561308661E+03  0.00000000000E+00 0.  1.
          1    1    3    3  501    0  0.82881885760E+01  0.62727345414E+01 -0.22095233149E+03  0.22119668636E+03  0.00000000000E+00 0.  1.
         -1    1    1    2    0  502 -0.10863947809E+02 -0.57088187451E+01 -0.60325989147E+03  0.60338471362E+03  0.00000000000E+00 0. -1.
<mgrwt>
<rscale>  1 0.30000000E+03</rscale>
<asrwt>0</asrwt>
<pdfrwt beam="1">  1       21 0.70722546E-03 0.30000000E+03</pdfrwt>
<pdfrwt beam="2">0</pdfrwt>
<totfact> 0.69800003E+05</totfact>
</mgrwt>
</event>
<event>
 6    1  0.1132867E-002  0.3000000E+03  0.7818608E-02  0.1093470E+00
         21   -1    0    0  501  502  0.00000000000E+00  0.00000000000E+00  0.25735673116E+00  0.25735673116E+00  0.00000000000E+00 0. -1.
         13   -1    0    0    0    0 -0.00000000000E+00 -0.00000000000E+00 -0.10000000000E+04  0.10000000000E+04  0.00000000000E+00 0.  1.
    9000005    2    1    2  501    0  0.13114644124E+02 -0.12603355962E+01 -0.75275363085E+03  0.75291719704E+03  0.85261079580E+01 0.  0.
         13    1    3    3    0    0 -0.66959311629E+00 -0.24015390216E+00 -0.16324594676E+03  0.16324749665E+03  0.00000000000E+00 0.  1.
          3    1    3    3  501    0  0.13784237240E+02 -0.10201816940E+01 -0.58950768408E+03  0.58966970039E+03  0.00000000000E+00 0.  1.
         -3    1    1    2    0  502 -0.13114644124E+02  0.12603355962E+01 -0.24698901242E+03  0.24734015969E+03  0.00000000000E+00 0. -1.
<mgrwt>
<rscale>  1 0.30000000E+03</rscale>
<asrwt>0</asrwt>
<pdfrwt beam="1">  1       21 0.93584463E-03 0.30000000E+03</pdfrwt>
<pdfrwt beam="2">0</pdfrwt>
<totfact> 0.44888110E+05</totfact>
</mgrwt>
</event>
<event>
 6    1  0.1132867E-002  0.3000000E+03  0.7818608E-02  0.1093470E+00
         21   -1    0    0  501  502  0.00000000000E+00  0.00000000000E+00  0.24747609405E+00  0.24747609405E+00  0.00000000000E+00 0. -1.
         13   -1    0    0    0    0 -0.00000000000E+00 -0.00000000000E+00 -0.10000000000E+04  0.10000000000E+04  0.00000000000E+00 0.  1.
    9000005    2    1    2  501    0 -0.26434400162E+01 -0.13404310054E+02 -0.63431755022E+03  0.63455719280E+03  0.10835733174E+02 0.  0.
         13    1    3    3    0    0  0.17143835696E+00 -0.12892932553E+02 -0.59325105322E+03  0.59339116041E+03  0.00000000000E+00 0.  1.
          3    1    3    3  501    0 -0.28148783732E+01 -0.51137750094E+00 -0.41066496995E+02  0.41166032389E+02  0.00000000000E+00 0.  1.
         -1    1    1    2    0  502  0.26434400162E+01  0.13404310054E+02 -0.36543497369E+03  0.36569028330E+03  0.00000000000E+00 0. -1.
<mgrwt>
<rscale>  1 0.30000000E+03</rscale>
<asrwt>0</asrwt>
<pdfrwt beam="1">  1       21 0.89991497E-03 0.30000000E+03</pdfrwt>
<pdfrwt beam="2">0</pdfrwt>
<totfact> 0.47756025E+05</totfact>
</mgrwt>
</event>
<event>
 6    1  0.1132867E-002  0.3000000E+03  0.7818608E-02  0.1093470E+00
         21   -1    0    0  501  502  0.00000000000E+00  0.00000000000E+00  0.12421382549E+00  0.12421382549E+00  0.00000000000E+00 0.  1.
         13   -1    0    0    0    0 -0.00000000000E+00 -0.00000000000E+00 -0.10000000000E+04  0.10000000000E+04  0.00000000000E+00 0.  1.
    9000005    2    1    2  501    0  0.45701954440E+01  0.72649110867E+01 -0.75536502307E+03  0.75546285828E+03  0.86108394278E+01 0.  0.
         13    1    3    3    0    0 -0.15397023338E+01 -0.92049284372E-01 -0.34566084355E+02  0.34600481846E+02  0.00000000000E+00 0.  1.
          3    1    3    3  501    0  0.61098977778E+01  0.73569603711E+01 -0.72079893871E+03  0.72086237644E+03  0.00000000000E+00 0.  1.
         -3    1    1    2    0  502 -0.45701954440E+01 -0.72649110867E+01 -0.24451076311E+03  0.24466135554E+03  0.00000000000E+00 0. -1.
<mgrwt>
<rscale>  1 0.30000000E+03</rscale>
<asrwt>0</asrwt>
<pdfrwt beam="1">  1       21 0.45168759E-03 0.30000000E+03</pdfrwt>
<pdfrwt beam="2">0</pdfrwt>
<totfact> 0.14036523E+06</totfact>
</mgrwt>
</event>
<event>
 6    1  0.1132867E-002  0.3000000E+03  0.7818608E-02  0.1093470E+00
         21   -1    0    0  501  502  0.00000000000E+00  0.00000000000E+00  0.17735247500E+01  0.17735247500E+01  0.00000000000E+00 0. -1.
         13   -1    0    0    0    0 -0.00000000000E+00 -0.00000000000E+00 -0.10000000000E+04  0.10000000000E+04  0.00000000000E+00 0.  1.
    9000005    2    1    2  501    0 -0.10183126363E+02  0.56859184578E+01 -0.97966919066E+03  0.97985552889E+03  0.15136334880E+02 0.  0.
         13    1    3    3    0    0  0.28896349961E+01  0.33550326626E+00 -0.53796975752E+02  0.53875571022E+02  0.00000000000E+00 0.  1.
          1    1    3    3  501    0 -0.13072761359E+02  0.53504151915E+01 -0.92587221491E+03  0.92597995787E+03  0.00000000000E+00 0.  1.
         -3    1    1    2    0  502  0.10183126363E+02 -0.56859184578E+01 -0.18557284590E+02  0.21917995861E+02  0.00000000000E+00 0. -1.
<mgrwt>
<rscale>  1 0.30000000E+03</rscale>
<asrwt>0</asrwt>
<pdfrwt beam="1">  1       21 0.64491945E-02 0.30000000E+03</pdfrwt>
<pdfrwt beam="2">0</pdfrwt>
<totfact> 0.18600995E+04</totfact>
</mgrwt>
</event>
<event>
 6    1  0.1132867E-002  0.3000000E+03  0.7818608E-02  0.1093470E+00
         21   -1    0    0  501  502  0.00000000000E+00  0.00000000000E+00  0.27886329849E+00  0.27886329849E+00  0.00000000000E+00 0.  1.
         13   -1    0    0    0    0 -0.00000000000E+00 -0.00000000000E+00 -0.10000000000E+04  0.10000000000E+04  0.00000000000E+00 0.  1.
    9000005    2    1    2  501    0  0.71299134294E+01  0.33881571208E+00 -0.78917723209E+03  0.78961399620E+03  0.25270711906E+02 0.  0.
         13    1    3    3    0    0  0.69827526732E+01  0.80242150477E+01 -0.70653022485E+03  0.70661029251E+03  0.00000000000E+00 0.  1.
          3    1    3    3  501    0  0.14716075627E+00 -0.76853993356E+01 -0.82647007243E+02  0.83003703686E+02  0.00000000000E+00 0.  1.
         -3    1    1    2    0  502 -0.71299134294E+01 -0.33881571208E+00 -0.21054390461E+03  0.21066486710E+03  0.00000000000E+00 0. -1.
<mgrwt>
<rscale>  1 0.30000000E+03</rscale>
<asrwt>0</asrwt>
<pdfrwt beam="1">  1       21 0.10140505E-02 0.30000000E+03</pdfrwt>
<pdfrwt beam="2">0</pdfrwt>
<totfact> 0.39523812E+05</totfact>
</mgrwt>
</event>
<event>
 6    1  0.1132867E-002  0.3000000E+03  0.7818608E-02  0.1093470E+00
         21   -1    0    0  501  502  0.00000000000E+00  0.00000000000E+00  0.12506642277E+00  0.12506642277E+00  0.00000000000E+00 0. -1.
         13   -1    0    0    0    0 -0.00000000000E+00 -0.00000000000E+00 -0.10000000000E+04  0.10000000000E+04  0.00000000000E+00 0.  1.
    9000005    2    1    2  501    0 -0.84086361611E+01 -0.62540458697E+01 -0.56136611434E+03  0.56149104722E+03  0.55193775803E+01 0.  0.
         13    1    3    3    0    0 -0.84683407872E+01 -0.70607165024E+01 -0.51693445027E+03  0.51705202097E+03  0.00000000000E+00 0.  1.
          3    1    3    3  501    0  0.59704626078E-01  0.80667063264E+00 -0.44431664072E+02  0.44439026254E+02  0.00000000000E+00 0.  1.
         -1    1    1    2    0  502  0.84086361611E+01  0.62540458697E+01 -0.43850881923E+03  0.43863401920E+03  0.00000000000E+00 0. -1.
<mgrwt>
<rscale>  1 0.30000000E+03</rscale>
<asrwt>0</asrwt>
<pdfrwt beam="1">  1       21 0.45478795E-03 0.30000000E+03</pdfrwt>
<pdfrwt beam="2">0</pdfrwt>
<totfact> 0.13888714E+06</totfact>
</mgrwt>
</event>
<event>
 6    1  0.1132867E-002  0.3000000E+03  0.7818608E-02  0.1093470E+00
         21   -1    0    0  501  502  0.00000000000E+00  0.00000000000E+00  0.15074795598E+00  0.15074795598E+00  0.00000000000E+00 0. -1.
         13   -1    0    0    0    0 -0.00000000000E+00 -0.00000000000E+00 -0.10000000000E+04  0.10000000000E+04  0.00000000000E+00 0.  1.
    9000005    2    1    2  501    0 -0.81459493139E+01  0.34798640681E+01 -0.78203049024E+03  0.78215194306E+03  0.10559754566E+02 0.  0.
         13    1    3    3    0    0 -0.11482915352E+01  0.89929810928E+00 -0.12424873878E+02  0.12510187905E+02  0.00000000000E+00 0.  1.
          3    1    3    3  501    0 -0.69976577787E+01  0.25805659588E+01 -0.76960561636E+03  0.76964175515E+03  0.00000000000E+00 0.  1.
         -1    1    1    2    0  502  0.81459493139E+01 -0.34798640681E+01 -0.21781876180E+03  0.21799880490E+03  0.00000000000E+00 0. -1.
<mgrwt>
<rscale>  1 0.30000000E+03</rscale>
<asrwt>0</asrwt>
<pdfrwt beam="1">  1       21 0.54817554E-03 0.30000000E+03</pdfrwt>
<pdfrwt beam="2">0</pdfrwt>
<totfact> 0.10393022E+06</totfact>
</mgrwt>
</event>
<event>
 6    1  0.1132867E-002  0.3000000E+03  0.7818608E-02  0.1093470E+00
         21   -1    0    0  501  502  0.00000000000E+00  0.00000000000E+00  0.16055285129E+00  0.16055285129E+00  0.00000000000E+00 0. -1.
         13   -1    0    0    0    0 -0.00000000000E+00 -0.00000000000E+00 -0.10000000000E+04  0.10000000000E+04  0.00000000000E+00 0.  1.
    9000005    2    1    2  501    0  0.43347546689E+01 -0.99291713019E+01 -0.72841503343E+03  0.72851999825E+03  0.59622466095E+01 0.  0.
         13    1    3    3    0    0 -0.12092375000E+01 -0.42340763606E+00 -0.10540705130E+03  0.10541483763E+03  0.00000000000E+00 0.  1.
          1    1    3    3  501    0  0.55439921689E+01 -0.95057636659E+01 -0.62300798213E+03  0.62310516061E+03  0.00000000000E+00 0.  1.
         -1    1    1    2    0  502 -0.43347546689E+01  0.99291713019E+01 -0.27142441372E+03  0.27164055460E+03  0.00000000000E+00 0. -1.
<mgrwt>
<rscale>  1 0.30000000E+03</rscale>
<asrwt>0</asrwt>
<pdfrwt beam="1">  1       21 0.58382978E-03 0.30000000E+03</pdfrwt>
<pdfrwt beam="2">0</pdfrwt>
<totfact> 0.94214503E+05</totfact>
</mgrwt>
</event>
<event>
 6    1  0.1132867E-002  0.3000000E+03  0.7818608E-02  0.1093470E+00
         21   -1    0    0  501  502  0.00000000000E+00  0.00000000000E+00  0.12037147478E+00  0.12037147478E+00  0.00000000000E+00 0. -1.
         13   -1    0    0    0    0 -0.00000000000E+00 -0.00000000000E+00 -0.10000000000E+04  0.10000000000E+04  0.00000000000E+00 0.  1.
    9000005    2    1    2  501    0  0.75617217398E+01 -0.62066382074E+01 -0.61259541812E+03  0.61271262552E+03  0.69219347965E+01 0.  0.
         13    1    3    3    0    0  0.66401490076E+01 -0.75637985665E+01 -0.46990868903E+03  0.47001646636E+03  0.00000000000E+00 0.  1.
          1    1    3    3  501    0  0.92157273223E+00  0.13571603591E+01 -0.14268672909E+03  0.14269615916E+03  0.00000000000E+00 0.  1.
         -3    1    1    2    0  502 -0.75617217398E+01  0.62066382074E+01 -0.38728421041E+03  0.38740774595E+03  0.00000000000E+00 0. -1.
<mgrwt>
<rscale>  1 0.30000000E+03</rscale>
<asrwt>0</asrwt>
<pdfrwt beam="1">  1       21 0.43771538E-03 0.30000000E+03</pdfrwt>
<pdfrwt beam="2">0</pdfrwt>
<totfact> 0.14735518E+06</totfact>
</mgrwt>
</event>
<event>
 6    1  0.1132867E-002  0.3000000E+03  0.7818608E-02  0.1093470E+00
         21   -1    0    0  501  502  0.00000000000E+00  0.00000000000E+00  0.18422169342E+01  0.18422169342E+01  0.00000000000E+00 0. -1.
         13   -1    0    0    0    0 -0.00000000000E+00 -0.00000000000E+00 -0.10000000000E+04  0.10000000000E+04  0.00000000000E+00 0.  1.
    9000005    2    1    2  501    0 -0.18460808814E+02 -0.89521198393E+00 -0.94568667930E+03  0.94621111415E+03  0.25506357424E+02 0.  0.
         13    1    3    3    0    0 -0.52778979478E+01  0.82325872383E+01 -0.13017025437E+03  0.13053707068E+03  0.00000000000E+00 0.  1.
          1    1    3    3  501    0 -0.13182910866E+02 -0.91277992222E+01 -0.81551642493E+03  0.81567404347E+03  0.00000000000E+00 0.  1.
         -1    1    1    2    0  502  0.18460808814E+02  0.89521198393E+00 -0.52471103765E+02  0.55631102783E+02  0.00000000000E+00 0. -1.
<mgrwt>
<rscale>  1 0.30000000E+03</rscale>
<asrwt>0</asrwt>
<pdfrwt beam="1">  1       21 0.66989848E-02 0.30000000E+03</pdfrwt>
<pdfrwt beam="2">0</pdfrwt>
<totfact> 0.17415758E+04</totfact>
</mgrwt>
</event>
<event>
 6    1  0.1132867E-002  0.3000000E+03  0.7818608E-02  0.1093470E+00
         21   -1    0    0  501  502  0.00000000000E+00  0.00000000000E+00  0.11951290816E+01  0.11951290816E+01  0.00000000000E+00 0. -1.
         13   -1    0    0    0    0 -0.00000000000E+00 -0.00000000000E+00 -0.10000000000E+04  0.10000000000E+04  0.00000000000E+00 0.  1.
    9000005    2    1    2  501    0 -0.14493302075E+02  0.35952972329E+01 -0.94634704427E+03  0.94665335112E+03  0.18890659293E+02 0.  0.
         13    1    3    3    0    0 -0.26707257742E+01 -0.28813060882E+01 -0.37293904517E+02  0.37500266866E+02  0.00000000000E+00 0.  1.
          1    1    3    3  501    0 -0.11822576301E+02  0.64766033211E+01 -0.90905313976E+03  0.90915308425E+03  0.00000000000E+00 0.  1.
         -1    1    1    2    0  502  0.14493302075E+02 -0.35952972329E+01 -0.52457826645E+02  0.54541777965E+02  0.00000000000E+00 0. -1.
<mgrwt>
<rscale>  1 0.30000000E+03</rscale>
<asrwt>0</asrwt>
<pdfrwt beam="1">  1       21 0.43459331E-02 0.30000000E+03</pdfrwt>
<pdfrwt beam="2">0</pdfrwt>
<totfact> 0.36553696E+04</totfact>
</mgrwt>
</event>
<event>
 6    1  0.1132867E-002  0.3000000E+03  0.7818608E-02  0.1093470E+00
         21   -1    0    0  501  502  0.00000000000E+00  0.00000000000E+00  0.17440749077E+00  0.17440749077E+00  0.00000000000E+00 0. -1.
         13   -1    0    0    0    0 -0.00000000000E+00 -0.00000000000E+00 -0.10000000000E+04  0.10000000000E+04  0.00000000000E+00 0.  1.
    9000005    2    1    2  501    0 -0.74136649363E+01  0.75896785488E+01 -0.77808748139E+03  0.77818261581E+03  0.59572824436E+01 0.  0.
         13    1    3    3    0    0 -0.55624898718E+01  0.66006145925E+01 -0.72800922295E+03  0.72806039454E+03  0.00000000000E+00 0.  1.
          1    1    3    3  501    0 -0.18511750645E+01  0.98906395626E+00 -0.50078258439E+02  0.50122221269E+02  0.00000000000E+00 0.  1.
         -3    1    1    2    0  502  0.74136649363E+01 -0.75896785488E+01 -0.22173811112E+03  0.22199179168E+03  0.00000000000E+00 0. -1.
<mgrwt>
<rscale>  1 0.30000000E+03</rscale>
<asrwt>0</asrwt>
<pdfrwt beam="1">  1       21 0.63421039E-03 0.30000000E+03</pdfrwt>
<pdfrwt beam="2">0</pdfrwt>
<totfact> 0.82789242E+05</totfact>
</mgrwt>
</event>
<event>
 6    1  0.1132867E-002  0.3000000E+03  0.7818608E-02  0.1093470E+00
         21   -1    0    0  501  502  0.00000000000E+00  0.00000000000E+00  0.24757704377E+00  0.24757704377E+00  0.00000000000E+00 0.  1.
         13   -1    0    0    0    0 -0.00000000000E+00 -0.00000000000E+00 -0.10000000000E+04  0.10000000000E+04  0.00000000000E+00 0.  1.
    9000005    2    1    2  501    0 -0.85119016262E+01 -0.22660775835E+01 -0.77592511927E+03  0.77624702023E+03  0.20544053317E+02 0.  0.
         13    1    3    3    0    0 -0.32072382561E+01  0.91692187734E+01 -0.31693118078E+03  0.31708001246E+03  0.00000000000E+00 0.  1.
          1    1    3    3  501    0 -0.53046633701E+01 -0.11435296357E+02 -0.45899393849E+03  0.45916700777E+03  0.00000000000E+00 0.  1.
         -3    1    1    2    0  502  0.85119016262E+01  0.22660775835E+01 -0.22382730369E+03  0.22400055682E+03  0.00000000000E+00 0. -1.
<mgrwt>
<rscale>  1 0.30000000E+03</rscale>
<asrwt>0</asrwt>
<pdfrwt beam="1">  1       21 0.90028206E-03 0.30000000E+03</pdfrwt>
<pdfrwt beam="2">0</pdfrwt>
<totfact> 0.47725244E+05</totfact>
</mgrwt>
</event>
<event>
 6    1  0.1132867E-002  0.3000000E+03  0.7818608E-02  0.1093470E+00
         21   -1    0    0  501  502  0.00000000000E+00  0.00000000000E+00  0.19330793495E+01  0.19330793495E+01  0.00000000000E+00 0. -1.
         13   -1    0    0    0    0 -0.00000000000E+00 -0.00000000000E+00 -0.10000000000E+04  0.10000000000E+04  0.00000000000E+00 0.  1.
    9000005    2    1    2  501    0 -0.13906647776E+02  0.29191564950E+01 -0.97278300018E+03  0.97292975262E+03  0.91444937659E+01 0.  0.
         13    1    3    3    0    0 -0.12357112271E+02 -0.15339790568E-01 -0.57426373337E+03  0.57439666949E+03  0.00000000000E+00 0.  1.
          1    1    3    3  501    0 -0.15495355047E+01  0.29344962855E+01 -0.39851926682E+03  0.39853308314E+03  0.00000000000E+00 0.  1.
         -3    1    1    2    0  502  0.13906647776E+02 -0.29191564950E+01 -0.25283920466E+02  0.29003326725E+02  0.00000000000E+00 0. -1.
<mgrwt>
<rscale>  1 0.30000000E+03</rscale>
<asrwt>0</asrwt>
<pdfrwt beam="1">  1       21 0.70293943E-02 0.30000000E+03</pdfrwt>
<pdfrwt beam="2">0</pdfrwt>
<totfact> 0.16018026E+04</totfact>
</mgrwt>
</event>
<event>
 6    1  0.1132867E-002  0.3000000E+03  0.7818608E-02  0.1093470E+00
         21   -1    0    0  501  502  0.00000000000E+00  0.00000000000E+00  0.15499643824E+01  0.15499643824E+01  0.00000000000E+00 0. -1.
         13   -1    0    0    0    0 -0.00000000000E+00 -0.00000000000E+00 -0.10000000000E+04  0.10000000000E+04  0.00000000000E+00 0.  1.
    9000005    2    1    2  501    0 -0.70098038085E+01 -0.29752479351E+02 -0.80698638884E+03  0.80766165784E+03  0.12488970849E+02 0.  0.
         13    1    3    3    0    0  0.12309621011E+01 -0.18632955275E+02 -0.53132568333E+03  0.53165372571E+03  0.00000000000E+00 0.  1.
          3    1    3    3  501    0 -0.82407659096E+01 -0.11119524077E+02 -0.27566070551E+03  0.27600793213E+03  0.00000000000E+00 0.  1.
         -3    1    1    2    0  502  0.70098038085E+01  0.29752479351E+02 -0.19146364678E+03  0.19388830654E+03  0.00000000000E+00 0. -1.
<mgrwt>
<rscale>  1 0.30000000E+03</rscale>
<asrwt>0</asrwt>
<pdfrwt beam="1">  1       21 0.56362460E-02 0.30000000E+03</pdfrwt>
<pdfrwt beam="2">0</pdfrwt>
<totfact> 0.23467581E+04</totfact>
</mgrwt>
</event>
<event>
 6    1  0.1132867E-002  0.3000000E+03  0.7818608E-02  0.1093470E+00
         21   -1    0    0  501  502  0.00000000000E+00  0.00000000000E+00  0.58295971807E+00  0.58295971807E+00  0.00000000000E+00 0. -1.
         13   -1    0    0    0    0 -0.00000000000E+00 -0.00000000000E+00 -0.10000000000E+04  0.10000000000E+04  0.00000000000E+00 0.  1.
    9000005    2    1    2  501    0 -0.15148701849E+02 -0.58830096858E+01 -0.18851087335E+03  0.18951397095E+03  0.10728599347E+02 0.  0.
         13    1    3    3    0    0 -0.45835911793E+01 -0.65776780306E+01 -0.11009489878E+03  0.11038642078E+03  0.00000000000E+00 0.  1.
          3    1    3    3  501    0 -0.10565110669E+02  0.69466834477E+00 -0.78415974572E+02  0.79127550169E+02  0.00000000000E+00 0.  1.
         -1    1    1    2    0  502  0.15148701849E+02  0.58830096858E+01 -0.81090616693E+03  0.81106898876E+03  0.00000000000E+00 0. -1.
<mgrwt>
<rscale>  1 0.30000000E+03</rscale>
<asrwt>0</asrwt>
<pdfrwt beam="1">  1       21 0.21198580E-02 0.30000000E+03</pdfrwt>
<pdfrwt beam="2">0</pdfrwt>
<totfact> 0.12054628E+05</totfact>
</mgrwt>
</event>
<event>
 6    1  0.1132867E-002  0.3000000E+03  0.7818608E-02  0.1093470E+00
         21   -1    0    0  501  502  0.00000000000E+00  0.00000000000E+00  0.12493214007E+00  0.12493214007E+00  0.00000000000E+00 0. -1.
         13   -1    0    0    0    0 -0.00000000000E+00 -0.00000000000E+00 -0.10000000000E+04  0.10000000000E+04  0.00000000000E+00 0.  1.
    9000005    2    1    2  501    0  0.76670150149E+01 -0.17220958794E+01 -0.65693883337E+03  0.65709867999E+03  0.12177673435E+02 0.  0.
         13    1    3    3    0    0  0.92857783509E+00 -0.51617677320E+01 -0.13029945152E+03  0.13040495837E+03  0.00000000000E+00 0.  1.
          1    1    3    3  501    0  0.67384371798E+01  0.34396718526E+01 -0.52663938185E+03  0.52669372162E+03  0.00000000000E+00 0.  1.
         -3    1    1    2    0  502 -0.76670150149E+01  0.17220958794E+01 -0.34293623449E+03  0.34302625215E+03  0.00000000000E+00 0. -1.
<mgrwt>
<rscale>  1 0.30000000E+03</rscale>
<asrwt>0</asrwt>
<pdfrwt beam="1">  1       21 0.45429965E-03 0.30000000E+03</pdfrwt>
<pdfrwt beam="2">0</pdfrwt>
<totfact> 0.13911825E+06</totfact>
</mgrwt>
</event>
<event>
 6    1  0.1132867E-002  0.3000000E+03  0.7818608E-02  0.1093470E+00
         21   -1    0    0  501  502  0.00000000000E+00  0.00000000000E+00  0.86805440491E-01  0.86805440491E-01  0.00000000000E+00 0. -1.
         13   -1    0    0    0    0 -0.00000000000E+00 -0.00000000000E+00 -0.10000000000E+04  0.10000000000E+04  0.00000000000E+00 0.  1.
    9000005    2    1    2  501    0  0.84003416495E+01  0.38033737051E+00 -0.54759347681E+03  0.54768893026E+03  0.58170521733E+01 0.  0.
         13    1    3    3    0    0  0.41223388636E+01  0.87198458273E+00 -0.12032184181E+03  0.12039559648E+03  0.00000000000E+00 0.  1.
          1    1    3    3  501    0  0.42780027859E+01 -0.49164721223E+00 -0.42727163500E+03  0.42729333379E+03  0.00000000000E+00 0.  1.
         -3    1    1    2    0  502 -0.84003416495E+01 -0.38033737051E+00 -0.45231971775E+03  0.45239787518E+03  0.00000000000E+00 0. -1.
<mgrwt>
<rscale>  1 0.30000000E+03</rscale>
<asrwt>0</asrwt>
<pdfrwt beam="1">  1       21 0.31565681E-03 0.30000000E+03</pdfrwt>
<pdfrwt beam="2">0</pdfrwt>
<totfact> 0.24374275E+06</totfact>
</mgrwt>
</event>
<event>
 6    1  0.1132867E-002  0.3000000E+03  0.7818608E-02  0.1093470E+00
         21   -1    0    0  501  502  0.00000000000E+00  0.00000000000E+00  0.86102193912E-01  0.86102193912E-01  0.00000000000E+00 0. -1.
         13   -1    0    0    0    0 -0.00000000000E+00 -0.00000000000E+00 -0.10000000000E+04  0.10000000000E+04  0.00000000000E+00 0.  1.
    9000005    2    1    2  501    0  0.82416612948E+01  0.15394394011E+01 -0.32174408068E+03  0.32186446016E+03  0.26800019761E+01 0.  0.
         13    1    3    3    0    0 -0.73978063231E-01  0.31026715967E+00 -0.59703438185E+01  0.59788580662E+01  0.00000000000E+00 0.  1.
          3    1    3    3  501    0  0.83156393580E+01  0.12291722415E+01 -0.31577373686E+03  0.31588560210E+03  0.00000000000E+00 0.  1.
         -1    1    1    2    0  502 -0.82416612948E+01 -0.15394394011E+01 -0.67816981713E+03  0.67822164203E+03  0.00000000000E+00 0. -1.
<mgrwt>
<rscale>  1 0.30000000E+03</rscale>
<asrwt>0</asrwt>
<pdfrwt beam="1">  1       21 0.31309955E-03 0.30000000E+03</pdfrwt>
<pdfrwt beam="2">0</pdfrwt>
<totfact> 0.24680079E+06</totfact>
</mgrwt>
</event>
<event>
 6    1  0.1132867E-002  0.3000000E+03  0.7818608E-02  0.1093470E+00
         21   -1    0    0  501  502  0.00000000000E+00  0.00000000000E+00  0.74681994365E-01  0.74681994365E-01  0.00000000000E+00 0. -1.
         13   -1    0    0    0    0 -0.00000000000E+00 -0.00000000000E+00 -0.10000000000E+04  0.10000000000E+04  0.00000000000E+00 0.  1.
    9000005    2    1    2  501    0  0.34036774223E+01  0.68337205440E+01 -0.50819667234E+03  0.50828677474E+03  0.57708611637E+01 0.  0.
         13    1    3    3    0    0  0.11308494692E+01  0.71410413633E+01 -0.40599062557E+03  0.40605499793E+03  0.00000000000E+00 0.  1.
          1    1    3    3  501    0  0.22728279532E+01 -0.30732081922E+00 -0.10220604676E+03  0.10223177680E+03  0.00000000000E+00 0.  1.
         -3    1    1    2    0  502 -0.34036774223E+01 -0.68337205440E+01 -0.49172864567E+03  0.49178790726E+03  0.00000000000E+00 0. -1.
<mgrwt>
<rscale>  1 0.30000000E+03</rscale>
<asrwt>0</asrwt>
<pdfrwt beam="1">  1       21 0.27157146E-03 0.30000000E+03</pdfrwt>
<pdfrwt beam="2">0</pdfrwt>
<totfact> 0.30682804E+06</totfact>
</mgrwt>
</event>
<event>
 6    1  0.1132867E-002  0.3000000E+03  0.7818608E-02  0.1093470E+00
         21   -1    0    0  501  502  0.00000000000E+00  0.00000000000E+00  0.36330542236E+00  0.36330542236E+00  0.00000000000E+00 0. -1.
         13   -1    0    0    0    0 -0.00000000000E+00 -0.00000000000E+00 -0.10000000000E+04  0.10000000000E+04  0.00000000000E+00 0.  1.
    9000005    2    1    2  501    0 -0.13708568509E+02  0.29922127539E+01 -0.83259035879E+03  0.83272871326E+03  0.57901777157E+01 0.  0.
         13    1    3    3    0    0 -0.61521379153E+01 -0.11897773591E+01 -0.27433628379E+03  0.27440783694E+03  0.00000000000E+00 0.  1.
          3    1    3    3  501    0 -0.75564305937E+01  0.41819901130E+01 -0.55825407499E+03  0.55832087632E+03  0.00000000000E+00 0.  1.
         -1    1    1    2    0  502  0.13708568509E+02 -0.29922127539E+01 -0.16704633579E+03  0.16763459216E+03  0.00000000000E+00 0. -1.
<mgrwt>
<rscale>  1 0.30000000E+03</rscale>
<asrwt>0</asrwt>
<pdfrwt beam="1">  1       21 0.13211134E-02 0.30000000E+03</pdfrwt>
<pdfrwt beam="2">0</pdfrwt>
<totfact> 0.25915056E+05</totfact>
</mgrwt>
</event>
<event>
 6    1  0.1132867E-002  0.3000000E+03  0.7818608E-02  0.1093470E+00
         21   -1    0    0  501  502  0.00000000000E+00  0.00000000000E+00  0.80374452778E-01  0.80374452778E-01  0.00000000000E+00 0. -1.
         13   -1    0    0    0    0 -0.00000000000E+00 -0.00000000000E+00 -0.10000000000E+04  0.10000000000E+04  0.00000000000E+00 0.  1.
    9000005    2    1    2  501    0 -0.73333584959E+01 -0.21661626454E+01 -0.59818427181E+03  0.59827225501E+03  0.68408820304E+01 0.  0.
         13    1    3    3    0    0 -0.20356498429E+01  0.19542194668E+01 -0.29606202370E+03  0.29607547133E+03  0.00000000000E+00 0.  1.
          3    1    3    3  501    0 -0.52977086530E+01 -0.41203821122E+01 -0.30212224810E+03  0.30219678368E+03  0.00000000000E+00 0.  1.
         -3    1    1    2    0  502  0.73333584959E+01  0.21661626454E+01 -0.40173535374E+03  0.40180811945E+03  0.00000000000E+00 0. -1.
<mgrwt>
<rscale>  1 0.30000000E+03</rscale>
<asrwt>0</asrwt>
<pdfrwt beam="1">  1       21 0.29227135E-03 0.30000000E+03</pdfrwt>
<pdfrwt beam="2">0</pdfrwt>
<totfact> 0.27424572E+06</totfact>
</mgrwt>
</event>
<event>
 6    1  0.1132867E-002  0.3000000E+03  0.7818608E-02  0.1093470E+00
         21   -1    0    0  501  502  0.00000000000E+00  0.00000000000E+00  0.21021262185E+00  0.21021262185E+00  0.00000000000E+00 0. -1.
         13   -1    0    0    0    0 -0.00000000000E+00 -0.00000000000E+00 -0.10000000000E+04  0.10000000000E+04  0.00000000000E+00 0.  1.
    9000005    2    1    2  501    0  0.12975275630E+02  0.22438564433E+01 -0.56202226152E+03  0.56224468959E+03  0.87564751835E+01 0.  0.
         13    1    3    3    0    0  0.44560617927E+01  0.36639100766E+01 -0.12055487912E+03  0.12069283161E+03  0.00000000000E+00 0.  1.
          3    1    3    3  501    0  0.85192138373E+01 -0.14200536333E+01 -0.44146738240E+03  0.44155185797E+03  0.00000000000E+00 0.  1.
         -3    1    1    2    0  502 -0.12975275630E+02 -0.22438564433E+01 -0.43776752586E+03  0.43796552304E+03  0.00000000000E+00 0. -1.
<mgrwt>
<rscale>  1 0.30000000E+03</rscale>
<asrwt>0</asrwt>
<pdfrwt beam="1">  1       21 0.76441115E-03 0.30000000E+03</pdfrwt>
<pdfrwt beam="2">0</pdfrwt>
<totfact> 0.61776491E+05</totfact>
</mgrwt>
</event>
<event>
 6    1  0.1132867E-002  0.3000000E+03  0.7818608E-02  0.1093470E+00
         21   -1    0    0  501  502  0.00000000000E+00  0.00000000000E+00  0.17051321390E+00  0.17051321390E+00  0.00000000000E+00 0. -1.
         13   -1    0    0    0    0 -0.00000000000E+00 -0.00000000000E+00 -0.10000000000E+04  0.10000000000E+04  0.00000000000E+00 0.  1.
    9000005    2    1    2  501    0 -0.77414784455E+01  0.12119849979E+01 -0.71615040808E+03  0.71638323532E+03  0.16496468263E+02 0.  0.
         13    1    3    3    0    0 -0.60680526383E+01  0.86903530568E+01 -0.41782315871E+03  0.41795757614E+03  0.00000000000E+00 0.  1.
          3    1    3    3  501    0 -0.16734258071E+01 -0.74783680589E+01 -0.29832724937E+03  0.29842565918E+03  0.00000000000E+00 0.  1.
         -1    1    1    2    0  502  0.77414784455E+01 -0.12119849979E+01 -0.28367907871E+03  0.28378727789E+03  0.00000000000E+00 0. -1.
<mgrwt>
<rscale>  1 0.30000000E+03</rscale>
<asrwt>0</asrwt>
<pdfrwt beam="1">  1       21 0.62004936E-03 0.30000000E+03</pdfrwt>
<pdfrwt beam="2">0</pdfrwt>
<totfact> 0.85765252E+05</totfact>
</mgrwt>
</event>
<event>
 6    1  0.1132867E-002  0.3000000E+03  0.7818608E-02  0.1093470E+00
         21   -1    0    0  501  502  0.00000000000E+00  0.00000000000E+00  0.18777887592E+00  0.18777887592E+00  0.00000000000E+00 0. -1.
         13   -1    0    0    0    0 -0.00000000000E+00 -0.00000000000E+00 -0.10000000000E+04  0.10000000000E+04  0.00000000000E+00 0.  1.
    9000005    2    1    2  501    0  0.12270369217E+02  0.46683828758E+01 -0.56494459860E+03  0.56512203111E+03  0.53061096049E+01 0.  0.
         13    1    3    3    0    0  0.38114743481E+01  0.33566768101E+01 -0.28922043622E+03  0.28926502614E+03  0.00000000000E+00 0.  1.
          1    1    3    3  501    0  0.84588948692E+01  0.13117060657E+01 -0.27572416237E+03  0.27585700497E+03  0.00000000000E+00 0.  1.
         -1    1    1    2    0  502 -0.12270369217E+02 -0.46683828758E+01 -0.43486762253E+03  0.43506574777E+03  0.00000000000E+00 0. -1.
<mgrwt>
<rscale>  1 0.30000000E+03</rscale>
<asrwt>0</asrwt>
<pdfrwt beam="1">  1       21 0.68283372E-03 0.30000000E+03</pdfrwt>
<pdfrwt beam="2">0</pdfrwt>
<totfact> 0.73747852E+05</totfact>
</mgrwt>
</event>
<event>
 6    1  0.1132867E-002  0.3000000E+03  0.7818608E-02  0.1093470E+00
         21   -1    0    0  501  502  0.00000000000E+00  0.00000000000E+00  0.15867114201E+01  0.15867114201E+01  0.00000000000E+00 0. -1.
         13   -1    0    0    0    0 -0.00000000000E+00 -0.00000000000E+00 -0.10000000000E+04  0.10000000000E+04  0.00000000000E+00 0.  1.
    9000005    2    1    2  501    0  0.20803242924E+02  0.19408534261E+02 -0.77768450003E+03  0.77903185478E+03  0.35888480889E+02 0.  0.
         13    1    3    3    0    0  0.70806781036E+01  0.79041261720E+01 -0.49386146486E+02  0.50513391073E+02  0.00000000000E+00 0.  1.
          3    1    3    3  501    0  0.13722564820E+02  0.11504408089E+02 -0.72829835354E+03  0.72851846371E+03  0.00000000000E+00 0.  1.
         -1    1    1    2    0  502 -0.20803242924E+02 -0.19408534261E+02 -0.22072878855E+03  0.22255485664E+03  0.00000000000E+00 0. -1.
<mgrwt>
<rscale>  1 0.30000000E+03</rscale>
<asrwt>0</asrwt>
<pdfrwt beam="1">  1       21 0.57698719E-02 0.30000000E+03</pdfrwt>
<pdfrwt beam="2">0</pdfrwt>
<totfact> 0.22540791E+04</totfact>
</mgrwt>
</event>
<event>
 6    1  0.1132867E-002  0.3000000E+03  0.7818608E-02  0.1093470E+00
         21   -1    0    0  501  502  0.00000000000E+00  0.00000000000E+00  0.35177234277E+00  0.35177234277E+00  0.00000000000E+00 0. -1.
         13   -1    0    0    0    0 -0.00000000000E+00 -0.00000000000E+00 -0.10000000000E+04  0.10000000000E+04  0.00000000000E+00 0.  1.
    9000005    2    1    2  501    0  0.14277566424E+02 -0.57726886254E+01 -0.76833672894E+03  0.76852817070E+03  0.75529658932E+01 0.  0.
         13    1    3    3    0    0  0.13526117900E+02 -0.68493516877E+01 -0.61892406044E+03  0.61910973347E+03  0.00000000000E+00 0.  1.
          1    1    3    3  501    0  0.75144852400E+00  0.10766630623E+01 -0.14941266850E+03  0.14941843723E+03  0.00000000000E+00 0.  1.
         -3    1    1    2    0  502 -0.14277566424E+02  0.57726886254E+01 -0.23131149872E+03  0.23182360164E+03  0.00000000000E+00 0. -1.
<mgrwt>
<rscale>  1 0.30000000E+03</rscale>
<asrwt>0</asrwt>
<pdfrwt beam="1">  1       21 0.12791749E-02 0.30000000E+03</pdfrwt>
<pdfrwt beam="2">0</pdfrwt>
<totfact> 0.27290641E+05</totfact>
</mgrwt>
</event>
<event>
 6    1  0.1132867E-002  0.3000000E+03  0.7818608E-02  0.1093470E+00
         21   -1    0    0  501  502  0.00000000000E+00  0.00000000000E+00  0.19352060410E+00  0.19352060410E+00  0.00000000000E+00 0. -1.
         13   -1    0    0    0    0 -0.00000000000E+00 -0.00000000000E+00 -0.10000000000E+04  0.10000000000E+04  0.00000000000E+00 0.  1.
    9000005    2    1    2  501    0 -0.12145677833E+02  0.15269846075E+01 -0.64879473555E+03  0.64896838840E+03  0.86897121274E+01 0.  0.
         13    1    3    3    0    0 -0.17025709697E+01 -0.23652209652E+01 -0.62689555666E+02  0.62757257809E+02  0.00000000000E+00 0.  1.
          1    1    3    3  501    0 -0.10443106863E+02  0.38922055727E+01 -0.58610517989E+03  0.58621113059E+03  0.00000000000E+00 0.  1.
         -3    1    1    2    0  502  0.12145677833E+02 -0.15269846075E+01 -0.35101174384E+03  0.35122513220E+03  0.00000000000E+00 0. -1.
<mgrwt>
<rscale>  1 0.30000000E+03</rscale>
<asrwt>0</asrwt>
<pdfrwt beam="1">  1       21 0.70371277E-03 0.30000000E+03</pdfrwt>
<pdfrwt beam="2">0</pdfrwt>
<totfact> 0.70347170E+05</totfact>
</mgrwt>
</event>
<event>
 6    1  0.1132867E-002  0.3000000E+03  0.7818608E-02  0.1093470E+00
         21   -1    0    0  501  502  0.00000000000E+00  0.00000000000E+00  0.33223077347E+00  0.33223077347E+00  0.00000000000E+00 0. -1.
         13   -1    0    0    0    0 -0.00000000000E+00 -0.00000000000E+00 -0.10000000000E+04  0.10000000000E+04  0.00000000000E+00 0.  1.
    9000005    2    1    2  501    0  0.11598066420E+02  0.60140068770E+01 -0.79582424218E+03  0.79607046994E+03  0.14875659061E+02 0.  0.
         13    1    3    3    0    0  0.10722715159E+02  0.16549330972E+01 -0.73647847120E+03  0.73655838463E+03  0.00000000000E+00 0.  1.
          3    1    3    3  501    0  0.87535126170E+00  0.43590737798E+01 -0.59345770986E+02  0.59512085310E+02  0.00000000000E+00 0.  1.
         -1    1    1    2    0  502 -0.11598066420E+02 -0.60140068770E+01 -0.20384352704E+03  0.20426176084E+03  0.00000000000E+00 0. -1.
<mgrwt>
<rscale>  1 0.30000000E+03</rscale>
<asrwt>0</asrwt>
<pdfrwt beam="1">  1       21 0.12081145E-02 0.30000000E+03</pdfrwt>
<pdfrwt beam="2">0</pdfrwt>
<totfact> 0.29903188E+05</totfact>
</mgrwt>
</event>
<event>
 6    1  0.1132867E-002  0.3000000E+03  0.7818608E-02  0.1093470E+00
         21   -1    0    0  501  502  0.00000000000E+00  0.00000000000E+00  0.61830501214E+00  0.61830501214E+00  0.00000000000E+00 0.  1.
         13   -1    0    0    0    0 -0.00000000000E+00 -0.00000000000E+00 -0.10000000000E+04  0.10000000000E+04  0.00000000000E+00 0.  1.
    9000005    2    1    2  501    0  0.11931810341E+02 -0.68366493171E+01 -0.88417726815E+03  0.88459603200E+03  0.23485962715E+02 0.  0.
         13    1    3    3    0    0  0.25466945193E+01  0.75753576150E+01 -0.46123003359E+03  0.46129926900E+03  0.00000000000E+00 0.  1.
          3    1    3    3  501    0  0.93851158219E+01 -0.14412006932E+02 -0.42294723457E+03  0.42329676301E+03  0.00000000000E+00 0.  1.
         -3    1    1    2    0  502 -0.11931810341E+02  0.68366493171E+01 -0.11520442683E+03  0.11602227301E+03  0.00000000000E+00 0. -1.
<mgrwt>
<rscale>  1 0.30000000E+03</rscale>
<asrwt>0</asrwt>
<pdfrwt beam="1">  1       21 0.22483866E-02 0.30000000E+03</pdfrwt>
<pdfrwt beam="2">0</pdfrwt>
<totfact> 0.10946890E+05</totfact>
</mgrwt>
</event>
<event>
 6    1  0.1132867E-002  0.3000000E+03  0.7818608E-02  0.1093470E+00
         21   -1    0    0  501  502  0.00000000000E+00  0.00000000000E+00  0.10345041920E+01  0.10345041920E+01  0.00000000000E+00 0. -1.
         13   -1    0    0    0    0 -0.00000000000E+00 -0.00000000000E+00 -0.10000000000E+04  0.10000000000E+04  0.00000000000E+00 0.  1.
    9000005    2    1    2  501    0  0.12599058910E+02 -0.16628274646E+02 -0.84158927117E+03  0.84228151403E+03  0.27026130505E+02 0.  0.
         13    1    3    3    0    0 -0.24524123057E+01 -0.23156210309E+00 -0.74767898735E+01  0.78721238517E+01  0.00000000000E+00 0.  1.
          1    1    3    3  501    0  0.15051471215E+02 -0.16396712543E+02 -0.83411248129E+03  0.83440939018E+03  0.00000000000E+00 0.  1.
         -3    1    1    2    0  502 -0.12599058910E+02  0.16628274646E+02 -0.15737622464E+03  0.15875299016E+03  0.00000000000E+00 0. -1.
<mgrwt>
<rscale>  1 0.30000000E+03</rscale>
<asrwt>0</asrwt>
<pdfrwt beam="1">  1       21 0.37618414E-02 0.30000000E+03</pdfrwt>
<pdfrwt beam="2">0</pdfrwt>
<totfact> 0.46619786E+04</totfact>
</mgrwt>
</event>
<event>
 6    1  0.1132867E-002  0.3000000E+03  0.7818608E-02  0.1093470E+00
         21   -1    0    0  501  502  0.00000000000E+00  0.00000000000E+00  0.84835084262E+00  0.84835084262E+00  0.00000000000E+00 0. -1.
         13   -1    0    0    0    0 -0.00000000000E+00 -0.00000000000E+00 -0.10000000000E+04  0.10000000000E+04  0.00000000000E+00 0.  1.
    9000005    2    1    2  501    0  0.14017575241E+01  0.24116528989E+02 -0.77186586523E+03  0.77228238779E+03  0.77201473652E+01 0.  0.
         13    1    3    3    0    0  0.13541637392E+01  0.30751948487E+00 -0.67379509358E+02  0.67393817290E+02  0.00000000000E+00 0.  1.
          3    1    3    3  501    0  0.47593784949E-01  0.23809009504E+02 -0.70448635588E+03  0.70488857050E+03  0.00000000000E+00 0.  1.
         -3    1    1    2    0  502 -0.14017575241E+01 -0.24116528989E+02 -0.22728578392E+03  0.22856596306E+03  0.00000000000E+00 0. -1.
<mgrwt>
<rscale>  1 0.30000000E+03</rscale>
<asrwt>0</asrwt>
<pdfrwt beam="1">  1       21 0.30849187E-02 0.30000000E+03</pdfrwt>
<pdfrwt beam="2">0</pdfrwt>
<totfact> 0.64947633E+04</totfact>
</mgrwt>
</event>
<event>
 6    1  0.1132867E-002  0.3000000E+03  0.7818608E-02  0.1093470E+00
         21   -1    0    0  501  502  0.00000000000E+00  0.00000000000E+00  0.32381418497E+00  0.32381418497E+00  0.00000000000E+00 0. -1.
         13   -1    0    0    0    0 -0.00000000000E+00 -0.00000000000E+00 -0.10000000000E+04  0.10000000000E+04  0.00000000000E+00 0.  1.
    9000005    2    1    2  501    0  0.29898192810E+00  0.11866775909E+02 -0.87129801847E+03  0.87139800757E+03  0.57741531956E+01 0.  0.
         13    1    3    3    0    0  0.40931033580E+00  0.22024520916E+01 -0.37027945305E+03  0.37028622939E+03  0.00000000000E+00 0.  1.
          3    1    3    3  501    0 -0.11032840770E+00  0.96643238170E+01 -0.50101856543E+03  0.50111177818E+03  0.00000000000E+00 0.  1.
         -3    1    1    2    0  502 -0.29898192810E+00 -0.11866775909E+02 -0.12837816734E+03  0.12892580661E+03  0.00000000000E+00 0. -1.
<mgrwt>
<rscale>  1 0.30000000E+03</rscale>
<asrwt>0</asrwt>
<pdfrwt beam="1">  1       21 0.11775086E-02 0.30000000E+03</pdfrwt>
<pdfrwt beam="2">0</pdfrwt>
<totfact> 0.31153763E+05</totfact>
</mgrwt>
</event>
<event>
 6    1  0.1132867E-002  0.3000000E+03  0.7818608E-02  0.1093470E+00
         21   -1    0    0  501  502  0.00000000000E+00  0.00000000000E+00  0.30040332082E+00  0.30040332082E+00  0.00000000000E+00 0. -1.
         13   -1    0    0    0    0 -0.00000000000E+00 -0.00000000000E+00 -0.10000000000E+04  0.10000000000E+04  0.00000000000E+00 0.  1.
    9000005    2    1    2  501    0  0.10675818359E+02 -0.11011247387E+02 -0.60389456116E+03  0.60419833717E+03  0.11479066760E+02 0.  0.
         13    1    3    3    0    0  0.12493182575E+02 -0.10885003792E+02 -0.47116745989E+03  0.47145873433E+03  0.00000000000E+00 0.  1.
          1    1    3    3  501    0 -0.18173642161E+01 -0.12624359493E+00 -0.13272710127E+03  0.13273960284E+03  0.00000000000E+00 0.  1.
         -1    1    1    2    0  502 -0.10675818359E+02  0.11011247387E+02 -0.39580503552E+03  0.39610206615E+03  0.00000000000E+00 0. -1.
<mgrwt>
<rscale>  1 0.30000000E+03</rscale>
<asrwt>0</asrwt>
<pdfrwt beam="1">  1       21 0.10923780E-02 0.30000000E+03</pdfrwt>
<pdfrwt beam="2">0</pdfrwt>
<totfact> 0.35112100E+05</totfact>
</mgrwt>
</event>
<event>
 6    1  0.1132867E-002  0.3000000E+03  0.7818608E-02  0.1093470E+00
         21   -1    0    0  501  502  0.00000000000E+00  0.00000000000E+00  0.22301285045E+00  0.22301285045E+00  0.00000000000E+00 0. -1.
         13   -1    0    0    0    0 -0.00000000000E+00 -0.00000000000E+00 -0.10000000000E+04  0.10000000000E+04  0.00000000000E+00 0.  1.
    9000005    2    1    2  501    0 -0.12555374198E+02 -0.28411233165E+01 -0.55905334365E+03  0.55931141248E+03  0.11086283400E+02 0.  0.
         13    1    3    3    0    0 -0.71918030414E+00  0.30300110738E+01 -0.18202499326E+03  0.18205163102E+03  0.00000000000E+00 0.  1.
          3    1    3    3  501    0 -0.11836193894E+02 -0.58711343903E+01 -0.37702835039E+03  0.37725978145E+03  0.00000000000E+00 0.  1.
         -3    1    1    2    0  502  0.12555374198E+02  0.28411233165E+01 -0.44072364350E+03  0.44091160037E+03  0.00000000000E+00 0. -1.
<mgrwt>
<rscale>  1 0.30000000E+03</rscale>
<asrwt>0</asrwt>
<pdfrwt beam="1">  1       21 0.81095753E-03 0.30000000E+03</pdfrwt>
<pdfrwt beam="2">0</pdfrwt>
<totfact> 0.56284967E+05</totfact>
</mgrwt>
</event>
<event>
 6    1  0.1132867E-002  0.3000000E+03  0.7818608E-02  0.1093470E+00
         21   -1    0    0  501  502  0.00000000000E+00  0.00000000000E+00  0.35952358993E+00  0.35952358993E+00  0.00000000000E+00 0. -1.
         13   -1    0    0    0    0 -0.00000000000E+00 -0.00000000000E+00 -0.10000000000E+04  0.10000000000E+04  0.00000000000E+00 0.  1.
    9000005    2    1    2  501    0  0.16519436813E+02  0.61046173097E+01 -0.63770085088E+03  0.63799168469E+03  0.78010490739E+01 0.  0.
         13    1    3    3    0    0  0.24158516267E+01  0.15068578733E+01 -0.37652646453E+02  0.37760147572E+02  0.00000000000E+00 0.  1.
          1    1    3    3  501    0  0.14103585186E+02  0.45977594364E+01 -0.60004820443E+03  0.60023153711E+03  0.00000000000E+00 0.  1.
         -3    1    1    2    0  502 -0.16519436813E+02 -0.61046173097E+01 -0.36193962553E+03  0.36236783890E+03  0.00000000000E+00 0. -1.
<mgrwt>
<rscale>  1 0.30000000E+03</rscale>
<asrwt>0</asrwt>
<pdfrwt beam="1">  1       21 0.13073613E-02 0.30000000E+03</pdfrwt>
<pdfrwt beam="2">0</pdfrwt>
<totfact> 0.26353757E+05</totfact>
</mgrwt>
</event>
<event>
 6    1  0.1132867E-002  0.3000000E+03  0.7818608E-02  0.1093470E+00
         21   -1    0    0  501  502  0.00000000000E+00  0.00000000000E+00  0.47219234169E+00  0.47219234169E+00  0.00000000000E+00 0. -1.
         13   -1    0    0    0    0 -0.00000000000E+00 -0.00000000000E+00 -0.10000000000E+04  0.10000000000E+04  0.00000000000E+00 0.  1.
    9000005    2    1    2  501    0  0.13813047265E+02 -0.12334721951E+02 -0.74148579721E+03  0.74176652020E+03  0.85695618343E+01 0.  0.
         13    1    3    3    0    0  0.62676470129E+01 -0.39438455066E+00 -0.22517371804E+03  0.22526127548E+03  0.00000000000E+00 0.  1.
          3    1    3    3  501    0  0.75454002520E+01 -0.11940337401E+02 -0.51631207917E+03  0.51650524472E+03  0.00000000000E+00 0.  1.
         -1    1    1    2    0  502 -0.13813047265E+02  0.12334721951E+02 -0.25804201045E+03  0.25870567214E+03  0.00000000000E+00 0. -1.
<mgrwt>
<rscale>  1 0.30000000E+03</rscale>
<asrwt>0</asrwt>
<pdfrwt beam="1">  1       21 0.17170667E-02 0.30000000E+03</pdfrwt>
<pdfrwt beam="2">0</pdfrwt>
<totfact> 0.16985025E+05</totfact>
</mgrwt>
</event>
<event>
 6    1  0.1132867E-002  0.3000000E+03  0.7818608E-02  0.1093470E+00
         21   -1    0    0  501  502  0.00000000000E+00  0.00000000000E+00  0.97103346984E-01  0.97103346984E-01  0.00000000000E+00 0. -1.
         13   -1    0    0    0    0 -0.00000000000E+00 -0.00000000000E+00 -0.10000000000E+04  0.10000000000E+04  0.00000000000E+00 0.  1.
    9000005    2    1    2  501    0  0.62853863872E+01  0.54221690423E+01 -0.62367846291E+03  0.62378110509E+03  0.76899915427E+01 0.  0.
         13    1    3    3    0    0  0.64439874720E+01  0.56696333911E+01 -0.62270700889E+03  0.62276615888E+03  0.00000000000E+00 0.  1.
          3    1    3    3  501    0 -0.15860108485E+00 -0.24746434877E+00 -0.97145401232E+00  0.10149462085E+01  0.00000000000E+00 0.  1.
         -3    1    1    2    0  502 -0.62853863872E+01 -0.54221690423E+01 -0.37622443375E+03  0.37631599826E+03  0.00000000000E+00 0. -1.
<mgrwt>
<rscale>  1 0.30000000E+03</rscale>
<asrwt>0</asrwt>
<pdfrwt beam="1">  1       21 0.35310382E-03 0.30000000E+03</pdfrwt>
<pdfrwt beam="2">0</pdfrwt>
<totfact> 0.20521555E+06</totfact>
</mgrwt>
</event>
<event>
 6    1  0.1132867E-002  0.3000000E+03  0.7818608E-02  0.1093470E+00
         21   -1    0    0  501  502  0.00000000000E+00  0.00000000000E+00  0.17845624111E+00  0.17845624111E+00  0.00000000000E+00 0. -1.
         13   -1    0    0    0    0 -0.00000000000E+00 -0.00000000000E+00 -0.10000000000E+04  0.10000000000E+04  0.00000000000E+00 0.  1.
    9000005    2    1    2  501    0  0.64163805973E+01  0.98334077679E+01 -0.48410337054E+03  0.48432663639E+03  0.88516386678E+01 0.  0.
         13    1    3    3    0    0  0.30257078662E+01  0.87940454628E+01 -0.21636399756E+03  0.21656377717E+03  0.00000000000E+00 0.  1.
          3    1    3    3  501    0  0.33906727311E+01  0.10393623051E+01 -0.26773937298E+03  0.26776285923E+03  0.00000000000E+00 0.  1.
         -3    1    1    2    0  502 -0.64163805973E+01 -0.98334077679E+01 -0.51571817322E+03  0.51585181985E+03  0.00000000000E+00 0. -1.
<mgrwt>
<rscale>  1 0.30000000E+03</rscale>
<asrwt>0</asrwt>
<pdfrwt beam="1">  1       21 0.64893315E-03 0.30000000E+03</pdfrwt>
<pdfrwt beam="2">0</pdfrwt>
<totfact> 0.79869108E+05</totfact>
</mgrwt>
</event>
<event>
 6    1  0.1132867E-002  0.3000000E+03  0.7818608E-02  0.1093470E+00
         21   -1    0    0  501  502  0.00000000000E+00  0.00000000000E+00  0.36025236690E+00  0.36025236690E+00  0.00000000000E+00 0. -1.
         13   -1    0    0    0    0 -0.00000000000E+00 -0.00000000000E+00 -0.10000000000E+04  0.10000000000E+04  0.00000000000E+00 0.  1.
    9000005    2    1    2  501    0  0.70387418811E+01 -0.60975926596E+01 -0.90337442649E+03  0.90364553488E+03  0.20079187023E+02 0.  0.
         13    1    3    3    0    0  0.95711135678E+01 -0.36349294627E+00 -0.81194007046E+03  0.81199656179E+03  0.00000000000E+00 0.  1.
          3    1    3    3  501    0 -0.25323716868E+01 -0.57340997133E+01 -0.91434356028E+02  0.91648973088E+02  0.00000000000E+00 0.  1.
         -1    1    1    2    0  502 -0.70387418811E+01  0.60975926596E+01 -0.96265321143E+02  0.96714717485E+02  0.00000000000E+00 0. -1.
<mgrwt>
<rscale>  1 0.30000000E+03</rscale>
<asrwt>0</asrwt>
<pdfrwt beam="1">  1       21 0.13100114E-02 0.30000000E+03</pdfrwt>
<pdfrwt beam="2">0</pdfrwt>
<totfact> 0.26268305E+05</totfact>
</mgrwt>
</event>
<event>
 6    1  0.1132867E-002  0.3000000E+03  0.7818608E-02  0.1093470E+00
         21   -1    0    0  501  502  0.00000000000E+00  0.00000000000E+00  0.11161881025E+00  0.11161881025E+00  0.00000000000E+00 0. -1.
         13   -1    0    0    0    0 -0.00000000000E+00 -0.00000000000E+00 -0.10000000000E+04  0.10000000000E+04  0.00000000000E+00 0.  1.
    9000005    2    1    2  501    0 -0.78574917229E+01  0.54743513369E+01 -0.66826689047E+03  0.66835188375E+03  0.46792005366E+01 0.  0.
         13    1    3    3    0    0 -0.28793764066E+01  0.13582194444E+01 -0.10576032048E+03  0.10580822726E+03  0.00000000000E+00 0.  1.
          1    1    3    3  501    0 -0.49781153163E+01  0.41161318925E+01 -0.56250656999E+03  0.56254365649E+03  0.00000000000E+00 0.  1.
         -1    1    1    2    0  502  0.78574917229E+01 -0.54743513369E+01 -0.33162149072E+03  0.33175973506E+03  0.00000000000E+00 0. -1.
<mgrwt>
<rscale>  1 0.30000000E+03</rscale>
<asrwt>0</asrwt>
<pdfrwt beam="1">  1       21 0.40588744E-03 0.30000000E+03</pdfrwt>
<pdfrwt beam="2">0</pdfrwt>
<totfact> 0.16557756E+06</totfact>
</mgrwt>
</event>
<event>
 6    1  0.1132867E-002  0.3000000E+03  0.7818608E-02  0.1093470E+00
         21   -1    0    0  501  502  0.00000000000E+00  0.00000000000E+00  0.12053297208E+00  0.12053297208E+00  0.00000000000E+00 0. -1.
         13   -1    0    0    0    0 -0.00000000000E+00 -0.00000000000E+00 -0.10000000000E+04  0.10000000000E+04  0.00000000000E+00 0.  1.
    9000005    2    1    2  501    0 -0.70483543379E+01 -0.28664991820E+01 -0.70090510204E+03  0.70104935911E+03  0.12014396522E+02 0.  0.
         13    1    3    3    0    0 -0.41427129586E+01 -0.57142513189E+01 -0.62151815694E+03  0.62155823069E+03  0.00000000000E+00 0.  1.
          1    1    3    3  501    0 -0.29056413793E+01  0.28477521369E+01 -0.79386945098E+02  0.79491128411E+02  0.00000000000E+00 0.  1.
         -1    1    1    2    0  502  0.70483543379E+01  0.28664991820E+01 -0.29897436499E+03  0.29907117387E+03  0.00000000000E+00 0. -1.
<mgrwt>
<rscale>  1 0.30000000E+03</rscale>
<asrwt>0</asrwt>
<pdfrwt beam="1">  1       21 0.43830264E-03 0.30000000E+03</pdfrwt>
<pdfrwt beam="2">0</pdfrwt>
<totfact> 0.14705007E+06</totfact>
</mgrwt>
</event>
<event>
 6    1  0.1132867E-002  0.3000000E+03  0.7818608E-02  0.1093470E+00
         21   -1    0    0  501  502  0.00000000000E+00  0.00000000000E+00  0.26075204088E+00  0.26075204088E+00  0.00000000000E+00 0. -1.
         13   -1    0    0    0    0 -0.00000000000E+00 -0.00000000000E+00 -0.10000000000E+04  0.10000000000E+04  0.00000000000E+00 0.  1.
    9000005    2    1    2  501    0 -0.95818826275E+01  0.97167823271E+01 -0.74902522953E+03  0.74917561236E+03  0.62510274115E+01 0.  0.
         13    1    3    3    0    0 -0.50085308850E+01  0.76242831925E+01 -0.59093150964E+03  0.59100191553E+03  0.00000000000E+00 0.  1.
          3    1    3    3  501    0 -0.45733517425E+01  0.20924991346E+01 -0.15809371989E+03  0.15817369682E+03  0.00000000000E+00 0.  1.
         -1    1    1    2    0  502  0.95818826275E+01 -0.97167823271E+01 -0.25071401843E+03  0.25108513968E+03  0.00000000000E+00 0. -1.
<mgrwt>
<rscale>  1 0.30000000E+03</rscale>
<asrwt>0</asrwt>
<pdfrwt beam="1">  1       21 0.94819124E-03 0.30000000E+03</pdfrwt>
<pdfrwt beam="2">0</pdfrwt>
<totfact> 0.43966106E+05</totfact>
</mgrwt>
</event>
<event>
 6    1  0.1132867E-002  0.3000000E+03  0.7818608E-02  0.1093470E+00
         21   -1    0    0  501  502  0.00000000000E+00  0.00000000000E+00  0.40824414879E+00  0.40824414879E+00  0.00000000000E+00 0. -1.
         13   -1    0    0    0    0 -0.00000000000E+00 -0.00000000000E+00 -0.10000000000E+04  0.10000000000E+04  0.00000000000E+00 0.  1.
    9000005    2    1    2  501    0 -0.15395175930E+01 -0.14987686471E+02 -0.82598423245E+03  0.82614817115E+03  0.66217503457E+01 0.  0.
         13    1    3    3    0    0 -0.24943645471E+01 -0.38782286879E+01 -0.36489717812E+03  0.36492631190E+03  0.00000000000E+00 0.  1.
          1    1    3    3  501    0  0.95484695415E+00 -0.11109457783E+02 -0.46108705433E+03  0.46122185926E+03  0.00000000000E+00 0.  1.
         -3    1    1    2    0  502  0.15395175930E+01  0.14987686471E+02 -0.17360752340E+03  0.17426007299E+03  0.00000000000E+00 0. -1.
<mgrwt>
<rscale>  1 0.30000000E+03</rscale>
<asrwt>0</asrwt>
<pdfrwt beam="1">  1       21 0.14845273E-02 0.30000000E+03</pdfrwt>
<pdfrwt beam="2">0</pdfrwt>
<totfact> 0.21486084E+05</totfact>
</mgrwt>
</event>
<event>
 6    1  0.1132867E-002  0.3000000E+03  0.7818608E-02  0.1093470E+00
         21   -1    0    0  501  502  0.00000000000E+00  0.00000000000E+00  0.29816039638E+00  0.29816039638E+00  0.00000000000E+00 0. -1.
         13   -1    0    0    0    0 -0.00000000000E+00 -0.00000000000E+00 -0.10000000000E+04  0.10000000000E+04  0.00000000000E+00 0.  1.
    9000005    2    1    2  501    0  0.13881693394E+01 -0.11151122474E+02 -0.53366192552E+03  0.53412278989E+03  0.19126666854E+02 0.  0.
         13    1    3    3    0    0 -0.15029432309E+01 -0.91275030218E+01 -0.95567458238E+02  0.96014109504E+02  0.00000000000E+00 0.  1.
          3    1    3    3  501    0  0.28911125703E+01 -0.20236194518E+01 -0.43809446728E+03  0.43810868039E+03  0.00000000000E+00 0.  1.
         -3    1    1    2    0  502 -0.13881693394E+01  0.11151122474E+02 -0.46603991408E+03  0.46617537050E+03  0.00000000000E+00 0. -1.
<mgrwt>
<rscale>  1 0.30000000E+03</rscale>
<asrwt>0</asrwt>
<pdfrwt beam="1">  1       21 0.10842219E-02 0.30000000E+03</pdfrwt>
<pdfrwt beam="2">0</pdfrwt>
<totfact> 0.35533532E+05</totfact>
</mgrwt>
</event>
<event>
 6    1  0.1132867E-002  0.3000000E+03  0.7818608E-02  0.1093470E+00
         21   -1    0    0  501  502  0.00000000000E+00  0.00000000000E+00  0.20278276956E+00  0.20278276956E+00  0.00000000000E+00 0. -1.
         13   -1    0    0    0    0 -0.00000000000E+00 -0.00000000000E+00 -0.10000000000E+04  0.10000000000E+04  0.00000000000E+00 0.  1.
    9000005    2    1    2  501    0  0.11348022319E+02  0.13786149740E+01 -0.74006968666E+03  0.74022380607E+03  0.98723740390E+01 0.  0.
         13    1    3    3    0    0  0.87198616842E+01  0.52254933001E+01 -0.43642608471E+03  0.43654446416E+03  0.00000000000E+00 0.  1.
          1    1    3    3  501    0  0.26281606346E+01 -0.38468783261E+01 -0.30364360195E+03  0.30367934192E+03  0.00000000000E+00 0.  1.
         -3    1    1    2    0  502 -0.11348022319E+02 -0.13786149740E+01 -0.25972753057E+03  0.25997897670E+03  0.00000000000E+00 0. -1.
<mgrwt>
<rscale>  1 0.30000000E+03</rscale>
<asrwt>0</asrwt>
<pdfrwt beam="1">  1       21 0.73739344E-03 0.30000000E+03</pdfrwt>
<pdfrwt beam="2">0</pdfrwt>
<totfact> 0.65370890E+05</totfact>
</mgrwt>
</event>
<event>
 6    1  0.1132867E-002  0.3000000E+03  0.7818608E-02  0.1093470E+00
         21   -1    0    0  501  502  0.00000000000E+00  0.00000000000E+00  0.51694756616E+00  0.51694756616E+00  0.00000000000E+00 0. -1.
         13   -1    0    0    0    0 -0.00000000000E+00 -0.00000000000E+00 -0.10000000000E+04  0.10000000000E+04  0.00000000000E+00 0.  1.
    9000005    2    1    2  501    0  0.48675487917E+00 -0.99998706159E+01 -0.94776024531E+03  0.94783409343E+03  0.63048984820E+01 0.  0.
         13    1    3    3    0    0  0.32847143513E+01 -0.54290125415E+01 -0.44394502222E+03  0.44399036732E+03  0.00000000000E+00 0.  1.
          3    1    3    3  501    0 -0.27979594721E+01 -0.45708580744E+01 -0.50381522309E+03  0.50384372611E+03  0.00000000000E+00 0.  1.
         -3    1    1    2    0  502 -0.48675487917E+00  0.99998706159E+01 -0.51722807126E+02  0.52682854133E+02  0.00000000000E+00 0. -1.
<mgrwt>
<rscale>  1 0.30000000E+03</rscale>
<asrwt>0</asrwt>
<pdfrwt beam="1">  1       21 0.18798133E-02 0.30000000E+03</pdfrwt>
<pdfrwt beam="2">0</pdfrwt>
<totfact> 0.14663256E+05</totfact>
</mgrwt>
</event>
<event>
 6    1  0.1132867E-002  0.3000000E+03  0.7818608E-02  0.1093470E+00
         21   -1    0    0  501  502  0.00000000000E+00  0.00000000000E+00  0.54072542457E+00  0.54072542457E+00  0.00000000000E+00 0. -1.
         13   -1    0    0    0    0 -0.00000000000E+00 -0.00000000000E+00 -0.10000000000E+04  0.10000000000E+04  0.00000000000E+00 0.  1.
    9000005    2    1    2  501    0  0.18412240344E+02 -0.11438606159E+02 -0.65994014697E+03  0.66033036357E+03  0.67334359992E+01 0.  0.
         13    1    3    3    0    0  0.76826691329E+01 -0.53947100889E+01 -0.38518492722E+03  0.38529930504E+03  0.00000000000E+00 0.  1.
          3    1    3    3  501    0  0.10729571211E+02 -0.60438960702E+01 -0.27475521975E+03  0.27503105853E+03  0.00000000000E+00 0.  1.
         -3    1    1    2    0  502 -0.18412240344E+02  0.11438606159E+02 -0.33951912760E+03  0.34021036186E+03  0.00000000000E+00 0. -1.
<mgrwt>
<rscale>  1 0.30000000E+03</rscale>
<asrwt>0</asrwt>
<pdfrwt beam="1">  1       21 0.19662784E-02 0.30000000E+03</pdfrwt>
<pdfrwt beam="2">0</pdfrwt>
<totfact> 0.13628632E+05</totfact>
</mgrwt>
</event>
<event>
 6    1  0.1132867E-002  0.3000000E+03  0.7818608E-02  0.1093470E+00
         21   -1    0    0  501  502  0.00000000000E+00  0.00000000000E+00  0.32003672738E+00  0.32003672738E+00  0.00000000000E+00 0. -1.
         13   -1    0    0    0    0 -0.00000000000E+00 -0.00000000000E+00 -0.10000000000E+04  0.10000000000E+04  0.00000000000E+00 0.  1.
    9000005    2    1    2  501    0 -0.15047187126E+02 -0.29969544555E+01 -0.44424777545E+03  0.44467598263E+03  0.12051720443E+02 0.  0.
         13    1    3    3    0    0 -0.61357629707E+01  0.43207275079E+01 -0.22509822130E+03  0.22522327923E+03  0.00000000000E+00 0.  1.
          3    1    3    3  501    0 -0.89114241550E+01 -0.73176819634E+01 -0.21914955414E+03  0.21945270340E+03  0.00000000000E+00 0.  1.
         -1    1    1    2    0  502  0.15047187126E+02  0.29969544555E+01 -0.55543218783E+03  0.55564405409E+03  0.00000000000E+00 0. -1.
<mgrwt>
<rscale>  1 0.30000000E+03</rscale>
<asrwt>0</asrwt>
<pdfrwt beam="1">  1       21 0.11637724E-02 0.30000000E+03</pdfrwt>
<pdfrwt beam="2">0</pdfrwt>
<totfact> 0.31742514E+05</totfact>
</mgrwt>
</event>
<event>
 6    1  0.1132867E-002  0.3000000E+03  0.7818608E-02  0.1093470E+00
         21   -1    0    0  501  502  0.00000000000E+00  0.00000000000E+00  0.87874542404E-01  0.87874542404E-01  0.00000000000E+00 0. -1.
         13   -1    0    0    0    0 -0.00000000000E+00 -0.00000000000E+00 -0.10000000000E+04  0.10000000000E+04  0.00000000000E+00 0.  1.
    9000005    2    1    2  501    0 -0.21016769703E+01  0.75803415406E+01 -0.62482159404E+03  0.62491486727E+03  0.73951563186E+01 0.  0.
         13    1    3    3    0    0  0.10791689261E+01  0.50718490263E+01 -0.17958966736E+03  0.17966451202E+03  0.00000000000E+00 0.  1.
          3    1    3    3  501    0 -0.31808458964E+01  0.25084925143E+01 -0.44523192667E+03  0.44525035525E+03  0.00000000000E+00 0.  1.
         -3    1    1    2    0  502  0.21016769703E+01 -0.75803415406E+01 -0.37509053142E+03  0.37517300727E+03  0.00000000000E+00 0. -1.
<mgrwt>
<rscale>  1 0.30000000E+03</rscale>
<asrwt>0</asrwt>
<pdfrwt beam="1">  1       21 0.31954446E-03 0.30000000E+03</pdfrwt>
<pdfrwt beam="2">0</pdfrwt>
<totfact> 0.23921141E+06</totfact>
</mgrwt>
</event>
<event>
 6    1  0.1132867E-002  0.3000000E+03  0.7818608E-02  0.1093470E+00
         21   -1    0    0  501  502  0.00000000000E+00  0.00000000000E+00  0.28327662588E+00  0.28327662588E+00  0.00000000000E+00 0. -1.
         13   -1    0    0    0    0 -0.00000000000E+00 -0.00000000000E+00 -0.10000000000E+04  0.10000000000E+04  0.00000000000E+00 0.  1.
    9000005    2    1    2  501    0 -0.28427203683E+01 -0.96012294348E+01 -0.89199735525E+03  0.89209951197E+03  0.90549887300E+01 0.  0.
         13    1    3    3    0    0 -0.46801728077E+01 -0.10076462339E+02 -0.65202280113E+03  0.65211745285E+03  0.00000000000E+00 0.  1.
          3    1    3    3  501    0  0.18374524394E+01  0.47523290422E+00 -0.23997455412E+03  0.23998205912E+03  0.00000000000E+00 0.  1.
         -1    1    1    2    0  502  0.28427203683E+01  0.96012294348E+01 -0.10771936812E+03  0.10818376465E+03  0.00000000000E+00 0. -1.
<mgrwt>
<rscale>  1 0.30000000E+03</rscale>
<asrwt>0</asrwt>
<pdfrwt beam="1">  1       21 0.10300990E-02 0.30000000E+03</pdfrwt>
<pdfrwt beam="2">0</pdfrwt>
<totfact> 0.38549613E+05</totfact>
</mgrwt>
</event>
<event>
 6    1  0.1132867E-002  0.3000000E+03  0.7818608E-02  0.1093470E+00
         21   -1    0    0  501  502  0.00000000000E+00  0.00000000000E+00  0.86121216143E+00  0.86121216143E+00  0.00000000000E+00 0. -1.
         13   -1    0    0    0    0 -0.00000000000E+00 -0.00000000000E+00 -0.10000000000E+04  0.10000000000E+04  0.00000000000E+00 0.  1.
    9000005    2    1    2  501    0  0.12200387497E+02  0.17377321801E+02 -0.82881934346E+03  0.82922341358E+03  0.14803539094E+02 0.  0.
         13    1    3    3    0    0  0.15258917446E+02  0.14621593251E+02 -0.74887414499E+03  0.74917228365E+03  0.00000000000E+00 0.  1.
          1    1    3    3  501    0 -0.30585299483E+01  0.27557285497E+01 -0.79945198469E+02  0.80051129933E+02  0.00000000000E+00 0.  1.
         -1    1    1    2    0  502 -0.12200387497E+02 -0.17377321801E+02 -0.17031944438E+03  0.17163779858E+03  0.00000000000E+00 0. -1.
<mgrwt>
<rscale>  1 0.30000000E+03</rscale>
<asrwt>0</asrwt>
<pdfrwt beam="1">  1       21 0.31316872E-02 0.30000000E+03</pdfrwt>
<pdfrwt beam="2">0</pdfrwt>
<totfact> 0.63342824E+04</totfact>
</mgrwt>
</event>
<event>
 6    1  0.1132867E-002  0.3000000E+03  0.7818608E-02  0.1093470E+00
         21   -1    0    0  501  502  0.00000000000E+00  0.00000000000E+00  0.14670389970E+00  0.14670389970E+00  0.00000000000E+00 0. -1.
         13   -1    0    0    0    0 -0.00000000000E+00 -0.00000000000E+00 -0.10000000000E+04  0.10000000000E+04  0.00000000000E+00 0.  1.
    9000005    2    1    2  501    0 -0.97298291838E+01  0.24035677299E+00 -0.68535784198E+03  0.68550068372E+03  0.10054276764E+02 0.  0.
         13    1    3    3    0    0 -0.79444987747E+01 -0.34744124708E+01 -0.31315788883E+03  0.31327791167E+03  0.00000000000E+00 0.  1.
          3    1    3    3  501    0 -0.17853304091E+01  0.37147692438E+01 -0.37219995315E+03  0.37222277206E+03  0.00000000000E+00 0.  1.
         -1    1    1    2    0  502  0.97298291838E+01 -0.24035677299E+00 -0.31449545412E+03  0.31464602018E+03  0.00000000000E+00 0. -1.
<mgrwt>
<rscale>  1 0.30000000E+03</rscale>
<asrwt>0</asrwt>
<pdfrwt beam="1">  1       21 0.53346985E-03 0.30000000E+03</pdfrwt>
<pdfrwt beam="2">0</pdfrwt>
<totfact> 0.10842059E+06</totfact>
</mgrwt>
</event>
<event>
 6    1  0.1132867E-002  0.3000000E+03  0.7818608E-02  0.1093470E+00
         21   -1    0    0  501  502  0.00000000000E+00  0.00000000000E+00  0.23200781621E+00  0.23200781621E+00  0.00000000000E+00 0. -1.
         13   -1    0    0    0    0 -0.00000000000E+00 -0.00000000000E+00 -0.10000000000E+04  0.10000000000E+04  0.00000000000E+00 0.  1.
    9000005    2    1    2  501    0  0.33140371321E+01 -0.10694284628E+02 -0.82949453948E+03  0.82959086606E+03  0.58705578420E+01 0.  0.
         13    1    3    3    0    0  0.46874534804E+01 -0.53611775025E+01 -0.44883267421E+03  0.44888916659E+03  0.00000000000E+00 0.  1.
          3    1    3    3  501    0 -0.13734163483E+01 -0.53331071250E+01 -0.38066186528E+03  0.38070169947E+03  0.00000000000E+00 0.  1.
         -1    1    1    2    0  502 -0.33140371321E+01  0.10694284628E+02 -0.17027345270E+03  0.17064114176E+03  0.00000000000E+00 0. -1.
<mgrwt>
<rscale>  1 0.30000000E+03</rscale>
<asrwt>0</asrwt>
<pdfrwt beam="1">  1       21 0.84366657E-03 0.30000000E+03</pdfrwt>
<pdfrwt beam="2">0</pdfrwt>
<totfact> 0.52881264E+05</totfact>
</mgrwt>
</event>
<event>
 6    1  0.1132867E-002  0.3000000E+03  0.7818608E-02  0.1093470E+00
         21   -1    0    0  501  502  0.00000000000E+00  0.00000000000E+00  0.17688059565E+00  0.17688059565E+00  0.00000000000E+00 0. -1.
         13   -1    0    0    0    0 -0.00000000000E+00 -0.00000000000E+00 -0.10000000000E+04  0.10000000000E+04  0.00000000000E+00 0.  1.
    9000005    2    1    2  501    0 -0.56422419564E+01  0.85450194400E+01 -0.67808070706E+03  0.67827156508E+03  0.12410417685E+02 0.  0.
         13    1    3    3    0    0 -0.73845495969E+01  0.72855036816E+00 -0.23103400809E+03  0.23115314243E+03  0.00000000000E+00 0.  1.
          3    1    3    3  501    0  0.17423076405E+01  0.78164690719E+01 -0.44704669896E+03  0.44711842266E+03  0.00000000000E+00 0.  1.
         -3    1    1    2    0  502  0.56422419564E+01 -0.85450194400E+01 -0.32174241235E+03  0.32190531551E+03  0.00000000000E+00 0. -1.
<mgrwt>
<rscale>  1 0.30000000E+03</rscale>
<asrwt>0</asrwt>
<pdfrwt beam="1">  1       21 0.64320352E-03 0.30000000E+03</pdfrwt>
<pdfrwt beam="2">0</pdfrwt>
<totfact> 0.80985303E+05</totfact>
</mgrwt>
</event>
<event>
 6    1  0.1132867E-002  0.3000000E+03  0.7818608E-02  0.1093470E+00
         21   -1    0    0  501  502  0.00000000000E+00  0.00000000000E+00  0.10467251102E+01  0.10467251102E+01  0.00000000000E+00 0. -1.
         13   -1    0    0    0    0 -0.00000000000E+00 -0.00000000000E+00 -0.10000000000E+04  0.10000000000E+04  0.00000000000E+00 0.  1.
    9000005    2    1    2  501    0  0.10903327345E+02  0.68263846456E+01 -0.95558687938E+03  0.95581259713E+03  0.16308118136E+02 0.  0.
         13    1    3    3    0    0  0.10186329155E+02  0.91055953309E+01 -0.93293720894E+03  0.93303724952E+03  0.00000000000E+00 0.  1.
          1    1    3    3  501    0  0.71699818997E+00 -0.22792106853E+01 -0.22649670439E+02  0.22775347610E+02  0.00000000000E+00 0.  1.
         -1    1    1    2    0  502 -0.10903327345E+02 -0.68263846456E+01 -0.43366395515E+02  0.45234127984E+02  0.00000000000E+00 0. -1.
<mgrwt>
<rscale>  1 0.30000000E+03</rscale>
<asrwt>0</asrwt>
<pdfrwt beam="1">  1       21 0.38062812E-02 0.30000000E+03</pdfrwt>
<pdfrwt beam="2">0</pdfrwt>
<totfact> 0.45709064E+04</totfact>
</mgrwt>
</event>
<event>
 6    1  0.1132867E-002  0.3000000E+03  0.7818608E-02  0.1093470E+00
         21   -1    0    0  501  502  0.00000000000E+00  0.00000000000E+00  0.10692978841E+00  0.10692978841E+00  0.00000000000E+00 0. -1.
         13   -1    0    0    0    0 -0.00000000000E+00 -0.00000000000E+00 -0.10000000000E+04  0.10000000000E+04  0.00000000000E+00 0.  1.
    9000005    2    1    2  501    0 -0.43453164655E+01  0.72943131968E+01 -0.73954342855E+03  0.73961887882E+03  0.62860501179E+01 0.  0.
         13    1    3    3    0    0 -0.15323676402E+01  0.67374197688E+00 -0.36215378535E+02  0.36254044206E+02  0.00000000000E+00 0.  1.
          1    1    3    3  501    0 -0.28129488252E+01  0.66205712199E+01 -0.70332805001E+03  0.70336483462E+03  0.00000000000E+00 0.  1.
         -1    1    1    2    0  502  0.43453164655E+01 -0.72943131968E+01 -0.26034964167E+03  0.26048805096E+03  0.00000000000E+00 0. -1.
<mgrwt>
<rscale>  1 0.30000000E+03</rscale>
<asrwt>0</asrwt>
<pdfrwt beam="1">  1       21 0.38883641E-03 0.30000000E+03</pdfrwt>
<pdfrwt beam="2">0</pdfrwt>
<totfact> 0.17691050E+06</totfact>
</mgrwt>
</event>
<event>
 6    1  0.1132867E-002  0.3000000E+03  0.7818608E-02  0.1093470E+00
         21   -1    0    0  501  502  0.00000000000E+00  0.00000000000E+00  0.41723900545E+00  0.41723900545E+00  0.00000000000E+00 0.  1.
         13   -1    0    0    0    0 -0.00000000000E+00 -0.00000000000E+00 -0.10000000000E+04  0.10000000000E+04  0.00000000000E+00 0.  1.
    9000005    2    1    2  501    0  0.72264177375E+01 -0.45777419605E+01 -0.74796121092E+03  0.74865032042E+03  0.30954036592E+02 0.  0.
         13    1    3    3    0    0 -0.31178673940E+01  0.68548546106E+01 -0.54508576024E+02  0.55026311788E+02  0.00000000000E+00 0.  1.
          1    1    3    3  501    0  0.10344285132E+02 -0.11432596571E+02 -0.69345263490E+03  0.69362400863E+03  0.00000000000E+00 0.  1.
         -1    1    1    2    0  502 -0.72264177375E+01  0.45777419605E+01 -0.25162155007E+03  0.25176691859E+03  0.00000000000E+00 0. -1.
<mgrwt>
<rscale>  1 0.30000000E+03</rscale>
<asrwt>0</asrwt>
<pdfrwt beam="1">  1       21 0.15172359E-02 0.30000000E+03</pdfrwt>
<pdfrwt beam="2">0</pdfrwt>
<totfact> 0.20744955E+05</totfact>
</mgrwt>
</event>
<event>
 6    1  0.1132867E-002  0.3000000E+03  0.7818608E-02  0.1093470E+00
         21   -1    0    0  501  502  0.00000000000E+00  0.00000000000E+00  0.11061682670E+00  0.11061682670E+00  0.00000000000E+00 0. -1.
         13   -1    0    0    0    0 -0.00000000000E+00 -0.00000000000E+00 -0.10000000000E+04  0.10000000000E+04  0.00000000000E+00 0.  1.
    9000005    2    1    2  501    0 -0.64919567637E+01 -0.66992574594E+01 -0.64930897974E+03  0.64940611896E+03  0.62554470145E+01 0.  0.
         13    1    3    3    0    0 -0.42543242814E+01 -0.57276723585E+00 -0.17670188090E+03  0.17675401566E+03  0.00000000000E+00 0.  1.
          3    1    3    3  501    0 -0.22376324823E+01 -0.61264902236E+01 -0.47260709884E+03  0.47265210330E+03  0.00000000000E+00 0.  1.
         -3    1    1    2    0  502  0.64919567637E+01  0.66992574594E+01 -0.35058040344E+03  0.35070449787E+03  0.00000000000E+00 0. -1.
<mgrwt>
<rscale>  1 0.30000000E+03</rscale>
<asrwt>0</asrwt>
<pdfrwt beam="1">  1       21 0.40224385E-03 0.30000000E+03</pdfrwt>
<pdfrwt beam="2">0</pdfrwt>
<totfact> 0.16789753E+06</totfact>
</mgrwt>
</event>
<event>
 6    1  0.1132867E-002  0.3000000E+03  0.7818608E-02  0.1093470E+00
         21   -1    0    0  501  502  0.00000000000E+00  0.00000000000E+00  0.11767291964E+00  0.11767291964E+00  0.00000000000E+00 0. -1.
         13   -1    0    0    0    0 -0.00000000000E+00 -0.00000000000E+00 -0.10000000000E+04  0.10000000000E+04  0.00000000000E+00 0.  1.
    9000005    2    1    2  501    0 -0.87459463098E+01 -0.15161186553E+00 -0.71958116800E+03  0.71968006071E+03  0.81128215006E+01 0.  0.
         13    1    3    3    0    0 -0.33654608792E+01 -0.39773052791E+01 -0.26803590144E+03  0.26808653407E+03  0.00000000000E+00 0.  1.
          1    1    3    3  501    0 -0.53804854307E+01  0.38256934135E+01 -0.45154526656E+03  0.45159352664E+03  0.00000000000E+00 0.  1.
         -3    1    1    2    0  502  0.87459463098E+01  0.15161186553E+00 -0.28030115908E+03  0.28043761221E+03  0.00000000000E+00 0. -1.
<mgrwt>
<rscale>  1 0.30000000E+03</rscale>
<asrwt>0</asrwt>
<pdfrwt beam="1">  1       21 0.42790243E-03 0.30000000E+03</pdfrwt>
<pdfrwt beam="2">0</pdfrwt>
<totfact> 0.15261007E+06</totfact>
</mgrwt>
</event>
<event>
 6    1  0.1132867E-002  0.3000000E+03  0.7818608E-02  0.1093470E+00
         21   -1    0    0  501  502  0.00000000000E+00  0.00000000000E+00  0.15933371713E+00  0.15933371713E+00  0.00000000000E+00 0. -1.
         13   -1    0    0    0    0 -0.00000000000E+00 -0.00000000000E+00 -0.10000000000E+04  0.10000000000E+04  0.00000000000E+00 0.  1.
    9000005    2    1    2  501    0 -0.45864772651E+01 -0.10731220871E+02 -0.63390689034E+03  0.63403951283E+03  0.56536117960E+01 0.  0.
         13    1    3    3    0    0  0.12877223972E+01 -0.15090390121E+01 -0.11908819040E+03  0.11910471242E+03  0.00000000000E+00 0.  1.
          3    1    3    3  501    0 -0.58741996623E+01 -0.92221818589E+01 -0.51481869995E+03  0.51493480041E+03  0.00000000000E+00 0.  1.
         -1    1    1    2    0  502  0.45864772651E+01  0.10731220871E+02 -0.36593377594E+03  0.36611982089E+03  0.00000000000E+00 0. -1.
<mgrwt>
<rscale>  1 0.30000000E+03</rscale>
<asrwt>0</asrwt>
<pdfrwt beam="1">  1       21 0.57939656E-03 0.30000000E+03</pdfrwt>
<pdfrwt beam="2">0</pdfrwt>
<totfact> 0.95340721E+05</totfact>
</mgrwt>
</event>
<event>
 6    1  0.1132867E-002  0.3000000E+03  0.7818608E-02  0.1093470E+00
         21   -1    0    0  501  502  0.00000000000E+00  0.00000000000E+00  0.64066271833E+00  0.64066271833E+00  0.00000000000E+00 0. -1.
         13   -1    0    0    0    0 -0.00000000000E+00 -0.00000000000E+00 -0.10000000000E+04  0.10000000000E+04  0.00000000000E+00 0.  1.
    9000005    2    1    2  501    0 -0.12665616123E+02 -0.66444924746E+01 -0.90748634046E+03  0.90766101626E+03  0.10606374963E+02 0.  0.
         13    1    3    3    0    0 -0.70131445623E+01  0.21634669904E+01 -0.36869455307E+03  0.36876759382E+03  0.00000000000E+00 0.  1.
          1    1    3    3  501    0 -0.56524715609E+01 -0.88079594650E+01 -0.53879178740E+03  0.53889342244E+03  0.00000000000E+00 0.  1.
         -3    1    1    2    0  502  0.12665616123E+02  0.66444924746E+01 -0.91872996817E+02  0.92979646462E+02  0.00000000000E+00 0. -1.
<mgrwt>
<rscale>  1 0.30000000E+03</rscale>
<asrwt>0</asrwt>
<pdfrwt beam="1">  1       21 0.23296875E-02 0.30000000E+03</pdfrwt>
<pdfrwt beam="2">0</pdfrwt>
<totfact> 0.10327428E+05</totfact>
</mgrwt>
</event>
<event>
 6    1  0.1132867E-002  0.3000000E+03  0.7818608E-02  0.1093470E+00
         21   -1    0    0  501  502  0.00000000000E+00  0.00000000000E+00  0.20892581883E+00  0.20892581883E+00  0.00000000000E+00 0. -1.
         13   -1    0    0    0    0 -0.00000000000E+00 -0.00000000000E+00 -0.10000000000E+04  0.10000000000E+04  0.00000000000E+00 0.  1.
    9000005    2    1    2  501    0 -0.55361917893E+00 -0.93729497160E+01 -0.85623700899E+03  0.85634813091E+03  0.10106782788E+02 0.  0.
         13    1    3    3    0    0 -0.21557595763E+01 -0.59208981796E+01 -0.77147116029E+03  0.77149689273E+03  0.00000000000E+00 0.  1.
          3    1    3    3  501    0  0.16021403973E+01 -0.34520515364E+01 -0.84765848706E+02  0.84851238179E+02  0.00000000000E+00 0.  1.
         -3    1    1    2    0  502  0.55361917893E+00  0.93729497160E+01 -0.14355406519E+03  0.14386079491E+03  0.00000000000E+00 0. -1.
<mgrwt>
<rscale>  1 0.30000000E+03</rscale>
<asrwt>0</asrwt>
<pdfrwt beam="1">  1       21 0.75973185E-03 0.30000000E+03</pdfrwt>
<pdfrwt beam="2">0</pdfrwt>
<totfact> 0.62375902E+05</totfact>
</mgrwt>
</event>
<event>
 6    1  0.1132867E-002  0.3000000E+03  0.7818608E-02  0.1093470E+00
         21   -1    0    0  501  502  0.00000000000E+00  0.00000000000E+00  0.62876445198E+00  0.62876445198E+00  0.00000000000E+00 0. -1.
         13   -1    0    0    0    0 -0.00000000000E+00 -0.00000000000E+00 -0.10000000000E+04  0.10000000000E+04  0.00000000000E+00 0.  1.
    9000005    2    1    2  501    0  0.27055968185E+01 -0.20477002592E+02 -0.57946110167E+03  0.58021093844E+03  0.21046065086E+02 0.  0.
         13    1    3    3    0    0  0.62039308928E+01 -0.68230939649E+01 -0.76714998266E+02  0.77267291455E+02  0.00000000000E+00 0.  1.
          3    1    3    3  501    0 -0.34983340743E+01 -0.13653908628E+02 -0.50274610340E+03  0.50294364699E+03  0.00000000000E+00 0.  1.
         -3    1    1    2    0  502 -0.27055968185E+01  0.20477002592E+02 -0.41991013388E+03  0.42041782601E+03  0.00000000000E+00 0. -1.
<mgrwt>
<rscale>  1 0.30000000E+03</rscale>
<asrwt>0</asrwt>
<pdfrwt beam="1">  1       21 0.22864210E-02 0.30000000E+03</pdfrwt>
<pdfrwt beam="2">0</pdfrwt>
<totfact> 0.10649937E+05</totfact>
</mgrwt>
</event>
<event>
 6    1  0.1132867E-002  0.3000000E+03  0.7818608E-02  0.1093470E+00
         21   -1    0    0  501  502  0.00000000000E+00  0.00000000000E+00  0.35788195479E+00  0.35788195479E+00  0.00000000000E+00 0. -1.
         13   -1    0    0    0    0 -0.00000000000E+00 -0.00000000000E+00 -0.10000000000E+04  0.10000000000E+04  0.00000000000E+00 0.  1.
    9000005    2    1    2  501    0 -0.74605480205E+01  0.61957906958E+01 -0.92232692727E+03  0.92243685575E+03  0.10428062737E+02 0.  0.
         13    1    3    3    0    0 -0.81834549925E+00 -0.23055328619E+01 -0.72120402513E+02  0.72161884882E+02  0.00000000000E+00 0.  1.
          1    1    3    3  501    0 -0.66422025213E+01  0.85013235577E+01 -0.85020652475E+03  0.85027497087E+03  0.00000000000E+00 0.  1.
         -1    1    1    2    0  502  0.74605480205E+01 -0.61957906958E+01 -0.77315190779E+02  0.77921026201E+02  0.00000000000E+00 0. -1.
<mgrwt>
<rscale>  1 0.30000000E+03</rscale>
<asrwt>0</asrwt>
<pdfrwt beam="1">  1       21 0.13013917E-02 0.30000000E+03</pdfrwt>
<pdfrwt beam="2">0</pdfrwt>
<totfact> 0.26547871E+05</totfact>
</mgrwt>
</event>
<event>
 6    1  0.1132867E-002  0.3000000E+03  0.7818608E-02  0.1093470E+00
         21   -1    0    0  501  502  0.00000000000E+00  0.00000000000E+00  0.29182614886E+00  0.29182614886E+00  0.00000000000E+00 0. -1.
         13   -1    0    0    0    0 -0.00000000000E+00 -0.00000000000E+00 -0.10000000000E+04  0.10000000000E+04  0.00000000000E+00 0.  1.
    9000005    2    1    2  501    0 -0.14100789030E+02  0.99384475129E+00 -0.75834450517E+03  0.75851457218E+03  0.76254642862E+01 0.  0.
         13    1    3    3    0    0 -0.42800829066E+01  0.17279152011E+01 -0.42383395103E+03  0.42385908372E+03  0.00000000000E+00 0.  1.
          3    1    3    3  501    0 -0.98207061235E+01 -0.73407044985E+00 -0.33451055414E+03  0.33465548846E+03  0.00000000000E+00 0.  1.
         -3    1    1    2    0  502  0.14100789030E+02 -0.99384475129E+00 -0.24136366868E+03  0.24177725397E+03  0.00000000000E+00 0. -1.
<mgrwt>
<rscale>  1 0.30000000E+03</rscale>
<asrwt>0</asrwt>
<pdfrwt beam="1">  1       21 0.10611882E-02 0.30000000E+03</pdfrwt>
<pdfrwt beam="2">0</pdfrwt>
<totfact> 0.36768834E+05</totfact>
</mgrwt>
</event>
<event>
 6    1  0.1132867E-002  0.3000000E+03  0.7818608E-02  0.1093470E+00
         21   -1    0    0  501  502  0.00000000000E+00  0.00000000000E+00  0.11929538226E+00  0.11929538226E+00  0.00000000000E+00 0. -1.
         13   -1    0    0    0    0 -0.00000000000E+00 -0.00000000000E+00 -0.10000000000E+04  0.10000000000E+04  0.00000000000E+00 0.  1.
    9000005    2    1    2  501    0 -0.10351092757E+02 -0.18793764641E+01 -0.53619002146E+03  0.53630928382E+03  0.41510989089E+01 0.  0.
         13    1    3    3    0    0 -0.27985117793E+01 -0.82856159879E+00 -0.75881883509E+02  0.75937990672E+02  0.00000000000E+00 0.  1.
          3    1    3    3  501    0 -0.75525809779E+01 -0.10508148653E+01 -0.46030813795E+03  0.46037129315E+03  0.00000000000E+00 0.  1.
         -3    1    1    2    0  502  0.10351092757E+02  0.18793764641E+01 -0.46369068315E+03  0.46381001156E+03  0.00000000000E+00 0. -1.
<mgrwt>
<rscale>  1 0.30000000E+03</rscale>
<asrwt>0</asrwt>
<pdfrwt beam="1">  1       21 0.43380230E-03 0.30000000E+03</pdfrwt>
<pdfrwt beam="2">0</pdfrwt>
<totfact> 0.14941478E+06</totfact>
</mgrwt>
</event>
<event>
 6    1  0.1132867E-002  0.3000000E+03  0.7818608E-02  0.1093470E+00
         21   -1    0    0  501  502  0.00000000000E+00  0.00000000000E+00  0.13642195347E+00  0.13642195347E+00  0.00000000000E+00 0. -1.
         13   -1    0    0    0    0 -0.00000000000E+00 -0.00000000000E+00 -0.10000000000E+04  0.10000000000E+04  0.00000000000E+00 0.  1.
    9000005    2    1    2  501    0 -0.14030934344E+01 -0.97155049106E+01 -0.56903172424E+03  0.56919275283E+03  0.93234634655E+01 0.  0.
         13    1    3    3    0    0  0.28644154180E+01 -0.24797583612E+01 -0.31369985101E+03  0.31372272886E+03  0.00000000000E+00 0.  1.
          1    1    3    3  501    0 -0.42675088525E+01 -0.72357465494E+01 -0.25533187323E+03  0.25547002397E+03  0.00000000000E+00 0.  1.
         -3    1    1    2    0  502  0.14030934344E+01  0.97155049106E+01 -0.43083185381E+03  0.43094366913E+03  0.00000000000E+00 0. -1.
<mgrwt>
<rscale>  1 0.30000000E+03</rscale>
<asrwt>0</asrwt>
<pdfrwt beam="1">  1       21 0.49608088E-03 0.30000000E+03</pdfrwt>
<pdfrwt beam="2">0</pdfrwt>
<totfact> 0.12137968E+06</totfact>
</mgrwt>
</event>
<event>
 6    1  0.1132867E-002  0.3000000E+03  0.7818608E-02  0.1093470E+00
         21   -1    0    0  501  502  0.00000000000E+00  0.00000000000E+00  0.22494819189E+00  0.22494819189E+00  0.00000000000E+00 0. -1.
         13   -1    0    0    0    0 -0.00000000000E+00 -0.00000000000E+00 -0.10000000000E+04  0.10000000000E+04  0.00000000000E+00 0.  1.
    9000005    2    1    2  501    0 -0.44791314525E+01  0.10514344732E+02 -0.81714390662E+03  0.81723656261E+03  0.45630125089E+01 0.  0.
         13    1    3    3    0    0  0.90866904097E+00  0.21878002932E+01 -0.17638398148E+03  0.17639988966E+03  0.00000000000E+00 0.  1.
          3    1    3    3  501    0 -0.53878004934E+01  0.83265444383E+01 -0.64075992514E+03  0.64083667295E+03  0.00000000000E+00 0.  1.
         -3    1    1    2    0  502  0.44791314525E+01 -0.10514344732E+02 -0.18263114519E+03  0.18298838558E+03  0.00000000000E+00 0. -1.
<mgrwt>
<rscale>  1 0.30000000E+03</rscale>
<asrwt>0</asrwt>
<pdfrwt beam="1">  1       21 0.81799515E-03 0.30000000E+03</pdfrwt>
<pdfrwt beam="2">0</pdfrwt>
<totfact> 0.55523177E+05</totfact>
</mgrwt>
</event>
<event>
 6    1  0.1132867E-002  0.3000000E+03  0.7818608E-02  0.1093470E+00
         21   -1    0    0  501  502  0.00000000000E+00  0.00000000000E+00  0.10980223194E+01  0.10980223194E+01  0.00000000000E+00 0. -1.
         13   -1    0    0    0    0 -0.00000000000E+00 -0.00000000000E+00 -0.10000000000E+04  0.10000000000E+04  0.00000000000E+00 0.  1.
    9000005    2    1    2  501    0  0.74803358767E+01  0.65359522556E+01 -0.97496513695E+03  0.97518187984E+03  0.18000178027E+02 0.  0.
         13    1    3    3    0    0  0.29067380924E+01  0.84704091685E+01 -0.90351669631E+03  0.90356107567E+03  0.00000000000E+00 0.  1.
          1    1    3    3  501    0  0.45735977843E+01 -0.19344569129E+01 -0.71448440638E+02  0.71620804169E+02  0.00000000000E+00 0.  1.
         -3    1    1    2    0  502 -0.74803358767E+01 -0.65359522556E+01 -0.23936840734E+02  0.25916142480E+02  0.00000000000E+00 0. -1.
<mgrwt>
<rscale>  1 0.30000000E+03</rscale>
<asrwt>0</asrwt>
<pdfrwt beam="1">  1       21 0.39928169E-02 0.30000000E+03</pdfrwt>
<pdfrwt beam="2">0</pdfrwt>
<totfact> 0.42174783E+04</totfact>
</mgrwt>
</event>
<event>
 6    1  0.1132867E-002  0.3000000E+03  0.7818608E-02  0.1093470E+00
         21   -1    0    0  501  502  0.00000000000E+00  0.00000000000E+00  0.13925386634E+00  0.13925386634E+00  0.00000000000E+00 0. -1.
         13   -1    0    0    0    0 -0.00000000000E+00 -0.00000000000E+00 -0.10000000000E+04  0.10000000000E+04  0.00000000000E+00 0.  1.
    9000005    2    1    2  501    0  0.53150590771E+01 -0.80529146602E+01 -0.73505576001E+03  0.73515853765E+03  0.76161589250E+01 0.  0.
         13    1    3    3    0    0  0.57044336616E+01 -0.87054421136E+01 -0.72477792321E+03  0.72485264934E+03  0.00000000000E+00 0.  1.
          1    1    3    3  501    0 -0.38937458449E+00  0.65252745343E+00 -0.10277836801E+02  0.10305888314E+02  0.00000000000E+00 0.  1.
         -1    1    1    2    0  502 -0.53150590771E+01  0.80529146602E+01 -0.26480498613E+03  0.26498071621E+03  0.00000000000E+00 0. -1.
<mgrwt>
<rscale>  1 0.30000000E+03</rscale>
<asrwt>0</asrwt>
<pdfrwt beam="1">  1       21 0.50637876E-03 0.30000000E+03</pdfrwt>
<pdfrwt beam="2">0</pdfrwt>
<totfact> 0.11756767E+06</totfact>
</mgrwt>
</event>
<event>
 6    1  0.1132867E-002  0.3000000E+03  0.7818608E-02  0.1093470E+00
         21   -1    0    0  501  502  0.00000000000E+00  0.00000000000E+00  0.29153309622E+00  0.29153309622E+00  0.00000000000E+00 0. -1.
         13   -1    0    0    0    0 -0.00000000000E+00 -0.00000000000E+00 -0.10000000000E+04  0.10000000000E+04  0.00000000000E+00 0.  1.
    9000005    2    1    2  501    0  0.40249714623E+01  0.15455791691E+02 -0.54661413686E+03  0.54691580171E+03  0.86485636333E+01 0.  0.
         13    1    3    3    0    0  0.34489072661E+01  0.15859115124E+02 -0.54244739530E+03  0.54269013549E+03  0.00000000000E+00 0.  1.
          1    1    3    3  501    0  0.57606419620E+00 -0.40332343239E+00 -0.41667415616E+01  0.42256662185E+01  0.00000000000E+00 0.  1.
         -1    1    1    2    0  502 -0.40249714623E+01 -0.15455791691E+02 -0.45309433004E+03  0.45337573139E+03  0.00000000000E+00 0. -1.
<mgrwt>
<rscale>  1 0.30000000E+03</rscale>
<asrwt>0</asrwt>
<pdfrwt beam="1">  1       21 0.10601226E-02 0.30000000E+03</pdfrwt>
<pdfrwt beam="2">0</pdfrwt>
<totfact> 0.36827658E+05</totfact>
</mgrwt>
</event>
<event>
 6    1  0.1132867E-002  0.3000000E+03  0.7818608E-02  0.1093470E+00
         21   -1    0    0  501  502  0.00000000000E+00  0.00000000000E+00  0.16329178924E+00  0.16329178924E+00  0.00000000000E+00 0. -1.
         13   -1    0    0    0    0 -0.00000000000E+00 -0.00000000000E+00 -0.10000000000E+04  0.10000000000E+04  0.00000000000E+00 0.  1.
    9000005    2    1    2  501    0 -0.95231435604E+01  0.17272015460E+01 -0.81108846204E+03  0.81116706452E+03  0.58172006580E+01 0.  0.
         13    1    3    3    0    0 -0.80718342590E+01  0.98142753816E+00 -0.77401722740E+03  0.77405993697E+03  0.00000000000E+00 0.  1.
          1    1    3    3  501    0 -0.14513093014E+01  0.74577400780E+00 -0.37071234637E+02  0.37107127551E+02  0.00000000000E+00 0.  1.
         -1    1    1    2    0  502  0.95231435604E+01 -0.17272015460E+01 -0.18874824617E+03  0.18899622726E+03  0.00000000000E+00 0. -1.
<mgrwt>
<rscale>  1 0.30000000E+03</rscale>
<asrwt>0</asrwt>
<pdfrwt beam="1">  1       21 0.59378958E-03 0.30000000E+03</pdfrwt>
<pdfrwt beam="2">0</pdfrwt>
<totfact> 0.91761371E+05</totfact>
</mgrwt>
</event>
<event>
 6    1  0.1132867E-002  0.3000000E+03  0.7818608E-02  0.1093470E+00
         21   -1    0    0  501  502  0.00000000000E+00  0.00000000000E+00  0.11768946023E+01  0.11768946023E+01  0.00000000000E+00 0. -1.
         13   -1    0    0    0    0 -0.00000000000E+00 -0.00000000000E+00 -0.10000000000E+04  0.10000000000E+04  0.00000000000E+00 0.  1.
    9000005    2    1    2  501    0 -0.26361458001E+02 -0.13492233514E+02 -0.73735774402E+03  0.73803985419E+03  0.11376154135E+02 0.  0.
         13    1    3    3    0    0 -0.12668670127E+02 -0.30415596523E+00 -0.31331248566E+03  0.31356865498E+03  0.00000000000E+00 0.  1.
          3    1    3    3  501    0 -0.13692787875E+02 -0.13188077549E+02 -0.42404525835E+03  0.42447119921E+03  0.00000000000E+00 0.  1.
         -3    1    1    2    0  502  0.26361458001E+02  0.13492233514E+02 -0.26146536138E+03  0.26313704041E+03  0.00000000000E+00 0. -1.
<mgrwt>
<rscale>  1 0.30000000E+03</rscale>
<asrwt>0</asrwt>
<pdfrwt beam="1">  1       21 0.42796258E-02 0.30000000E+03</pdfrwt>
<pdfrwt beam="2">0</pdfrwt>
<totfact> 0.37516837E+04</totfact>
</mgrwt>
</event>
<event>
 6    1  0.1132867E-002  0.3000000E+03  0.7818608E-02  0.1093470E+00
         21   -1    0    0  501  502  0.00000000000E+00  0.00000000000E+00  0.27435024510E+00  0.27435024510E+00  0.00000000000E+00 0. -1.
         13   -1    0    0    0    0 -0.00000000000E+00 -0.00000000000E+00 -0.10000000000E+04  0.10000000000E+04  0.00000000000E+00 0.  1.
    9000005    2    1    2  501    0 -0.10812844385E+02 -0.16710483375E+01 -0.83301499815E+03  0.83320504917E+03  0.14034129759E+02 0.  0.
         13    1    3    3    0    0 -0.39710168931E+00 -0.58378950085E+01 -0.18375621669E+03  0.18384935649E+03  0.00000000000E+00 0.  1.
          1    1    3    3  501    0 -0.10415742696E+02  0.41668466710E+01 -0.64925878146E+03  0.64935569268E+03  0.00000000000E+00 0.  1.
         -3    1    1    2    0  502  0.10812844385E+02  0.16710483375E+01 -0.16671065160E+03  0.16706930108E+03  0.00000000000E+00 0. -1.
<mgrwt>
<rscale>  1 0.30000000E+03</rscale>
<asrwt>0</asrwt>
<pdfrwt beam="1">  1       21 0.99763936E-03 0.30000000E+03</pdfrwt>
<pdfrwt beam="2">0</pdfrwt>
<totfact> 0.40561313E+05</totfact>
</mgrwt>
</event>
<event>
 6    1  0.1132867E-002  0.3000000E+03  0.7818608E-02  0.1093470E+00
         21   -1    0    0  501  502  0.00000000000E+00  0.00000000000E+00  0.46104746787E+00  0.46104746787E+00  0.00000000000E+00 0. -1.
         13   -1    0    0    0    0 -0.00000000000E+00 -0.00000000000E+00 -0.10000000000E+04  0.10000000000E+04  0.00000000000E+00 0.  1.
    9000005    2    1    2  501    0  0.13745223731E+02  0.65236518836E+01 -0.84872288455E+03  0.84887946689E+03  0.58587828917E+01 0.  0.
         13    1    3    3    0    0  0.21673704908E+01 -0.95639160549E-01 -0.24348420787E+03  0.24349387287E+03  0.00000000000E+00 0.  1.
          3    1    3    3  501    0  0.11577853240E+02  0.66192910442E+01 -0.60523867668E+03  0.60538559402E+03  0.00000000000E+00 0.  1.
         -3    1    1    2    0  502 -0.13745223731E+02 -0.65236518836E+01 -0.15081606798E+03  0.15158158058E+03  0.00000000000E+00 0. -1.
<mgrwt>
<rscale>  1 0.30000000E+03</rscale>
<asrwt>0</asrwt>
<pdfrwt beam="1">  1       21 0.16765398E-02 0.30000000E+03</pdfrwt>
<pdfrwt beam="2">0</pdfrwt>
<totfact> 0.17655344E+05</totfact>
</mgrwt>
</event>
<event>
 6    1  0.1132867E-002  0.3000000E+03  0.7818608E-02  0.1093470E+00
         21   -1    0    0  501  502  0.00000000000E+00  0.00000000000E+00  0.63854439479E+00  0.63854439479E+00  0.00000000000E+00 0. -1.
         13   -1    0    0    0    0 -0.00000000000E+00 -0.00000000000E+00 -0.10000000000E+04  0.10000000000E+04  0.00000000000E+00 0.  1.
    9000005    2    1    2  501    0  0.20708617202E+02 -0.39125407495E+00 -0.50749015626E+03  0.50833134860E+03  0.20627684511E+02 0.  0.
         13    1    3    3    0    0  0.17357129372E+02 -0.68638683702E+01 -0.23369655945E+03  0.23444074844E+03  0.00000000000E+00 0.  1.
          1    1    3    3  501    0  0.33514878305E+01  0.64726142953E+01 -0.27379359680E+03  0.27389060016E+03  0.00000000000E+00 0.  1.
         -1    1    1    2    0  502 -0.20708617202E+02  0.39125407495E+00 -0.49187129935E+03  0.49230719579E+03  0.00000000000E+00 0. -1.
<mgrwt>
<rscale>  1 0.30000000E+03</rscale>
<asrwt>0</asrwt>
<pdfrwt beam="1">  1       21 0.23219845E-02 0.30000000E+03</pdfrwt>
<pdfrwt beam="2">0</pdfrwt>
<totfact> 0.10383701E+05</totfact>
</mgrwt>
</event>
<event>
 6    1  0.1132867E-002  0.3000000E+03  0.7818608E-02  0.1093470E+00
         21   -1    0    0  501  502  0.00000000000E+00  0.00000000000E+00  0.41091942837E+00  0.41091942837E+00  0.00000000000E+00 0.  1.
         13   -1    0    0    0    0 -0.00000000000E+00 -0.00000000000E+00 -0.10000000000E+04  0.10000000000E+04  0.00000000000E+00 0.  1.
    9000005    2    1    2  501    0 -0.35460766791E+01 -0.10218627102E+02 -0.86192090007E+03  0.86231847604E+03  0.23843681228E+02 0.  0.
         13    1    3    3    0    0 -0.57507606400E+01  0.10207690772E+01 -0.68612299465E+03  0.68614785361E+03  0.00000000000E+00 0.  1.
          3    1    3    3  501    0  0.22046839609E+01 -0.11239396179E+02 -0.17579790542E+03  0.17617062243E+03  0.00000000000E+00 0.  1.
         -1    1    1    2    0  502  0.35460766791E+01  0.10218627102E+02 -0.13766818050E+03  0.13809244339E+03  0.00000000000E+00 0. -1.
<mgrwt>
<rscale>  1 0.30000000E+03</rscale>
<asrwt>0</asrwt>
<pdfrwt beam="1">  1       21 0.14942556E-02 0.30000000E+03</pdfrwt>
<pdfrwt beam="2">0</pdfrwt>
<totfact> 0.21261292E+05</totfact>
</mgrwt>
</event>
<event>
 6    1  0.1132867E-002  0.3000000E+03  0.7818608E-02  0.1093470E+00
         21   -1    0    0  501  502  0.00000000000E+00  0.00000000000E+00  0.16541482923E+00  0.16541482923E+00  0.00000000000E+00 0. -1.
         13   -1    0    0    0    0 -0.00000000000E+00 -0.00000000000E+00 -0.10000000000E+04  0.10000000000E+04  0.00000000000E+00 0.  1.
    9000005    2    1    2  501    0 -0.41506874581E+01  0.82706459373E+01 -0.77094363916E+03  0.77108748714E+03  0.11669887129E+02 0.  0.
         13    1    3    3    0    0  0.22583071503E+01  0.81646451254E+01 -0.45440470197E+03  0.45448365708E+03  0.00000000000E+00 0.  1.
          1    1    3    3  501    0 -0.64089946084E+01  0.10600081188E+00 -0.31653893720E+03  0.31660383006E+03  0.00000000000E+00 0.  1.
         -1    1    1    2    0  502  0.41506874581E+01 -0.82706459373E+01 -0.22889094601E+03  0.22907792769E+03  0.00000000000E+00 0. -1.
<mgrwt>
<rscale>  1 0.30000000E+03</rscale>
<asrwt>0</asrwt>
<pdfrwt beam="1">  1       21 0.60150974E-03 0.30000000E+03</pdfrwt>
<pdfrwt beam="2">0</pdfrwt>
<totfact> 0.89930045E+05</totfact>
</mgrwt>
</event>
<event>
 6    1  0.1132867E-002  0.3000000E+03  0.7818608E-02  0.1093470E+00
         21   -1    0    0  501  502  0.00000000000E+00  0.00000000000E+00  0.11040298358E+00  0.11040298358E+00  0.00000000000E+00 0. -1.
         13   -1    0    0    0    0 -0.00000000000E+00 -0.00000000000E+00 -0.10000000000E+04  0.10000000000E+04  0.00000000000E+00 0.  1.
    9000005    2    1    2  501    0 -0.51201354315E+01  0.68852527966E+01 -0.66273326247E+03  0.66284490457E+03  0.86236791585E+01 0.  0.
         13    1    3    3    0    0 -0.92160619922E+00  0.72235395454E+01 -0.30534930634E+03  0.30543612715E+03  0.00000000000E+00 0.  1.
          3    1    3    3  501    0 -0.41985292323E+01 -0.33828674881E+00 -0.35738395613E+03  0.35740877743E+03  0.00000000000E+00 0.  1.
         -3    1    1    2    0  502  0.51201354315E+01 -0.68852527966E+01 -0.33715633455E+03  0.33726549841E+03  0.00000000000E+00 0. -1.
<mgrwt>
<rscale>  1 0.30000000E+03</rscale>
<asrwt>0</asrwt>
<pdfrwt beam="1">  1       21 0.40146624E-03 0.30000000E+03</pdfrwt>
<pdfrwt beam="2">0</pdfrwt>
<totfact> 0.16839955E+06</totfact>
</mgrwt>
</event>
<event>
 6    1  0.1132867E-002  0.3000000E+03  0.7818608E-02  0.1093470E+00
         21   -1    0    0  501  502  0.00000000000E+00  0.00000000000E+00  0.23762676091E+00  0.23762676091E+00  0.00000000000E+00 0. -1.
         13   -1    0    0    0    0 -0.00000000000E+00 -0.00000000000E+00 -0.10000000000E+04  0.10000000000E+04  0.00000000000E+00 0.  1.
    9000005    2    1    2  501    0 -0.99999551182E+01  0.50341020353E+01 -0.83773428787E+03  0.83782321320E+03  0.48639705209E+01 0.  0.
         13    1    3    3    0    0 -0.97821402004E+01  0.35750692989E+01 -0.65316411458E+03  0.65324714462E+03  0.00000000000E+00 0.  1.
          1    1    3    3  501    0 -0.21781491784E+00  0.14590327364E+01 -0.18457017330E+03  0.18457606857E+03  0.00000000000E+00 0.  1.
         -1    1    1    2    0  502  0.99999551182E+01 -0.50341020353E+01 -0.16202808537E+03  0.16241441356E+03  0.00000000000E+00 0. -1.
<mgrwt>
<rscale>  1 0.30000000E+03</rscale>
<asrwt>0</asrwt>
<pdfrwt beam="1">  1       21 0.86409913E-03 0.30000000E+03</pdfrwt>
<pdfrwt beam="2">0</pdfrwt>
<totfact> 0.50920843E+05</totfact>
</mgrwt>
</event>
<event>
 6    1  0.1132867E-002  0.3000000E+03  0.7818608E-02  0.1093470E+00
         21   -1    0    0  501  502  0.00000000000E+00  0.00000000000E+00  0.34062978253E+00  0.34062978253E+00  0.00000000000E+00 0. -1.
         13   -1    0    0    0    0 -0.00000000000E+00 -0.00000000000E+00 -0.10000000000E+04  0.10000000000E+04  0.00000000000E+00 0.  1.
    9000005    2    1    2  501    0  0.63416654263E+01  0.86028763637E+01 -0.83679449515E+03  0.83712545362E+03  0.20970735972E+02 0.  0.
         13    1    3    3    0    0  0.94294281960E+01  0.48960874125E+01 -0.18003425135E+03  0.18034749082E+03  0.00000000000E+00 0.  1.
          3    1    3    3  501    0 -0.30877627697E+01  0.37067889512E+01 -0.65676024381E+03  0.65677796279E+03  0.00000000000E+00 0.  1.
         -3    1    1    2    0  502 -0.63416654263E+01 -0.86028763637E+01 -0.16286487506E+03  0.16321517617E+03  0.00000000000E+00 0. -1.
<mgrwt>
<rscale>  1 0.30000000E+03</rscale>
<asrwt>0</asrwt>
<pdfrwt beam="1">  1       21 0.12386564E-02 0.30000000E+03</pdfrwt>
<pdfrwt beam="2">0</pdfrwt>
<totfact> 0.28733405E+05</totfact>
</mgrwt>
</event>
<event>
 6    1  0.1132867E-002  0.3000000E+03  0.7818608E-02  0.1093470E+00
         21   -1    0    0  501  502  0.00000000000E+00  0.00000000000E+00  0.15741718100E+00  0.15741718100E+00  0.00000000000E+00 0. -1.
         13   -1    0    0    0    0 -0.00000000000E+00 -0.00000000000E+00 -0.10000000000E+04  0.10000000000E+04  0.00000000000E+00 0.  1.
    9000005    2    1    2  501    0  0.32400398369E+01 -0.10917500683E+02 -0.55684582634E+03  0.55701430719E+03  0.76140938801E+01 0.  0.
         13    1    3    3    0    0 -0.10576106110E+01 -0.25226375126E+01 -0.45889695275E+02  0.45971147176E+02  0.00000000000E+00 0.  1.
          3    1    3    3  501    0  0.42976504479E+01 -0.83948631706E+01 -0.51095613107E+03  0.51104316002E+03  0.00000000000E+00 0.  1.
         -1    1    1    2    0  502 -0.32400398369E+01  0.10917500683E+02 -0.44299675648E+03  0.44314310999E+03  0.00000000000E+00 0. -1.
<mgrwt>
<rscale>  1 0.30000000E+03</rscale>
<asrwt>0</asrwt>
<pdfrwt beam="1">  1       21 0.57242732E-03 0.30000000E+03</pdfrwt>
<pdfrwt beam="2">0</pdfrwt>
<totfact> 0.97155804E+05</totfact>
</mgrwt>
</event>
<event>
 6    1  0.1132867E-002  0.3000000E+03  0.7818608E-02  0.1093470E+00
         21   -1    0    0  501  502  0.00000000000E+00  0.00000000000E+00  0.11572361036E+00  0.11572361036E+00  0.00000000000E+00 0. -1.
         13   -1    0    0    0    0 -0.00000000000E+00 -0.00000000000E+00 -0.10000000000E+04  0.10000000000E+04  0.00000000000E+00 0.  1.
    9000005    2    1    2  501    0 -0.47715617623E+01  0.77844755056E+01 -0.70207749700E+03  0.70216901074E+03  0.67187787232E+01 0.  0.
         13    1    3    3    0    0 -0.59502243712E+01  0.43113889227E+01 -0.54018486308E+03  0.54023483741E+03  0.00000000000E+00 0.  1.
          1    1    3    3  501    0  0.11786626089E+01  0.34730865829E+01 -0.16189263392E+03  0.16193417334E+03  0.00000000000E+00 0.  1.
         -1    1    1    2    0  502  0.47715617623E+01 -0.77844755056E+01 -0.29780677938E+03  0.29794671287E+03  0.00000000000E+00 0. -1.
<mgrwt>
<rscale>  1 0.30000000E+03</rscale>
<asrwt>0</asrwt>
<pdfrwt beam="1">  1       21 0.42081402E-03 0.30000000E+03</pdfrwt>
<pdfrwt beam="2">0</pdfrwt>
<totfact> 0.15659894E+06</totfact>
</mgrwt>
</event>
<event>
 6    1  0.1132867E-002  0.3000000E+03  0.7818608E-02  0.1093470E+00
         21   -1    0    0  501  502  0.00000000000E+00  0.00000000000E+00  0.93784917385E+00  0.93784917385E+00  0.00000000000E+00 0. -1.
         13   -1    0    0    0    0 -0.00000000000E+00 -0.00000000000E+00 -0.10000000000E+04  0.10000000000E+04  0.00000000000E+00 0.  1.
    9000005    2    1    2  501    0 -0.22602795794E+02  0.44577473737E+01 -0.81825387963E+03  0.81866775064E+03  0.12112658941E+02 0.  0.
         13    1    3    3    0    0 -0.50195736160E+01 -0.12584195407E+01 -0.72383989947E+02  0.72568738032E+02  0.00000000000E+00 0.  1.
          3    1    3    3  501    0 -0.17583222178E+02  0.57161669145E+01 -0.74586988969E+03  0.74609901260E+03  0.00000000000E+00 0.  1.
         -3    1    1    2    0  502  0.22602795794E+02 -0.44577473737E+01 -0.18080827119E+03  0.18227009854E+03  0.00000000000E+00 0. -1.
<mgrwt>
<rscale>  1 0.30000000E+03</rscale>
<asrwt>0</asrwt>
<pdfrwt beam="1">  1       21 0.34103678E-02 0.30000000E+03</pdfrwt>
<pdfrwt beam="2">0</pdfrwt>
<totfact> 0.54950687E+04</totfact>
</mgrwt>
</event>
<event>
 6    1  0.1132867E-002  0.3000000E+03  0.7818608E-02  0.1093470E+00
         21   -1    0    0  501  502  0.00000000000E+00  0.00000000000E+00  0.21520714525E+00  0.21520714525E+00  0.00000000000E+00 0. -1.
         13   -1    0    0    0    0 -0.00000000000E+00 -0.00000000000E+00 -0.10000000000E+04  0.10000000000E+04  0.00000000000E+00 0.  1.
    9000005    2    1    2  501    0 -0.93006240840E+01  0.65951845744E+01 -0.79196416432E+03  0.79208204853E+03  0.75323288972E+01 0.  0.
         13    1    3    3    0    0 -0.27242888550E+00  0.42203987124E+01 -0.20461900720E+03  0.20466270811E+03  0.00000000000E+00 0.  1.
          3    1    3    3  501    0 -0.90281951985E+01  0.23747858620E+01 -0.58734515712E+03  0.58741934043E+03  0.00000000000E+00 0.  1.
         -1    1    1    2    0  502  0.93006240840E+01 -0.65951845744E+01 -0.20782062854E+03  0.20813315861E+03  0.00000000000E+00 0. -1.
<mgrwt>
<rscale>  1 0.30000000E+03</rscale>
<asrwt>0</asrwt>
<pdfrwt beam="1">  1       21 0.78257309E-03 0.30000000E+03</pdfrwt>
<pdfrwt beam="2">0</pdfrwt>
<totfact> 0.59535443E+05</totfact>
</mgrwt>
</event>
<event>
 6    1  0.1132867E-002  0.3000000E+03  0.7818608E-02  0.1093470E+00
         21   -1    0    0  501  502  0.00000000000E+00  0.00000000000E+00  0.24354271563E+00  0.24354271563E+00  0.00000000000E+00 0. -1.
         13   -1    0    0    0    0 -0.00000000000E+00 -0.00000000000E+00 -0.10000000000E+04  0.10000000000E+04  0.00000000000E+00 0.  1.
    9000005    2    1    2  501    0  0.10604350797E+02  0.81323433470E+01 -0.65829274753E+03  0.65851843047E+03  0.10890112309E+02 0.  0.
         13    1    3    3    0    0  0.83787980466E+01  0.46241187578E+01 -0.60061765472E+03  0.60069389367E+03  0.00000000000E+00 0.  1.
          1    1    3    3  501    0  0.22255527502E+01  0.35082245892E+01 -0.57675092809E+02  0.57824536793E+02  0.00000000000E+00 0.  1.
         -1    1    1    2    0  502 -0.10604350797E+02 -0.81323433470E+01 -0.34146370975E+03  0.34172511225E+03  0.00000000000E+00 0. -1.
<mgrwt>
<rscale>  1 0.30000000E+03</rscale>
<asrwt>0</asrwt>
<pdfrwt beam="1">  1       21 0.88561174E-03 0.30000000E+03</pdfrwt>
<pdfrwt beam="2">0</pdfrwt>
<totfact> 0.48980777E+05</totfact>
</mgrwt>
</event>
<event>
 6    1  0.1132867E-002  0.3000000E+03  0.7818608E-02  0.1093470E+00
         21   -1    0    0  501  502  0.00000000000E+00  0.00000000000E+00  0.63017615965E+00  0.63017615965E+00  0.00000000000E+00 0. -1.
         13   -1    0    0    0    0 -0.00000000000E+00 -0.00000000000E+00 -0.10000000000E+04  0.10000000000E+04  0.00000000000E+00 0.  1.
    9000005    2    1    2  501    0  0.23313870943E+02 -0.19256944646E+01 -0.59395038095E+03  0.59453638213E+03  0.12215144932E+02 0.  0.
         13    1    3    3    0    0  0.53725667616E+01 -0.46710211349E-01 -0.29087182875E+03  0.29092144544E+03  0.00000000000E+00 0.  1.
          1    1    3    3  501    0  0.17941304181E+02 -0.18789842532E+01 -0.30307855220E+03  0.30361493669E+03  0.00000000000E+00 0.  1.
         -1    1    1    2    0  502 -0.23313870943E+02  0.19256944646E+01 -0.40541944289E+03  0.40609379403E+03  0.00000000000E+00 0. -1.
<mgrwt>
<rscale>  1 0.30000000E+03</rscale>
<asrwt>0</asrwt>
<pdfrwt beam="1">  1       21 0.22915545E-02 0.30000000E+03</pdfrwt>
<pdfrwt beam="2">0</pdfrwt>
<totfact> 0.10610841E+05</totfact>
</mgrwt>
</event>
<event>
 6    1  0.1132867E-002  0.3000000E+03  0.7818608E-02  0.1093470E+00
         21   -1    0    0  501  502  0.00000000000E+00  0.00000000000E+00  0.42104559457E+00  0.42104559457E+00  0.00000000000E+00 0. -1.
         13   -1    0    0    0    0 -0.00000000000E+00 -0.00000000000E+00 -0.10000000000E+04  0.10000000000E+04  0.00000000000E+00 0.  1.
    9000005    2    1    2  501    0  0.59201682066E+01 -0.17537355153E+02 -0.68618398881E+03  0.68647994972E+03  0.79779479368E+01 0.  0.
         13    1    3    3    0    0 -0.13525356921E+01 -0.79683781986E+01 -0.30096988889E+03  0.30107839249E+03  0.00000000000E+00 0.  1.
          1    1    3    3  501    0  0.72727038987E+01 -0.95689769539E+01 -0.38521409992E+03  0.38540155723E+03  0.00000000000E+00 0.  1.
         -3    1    1    2    0  502 -0.59201682066E+01  0.17537355153E+02 -0.31339496559E+03  0.31394109587E+03  0.00000000000E+00 0. -1.
<mgrwt>
<rscale>  1 0.30000000E+03</rscale>
<asrwt>0</asrwt>
<pdfrwt beam="1">  1       21 0.15310781E-02 0.30000000E+03</pdfrwt>
<pdfrwt beam="2">0</pdfrwt>
<totfact> 0.20443522E+05</totfact>
</mgrwt>
</event>
<event>
 6    1  0.1132867E-002  0.3000000E+03  0.7818608E-02  0.1093470E+00
         21   -1    0    0  501  502  0.00000000000E+00  0.00000000000E+00  0.14472454880E+01  0.14472454880E+01  0.00000000000E+00 0. -1.
         13   -1    0    0    0    0 -0.00000000000E+00 -0.00000000000E+00 -0.10000000000E+04  0.10000000000E+04  0.00000000000E+00 0.  1.
    9000005    2    1    2  501    0 -0.20615543691E+02 -0.22220481534E+02 -0.71974628127E+03  0.72099796316E+03  0.29742276738E+02 0.  0.
         13    1    3    3    0    0  0.49432096939E+01 -0.10825710691E+02 -0.34641450816E+03  0.34661887253E+03  0.00000000000E+00 0.  1.
          1    1    3    3  501    0 -0.25558753385E+02 -0.11394770844E+02 -0.37333177312E+03  0.37437909062E+03  0.00000000000E+00 0.  1.
         -1    1    1    2    0  502  0.20615543691E+02  0.22220481534E+02 -0.27880647324E+03  0.28044928233E+03  0.00000000000E+00 0. -1.
<mgrwt>
<rscale>  1 0.30000000E+03</rscale>
<asrwt>0</asrwt>
<pdfrwt beam="1">  1       21 0.52627220E-02 0.30000000E+03</pdfrwt>
<pdfrwt beam="2">0</pdfrwt>
<totfact> 0.26393507E+04</totfact>
</mgrwt>
</event>
<event>
 6    1  0.1132867E-002  0.3000000E+03  0.7818608E-02  0.1093470E+00
         21   -1    0    0  501  502  0.00000000000E+00  0.00000000000E+00  0.48527954181E+00  0.48527954181E+00  0.00000000000E+00 0. -1.
         13   -1    0    0    0    0 -0.00000000000E+00 -0.00000000000E+00 -0.10000000000E+04  0.10000000000E+04  0.00000000000E+00 0.  1.
    9000005    2    1    2  501    0 -0.35347607138E+00 -0.10726108040E+02 -0.93480283338E+03  0.93488952763E+03  0.68496165551E+01 0.  0.
         13    1    3    3    0    0  0.95566768742E+00 -0.25815621917E+01 -0.50522189251E+03  0.50522939190E+03  0.00000000000E+00 0.  1.
          3    1    3    3  501    0 -0.13091437588E+01 -0.81445458487E+01 -0.42958094086E+03  0.42966013573E+03  0.00000000000E+00 0.  1.
         -1    1    1    2    0  502  0.35347607138E+00  0.10726108040E+02 -0.64711887081E+02  0.65595751910E+02  0.00000000000E+00 0. -1.
<mgrwt>
<rscale>  1 0.30000000E+03</rscale>
<asrwt>0</asrwt>
<pdfrwt beam="1">  1       21 0.17646566E-02 0.30000000E+03</pdfrwt>
<pdfrwt beam="2">0</pdfrwt>
<totfact> 0.16248469E+05</totfact>
</mgrwt>
</event>
<event>
 6    1  0.1132867E-002  0.3000000E+03  0.7818608E-02  0.1093470E+00
         21   -1    0    0  501  502  0.00000000000E+00  0.00000000000E+00  0.19502258225E+01  0.19502258225E+01  0.00000000000E+00 0. -1.
         13   -1    0    0    0    0 -0.00000000000E+00 -0.00000000000E+00 -0.10000000000E+04  0.10000000000E+04  0.00000000000E+00 0.  1.
    9000005    2    1    2  501    0  0.10425920629E+02 -0.29436035271E+02 -0.77966185009E+03  0.78134092098E+03  0.40569130227E+02 0.  0.
         13    1    3    3    0    0 -0.15295939839E+02 -0.14880237448E+02 -0.36943040426E+03  0.37004622797E+03  0.00000000000E+00 0.  1.
          1    1    3    3  501    0  0.25721860468E+02 -0.14555797823E+02 -0.41023144583E+03  0.41129469302E+03  0.00000000000E+00 0.  1.
         -3    1    1    2    0  502 -0.10425920629E+02  0.29436035271E+02 -0.21838792409E+03  0.22060930484E+03  0.00000000000E+00 0. -1.
<mgrwt>
<rscale>  1 0.30000000E+03</rscale>
<asrwt>0</asrwt>
<pdfrwt beam="1">  1       21 0.70917452E-02 0.30000000E+03</pdfrwt>
<pdfrwt beam="2">0</pdfrwt>
<totfact> 0.15773559E+04</totfact>
</mgrwt>
</event>
<event>
 6    1  0.1132867E-002  0.3000000E+03  0.7818608E-02  0.1093470E+00
         21   -1    0    0  501  502  0.00000000000E+00  0.00000000000E+00  0.35632441439E+00  0.35632441439E+00  0.00000000000E+00 0. -1.
         13   -1    0    0    0    0 -0.00000000000E+00 -0.00000000000E+00 -0.10000000000E+04  0.10000000000E+04  0.00000000000E+00 0.  1.
    9000005    2    1    2  501    0  0.10492928558E+02 -0.64841821098E+01 -0.84382490004E+03  0.84405009620E+03  0.15098238091E+02 0.  0.
         13    1    3    3    0    0  0.48281238448E+01 -0.10720000220E+02 -0.41366557775E+03  0.41383262245E+03  0.00000000000E+00 0.  1.
          3    1    3    3  501    0  0.56648047131E+01  0.42358181102E+01 -0.43015932229E+03  0.43021747375E+03  0.00000000000E+00 0.  1.
         -3    1    1    2    0  502 -0.10492928558E+02  0.64841821098E+01 -0.15581877555E+03  0.15630622822E+03  0.00000000000E+00 0. -1.
<mgrwt>
<rscale>  1 0.30000000E+03</rscale>
<asrwt>0</asrwt>
<pdfrwt beam="1">  1       21 0.12957279E-02 0.30000000E+03</pdfrwt>
<pdfrwt beam="2">0</pdfrwt>
<totfact> 0.26734148E+05</totfact>
</mgrwt>
</event>
<event>
 6    1  0.1132867E-002  0.3000000E+03  0.7818608E-02  0.1093470E+00
         21   -1    0    0  501  502  0.00000000000E+00  0.00000000000E+00  0.72289973294E+00  0.72289973294E+00  0.00000000000E+00 0. -1.
         13   -1    0    0    0    0 -0.00000000000E+00 -0.00000000000E+00 -0.10000000000E+04  0.10000000000E+04  0.00000000000E+00 0.  1.
    9000005    2    1    2  501    0  0.13578337452E+02 -0.21978128968E+02 -0.58942382932E+03  0.59005623063E+03  0.88597596795E+01 0.  0.
         13    1    3    3    0    0  0.48182619840E+01 -0.18090604599E+01 -0.14039975246E+03  0.14049405268E+03  0.00000000000E+00 0.  1.
          1    1    3    3  501    0  0.87600754682E+01 -0.20169068508E+02 -0.44902407686E+03  0.44956217795E+03  0.00000000000E+00 0.  1.
         -1    1    1    2    0  502 -0.13578337452E+02  0.21978128968E+02 -0.40985327095E+03  0.41066666910E+03  0.00000000000E+00 0. -1.
<mgrwt>
<rscale>  1 0.30000000E+03</rscale>
<asrwt>0</asrwt>
<pdfrwt beam="1">  1       21 0.26287318E-02 0.30000000E+03</pdfrwt>
<pdfrwt beam="2">0</pdfrwt>
<totfact> 0.84666528E+04</totfact>
</mgrwt>
</event>
<event>
 6    1  0.1132867E-002  0.3000000E+03  0.7818608E-02  0.1093470E+00
         21   -1    0    0  501  502  0.00000000000E+00  0.00000000000E+00  0.11672795412E+00  0.11672795412E+00  0.00000000000E+00 0. -1.
         13   -1    0    0    0    0 -0.00000000000E+00 -0.00000000000E+00 -0.10000000000E+04  0.10000000000E+04  0.00000000000E+00 0.  1.
    9000005    2    1    2  501    0  0.34874475177E+01 -0.87856724728E+01 -0.42093454056E+03  0.42109083559E+03  0.65003120101E+01 0.  0.
         13    1    3    3    0    0  0.75938731535E+00 -0.57748416365E+01 -0.34382392659E+03  0.34387325858E+03  0.00000000000E+00 0.  1.
          3    1    3    3  501    0  0.27280602023E+01 -0.30108308363E+01 -0.77110613964E+02  0.77217577019E+02  0.00000000000E+00 0.  1.
         -3    1    1    2    0  502 -0.34874475177E+01  0.87856724728E+01 -0.57894873149E+03  0.57902589236E+03  0.00000000000E+00 0. -1.
<mgrwt>
<rscale>  1 0.30000000E+03</rscale>
<asrwt>0</asrwt>
<pdfrwt beam="1">  1       21 0.42446618E-03 0.30000000E+03</pdfrwt>
<pdfrwt beam="2">0</pdfrwt>
<totfact> 0.15452279E+06</totfact>
</mgrwt>
</event>
<event>
 6    1  0.1132867E-002  0.3000000E+03  0.7818608E-02  0.1093470E+00
         21   -1    0    0  501  502  0.00000000000E+00  0.00000000000E+00  0.32423294780E+00  0.32423294780E+00  0.00000000000E+00 0. -1.
         13   -1    0    0    0    0 -0.00000000000E+00 -0.00000000000E+00 -0.10000000000E+04  0.10000000000E+04  0.00000000000E+00 0.  1.
    9000005    2    1    2  501    0  0.12594261750E+02  0.59180038492E+01 -0.79346405478E+03  0.79364354087E+03  0.95512062958E+01 0.  0.
         13    1    3    3    0    0  0.13801543401E+02  0.54169543491E+01 -0.63074030812E+03  0.63091454436E+03  0.00000000000E+00 0.  1.
          1    1    3    3  501    0 -0.12072816507E+01  0.50104950014E+00 -0.16272374666E+03  0.16272899651E+03  0.00000000000E+00 0.  1.
         -3    1    1    2    0  502 -0.12594261750E+02 -0.59180038492E+01 -0.20621171227E+03  0.20668069207E+03  0.00000000000E+00 0. -1.
<mgrwt>
<rscale>  1 0.30000000E+03</rscale>
<asrwt>0</asrwt>
<pdfrwt beam="1">  1       21 0.11790314E-02 0.30000000E+03</pdfrwt>
<pdfrwt beam="2">0</pdfrwt>
<totfact> 0.31089574E+05</totfact>
</mgrwt>
</event>
<event>
 6    1  0.1132867E-002  0.3000000E+03  0.7818608E-02  0.1093470E+00
         21   -1    0    0  501  502  0.00000000000E+00  0.00000000000E+00  0.19194637404E+00  0.19194637404E+00  0.00000000000E+00 0. -1.
         13   -1    0    0    0    0 -0.00000000000E+00 -0.00000000000E+00 -0.10000000000E+04  0.10000000000E+04  0.00000000000E+00 0.  1.
    9000005    2    1    2  501    0 -0.12936505479E+02 -0.15942431125E+01 -0.41204415668E+03  0.41228354081E+03  0.52379556921E+01 0.  0.
         13    1    3    3    0    0 -0.62474884719E+01 -0.32986047461E+01 -0.23033686635E+03  0.23044518633E+03  0.00000000000E+00 0.  1.
          1    1    3    3  501    0 -0.66890170072E+01  0.17043616337E+01 -0.18170729034E+03  0.18183835448E+03  0.00000000000E+00 0.  1.
         -1    1    1    2    0  502  0.12936505479E+02  0.15942431125E+01 -0.58776389694E+03  0.58790840556E+03  0.00000000000E+00 0. -1.
<mgrwt>
<rscale>  1 0.30000000E+03</rscale>
<asrwt>0</asrwt>
<pdfrwt beam="1">  1       21 0.69798829E-03 0.30000000E+03</pdfrwt>
<pdfrwt beam="2">0</pdfrwt>
<totfact> 0.71253873E+05</totfact>
</mgrwt>
</event>
<event>
 6    1  0.1132867E-002  0.3000000E+03  0.7818608E-02  0.1093470E+00
         21   -1    0    0  501  502  0.00000000000E+00  0.00000000000E+00  0.28582512882E+00  0.28582512882E+00  0.00000000000E+00 0. -1.
         13   -1    0    0    0    0 -0.00000000000E+00 -0.00000000000E+00 -0.10000000000E+04  0.10000000000E+04  0.00000000000E+00 0.  1.
    9000005    2    1    2  501    0 -0.84918889390E+01 -0.40055024559E+01 -0.88992234665E+03  0.89009325836E+03  0.14699295131E+02 0.  0.
         13    1    3    3    0    0  0.21583892364E+01  0.34465717561E+01 -0.14298746019E+03  0.14304527700E+03  0.00000000000E+00 0.  1.
          3    1    3    3  501    0 -0.10650278175E+02 -0.74520742120E+01 -0.74693488646E+03  0.74704798135E+03  0.00000000000E+00 0.  1.
         -3    1    1    2    0  502  0.84918889390E+01  0.40055024559E+01 -0.10979182822E+03  0.11019256677E+03  0.00000000000E+00 0. -1.
<mgrwt>
<rscale>  1 0.30000000E+03</rscale>
<asrwt>0</asrwt>
<pdfrwt beam="1">  1       21 0.10393663E-02 0.30000000E+03</pdfrwt>
<pdfrwt beam="2">0</pdfrwt>
<totfact> 0.38004441E+05</totfact>
</mgrwt>
</event>
<event>
 6    1  0.1132867E-002  0.3000000E+03  0.7818608E-02  0.1093470E+00
         21   -1    0    0  501  502  0.00000000000E+00  0.00000000000E+00  0.17422858026E+00  0.17422858026E+00  0.00000000000E+00 0. -1.
         13   -1    0    0    0    0 -0.00000000000E+00 -0.00000000000E+00 -0.10000000000E+04  0.10000000000E+04  0.00000000000E+00 0.  1.
    9000005    2    1    2  501    0 -0.82053047475E+01 -0.85510142413E+01 -0.64435642998E+03  0.64450739069E+03  0.73566927472E+01 0.  0.
         13    1    3    3    0    0 -0.82143856858E+01 -0.35516951311E+01 -0.41230371621E+03  0.41240083059E+03  0.00000000000E+00 0.  1.
          1    1    3    3  501    0  0.90809383024E-02 -0.49993191102E+01 -0.23205271377E+03  0.23210656010E+03  0.00000000000E+00 0.  1.
         -1    1    1    2    0  502  0.82053047475E+01  0.85510142413E+01 -0.35546934144E+03  0.35566683789E+03  0.00000000000E+00 0. -1.
<mgrwt>
<rscale>  1 0.30000000E+03</rscale>
<asrwt>0</asrwt>
<pdfrwt beam="1">  1       21 0.63355981E-03 0.30000000E+03</pdfrwt>
<pdfrwt beam="2">0</pdfrwt>
<totfact> 0.82922278E+05</totfact>
</mgrwt>
</event>
<event>
 6    1  0.1132867E-002  0.3000000E+03  0.7818608E-02  0.1093470E+00
         21   -1    0    0  501  502  0.00000000000E+00  0.00000000000E+00  0.25091096240E+00  0.25091096240E+00  0.00000000000E+00 0. -1.
         13   -1    0    0    0    0 -0.00000000000E+00 -0.00000000000E+00 -0.10000000000E+04  0.10000000000E+04  0.00000000000E+00 0.  1.
    9000005    2    1    2  501    0 -0.11618710490E+02  0.92775457245E+01 -0.41056496088E+03  0.41087920808E+03  0.60884513826E+01 0.  0.
         13    1    3    3    0    0 -0.11527606589E+02  0.67658931394E+01 -0.36537468326E+03  0.36561909440E+03  0.00000000000E+00 0.  1.
          3    1    3    3  501    0 -0.91103900740E-01  0.25116525850E+01 -0.45190277620E+02  0.45260113676E+02  0.00000000000E+00 0.  1.
         -1    1    1    2    0  502  0.11618710490E+02 -0.92775457245E+01 -0.58918412816E+03  0.58937170289E+03  0.00000000000E+00 0. -1.
<mgrwt>
<rscale>  1 0.30000000E+03</rscale>
<asrwt>0</asrwt>
<pdfrwt beam="1">  1       21 0.91240542E-03 0.30000000E+03</pdfrwt>
<pdfrwt beam="2">0</pdfrwt>
<totfact> 0.46726374E+05</totfact>
</mgrwt>
</event>
<event>
 6    1  0.1132867E-002  0.3000000E+03  0.7818608E-02  0.1093470E+00
         21   -1    0    0  501  502  0.00000000000E+00  0.00000000000E+00  0.19857311873E+00  0.19857311873E+00  0.00000000000E+00 0. -1.
         13   -1    0    0    0    0 -0.00000000000E+00 -0.00000000000E+00 -0.10000000000E+04  0.10000000000E+04  0.00000000000E+00 0.  1.
    9000005    2    1    2  501    0  0.78799212570E+01  0.84905974120E+01 -0.71424254966E+03  0.71440484372E+03  0.98831970125E+01 0.  0.
         13    1    3    3    0    0  0.24231262232E+01  0.22023831506E+01 -0.48515806071E+03  0.48516911062E+03  0.00000000000E+00 0.  1.
          1    1    3    3  501    0  0.54567950338E+01  0.62882142614E+01 -0.22908448895E+03  0.22923573310E+03  0.00000000000E+00 0.  1.
         -3    1    1    2    0  502 -0.78799212570E+01 -0.84905974120E+01 -0.28555887722E+03  0.28579372940E+03  0.00000000000E+00 0. -1.
<mgrwt>
<rscale>  1 0.30000000E+03</rscale>
<asrwt>0</asrwt>
<pdfrwt beam="1">  1       21 0.72208559E-03 0.30000000E+03</pdfrwt>
<pdfrwt beam="2">0</pdfrwt>
<totfact> 0.67559673E+05</totfact>
</mgrwt>
</event>
<event>
 6    1  0.1132867E-002  0.3000000E+03  0.7818608E-02  0.1093470E+00
         21   -1    0    0  501  502  0.00000000000E+00  0.00000000000E+00  0.50993624901E+00  0.50993624901E+00  0.00000000000E+00 0. -1.
         13   -1    0    0    0    0 -0.00000000000E+00 -0.00000000000E+00 -0.10000000000E+04  0.10000000000E+04  0.00000000000E+00 0.  1.
    9000005    2    1    2  501    0  0.67910653205E+01  0.11191892212E+02 -0.90479287070E+03  0.90491215704E+03  0.66705363572E+01 0.  0.
         13    1    3    3    0    0  0.31574393254E+01  0.96427122350E+01 -0.75111329211E+03  0.75118182147E+03  0.00000000000E+00 0.  1.
          1    1    3    3  501    0  0.36336259950E+01  0.15491799774E+01 -0.15367957859E+03  0.15373033557E+03  0.00000000000E+00 0.  1.
         -1    1    1    2    0  502 -0.67910653205E+01 -0.11191892212E+02 -0.94697193047E+02  0.95597779213E+02  0.00000000000E+00 0. -1.
<mgrwt>
<rscale>  1 0.30000000E+03</rscale>
<asrwt>0</asrwt>
<pdfrwt beam="1">  1       21 0.18543175E-02 0.30000000E+03</pdfrwt>
<pdfrwt beam="2">0</pdfrwt>
<totfact> 0.14992324E+05</totfact>
</mgrwt>
</event>
<event>
 6    1  0.1132867E-002  0.3000000E+03  0.7818608E-02  0.1093470E+00
         21   -1    0    0  501  502  0.00000000000E+00  0.00000000000E+00  0.19581147951E+00  0.19581147951E+00  0.00000000000E+00 0. -1.
         13   -1    0    0    0    0 -0.00000000000E+00 -0.00000000000E+00 -0.10000000000E+04  0.10000000000E+04  0.00000000000E+00 0.  1.
    9000005    2    1    2  501    0  0.60281801916E+01 -0.11124824535E+02 -0.62866914216E+03  0.62884513716E+03  0.78240369171E+01 0.  0.
         13    1    3    3    0    0  0.81766995054E-01 -0.43399327842E+01 -0.35667186116E+03  0.35669827339E+03  0.00000000000E+00 0.  1.
          1    1    3    3  501    0  0.59464131965E+01 -0.67848917503E+01 -0.27199728100E+03  0.27214686377E+03  0.00000000000E+00 0.  1.
         -1    1    1    2    0  502 -0.60281801916E+01  0.11124824535E+02 -0.37113504636E+03  0.37135067432E+03  0.00000000000E+00 0. -1.
<mgrwt>
<rscale>  1 0.30000000E+03</rscale>
<asrwt>0</asrwt>
<pdfrwt beam="1">  1       21 0.71204325E-03 0.30000000E+03</pdfrwt>
<pdfrwt beam="2">0</pdfrwt>
<totfact> 0.69060666E+05</totfact>
</mgrwt>
</event>
<event>
 6    1  0.1132867E-002  0.3000000E+03  0.7818608E-02  0.1093470E+00
         21   -1    0    0  501  502  0.00000000000E+00  0.00000000000E+00  0.41015621576E+00  0.41015621576E+00  0.00000000000E+00 0. -1.
         13   -1    0    0    0    0 -0.00000000000E+00 -0.00000000000E+00 -0.10000000000E+04  0.10000000000E+04  0.00000000000E+00 0.  1.
    9000005    2    1    2  501    0 -0.13986970130E+02 -0.13300606139E+02 -0.61744198549E+03  0.61777517735E+03  0.62468263834E+01 0.  0.
         13    1    3    3    0    0 -0.68219778515E+00 -0.35691609532E+01 -0.14563019533E+03  0.14567552332E+03  0.00000000000E+00 0.  1.
          1    1    3    3  501    0 -0.13304772345E+02 -0.97314451856E+01 -0.47181179016E+03  0.47209965402E+03  0.00000000000E+00 0.  1.
         -3    1    1    2    0  502  0.13986970130E+02  0.13300606139E+02 -0.38214785829E+03  0.38263497887E+03  0.00000000000E+00 0. -1.
<mgrwt>
<rscale>  1 0.30000000E+03</rscale>
<asrwt>0</asrwt>
<pdfrwt beam="1">  1       21 0.14914803E-02 0.30000000E+03</pdfrwt>
<pdfrwt beam="2">0</pdfrwt>
<totfact> 0.21325037E+05</totfact>
</mgrwt>
</event>
<event>
 6    1  0.1132867E-002  0.3000000E+03  0.7818608E-02  0.1093470E+00
         21   -1    0    0  501  502  0.00000000000E+00  0.00000000000E+00  0.45894342174E+00  0.45894342174E+00  0.00000000000E+00 0. -1.
         13   -1    0    0    0    0 -0.00000000000E+00 -0.00000000000E+00 -0.10000000000E+04  0.10000000000E+04  0.00000000000E+00 0.  1.
    9000005    2    1    2  501    0  0.91543948064E+01  0.13934869897E+02 -0.75618533210E+03  0.75653274110E+03  0.15733668614E+02 0.  0.
         13    1    3    3    0    0  0.56997196629E+00  0.12047219344E+02 -0.27153877293E+03  0.27180648551E+03  0.00000000000E+00 0.  1.
          3    1    3    3  501    0  0.85844228401E+01  0.18876505533E+01 -0.48464655916E+03  0.48472625558E+03  0.00000000000E+00 0.  1.
         -3    1    1    2    0  502 -0.91543948064E+01 -0.13934869897E+02 -0.24335572448E+03  0.24392620233E+03  0.00000000000E+00 0. -1.
<mgrwt>
<rscale>  1 0.30000000E+03</rscale>
<asrwt>0</asrwt>
<pdfrwt beam="1">  1       21 0.16688887E-02 0.30000000E+03</pdfrwt>
<pdfrwt beam="2">0</pdfrwt>
<totfact> 0.17786604E+05</totfact>
</mgrwt>
</event>
<event>
 6    1  0.1132867E-002  0.3000000E+03  0.7818608E-02  0.1093470E+00
         21   -1    0    0  501  502  0.00000000000E+00  0.00000000000E+00  0.39214055962E+00  0.39214055962E+00  0.00000000000E+00 0. -1.
         13   -1    0    0    0    0 -0.00000000000E+00 -0.00000000000E+00 -0.10000000000E+04  0.10000000000E+04  0.00000000000E+00 0.  1.
    9000005    2    1    2  501    0  0.10898200131E+02 -0.10227930231E+02 -0.75621121607E+03  0.75653704562E+03  0.16416965797E+02 0.  0.
         13    1    3    3    0    0  0.10195986351E+02 -0.13365117566E+02 -0.71607432474E+03  0.71627161263E+03  0.00000000000E+00 0.  1.
          1    1    3    3  501    0  0.70221377968E+00  0.31371873345E+01 -0.40136891330E+02  0.40265432994E+02  0.00000000000E+00 0.  1.
         -3    1    1    2    0  502 -0.10898200131E+02  0.10227930231E+02 -0.24339664337E+03  0.24385509494E+03  0.00000000000E+00 0. -1.
<mgrwt>
<rscale>  1 0.30000000E+03</rscale>
<asrwt>0</asrwt>
<pdfrwt beam="1">  1       21 0.14259687E-02 0.30000000E+03</pdfrwt>
<pdfrwt beam="2">0</pdfrwt>
<totfact> 0.22923292E+05</totfact>
</mgrwt>
</event>
<event>
 6    1  0.1132867E-002  0.3000000E+03  0.7818608E-02  0.1093470E+00
         21   -1    0    0  501  502  0.00000000000E+00  0.00000000000E+00  0.29590589720E+00  0.29590589720E+00  0.00000000000E+00 0. -1.
         13   -1    0    0    0    0 -0.00000000000E+00 -0.00000000000E+00 -0.10000000000E+04  0.10000000000E+04  0.00000000000E+00 0.  1.
    9000005    2    1    2  501    0 -0.12292913320E+01  0.12143363861E+02 -0.84450502007E+03  0.84461763181E+03  0.64220396237E+01 0.  0.
         13    1    3    3    0    0 -0.27545119359E+01  0.46297386956E+01 -0.49059077813E+03  0.49062035567E+03  0.00000000000E+00 0.  1.
          1    1    3    3  501    0  0.15252206039E+01  0.75136251655E+01 -0.35391424194E+03  0.35399727613E+03  0.00000000000E+00 0.  1.
         -3    1    1    2    0  502  0.12292913320E+01 -0.12143363861E+02 -0.15519907403E+03  0.15567827409E+03  0.00000000000E+00 0. -1.
<mgrwt>
<rscale>  1 0.30000000E+03</rscale>
<asrwt>0</asrwt>
<pdfrwt beam="1">  1       21 0.10760237E-02 0.30000000E+03</pdfrwt>
<pdfrwt beam="2">0</pdfrwt>
<totfact> 0.35965423E+05</totfact>
</mgrwt>
</event>
<event>
 6    1  0.1132867E-002  0.3000000E+03  0.7818608E-02  0.1093470E+00
         21   -1    0    0  501  502  0.00000000000E+00  0.00000000000E+00  0.80565616048E+00  0.80565616048E+00  0.00000000000E+00 0. -1.
         13   -1    0    0    0    0 -0.00000000000E+00 -0.00000000000E+00 -0.10000000000E+04  0.10000000000E+04  0.00000000000E+00 0.  1.
    9000005    2    1    2  501    0  0.15777449873E+02  0.69612247452E+01 -0.17940440645E+03  0.18083435909E+03  0.14755941154E+02 0.  0.
         13    1    3    3    0    0  0.52891778438E+01  0.24004514842E+01 -0.12974509598E+03  0.12987504572E+03  0.00000000000E+00 0.  1.
          1    1    3    3  501    0  0.10488272029E+02  0.45607732610E+01 -0.49659310469E+02  0.50959313370E+02  0.00000000000E+00 0.  1.
         -3    1    1    2    0  502 -0.15777449873E+02 -0.69612247452E+01 -0.81978993739E+03  0.81997129707E+03  0.00000000000E+00 0. -1.
<mgrwt>
<rscale>  1 0.30000000E+03</rscale>
<asrwt>0</asrwt>
<pdfrwt beam="1">  1       21 0.29296649E-02 0.30000000E+03</pdfrwt>
<pdfrwt beam="2">0</pdfrwt>
<totfact> 0.70762058E+04</totfact>
</mgrwt>
</event>
<event>
 6    1  0.1132867E-002  0.3000000E+03  0.7818608E-02  0.1093470E+00
         21   -1    0    0  501  502  0.00000000000E+00  0.00000000000E+00  0.38577673637E+00  0.38577673637E+00  0.00000000000E+00 0. -1.
         13   -1    0    0    0    0 -0.00000000000E+00 -0.00000000000E+00 -0.10000000000E+04  0.10000000000E+04  0.00000000000E+00 0.  1.
    9000005    2    1    2  501    0  0.22263751533E+01  0.95803362151E+01 -0.93001318265E+03  0.93009321353E+03  0.72198583201E+01 0.  0.
         13    1    3    3    0    0  0.45229335010E+01  0.35680149054E+01 -0.42712691644E+03  0.42716576456E+03  0.00000000000E+00 0.  1.
          1    1    3    3  501    0 -0.22965583477E+01  0.60123213096E+01 -0.50288626621E+03  0.50292744897E+03  0.00000000000E+00 0.  1.
         -1    1    1    2    0  502 -0.22263751533E+01 -0.95803362151E+01 -0.69601040609E+02  0.70292563207E+02  0.00000000000E+00 0. -1.
<mgrwt>
<rscale>  1 0.30000000E+03</rscale>
<asrwt>0</asrwt>
<pdfrwt beam="1">  1       21 0.14028275E-02 0.30000000E+03</pdfrwt>
<pdfrwt beam="2">0</pdfrwt>
<totfact> 0.23534157E+05</totfact>
</mgrwt>
</event>
<event>
 6    1  0.1132867E-002  0.3000000E+03  0.7818608E-02  0.1093470E+00
         21   -1    0    0  501  502  0.00000000000E+00  0.00000000000E+00  0.27673724338E+00  0.27673724338E+00  0.00000000000E+00 0. -1.
         13   -1    0    0    0    0 -0.00000000000E+00 -0.00000000000E+00 -0.10000000000E+04  0.10000000000E+04  0.00000000000E+00 0.  1.
    9000005    2    1    2  501    0  0.13881298014E+02 -0.67186975248E+01 -0.64981943226E+03  0.65003321921E+03  0.63293125698E+01 0.  0.
         13    1    3    3    0    0  0.10900040013E+02 -0.33238077610E+01 -0.36469929059E+03  0.36487728229E+03  0.00000000000E+00 0.  1.
          3    1    3    3  501    0  0.29812580016E+01 -0.33948897638E+01 -0.28512014167E+03  0.28515593692E+03  0.00000000000E+00 0.  1.
         -1    1    1    2    0  502 -0.13881298014E+02  0.67186975248E+01 -0.34990383049E+03  0.35024351803E+03  0.00000000000E+00 0. -1.
<mgrwt>
<rscale>  1 0.30000000E+03</rscale>
<asrwt>0</asrwt>
<pdfrwt beam="1">  1       21 0.10063194E-02 0.30000000E+03</pdfrwt>
<pdfrwt beam="2">0</pdfrwt>
<totfact> 0.40007220E+05</totfact>
</mgrwt>
</event>
<event>
 6    1  0.1132867E-002  0.3000000E+03  0.7818608E-02  0.1093470E+00
         21   -1    0    0  501  502  0.00000000000E+00  0.00000000000E+00  0.12397859898E+01  0.12397859898E+01  0.00000000000E+00 0. -1.
         13   -1    0    0    0    0 -0.00000000000E+00 -0.00000000000E+00 -0.10000000000E+04  0.10000000000E+04  0.00000000000E+00 0.  1.
    9000005    2    1    2  501    0  0.85889823804E+01  0.97229291795E+01 -0.96338774800E+03  0.96356330365E+03  0.13037682539E+02 0.  0.
         13    1    3    3    0    0  0.26639604450E+01 -0.24967069453E+01 -0.37988209532E+03  0.37989964014E+03  0.00000000000E+00 0.  1.
          3    1    3    3  501    0  0.59250219354E+01  0.12219636125E+02 -0.58350565268E+03  0.58366366351E+03  0.00000000000E+00 0.  1.
         -3    1    1    2    0  502 -0.85889823804E+01 -0.97229291795E+01 -0.35372466006E+02  0.37676482339E+02  0.00000000000E+00 0. -1.
<mgrwt>
<rscale>  1 0.30000000E+03</rscale>
<asrwt>0</asrwt>
<pdfrwt beam="1">  1       21 0.45083222E-02 0.30000000E+03</pdfrwt>
<pdfrwt beam="2">0</pdfrwt>
<totfact> 0.34350313E+04</totfact>
</mgrwt>
</event>
<event>
 6    1  0.1132867E-002  0.3000000E+03  0.7818608E-02  0.1093470E+00
         21   -1    0    0  501  502  0.00000000000E+00  0.00000000000E+00  0.31012587347E+00  0.31012587347E+00  0.00000000000E+00 0. -1.
         13   -1    0    0    0    0 -0.00000000000E+00 -0.00000000000E+00 -0.10000000000E+04  0.10000000000E+04  0.00000000000E+00 0.  1.
    9000005    2    1    2  501    0  0.90334022246E+01  0.61672598043E+01 -0.88742901808E+03  0.88751767377E+03  0.61417985935E+01 0.  0.
         13    1    3    3    0    0  0.73035167073E+01  0.26065403062E+01 -0.72046410342E+03  0.72050583601E+03  0.00000000000E+00 0.  1.
          1    1    3    3  501    0  0.17298855173E+01  0.35607194981E+01 -0.16696491466E+03  0.16701183776E+03  0.00000000000E+00 0.  1.
         -1    1    1    2    0  502 -0.90334022246E+01 -0.61672598043E+01 -0.11226085605E+03  0.11279245210E+03  0.00000000000E+00 0. -1.
<mgrwt>
<rscale>  1 0.30000000E+03</rscale>
<asrwt>0</asrwt>
<pdfrwt beam="1">  1       21 0.11277328E-02 0.30000000E+03</pdfrwt>
<pdfrwt beam="2">0</pdfrwt>
<totfact> 0.33375123E+05</totfact>
</mgrwt>
</event>
<event>
 6    1  0.1132867E-002  0.3000000E+03  0.7818608E-02  0.1093470E+00
         21   -1    0    0  501  502  0.00000000000E+00  0.00000000000E+00  0.95219219920E-01  0.95219219920E-01  0.00000000000E+00 0. -1.
         13   -1    0    0    0    0 -0.00000000000E+00 -0.00000000000E+00 -0.10000000000E+04  0.10000000000E+04  0.00000000000E+00 0.  1.
    9000005    2    1    2  501    0  0.73582589230E+01  0.23049003235E+01 -0.66118500268E+03  0.66128768593E+03  0.87372335342E+01 0.  0.
         13    1    3    3    0    0  0.39193591464E+01 -0.11614199223E+01 -0.52378546417E+03  0.52380141537E+03  0.00000000000E+00 0.  1.
          3    1    3    3  501    0  0.34388997766E+01  0.34663202458E+01 -0.13739953851E+03  0.13748627055E+03  0.00000000000E+00 0.  1.
         -1    1    1    2    0  502 -0.73582589230E+01 -0.23049003235E+01 -0.33871977810E+03  0.33880753329E+03  0.00000000000E+00 0. -1.
<mgrwt>
<rscale>  1 0.30000000E+03</rscale>
<asrwt>0</asrwt>
<pdfrwt beam="1">  1       21 0.34625244E-03 0.30000000E+03</pdfrwt>
<pdfrwt beam="2">0</pdfrwt>
<totfact> 0.21148789E+06</totfact>
</mgrwt>
</event>
<event>
 6    1  0.1132867E-002  0.3000000E+03  0.7818608E-02  0.1093470E+00
         21   -1    0    0  501  502  0.00000000000E+00  0.00000000000E+00  0.12987276081E+01  0.12987276081E+01  0.00000000000E+00 0. -1.
         13   -1    0    0    0    0 -0.00000000000E+00 -0.00000000000E+00 -0.10000000000E+04  0.10000000000E+04  0.00000000000E+00 0.  1.
    9000005    2    1    2  501    0 -0.89554665916E+01  0.50708794616E+01 -0.97799691536E+03  0.97817764199E+03  0.15735902276E+02 0.  0.
         13    1    3    3    0    0 -0.12520234904E+02 -0.62033773713E-01 -0.67900038769E+03  0.67911581237E+03  0.00000000000E+00 0.  1.
          3    1    3    3  501    0  0.35647683120E+01  0.51329132353E+01 -0.29899652767E+03  0.29906182961E+03  0.00000000000E+00 0.  1.
         -3    1    1    2    0  502  0.89554665916E+01 -0.50708794616E+01 -0.20704357028E+02  0.23121085622E+02  0.00000000000E+00 0. -1.
<mgrwt>
<rscale>  1 0.30000000E+03</rscale>
<asrwt>0</asrwt>
<pdfrwt beam="1">  1       21 0.47226558E-02 0.30000000E+03</pdfrwt>
<pdfrwt beam="2">0</pdfrwt>
<totfact> 0.31743708E+04</totfact>
</mgrwt>
</event>
<event>
 6    1  0.1132867E-002  0.3000000E+03  0.7818608E-02  0.1093470E+00
         21   -1    0    0  501  502  0.00000000000E+00  0.00000000000E+00  0.68189783557E+00  0.68189783557E+00  0.00000000000E+00 0. -1.
         13   -1    0    0    0    0 -0.00000000000E+00 -0.00000000000E+00 -0.10000000000E+04  0.10000000000E+04  0.00000000000E+00 0.  1.
    9000005    2    1    2  501    0  0.15993621309E+02  0.17763942413E+02 -0.32892857043E+03  0.32986636594E+03  0.68162571111E+01 0.  0.
         13    1    3    3    0    0  0.15812733688E+02  0.15011547205E+02 -0.30524506998E+03  0.30602277995E+03  0.00000000000E+00 0.  1.
          1    1    3    3  501    0  0.18088762109E+00  0.27523952081E+01 -0.23683500449E+02  0.23843585998E+02  0.00000000000E+00 0.  1.
         -1    1    1    2    0  502 -0.15993621309E+02 -0.17763942413E+02 -0.67038953173E+03  0.67081553189E+03  0.00000000000E+00 0. -1.
<mgrwt>
<rscale>  1 0.30000000E+03</rscale>
<asrwt>0</asrwt>
<pdfrwt beam="1">  1       21 0.24796337E-02 0.30000000E+03</pdfrwt>
<pdfrwt beam="2">0</pdfrwt>
<totfact> 0.93215579E+04</totfact>
</mgrwt>
</event>
<event>
 6    1  0.1132867E-002  0.3000000E+03  0.7818608E-02  0.1093470E+00
         21   -1    0    0  501  502  0.00000000000E+00  0.00000000000E+00  0.54916358708E+01  0.54916358708E+01  0.00000000000E+00 0. -1.
         13   -1    0    0    0    0 -0.00000000000E+00 -0.00000000000E+00 -0.10000000000E+04  0.10000000000E+04  0.00000000000E+00 0.  1.
    9000005    2    1    2  501    0 -0.16822113989E+01 -0.25165153790E+02 -0.96889944131E+03  0.96954818406E+03  0.24928678890E+02 0.  0.
         13    1    3    3    0    0 -0.47520360882E+01  0.36380334373E+01 -0.23746681956E+03  0.23754222262E+03  0.00000000000E+00 0.  1.
          1    1    3    3  501    0  0.30698246893E+01 -0.28803187227E+02 -0.73143262175E+03  0.73200596144E+03  0.00000000000E+00 0.  1.
         -3    1    1    2    0  502  0.16822113989E+01  0.25165153790E+02 -0.25608922815E+02  0.35943451813E+02  0.00000000000E+00 0. -1.
<mgrwt>
<rscale>  1 0.30000000E+03</rscale>
<asrwt>0</asrwt>
<pdfrwt beam="1">  1       21 0.19969627E-01 0.30000000E+03</pdfrwt>
<pdfrwt beam="2">0</pdfrwt>
<totfact> 0.24061924E+03</totfact>
</mgrwt>
</event>
<event>
 6    1  0.1132867E-002  0.3000000E+03  0.7818608E-02  0.1093470E+00
         21   -1    0    0  501  502  0.00000000000E+00  0.00000000000E+00  0.16632870545E+00  0.16632870545E+00  0.00000000000E+00 0. -1.
         13   -1    0    0    0    0 -0.00000000000E+00 -0.00000000000E+00 -0.10000000000E+04  0.10000000000E+04  0.00000000000E+00 0.  1.
    9000005    2    1    2  501    0  0.63228833927E+01 -0.10610640531E+02 -0.50917915568E+03  0.50935636727E+03  0.52850503499E+01 0.  0.
         13    1    3    3    0    0  0.70675247759E+01 -0.77929041889E+01 -0.39863228094E+03  0.39877108053E+03  0.00000000000E+00 0.  1.
          3    1    3    3  501    0 -0.74464138316E+00 -0.28177363426E+01 -0.11054687474E+03  0.11058528674E+03  0.00000000000E+00 0.  1.
         -3    1    1    2    0  502 -0.63228833927E+01  0.10610640531E+02 -0.49065451562E+03  0.49080996143E+03  0.00000000000E+00 0. -1.
<mgrwt>
<rscale>  1 0.30000000E+03</rscale>
<asrwt>0</asrwt>
<pdfrwt beam="1">  1       21 0.60483293E-03 0.30000000E+03</pdfrwt>
<pdfrwt beam="2">0</pdfrwt>
<totfact> 0.89159832E+05</totfact>
</mgrwt>
</event>
<event>
 6    1  0.1132867E-002  0.3000000E+03  0.7818608E-02  0.1093470E+00
         21   -1    0    0  501  502  0.00000000000E+00  0.00000000000E+00  0.49625912671E+00  0.49625912671E+00  0.00000000000E+00 0. -1.
         13   -1    0    0    0    0 -0.00000000000E+00 -0.00000000000E+00 -0.10000000000E+04  0.10000000000E+04  0.00000000000E+00 0.  1.
    9000005    2    1    2  501    0 -0.11312320896E+02  0.65594900703E+01 -0.41587900887E+03  0.41672505110E+03  0.23095945148E+02 0.  0.
         13    1    3    3    0    0  0.43133670964E+01  0.76150431101E+00 -0.19085132355E+02  0.19581299792E+02  0.00000000000E+00 0.  1.
          1    1    3    3  501    0 -0.15625687993E+02  0.57979857593E+01 -0.39679387651E+03  0.39714375131E+03  0.00000000000E+00 0.  1.
         -3    1    1    2    0  502  0.11312320896E+02 -0.65594900703E+01 -0.58362473200E+03  0.58377120803E+03  0.00000000000E+00 0. -1.
<mgrwt>
<rscale>  1 0.30000000E+03</rscale>
<asrwt>0</asrwt>
<pdfrwt beam="1">  1       21 0.18045824E-02 0.30000000E+03</pdfrwt>
<pdfrwt beam="2">0</pdfrwt>
<totfact> 0.15669125E+05</totfact>
</mgrwt>
</event>
<event>
 6    1  0.1132867E-002  0.3000000E+03  0.7818608E-02  0.1093470E+00
         21   -1    0    0  501  502  0.00000000000E+00  0.00000000000E+00  0.14607777801E+00  0.14607777801E+00  0.00000000000E+00 0. -1.
         13   -1    0    0    0    0 -0.00000000000E+00 -0.00000000000E+00 -0.10000000000E+04  0.10000000000E+04  0.00000000000E+00 0.  1.
    9000005    2    1    2  501    0 -0.82439945010E+01 -0.43891821306E+01 -0.75442669112E+03  0.75454120378E+03  0.92502736518E+01 0.  0.
         13    1    3    3    0    0  0.81863213703E+00  0.15133133617E+01 -0.21030249745E+03  0.21030953547E+03  0.00000000000E+00 0.  1.
          3    1    3    3  501    0 -0.90626266380E+01 -0.59024954923E+01 -0.54412419367E+03  0.54423166831E+03  0.00000000000E+00 0.  1.
         -1    1    1    2    0  502  0.82439945010E+01  0.43891821306E+01 -0.24542723110E+03  0.24560487400E+03  0.00000000000E+00 0. -1.
<mgrwt>
<rscale>  1 0.30000000E+03</rscale>
<asrwt>0</asrwt>
<pdfrwt beam="1">  1       21 0.53119304E-03 0.30000000E+03</pdfrwt>
<pdfrwt beam="2">0</pdfrwt>
<totfact> 0.10914402E+06</totfact>
</mgrwt>
</event>
<event>
 6    1  0.1132867E-002  0.3000000E+03  0.7818608E-02  0.1093470E+00
         21   -1    0    0  501  502  0.00000000000E+00  0.00000000000E+00  0.27876779676E+00  0.27876779676E+00  0.00000000000E+00 0. -1.
         13   -1    0    0    0    0 -0.00000000000E+00 -0.00000000000E+00 -0.10000000000E+04  0.10000000000E+04  0.00000000000E+00 0.  1.
    9000005    2    1    2  501    0 -0.11585512797E+02 -0.10364460070E+01 -0.83794753024E+03  0.83808743334E+03  0.99591241688E+01 0.  0.
         13    1    3    3    0    0  0.13527886847E+01 -0.17509679179E+01 -0.16828173591E+03  0.16829628209E+03  0.00000000000E+00 0.  1.
          3    1    3    3  501    0 -0.12938301482E+02  0.71452191092E+00 -0.66966579433E+03  0.66979115125E+03  0.00000000000E+00 0.  1.
         -3    1    1    2    0  502  0.11585512797E+02  0.10364460070E+01 -0.16177370196E+03  0.16219133446E+03  0.00000000000E+00 0. -1.
<mgrwt>
<rscale>  1 0.30000000E+03</rscale>
<asrwt>0</asrwt>
<pdfrwt beam="1">  1       21 0.10137032E-02 0.30000000E+03</pdfrwt>
<pdfrwt beam="2">0</pdfrwt>
<totfact> 0.39545326E+05</totfact>
</mgrwt>
</event>
<event>
 6    1  0.1132867E-002  0.3000000E+03  0.7818608E-02  0.1093470E+00
         21   -1    0    0  501  502  0.00000000000E+00  0.00000000000E+00  0.10547771628E+00  0.10547771628E+00  0.00000000000E+00 0. -1.
         13   -1    0    0    0    0 -0.00000000000E+00 -0.00000000000E+00 -0.10000000000E+04  0.10000000000E+04  0.00000000000E+00 0.  1.
    9000005    2    1    2  501    0 -0.14985015338E+01  0.92611109811E+01 -0.58692596899E+03  0.58703037596E+03  0.58783959207E+01 0.  0.
         13    1    3    3    0    0  0.32578531462E+00  0.46696855245E+01 -0.14232743572E+03  0.14240439269E+03  0.00000000000E+00 0.  1.
          1    1    3    3  501    0 -0.18242868484E+01  0.45914254565E+01 -0.44459853327E+03  0.44462598327E+03  0.00000000000E+00 0.  1.
         -3    1    1    2    0  502  0.14985015338E+01 -0.92611109811E+01 -0.41296855330E+03  0.41307510176E+03  0.00000000000E+00 0. -1.
<mgrwt>
<rscale>  1 0.30000000E+03</rscale>
<asrwt>0</asrwt>
<pdfrwt beam="1">  1       21 0.38355614E-03 0.30000000E+03</pdfrwt>
<pdfrwt beam="2">0</pdfrwt>
<totfact> 0.18067987E+06</totfact>
</mgrwt>
</event>
<event>
 6    1  0.1132867E-002  0.3000000E+03  0.7818608E-02  0.1093470E+00
         21   -1    0    0  501  502  0.00000000000E+00  0.00000000000E+00  0.36633209012E+00  0.36633209012E+00  0.00000000000E+00 0. -1.
         13   -1    0    0    0    0 -0.00000000000E+00 -0.00000000000E+00 -0.10000000000E+04  0.10000000000E+04  0.00000000000E+00 0.  1.
    9000005    2    1    2  501    0  0.71940615156E+01 -0.12942258589E+02 -0.70611950206E+03  0.70647890103E+03  0.16983222239E+02 0.  0.
         13    1    3    3    0    0  0.11161617830E+02 -0.11075048559E+02 -0.64933268447E+03  0.64952303541E+03  0.00000000000E+00 0.  1.
          3    1    3    3  501    0 -0.39675563143E+01 -0.18672100306E+01 -0.56786817589E+02  0.56955865618E+02  0.00000000000E+00 0.  1.
         -3    1    1    2    0  502 -0.71940615156E+01  0.12942258589E+02 -0.29351416585E+03  0.29388743106E+03  0.00000000000E+00 0. -1.
<mgrwt>
<rscale>  1 0.30000000E+03</rscale>
<asrwt>0</asrwt>
<pdfrwt beam="1">  1       21 0.13321195E-02 0.30000000E+03</pdfrwt>
<pdfrwt beam="2">0</pdfrwt>
<totfact> 0.25572300E+05</totfact>
</mgrwt>
</event>
<event>
 6    1  0.1132867E-002  0.3000000E+03  0.7818608E-02  0.1093470E+00
         21   -1    0    0  501  502  0.00000000000E+00  0.00000000000E+00  0.11307649378E+00  0.11307649378E+00  0.00000000000E+00 0. -1.
         13   -1    0    0    0    0 -0.00000000000E+00 -0.00000000000E+00 -0.10000000000E+04  0.10000000000E+04  0.00000000000E+00 0.  1.
    9000005    2    1    2  501    0  0.10660652963E+01 -0.78059017451E+01 -0.70590962632E+03  0.70603023126E+03  0.10402803988E+02 0.  0.
         13    1    3    3    0    0  0.37096313667E+00 -0.99607771312E+01 -0.44899397964E+03  0.44910460747E+03  0.00000000000E+00 0.  1.
          3    1    3    3  501    0  0.69510215960E+00  0.21548753861E+01 -0.25691564667E+03  0.25692562379E+03  0.00000000000E+00 0.  1.
         -3    1    1    2    0  502 -0.10660652963E+01  0.78059017451E+01 -0.29397729719E+03  0.29408284523E+03  0.00000000000E+00 0. -1.
<mgrwt>
<rscale>  1 0.30000000E+03</rscale>
<asrwt>0</asrwt>
<pdfrwt beam="1">  1       21 0.41118812E-03 0.30000000E+03</pdfrwt>
<pdfrwt beam="2">0</pdfrwt>
<totfact> 0.16229486E+06</totfact>
</mgrwt>
</event>
<event>
 6    1  0.1132867E-002  0.3000000E+03  0.7818608E-02  0.1093470E+00
         21   -1    0    0  501  502  0.00000000000E+00  0.00000000000E+00  0.49017890056E+00  0.49017890056E+00  0.00000000000E+00 0. -1.
         13   -1    0    0    0    0 -0.00000000000E+00 -0.00000000000E+00 -0.10000000000E+04  0.10000000000E+04  0.00000000000E+00 0.  1.
    9000005    2    1    2  501    0  0.13287025787E+02 -0.80792507905E+00 -0.89280836105E+03  0.89296158096E+03  0.98192526395E+01 0.  0.
         13    1    3    3    0    0  0.13745089547E+02 -0.47470725759E+00 -0.61955729204E+03  0.61970992485E+03  0.00000000000E+00 0.  1.
          3    1    3    3  501    0 -0.45806375973E+00 -0.33321782146E+00 -0.27325106901E+03  0.27325165612E+03  0.00000000000E+00 0.  1.
         -3    1    1    2    0  502 -0.13287025787E+02  0.80792507905E+00 -0.10670146005E+03  0.10752859794E+03  0.00000000000E+00 0. -1.
<mgrwt>
<rscale>  1 0.30000000E+03</rscale>
<asrwt>0</asrwt>
<pdfrwt beam="1">  1       21 0.17824725E-02 0.30000000E+03</pdfrwt>
<pdfrwt beam="2">0</pdfrwt>
<totfact> 0.15985793E+05</totfact>
</mgrwt>
</event>
<event>
 6    1  0.1132867E-002  0.3000000E+03  0.7818608E-02  0.1093470E+00
         21   -1    0    0  501  502  0.00000000000E+00  0.00000000000E+00  0.26581836619E+00  0.26581836619E+00  0.00000000000E+00 0. -1.
         13   -1    0    0    0    0 -0.00000000000E+00 -0.00000000000E+00 -0.10000000000E+04  0.10000000000E+04  0.00000000000E+00 0.  1.
    9000005    2    1    2  501    0 -0.90620992751E+01 -0.55529322708E+01 -0.84505635573E+03  0.84522328702E+03  0.13007838415E+02 0.  0.
         13    1    3    3    0    0 -0.12355448017E+02 -0.53976794711E+01 -0.66309935734E+03  0.66323642070E+03  0.00000000000E+00 0.  1.
          3    1    3    3  501    0  0.32933487416E+01 -0.15525279975E+00 -0.18195699839E+03  0.18198686632E+03  0.00000000000E+00 0.  1.
         -3    1    1    2    0  502  0.90620992751E+01  0.55529322708E+01 -0.15467782590E+03  0.15504253135E+03  0.00000000000E+00 0. -1.
<mgrwt>
<rscale>  1 0.30000000E+03</rscale>
<asrwt>0</asrwt>
<pdfrwt beam="1">  1       21 0.96661428E-03 0.30000000E+03</pdfrwt>
<pdfrwt beam="2">0</pdfrwt>
<totfact> 0.42645777E+05</totfact>
</mgrwt>
</event>
<event>
 6    1  0.1132867E-002  0.3000000E+03  0.7818608E-02  0.1093470E+00
         21   -1    0    0  501  502  0.00000000000E+00  0.00000000000E+00  0.26213727846E+00  0.26213727846E+00  0.00000000000E+00 0. -1.
         13   -1    0    0    0    0 -0.00000000000E+00 -0.00000000000E+00 -0.10000000000E+04  0.10000000000E+04  0.00000000000E+00 0.  1.
    9000005    2    1    2  501    0 -0.44023285237E+00 -0.10705608094E+02 -0.86891950164E+03  0.86900571859E+03  0.59190176797E+01 0.  0.
         13    1    3    3    0    0  0.19277797170E+01 -0.89089342951E+01 -0.70903838844E+03  0.70909697624E+03  0.00000000000E+00 0.  1.
          1    1    3    3  501    0 -0.23680125694E+01 -0.17966737994E+01 -0.15988111320E+03  0.15990874235E+03  0.00000000000E+00 0.  1.
         -1    1    1    2    0  502  0.44023285237E+00  0.10705608094E+02 -0.13081836108E+03  0.13125641869E+03  0.00000000000E+00 0. -1.
<mgrwt>
<rscale>  1 0.30000000E+03</rscale>
<asrwt>0</asrwt>
<pdfrwt beam="1">  1       21 0.95322848E-03 0.30000000E+03</pdfrwt>
<pdfrwt beam="2">0</pdfrwt>
<totfact> 0.43598649E+05</totfact>
</mgrwt>
</event>
<event>
 6    1  0.1132867E-002  0.3000000E+03  0.7818608E-02  0.1093470E+00
         21   -1    0    0  501  502  0.00000000000E+00  0.00000000000E+00  0.47093434960E+00  0.47093434960E+00  0.00000000000E+00 0.  1.
         13   -1    0    0    0    0 -0.00000000000E+00 -0.00000000000E+00 -0.10000000000E+04  0.10000000000E+04  0.00000000000E+00 0.  1.
    9000005    2    1    2  501    0  0.89927236268E+00 -0.11030242860E+02 -0.42129004596E+03  0.42212602097E+03  0.24137104222E+02 0.  0.
         13    1    3    3    0    0 -0.93753845255E+01 -0.59184960104E+01 -0.96761655911E+02  0.97394786743E+02  0.00000000000E+00 0.  1.
          1    1    3    3  501    0  0.10274656888E+02 -0.51117468500E+01 -0.32452839005E+03  0.32473123422E+03  0.00000000000E+00 0.  1.
         -1    1    1    2    0  502 -0.89927236268E+00  0.11030242860E+02 -0.57823901969E+03  0.57834491338E+03  0.00000000000E+00 0. -1.
<mgrwt>
<rscale>  1 0.30000000E+03</rscale>
<asrwt>0</asrwt>
<pdfrwt beam="1">  1       21 0.17124922E-02 0.30000000E+03</pdfrwt>
<pdfrwt beam="2">0</pdfrwt>
<totfact> 0.17058634E+05</totfact>
</mgrwt>
</event>
<event>
 6    1  0.1132867E-002  0.3000000E+03  0.7818608E-02  0.1093470E+00
         21   -1    0    0  501  502  0.00000000000E+00  0.00000000000E+00  0.14106175705E+00  0.14106175705E+00  0.00000000000E+00 0.  1.
         13   -1    0    0    0    0 -0.00000000000E+00 -0.00000000000E+00 -0.10000000000E+04  0.10000000000E+04  0.00000000000E+00 0.  1.
    9000005    2    1    2  501    0 -0.28326742678E+01  0.70836199471E+01 -0.66970517277E+03  0.66989916470E+03  0.14201081559E+02 0.  0.
         13    1    3    3    0    0  0.21743750666E+01 -0.35545359759E+01 -0.22505015830E+03  0.22508873002E+03  0.00000000000E+00 0.  1.
          3    1    3    3  501    0 -0.50070493345E+01  0.10638155923E+02 -0.44465501447E+03  0.44481043468E+03  0.00000000000E+00 0.  1.
         -1    1    1    2    0  502  0.28326742678E+01 -0.70836199471E+01 -0.33015376547E+03  0.33024189706E+03  0.00000000000E+00 0. -1.
<mgrwt>
<rscale>  1 0.30000000E+03</rscale>
<asrwt>0</asrwt>
<pdfrwt beam="1">  1       21 0.51295293E-03 0.30000000E+03</pdfrwt>
<pdfrwt beam="2">0</pdfrwt>
<totfact> 0.11523519E+06</totfact>
</mgrwt>
</event>
<event>
 6    1  0.1132867E-002  0.3000000E+03  0.7818608E-02  0.1093470E+00
         21   -1    0    0  501  502  0.00000000000E+00  0.00000000000E+00  0.26152660609E+00  0.26152660609E+00  0.00000000000E+00 0. -1.
         13   -1    0    0    0    0 -0.00000000000E+00 -0.00000000000E+00 -0.10000000000E+04  0.10000000000E+04  0.00000000000E+00 0.  1.
    9000005    2    1    2  501    0 -0.52915791081E+01  0.76117150780E+01 -0.86278198646E+03  0.86299165253E+03  0.16610152282E+02 0.  0.
         13    1    3    3    0    0 -0.93302464282E+01 -0.38515427765E+00 -0.55763243030E+03  0.55771061418E+03  0.00000000000E+00 0.  1.
          1    1    3    3  501    0  0.40386673202E+01  0.79968693556E+01 -0.30514955616E+03  0.30528103835E+03  0.00000000000E+00 0.  1.
         -1    1    1    2    0  502  0.52915791081E+01 -0.76117150780E+01 -0.13695648693E+03  0.13726987407E+03  0.00000000000E+00 0. -1.
<mgrwt>
<rscale>  1 0.30000000E+03</rscale>
<asrwt>0</asrwt>
<pdfrwt beam="1">  1       21 0.95100785E-03 0.30000000E+03</pdfrwt>
<pdfrwt beam="2">0</pdfrwt>
<totfact> 0.43760030E+05</totfact>
</mgrwt>
</event>
<event>
 6    1  0.1132867E-002  0.3000000E+03  0.7818608E-02  0.1093470E+00
         21   -1    0    0  501  502  0.00000000000E+00  0.00000000000E+00  0.38102059489E+00  0.38102059489E+00  0.00000000000E+00 0. -1.
         13   -1    0    0    0    0 -0.00000000000E+00 -0.00000000000E+00 -0.10000000000E+04  0.10000000000E+04  0.00000000000E+00 0.  1.
    9000005    2    1    2  501    0  0.17916498519E+02 -0.90764899448E+00 -0.68377067647E+03  0.68402366693E+03  0.49207910959E+01 0.  0.
         13    1    3    3    0    0  0.68671688191E+01  0.18103230080E+01 -0.22579348428E+03  0.22590514119E+03  0.00000000000E+00 0.  1.
          1    1    3    3  501    0  0.11049329700E+02 -0.27179720024E+01 -0.45797719219E+03  0.45811852574E+03  0.00000000000E+00 0.  1.
         -1    1    1    2    0  502 -0.17916498519E+02  0.90764899448E+00 -0.31584830294E+03  0.31635735366E+03  0.00000000000E+00 0. -1.
<mgrwt>
<rscale>  1 0.30000000E+03</rscale>
<asrwt>0</asrwt>
<pdfrwt beam="1">  1       21 0.13855324E-02 0.30000000E+03</pdfrwt>
<pdfrwt beam="2">0</pdfrwt>
<totfact> 0.24007948E+05</totfact>
</mgrwt>
</event>
<event>
 6    1  0.1132867E-002  0.3000000E+03  0.7818608E-02  0.1093470E+00
         21   -1    0    0  501  502  0.00000000000E+00  0.00000000000E+00  0.25275530514E+00  0.25275530514E+00  0.00000000000E+00 0. -1.
         13   -1    0    0    0    0 -0.00000000000E+00 -0.00000000000E+00 -0.10000000000E+04  0.10000000000E+04  0.00000000000E+00 0.  1.
    9000005    2    1    2  501    0 -0.39913088150E+01  0.11076564663E+02 -0.52957352789E+03  0.52993164712E+03  0.15518000717E+02 0.  0.
         13    1    3    3    0    0 -0.19166877835E+01  0.35176252190E+01 -0.43935011130E+03  0.43936837355E+03  0.00000000000E+00 0.  1.
          1    1    3    3  501    0 -0.20746210315E+01  0.75589394436E+01 -0.90223416593E+02  0.90563273569E+02  0.00000000000E+00 0.  1.
         -3    1    1    2    0  502  0.39913088150E+01 -0.11076564663E+02 -0.47017371680E+03  0.47032110818E+03  0.00000000000E+00 0. -1.
<mgrwt>
<rscale>  1 0.30000000E+03</rscale>
<asrwt>0</asrwt>
<pdfrwt beam="1">  1       21 0.91911214E-03 0.30000000E+03</pdfrwt>
<pdfrwt beam="2">0</pdfrwt>
<totfact> 0.46188181E+05</totfact>
</mgrwt>
</event>
<event>
 6    1  0.1132867E-002  0.3000000E+03  0.7818608E-02  0.1093470E+00
         21   -1    0    0  501  502  0.00000000000E+00  0.00000000000E+00  0.48481153717E+00  0.48481153717E+00  0.00000000000E+00 0. -1.
         13   -1    0    0    0    0 -0.00000000000E+00 -0.00000000000E+00 -0.10000000000E+04  0.10000000000E+04  0.00000000000E+00 0.  1.
    9000005    2    1    2  501    0 -0.97696470218E+01 -0.83258458312E+01 -0.90427481321E+03  0.90438332981E+03  0.56128176229E+01 0.  0.
         13    1    3    3    0    0 -0.22813533884E+01 -0.14784916950E+01 -0.80227811712E+02  0.80273858030E+02  0.00000000000E+00 0.  1.
          3    1    3    3  501    0 -0.74882936334E+01 -0.68473541362E+01 -0.82404700150E+03  0.82410947178E+03  0.00000000000E+00 0.  1.
         -3    1    1    2    0  502  0.97696470218E+01  0.83258458312E+01 -0.95240375252E+02  0.96101481726E+02  0.00000000000E+00 0. -1.
<mgrwt>
<rscale>  1 0.30000000E+03</rscale>
<asrwt>0</asrwt>
<pdfrwt beam="1">  1       21 0.17629548E-02 0.30000000E+03</pdfrwt>
<pdfrwt beam="2">0</pdfrwt>
<totfact> 0.16273921E+05</totfact>
</mgrwt>
</event>
<event>
 6    1  0.1132867E-002  0.3000000E+03  0.7818608E-02  0.1093470E+00
         21   -1    0    0  501  502  0.00000000000E+00  0.00000000000E+00  0.13786798921E+00  0.13786798921E+00  0.00000000000E+00 0. -1.
         13   -1    0    0    0    0 -0.00000000000E+00 -0.00000000000E+00 -0.10000000000E+04  0.10000000000E+04  0.00000000000E+00 0.  1.
    9000005    2    1    2  501    0  0.57547550393E+01 -0.68749300313E+01 -0.71504931712E+03  0.71518397453E+03  0.10592905640E+02 0.  0.
         13    1    3    3    0    0  0.33910743396E+01 -0.84738125264E+01 -0.33607952475E+03  0.33620343817E+03  0.00000000000E+00 0.  1.
          1    1    3    3  501    0  0.23636806997E+01  0.15988824951E+01 -0.37896979237E+03  0.37898053637E+03  0.00000000000E+00 0.  1.
         -3    1    1    2    0  502 -0.57547550393E+01  0.68749300313E+01 -0.28481281489E+03  0.28495389345E+03  0.00000000000E+00 0. -1.
<mgrwt>
<rscale>  1 0.30000000E+03</rscale>
<asrwt>0</asrwt>
<pdfrwt beam="1">  1       21 0.50133920E-03 0.30000000E+03</pdfrwt>
<pdfrwt beam="2">0</pdfrwt>
<totfact> 0.11940836E+06</totfact>
</mgrwt>
</event>
<event>
 6    1  0.1132867E-002  0.3000000E+03  0.7818608E-02  0.1093470E+00
         21   -1    0    0  501  502  0.00000000000E+00  0.00000000000E+00  0.49734699986E+00  0.49734699986E+00  0.00000000000E+00 0. -1.
         13   -1    0    0    0    0 -0.00000000000E+00 -0.00000000000E+00 -0.10000000000E+04  0.10000000000E+04  0.00000000000E+00 0.  1.
    9000005    2    1    2  501    0 -0.61644159605E+01  0.16194397583E+02 -0.23086434595E+03  0.23166374628E+03  0.83358605123E+01 0.  0.
         13    1    3    3    0    0 -0.37374962596E+00 -0.81354456501E+00 -0.45433987042E+01  0.46307683301E+01  0.00000000000E+00 0.  1.
          3    1    3    3  501    0 -0.57906663345E+01  0.17007942148E+02 -0.22632094725E+03  0.22703297795E+03  0.00000000000E+00 0.  1.
         -1    1    1    2    0  502  0.61644159605E+01 -0.16194397583E+02 -0.76863830705E+03  0.76883360072E+03  0.00000000000E+00 0. -1.
<mgrwt>
<rscale>  1 0.30000000E+03</rscale>
<asrwt>0</asrwt>
<pdfrwt beam="1">  1       21 0.18085384E-02 0.30000000E+03</pdfrwt>
<pdfrwt beam="2">0</pdfrwt>
<totfact> 0.15613523E+05</totfact>
</mgrwt>
</event>
<event>
 6    1  0.1132867E-002  0.3000000E+03  0.7818608E-02  0.1093470E+00
         21   -1    0    0  501  502  0.00000000000E+00  0.00000000000E+00  0.17644006714E+00  0.17644006714E+00  0.00000000000E+00 0. -1.
         13   -1    0    0    0    0 -0.00000000000E+00 -0.00000000000E+00 -0.10000000000E+04  0.10000000000E+04  0.00000000000E+00 0.  1.
    9000005    2    1    2  501    0 -0.99180591950E+01  0.44035840888E+01 -0.69445509270E+03  0.69461521833E+03  0.10230655102E+02 0.  0.
         13    1    3    3    0    0 -0.67011506284E+01  0.72207001167E+01 -0.57342506396E+03  0.57350967551E+03  0.00000000000E+00 0.  1.
          1    1    3    3  501    0 -0.32169085667E+01 -0.28171160279E+01 -0.12103002875E+03  0.12110554282E+03  0.00000000000E+00 0.  1.
         -1    1    1    2    0  502  0.99180591950E+01 -0.44035840888E+01 -0.30536846723E+03  0.30556122174E+03  0.00000000000E+00 0. -1.
<mgrwt>
<rscale>  1 0.30000000E+03</rscale>
<asrwt>0</asrwt>
<pdfrwt beam="1">  1       21 0.64160160E-03 0.30000000E+03</pdfrwt>
<pdfrwt beam="2">0</pdfrwt>
<totfact> 0.81301923E+05</totfact>
</mgrwt>
</event>
<event>
 6    1  0.1132867E-002  0.3000000E+03  0.7818608E-02  0.1093470E+00
         21   -1    0    0  501  502  0.00000000000E+00  0.00000000000E+00  0.56388510249E+00  0.56388510249E+00  0.00000000000E+00 0. -1.
         13   -1    0    0    0    0 -0.00000000000E+00 -0.00000000000E+00 -0.10000000000E+04  0.10000000000E+04  0.00000000000E+00 0.  1.
    9000005    2    1    2  501    0  0.91404303331E+01 -0.79363260713E+01 -0.26295791204E+03  0.26398620690E+03  0.19882685738E+02 0.  0.
         13    1    3    3    0    0 -0.67149277329E+00  0.36859163522E+01 -0.12080532169E+02  0.12648167432E+02  0.00000000000E+00 0.  1.
          3    1    3    3  501    0  0.98119231064E+01 -0.11622242423E+02 -0.25087737987E+03  0.25133803947E+03  0.00000000000E+00 0.  1.
         -1    1    1    2    0  502 -0.91404303331E+01  0.79363260713E+01 -0.73647820286E+03  0.73657767820E+03  0.00000000000E+00 0. -1.
<mgrwt>
<rscale>  1 0.30000000E+03</rscale>
<asrwt>0</asrwt>
<pdfrwt beam="1">  1       21 0.20504956E-02 0.30000000E+03</pdfrwt>
<pdfrwt beam="2">0</pdfrwt>
<totfact> 0.12727906E+05</totfact>
</mgrwt>
</event>
<event>
 6    1  0.1132867E-002  0.3000000E+03  0.7818608E-02  0.1093470E+00
         21   -1    0    0  501  502  0.00000000000E+00  0.00000000000E+00  0.14259860615E+02  0.14259860615E+02  0.00000000000E+00 0. -1.
         13   -1    0    0    0    0 -0.00000000000E+00 -0.00000000000E+00 -0.10000000000E+04  0.10000000000E+04  0.00000000000E+00 0.  1.
    9000005    2    1    2  501    0  0.49996865341E+01 -0.42600593749E+02 -0.96610261625E+03  0.96708529365E+03  0.77390322964E+01 0.  0.
         13    1    3    3    0    0  0.61865700190E+01 -0.41221195934E+02 -0.91194861810E+03  0.91290072993E+03  0.00000000000E+00 0.  1.
          3    1    3    3  501    0 -0.11868834850E+01 -0.13793978149E+01 -0.54153998148E+02  0.54184563726E+02  0.00000000000E+00 0.  1.
         -1    1    1    2    0  502 -0.49996865341E+01  0.42600593749E+02 -0.19637523136E+02  0.47174566963E+02  0.00000000000E+00 0. -1.
<mgrwt>
<rscale>  1 0.30000000E+03</rscale>
<asrwt>0</asrwt>
<pdfrwt beam="1">  1       21 0.51854148E-01 0.30000000E+03</pdfrwt>
<pdfrwt beam="2">0</pdfrwt>
<totfact> 0.34709650E+02</totfact>
</mgrwt>
</event>
<event>
 6    1  0.1132867E-002  0.3000000E+03  0.7818608E-02  0.1093470E+00
         21   -1    0    0  501  502  0.00000000000E+00  0.00000000000E+00  0.11587820722E+00  0.11587820722E+00  0.00000000000E+00 0. -1.
         13   -1    0    0    0    0 -0.00000000000E+00 -0.00000000000E+00 -0.10000000000E+04  0.10000000000E+04  0.00000000000E+00 0.  1.
    9000005    2    1    2  501    0  0.73343276832E+01 -0.45382297641E+01 -0.74203448957E+03  0.74212203966E+03  0.74531968133E+01 0.  0.
         13    1    3    3    0    0  0.77335005170E+01 -0.50659211534E+01 -0.49303161640E+03  0.49311828739E+03  0.00000000000E+00 0.  1.
          1    1    3    3  501    0 -0.39917283377E+00  0.52769138928E+00 -0.24900287318E+03  0.24900375228E+03  0.00000000000E+00 0.  1.
         -1    1    1    2    0  502 -0.73343276832E+01  0.45382297641E+01 -0.25784963222E+03  0.25799383855E+03  0.00000000000E+00 0. -1.
<mgrwt>
<rscale>  1 0.30000000E+03</rscale>
<asrwt>0</asrwt>
<pdfrwt beam="1">  1       21 0.42137619E-03 0.30000000E+03</pdfrwt>
<pdfrwt beam="2">0</pdfrwt>
<totfact> 0.15627641E+06</totfact>
</mgrwt>
</event>
<event>
 6    1  0.1132867E-002  0.3000000E+03  0.7818608E-02  0.1093470E+00
         21   -1    0    0  501  502  0.00000000000E+00  0.00000000000E+00  0.12692327021E+01  0.12692327021E+01  0.00000000000E+00 0. -1.
         13   -1    0    0    0    0 -0.00000000000E+00 -0.00000000000E+00 -0.10000000000E+04  0.10000000000E+04  0.00000000000E+00 0.  1.
    9000005    2    1    2  501    0 -0.28137555195E+01  0.11932412659E+02 -0.96796045722E+03  0.96814655657E+03  0.14491672098E+02 0.  0.
         13    1    3    3    0    0 -0.71235853451E+01  0.11344928592E+02 -0.54855437426E+03  0.54871791878E+03  0.00000000000E+00 0.  1.
          3    1    3    3  501    0  0.43098298256E+01  0.58748406763E+00 -0.41940608297E+03  0.41942863779E+03  0.00000000000E+00 0.  1.
         -1    1    1    2    0  502  0.28137555195E+01 -0.11932412659E+02 -0.30770310073E+02  0.33122676130E+02  0.00000000000E+00 0. -1.
<mgrwt>
<rscale>  1 0.30000000E+03</rscale>
<asrwt>0</asrwt>
<pdfrwt beam="1">  1       21 0.46154014E-02 0.30000000E+03</pdfrwt>
<pdfrwt beam="2">0</pdfrwt>
<totfact> 0.33007794E+04</totfact>
</mgrwt>
</event>
<event>
 6    1  0.1132867E-002  0.3000000E+03  0.7818608E-02  0.1093470E+00
         21   -1    0    0  501  502  0.00000000000E+00  0.00000000000E+00  0.10808429466E+01  0.10808429466E+01  0.00000000000E+00 0. -1.
         13   -1    0    0    0    0 -0.00000000000E+00 -0.00000000000E+00 -0.10000000000E+04  0.10000000000E+04  0.00000000000E+00 0.  1.
    9000005    2    1    2  501    0 -0.68423518351E+01  0.12395021630E+02 -0.95031674972E+03  0.95045823596E+03  0.82752135857E+01 0.  0.
         13    1    3    3    0    0 -0.45789022247E-01  0.14173713482E+00 -0.27160230257E+00  0.30976420178E+00  0.00000000000E+00 0.  1.
          3    1    3    3  501    0 -0.67965628128E+01  0.12253284495E+02 -0.95004514742E+03  0.95014847176E+03  0.00000000000E+00 0.  1.
         -3    1    1    2    0  502  0.68423518351E+01 -0.12395021630E+02 -0.48602407330E+02  0.50622606986E+02  0.00000000000E+00 0. -1.
<mgrwt>
<rscale>  1 0.30000000E+03</rscale>
<asrwt>0</asrwt>
<pdfrwt beam="1">  1       21 0.39303463E-02 0.30000000E+03</pdfrwt>
<pdfrwt beam="2">0</pdfrwt>
<totfact> 0.43309242E+04</totfact>
</mgrwt>
</event>
<event>
 6    1  0.1132867E-002  0.3000000E+03  0.7818608E-02  0.1093470E+00
         21   -1    0    0  501  502  0.00000000000E+00  0.00000000000E+00  0.19591866692E+00  0.19591866692E+00  0.00000000000E+00 0. -1.
         13   -1    0    0    0    0 -0.00000000000E+00 -0.00000000000E+00 -0.10000000000E+04  0.10000000000E+04  0.00000000000E+00 0.  1.
    9000005    2    1    2  501    0 -0.47426224372E+00  0.10372805900E+02 -0.82845920893E+03  0.82853670591E+03  0.45378569241E+01 0.  0.
         13    1    3    3    0    0 -0.11040306072E+01  0.32736127077E+00 -0.12809278172E+03  0.12809795775E+03  0.00000000000E+00 0.  1.
          3    1    3    3  501    0  0.62976836345E+00  0.10045444630E+02 -0.70036642721E+03  0.70043874816E+03  0.00000000000E+00 0.  1.
         -3    1    1    2    0  502  0.47426224372E+00 -0.10372805900E+02 -0.17134487240E+03  0.17165921276E+03  0.00000000000E+00 0. -1.
<mgrwt>
<rscale>  1 0.30000000E+03</rscale>
<asrwt>0</asrwt>
<pdfrwt beam="1">  1       21 0.71243302E-03 0.30000000E+03</pdfrwt>
<pdfrwt beam="2">0</pdfrwt>
<totfact> 0.69001406E+05</totfact>
</mgrwt>
</event>
<event>
 6    1  0.1132867E-002  0.3000000E+03  0.7818608E-02  0.1093470E+00
         21   -1    0    0  501  502  0.00000000000E+00  0.00000000000E+00  0.93574009119E-01  0.93574009119E-01  0.00000000000E+00 0. -1.
         13   -1    0    0    0    0 -0.00000000000E+00 -0.00000000000E+00 -0.10000000000E+04  0.10000000000E+04  0.00000000000E+00 0.  1.
    9000005    2    1    2  501    0  0.44060167468E+01 -0.83285885615E+01 -0.51081306074E+03  0.51090945908E+03  0.31167257189E+01 0.  0.
         13    1    3    3    0    0  0.49931808018E+00 -0.29005790267E+01 -0.21898562369E+03  0.21900540190E+03  0.00000000000E+00 0.  1.
          3    1    3    3  501    0  0.39066986666E+01 -0.54280095348E+01 -0.29182743706E+03  0.29190405718E+03  0.00000000000E+00 0.  1.
         -3    1    1    2    0  502 -0.44060167468E+01  0.83285885615E+01 -0.48909336525E+03  0.48918411493E+03  0.00000000000E+00 0. -1.
<mgrwt>
<rscale>  1 0.30000000E+03</rscale>
<asrwt>0</asrwt>
<pdfrwt beam="1">  1       21 0.34026984E-03 0.30000000E+03</pdfrwt>
<pdfrwt beam="2">0</pdfrwt>
<totfact> 0.21722505E+06</totfact>
</mgrwt>
</event>
<event>
 6    1  0.1132867E-002  0.3000000E+03  0.7818608E-02  0.1093470E+00
         21   -1    0    0  501  502  0.00000000000E+00  0.00000000000E+00  0.37493270006E+00  0.37493270006E+00  0.00000000000E+00 0. -1.
         13   -1    0    0    0    0 -0.00000000000E+00 -0.00000000000E+00 -0.10000000000E+04  0.10000000000E+04  0.00000000000E+00 0.  1.
    9000005    2    1    2  501    0 -0.12071464959E+02  0.78120475731E+01 -0.62557379634E+03  0.62604740011E+03  0.19647497419E+02 0.  0.
         13    1    3    3    0    0  0.15947823871E+01  0.66486646473E+01 -0.77221095800E+02  0.77523194652E+02  0.00000000000E+00 0.  1.
          3    1    3    3  501    0 -0.13666247346E+02  0.11633829258E+01 -0.54835270054E+03  0.54852420546E+03  0.00000000000E+00 0.  1.
         -1    1    1    2    0  502  0.12071464959E+02 -0.78120475731E+01 -0.37405127096E+03  0.37432753259E+03  0.00000000000E+00 0. -1.
<mgrwt>
<rscale>  1 0.30000000E+03</rscale>
<asrwt>0</asrwt>
<pdfrwt beam="1">  1       21 0.13633945E-02 0.30000000E+03</pdfrwt>
<pdfrwt beam="2">0</pdfrwt>
<totfact> 0.24637132E+05</totfact>
</mgrwt>
</event>
<event>
 6    1  0.1132867E-002  0.3000000E+03  0.7818608E-02  0.1093470E+00
         21   -1    0    0  501  502  0.00000000000E+00  0.00000000000E+00  0.15494331423E+00  0.15494331423E+00  0.00000000000E+00 0. -1.
         13   -1    0    0    0    0 -0.00000000000E+00 -0.00000000000E+00 -0.10000000000E+04  0.10000000000E+04  0.00000000000E+00 0.  1.
    9000005    2    1    2  501    0  0.87024908040E+01  0.37383565990E+01 -0.69392182050E+03  0.69408512270E+03  0.11702816864E+02 0.  0.
         13    1    3    3    0    0  0.76233570010E+00 -0.47465431157E+00 -0.44524306200E+03  0.44524396763E+03  0.00000000000E+00 0.  1.
          3    1    3    3  501    0  0.79401551039E+01  0.42130109106E+01 -0.24867875850E+03  0.24884115507E+03  0.00000000000E+00 0.  1.
         -3    1    1    2    0  502 -0.87024908040E+01 -0.37383565990E+01 -0.30592323618E+03  0.30606982062E+03  0.00000000000E+00 0. -1.
<mgrwt>
<rscale>  1 0.30000000E+03</rscale>
<asrwt>0</asrwt>
<pdfrwt beam="1">  1       21 0.56343142E-03 0.30000000E+03</pdfrwt>
<pdfrwt beam="2">0</pdfrwt>
<totfact> 0.99582833E+05</totfact>
</mgrwt>
</event>
<event>
 6    1  0.1132867E-002  0.3000000E+03  0.7818608E-02  0.1093470E+00
         21   -1    0    0  501  502  0.00000000000E+00  0.00000000000E+00  0.45603501294E+00  0.45603501294E+00  0.00000000000E+00 0. -1.
         13   -1    0    0    0    0 -0.00000000000E+00 -0.00000000000E+00 -0.10000000000E+04  0.10000000000E+04  0.00000000000E+00 0.  1.
    9000005    2    1    2  501    0 -0.13769994653E+02 -0.10493233782E+02 -0.78289662673E+03  0.78311807266E+03  0.68605295649E+01 0.  0.
         13    1    3    3    0    0 -0.91360432693E+01 -0.98596614411E+01 -0.49091714892E+03  0.49110113756E+03  0.00000000000E+00 0.  1.
          3    1    3    3  501    0 -0.46339513841E+01 -0.63357234137E+00 -0.29197947782E+03  0.29201693510E+03  0.00000000000E+00 0.  1.
         -3    1    1    2    0  502  0.13769994653E+02  0.10493233782E+02 -0.21664733825E+03  0.21733796235E+03  0.00000000000E+00 0. -1.
<mgrwt>
<rscale>  1 0.30000000E+03</rscale>
<asrwt>0</asrwt>
<pdfrwt beam="1">  1       21 0.16583126E-02 0.30000000E+03</pdfrwt>
<pdfrwt beam="2">0</pdfrwt>
<totfact> 0.17970601E+05</totfact>
</mgrwt>
</event>
<event>
 6    1  0.1132867E-002  0.3000000E+03  0.7818608E-02  0.1093470E+00
         21   -1    0    0  501  502  0.00000000000E+00  0.00000000000E+00  0.48019868701E+00  0.48019868701E+00  0.00000000000E+00 0. -1.
         13   -1    0    0    0    0 -0.00000000000E+00 -0.00000000000E+00 -0.10000000000E+04  0.10000000000E+04  0.00000000000E+00 0.  1.
    9000005    2    1    2  501    0  0.12811303572E+02  0.16401058913E+01 -0.87920273245E+03  0.87947186630E+03  0.17507124969E+02 0.  0.
         13    1    3    3    0    0  0.16414573716E+02  0.27878325752E+01 -0.56195016600E+03  0.56219676210E+03  0.00000000000E+00 0.  1.
          3    1    3    3  501    0 -0.36032701445E+01 -0.11477266839E+01 -0.31725256644E+03  0.31727510420E+03  0.00000000000E+00 0.  1.
         -1    1    1    2    0  502 -0.12811303572E+02 -0.16401058913E+01 -0.12031706887E+03  0.12100833239E+03  0.00000000000E+00 0. -1.
<mgrwt>
<rscale>  1 0.30000000E+03</rscale>
<asrwt>0</asrwt>
<pdfrwt beam="1">  1       21 0.17461807E-02 0.30000000E+03</pdfrwt>
<pdfrwt beam="2">0</pdfrwt>
<totfact> 0.16528240E+05</totfact>
</mgrwt>
</event>
<event>
 6    1  0.1132867E-002  0.3000000E+03  0.7818608E-02  0.1093470E+00
         21   -1    0    0  501  502  0.00000000000E+00  0.00000000000E+00  0.34104850916E+00  0.34104850916E+00  0.00000000000E+00 0. -1.
         13   -1    0    0    0    0 -0.00000000000E+00 -0.00000000000E+00 -0.10000000000E+04  0.10000000000E+04  0.00000000000E+00 0.  1.
    9000005    2    1    2  501    0 -0.56344558092E+01 -0.13555055469E+02 -0.27294593744E+03  0.27347978843E+03  0.87305950917E+01 0.  0.
         13    1    3    3    0    0 -0.72025378314E+01 -0.11200281722E+02 -0.25089118657E+03  0.25124432403E+03  0.00000000000E+00 0.  1.
          3    1    3    3  501    0  0.15680820222E+01 -0.23547737476E+01 -0.22054750877E+02  0.22235464395E+02  0.00000000000E+00 0.  1.
         -1    1    1    2    0  502  0.56344558092E+01  0.13555055469E+02 -0.72671301405E+03  0.72686126008E+03  0.00000000000E+00 0. -1.
<mgrwt>
<rscale>  1 0.30000000E+03</rscale>
<asrwt>0</asrwt>
<pdfrwt beam="1">  1       21 0.12401790E-02 0.30000000E+03</pdfrwt>
<pdfrwt beam="2">0</pdfrwt>
<totfact> 0.28677007E+05</totfact>
</mgrwt>
</event>
<event>
 6    1  0.1132867E-002  0.3000000E+03  0.7818608E-02  0.1093470E+00
         21   -1    0    0  501  502  0.00000000000E+00  0.00000000000E+00  0.11940501496E+01  0.11940501496E+01  0.00000000000E+00 0. -1.
         13   -1    0    0    0    0 -0.00000000000E+00 -0.00000000000E+00 -0.10000000000E+04  0.10000000000E+04  0.00000000000E+00 0.  1.
    9000005    2    1    2  501    0  0.33133450758E+01  0.18611503299E+02 -0.91544011313E+03  0.91571171839E+03  0.11831490282E+02 0.  0.
         13    1    3    3    0    0 -0.39870946134E+01  0.11033229966E+02 -0.51218909768E+03  0.51232343385E+03  0.00000000000E+00 0.  1.
          3    1    3    3  501    0  0.73004396892E+01  0.75782733323E+01 -0.40325101545E+03  0.40338828454E+03  0.00000000000E+00 0.  1.
         -1    1    1    2    0  502 -0.33133450758E+01 -0.18611503299E+02 -0.83365836723E+02  0.85482331760E+02  0.00000000000E+00 0. -1.
<mgrwt>
<rscale>  1 0.30000000E+03</rscale>
<asrwt>0</asrwt>
<pdfrwt beam="1">  1       21 0.43420097E-02 0.30000000E+03</pdfrwt>
<pdfrwt beam="2">0</pdfrwt>
<totfact> 0.36609613E+04</totfact>
</mgrwt>
</event>
<event>
 6    1  0.2434644E-002  0.3000000E+03  0.7818608E-02  0.1093470E+00
         21   -1    0    0  501  502  0.00000000000E+00  0.00000000000E+00  0.47211517079E+01  0.47211517079E+01  0.00000000000E+00 0. -1.
         13   -1    0    0    0    0 -0.00000000000E+00 -0.00000000000E+00 -0.10000000000E+04  0.10000000000E+04  0.00000000000E+00 0.  1.
    9000005    2    1    2  501    0  0.64726518749E+01 -0.44601887513E+02 -0.32931352426E+03  0.33723254776E+03  0.56983948738E+02 0.  0.
         13    1    3    3    0    0  0.38109200692E+01 -0.23736598836E+02 -0.30101139820E+03  0.30196988440E+03  0.00000000000E+00 0.  1.
          3    1    3    3  501    0  0.26617318057E+01 -0.20865288677E+02 -0.28302126065E+02  0.35262663365E+02  0.00000000000E+00 0.  1.
         -1    1    1    2    0  502 -0.64726518749E+01  0.44601887513E+02 -0.66596532403E+03  0.66748860395E+03  0.00000000000E+00 0. -1.
<mgrwt>
<rscale>  1 0.30000000E+03</rscale>
<asrwt>0</asrwt>
<pdfrwt beam="1">  1       21 0.17167861E-01 0.30000000E+03</pdfrwt>
<pdfrwt beam="2">0</pdfrwt>
<totfact> 0.32020219E+03</totfact>
</mgrwt>
</event>
<event>
 6    1  0.1132867E-002  0.3000000E+03  0.7818608E-02  0.1093470E+00
         21   -1    0    0  501  502  0.00000000000E+00  0.00000000000E+00  0.12295084433E+00  0.12295084433E+00  0.00000000000E+00 0. -1.
         13   -1    0    0    0    0 -0.00000000000E+00 -0.00000000000E+00 -0.10000000000E+04  0.10000000000E+04  0.00000000000E+00 0.  1.
    9000005    2    1    2  501    0 -0.48118457229E+01  0.83622981782E+01 -0.62610760997E+03  0.62622901460E+03  0.76783836949E+01 0.  0.
         13    1    3    3    0    0 -0.27022943122E+01  0.94639090308E+01 -0.53382720462E+03  0.53391792662E+03  0.00000000000E+00 0.  1.
          1    1    3    3  501    0 -0.21095514107E+01 -0.11016108526E+01 -0.92280405343E+02  0.92311087979E+02  0.00000000000E+00 0.  1.
         -1    1    1    2    0  502  0.48118457229E+01 -0.83622981782E+01 -0.37376943919E+03  0.37389393624E+03  0.00000000000E+00 0. -1.
<mgrwt>
<rscale>  1 0.30000000E+03</rscale>
<asrwt>0</asrwt>
<pdfrwt beam="1">  1       21 0.44709492E-03 0.30000000E+03</pdfrwt>
<pdfrwt beam="2">0</pdfrwt>
<totfact> 0.14260226E+06</totfact>
</mgrwt>
</event>
<event>
 6    1  0.1132867E-002  0.3000000E+03  0.7818608E-02  0.1093470E+00
         21   -1    0    0  501  502  0.00000000000E+00  0.00000000000E+00  0.39359077317E+00  0.39359077317E+00  0.00000000000E+00 0. -1.
         13   -1    0    0    0    0 -0.00000000000E+00 -0.00000000000E+00 -0.10000000000E+04  0.10000000000E+04  0.00000000000E+00 0.  1.
    9000005    2    1    2  501    0 -0.67061529409E+01  0.10152017480E+02 -0.30350925285E+03  0.30419010970E+03  0.16300930217E+02 0.  0.
         13    1    3    3    0    0 -0.15133817236E+01  0.11614834337E+02 -0.26960536926E+03  0.26985968545E+03  0.00000000000E+00 0.  1.
          3    1    3    3  501    0 -0.51927712172E+01 -0.14628168562E+01 -0.33903883594E+02  0.34330424245E+02  0.00000000000E+00 0.  1.
         -3    1    1    2    0  502  0.67061529409E+01 -0.10152017480E+02 -0.69609715638E+03  0.69620348108E+03  0.00000000000E+00 0. -1.
<mgrwt>
<rscale>  1 0.30000000E+03</rscale>
<asrwt>0</asrwt>
<pdfrwt beam="1">  1       21 0.14312422E-02 0.30000000E+03</pdfrwt>
<pdfrwt beam="2">0</pdfrwt>
<totfact> 0.22787639E+05</totfact>
</mgrwt>
</event>
<event>
 6    1  0.1132867E-002  0.3000000E+03  0.7818608E-02  0.1093470E+00
         21   -1    0    0  501  502  0.00000000000E+00  0.00000000000E+00  0.88478511084E-01  0.88478511084E-01  0.00000000000E+00 0. -1.
         13   -1    0    0    0    0 -0.00000000000E+00 -0.00000000000E+00 -0.10000000000E+04  0.10000000000E+04  0.00000000000E+00 0.  1.
    9000005    2    1    2  501    0  0.10893643916E+01  0.88822572411E+01 -0.59643335617E+03  0.59651108681E+03  0.35562787665E+01 0.  0.
         13    1    3    3    0    0  0.22454609102E+01  0.59345777393E+01 -0.35150085426E+03  0.35155812017E+03  0.00000000000E+00 0.  1.
          3    1    3    3  501    0 -0.11560965186E+01  0.29476795018E+01 -0.24493250191E+03  0.24495296664E+03  0.00000000000E+00 0.  1.
         -1    1    1    2    0  502 -0.10893643916E+01 -0.88822572411E+01 -0.40347816531E+03  0.40357739170E+03  0.00000000000E+00 0. -1.
<mgrwt>
<rscale>  1 0.30000000E+03</rscale>
<asrwt>0</asrwt>
<pdfrwt beam="1">  1       21 0.32174072E-03 0.30000000E+03</pdfrwt>
<pdfrwt beam="2">0</pdfrwt>
<totfact> 0.23671225E+06</totfact>
</mgrwt>
</event>
<event>
 6    1  0.1132867E-002  0.3000000E+03  0.7818608E-02  0.1093470E+00
         21   -1    0    0  501  502  0.00000000000E+00  0.00000000000E+00  0.30729206402E+00  0.30729206402E+00  0.00000000000E+00 0. -1.
         13   -1    0    0    0    0 -0.00000000000E+00 -0.00000000000E+00 -0.10000000000E+04  0.10000000000E+04  0.00000000000E+00 0.  1.
    9000005    2    1    2  501    0 -0.98878253352E+01 -0.35613242983E+00 -0.90088829863E+03  0.90100871595E+03  0.10912547248E+02 0.  0.
         13    1    3    3    0    0 -0.33510777679E+01  0.20671814971E+01 -0.67796731544E+03  0.67797874876E+03  0.00000000000E+00 0.  1.
          3    1    3    3  501    0 -0.65367475673E+01 -0.24233139269E+01 -0.22292098319E+03  0.22302996719E+03  0.00000000000E+00 0.  1.
         -3    1    1    2    0  502  0.98878253352E+01  0.35613242983E+00 -0.98804409308E+02  0.99298576117E+02  0.00000000000E+00 0. -1.
<mgrwt>
<rscale>  1 0.30000000E+03</rscale>
<asrwt>0</asrwt>
<pdfrwt beam="1">  1       21 0.11174280E-02 0.30000000E+03</pdfrwt>
<pdfrwt beam="2">0</pdfrwt>
<totfact> 0.33866859E+05</totfact>
</mgrwt>
</event>
<event>
 6    1  0.1132867E-002  0.3000000E+03  0.7818608E-02  0.1093470E+00
         21   -1    0    0  501  502  0.00000000000E+00  0.00000000000E+00  0.28301444209E+00  0.28301444209E+00  0.00000000000E+00 0. -1.
         13   -1    0    0    0    0 -0.00000000000E+00 -0.00000000000E+00 -0.10000000000E+04  0.10000000000E+04  0.00000000000E+00 0.  1.
    9000005    2    1    2  501    0  0.24085928043E+01 -0.10922479308E+02 -0.86043271577E+03  0.86055037801E+03  0.87973208745E+01 0.  0.
         13    1    3    3    0    0 -0.52067690824E+00  0.85869146637E+00 -0.16603712929E+02  0.16634053580E+02  0.00000000000E+00 0.  1.
          3    1    3    3  501    0  0.29292697125E+01 -0.11781170775E+02 -0.84382900284E+03  0.84391632443E+03  0.00000000000E+00 0.  1.
         -3    1    1    2    0  502 -0.24085928043E+01  0.10922479308E+02 -0.13928426979E+03  0.13973263643E+03  0.00000000000E+00 0. -1.
<mgrwt>
<rscale>  1 0.30000000E+03</rscale>
<asrwt>0</asrwt>
<pdfrwt beam="1">  1       21 0.10291456E-02 0.30000000E+03</pdfrwt>
<pdfrwt beam="2">0</pdfrwt>
<totfact> 0.38606413E+05</totfact>
</mgrwt>
</event>
<event>
 6    1  0.1132867E-002  0.3000000E+03  0.7818608E-02  0.1093470E+00
         21   -1    0    0  501  502  0.00000000000E+00  0.00000000000E+00  0.22727714197E+00  0.22727714197E+00  0.00000000000E+00 0. -1.
         13   -1    0    0    0    0 -0.00000000000E+00 -0.00000000000E+00 -0.10000000000E+04  0.10000000000E+04  0.00000000000E+00 0.  1.
    9000005    2    1    2  501    0 -0.11165863989E+02 -0.53707565667E+01 -0.77893793334E+03  0.77904516709E+03  0.36806016547E+01 0.  0.
         13    1    3    3    0    0 -0.71293751584E+01 -0.14317600394E+01 -0.42071401635E+03  0.42077685473E+03  0.00000000000E+00 0.  1.
          3    1    3    3  501    0 -0.40364888309E+01 -0.39389965273E+01 -0.35822391699E+03  0.35826831236E+03  0.00000000000E+00 0.  1.
         -1    1    1    2    0  502  0.11165863989E+02  0.53707565667E+01 -0.22083478952E+03  0.22118211005E+03  0.00000000000E+00 0. -1.
<mgrwt>
<rscale>  1 0.30000000E+03</rscale>
<asrwt>0</asrwt>
<pdfrwt beam="1">  1       21 0.82646408E-03 0.30000000E+03</pdfrwt>
<pdfrwt beam="2">0</pdfrwt>
<totfact> 0.54628399E+05</totfact>
</mgrwt>
</event>
<event>
 6    1  0.1132867E-002  0.3000000E+03  0.7818608E-02  0.1093470E+00
         21   -1    0    0  501  502  0.00000000000E+00  0.00000000000E+00  0.72743399752E+00  0.72743399752E+00  0.00000000000E+00 0. -1.
         13   -1    0    0    0    0 -0.00000000000E+00 -0.00000000000E+00 -0.10000000000E+04  0.10000000000E+04  0.00000000000E+00 0.  1.
    9000005    2    1    2  501    0 -0.12307875419E+02 -0.23316543686E+02 -0.43190775058E+03  0.43275034046E+03  0.57798917080E+01 0.  0.
         13    1    3    3    0    0 -0.94134204153E+01 -0.12450805523E+02 -0.22910821588E+03  0.22963930331E+03  0.00000000000E+00 0.  1.
          1    1    3    3  501    0 -0.28944550040E+01 -0.10865738164E+02 -0.20279953470E+03  0.20311103715E+03  0.00000000000E+00 0.  1.
         -3    1    1    2    0  502  0.12307875419E+02  0.23316543686E+02 -0.56736481542E+03  0.56797709354E+03  0.00000000000E+00 0. -1.
<mgrwt>
<rscale>  1 0.30000000E+03</rscale>
<asrwt>0</asrwt>
<pdfrwt beam="1">  1       21 0.26452201E-02 0.30000000E+03</pdfrwt>
<pdfrwt beam="2">0</pdfrwt>
<totfact> 0.83797302E+04</totfact>
</mgrwt>
</event>
<event>
 6    1  0.1132867E-002  0.3000000E+03  0.7818608E-02  0.1093470E+00
         21   -1    0    0  501  502  0.00000000000E+00  0.00000000000E+00  0.54758143668E+00  0.54758143668E+00  0.00000000000E+00 0. -1.
         13   -1    0    0    0    0 -0.00000000000E+00 -0.00000000000E+00 -0.10000000000E+04  0.10000000000E+04  0.00000000000E+00 0.  1.
    9000005    2    1    2  501    0  0.70362316177E+01  0.17827955288E+02 -0.72499797406E+03  0.72542472406E+03  0.15862639660E+02 0.  0.
         13    1    3    3    0    0  0.72573368983E+01  0.19526220861E+02 -0.51674728908E+03  0.51716699722E+03  0.00000000000E+00 0.  1.
          1    1    3    3  501    0 -0.22110528053E+00 -0.16982655737E+01 -0.20825068498E+03  0.20825772684E+03  0.00000000000E+00 0.  1.
         -3    1    1    2    0  502 -0.70362316177E+01 -0.17827955288E+02 -0.27445444450E+03  0.27512285737E+03  0.00000000000E+00 0. -1.
<mgrwt>
<rscale>  1 0.30000000E+03</rscale>
<asrwt>0</asrwt>
<pdfrwt beam="1">  1       21 0.19912094E-02 0.30000000E+03</pdfrwt>
<pdfrwt beam="2">0</pdfrwt>
<totfact> 0.13351728E+05</totfact>
</mgrwt>
</event>
<event>
 6    1  0.1132867E-002  0.3000000E+03  0.7818608E-02  0.1093470E+00
         21   -1    0    0  501  502  0.00000000000E+00  0.00000000000E+00  0.19898720270E+01  0.19898720270E+01  0.00000000000E+00 0. -1.
         13   -1    0    0    0    0 -0.00000000000E+00 -0.00000000000E+00 -0.10000000000E+04  0.10000000000E+04  0.00000000000E+00 0.  1.
    9000005    2    1    2  501    0  0.10901263736E+02 -0.32886766999E+02 -0.81027529725E+03  0.81108480750E+03  0.10589175252E+02 0.  0.
         13    1    3    3    0    0 -0.13561381200E+01 -0.11368535846E+02 -0.24545959385E+03  0.24572646363E+03  0.00000000000E+00 0.  1.
          1    1    3    3  501    0  0.12257401856E+02 -0.21518231153E+02 -0.56481570340E+03  0.56535834387E+03  0.00000000000E+00 0.  1.
         -1    1    1    2    0  502 -0.10901263736E+02  0.32886766999E+02 -0.18773483072E+03  0.19090506453E+03  0.00000000000E+00 0. -1.
<mgrwt>
<rscale>  1 0.30000000E+03</rscale>
<asrwt>0</asrwt>
<pdfrwt beam="1">  1       21 0.72359135E-02 0.30000000E+03</pdfrwt>
<pdfrwt beam="2">0</pdfrwt>
<totfact> 0.15229614E+04</totfact>
</mgrwt>
</event>
<event>
 6    1  0.1132867E-002  0.3000000E+03  0.7818608E-02  0.1093470E+00
         21   -1    0    0  501  502  0.00000000000E+00  0.00000000000E+00  0.88500027162E+01  0.88500027162E+01  0.00000000000E+00 0. -1.
         13   -1    0    0    0    0 -0.00000000000E+00 -0.00000000000E+00 -0.10000000000E+04  0.10000000000E+04  0.00000000000E+00 0.  1.
    9000005    2    1    2  501    0 -0.28856351678E+01 -0.14192374217E+02 -0.99386011297E+03  0.99411585519E+03  0.17281753924E+02 0.  0.
         13    1    3    3    0    0 -0.40174740702E+01 -0.17837120108E+02 -0.88503080398E+03  0.88521964898E+03  0.00000000000E+00 0.  1.
          3    1    3    3  501    0  0.11318389024E+01  0.36447458914E+01 -0.10882930899E+03  0.10889620621E+03  0.00000000000E+00 0.  1.
         -3    1    1    2    0  502  0.28856351678E+01  0.14192374217E+02  0.27101156846E+01  0.14734147524E+02  0.00000000000E+00 0. -1.
<mgrwt>
<rscale>  1 0.30000000E+03</rscale>
<asrwt>0</asrwt>
<pdfrwt beam="1">  1       21 0.32181896E-01 0.30000000E+03</pdfrwt>
<pdfrwt beam="2">0</pdfrwt>
<totfact> 0.94408276E+02</totfact>
</mgrwt>
</event>
<event>
 6    1  0.1132867E-002  0.3000000E+03  0.7818608E-02  0.1093470E+00
         21   -1    0    0  501  502  0.00000000000E+00  0.00000000000E+00  0.15367441994E+00  0.15367441994E+00  0.00000000000E+00 0. -1.
         13   -1    0    0    0    0 -0.00000000000E+00 -0.00000000000E+00 -0.10000000000E+04  0.10000000000E+04  0.00000000000E+00 0.  1.
    9000005    2    1    2  501    0 -0.90769649133E+01 -0.40707585769E+01 -0.42854102980E+03  0.42876177445E+03  0.95017176428E+01 0.  0.
         13    1    3    3    0    0 -0.79522002366E+01 -0.34859038404E+00 -0.16483371286E+03  0.16502579162E+03  0.00000000000E+00 0.  1.
          3    1    3    3  501    0 -0.11247646767E+01 -0.37221681929E+01 -0.26370731694E+03  0.26373598283E+03  0.00000000000E+00 0.  1.
         -3    1    1    2    0  502  0.90769649133E+01  0.40707585769E+01 -0.57130529578E+03  0.57139189997E+03  0.00000000000E+00 0. -1.
<mgrwt>
<rscale>  1 0.30000000E+03</rscale>
<asrwt>0</asrwt>
<pdfrwt beam="1">  1       21 0.55881725E-03 0.30000000E+03</pdfrwt>
<pdfrwt beam="2">0</pdfrwt>
<totfact> 0.10086610E+06</totfact>
</mgrwt>
</event>
<event>
 6    1  0.1132867E-002  0.3000000E+03  0.7818608E-02  0.1093470E+00
         21   -1    0    0  501  502  0.00000000000E+00  0.00000000000E+00  0.22207458670E+00  0.22207458670E+00  0.00000000000E+00 0. -1.
         13   -1    0    0    0    0 -0.00000000000E+00 -0.00000000000E+00 -0.10000000000E+04  0.10000000000E+04  0.00000000000E+00 0.  1.
    9000005    2    1    2  501    0 -0.98824494806E+01  0.92234218647E+01 -0.69984244788E+03  0.69998212887E+03  0.35769497106E+01 0.  0.
         13    1    3    3    0    0 -0.30144554125E+01  0.12961728731E+01 -0.12013307643E+03  0.12017788090E+03  0.00000000000E+00 0.  1.
          1    1    3    3  501    0 -0.68679940681E+01  0.79272489916E+01 -0.57970937145E+03  0.57980424797E+03  0.00000000000E+00 0.  1.
         -1    1    1    2    0  502  0.98824494806E+01 -0.92234218647E+01 -0.29993547753E+03  0.30023994571E+03  0.00000000000E+00 0. -1.
<mgrwt>
<rscale>  1 0.30000000E+03</rscale>
<asrwt>0</asrwt>
<pdfrwt beam="1">  1       21 0.80754565E-03 0.30000000E+03</pdfrwt>
<pdfrwt beam="2">0</pdfrwt>
<totfact> 0.56660412E+05</totfact>
</mgrwt>
</event>
<event>
 6    1  0.1132867E-002  0.3000000E+03  0.7818608E-02  0.1093470E+00
         21   -1    0    0  501  502  0.00000000000E+00  0.00000000000E+00  0.47004821434E+00  0.47004821434E+00  0.00000000000E+00 0. -1.
         13   -1    0    0    0    0 -0.00000000000E+00 -0.00000000000E+00 -0.10000000000E+04  0.10000000000E+04  0.00000000000E+00 0.  1.
    9000005    2    1    2  501    0  0.45471329804E+01  0.10208686378E+02 -0.91993133845E+03  0.92009074155E+03  0.12977346261E+02 0.  0.
         13    1    3    3    0    0  0.78623199932E+01  0.11136224172E+02 -0.76150124107E+03  0.76162324788E+03  0.00000000000E+00 0.  1.
          3    1    3    3  501    0 -0.33151870128E+01 -0.92753779403E+00 -0.15843009738E+03  0.15846749366E+03  0.00000000000E+00 0.  1.
         -3    1    1    2    0  502 -0.45471329804E+01 -0.10208686378E+02 -0.79598613332E+02  0.80379306667E+02  0.00000000000E+00 0. -1.
<mgrwt>
<rscale>  1 0.30000000E+03</rscale>
<asrwt>0</asrwt>
<pdfrwt beam="1">  1       21 0.17092698E-02 0.30000000E+03</pdfrwt>
<pdfrwt beam="2">0</pdfrwt>
<totfact> 0.17110792E+05</totfact>
</mgrwt>
</event>
<event>
 6    1  0.1132867E-002  0.3000000E+03  0.7818608E-02  0.1093470E+00
         21   -1    0    0  501  502  0.00000000000E+00  0.00000000000E+00  0.63263884012E-01  0.63263884012E-01  0.00000000000E+00 0. -1.
         13   -1    0    0    0    0 -0.00000000000E+00 -0.00000000000E+00 -0.10000000000E+04  0.10000000000E+04  0.00000000000E+00 0.  1.
    9000005    2    1    2  501    0  0.41109265403E+00 -0.76351605254E+01 -0.58086303822E+03  0.58091981715E+03  0.27386332038E+01 0.  0.
         13    1    3    3    0    0  0.59452744379E+00 -0.51113269787E+01 -0.46865368067E+03  0.46868193002E+03  0.00000000000E+00 0.  1.
          3    1    3    3  501    0 -0.18343478976E+00 -0.25238335467E+01 -0.11220935755E+03  0.11223788713E+03  0.00000000000E+00 0.  1.
         -1    1    1    2    0  502 -0.41109265403E+00  0.76351605254E+01 -0.41907369789E+03  0.41914344673E+03  0.00000000000E+00 0. -1.
<mgrwt>
<rscale>  1 0.30000000E+03</rscale>
<asrwt>0</asrwt>
<pdfrwt beam="1">  1       21 0.23005097E-03 0.30000000E+03</pdfrwt>
<pdfrwt beam="2">0</pdfrwt>
<totfact> 0.39509320E+06</totfact>
</mgrwt>
</event>
<event>
 6    1  0.1132867E-002  0.3000000E+03  0.7818608E-02  0.1093470E+00
         21   -1    0    0  501  502  0.00000000000E+00  0.00000000000E+00  0.81113411711E+00  0.81113411711E+00  0.00000000000E+00 0. -1.
         13   -1    0    0    0    0 -0.00000000000E+00 -0.00000000000E+00 -0.10000000000E+04  0.10000000000E+04  0.00000000000E+00 0.  1.
    9000005    2    1    2  501    0 -0.10199082232E+02 -0.12699350419E+02 -0.90161277971E+03  0.90188496280E+03  0.15019547320E+02 0.  0.
         13    1    3    3    0    0 -0.82617759647E+01 -0.10127190511E+02 -0.32436670118E+03  0.32462990276E+03  0.00000000000E+00 0.  1.
          3    1    3    3  501    0 -0.19373062670E+01 -0.25721599082E+01 -0.57724607853E+03  0.57725506004E+03  0.00000000000E+00 0.  1.
         -1    1    1    2    0  502  0.10199082232E+02  0.12699350419E+02 -0.97576086170E+02  0.98926171318E+02  0.00000000000E+00 0. -1.
<mgrwt>
<rscale>  1 0.30000000E+03</rscale>
<asrwt>0</asrwt>
<pdfrwt beam="1">  1       21 0.29495848E-02 0.30000000E+03</pdfrwt>
<pdfrwt beam="2">0</pdfrwt>
<totfact> 0.69970999E+04</totfact>
</mgrwt>
</event>
<event>
 6    1  0.1132867E-002  0.3000000E+03  0.7818608E-02  0.1093470E+00
         21   -1    0    0  501  502  0.00000000000E+00  0.00000000000E+00  0.76294744407E+00  0.76294744407E+00  0.00000000000E+00 0. -1.
         13   -1    0    0    0    0 -0.00000000000E+00 -0.00000000000E+00 -0.10000000000E+04  0.10000000000E+04  0.00000000000E+00 0.  1.
    9000005    2    1    2  501    0 -0.42946028835E+01  0.25870243754E+02 -0.59496031544E+03  0.59563655569E+03  0.10835884604E+02 0.  0.
         13    1    3    3    0    0  0.13973715354E+01  0.79349913258E+01 -0.10220312179E+03  0.10252021673E+03  0.00000000000E+00 0.  1.
          3    1    3    3  501    0 -0.56919744189E+01  0.17935252428E+02 -0.49275719365E+03  0.49311633896E+03  0.00000000000E+00 0.  1.
         -1    1    1    2    0  502  0.42946028835E+01 -0.25870243754E+02 -0.40427673711E+03  0.40512639176E+03  0.00000000000E+00 0. -1.
<mgrwt>
<rscale>  1 0.30000000E+03</rscale>
<asrwt>0</asrwt>
<pdfrwt beam="1">  1       21 0.27743602E-02 0.30000000E+03</pdfrwt>
<pdfrwt beam="2">0</pdfrwt>
<totfact> 0.77447098E+04</totfact>
</mgrwt>
</event>
<event>
 6    1  0.1132867E-002  0.3000000E+03  0.7818608E-02  0.1093470E+00
         21   -1    0    0  501  502  0.00000000000E+00  0.00000000000E+00  0.15829403861E+00  0.15829403861E+00  0.00000000000E+00 0. -1.
         13   -1    0    0    0    0 -0.00000000000E+00 -0.00000000000E+00 -0.10000000000E+04  0.10000000000E+04  0.00000000000E+00 0.  1.
    9000005    2    1    2  501    0 -0.15977582806E+01 -0.89512207649E+01 -0.80386734859E+03  0.80397311128E+03  0.93473181414E+01 0.  0.
         13    1    3    3    0    0  0.88469445399E+00 -0.79476103407E+01 -0.74695843294E+03  0.74700123677E+03  0.00000000000E+00 0.  1.
          1    1    3    3  501    0 -0.24824527346E+01 -0.10036104242E+01 -0.56908915641E+02  0.56971874508E+02  0.00000000000E+00 0.  1.
         -3    1    1    2    0  502  0.15977582806E+01  0.89512207649E+01 -0.19597435738E+03  0.19618518276E+03  0.00000000000E+00 0. -1.
<mgrwt>
<rscale>  1 0.30000000E+03</rscale>
<asrwt>0</asrwt>
<pdfrwt beam="1">  1       21 0.57561590E-03 0.30000000E+03</pdfrwt>
<pdfrwt beam="2">0</pdfrwt>
<totfact> 0.96318480E+05</totfact>
</mgrwt>
</event>
<event>
 6    1  0.1132867E-002  0.3000000E+03  0.7818608E-02  0.1093470E+00
         21   -1    0    0  501  502  0.00000000000E+00  0.00000000000E+00  0.66650675725E+00  0.66650675725E+00  0.00000000000E+00 0. -1.
         13   -1    0    0    0    0 -0.00000000000E+00 -0.00000000000E+00 -0.10000000000E+04  0.10000000000E+04  0.00000000000E+00 0.  1.
    9000005    2    1    2  501    0  0.12706629946E+02 -0.52896137937E+01 -0.91321618501E+03  0.91345624798E+03  0.15782203634E+02 0.  0.
         13    1    3    3    0    0 -0.31009325287E+01  0.17780240098E+01 -0.13375474447E+03  0.13380249931E+03  0.00000000000E+00 0.  1.
          3    1    3    3  501    0  0.15807562475E+02 -0.70676378035E+01 -0.77946144054E+03  0.77965374868E+03  0.00000000000E+00 0.  1.
         -1    1    1    2    0  502 -0.12706629946E+02  0.52896137937E+01 -0.86117308231E+02  0.87210258775E+02  0.00000000000E+00 0. -1.
<mgrwt>
<rscale>  1 0.30000000E+03</rscale>
<asrwt>0</asrwt>
<pdfrwt beam="1">  1       21 0.24236660E-02 0.30000000E+03</pdfrwt>
<pdfrwt beam="2">0</pdfrwt>
<totfact> 0.96780923E+04</totfact>
</mgrwt>
</event>
<event>
 6    1  0.1132867E-002  0.3000000E+03  0.7818608E-02  0.1093470E+00
         21   -1    0    0  501  502  0.00000000000E+00  0.00000000000E+00  0.12921378584E+01  0.12921378584E+01  0.00000000000E+00 0. -1.
         13   -1    0    0    0    0 -0.00000000000E+00 -0.00000000000E+00 -0.10000000000E+04  0.10000000000E+04  0.00000000000E+00 0.  1.
    9000005    2    1    2  501    0  0.11392709396E+02 -0.18399594278E+02 -0.88717538488E+03  0.88767949604E+03  0.20649098155E+02 0.  0.
         13    1    3    3    0    0  0.51333259465E+01 -0.17889759162E+02 -0.82000056518E+03  0.82021175401E+03  0.00000000000E+00 0.  1.
          3    1    3    3  501    0  0.62593834494E+01 -0.50983511676E+00 -0.67174819707E+02  0.67467742038E+02  0.00000000000E+00 0.  1.
         -3    1    1    2    0  502 -0.11392709396E+02  0.18399594278E+02 -0.11153247726E+03  0.11361264182E+03  0.00000000000E+00 0. -1.
<mgrwt>
<rscale>  1 0.30000000E+03</rscale>
<asrwt>0</asrwt>
<pdfrwt beam="1">  1       21 0.46986930E-02 0.30000000E+03</pdfrwt>
<pdfrwt beam="2">0</pdfrwt>
<totfact> 0.32019470E+04</totfact>
</mgrwt>
</event>
<event>
 6    1  0.1132867E-002  0.3000000E+03  0.7818608E-02  0.1093470E+00
         21   -1    0    0  501  502  0.00000000000E+00  0.00000000000E+00  0.38666983637E+00  0.38666983637E+00  0.00000000000E+00 0. -1.
         13   -1    0    0    0    0 -0.00000000000E+00 -0.00000000000E+00 -0.10000000000E+04  0.10000000000E+04  0.00000000000E+00 0.  1.
    9000005    2    1    2  501    0  0.40583738350E+01  0.10236636690E+02 -0.90979750284E+03  0.90989831718E+03  0.78862095732E+01 0.  0.
         13    1    3    3    0    0 -0.23983379726E+01  0.30802438981E+01 -0.26933973746E+03  0.26936802724E+03  0.00000000000E+00 0.  1.
          1    1    3    3  501    0  0.64567118077E+01  0.71563927918E+01 -0.64045776539E+03  0.64053028994E+03  0.00000000000E+00 0.  1.
         -3    1    1    2    0  502 -0.40583738350E+01 -0.10236636690E+02 -0.89815827319E+02  0.90488352654E+02  0.00000000000E+00 0. -1.
<mgrwt>
<rscale>  1 0.30000000E+03</rscale>
<asrwt>0</asrwt>
<pdfrwt beam="1">  1       21 0.14060751E-02 0.30000000E+03</pdfrwt>
<pdfrwt beam="2">0</pdfrwt>
<totfact> 0.23446863E+05</totfact>
</mgrwt>
</event>
<event>
 6    1  0.1132867E-002  0.3000000E+03  0.7818608E-02  0.1093470E+00
         21   -1    0    0  501  502  0.00000000000E+00  0.00000000000E+00  0.30503620346E+00  0.30503620346E+00  0.00000000000E+00 0. -1.
         13   -1    0    0    0    0 -0.00000000000E+00 -0.00000000000E+00 -0.10000000000E+04  0.10000000000E+04  0.00000000000E+00 0.  1.
    9000005    2    1    2  501    0 -0.96390917756E+01  0.38720256942E+01 -0.89445569709E+03  0.89455434860E+03  0.82815370536E+01 0.  0.
         13    1    3    3    0    0 -0.33489961812E+01  0.20090360378E+01 -0.64676892298E+03  0.64678071379E+03  0.00000000000E+00 0.  1.
          3    1    3    3  501    0 -0.62900955944E+01  0.18629896564E+01 -0.24768677411E+03  0.24777363480E+03  0.00000000000E+00 0.  1.
         -3    1    1    2    0  502  0.96390917756E+01 -0.38720256942E+01 -0.10523926670E+03  0.10575068761E+03  0.00000000000E+00 0. -1.
<mgrwt>
<rscale>  1 0.30000000E+03</rscale>
<asrwt>0</asrwt>
<pdfrwt beam="1">  1       21 0.11092249E-02 0.30000000E+03</pdfrwt>
<pdfrwt beam="2">0</pdfrwt>
<totfact> 0.34266700E+05</totfact>
</mgrwt>
</event>
<event>
 6    1  0.1132867E-002  0.3000000E+03  0.7818608E-02  0.1093470E+00
         21   -1    0    0  501  502  0.00000000000E+00  0.00000000000E+00  0.32522523191E+00  0.32522523191E+00  0.00000000000E+00 0. -1.
         13   -1    0    0    0    0 -0.00000000000E+00 -0.00000000000E+00 -0.10000000000E+04  0.10000000000E+04  0.00000000000E+00 0.  1.
    9000005    2    1    2  501    0  0.45666251005E+01  0.15484343240E+02 -0.67046374361E+03  0.67071860821E+03  0.90111569361E+01 0.  0.
         13    1    3    3    0    0  0.59815640986E+01  0.15189920834E+02 -0.53963355238E+03  0.53988043460E+03  0.00000000000E+00 0.  1.
          1    1    3    3  501    0 -0.14149389980E+01  0.29442240614E+00 -0.13083019123E+03  0.13083817361E+03  0.00000000000E+00 0.  1.
         -1    1    1    2    0  502 -0.45666251005E+01 -0.15484343240E+02 -0.32921103115E+03  0.32960661702E+03  0.00000000000E+00 0. -1.
<mgrwt>
<rscale>  1 0.30000000E+03</rscale>
<asrwt>0</asrwt>
<pdfrwt beam="1">  1       21 0.11826397E-02 0.30000000E+03</pdfrwt>
<pdfrwt beam="2">0</pdfrwt>
<totfact> 0.30938319E+05</totfact>
</mgrwt>
</event>
<event>
 6    1  0.1132867E-002  0.3000000E+03  0.7818608E-02  0.1093470E+00
         21   -1    0    0  501  502  0.00000000000E+00  0.00000000000E+00  0.28943065525E+00  0.28943065525E+00  0.00000000000E+00 0. -1.
         13   -1    0    0    0    0 -0.00000000000E+00 -0.00000000000E+00 -0.10000000000E+04  0.10000000000E+04  0.00000000000E+00 0.  1.
    9000005    2    1    2  501    0 -0.17860941298E+01 -0.13533648391E+02 -0.75780086360E+03  0.75799486715E+03  0.10378823673E+02 0.  0.
         13    1    3    3    0    0 -0.31170848946E+01 -0.12245515598E+02 -0.73785372961E+03  0.73796191987E+03  0.00000000000E+00 0.  1.
          1    1    3    3  501    0  0.13309907648E+01 -0.12881327926E+01 -0.19947133987E+02  0.20032947282E+02  0.00000000000E+00 0.  1.
         -3    1    1    2    0  502  0.17860941298E+01  0.13533648391E+02 -0.24190970575E+03  0.24229456351E+03  0.00000000000E+00 0. -1.
<mgrwt>
<rscale>  1 0.30000000E+03</rscale>
<asrwt>0</asrwt>
<pdfrwt beam="1">  1       21 0.10524773E-02 0.30000000E+03</pdfrwt>
<pdfrwt beam="2">0</pdfrwt>
<totfact> 0.37254170E+05</totfact>
</mgrwt>
</event>
<event>
 6    1  0.1132867E-002  0.3000000E+03  0.7818608E-02  0.1093470E+00
         21   -1    0    0  501  502  0.00000000000E+00  0.00000000000E+00  0.16457390674E+00  0.16457390674E+00  0.00000000000E+00 0. -1.
         13   -1    0    0    0    0 -0.00000000000E+00 -0.00000000000E+00 -0.10000000000E+04  0.10000000000E+04  0.00000000000E+00 0.  1.
    9000005    2    1    2  501    0 -0.22894098756E+01  0.93514026461E+01 -0.80652088002E+03  0.80661043715E+03  0.71956441681E+01 0.  0.
         13    1    3    3    0    0 -0.41204606893E+00  0.79699984524E+01 -0.38297365488E+03  0.38305679865E+03  0.00000000000E+00 0.  1.
          1    1    3    3  501    0 -0.18773638066E+01  0.13814041937E+01 -0.42354722513E+03  0.42355363850E+03  0.00000000000E+00 0.  1.
         -1    1    1    2    0  502  0.22894098756E+01 -0.93514026461E+01 -0.19331454608E+03  0.19355413675E+03  0.00000000000E+00 0. -1.
<mgrwt>
<rscale>  1 0.30000000E+03</rscale>
<asrwt>0</asrwt>
<pdfrwt beam="1">  1       21 0.59845183E-03 0.30000000E+03</pdfrwt>
<pdfrwt beam="2">0</pdfrwt>
<totfact> 0.90648304E+05</totfact>
</mgrwt>
</event>
<event>
 6    1  0.1132867E-002  0.3000000E+03  0.7818608E-02  0.1093470E+00
         21   -1    0    0  501  502  0.00000000000E+00  0.00000000000E+00  0.12902776890E+01  0.12902776890E+01  0.00000000000E+00 0. -1.
         13   -1    0    0    0    0 -0.00000000000E+00 -0.00000000000E+00 -0.10000000000E+04  0.10000000000E+04  0.00000000000E+00 0.  1.
    9000005    2    1    2  501    0 -0.16983838218E+02 -0.96507162315E+01 -0.91726970287E+03  0.91754026962E+03  0.10716878901E+02 0.  0.
         13    1    3    3    0    0 -0.11138328355E+02 -0.11050819375E+02 -0.55903585863E+03  0.55925600060E+03  0.00000000000E+00 0.  1.
          1    1    3    3  501    0 -0.58455098632E+01  0.14001031433E+01 -0.35823384424E+03  0.35828426902E+03  0.00000000000E+00 0.  1.
         -1    1    1    2    0  502  0.16983838218E+02  0.96507162315E+01 -0.81440019441E+02  0.83750008066E+02  0.00000000000E+00 0. -1.
<mgrwt>
<rscale>  1 0.30000000E+03</rscale>
<asrwt>0</asrwt>
<pdfrwt beam="1">  1       21 0.46919288E-02 0.30000000E+03</pdfrwt>
<pdfrwt beam="2">0</pdfrwt>
<totfact> 0.32097993E+04</totfact>
</mgrwt>
</event>
<event>
 6    1  0.1132867E-002  0.3000000E+03  0.7818608E-02  0.1093470E+00
         21   -1    0    0  501  502  0.00000000000E+00  0.00000000000E+00  0.35978598703E+00  0.35978598703E+00  0.00000000000E+00 0. -1.
         13   -1    0    0    0    0 -0.00000000000E+00 -0.00000000000E+00 -0.10000000000E+04  0.10000000000E+04  0.00000000000E+00 0.  1.
    9000005    2    1    2  501    0 -0.74511311019E+01  0.81195431194E+01 -0.14694359997E+03  0.14759196182E+03  0.83378226416E+01 0.  0.
         13    1    3    3    0    0 -0.55243970724E+01  0.94547436645E+01 -0.10173627158E+03  0.10232389797E+03  0.00000000000E+00 0.  1.
          3    1    3    3  501    0 -0.19267340295E+01 -0.13352005451E+01 -0.45207328390E+02  0.45268063850E+02  0.00000000000E+00 0.  1.
         -1    1    1    2    0  502  0.74511311019E+01 -0.81195431194E+01 -0.85269661404E+03  0.85276782417E+03  0.00000000000E+00 0. -1.
<mgrwt>
<rscale>  1 0.30000000E+03</rscale>
<asrwt>0</asrwt>
<pdfrwt beam="1">  1       21 0.13083154E-02 0.30000000E+03</pdfrwt>
<pdfrwt beam="2">0</pdfrwt>
<totfact> 0.26322939E+05</totfact>
</mgrwt>
</event>
<event>
 6    1  0.1132867E-002  0.3000000E+03  0.7818608E-02  0.1093470E+00
         21   -1    0    0  501  502  0.00000000000E+00  0.00000000000E+00  0.98378067752E-01  0.98378067752E-01  0.00000000000E+00 0. -1.
         13   -1    0    0    0    0 -0.00000000000E+00 -0.00000000000E+00 -0.10000000000E+04  0.10000000000E+04  0.00000000000E+00 0.  1.
    9000005    2    1    2  501    0 -0.80061601734E+01 -0.25754118890E+01 -0.62547563513E+03  0.62557795014E+03  0.75677080413E+01 0.  0.
         13    1    3    3    0    0 -0.25920519810E+01  0.22322058981E+01 -0.31177803569E+03  0.31179680084E+03  0.00000000000E+00 0.  1.
          1    1    3    3  501    0 -0.54141081924E+01 -0.48076177871E+01 -0.31369759945E+03  0.31378114930E+03  0.00000000000E+00 0.  1.
         -1    1    1    2    0  502  0.80061601734E+01  0.25754118890E+01 -0.37442598680E+03  0.37452042793E+03  0.00000000000E+00 0. -1.
<mgrwt>
<rscale>  1 0.30000000E+03</rscale>
<asrwt>0</asrwt>
<pdfrwt beam="1">  1       21 0.35773918E-03 0.30000000E+03</pdfrwt>
<pdfrwt beam="2">0</pdfrwt>
<totfact> 0.20114201E+06</totfact>
</mgrwt>
</event>
<event>
 6    1  0.1132867E-002  0.3000000E+03  0.7818608E-02  0.1093470E+00
         21   -1    0    0  501  502  0.00000000000E+00  0.00000000000E+00  0.15729271451E+00  0.15729271451E+00  0.00000000000E+00 0. -1.
         13   -1    0    0    0    0 -0.00000000000E+00 -0.00000000000E+00 -0.10000000000E+04  0.10000000000E+04  0.00000000000E+00 0.  1.
    9000005    2    1    2  501    0  0.10259398536E+02  0.20699127477E+01 -0.63220709620E+03  0.63237273304E+03  0.99960596818E+01 0.  0.
         13    1    3    3    0    0  0.56908671665E+01  0.51625410839E+01 -0.23109566177E+03  0.23122336103E+03  0.00000000000E+00 0.  1.
          1    1    3    3  501    0  0.45685313695E+01 -0.30926283362E+01 -0.40111143444E+03  0.40114937201E+03  0.00000000000E+00 0.  1.
         -3    1    1    2    0  502 -0.10259398536E+02 -0.20699127477E+01 -0.36763561108E+03  0.36778455967E+03  0.00000000000E+00 0. -1.
<mgrwt>
<rscale>  1 0.30000000E+03</rscale>
<asrwt>0</asrwt>
<pdfrwt beam="1">  1       21 0.57197471E-03 0.30000000E+03</pdfrwt>
<pdfrwt beam="2">0</pdfrwt>
<totfact> 0.97275614E+05</totfact>
</mgrwt>
</event>
<event>
 6    1  0.1132867E-002  0.3000000E+03  0.7818608E-02  0.1093470E+00
         21   -1    0    0  501  502  0.00000000000E+00  0.00000000000E+00  0.14719415987E+00  0.14719415987E+00  0.00000000000E+00 0. -1.
         13   -1    0    0    0    0 -0.00000000000E+00 -0.00000000000E+00 -0.10000000000E+04  0.10000000000E+04  0.00000000000E+00 0.  1.
    9000005    2    1    2  501    0  0.10346384178E+02 -0.13924167336E+01 -0.31715486684E+03  0.31736943939E+03  0.52120063514E+01 0.  0.
         13    1    3    3    0    0  0.99133517377E-03  0.51838541749E-01 -0.10257936273E-01  0.52853026523E-01  0.00000000000E+00 0.  1.
          1    1    3    3  501    0  0.10345392842E+02 -0.14442552754E+01 -0.31714460890E+03  0.31731658637E+03  0.00000000000E+00 0.  1.
         -3    1    1    2    0  502 -0.10346384178E+02  0.13924167336E+01 -0.68269793900E+03  0.68277775477E+03  0.00000000000E+00 0. -1.
<mgrwt>
<rscale>  1 0.30000000E+03</rscale>
<asrwt>0</asrwt>
<pdfrwt beam="1">  1       21 0.53525262E-03 0.30000000E+03</pdfrwt>
<pdfrwt beam="2">0</pdfrwt>
<totfact> 0.10785956E+06</totfact>
</mgrwt>
</event>
<event>
 6    1  0.1132867E-002  0.3000000E+03  0.7818608E-02  0.1093470E+00
         21   -1    0    0  501  502  0.00000000000E+00  0.00000000000E+00  0.43715640027E+00  0.43715640027E+00  0.00000000000E+00 0. -1.
         13   -1    0    0    0    0 -0.00000000000E+00 -0.00000000000E+00 -0.10000000000E+04  0.10000000000E+04  0.00000000000E+00 0.  1.
    9000005    2    1    2  501    0 -0.80684185476E+01  0.11314049709E+02 -0.25273714180E+03  0.25348218054E+03  0.13566351969E+02 0.  0.
         13    1    3    3    0    0 -0.11342743354E+02  0.81261142540E+01 -0.21794481104E+03  0.21839100764E+03  0.00000000000E+00 0.  1.
          1    1    3    3  501    0  0.32743248067E+01  0.31879354548E+01 -0.34792330756E+02  0.35091172891E+02  0.00000000000E+00 0.  1.
         -1    1    1    2    0  502  0.80684185476E+01 -0.11314049709E+02 -0.74682570180E+03  0.74695497586E+03  0.00000000000E+00 0. -1.
<mgrwt>
<rscale>  1 0.30000000E+03</rscale>
<asrwt>0</asrwt>
<pdfrwt beam="1">  1       21 0.15896630E-02 0.30000000E+03</pdfrwt>
<pdfrwt beam="2">0</pdfrwt>
<totfact> 0.19241801E+05</totfact>
</mgrwt>
</event>
<event>
 6    1  0.1132867E-002  0.3000000E+03  0.7818608E-02  0.1093470E+00
         21   -1    0    0  501  502  0.00000000000E+00  0.00000000000E+00  0.93635281748E+00  0.93635281748E+00  0.00000000000E+00 0. -1.
         13   -1    0    0    0    0 -0.00000000000E+00 -0.00000000000E+00 -0.10000000000E+04  0.10000000000E+04  0.00000000000E+00 0.  1.
    9000005    2    1    2  501    0  0.60326549400E+00  0.12175434215E+02 -0.95188110687E+03  0.95220446144E+03  0.21612256445E+02 0.  0.
         13    1    3    3    0    0  0.74008011776E+01  0.32050768407E+01 -0.13202480560E+03  0.13227091014E+03  0.00000000000E+00 0.  1.
          3    1    3    3  501    0 -0.67975356836E+01  0.89703573745E+01 -0.81985630127E+03  0.81993355129E+03  0.00000000000E+00 0.  1.
         -3    1    1    2    0  502 -0.60326549400E+00 -0.12175434215E+02 -0.47182540308E+02  0.48731891381E+02  0.00000000000E+00 0. -1.
<mgrwt>
<rscale>  1 0.30000000E+03</rscale>
<asrwt>0</asrwt>
<pdfrwt beam="1">  1       21 0.34049265E-02 0.30000000E+03</pdfrwt>
<pdfrwt beam="2">0</pdfrwt>
<totfact> 0.55097536E+04</totfact>
</mgrwt>
</event>
<event>
 6    1  0.1132867E-002  0.3000000E+03  0.7818608E-02  0.1093470E+00
         21   -1    0    0  501  502  0.00000000000E+00  0.00000000000E+00  0.46207226392E+00  0.46207226392E+00  0.00000000000E+00 0. -1.
         13   -1    0    0    0    0 -0.00000000000E+00 -0.00000000000E+00 -0.10000000000E+04  0.10000000000E+04  0.00000000000E+00 0.  1.
    9000005    2    1    2  501    0  0.11036742932E+02  0.69593804926E+01 -0.89446490733E+03  0.89458203501E+03  0.62693100488E+01 0.  0.
         13    1    3    3    0    0  0.10929296347E+02  0.66253446005E+01 -0.89207091601E+03  0.89216246497E+03  0.00000000000E+00 0.  1.
          3    1    3    3  501    0  0.10744658491E+00  0.33403589209E+00 -0.23939913192E+01  0.24195700408E+01  0.00000000000E+00 0.  1.
         -1    1    1    2    0  502 -0.11036742932E+02 -0.69593804926E+01 -0.10507302041E+03  0.10588003726E+03  0.00000000000E+00 0. -1.
<mgrwt>
<rscale>  1 0.30000000E+03</rscale>
<asrwt>0</asrwt>
<pdfrwt beam="1">  1       21 0.16802663E-02 0.30000000E+03</pdfrwt>
<pdfrwt beam="2">0</pdfrwt>
<totfact> 0.17591965E+05</totfact>
</mgrwt>
</event>
<event>
 6    1  0.1132867E-002  0.3000000E+03  0.7818608E-02  0.1093470E+00
         21   -1    0    0  501  502  0.00000000000E+00  0.00000000000E+00  0.75672124732E+00  0.75672124732E+00  0.00000000000E+00 0. -1.
         13   -1    0    0    0    0 -0.00000000000E+00 -0.00000000000E+00 -0.10000000000E+04  0.10000000000E+04  0.00000000000E+00 0.  1.
    9000005    2    1    2  501    0  0.10661476062E+02  0.34560496937E+01 -0.93342793890E+03  0.93399392987E+03  0.30517742073E+02 0.  0.
         13    1    3    3    0    0  0.12640861481E+02  0.90568450168E+01 -0.22315860996E+03  0.22369976089E+03  0.00000000000E+00 0.  1.
          1    1    3    3  501    0 -0.19793854186E+01 -0.56007953231E+01 -0.71026932893E+03  0.71029416899E+03  0.00000000000E+00 0.  1.
         -1    1    1    2    0  502 -0.10661476062E+02 -0.34560496937E+01 -0.65815339857E+02  0.66762791372E+02  0.00000000000E+00 0. -1.
<mgrwt>
<rscale>  1 0.30000000E+03</rscale>
<asrwt>0</asrwt>
<pdfrwt beam="1">  1       21 0.27517194E-02 0.30000000E+03</pdfrwt>
<pdfrwt beam="2">0</pdfrwt>
<totfact> 0.78504892E+04</totfact>
</mgrwt>
</event>
<event>
 6    1  0.1132867E-002  0.3000000E+03  0.7818608E-02  0.1093470E+00
         21   -1    0    0  501  502  0.00000000000E+00  0.00000000000E+00  0.11784892669E+01  0.11784892669E+01  0.00000000000E+00 0. -1.
         13   -1    0    0    0    0 -0.00000000000E+00 -0.00000000000E+00 -0.10000000000E+04  0.10000000000E+04  0.00000000000E+00 0.  1.
    9000005    2    1    2  501    0  0.12484374760E+02 -0.25263411786E+02 -0.77464531188E+03  0.77523808181E+03  0.11163542775E+02 0.  0.
         13    1    3    3    0    0  0.43766522023E+01 -0.90149156170E+00 -0.88843747585E+02  0.88956052388E+02  0.00000000000E+00 0.  1.
          1    1    3    3  501    0  0.81077225581E+01 -0.24361920224E+02 -0.68580156429E+03  0.68628202942E+03  0.00000000000E+00 0.  1.
         -3    1    1    2    0  502 -0.12484374760E+02  0.25263411786E+02 -0.22417619886E+03  0.22594040746E+03  0.00000000000E+00 0. -1.
<mgrwt>
<rscale>  1 0.30000000E+03</rscale>
<asrwt>0</asrwt>
<pdfrwt beam="1">  1       21 0.42854246E-02 0.30000000E+03</pdfrwt>
<pdfrwt beam="2">0</pdfrwt>
<totfact> 0.37431045E+04</totfact>
</mgrwt>
</event>
<event>
 6    1  0.1132867E-002  0.3000000E+03  0.7818608E-02  0.1093470E+00
         21   -1    0    0  501  502  0.00000000000E+00  0.00000000000E+00  0.52871273221E+00  0.52871273221E+00  0.00000000000E+00 0. -1.
         13   -1    0    0    0    0 -0.00000000000E+00 -0.00000000000E+00 -0.10000000000E+04  0.10000000000E+04  0.00000000000E+00 0.  1.
    9000005    2    1    2  501    0 -0.56758843691E+01 -0.20539572558E+02 -0.67670714807E+03  0.67706189951E+03  0.51148621069E+01 0.  0.
         13    1    3    3    0    0 -0.60994266025E-01  0.83860217091E-01 -0.30534319105E+00  0.32247062009E+00  0.00000000000E+00 0.  1.
          1    1    3    3  501    0 -0.56148901030E+01 -0.20623432775E+02 -0.67640180488E+03  0.67673942889E+03  0.00000000000E+00 0.  1.
         -1    1    1    2    0  502  0.56758843691E+01  0.20539572558E+02 -0.32276413920E+03  0.32346681322E+03  0.00000000000E+00 0. -1.
<mgrwt>
<rscale>  1 0.30000000E+03</rscale>
<asrwt>0</asrwt>
<pdfrwt beam="1">  1       21 0.19225958E-02 0.30000000E+03</pdfrwt>
<pdfrwt beam="2">0</pdfrwt>
<totfact> 0.14136296E+05</totfact>
</mgrwt>
</event>
<event>
 6    1  0.1132867E-002  0.3000000E+03  0.7818608E-02  0.1093470E+00
         21   -1    0    0  501  502  0.00000000000E+00  0.00000000000E+00  0.31106887504E+00  0.31106887504E+00  0.00000000000E+00 0. -1.
         13   -1    0    0    0    0 -0.00000000000E+00 -0.00000000000E+00 -0.10000000000E+04  0.10000000000E+04  0.00000000000E+00 0.  1.
    9000005    2    1    2  501    0  0.20586118199E+01 -0.99324971444E+01 -0.85868408999E+03  0.85894184448E+03  0.18434571248E+02 0.  0.
         13    1    3    3    0    0  0.59992639831E+01 -0.14080461070E+02 -0.61061835002E+03  0.61081013411E+03  0.00000000000E+00 0.  1.
          1    1    3    3  501    0 -0.39406521632E+01  0.41479639261E+01 -0.24806573997E+03  0.24813171037E+03  0.00000000000E+00 0.  1.
         -3    1    1    2    0  502 -0.20586118199E+01  0.99324971444E+01 -0.14100484113E+03  0.14136922439E+03  0.00000000000E+00 0. -1.
<mgrwt>
<rscale>  1 0.30000000E+03</rscale>
<asrwt>0</asrwt>
<pdfrwt beam="1">  1       21 0.11311619E-02 0.30000000E+03</pdfrwt>
<pdfrwt beam="2">0</pdfrwt>
<totfact> 0.33214033E+05</totfact>
</mgrwt>
</event>
<event>
 6    1  0.1132867E-002  0.3000000E+03  0.7818608E-02  0.1093470E+00
         21   -1    0    0  501  502  0.00000000000E+00  0.00000000000E+00  0.10483179837E+01  0.10483179837E+01  0.00000000000E+00 0. -1.
         13   -1    0    0    0    0 -0.00000000000E+00 -0.00000000000E+00 -0.10000000000E+04  0.10000000000E+04  0.00000000000E+00 0.  1.
    9000005    2    1    2  501    0 -0.66879600514E+01  0.14116411444E+02 -0.91115522304E+03  0.91187309670E+03  0.32629773765E+02 0.  0.
         13    1    3    3    0    0 -0.12680636193E+02  0.10621009312E+02 -0.19964596837E+03  0.20033002037E+03  0.00000000000E+00 0.  1.
          3    1    3    3  501    0  0.59926761419E+01  0.34954021318E+01 -0.71150925467E+03  0.71154307633E+03  0.00000000000E+00 0.  1.
         -1    1    1    2    0  502  0.66879600514E+01 -0.14116411444E+02 -0.87796458979E+02  0.89175221284E+02  0.00000000000E+00 0. -1.
<mgrwt>
<rscale>  1 0.30000000E+03</rscale>
<asrwt>0</asrwt>
<pdfrwt beam="1">  1       21 0.38120734E-02 0.30000000E+03</pdfrwt>
<pdfrwt beam="2">0</pdfrwt>
<totfact> 0.45592422E+04</totfact>
</mgrwt>
</event>
<event>
 6    1  0.1132867E-002  0.3000000E+03  0.7818608E-02  0.1093470E+00
         21   -1    0    0  501  502  0.00000000000E+00  0.00000000000E+00  0.30063120434E+00  0.30063120434E+00  0.00000000000E+00 0. -1.
         13   -1    0    0    0    0 -0.00000000000E+00 -0.00000000000E+00 -0.10000000000E+04  0.10000000000E+04  0.00000000000E+00 0.  1.
    9000005    2    1    2  501    0  0.12025563506E+02 -0.30758692563E+01 -0.63459868706E+03  0.63498900677E+03  0.18478905276E+02 0.  0.
         13    1    3    3    0    0  0.13751168902E+02 -0.87546978902E+01 -0.45182422924E+03  0.45211820746E+03  0.00000000000E+00 0.  1.
          1    1    3    3  501    0 -0.17256053961E+01  0.56788286340E+01 -0.18277445782E+03  0.18287079931E+03  0.00000000000E+00 0.  1.
         -1    1    1    2    0  502 -0.12025563506E+02  0.30758692563E+01 -0.36510068173E+03  0.36531162444E+03  0.00000000000E+00 0. -1.
<mgrwt>
<rscale>  1 0.30000000E+03</rscale>
<asrwt>0</asrwt>
<pdfrwt beam="1">  1       21 0.10932067E-02 0.30000000E+03</pdfrwt>
<pdfrwt beam="2">0</pdfrwt>
<totfact> 0.35069734E+05</totfact>
</mgrwt>
</event>
<event>
 6    1  0.1132867E-002  0.3000000E+03  0.7818608E-02  0.1093470E+00
         21   -1    0    0  501  502  0.00000000000E+00  0.00000000000E+00  0.55522524618E+00  0.55522524618E+00  0.00000000000E+00 0. -1.
         13   -1    0    0    0    0 -0.00000000000E+00 -0.00000000000E+00 -0.10000000000E+04  0.10000000000E+04  0.00000000000E+00 0.  1.
    9000005    2    1    2  501    0  0.21632416761E+02 -0.70579783006E+00 -0.59017924269E+03  0.59071777534E+03  0.12941870101E+02 0.  0.
         13    1    3    3    0    0  0.13038251254E+02  0.58224414848E+01 -0.30418337503E+03  0.30451834504E+03  0.00000000000E+00 0.  1.
          1    1    3    3  501    0  0.85941655063E+01 -0.65282393148E+01 -0.28599586766E+03  0.28619943030E+03  0.00000000000E+00 0.  1.
         -1    1    1    2    0  502 -0.21632416761E+02  0.70579783006E+00 -0.40926553206E+03  0.40983744990E+03  0.00000000000E+00 0. -1.
<mgrwt>
<rscale>  1 0.30000000E+03</rscale>
<asrwt>0</asrwt>
<pdfrwt beam="1">  1       21 0.20190052E-02 0.30000000E+03</pdfrwt>
<pdfrwt beam="2">0</pdfrwt>
<totfact> 0.13053371E+05</totfact>
</mgrwt>
</event>
<event>
 6    1  0.1132867E-002  0.3000000E+03  0.7818608E-02  0.1093470E+00
         21   -1    0    0  501  502  0.00000000000E+00  0.00000000000E+00  0.11393005485E+00  0.11393005485E+00  0.00000000000E+00 0. -1.
         13   -1    0    0    0    0 -0.00000000000E+00 -0.00000000000E+00 -0.10000000000E+04  0.10000000000E+04  0.00000000000E+00 0.  1.
    9000005    2    1    2  501    0 -0.85102060379E+01 -0.14381736857E+01 -0.50309708120E+03  0.50324997354E+03  0.89090291518E+01 0.  0.
         13    1    3    3    0    0 -0.18311145873E+01 -0.16852457122E+01 -0.34805589296E+03  0.34806478946E+03  0.00000000000E+00 0.  1.
          3    1    3    3  501    0 -0.66790914506E+01  0.24707202650E+00 -0.15504118824E+03  0.15518518408E+03  0.00000000000E+00 0.  1.
         -3    1    1    2    0  502  0.85102060379E+01  0.14381736857E+01 -0.49678898874E+03  0.49686395652E+03  0.00000000000E+00 0. -1.
<mgrwt>
<rscale>  1 0.30000000E+03</rscale>
<asrwt>0</asrwt>
<pdfrwt beam="1">  1       21 0.41429198E-03 0.30000000E+03</pdfrwt>
<pdfrwt beam="2">0</pdfrwt>
<totfact> 0.16042172E+06</totfact>
</mgrwt>
</event>
<event>
 6    1  0.1132867E-002  0.3000000E+03  0.7818608E-02  0.1093470E+00
         21   -1    0    0  501  502  0.00000000000E+00  0.00000000000E+00  0.62206862330E+00  0.62206862330E+00  0.00000000000E+00 0. -1.
         13   -1    0    0    0    0 -0.00000000000E+00 -0.00000000000E+00 -0.10000000000E+04  0.10000000000E+04  0.00000000000E+00 0.  1.
    9000005    2    1    2  501    0 -0.15355501435E+02 -0.58359948833E+01 -0.84197443848E+03  0.84236370443E+03  0.19641925295E+02 0.  0.
         13    1    3    3    0    0 -0.93581913355E+01  0.57968084528E+01 -0.53083194104E+03  0.53094606916E+03  0.00000000000E+00 0.  1.
          1    1    3    3  501    0 -0.59973100990E+01 -0.11632803336E+02 -0.31114249744E+03  0.31141763527E+03  0.00000000000E+00 0.  1.
         -1    1    1    2    0  502  0.15355501435E+02  0.58359948833E+01 -0.15740349290E+03  0.15825836419E+03  0.00000000000E+00 0. -1.
<mgrwt>
<rscale>  1 0.30000000E+03</rscale>
<asrwt>0</asrwt>
<pdfrwt beam="1">  1       21 0.22620725E-02 0.30000000E+03</pdfrwt>
<pdfrwt beam="2">0</pdfrwt>
<totfact> 0.10838536E+05</totfact>
</mgrwt>
</event>
<event>
 6    1  0.1132867E-002  0.3000000E+03  0.7818608E-02  0.1093470E+00
         21   -1    0    0  501  502  0.00000000000E+00  0.00000000000E+00  0.26103924476E+00  0.26103924476E+00  0.00000000000E+00 0. -1.
         13   -1    0    0    0    0 -0.00000000000E+00 -0.00000000000E+00 -0.10000000000E+04  0.10000000000E+04  0.00000000000E+00 0.  1.
    9000005    2    1    2  501    0  0.11800534486E+02 -0.19369726310E+01 -0.80433381761E+03  0.80449032017E+03  0.10429795228E+02 0.  0.
         13    1    3    3    0    0 -0.18219528477E+01  0.71437958942E+00 -0.83631764501E+02  0.83654658472E+02  0.00000000000E+00 0.  1.
          1    1    3    3  501    0  0.13622487334E+02 -0.26513522204E+01 -0.72070205311E+03  0.72083566170E+03  0.00000000000E+00 0.  1.
         -1    1    1    2    0  502 -0.11800534486E+02  0.19369726310E+01 -0.19540514315E+03  0.19577071907E+03  0.00000000000E+00 0. -1.
<mgrwt>
<rscale>  1 0.30000000E+03</rscale>
<asrwt>0</asrwt>
<pdfrwt beam="1">  1       21 0.94923562E-03 0.30000000E+03</pdfrwt>
<pdfrwt beam="2">0</pdfrwt>
<totfact> 0.43889513E+05</totfact>
</mgrwt>
</event>
<event>
 6    1  0.1132867E-002  0.3000000E+03  0.7818608E-02  0.1093470E+00
         21   -1    0    0  501  502  0.00000000000E+00  0.00000000000E+00  0.23957337738E+00  0.23957337738E+00  0.00000000000E+00 0. -1.
         13   -1    0    0    0    0 -0.00000000000E+00 -0.00000000000E+00 -0.10000000000E+04  0.10000000000E+04  0.00000000000E+00 0.  1.
    9000005    2    1    2  501    0 -0.96548790824E+01  0.83596068586E+01 -0.53423823773E+03  0.53454223812E+03  0.12720454462E+02 0.  0.
         13    1    3    3    0    0 -0.57907813779E+01 -0.85557478493E+00 -0.33718168621E+03  0.33723249350E+03  0.00000000000E+00 0.  1.
          1    1    3    3  501    0 -0.38640977045E+01  0.92151816435E+01 -0.19705655152E+03  0.19730974462E+03  0.00000000000E+00 0.  1.
         -1    1    1    2    0  502  0.96548790824E+01 -0.83596068586E+01 -0.46552218889E+03  0.46569733526E+03  0.00000000000E+00 0. -1.
<mgrwt>
<rscale>  1 0.30000000E+03</rscale>
<asrwt>0</asrwt>
<pdfrwt beam="1">  1       21 0.87117775E-03 0.30000000E+03</pdfrwt>
<pdfrwt beam="2">0</pdfrwt>
<totfact> 0.50268966E+05</totfact>
</mgrwt>
</event>
<event>
 6    1  0.1132867E-002  0.3000000E+03  0.7818608E-02  0.1093470E+00
         21   -1    0    0  501  502  0.00000000000E+00  0.00000000000E+00  0.79863990943E-01  0.79863990943E-01  0.00000000000E+00 0. -1.
         13   -1    0    0    0    0 -0.00000000000E+00 -0.00000000000E+00 -0.10000000000E+04  0.10000000000E+04  0.00000000000E+00 0.  1.
    9000005    2    1    2  501    0  0.53624861733E+01  0.63475888847E+01 -0.64877490762E+03  0.64883633087E+03  0.32642533615E+01 0.  0.
         13    1    3    3    0    0  0.81031610418E+00  0.16364798490E+01 -0.68130825456E+02  0.68155293674E+02  0.00000000000E+00 0.  1.
          1    1    3    3  501    0  0.45521700691E+01  0.47111090357E+01 -0.58064408217E+03  0.58068103719E+03  0.00000000000E+00 0.  1.
         -1    1    1    2    0  502 -0.53624861733E+01 -0.63475888847E+01 -0.35114522839E+03  0.35124353313E+03  0.00000000000E+00 0. -1.
<mgrwt>
<rscale>  1 0.30000000E+03</rscale>
<asrwt>0</asrwt>
<pdfrwt beam="1">  1       21 0.29041512E-03 0.30000000E+03</pdfrwt>
<pdfrwt beam="2">0</pdfrwt>
<totfact> 0.27693223E+06</totfact>
</mgrwt>
</event>
<event>
 6    1  0.1132867E-002  0.3000000E+03  0.7818608E-02  0.1093470E+00
         21   -1    0    0  501  502  0.00000000000E+00  0.00000000000E+00  0.15712075314E+00  0.15712075314E+00  0.00000000000E+00 0. -1.
         13   -1    0    0    0    0 -0.00000000000E+00 -0.00000000000E+00 -0.10000000000E+04  0.10000000000E+04  0.00000000000E+00 0.  1.
    9000005    2    1    2  501    0  0.72920766308E+00  0.10923352113E+02 -0.56685393626E+03  0.56702979985E+03  0.89195009685E+01 0.  0.
         13    1    3    3    0    0 -0.14192840095E+01  0.32506550706E+01 -0.55207744991E+02  0.55321571131E+02  0.00000000000E+00 0.  1.
          1    1    3    3  501    0  0.21484916726E+01  0.76726970421E+01 -0.51164619127E+03  0.51170822872E+03  0.00000000000E+00 0.  1.
         -1    1    1    2    0  502 -0.72920766308E+00 -0.10923352113E+02 -0.43298894298E+03  0.43312732090E+03  0.00000000000E+00 0. -1.
<mgrwt>
<rscale>  1 0.30000000E+03</rscale>
<asrwt>0</asrwt>
<pdfrwt beam="1">  1       21 0.57134940E-03 0.30000000E+03</pdfrwt>
<pdfrwt beam="2">0</pdfrwt>
<totfact> 0.97441537E+05</totfact>
</mgrwt>
</event>
<event>
 6    1  0.1132867E-002  0.3000000E+03  0.7818608E-02  0.1093470E+00
         21   -1    0    0  501  502  0.00000000000E+00  0.00000000000E+00  0.67240483591E+00  0.67240483591E+00  0.00000000000E+00 0. -1.
         13   -1    0    0    0    0 -0.00000000000E+00 -0.00000000000E+00 -0.10000000000E+04  0.10000000000E+04  0.00000000000E+00 0.  1.
    9000005    2    1    2  501    0  0.14399498416E+02 -0.16718338235E+02 -0.66137612533E+03  0.66200140762E+03  0.18456331017E+02 0.  0.
         13    1    3    3    0    0  0.10909314441E+02 -0.70414646884E+01 -0.54948541656E+03  0.54963880720E+03  0.00000000000E+00 0.  1.
          3    1    3    3  501    0  0.34901839752E+01 -0.96768735467E+01 -0.11189070877E+03  0.11236260043E+03  0.00000000000E+00 0.  1.
         -3    1    1    2    0  502 -0.14399498416E+02  0.16718338235E+02 -0.33795146984E+03  0.33867099721E+03  0.00000000000E+00 0. -1.
<mgrwt>
<rscale>  1 0.30000000E+03</rscale>
<asrwt>0</asrwt>
<pdfrwt beam="1">  1       21 0.24451137E-02 0.30000000E+03</pdfrwt>
<pdfrwt beam="2">0</pdfrwt>
<totfact> 0.95389543E+04</totfact>
</mgrwt>
</event>
<event>
 6    1  0.1132867E-002  0.3000000E+03  0.7818608E-02  0.1093470E+00
         21   -1    0    0  501  502  0.00000000000E+00  0.00000000000E+00  0.20070964807E+00  0.20070964807E+00  0.00000000000E+00 0. -1.
         13   -1    0    0    0    0 -0.00000000000E+00 -0.00000000000E+00 -0.10000000000E+04  0.10000000000E+04  0.00000000000E+00 0.  1.
    9000005    2    1    2  501    0 -0.85800834959E+00 -0.11908870384E+02 -0.46261179200E+03  0.46288053903E+03  0.10303685702E+02 0.  0.
         13    1    3    3    0    0 -0.11372750662E+01 -0.15586051570E+01 -0.25778061873E+03  0.25778783919E+03  0.00000000000E+00 0.  1.
          1    1    3    3  501    0  0.27926671658E+00 -0.10350265227E+02 -0.20483117328E+03  0.20509269983E+03  0.00000000000E+00 0.  1.
         -3    1    1    2    0  502  0.85800834959E+00  0.11908870384E+02 -0.53718749835E+03  0.53732017062E+03  0.00000000000E+00 0. -1.
<mgrwt>
<rscale>  1 0.30000000E+03</rscale>
<asrwt>0</asrwt>
<pdfrwt beam="1">  1       21 0.72985480E-03 0.30000000E+03</pdfrwt>
<pdfrwt beam="2">0</pdfrwt>
<totfact> 0.66434257E+05</totfact>
</mgrwt>
</event>
<event>
 6    1  0.1132867E-002  0.3000000E+03  0.7818608E-02  0.1093470E+00
         21   -1    0    0  501  502  0.00000000000E+00  0.00000000000E+00  0.87806320233E+00  0.87806320233E+00  0.00000000000E+00 0. -1.
         13   -1    0    0    0    0 -0.00000000000E+00 -0.00000000000E+00 -0.10000000000E+04  0.10000000000E+04  0.00000000000E+00 0.  1.
    9000005    2    1    2  501    0  0.10502316055E+02 -0.12673806209E+02 -0.91422063435E+03  0.91439595428E+03  0.70476184781E+01 0.  0.
         13    1    3    3    0    0  0.20542155878E+01  0.46951700357E+00 -0.15703089642E+03  0.15704503392E+03  0.00000000000E+00 0.  1.
          3    1    3    3  501    0  0.84481004673E+01 -0.13143323212E+02 -0.75718973793E+03  0.75735092036E+03  0.00000000000E+00 0.  1.
         -1    1    1    2    0  502 -0.10502316055E+02  0.12673806209E+02 -0.84901302452E+02  0.86482108927E+02  0.00000000000E+00 0. -1.
<mgrwt>
<rscale>  1 0.30000000E+03</rscale>
<asrwt>0</asrwt>
<pdfrwt beam="1">  1       21 0.31929638E-02 0.30000000E+03</pdfrwt>
<pdfrwt beam="2">0</pdfrwt>
<totfact> 0.61332729E+04</totfact>
</mgrwt>
</event>
<event>
 6    1  0.1132867E-002  0.3000000E+03  0.7818608E-02  0.1093470E+00
         21   -1    0    0  501  502  0.00000000000E+00  0.00000000000E+00  0.31068503128E+00  0.31068503128E+00  0.00000000000E+00 0. -1.
         13   -1    0    0    0    0 -0.00000000000E+00 -0.00000000000E+00 -0.10000000000E+04  0.10000000000E+04  0.00000000000E+00 0.  1.
    9000005    2    1    2  501    0  0.11937366798E+02  0.62894923410E+01 -0.80346620740E+03  0.80362421782E+03  0.84781244237E+01 0.  0.
         13    1    3    3    0    0  0.12193575120E+02  0.44373390760E+01 -0.76729875652E+03  0.76740846686E+03  0.00000000000E+00 0.  1.
          3    1    3    3  501    0 -0.25620832236E+00  0.18521532649E+01 -0.36167450881E+02  0.36215750961E+02  0.00000000000E+00 0.  1.
         -3    1    1    2    0  502 -0.11937366798E+02 -0.62894923410E+01 -0.19622310757E+03  0.19668646721E+03  0.00000000000E+00 0. -1.
<mgrwt>
<rscale>  1 0.30000000E+03</rscale>
<asrwt>0</asrwt>
<pdfrwt beam="1">  1       21 0.11297661E-02 0.30000000E+03</pdfrwt>
<pdfrwt beam="2">0</pdfrwt>
<totfact> 0.33279453E+05</totfact>
</mgrwt>
</event>
<event>
 6    1  0.1132867E-002  0.3000000E+03  0.7818608E-02  0.1093470E+00
         21   -1    0    0  501  502  0.00000000000E+00  0.00000000000E+00  0.60161758680E-01  0.60161758680E-01  0.00000000000E+00 0. -1.
         13   -1    0    0    0    0 -0.00000000000E+00 -0.00000000000E+00 -0.10000000000E+04  0.10000000000E+04  0.00000000000E+00 0.  1.
    9000005    2    1    2  501    0  0.74787822961E+01 -0.63559322083E+00 -0.50139235594E+03  0.50145618236E+03  0.27698498998E+01 0.  0.
         13    1    3    3    0    0  0.61570106340E+01 -0.42017805237E+00 -0.32398016841E+03  0.32403894033E+03  0.00000000000E+00 0.  1.
          1    1    3    3  501    0  0.13217716620E+01 -0.21541516846E+00 -0.17741218753E+03  0.17741724203E+03  0.00000000000E+00 0.  1.
         -1    1    1    2    0  502 -0.74787822961E+01  0.63559322083E+00 -0.49854748230E+03  0.49860397940E+03  0.00000000000E+00 0. -1.
<mgrwt>
<rscale>  1 0.30000000E+03</rscale>
<asrwt>0</asrwt>
<pdfrwt beam="1">  1       21 0.21877049E-03 0.30000000E+03</pdfrwt>
<pdfrwt beam="2">0</pdfrwt>
<totfact> 0.42646744E+06</totfact>
</mgrwt>
</event>
<event>
 6    1  0.1132867E-002  0.3000000E+03  0.7818608E-02  0.1093470E+00
         21   -1    0    0  501  502  0.00000000000E+00  0.00000000000E+00  0.14769224434E+01  0.14769224434E+01  0.00000000000E+00 0. -1.
         13   -1    0    0    0    0 -0.00000000000E+00 -0.00000000000E+00 -0.10000000000E+04  0.10000000000E+04  0.00000000000E+00 0.  1.
    9000005    2    1    2  501    0 -0.53465537548E+01 -0.29595257638E+02 -0.79985108166E+03  0.80054154262E+03  0.14161345775E+02 0.  0.
         13    1    3    3    0    0  0.12547177150E+01 -0.16449848308E+02 -0.28244482358E+03  0.28292622748E+03  0.00000000000E+00 0.  1.
          1    1    3    3  501    0 -0.66012714698E+01 -0.13145409330E+02 -0.51740625807E+03  0.51761531514E+03  0.00000000000E+00 0.  1.
         -3    1    1    2    0  502  0.53465537548E+01  0.29595257638E+02 -0.19867199590E+03  0.20093537983E+03  0.00000000000E+00 0. -1.
<mgrwt>
<rscale>  1 0.30000000E+03</rscale>
<asrwt>0</asrwt>
<pdfrwt beam="1">  1       21 0.53706384E-02 0.30000000E+03</pdfrwt>
<pdfrwt beam="2">0</pdfrwt>
<totfact> 0.25492752E+04</totfact>
</mgrwt>
</event>
<event>
 6    1  0.1132867E-002  0.3000000E+03  0.7818608E-02  0.1093470E+00
         21   -1    0    0  501  502  0.00000000000E+00  0.00000000000E+00  0.22124746809E+00  0.22124746809E+00  0.00000000000E+00 0. -1.
         13   -1    0    0    0    0 -0.00000000000E+00 -0.00000000000E+00 -0.10000000000E+04  0.10000000000E+04  0.00000000000E+00 0.  1.
    9000005    2    1    2  501    0 -0.93366083215E+01  0.51089237899E+01 -0.77874103248E+03  0.77892744492E+03  0.13307720904E+02 0.  0.
         13    1    3    3    0    0 -0.10574537320E+02  0.43242938130E+01 -0.76820636205E+03  0.76829130872E+03  0.00000000000E+00 0.  1.
          3    1    3    3  501    0  0.12379289985E+01  0.78462997690E+00 -0.10534670424E+02  0.10636136204E+02  0.00000000000E+00 0.  1.
         -1    1    1    2    0  502  0.93366083215E+01 -0.51089237899E+01 -0.22103772006E+03  0.22129380254E+03  0.00000000000E+00 0. -1.
<mgrwt>
<rscale>  1 0.30000000E+03</rscale>
<asrwt>0</asrwt>
<pdfrwt beam="1">  1       21 0.80453794E-03 0.30000000E+03</pdfrwt>
<pdfrwt beam="2">0</pdfrwt>
<totfact> 0.56994763E+05</totfact>
</mgrwt>
</event>
<event>
 6    1  0.1132867E-002  0.3000000E+03  0.7818608E-02  0.1093470E+00
         21   -1    0    0  501  502  0.00000000000E+00  0.00000000000E+00  0.69472813455E+00  0.69472813455E+00  0.00000000000E+00 0. -1.
         13   -1    0    0    0    0 -0.00000000000E+00 -0.00000000000E+00 -0.10000000000E+04  0.10000000000E+04  0.00000000000E+00 0.  1.
    9000005    2    1    2  501    0  0.10093146751E+02 -0.20896850913E+02 -0.46465611770E+03  0.46554216293E+03  0.16901117274E+02 0.  0.
         13    1    3    3    0    0  0.57056443879E+01 -0.11116246821E+02 -0.10726251761E+03  0.10798783731E+03  0.00000000000E+00 0.  1.
          1    1    3    3  501    0  0.43875023634E+01 -0.97806040917E+01 -0.35739360008E+03  0.35755432563E+03  0.00000000000E+00 0.  1.
         -1    1    1    2    0  502 -0.10093146751E+02  0.20896850913E+02 -0.53464915417E+03  0.53515256520E+03  0.00000000000E+00 0. -1.
<mgrwt>
<rscale>  1 0.30000000E+03</rscale>
<asrwt>0</asrwt>
<pdfrwt beam="1">  1       21 0.25262895E-02 0.30000000E+03</pdfrwt>
<pdfrwt beam="2">0</pdfrwt>
<totfact> 0.90399381E+04</totfact>
</mgrwt>
</event>
<event>
 6    1  0.1132867E-002  0.3000000E+03  0.7818608E-02  0.1093470E+00
         21   -1    0    0  501  502  0.00000000000E+00  0.00000000000E+00  0.15308977497E+00  0.15308977497E+00  0.00000000000E+00 0. -1.
         13   -1    0    0    0    0 -0.00000000000E+00 -0.00000000000E+00 -0.10000000000E+04  0.10000000000E+04  0.00000000000E+00 0.  1.
    9000005    2    1    2  501    0  0.83668330202E+01  0.70830255302E+01 -0.65642512985E+03  0.65655638959E+03  0.72227737689E+01 0.  0.
         13    1    3    3    0    0  0.40195983255E+01 -0.17022186454E+00 -0.12694289332E+03  0.12700663097E+03  0.00000000000E+00 0.  1.
          3    1    3    3  501    0  0.43472346947E+01  0.72532473948E+01 -0.52948223653E+03  0.52954975862E+03  0.00000000000E+00 0.  1.
         -3    1    1    2    0  502 -0.83668330202E+01 -0.70830255302E+01 -0.34342178037E+03  0.34359670019E+03  0.00000000000E+00 0. -1.
<mgrwt>
<rscale>  1 0.30000000E+03</rscale>
<asrwt>0</asrwt>
<pdfrwt beam="1">  1       21 0.55669126E-03 0.30000000E+03</pdfrwt>
<pdfrwt beam="2">0</pdfrwt>
<totfact> 0.10146643E+06</totfact>
</mgrwt>
</event>
<event>
 6    1  0.1132867E-002  0.3000000E+03  0.7818608E-02  0.1093470E+00
         21   -1    0    0  501  502  0.00000000000E+00  0.00000000000E+00  0.19041783857E+00  0.19041783857E+00  0.00000000000E+00 0. -1.
         13   -1    0    0    0    0 -0.00000000000E+00 -0.00000000000E+00 -0.10000000000E+04  0.10000000000E+04  0.00000000000E+00 0.  1.
    9000005    2    1    2  501    0  0.11522125032E+02  0.30443916164E+01 -0.71080983837E+03  0.71094505556E+03  0.70864675550E+01 0.  0.
         13    1    3    3    0    0  0.42382004876E+01  0.31241232043E+01 -0.45808861027E+03  0.45811886815E+03  0.00000000000E+00 0.  1.
          3    1    3    3  501    0  0.72839245446E+01 -0.79731587940E-01 -0.25272122809E+03  0.25282618741E+03  0.00000000000E+00 0.  1.
         -1    1    1    2    0  502 -0.11522125032E+02 -0.30443916164E+01 -0.28899974380E+03  0.28924536228E+03  0.00000000000E+00 0. -1.
<mgrwt>
<rscale>  1 0.30000000E+03</rscale>
<asrwt>0</asrwt>
<pdfrwt beam="1">  1       21 0.69242996E-03 0.30000000E+03</pdfrwt>
<pdfrwt beam="2">0</pdfrwt>
<totfact> 0.72152510E+05</totfact>
</mgrwt>
</event>
<event>
 6    1  0.1132867E-002  0.3000000E+03  0.7818608E-02  0.1093470E+00
         21   -1    0    0  501  502  0.00000000000E+00  0.00000000000E+00  0.67196081408E+00  0.67196081408E+00  0.00000000000E+00 0. -1.
         13   -1    0    0    0    0 -0.00000000000E+00 -0.00000000000E+00 -0.10000000000E+04  0.10000000000E+04  0.00000000000E+00 0.  1.
    9000005    2    1    2  501    0  0.14907945902E+02 -0.10795214251E+02 -0.19961682479E+03  0.20074895831E+03  0.10699720662E+02 0.  0.
         13    1    3    3    0    0  0.15009180647E+02 -0.11794974924E+02 -0.19732903721E+03  0.19825021024E+03  0.00000000000E+00 0.  1.
          1    1    3    3  501    0 -0.10123474457E+00  0.99976067291E+00 -0.22877875846E+01  0.24987480683E+01  0.00000000000E+00 0.  1.
         -1    1    1    2    0  502 -0.14907945902E+02  0.10795214251E+02 -0.79971121439E+03  0.79992300250E+03  0.00000000000E+00 0. -1.
<mgrwt>
<rscale>  1 0.30000000E+03</rscale>
<asrwt>0</asrwt>
<pdfrwt beam="1">  1       21 0.24434990E-02 0.30000000E+03</pdfrwt>
<pdfrwt beam="2">0</pdfrwt>
<totfact> 0.95493185E+04</totfact>
</mgrwt>
</event>
<event>
 6    1  0.1132867E-002  0.3000000E+03  0.7818608E-02  0.1093470E+00
         21   -1    0    0  501  502  0.00000000000E+00  0.00000000000E+00  0.10107907305E+00  0.10107907305E+00  0.00000000000E+00 0. -1.
         13   -1    0    0    0    0 -0.00000000000E+00 -0.00000000000E+00 -0.10000000000E+04  0.10000000000E+04  0.00000000000E+00 0.  1.
    9000005    2    1    2  501    0 -0.25068981357E+01 -0.87443486043E+01 -0.35353244552E+03  0.35367059658E+03  0.38668690978E+01 0.  0.
         13    1    3    3    0    0 -0.42125577109E+00 -0.15923166555E+01 -0.25269065638E+02  0.25322689568E+02  0.00000000000E+00 0.  1.
          1    1    3    3  501    0 -0.20856423646E+01 -0.71520319489E+01 -0.32826337988E+03  0.32834790701E+03  0.00000000000E+00 0.  1.
         -3    1    1    2    0  502  0.25068981357E+01  0.87443486043E+01 -0.64636647541E+03  0.64643048249E+03  0.00000000000E+00 0. -1.
<mgrwt>
<rscale>  1 0.30000000E+03</rscale>
<asrwt>0</asrwt>
<pdfrwt beam="1">  1       21 0.36756104E-03 0.30000000E+03</pdfrwt>
<pdfrwt beam="2">0</pdfrwt>
<totfact> 0.19293321E+06</totfact>
</mgrwt>
</event>
<event>
 6    1  0.1132867E-002  0.3000000E+03  0.7818608E-02  0.1093470E+00
         21   -1    0    0  501  502  0.00000000000E+00  0.00000000000E+00  0.16251656190E+00  0.16251656190E+00  0.00000000000E+00 0. -1.
         13   -1    0    0    0    0 -0.00000000000E+00 -0.00000000000E+00 -0.10000000000E+04  0.10000000000E+04  0.00000000000E+00 0.  1.
    9000005    2    1    2  501    0 -0.19173256051E+01 -0.88264896573E+01 -0.82652025861E+03  0.82661009371E+03  0.81808353025E+01 0.  0.
         13    1    3    3    0    0 -0.86179896070E+00 -0.88172044433E+01 -0.44398683303E+03  0.44407521176E+03  0.00000000000E+00 0.  1.
          1    1    3    3  501    0 -0.10555266444E+01 -0.92852139718E-02 -0.38253342558E+03  0.38253488195E+03  0.00000000000E+00 0.  1.
         -1    1    1    2    0  502  0.19173256051E+01  0.88264896573E+01 -0.17331722483E+03  0.17355242286E+03  0.00000000000E+00 0. -1.
<mgrwt>
<rscale>  1 0.30000000E+03</rscale>
<asrwt>0</asrwt>
<pdfrwt beam="1">  1       21 0.59097056E-03 0.30000000E+03</pdfrwt>
<pdfrwt beam="2">0</pdfrwt>
<totfact> 0.92445135E+05</totfact>
</mgrwt>
</event>
<event>
 6    1  0.1132867E-002  0.3000000E+03  0.7818608E-02  0.1093470E+00
         21   -1    0    0  501  502  0.00000000000E+00  0.00000000000E+00  0.28613982922E+00  0.28613982922E+00  0.00000000000E+00 0.  1.
         13   -1    0    0    0    0 -0.00000000000E+00 -0.00000000000E+00 -0.10000000000E+04  0.10000000000E+04  0.00000000000E+00 0.  1.
    9000005    2    1    2  501    0 -0.88302525890E+01  0.38901700872E+01 -0.81069587978E+03  0.81102202887E+03  0.20876183678E+02 0.  0.
         13    1    3    3    0    0 -0.12742397337E+02 -0.44672371487E+01 -0.54044522562E+03  0.54061387958E+03  0.00000000000E+00 0.  1.
          1    1    3    3  501    0  0.39121447478E+01  0.83574072359E+01 -0.27025065416E+03  0.27040814930E+03  0.00000000000E+00 0.  1.
         -1    1    1    2    0  502  0.88302525890E+01 -0.38901700872E+01 -0.18901798039E+03  0.18926411095E+03  0.00000000000E+00 0. -1.
<mgrwt>
<rscale>  1 0.30000000E+03</rscale>
<asrwt>0</asrwt>
<pdfrwt beam="1">  1       21 0.10405107E-02 0.30000000E+03</pdfrwt>
<pdfrwt beam="2">0</pdfrwt>
<totfact> 0.37937986E+05</totfact>
</mgrwt>
</event>
<event>
 6    1  0.1132867E-002  0.3000000E+03  0.7818608E-02  0.1093470E+00
         21   -1    0    0  501  502  0.00000000000E+00  0.00000000000E+00  0.11856953232E+00  0.11856953232E+00  0.00000000000E+00 0. -1.
         13   -1    0    0    0    0 -0.00000000000E+00 -0.00000000000E+00 -0.10000000000E+04  0.10000000000E+04  0.00000000000E+00 0.  1.
    9000005    2    1    2  501    0  0.57178659580E+01 -0.79009175190E+01 -0.53780946643E+03  0.53794369090E+03  0.70195376704E+01 0.  0.
         13    1    3    3    0    0  0.22594594156E+01 -0.75588741000E+01 -0.28105857601E+03  0.28116928154E+03  0.00000000000E+00 0.  1.
          1    1    3    3  501    0  0.34584065424E+01 -0.34204341898E+00 -0.25675089042E+03  0.25677440936E+03  0.00000000000E+00 0.  1.
         -1    1    1    2    0  502 -0.57178659580E+01  0.79009175190E+01 -0.46207196404E+03  0.46217487863E+03  0.00000000000E+00 0. -1.
<mgrwt>
<rscale>  1 0.30000000E+03</rscale>
<asrwt>0</asrwt>
<pdfrwt beam="1">  1       21 0.43116284E-03 0.30000000E+03</pdfrwt>
<pdfrwt beam="2">0</pdfrwt>
<totfact> 0.15083066E+06</totfact>
</mgrwt>
</event>
<event>
 6    1  0.1132867E-002  0.3000000E+03  0.7818608E-02  0.1093470E+00
         21   -1    0    0  501  502  0.00000000000E+00  0.00000000000E+00  0.14770161361E+00  0.14770161361E+00  0.00000000000E+00 0. -1.
         13   -1    0    0    0    0 -0.00000000000E+00 -0.00000000000E+00 -0.10000000000E+04  0.10000000000E+04  0.00000000000E+00 0.  1.
    9000005    2    1    2  501    0 -0.35816080464E+01  0.76574165970E+01 -0.76086690167E+03  0.76101283634E+03  0.12273185166E+02 0.  0.
         13    1    3    3    0    0 -0.41864916625E+01 -0.17655563556E+01 -0.13896659310E+03  0.13904084975E+03  0.00000000000E+00 0.  1.
          1    1    3    3  501    0  0.60488361610E+00  0.94229729525E+01 -0.62190030857E+03  0.62197198659E+03  0.00000000000E+00 0.  1.
         -3    1    1    2    0  502  0.35816080464E+01 -0.76574165970E+01 -0.23898539672E+03  0.23913486528E+03  0.00000000000E+00 0. -1.
<mgrwt>
<rscale>  1 0.30000000E+03</rscale>
<asrwt>0</asrwt>
<pdfrwt beam="1">  1       21 0.53709791E-03 0.30000000E+03</pdfrwt>
<pdfrwt beam="2">0</pdfrwt>
<totfact> 0.10728382E+06</totfact>
</mgrwt>
</event>
<event>
 6    1  0.1132867E-002  0.3000000E+03  0.7818608E-02  0.1093470E+00
         21   -1    0    0  501  502  0.00000000000E+00  0.00000000000E+00  0.20330559008E+00  0.20330559008E+00  0.00000000000E+00 0.  1.
         13   -1    0    0    0    0 -0.00000000000E+00 -0.00000000000E+00 -0.10000000000E+04  0.10000000000E+04  0.00000000000E+00 0.  1.
    9000005    2    1    2  501    0 -0.18145844840E+01  0.97151906393E+01 -0.83034651437E+03  0.83046515089E+03  0.99677112467E+01 0.  0.
         13    1    3    3    0    0 -0.52193324224E+01  0.51311191417E+01 -0.61280581229E+03  0.61284951937E+03  0.00000000000E+00 0.  1.
          3    1    3    3  501    0  0.34047479384E+01  0.45840714975E+01 -0.21754070208E+03  0.21761563152E+03  0.00000000000E+00 0.  1.
         -3    1    1    2    0  502  0.18145844840E+01 -0.97151906393E+01 -0.16945018004E+03  0.16973815470E+03  0.00000000000E+00 0. -1.
<mgrwt>
<rscale>  1 0.30000000E+03</rscale>
<asrwt>0</asrwt>
<pdfrwt beam="1">  1       21 0.73929461E-03 0.30000000E+03</pdfrwt>
<pdfrwt beam="2">0</pdfrwt>
<totfact> 0.65107052E+05</totfact>
</mgrwt>
</event>
<event>
 6    1  0.1132867E-002  0.3000000E+03  0.7818608E-02  0.1093470E+00
         21   -1    0    0  501  502  0.00000000000E+00  0.00000000000E+00  0.36732452419E+00  0.36732452419E+00  0.00000000000E+00 0. -1.
         13   -1    0    0    0    0 -0.00000000000E+00 -0.00000000000E+00 -0.10000000000E+04  0.10000000000E+04  0.00000000000E+00 0.  1.
    9000005    2    1    2  501    0  0.10904243615E+02  0.34824584736E+01 -0.90025308885E+03  0.90033066982E+03  0.29429567898E+01 0.  0.
         13    1    3    3    0    0  0.45522353516E+01  0.29787003202E+01 -0.43006944958E+03  0.43010385602E+03  0.00000000000E+00 0.  1.
          1    1    3    3  501    0  0.63520082633E+01  0.50375815339E+00 -0.47018363926E+03  0.47022681380E+03  0.00000000000E+00 0.  1.
         -1    1    1    2    0  502 -0.10904243615E+02 -0.34824584736E+01 -0.99379586629E+02  0.10003665470E+03  0.00000000000E+00 0. -1.
<mgrwt>
<rscale>  1 0.30000000E+03</rscale>
<asrwt>0</asrwt>
<pdfrwt beam="1">  1       21 0.13357284E-02 0.30000000E+03</pdfrwt>
<pdfrwt beam="2">0</pdfrwt>
<totfact> 0.25461498E+05</totfact>
</mgrwt>
</event>
<event>
 6    1  0.1132867E-002  0.3000000E+03  0.7818608E-02  0.1093470E+00
         21   -1    0    0  501  502  0.00000000000E+00  0.00000000000E+00  0.18840763316E+01  0.18840763316E+01  0.00000000000E+00 0. -1.
         13   -1    0    0    0    0 -0.00000000000E+00 -0.00000000000E+00 -0.10000000000E+04  0.10000000000E+04  0.00000000000E+00 0.  1.
    9000005    2    1    2  501    0  0.17527026501E+02 -0.58121739850E+01 -0.95227565884E+03  0.95246436464E+03  0.42962146764E+01 0.  0.
         13    1    3    3    0    0  0.14700585518E+02 -0.48106116851E+01 -0.69992258239E+03  0.70009347272E+03  0.00000000000E+00 0.  1.
          1    1    3    3  501    0  0.28264409829E+01 -0.10015623000E+01 -0.25235307645E+03  0.25237089192E+03  0.00000000000E+00 0.  1.
         -1    1    1    2    0  502 -0.17527026501E+02  0.58121739850E+01 -0.45840264826E+02  0.49419711692E+02  0.00000000000E+00 0. -1.
<mgrwt>
<rscale>  1 0.30000000E+03</rscale>
<asrwt>0</asrwt>
<pdfrwt beam="1">  1       21 0.68512011E-02 0.30000000E+03</pdfrwt>
<pdfrwt beam="2">0</pdfrwt>
<totfact> 0.16749529E+04</totfact>
</mgrwt>
</event>
<event>
 6    1  0.1132867E-002  0.3000000E+03  0.7818608E-02  0.1093470E+00
         21   -1    0    0  501  502  0.00000000000E+00  0.00000000000E+00  0.57708763718E+00  0.57708763718E+00  0.00000000000E+00 0. -1.
         13   -1    0    0    0    0 -0.00000000000E+00 -0.00000000000E+00 -0.10000000000E+04  0.10000000000E+04  0.00000000000E+00 0.  1.
    9000005    2    1    2  501    0  0.12350397311E+02 -0.33047488262E+01 -0.91726246748E+03  0.91742787007E+03  0.11832533834E+02 0.  0.
         13    1    3    3    0    0  0.33484611965E+01  0.42279237971E+01 -0.21686151145E+03  0.21692856584E+03  0.00000000000E+00 0.  1.
          1    1    3    3  501    0  0.90019361142E+01 -0.75326726233E+01 -0.70040095603E+03  0.70049930422E+03  0.00000000000E+00 0.  1.
         -3    1    1    2    0  502 -0.12350397311E+02  0.33047488262E+01 -0.82160444888E+02  0.83149217571E+02  0.00000000000E+00 0. -1.
<mgrwt>
<rscale>  1 0.30000000E+03</rscale>
<asrwt>0</asrwt>
<pdfrwt beam="1">  1       21 0.20985049E-02 0.30000000E+03</pdfrwt>
<pdfrwt beam="2">0</pdfrwt>
<totfact> 0.12255796E+05</totfact>
</mgrwt>
</event>
<event>
 6    1  0.1132867E-002  0.3000000E+03  0.7818608E-02  0.1093470E+00
         21   -1    0    0  501  502  0.00000000000E+00  0.00000000000E+00  0.53736863515E+00  0.53736863515E+00  0.00000000000E+00 0. -1.
         13   -1    0    0    0    0 -0.00000000000E+00 -0.00000000000E+00 -0.10000000000E+04  0.10000000000E+04  0.00000000000E+00 0.  1.
    9000005    2    1    2  501    0 -0.86830736045E+00 -0.12574040362E+02 -0.91778370862E+03  0.91789169803E+03  0.62747955399E+01 0.  0.
         13    1    3    3    0    0 -0.31435634806E-01  0.57031287789E+00 -0.10263882844E+03  0.10264041771E+03  0.00000000000E+00 0.  1.
          3    1    3    3  501    0 -0.83687172564E+00 -0.13144353240E+02 -0.81514488018E+03  0.81525128032E+03  0.00000000000E+00 0.  1.
         -1    1    1    2    0  502  0.86830736045E+00  0.12574040362E+02 -0.81678922747E+02  0.82645670605E+02  0.00000000000E+00 0. -1.
<mgrwt>
<rscale>  1 0.30000000E+03</rscale>
<asrwt>0</asrwt>
<pdfrwt beam="1">  1       21 0.19540719E-02 0.30000000E+03</pdfrwt>
<pdfrwt beam="2">0</pdfrwt>
<totfact> 0.13767543E+05</totfact>
</mgrwt>
</event>
<event>
 6    1  0.1132867E-002  0.3000000E+03  0.7818608E-02  0.1093470E+00
         21   -1    0    0  501  502  0.00000000000E+00  0.00000000000E+00  0.22975960459E+00  0.22975960459E+00  0.00000000000E+00 0. -1.
         13   -1    0    0    0    0 -0.00000000000E+00 -0.00000000000E+00 -0.10000000000E+04  0.10000000000E+04  0.00000000000E+00 0.  1.
    9000005    2    1    2  501    0  0.32104800329E+01  0.95773665405E+01 -0.83988994941E+03  0.84003069413E+03  0.11593396241E+02 0.  0.
         13    1    3    3    0    0 -0.43419888568E+01  0.24653725139E+01 -0.28690672520E+03  0.28695016971E+03  0.00000000000E+00 0.  1.
          3    1    3    3  501    0  0.75524688898E+01  0.71119940266E+01 -0.55298322420E+03  0.55308052442E+03  0.00000000000E+00 0.  1.
         -3    1    1    2    0  502 -0.32104800329E+01 -0.95773665405E+01 -0.15988029099E+03  0.16019906547E+03  0.00000000000E+00 0. -1.
<mgrwt>
<rscale>  1 0.30000000E+03</rscale>
<asrwt>0</asrwt>
<pdfrwt beam="1">  1       21 0.83549123E-03 0.30000000E+03</pdfrwt>
<pdfrwt beam="2">0</pdfrwt>
<totfact> 0.53700108E+05</totfact>
</mgrwt>
</event>
<event>
 6    1  0.1132867E-002  0.3000000E+03  0.7818608E-02  0.1093470E+00
         21   -1    0    0  501  502  0.00000000000E+00  0.00000000000E+00  0.16043204477E+00  0.16043204477E+00  0.00000000000E+00 0. -1.
         13   -1    0    0    0    0 -0.00000000000E+00 -0.00000000000E+00 -0.10000000000E+04  0.10000000000E+04  0.00000000000E+00 0.  1.
    9000005    2    1    2  501    0 -0.35845525553E+01 -0.86890954337E+01 -0.56431628022E+03  0.56453572710E+03  0.12624327988E+02 0.  0.
         13    1    3    3    0    0 -0.73060188118E+01 -0.12515154872E+01 -0.27606236023E+03  0.27616185642E+03  0.00000000000E+00 0.  1.
          3    1    3    3  501    0  0.37214662566E+01 -0.74375799465E+01 -0.28825391999E+03  0.28837387069E+03  0.00000000000E+00 0.  1.
         -3    1    1    2    0  502  0.35845525553E+01  0.86890954337E+01 -0.43552328773E+03  0.43562470494E+03  0.00000000000E+00 0. -1.
<mgrwt>
<rscale>  1 0.30000000E+03</rscale>
<asrwt>0</asrwt>
<pdfrwt beam="1">  1       21 0.58339048E-03 0.30000000E+03</pdfrwt>
<pdfrwt beam="2">0</pdfrwt>
<totfact> 0.94325140E+05</totfact>
</mgrwt>
</event>
<event>
 6    1  0.1132867E-002  0.3000000E+03  0.7818608E-02  0.1093470E+00
         21   -1    0    0  501  502  0.00000000000E+00  0.00000000000E+00  0.23186756270E+00  0.23186756270E+00  0.00000000000E+00 0. -1.
         13   -1    0    0    0    0 -0.00000000000E+00 -0.00000000000E+00 -0.10000000000E+04  0.10000000000E+04  0.00000000000E+00 0.  1.
    9000005    2    1    2  501    0  0.88009991734E+01 -0.34377247403E+01 -0.87152283832E+03  0.87163897895E+03  0.10638438723E+02 0.  0.
         13    1    3    3    0    0  0.10466866812E+02 -0.71470633785E+00 -0.54817462941E+03  0.54827501350E+03  0.00000000000E+00 0.  1.
          1    1    3    3  501    0 -0.16658676384E+01 -0.27230184025E+01 -0.32334820891E+03  0.32336396545E+03  0.00000000000E+00 0.  1.
         -3    1    1    2    0  502 -0.88009991734E+01  0.34377247403E+01 -0.12824529412E+03  0.12859288861E+03  0.00000000000E+00 0. -1.
<mgrwt>
<rscale>  1 0.30000000E+03</rscale>
<asrwt>0</asrwt>
<pdfrwt beam="1">  1       21 0.84315655E-03 0.30000000E+03</pdfrwt>
<pdfrwt beam="2">0</pdfrwt>
<totfact> 0.52931754E+05</totfact>
</mgrwt>
</event>
<event>
 6    1  0.1132867E-002  0.3000000E+03  0.7818608E-02  0.1093470E+00
         21   -1    0    0  501  502  0.00000000000E+00  0.00000000000E+00  0.24816849390E+00  0.24816849390E+00  0.00000000000E+00 0. -1.
         13   -1    0    0    0    0 -0.00000000000E+00 -0.00000000000E+00 -0.10000000000E+04  0.10000000000E+04  0.00000000000E+00 0.  1.
    9000005    2    1    2  501    0 -0.13023780019E+02  0.14948479479E+01 -0.40104570615E+03  0.40139853966E+03  0.10548734660E+02 0.  0.
         13    1    3    3    0    0  0.17899713127E+01 -0.54101852462E+00 -0.47219157426E+02  0.47256169188E+02  0.00000000000E+00 0.  1.
          1    1    3    3  501    0 -0.14813751332E+02  0.20358664726E+01 -0.35382654872E+03  0.35414237047E+03  0.00000000000E+00 0.  1.
         -1    1    1    2    0  502  0.13023780019E+02 -0.14948479479E+01 -0.59870612536E+03  0.59884962884E+03  0.00000000000E+00 0. -1.
<mgrwt>
<rscale>  1 0.30000000E+03</rscale>
<asrwt>0</asrwt>
<pdfrwt beam="1">  1       21 0.90243279E-03 0.30000000E+03</pdfrwt>
<pdfrwt beam="2">0</pdfrwt>
<totfact> 0.47545543E+05</totfact>
</mgrwt>
</event>
<event>
 6    1  0.1132867E-002  0.3000000E+03  0.7818608E-02  0.1093470E+00
         21   -1    0    0  501  502  0.00000000000E+00  0.00000000000E+00  0.24415027266E+00  0.24415027266E+00  0.00000000000E+00 0. -1.
         13   -1    0    0    0    0 -0.00000000000E+00 -0.00000000000E+00 -0.10000000000E+04  0.10000000000E+04  0.00000000000E+00 0.  1.
    9000005    2    1    2  501    0 -0.79586424210E+01  0.86406152999E+01 -0.35780671000E+03  0.35818753422E+03  0.11604642464E+02 0.  0.
         13    1    3    3    0    0 -0.41685623520E+01 -0.21281295166E+01 -0.14423773876E+03  0.14431365539E+03  0.00000000000E+00 0.  1.
          3    1    3    3  501    0 -0.37900800690E+01  0.10768744817E+02 -0.21356897124E+03  0.21387387884E+03  0.00000000000E+00 0.  1.
         -1    1    1    2    0  502  0.79586424210E+01 -0.86406152999E+01 -0.64194913972E+03  0.64205661605E+03  0.00000000000E+00 0. -1.
<mgrwt>
<rscale>  1 0.30000000E+03</rscale>
<asrwt>0</asrwt>
<pdfrwt beam="1">  1       21 0.88782105E-03 0.30000000E+03</pdfrwt>
<pdfrwt beam="2">0</pdfrwt>
<totfact> 0.48788310E+05</totfact>
</mgrwt>
</event>
<event>
 6    1  0.1132867E-002  0.3000000E+03  0.7818608E-02  0.1093470E+00
         21   -1    0    0  501  502  0.00000000000E+00  0.00000000000E+00  0.40477326298E+00  0.40477326298E+00  0.00000000000E+00 0. -1.
         13   -1    0    0    0    0 -0.00000000000E+00 -0.00000000000E+00 -0.10000000000E+04  0.10000000000E+04  0.00000000000E+00 0.  1.
    9000005    2    1    2  501    0  0.40700313400E+01  0.14607392970E+02 -0.73923057368E+03  0.73959891894E+03  0.17742005480E+02 0.  0.
         13    1    3    3    0    0 -0.55239601092E+01  0.13568552251E+01 -0.10207274610E+03  0.10223111409E+03  0.00000000000E+00 0.  1.
          3    1    3    3  501    0  0.95939914492E+01  0.13250537744E+02 -0.63715782758E+03  0.63736780485E+03  0.00000000000E+00 0.  1.
         -1    1    1    2    0  502 -0.40700313400E+01 -0.14607392970E+02 -0.26036465306E+03  0.26080585432E+03  0.00000000000E+00 0. -1.
<mgrwt>
<rscale>  1 0.30000000E+03</rscale>
<asrwt>0</asrwt>
<pdfrwt beam="1">  1       21 0.14719059E-02 0.30000000E+03</pdfrwt>
<pdfrwt beam="2">0</pdfrwt>
<totfact> 0.21783436E+05</totfact>
</mgrwt>
</event>
<event>
 6    1  0.1132867E-002  0.3000000E+03  0.7818608E-02  0.1093470E+00
         21   -1    0    0  501  502  0.00000000000E+00  0.00000000000E+00  0.16211734038E+00  0.16211734038E+00  0.00000000000E+00 0. -1.
         13   -1    0    0    0    0 -0.00000000000E+00 -0.00000000000E+00 -0.10000000000E+04  0.10000000000E+04  0.00000000000E+00 0.  1.
    9000005    2    1    2  501    0  0.51418223144E+01  0.10344669424E+02 -0.62911879156E+03  0.62926308117E+03  0.69369239951E+01 0.  0.
         13    1    3    3    0    0  0.52398923994E+00  0.27602351855E+01 -0.33137477347E+03  0.33138668343E+03  0.00000000000E+00 0.  1.
          3    1    3    3  501    0  0.46178330745E+01  0.75844342387E+01 -0.29774401809E+03  0.29787639774E+03  0.00000000000E+00 0.  1.
         -1    1    1    2    0  502 -0.51418223144E+01 -0.10344669424E+02 -0.37071909110E+03  0.37089903617E+03  0.00000000000E+00 0. -1.
<mgrwt>
<rscale>  1 0.30000000E+03</rscale>
<asrwt>0</asrwt>
<pdfrwt beam="1">  1       21 0.58951884E-03 0.30000000E+03</pdfrwt>
<pdfrwt beam="2">0</pdfrwt>
<totfact> 0.92800473E+05</totfact>
</mgrwt>
</event>
<event>
 6    1  0.1132867E-002  0.3000000E+03  0.7818608E-02  0.1093470E+00
         21   -1    0    0  501  502  0.00000000000E+00  0.00000000000E+00  0.15756557559E+00  0.15756557559E+00  0.00000000000E+00 0. -1.
         13   -1    0    0    0    0 -0.00000000000E+00 -0.00000000000E+00 -0.10000000000E+04  0.10000000000E+04  0.00000000000E+00 0.  1.
    9000005    2    1    2  501    0  0.83037103448E+01  0.64085478787E+01 -0.74744844535E+03  0.74754571547E+03  0.59495524513E+01 0.  0.
         13    1    3    3    0    0  0.89020758125E+00  0.69538210710E+00 -0.28665737011E+03  0.28665959580E+03  0.00000000000E+00 0.  1.
          1    1    3    3  501    0  0.74135027635E+01  0.57131657716E+01 -0.46079107524E+03  0.46088611968E+03  0.00000000000E+00 0.  1.
         -3    1    1    2    0  502 -0.83037103448E+01 -0.64085478787E+01 -0.25239398908E+03  0.25261185010E+03  0.00000000000E+00 0. -1.
<mgrwt>
<rscale>  1 0.30000000E+03</rscale>
<asrwt>0</asrwt>
<pdfrwt beam="1">  1       21 0.57296694E-03 0.30000000E+03</pdfrwt>
<pdfrwt beam="2">0</pdfrwt>
<totfact> 0.97013273E+05</totfact>
</mgrwt>
</event>
<event>
 6    1  0.1132867E-002  0.3000000E+03  0.7818608E-02  0.1093470E+00
         21   -1    0    0  501  502  0.00000000000E+00  0.00000000000E+00  0.33359502031E+00  0.33359502031E+00  0.00000000000E+00 0. -1.
         13   -1    0    0    0    0 -0.00000000000E+00 -0.00000000000E+00 -0.10000000000E+04  0.10000000000E+04  0.00000000000E+00 0.  1.
    9000005    2    1    2  501    0  0.11519278445E+02 -0.35270682771E+01 -0.86743419238E+03  0.86755373196E+03  0.78908639127E+01 0.  0.
         13    1    3    3    0    0  0.35377856624E+01  0.20236227044E+01 -0.38514748020E+03  0.38516904403E+03  0.00000000000E+00 0.  1.
          1    1    3    3  501    0  0.79814927825E+01 -0.55506909815E+01 -0.48228671218E+03  0.48238468792E+03  0.00000000000E+00 0.  1.
         -3    1    1    2    0  502 -0.11519278445E+02  0.35270682771E+01 -0.13223221260E+03  0.13277986306E+03  0.00000000000E+00 0. -1.
<mgrwt>
<rscale>  1 0.30000000E+03</rscale>
<asrwt>0</asrwt>
<pdfrwt beam="1">  1       21 0.12130754E-02 0.30000000E+03</pdfrwt>
<pdfrwt beam="2">0</pdfrwt>
<totfact> 0.29708055E+05</totfact>
</mgrwt>
</event>
<event>
 6    1  0.1132867E-002  0.3000000E+03  0.7818608E-02  0.1093470E+00
         21   -1    0    0  501  502  0.00000000000E+00  0.00000000000E+00  0.62774693690E+00  0.62774693690E+00  0.00000000000E+00 0. -1.
         13   -1    0    0    0    0 -0.00000000000E+00 -0.00000000000E+00 -0.10000000000E+04  0.10000000000E+04  0.00000000000E+00 0.  1.
    9000005    2    1    2  501    0  0.13329314952E+02 -0.42229649874E+01 -0.91464434773E+03  0.91475387423E+03  0.22053404577E+01 0.  0.
         13    1    3    3    0    0  0.20156916868E+01  0.14937603374E+00 -0.13919880306E+03  0.13921347672E+03  0.00000000000E+00 0.  1.
          1    1    3    3  501    0  0.11313623265E+02 -0.43723410212E+01 -0.77544554466E+03  0.77554039751E+03  0.00000000000E+00 0.  1.
         -1    1    1    2    0  502 -0.13329314952E+02  0.42229649874E+01 -0.84727905337E+02  0.85873872704E+02  0.00000000000E+00 0. -1.
<mgrwt>
<rscale>  1 0.30000000E+03</rscale>
<asrwt>0</asrwt>
<pdfrwt beam="1">  1       21 0.22827209E-02 0.30000000E+03</pdfrwt>
<pdfrwt beam="2">0</pdfrwt>
<totfact> 0.10678259E+05</totfact>
</mgrwt>
</event>
<event>
 6    1  0.1132867E-002  0.3000000E+03  0.7818608E-02  0.1093470E+00
         21   -1    0    0  501  502  0.00000000000E+00  0.00000000000E+00  0.11550580113E+00  0.11550580113E+00  0.00000000000E+00 0. -1.
         13   -1    0    0    0    0 -0.00000000000E+00 -0.00000000000E+00 -0.10000000000E+04  0.10000000000E+04  0.00000000000E+00 0.  1.
    9000005    2    1    2  501    0  0.89900560256E+01 -0.75990802038E+00 -0.73382183591E+03  0.73389992267E+03  0.57629042333E+01 0.  0.
         13    1    3    3    0    0  0.43324765613E+00 -0.38225078996E+00 -0.60140609604E+01  0.60417504445E+01  0.00000000000E+00 0.  1.
          1    1    3    3  501    0  0.85568083695E+01 -0.37765723042E+00 -0.72780777495E+03  0.72785817223E+03  0.00000000000E+00 0.  1.
         -1    1    1    2    0  502 -0.89900560256E+01  0.75990802038E+00 -0.26606265828E+03  0.26621558313E+03  0.00000000000E+00 0. -1.
<mgrwt>
<rscale>  1 0.30000000E+03</rscale>
<asrwt>0</asrwt>
<pdfrwt beam="1">  1       21 0.42002198E-03 0.30000000E+03</pdfrwt>
<pdfrwt beam="2">0</pdfrwt>
<totfact> 0.15705520E+06</totfact>
</mgrwt>
</event>
<event>
 6    1  0.1132867E-002  0.3000000E+03  0.7818608E-02  0.1093470E+00
         21   -1    0    0  501  502  0.00000000000E+00  0.00000000000E+00  0.30936834353E+00  0.30936834353E+00  0.00000000000E+00 0. -1.
         13   -1    0    0    0    0 -0.00000000000E+00 -0.00000000000E+00 -0.10000000000E+04  0.10000000000E+04  0.00000000000E+00 0.  1.
    9000005    2    1    2  501    0 -0.57903418456E+01  0.73223577235E+01 -0.43188056165E+03  0.43242256573E+03  0.19527182093E+02 0.  0.
         13    1    3    3    0    0 -0.46197088965E+01  0.13599908325E+02 -0.34943782221E+03  0.34973288494E+03  0.00000000000E+00 0.  1.
          1    1    3    3  501    0 -0.11706329491E+01 -0.62775506018E+01 -0.82442739436E+02  0.82689680788E+02  0.00000000000E+00 0.  1.
         -3    1    1    2    0  502  0.57903418456E+01 -0.73223577235E+01 -0.56781007001E+03  0.56788680261E+03  0.00000000000E+00 0. -1.
<mgrwt>
<rscale>  1 0.30000000E+03</rscale>
<asrwt>0</asrwt>
<pdfrwt beam="1">  1       21 0.11249782E-02 0.30000000E+03</pdfrwt>
<pdfrwt beam="2">0</pdfrwt>
<totfact> 0.33505443E+05</totfact>
</mgrwt>
</event>
<event>
 6    1  0.1132867E-002  0.3000000E+03  0.7818608E-02  0.1093470E+00
         21   -1    0    0  501  502  0.00000000000E+00  0.00000000000E+00  0.56552076507E+00  0.56552076507E+00  0.00000000000E+00 0. -1.
         13   -1    0    0    0    0 -0.00000000000E+00 -0.00000000000E+00 -0.10000000000E+04  0.10000000000E+04  0.00000000000E+00 0.  1.
    9000005    2    1    2  501    0  0.86362697476E+01  0.94171316740E+01 -0.83425462012E+03  0.83489218742E+03  0.30015427715E+02 0.  0.
         13    1    3    3    0    0  0.90182532693E+01 -0.69681436756E+01 -0.57887660538E+03  0.57898878069E+03  0.00000000000E+00 0.  1.
          3    1    3    3  501    0 -0.38198352170E+00  0.16385275350E+02 -0.25537801474E+03  0.25590340672E+03  0.00000000000E+00 0.  1.
         -3    1    1    2    0  502 -0.86362697476E+01 -0.94171316740E+01 -0.16517985912E+03  0.16567333335E+03  0.00000000000E+00 0. -1.
<mgrwt>
<rscale>  1 0.30000000E+03</rscale>
<asrwt>0</asrwt>
<pdfrwt beam="1">  1       21 0.20564435E-02 0.30000000E+03</pdfrwt>
<pdfrwt beam="2">0</pdfrwt>
<totfact> 0.12667872E+05</totfact>
</mgrwt>
</event>
<event>
 6    1  0.1132867E-002  0.3000000E+03  0.7818608E-02  0.1093470E+00
         21   -1    0    0  501  502  0.00000000000E+00  0.00000000000E+00  0.42920411191E+00  0.42920411191E+00  0.00000000000E+00 0. -1.
         13   -1    0    0    0    0 -0.00000000000E+00 -0.00000000000E+00 -0.10000000000E+04  0.10000000000E+04  0.00000000000E+00 0.  1.
    9000005    2    1    2  501    0  0.11546078400E+02 -0.28909574343E+00 -0.89777665311E+03  0.89798193472E+03  0.15337558604E+02 0.  0.
         13    1    3    3    0    0  0.58321068902E+01 -0.36706324809E+01 -0.13450951054E+03  0.13468591403E+03  0.00000000000E+00 0.  1.
          1    1    3    3  501    0  0.57139715100E+01  0.33815367375E+01 -0.76326714257E+03  0.76329602068E+03  0.00000000000E+00 0.  1.
         -1    1    1    2    0  502 -0.11546078400E+02  0.28909574343E+00 -0.10179414278E+03  0.10244726940E+03  0.00000000000E+00 0. -1.
<mgrwt>
<rscale>  1 0.30000000E+03</rscale>
<asrwt>0</asrwt>
<pdfrwt beam="1">  1       21 0.15607455E-02 0.30000000E+03</pdfrwt>
<pdfrwt beam="2">0</pdfrwt>
<totfact> 0.19820501E+05</totfact>
</mgrwt>
</event>
<event>
 6    1  0.1132867E-002  0.3000000E+03  0.7818608E-02  0.1093470E+00
         21   -1    0    0  501  502  0.00000000000E+00  0.00000000000E+00  0.89345347339E+00  0.89345347339E+00  0.00000000000E+00 0. -1.
         13   -1    0    0    0    0 -0.00000000000E+00 -0.00000000000E+00 -0.10000000000E+04  0.10000000000E+04  0.00000000000E+00 0.  1.
    9000005    2    1    2  501    0  0.23224216958E+02 -0.78325677286E+01 -0.55016030769E+03  0.55127868644E+03  0.25121954403E+02 0.  0.
         13    1    3    3    0    0  0.20221604219E+02 -0.15500070464E+02 -0.47166129201E+03  0.47234895982E+03  0.00000000000E+00 0.  1.
          1    1    3    3  501    0  0.30026127386E+01  0.76675027354E+01 -0.78499015676E+02  0.78929726615E+02  0.00000000000E+00 0.  1.
         -1    1    1    2    0  502 -0.23224216958E+02  0.78325677286E+01 -0.44894623884E+03  0.44961476704E+03  0.00000000000E+00 0. -1.
<mgrwt>
<rscale>  1 0.30000000E+03</rscale>
<asrwt>0</asrwt>
<pdfrwt beam="1">  1       21 0.32489286E-02 0.30000000E+03</pdfrwt>
<pdfrwt beam="2">0</pdfrwt>
<totfact> 0.59582982E+04</totfact>
</mgrwt>
</event>
<event>
 6    1  0.1132867E-002  0.3000000E+03  0.7818608E-02  0.1093470E+00
         21   -1    0    0  501  502  0.00000000000E+00  0.00000000000E+00  0.14532451662E+00  0.14532451662E+00  0.00000000000E+00 0. -1.
         13   -1    0    0    0    0 -0.00000000000E+00 -0.00000000000E+00 -0.10000000000E+04  0.10000000000E+04  0.00000000000E+00 0.  1.
    9000005    2    1    2  501    0  0.22637414794E+01 -0.10656590430E+02 -0.41253261021E+03  0.41272222674E+03  0.61477242188E+01 0.  0.
         13    1    3    3    0    0 -0.26100852548E-01 -0.73422448728E+01 -0.17299061589E+03  0.17314636128E+03  0.00000000000E+00 0.  1.
          3    1    3    3  501    0  0.22898423320E+01 -0.33143455569E+01 -0.23954199433E+03  0.23957586546E+03  0.00000000000E+00 0.  1.
         -3    1    1    2    0  502 -0.22637414794E+01  0.10656590430E+02 -0.58732206527E+03  0.58742309777E+03  0.00000000000E+00 0. -1.
<mgrwt>
<rscale>  1 0.30000000E+03</rscale>
<asrwt>0</asrwt>
<pdfrwt beam="1">  1       21 0.52845390E-03 0.30000000E+03</pdfrwt>
<pdfrwt beam="2">0</pdfrwt>
<totfact> 0.11002483E+06</totfact>
</mgrwt>
</event>
<event>
 6    1  0.1132867E-002  0.3000000E+03  0.7818608E-02  0.1093470E+00
         21   -1    0    0  501  502  0.00000000000E+00  0.00000000000E+00  0.13529514185E+00  0.13529514185E+00  0.00000000000E+00 0. -1.
         13   -1    0    0    0    0 -0.00000000000E+00 -0.00000000000E+00 -0.10000000000E+04  0.10000000000E+04  0.00000000000E+00 0.  1.
    9000005    2    1    2  501    0  0.15514620494E+01  0.92367017974E+01 -0.49159644728E+03  0.49178074824E+03  0.96702464438E+01 0.  0.
         13    1    3    3    0    0 -0.21528782956E+01 -0.10672581681E+01 -0.11525693704E+03  0.11528198237E+03  0.00000000000E+00 0.  1.
          3    1    3    3  501    0  0.37043403450E+01  0.10303959966E+02 -0.37633951024E+03  0.37649876587E+03  0.00000000000E+00 0.  1.
         -3    1    1    2    0  502 -0.15514620494E+01 -0.92367017974E+01 -0.50826825758E+03  0.50835454690E+03  0.00000000000E+00 0. -1.
<mgrwt>
<rscale>  1 0.30000000E+03</rscale>
<asrwt>0</asrwt>
<pdfrwt beam="1">  1       21 0.49198337E-03 0.30000000E+03</pdfrwt>
<pdfrwt beam="2">0</pdfrwt>
<totfact> 0.12295298E+06</totfact>
</mgrwt>
</event>
<event>
 6    1  0.1132867E-002  0.3000000E+03  0.7818608E-02  0.1093470E+00
         21   -1    0    0  501  502  0.00000000000E+00  0.00000000000E+00  0.84365377943E-01  0.84365377943E-01  0.00000000000E+00 0. -1.
         13   -1    0    0    0    0 -0.00000000000E+00 -0.00000000000E+00 -0.10000000000E+04  0.10000000000E+04  0.00000000000E+00 0.  1.
    9000005    2    1    2  501    0  0.79174091102E+01 -0.78326281691E+00 -0.53365826106E+03  0.53375911701E+03  0.66600692462E+01 0.  0.
         13    1    3    3    0    0  0.64288923628E+01 -0.32536199080E+01 -0.43148767975E+03  0.43154783567E+03  0.00000000000E+00 0.  1.
          3    1    3    3  501    0  0.14885167474E+01  0.24703570911E+01 -0.10217058131E+03  0.10221128133E+03  0.00000000000E+00 0.  1.
         -1    1    1    2    0  502 -0.79174091102E+01  0.78326281691E+00 -0.46625737356E+03  0.46632524837E+03  0.00000000000E+00 0. -1.
<mgrwt>
<rscale>  1 0.30000000E+03</rscale>
<asrwt>0</asrwt>
<pdfrwt beam="1">  1       21 0.30678384E-03 0.30000000E+03</pdfrwt>
<pdfrwt beam="2">0</pdfrwt>
<totfact> 0.25462935E+06</totfact>
</mgrwt>
</event>
<event>
 6    1  0.1132867E-002  0.3000000E+03  0.7818608E-02  0.1093470E+00
         21   -1    0    0  501  502  0.00000000000E+00  0.00000000000E+00  0.19876497827E+00  0.19876497827E+00  0.00000000000E+00 0. -1.
         13   -1    0    0    0    0 -0.00000000000E+00 -0.00000000000E+00 -0.10000000000E+04  0.10000000000E+04  0.00000000000E+00 0.  1.
    9000005    2    1    2  501    0 -0.23884451266E+01  0.12690932439E+02 -0.62392597605E+03  0.62410173661E+03  0.72518701161E+01 0.  0.
         13    1    3    3    0    0 -0.42883401466E+01  0.51407813664E+01 -0.35487290418E+03  0.35493604440E+03  0.00000000000E+00 0.  1.
          1    1    3    3  501    0  0.18998950200E+01  0.75501510724E+01 -0.26905307187E+03  0.26916569221E+03  0.00000000000E+00 0.  1.
         -1    1    1    2    0  502  0.23884451266E+01 -0.12690932439E+02 -0.37587525897E+03  0.37609702836E+03  0.00000000000E+00 0. -1.
<mgrwt>
<rscale>  1 0.30000000E+03</rscale>
<asrwt>0</asrwt>
<pdfrwt beam="1">  1       21 0.72278326E-03 0.30000000E+03</pdfrwt>
<pdfrwt beam="2">0</pdfrwt>
<totfact> 0.67457357E+05</totfact>
</mgrwt>
</event>
<event>
 6    1  0.1132867E-002  0.3000000E+03  0.7818608E-02  0.1093470E+00
         21   -1    0    0  501  502  0.00000000000E+00  0.00000000000E+00  0.66490095478E+00  0.66490095478E+00  0.00000000000E+00 0. -1.
         13   -1    0    0    0    0 -0.00000000000E+00 -0.00000000000E+00 -0.10000000000E+04  0.10000000000E+04  0.00000000000E+00 0.  1.
    9000005    2    1    2  501    0  0.16147991415E+02  0.97198259985E+00 -0.88448094643E+03  0.88467706215E+03  0.92334893319E+01 0.  0.
         13    1    3    3    0    0  0.11188626482E+02  0.11975938258E+01 -0.77704942130E+03  0.77713089164E+03  0.00000000000E+00 0.  1.
          1    1    3    3  501    0  0.49593649335E+01 -0.22561122593E+00 -0.10743152512E+03  0.10754617051E+03  0.00000000000E+00 0.  1.
         -1    1    1    2    0  502 -0.16147991415E+02 -0.97198259985E+00 -0.11485415262E+03  0.11598783881E+03  0.00000000000E+00 0. -1.
<mgrwt>
<rscale>  1 0.30000000E+03</rscale>
<asrwt>0</asrwt>
<pdfrwt beam="1">  1       21 0.24178268E-02 0.30000000E+03</pdfrwt>
<pdfrwt beam="2">0</pdfrwt>
<totfact> 0.97165306E+04</totfact>
</mgrwt>
</event>
<event>
 6    1  0.1132867E-002  0.3000000E+03  0.7818608E-02  0.1093470E+00
         21   -1    0    0  501  502  0.00000000000E+00  0.00000000000E+00  0.11085377248E+00  0.11085377248E+00  0.00000000000E+00 0. -1.
         13   -1    0    0    0    0 -0.00000000000E+00 -0.00000000000E+00 -0.10000000000E+04  0.10000000000E+04  0.00000000000E+00 0.  1.
    9000005    2    1    2  501    0  0.85786771174E+00  0.96824702085E+01 -0.63803851626E+03  0.63812968773E+03  0.46758909705E+01 0.  0.
         13    1    3    3    0    0  0.12816774054E+01  0.77441848698E+01 -0.58721043395E+03  0.58726289584E+03  0.00000000000E+00 0.  1.
          3    1    3    3  501    0 -0.42380969363E+00  0.19382853387E+01 -0.50828082315E+02  0.50866791884E+02  0.00000000000E+00 0.  1.
         -1    1    1    2    0  502 -0.85786771174E+00 -0.96824702085E+01 -0.36185062996E+03  0.36198116605E+03  0.00000000000E+00 0. -1.
<mgrwt>
<rscale>  1 0.30000000E+03</rscale>
<asrwt>0</asrwt>
<pdfrwt beam="1">  1       21 0.40310548E-03 0.30000000E+03</pdfrwt>
<pdfrwt beam="2">0</pdfrwt>
<totfact> 0.16734413E+06</totfact>
</mgrwt>
</event>
<event>
 6    1  0.1132867E-002  0.3000000E+03  0.7818608E-02  0.1093470E+00
         21   -1    0    0  501  502  0.00000000000E+00  0.00000000000E+00  0.13475146586E+01  0.13475146586E+01  0.00000000000E+00 0. -1.
         13   -1    0    0    0    0 -0.00000000000E+00 -0.00000000000E+00 -0.10000000000E+04  0.10000000000E+04  0.00000000000E+00 0.  1.
    9000005    2    1    2  501    0 -0.10197913007E+02 -0.58873295681E+01 -0.97123552924E+03  0.97150882231E+03  0.19806072087E+02 0.  0.
         13    1    3    3    0    0 -0.14506163317E+02 -0.47176711005E+00 -0.46616317971E+03  0.46638906661E+03  0.00000000000E+00 0.  1.
          1    1    3    3  501    0  0.43082503099E+01 -0.54155624580E+01 -0.50507234953E+03  0.50511975570E+03  0.00000000000E+00 0.  1.
         -1    1    1    2    0  502  0.10197913007E+02  0.58873295681E+01 -0.27416956102E+02  0.29838692348E+02  0.00000000000E+00 0. -1.
<mgrwt>
<rscale>  1 0.30000000E+03</rscale>
<asrwt>0</asrwt>
<pdfrwt beam="1">  1       21 0.49000636E-02 0.30000000E+03</pdfrwt>
<pdfrwt beam="2">0</pdfrwt>
<totfact> 0.29812814E+04</totfact>
</mgrwt>
</event>
<event>
 6    1  0.1132867E-002  0.3000000E+03  0.7818608E-02  0.1093470E+00
         21   -1    0    0  501  502  0.00000000000E+00  0.00000000000E+00  0.27758827676E+00  0.27758827676E+00  0.00000000000E+00 0. -1.
         13   -1    0    0    0    0 -0.00000000000E+00 -0.00000000000E+00 -0.10000000000E+04  0.10000000000E+04  0.00000000000E+00 0.  1.
    9000005    2    1    2  501    0 -0.78332393681E+01 -0.61047897997E+01 -0.89858818255E+03  0.89865691908E+03  0.49908210394E+01 0.  0.
         13    1    3    3    0    0 -0.83371278735E+01 -0.56340930955E+01 -0.87700813912E+03  0.87706586229E+03  0.00000000000E+00 0.  1.
          1    1    3    3  501    0  0.50388850532E+00 -0.47069670421E+00 -0.21580043434E+02  0.21591056797E+02  0.00000000000E+00 0.  1.
         -1    1    1    2    0  502  0.78332393681E+01  0.61047897997E+01 -0.10113422917E+03  0.10162066919E+03  0.00000000000E+00 0. -1.
<mgrwt>
<rscale>  1 0.30000000E+03</rscale>
<asrwt>0</asrwt>
<pdfrwt beam="1">  1       21 0.10094140E-02 0.30000000E+03</pdfrwt>
<pdfrwt beam="2">0</pdfrwt>
<totfact> 0.39812590E+05</totfact>
</mgrwt>
</event>
<event>
 6    1  0.1132867E-002  0.3000000E+03  0.7818608E-02  0.1093470E+00
         21   -1    0    0  501  502  0.00000000000E+00  0.00000000000E+00  0.63866682593E+00  0.63866682593E+00  0.00000000000E+00 0. -1.
         13   -1    0    0    0    0 -0.00000000000E+00 -0.00000000000E+00 -0.10000000000E+04  0.10000000000E+04  0.00000000000E+00 0.  1.
    9000005    2    1    2  501    0  0.95354510455E+01  0.20399823715E+02 -0.67307402230E+03  0.67357523740E+03  0.12956978863E+02 0.  0.
         13    1    3    3    0    0 -0.12179107108E+01 -0.11862150272E+01 -0.28914907295E+02  0.28964845528E+02  0.00000000000E+00 0.  1.
          3    1    3    3  501    0  0.10753361756E+02  0.21586038742E+02 -0.64415911501E+03  0.64461039187E+03  0.00000000000E+00 0.  1.
         -1    1    1    2    0  502 -0.95354510455E+01 -0.20399823715E+02 -0.32628731087E+03  0.32706342943E+03  0.00000000000E+00 0. -1.
<mgrwt>
<rscale>  1 0.30000000E+03</rscale>
<asrwt>0</asrwt>
<pdfrwt beam="1">  1       21 0.23224297E-02 0.30000000E+03</pdfrwt>
<pdfrwt beam="2">0</pdfrwt>
<totfact> 0.10380436E+05</totfact>
</mgrwt>
</event>
<event>
 6    1  0.1132867E-002  0.3000000E+03  0.7818608E-02  0.1093470E+00
         21   -1    0    0  501  502  0.00000000000E+00  0.00000000000E+00  0.24360030022E+01  0.24360030022E+01  0.00000000000E+00 0. -1.
         13   -1    0    0    0    0 -0.00000000000E+00 -0.00000000000E+00 -0.10000000000E+04  0.10000000000E+04  0.00000000000E+00 0.  1.
    9000005    2    1    2  501    0  0.26707016211E+02  0.82330217571E+01 -0.91037297913E+03  0.91087552594E+03  0.11585131568E+02 0.  0.
         13    1    3    3    0    0  0.90439298800E+01 -0.26622082931E+00 -0.16768465235E+03  0.16792857463E+03  0.00000000000E+00 0.  1.
          1    1    3    3  501    0  0.17663086331E+02  0.84992425864E+01 -0.74268832677E+03  0.74294695132E+03  0.00000000000E+00 0.  1.
         -1    1    1    2    0  502 -0.26707016211E+02 -0.82330217571E+01 -0.87191017869E+02  0.91560477058E+02  0.00000000000E+00 0. -1.
<mgrwt>
<rscale>  1 0.30000000E+03</rscale>
<asrwt>0</asrwt>
<pdfrwt beam="1">  1       21 0.88582114E-02 0.30000000E+03</pdfrwt>
<pdfrwt beam="2">0</pdfrwt>
<totfact> 0.10673993E+04</totfact>
</mgrwt>
</event>
<event>
 6    1  0.1132867E-002  0.3000000E+03  0.7818608E-02  0.1093470E+00
         21   -1    0    0  501  502  0.00000000000E+00  0.00000000000E+00  0.97172402116E+00  0.97172402116E+00  0.00000000000E+00 0. -1.
         13   -1    0    0    0    0 -0.00000000000E+00 -0.00000000000E+00 -0.10000000000E+04  0.10000000000E+04  0.00000000000E+00 0.  1.
    9000005    2    1    2  501    0  0.26826025194E+02  0.20732401476E+01 -0.74730908624E+03  0.74781863904E+03  0.61573181838E+01 0.  0.
         13    1    3    3    0    0  0.12519566401E+02 -0.10462023140E+01 -0.28299625616E+03  0.28327498139E+03  0.00000000000E+00 0.  1.
          3    1    3    3  501    0  0.14306458793E+02  0.31194424616E+01 -0.46431283008E+03  0.46454365765E+03  0.00000000000E+00 0.  1.
         -3    1    1    2    0  502 -0.26826025194E+02 -0.20732401476E+01 -0.25171918974E+03  0.25315308498E+03  0.00000000000E+00 0. -1.
<mgrwt>
<rscale>  1 0.30000000E+03</rscale>
<asrwt>0</asrwt>
<pdfrwt beam="1">  1       21 0.35335493E-02 0.30000000E+03</pdfrwt>
<pdfrwt beam="2">0</pdfrwt>
<totfact> 0.51782682E+04</totfact>
</mgrwt>
</event>
<event>
 6    1  0.1132867E-002  0.3000000E+03  0.7818608E-02  0.1093470E+00
         21   -1    0    0  501  502  0.00000000000E+00  0.00000000000E+00  0.40509640871E+00  0.40509640871E+00  0.00000000000E+00 0. -1.
         13   -1    0    0    0    0 -0.00000000000E+00 -0.00000000000E+00 -0.10000000000E+04  0.10000000000E+04  0.00000000000E+00 0.  1.
    9000005    2    1    2  501    0  0.79140643117E+01  0.11777080267E+02 -0.84430979278E+03  0.84447306739E+03  0.86257366625E+01 0.  0.
         13    1    3    3    0    0  0.31922784865E+00  0.52178223907E+01 -0.15061601527E+03  0.15070670733E+03  0.00000000000E+00 0.  1.
          3    1    3    3  501    0  0.75948364630E+01  0.65592578762E+01 -0.69369377751E+03  0.69376636007E+03  0.00000000000E+00 0.  1.
         -1    1    1    2    0  502 -0.79140643117E+01 -0.11777080267E+02 -0.15528511081E+03  0.15593202902E+03  0.00000000000E+00 0. -1.
<mgrwt>
<rscale>  1 0.30000000E+03</rscale>
<asrwt>0</asrwt>
<pdfrwt beam="1">  1       21 0.14730810E-02 0.30000000E+03</pdfrwt>
<pdfrwt beam="2">0</pdfrwt>
<totfact> 0.21755475E+05</totfact>
</mgrwt>
</event>
<event>
 6    1  0.1132867E-002  0.3000000E+03  0.7818608E-02  0.1093470E+00
         21   -1    0    0  501  502  0.00000000000E+00  0.00000000000E+00  0.19441550041E+00  0.19441550041E+00  0.00000000000E+00 0. -1.
         13   -1    0    0    0    0 -0.00000000000E+00 -0.00000000000E+00 -0.10000000000E+04  0.10000000000E+04  0.00000000000E+00 0.  1.
    9000005    2    1    2  501    0  0.28569335952E+01  0.11874940334E+02 -0.37941842217E+03  0.37968703645E+03  0.73979920072E+01 0.  0.
         13    1    3    3    0    0 -0.39658138885E+00  0.10383784759E+02 -0.24371713002E+03  0.24393855729E+03  0.00000000000E+00 0.  1.
          3    1    3    3  501    0  0.32535149840E+01  0.14911555755E+01 -0.13570129215E+03  0.13574847916E+03  0.00000000000E+00 0.  1.
         -1    1    1    2    0  502 -0.28569335952E+01 -0.11874940334E+02 -0.62038716233E+03  0.62050737905E+03  0.00000000000E+00 0. -1.
<mgrwt>
<rscale>  1 0.30000000E+03</rscale>
<asrwt>0</asrwt>
<pdfrwt beam="1">  1       21 0.70696695E-03 0.30000000E+03</pdfrwt>
<pdfrwt beam="2">0</pdfrwt>
<totfact> 0.69840036E+05</totfact>
</mgrwt>
</event>
<event>
 6    1  0.1132867E-002  0.3000000E+03  0.7818608E-02  0.1093470E+00
         21   -1    0    0  501  502  0.00000000000E+00  0.00000000000E+00  0.36232310603E+00  0.36232310603E+00  0.00000000000E+00 0. -1.
         13   -1    0    0    0    0 -0.00000000000E+00 -0.00000000000E+00 -0.10000000000E+04  0.10000000000E+04  0.00000000000E+00 0.  1.
    9000005    2    1    2  501    0  0.14145156617E+01  0.18029435790E+02 -0.55730479446E+03  0.55765989450E+03  0.82983491467E+01 0.  0.
         13    1    3    3    0    0  0.10825985199E+01  0.16094081678E+02 -0.37760454159E+03  0.37794891363E+03  0.00000000000E+00 0.  1.
          1    1    3    3  501    0  0.33191714176E+00  0.19353541121E+01 -0.17970025286E+03  0.17971098087E+03  0.00000000000E+00 0.  1.
         -3    1    1    2    0  502 -0.14145156617E+01 -0.18029435790E+02 -0.44233288244E+03  0.44270242861E+03  0.00000000000E+00 0. -1.
<mgrwt>
<rscale>  1 0.30000000E+03</rscale>
<asrwt>0</asrwt>
<pdfrwt beam="1">  1       21 0.13175413E-02 0.30000000E+03</pdfrwt>
<pdfrwt beam="2">0</pdfrwt>
<totfact> 0.26027887E+05</totfact>
</mgrwt>
</event>
<event>
 6    1  0.1132867E-002  0.3000000E+03  0.7818608E-02  0.1093470E+00
         21   -1    0    0  501  502  0.00000000000E+00  0.00000000000E+00  0.33738486555E+00  0.33738486555E+00  0.00000000000E+00 0. -1.
         13   -1    0    0    0    0 -0.00000000000E+00 -0.00000000000E+00 -0.10000000000E+04  0.10000000000E+04  0.00000000000E+00 0.  1.
    9000005    2    1    2  501    0  0.14849839615E+02  0.73868595411E+01 -0.63467527300E+03  0.63497339739E+03  0.10170044079E+02 0.  0.
         13    1    3    3    0    0  0.14050601377E+02  0.86133638461E+01 -0.46525816522E+03  0.46554996481E+03  0.00000000000E+00 0.  1.
          3    1    3    3  501    0  0.79923823791E+00 -0.12265043050E+01 -0.16941710779E+03  0.16942343257E+03  0.00000000000E+00 0.  1.
         -1    1    1    2    0  502 -0.14849839615E+02 -0.73868595411E+01 -0.36498734213E+03  0.36536398748E+03  0.00000000000E+00 0. -1.
<mgrwt>
<rscale>  1 0.30000000E+03</rscale>
<asrwt>0</asrwt>
<pdfrwt beam="1">  1       21 0.12268566E-02 0.30000000E+03</pdfrwt>
<pdfrwt beam="2">0</pdfrwt>
<totfact> 0.29176533E+05</totfact>
</mgrwt>
</event>
<event>
 6    1  0.1132867E-002  0.3000000E+03  0.7818608E-02  0.1093470E+00
         21   -1    0    0  501  502  0.00000000000E+00  0.00000000000E+00  0.35347304145E+00  0.35347304145E+00  0.00000000000E+00 0.  1.
         13   -1    0    0    0    0 -0.00000000000E+00 -0.00000000000E+00 -0.10000000000E+04  0.10000000000E+04  0.00000000000E+00 0.  1.
    9000005    2    1    2  501    0  0.28745446612E+01  0.14941657878E+02 -0.66965374885E+03  0.67001009147E+03  0.15680024545E+02 0.  0.
         13    1    3    3    0    0  0.41270426622E+01  0.56253698304E+00 -0.35605472856E+03  0.35607909045E+03  0.00000000000E+00 0.  1.
          1    1    3    3  501    0 -0.12524980010E+01  0.14379120895E+02 -0.31359902030E+03  0.31393100102E+03  0.00000000000E+00 0.  1.
         -1    1    1    2    0  502 -0.28745446612E+01 -0.14941657878E+02 -0.32999277810E+03  0.33034338157E+03  0.00000000000E+00 0. -1.
<mgrwt>
<rscale>  1 0.30000000E+03</rscale>
<asrwt>0</asrwt>
<pdfrwt beam="1">  1       21 0.12853592E-02 0.30000000E+03</pdfrwt>
<pdfrwt beam="2">0</pdfrwt>
<totfact> 0.27080593E+05</totfact>
</mgrwt>
</event>
<event>
 6    1  0.1132867E-002  0.3000000E+03  0.7818608E-02  0.1093470E+00
         21   -1    0    0  501  502  0.00000000000E+00  0.00000000000E+00  0.25156817269E+00  0.25156817269E+00  0.00000000000E+00 0. -1.
         13   -1    0    0    0    0 -0.00000000000E+00 -0.00000000000E+00 -0.10000000000E+04  0.10000000000E+04  0.00000000000E+00 0.  1.
    9000005    2    1    2  501    0 -0.77963174645E+01  0.64776707790E+01 -0.84344412684E+03  0.84361894532E+03  0.13863153106E+02 0.  0.
         13    1    3    3    0    0  0.20318920274E+01  0.32914206270E+01 -0.51027206355E+03  0.51028672418E+03  0.00000000000E+00 0.  1.
          1    1    3    3  501    0 -0.98282094919E+01  0.31862501520E+01 -0.33317206329E+03  0.33333222114E+03  0.00000000000E+00 0.  1.
         -1    1    1    2    0  502  0.77963174645E+01 -0.64776707790E+01 -0.15630430498E+03  0.15663262285E+03  0.00000000000E+00 0. -1.
<mgrwt>
<rscale>  1 0.30000000E+03</rscale>
<asrwt>0</asrwt>
<pdfrwt beam="1">  1       21 0.91479528E-03 0.30000000E+03</pdfrwt>
<pdfrwt beam="2">0</pdfrwt>
<totfact> 0.46533442E+05</totfact>
</mgrwt>
</event>
<event>
 6    1  0.1132867E-002  0.3000000E+03  0.7818608E-02  0.1093470E+00
         21   -1    0    0  501  502  0.00000000000E+00  0.00000000000E+00  0.35061402185E+00  0.35061402185E+00  0.00000000000E+00 0. -1.
         13   -1    0    0    0    0 -0.00000000000E+00 -0.00000000000E+00 -0.10000000000E+04  0.10000000000E+04  0.00000000000E+00 0.  1.
    9000005    2    1    2  501    0 -0.65077402901E+00  0.10111199728E+02 -0.85841084473E+03  0.85874911191E+03  0.21867761366E+02 0.  0.
         13    1    3    3    0    0 -0.14677434582E+00 -0.26748970779E+01 -0.61228493954E+03  0.61229080003E+03  0.00000000000E+00 0.  1.
          3    1    3    3  501    0 -0.50399968319E+00  0.12786096806E+02 -0.24612590519E+03  0.24645831188E+03  0.00000000000E+00 0.  1.
         -1    1    1    2    0  502  0.65077402901E+00 -0.10111199728E+02 -0.14123854125E+03  0.14160150211E+03  0.00000000000E+00 0. -1.
<mgrwt>
<rscale>  1 0.30000000E+03</rscale>
<asrwt>0</asrwt>
<pdfrwt beam="1">  1       21 0.12749628E-02 0.30000000E+03</pdfrwt>
<pdfrwt beam="2">0</pdfrwt>
<totfact> 0.27435190E+05</totfact>
</mgrwt>
</event>
<event>
 6    1  0.1132867E-002  0.3000000E+03  0.7818608E-02  0.1093470E+00
         21   -1    0    0  501  502  0.00000000000E+00  0.00000000000E+00  0.19957132708E+00  0.19957132708E+00  0.00000000000E+00 0. -1.
         13   -1    0    0    0    0 -0.00000000000E+00 -0.00000000000E+00 -0.10000000000E+04  0.10000000000E+04  0.00000000000E+00 0.  1.
    9000005    2    1    2  501    0 -0.10715623181E+02  0.30576487754E+01 -0.74491890777E+03  0.74507457550E+03  0.10381238476E+02 0.  0.
         13    1    3    3    0    0 -0.37566293846E+01 -0.37505688918E+01 -0.32102624046E+03  0.32107012645E+03  0.00000000000E+00 0.  1.
          3    1    3    3  501    0 -0.69589937965E+01  0.68082176671E+01 -0.42389266731E+03  0.42400444906E+03  0.00000000000E+00 0.  1.
         -1    1    1    2    0  502  0.10715623181E+02 -0.30576487754E+01 -0.25488152090E+03  0.25512499582E+03  0.00000000000E+00 0. -1.
<mgrwt>
<rscale>  1 0.30000000E+03</rscale>
<asrwt>0</asrwt>
<pdfrwt beam="1">  1       21 0.72571545E-03 0.30000000E+03</pdfrwt>
<pdfrwt beam="2">0</pdfrwt>
<totfact> 0.67030065E+05</totfact>
</mgrwt>
</event>
<event>
 6    1  0.1132867E-002  0.3000000E+03  0.7818608E-02  0.1093470E+00
         21   -1    0    0  501  502  0.00000000000E+00  0.00000000000E+00  0.20196272687E+00  0.20196272687E+00  0.00000000000E+00 0. -1.
         13   -1    0    0    0    0 -0.00000000000E+00 -0.00000000000E+00 -0.10000000000E+04  0.10000000000E+04  0.00000000000E+00 0.  1.
    9000005    2    1    2  501    0 -0.71143414871E+01 -0.35235082191E+01 -0.72211131044E+03  0.72240176974E+03  0.18882353966E+02 0.  0.
         13    1    3    3    0    0 -0.36282556796E+01  0.61412122115E+01 -0.50213106509E+03  0.50218172533E+03  0.00000000000E+00 0.  1.
          1    1    3    3  501    0 -0.34860858075E+01 -0.96647204306E+01 -0.21998024536E+03  0.22022004441E+03  0.00000000000E+00 0.  1.
         -3    1    1    2    0  502  0.71143414871E+01  0.35235082191E+01 -0.27768672683E+03  0.27780019299E+03  0.00000000000E+00 0. -1.
<mgrwt>
<rscale>  1 0.30000000E+03</rscale>
<asrwt>0</asrwt>
<pdfrwt beam="1">  1       21 0.73441146E-03 0.30000000E+03</pdfrwt>
<pdfrwt beam="2">0</pdfrwt>
<totfact> 0.65788209E+05</totfact>
</mgrwt>
</event>
<event>
 6    1  0.1132867E-002  0.3000000E+03  0.7818608E-02  0.1093470E+00
         21   -1    0    0  501  502  0.00000000000E+00  0.00000000000E+00  0.28492039002E+00  0.28492039002E+00  0.00000000000E+00 0.  1.
         13   -1    0    0    0    0 -0.00000000000E+00 -0.00000000000E+00 -0.10000000000E+04  0.10000000000E+04  0.00000000000E+00 0.  1.
    9000005    2    1    2  501    0 -0.38275346240E+01  0.75738361552E+01 -0.72001173792E+03  0.72045287725E+03  0.23736734816E+02 0.  0.
         13    1    3    3    0    0 -0.13737259281E+02  0.55967048792E+01 -0.47840814100E+03  0.47863805195E+03  0.00000000000E+00 0.  1.
          3    1    3    3  501    0  0.99097246566E+01  0.19771312760E+01 -0.24160359691E+03  0.24181482530E+03  0.00000000000E+00 0.  1.
         -3    1    1    2    0  502  0.38275346240E+01 -0.75738361552E+01 -0.27970334169E+03  0.27983204314E+03  0.00000000000E+00 0. -1.
<mgrwt>
<rscale>  1 0.30000000E+03</rscale>
<asrwt>0</asrwt>
<pdfrwt beam="1">  1       21 0.10360763E-02 0.30000000E+03</pdfrwt>
<pdfrwt beam="2">0</pdfrwt>
<totfact> 0.38196547E+05</totfact>
</mgrwt>
</event>
<event>
 6    1  0.1132867E-002  0.3000000E+03  0.7818608E-02  0.1093470E+00
         21   -1    0    0  501  502  0.00000000000E+00  0.00000000000E+00  0.23634103169E+00  0.23634103169E+00  0.00000000000E+00 0. -1.
         13   -1    0    0    0    0 -0.00000000000E+00 -0.00000000000E+00 -0.10000000000E+04  0.10000000000E+04  0.00000000000E+00 0.  1.
    9000005    2    1    2  501    0  0.89994133995E+01 -0.65463485959E+01 -0.57625738409E+03  0.57658387853E+03  0.15891889198E+02 0.  0.
         13    1    3    3    0    0  0.78902892110E+01 -0.10992770418E+02 -0.32060287055E+03  0.32088829562E+03  0.00000000000E+00 0.  1.
          1    1    3    3  501    0  0.11091241885E+01  0.44464218218E+01 -0.25565451354E+03  0.25569558291E+03  0.00000000000E+00 0.  1.
         -3    1    1    2    0  502 -0.89994133995E+01  0.65463485959E+01 -0.42350627488E+03  0.42365246250E+03  0.00000000000E+00 0. -1.
<mgrwt>
<rscale>  1 0.30000000E+03</rscale>
<asrwt>0</asrwt>
<pdfrwt beam="1">  1       21 0.85942375E-03 0.30000000E+03</pdfrwt>
<pdfrwt beam="2">0</pdfrwt>
<totfact> 0.51358936E+05</totfact>
</mgrwt>
</event>
<event>
 6    1  0.1132867E-002  0.3000000E+03  0.7818608E-02  0.1093470E+00
         21   -1    0    0  501  502  0.00000000000E+00  0.00000000000E+00  0.95346134023E-01  0.95346134023E-01  0.00000000000E+00 0. -1.
         13   -1    0    0    0    0 -0.00000000000E+00 -0.00000000000E+00 -0.10000000000E+04  0.10000000000E+04  0.00000000000E+00 0.  1.
    9000005    2    1    2  501    0 -0.20516885869E+01 -0.85826319725E+01 -0.69953497988E+03  0.69959607484E+03  0.27584159530E+01 0.  0.
         13    1    3    3    0    0 -0.26028826250E+01 -0.67379409691E+01 -0.58951482638E+03  0.58955907708E+03  0.00000000000E+00 0.  1.
          1    1    3    3  501    0  0.55119403805E+00 -0.18446910035E+01 -0.11002015350E+03  0.11003699776E+03  0.00000000000E+00 0.  1.
         -1    1    1    2    0  502  0.20516885869E+01  0.85826319725E+01 -0.30036967399E+03  0.30049927130E+03  0.00000000000E+00 0. -1.
<mgrwt>
<rscale>  1 0.30000000E+03</rscale>
<asrwt>0</asrwt>
<pdfrwt beam="1">  1       21 0.34671395E-03 0.30000000E+03</pdfrwt>
<pdfrwt beam="2">0</pdfrwt>
<totfact> 0.21105562E+06</totfact>
</mgrwt>
</event>
<event>
 6    1  0.1132867E-002  0.3000000E+03  0.7818608E-02  0.1093470E+00
         21   -1    0    0  501  502  0.00000000000E+00  0.00000000000E+00  0.22821544495E+01  0.22821544495E+01  0.00000000000E+00 0. -1.
         13   -1    0    0    0    0 -0.00000000000E+00 -0.00000000000E+00 -0.10000000000E+04  0.10000000000E+04  0.00000000000E+00 0.  1.
    9000005    2    1    2  501    0  0.24714870706E+02  0.56584855909E+01 -0.91969746429E+03  0.92024543593E+03  0.19115261905E+02 0.  0.
         13    1    3    3    0    0  0.15114867006E+02  0.15271613597E+01 -0.78360952448E+03  0.78375677240E+03  0.00000000000E+00 0.  1.
          1    1    3    3  501    0  0.96000036997E+01  0.41313242313E+01 -0.13608793981E+03  0.13648866353E+03  0.00000000000E+00 0.  1.
         -1    1    1    2    0  502 -0.24714870706E+02 -0.56584855909E+01 -0.78020381261E+02  0.82036718518E+02  0.00000000000E+00 0. -1.
<mgrwt>
<rscale>  1 0.30000000E+03</rscale>
<asrwt>0</asrwt>
<pdfrwt beam="1">  1       21 0.82987610E-02 0.30000000E+03</pdfrwt>
<pdfrwt beam="2">0</pdfrwt>
<totfact> 0.11976312E+04</totfact>
</mgrwt>
</event>
<event>
 6    1  0.1132867E-002  0.3000000E+03  0.7818608E-02  0.1093470E+00
         21   -1    0    0  501  502  0.00000000000E+00  0.00000000000E+00  0.62538446992E+01  0.62538446992E+01  0.00000000000E+00 0. -1.
         13   -1    0    0    0    0 -0.00000000000E+00 -0.00000000000E+00 -0.10000000000E+04  0.10000000000E+04  0.00000000000E+00 0.  1.
    9000005    2    1    2  501    0  0.12522809989E+02  0.29781786854E+02 -0.95574271981E+03  0.95637362109E+03  0.12750727307E+02 0.  0.
         13    1    3    3    0    0  0.52897768698E+01  0.26071190720E+02 -0.73500693981E+03  0.73548819861E+03  0.00000000000E+00 0.  1.
          3    1    3    3  501    0  0.72330331193E+01  0.37105961338E+01 -0.22073578001E+03  0.22088542248E+03  0.00000000000E+00 0.  1.
         -1    1    1    2    0  502 -0.12522809989E+02 -0.29781786854E+02 -0.38003435488E+02  0.49880223608E+02  0.00000000000E+00 0. -1.
<mgrwt>
<rscale>  1 0.30000000E+03</rscale>
<asrwt>0</asrwt>
<pdfrwt beam="1">  1       21 0.22741301E-01 0.30000000E+03</pdfrwt>
<pdfrwt beam="2">0</pdfrwt>
<totfact> 0.18748391E+03</totfact>
</mgrwt>
</event>
<event>
 6    1  0.1132867E-002  0.3000000E+03  0.7818608E-02  0.1093470E+00
         21   -1    0    0  501  502  0.00000000000E+00  0.00000000000E+00  0.91235508721E-01  0.91235508721E-01  0.00000000000E+00 0. -1.
         13   -1    0    0    0    0 -0.00000000000E+00 -0.00000000000E+00 -0.10000000000E+04  0.10000000000E+04  0.00000000000E+00 0.  1.
    9000005    2    1    2  501    0 -0.28212011272E+01 -0.76777892208E+01 -0.45065052004E+03  0.45077208718E+03  0.65326675244E+01 0.  0.
         13    1    3    3    0    0 -0.31959447889E+01 -0.71671502620E+00 -0.19063013252E+03  0.19065826803E+03  0.00000000000E+00 0.  1.
          1    1    3    3  501    0  0.37474366165E+00 -0.69610741946E+01 -0.26002038752E+03  0.26011381915E+03  0.00000000000E+00 0.  1.
         -1    1    1    2    0  502  0.28212011272E+01  0.76777892208E+01 -0.54925824445E+03  0.54931914833E+03  0.00000000000E+00 0. -1.
<mgrwt>
<rscale>  1 0.30000000E+03</rscale>
<asrwt>0</asrwt>
<pdfrwt beam="1">  1       21 0.33176619E-03 0.30000000E+03</pdfrwt>
<pdfrwt beam="2">0</pdfrwt>
<totfact> 0.22582919E+06</totfact>
</mgrwt>
</event>
<event>
 6    1  0.1132867E-002  0.3000000E+03  0.7818608E-02  0.1093470E+00
         21   -1    0    0  501  502  0.00000000000E+00  0.00000000000E+00  0.12651072005E+00  0.12651072005E+00  0.00000000000E+00 0. -1.
         13   -1    0    0    0    0 -0.00000000000E+00 -0.00000000000E+00 -0.10000000000E+04  0.10000000000E+04  0.00000000000E+00 0.  1.
    9000005    2    1    2  501    0 -0.77540534259E+01  0.58217187948E+01 -0.61501491820E+03  0.61514581317E+03  0.81856028996E+01 0.  0.
         13    1    3    3    0    0 -0.62646626685E+01  0.74331843569E+01 -0.56394168990E+03  0.56402546736E+03  0.00000000000E+00 0.  1.
          3    1    3    3  501    0 -0.14893907573E+01 -0.16114655620E+01 -0.51073228301E+02  0.51120345805E+02  0.00000000000E+00 0.  1.
         -3    1    1    2    0  502  0.77540534259E+01 -0.58217187948E+01 -0.38485857108E+03  0.38498069755E+03  0.00000000000E+00 0. -1.
<mgrwt>
<rscale>  1 0.30000000E+03</rscale>
<asrwt>0</asrwt>
<pdfrwt beam="1">  1       21 0.46003995E-03 0.30000000E+03</pdfrwt>
<pdfrwt beam="2">0</pdfrwt>
<totfact> 0.13644023E+06</totfact>
</mgrwt>
</event>
<event>
 6    1  0.1132867E-002  0.3000000E+03  0.7818608E-02  0.1093470E+00
         21   -1    0    0  501  502  0.00000000000E+00  0.00000000000E+00  0.29662764527E+00  0.29662764527E+00  0.00000000000E+00 0. -1.
         13   -1    0    0    0    0 -0.00000000000E+00 -0.00000000000E+00 -0.10000000000E+04  0.10000000000E+04  0.00000000000E+00 0.  1.
    9000005    2    1    2  501    0 -0.13126437935E+02  0.79069155170E+01 -0.59334308830E+03  0.59364751214E+03  0.11248357585E+02 0.  0.
         13    1    3    3    0    0 -0.13148327029E+02  0.10183433520E+02 -0.49937859548E+03  0.49965544372E+03  0.00000000000E+00 0.  1.
          1    1    3    3  501    0  0.21889094524E-01 -0.22765180028E+01 -0.93964492820E+02  0.93992068412E+02  0.00000000000E+00 0.  1.
         -3    1    1    2    0  502  0.13126437935E+02 -0.79069155170E+01 -0.40636028406E+03  0.40664911551E+03  0.00000000000E+00 0. -1.
<mgrwt>
<rscale>  1 0.30000000E+03</rscale>
<asrwt>0</asrwt>
<pdfrwt beam="1">  1       21 0.10786483E-02 0.30000000E+03</pdfrwt>
<pdfrwt beam="2">0</pdfrwt>
<totfact> 0.35826241E+05</totfact>
</mgrwt>
</event>
<event>
 6    1  0.1132867E-002  0.3000000E+03  0.7818608E-02  0.1093470E+00
         21   -1    0    0  501  502  0.00000000000E+00  0.00000000000E+00  0.44844221688E+00  0.44844221688E+00  0.00000000000E+00 0. -1.
         13   -1    0    0    0    0 -0.00000000000E+00 -0.00000000000E+00 -0.10000000000E+04  0.10000000000E+04  0.00000000000E+00 0.  1.
    9000005    2    1    2  501    0  0.92757414961E+01  0.40643191086E+01 -0.93818531410E+03  0.93825218884E+03  0.47883403618E+01 0.  0.
         13    1    3    3    0    0  0.94976369821E+01  0.33425870550E+01 -0.91310510578E+03  0.91316061686E+03  0.00000000000E+00 0.  1.
          1    1    3    3  501    0 -0.22189548608E+00  0.72173205358E+00 -0.25080208325E+02  0.25091571979E+02  0.00000000000E+00 0.  1.
         -1    1    1    2    0  502 -0.92757414961E+01 -0.40643191086E+01 -0.61366243683E+02  0.62196253375E+02  0.00000000000E+00 0. -1.
<mgrwt>
<rscale>  1 0.30000000E+03</rscale>
<asrwt>0</asrwt>
<pdfrwt beam="1">  1       21 0.16307024E-02 0.30000000E+03</pdfrwt>
<pdfrwt beam="2">0</pdfrwt>
<totfact> 0.18465398E+05</totfact>
</mgrwt>
</event>
<event>
 6    1  0.1132867E-002  0.3000000E+03  0.7818608E-02  0.1093470E+00
         21   -1    0    0  501  502  0.00000000000E+00  0.00000000000E+00  0.94099199844E-01  0.94099199844E-01  0.00000000000E+00 0. -1.
         13   -1    0    0    0    0 -0.00000000000E+00 -0.00000000000E+00 -0.10000000000E+04  0.10000000000E+04  0.00000000000E+00 0.  1.
    9000005    2    1    2  501    0  0.80420519402E+01 -0.28336551274E+01 -0.43527823369E+03  0.43540205333E+03  0.59247886169E+01 0.  0.
         13    1    3    3    0    0  0.69519134704E+01 -0.45168253296E+01 -0.37069254074E+03  0.37078523511E+03  0.00000000000E+00 0.  1.
          3    1    3    3  501    0  0.10901384698E+01  0.16831702023E+01 -0.64585692949E+02  0.64616818225E+02  0.00000000000E+00 0.  1.
         -1    1    1    2    0  502 -0.80420519402E+01  0.28336551274E+01 -0.56462766711E+03  0.56469204587E+03  0.00000000000E+00 0. -1.
<mgrwt>
<rscale>  1 0.30000000E+03</rscale>
<asrwt>0</asrwt>
<pdfrwt beam="1">  1       21 0.34217963E-03 0.30000000E+03</pdfrwt>
<pdfrwt beam="2">0</pdfrwt>
<totfact> 0.21536626E+06</totfact>
</mgrwt>
</event>
<event>
 6    1  0.1132867E-002  0.3000000E+03  0.7818608E-02  0.1093470E+00
         21   -1    0    0  501  502  0.00000000000E+00  0.00000000000E+00  0.86022737164E+00  0.86022737164E+00  0.00000000000E+00 0.  1.
         13   -1    0    0    0    0 -0.00000000000E+00 -0.00000000000E+00 -0.10000000000E+04  0.10000000000E+04  0.00000000000E+00 0.  1.
    9000005    2    1    2  501    0  0.25755279052E+01  0.10861600037E+02 -0.94280784295E+03  0.94343293420E+03  0.32472525497E+02 0.  0.
         13    1    3    3    0    0 -0.14664275175E+02  0.70610885472E+01 -0.38025590330E+03  0.38060406190E+03  0.00000000000E+00 0.  1.
          3    1    3    3  501    0  0.17239803080E+02  0.38005114898E+01 -0.56255193965E+03  0.56282887230E+03  0.00000000000E+00 0.  1.
         -3    1    1    2    0  502 -0.25755279052E+01 -0.10861600037E+02 -0.56331929681E+02  0.57427293171E+02  0.00000000000E+00 0. -1.
<mgrwt>
<rscale>  1 0.30000000E+03</rscale>
<asrwt>0</asrwt>
<pdfrwt beam="1">  1       21 0.31281061E-02 0.30000000E+03</pdfrwt>
<pdfrwt beam="2">0</pdfrwt>
<totfact> 0.63463488E+04</totfact>
</mgrwt>
</event>
<event>
 6    1  0.1132867E-002  0.3000000E+03  0.7818608E-02  0.1093470E+00
         21   -1    0    0  501  502  0.00000000000E+00  0.00000000000E+00  0.23362057544E+00  0.23362057544E+00  0.00000000000E+00 0. -1.
         13   -1    0    0    0    0 -0.00000000000E+00 -0.00000000000E+00 -0.10000000000E+04  0.10000000000E+04  0.00000000000E+00 0.  1.
    9000005    2    1    2  501    0  0.59782381328E+01 -0.13037243903E+02 -0.55827881852E+03  0.55851314845E+03  0.74825614312E+01 0.  0.
         13    1    3    3    0    0 -0.10784634171E+01  0.16418965635E+00 -0.58629937142E+02  0.58640085018E+02  0.00000000000E+00 0.  1.
          3    1    3    3  501    0  0.70567015499E+01 -0.13201433559E+02 -0.49964888137E+03  0.49987306343E+03  0.00000000000E+00 0.  1.
         -3    1    1    2    0  502 -0.59782381328E+01  0.13037243903E+02 -0.44148756091E+03  0.44172047213E+03  0.00000000000E+00 0. -1.
<mgrwt>
<rscale>  1 0.30000000E+03</rscale>
<asrwt>0</asrwt>
<pdfrwt beam="1">  1       21 0.84953116E-03 0.30000000E+03</pdfrwt>
<pdfrwt beam="2">0</pdfrwt>
<totfact> 0.52306244E+05</totfact>
</mgrwt>
</event>
<event>
 6    1  0.1132867E-002  0.3000000E+03  0.7818608E-02  0.1093470E+00
         21   -1    0    0  501  502  0.00000000000E+00  0.00000000000E+00  0.47700976682E+00  0.47700976682E+00  0.00000000000E+00 0. -1.
         13   -1    0    0    0    0 -0.00000000000E+00 -0.00000000000E+00 -0.10000000000E+04  0.10000000000E+04  0.00000000000E+00 0.  1.
    9000005    2    1    2  501    0 -0.88407112216E+01  0.64659313433E+01 -0.92900416233E+03  0.92911265219E+03  0.90344007106E+01 0.  0.
         13    1    3    3    0    0 -0.10387958897E+02  0.37059900027E+01 -0.71163623549E+03  0.71172169821E+03  0.00000000000E+00 0.  1.
          3    1    3    3  501    0  0.15472476758E+01  0.27599413406E+01 -0.21736792684E+03  0.21739095398E+03  0.00000000000E+00 0.  1.
         -3    1    1    2    0  502  0.88407112216E+01 -0.64659313433E+01 -0.70518827904E+02  0.71364357575E+02  0.00000000000E+00 0. -1.
<mgrwt>
<rscale>  1 0.30000000E+03</rscale>
<asrwt>0</asrwt>
<pdfrwt beam="1">  1       21 0.17345846E-02 0.30000000E+03</pdfrwt>
<pdfrwt beam="2">0</pdfrwt>
<totfact> 0.16707793E+05</totfact>
</mgrwt>
</event>
<event>
 6    1  0.1132867E-002  0.3000000E+03  0.7818608E-02  0.1093470E+00
         21   -1    0    0  501  502  0.00000000000E+00  0.00000000000E+00  0.36202267128E+00  0.36202267128E+00  0.00000000000E+00 0. -1.
         13   -1    0    0    0    0 -0.00000000000E+00 -0.00000000000E+00 -0.10000000000E+04  0.10000000000E+04  0.00000000000E+00 0.  1.
    9000005    2    1    2  501    0 -0.14696539160E+02  0.10729959025E+02 -0.52776319516E+03  0.52813651475E+03  0.79415214995E+01 0.  0.
         13    1    3    3    0    0 -0.13648221781E+02  0.66421977434E+01 -0.45308530109E+03  0.45333947855E+03  0.00000000000E+00 0.  1.
          1    1    3    3  501    0 -0.10483173787E+01  0.40877612815E+01 -0.74677894067E+02  0.74797036197E+02  0.00000000000E+00 0.  1.
         -1    1    1    2    0  502  0.14696539160E+02 -0.10729959025E+02 -0.47187478217E+03  0.47222550792E+03  0.00000000000E+00 0. -1.
<mgrwt>
<rscale>  1 0.30000000E+03</rscale>
<asrwt>0</asrwt>
<pdfrwt beam="1">  1       21 0.13164489E-02 0.30000000E+03</pdfrwt>
<pdfrwt beam="2">0</pdfrwt>
<totfact> 0.26062551E+05</totfact>
</mgrwt>
</event>
<event>
 6    1  0.1132867E-002  0.3000000E+03  0.7818608E-02  0.1093470E+00
         21   -1    0    0  501  502  0.00000000000E+00  0.00000000000E+00  0.18201800467E+00  0.18201800467E+00  0.00000000000E+00 0. -1.
         13   -1    0    0    0    0 -0.00000000000E+00 -0.00000000000E+00 -0.10000000000E+04  0.10000000000E+04  0.00000000000E+00 0.  1.
    9000005    2    1    2  501    0  0.67881358171E+01  0.82085369533E+01 -0.26681944223E+03  0.26710608867E+03  0.62919780432E+01 0.  0.
         13    1    3    3    0    0  0.18108284374E+01 -0.77271286292E+00 -0.59430728026E+02  0.59463330032E+02  0.00000000000E+00 0.  1.
          1    1    3    3  501    0  0.49773073797E+01  0.89812498162E+01 -0.20738871420E+03  0.20764275864E+03  0.00000000000E+00 0.  1.
         -3    1    1    2    0  502 -0.67881358171E+01 -0.82085369533E+01 -0.73299853977E+03  0.73307592934E+03  0.00000000000E+00 0. -1.
<mgrwt>
<rscale>  1 0.30000000E+03</rscale>
<asrwt>0</asrwt>
<pdfrwt beam="1">  1       21 0.66188505E-03 0.30000000E+03</pdfrwt>
<pdfrwt beam="2">0</pdfrwt>
<totfact> 0.77436198E+05</totfact>
</mgrwt>
</event>
<event>
 6    1  0.1132867E-002  0.3000000E+03  0.7818608E-02  0.1093470E+00
         21   -1    0    0  501  502  0.00000000000E+00  0.00000000000E+00  0.84959037316E-01  0.84959037316E-01  0.00000000000E+00 0. -1.
         13   -1    0    0    0    0 -0.00000000000E+00 -0.00000000000E+00 -0.10000000000E+04  0.10000000000E+04  0.00000000000E+00 0.  1.
    9000005    2    1    2  501    0  0.49795770202E+01  0.69027192460E+01 -0.66423586140E+03  0.66429789062E+03  0.31566121497E+01 0.  0.
         13    1    3    3    0    0  0.17570603981E+01  0.12373269726E+01 -0.92896861008E+02  0.92921714493E+02  0.00000000000E+00 0.  1.
          3    1    3    3  501    0  0.32225166221E+01  0.56653922734E+01 -0.57133900039E+03  0.57137617613E+03  0.00000000000E+00 0.  1.
         -3    1    1    2    0  502 -0.49795770202E+01 -0.69027192460E+01 -0.33567917957E+03  0.33578706841E+03  0.00000000000E+00 0. -1.
<mgrwt>
<rscale>  1 0.30000000E+03</rscale>
<asrwt>0</asrwt>
<pdfrwt beam="1">  1       21 0.30894261E-03 0.30000000E+03</pdfrwt>
<pdfrwt beam="2">0</pdfrwt>
<totfact> 0.25190813E+06</totfact>
</mgrwt>
</event>
<event>
 6    1  0.1132867E-002  0.3000000E+03  0.7818608E-02  0.1093470E+00
         21   -1    0    0  501  502  0.00000000000E+00  0.00000000000E+00  0.70505537779E+00  0.70505537779E+00  0.00000000000E+00 0. -1.
         13   -1    0    0    0    0 -0.00000000000E+00 -0.00000000000E+00 -0.10000000000E+04  0.10000000000E+04  0.00000000000E+00 0.  1.
    9000005    2    1    2  501    0 -0.14202552246E+02 -0.41226004488E+00 -0.91767978718E+03  0.91786233467E+03  0.11540848020E+02 0.  0.
         13    1    3    3    0    0 -0.47011823013E+01 -0.25616014088E+01 -0.62016680852E+03  0.62018991713E+03  0.00000000000E+00 0.  1.
          1    1    3    3  501    0 -0.95013699449E+01  0.21493413639E+01 -0.29751297865E+03  0.29767241754E+03  0.00000000000E+00 0.  1.
         -3    1    1    2    0  502  0.14202552246E+02  0.41226004488E+00 -0.81615157446E+02  0.82842720704E+02  0.00000000000E+00 0. -1.
<mgrwt>
<rscale>  1 0.30000000E+03</rscale>
<asrwt>0</asrwt>
<pdfrwt beam="1">  1       21 0.25638431E-02 0.30000000E+03</pdfrwt>
<pdfrwt beam="2">0</pdfrwt>
<totfact> 0.88228776E+04</totfact>
</mgrwt>
</event>
<event>
 6    1  0.1132867E-002  0.3000000E+03  0.7818608E-02  0.1093470E+00
         21   -1    0    0  501  502  0.00000000000E+00  0.00000000000E+00  0.14134524459E+00  0.14134524459E+00  0.00000000000E+00 0. -1.
         13   -1    0    0    0    0 -0.00000000000E+00 -0.00000000000E+00 -0.10000000000E+04  0.10000000000E+04  0.00000000000E+00 0.  1.
    9000005    2    1    2  501    0  0.71562946545E+01  0.55704277381E+01 -0.56484647375E+03  0.56503464587E+03  0.11417964189E+02 0.  0.
         13    1    3    3    0    0 -0.25340384481E+01  0.86953071460E-01 -0.20569020147E+03  0.20570582853E+03  0.00000000000E+00 0.  1.
          3    1    3    3  501    0  0.96903331026E+01  0.54834746667E+01 -0.35915627229E+03  0.35932881734E+03  0.00000000000E+00 0.  1.
         -1    1    1    2    0  502 -0.71562946545E+01 -0.55704277381E+01 -0.43501218100E+03  0.43510669937E+03  0.00000000000E+00 0. -1.
<mgrwt>
<rscale>  1 0.30000000E+03</rscale>
<asrwt>0</asrwt>
<pdfrwt beam="1">  1       21 0.51398379E-03 0.30000000E+03</pdfrwt>
<pdfrwt beam="2">0</pdfrwt>
<totfact> 0.11487629E+06</totfact>
</mgrwt>
</event>
<event>
 6    1  0.1132867E-002  0.3000000E+03  0.7818608E-02  0.1093470E+00
         21   -1    0    0  501  502  0.00000000000E+00  0.00000000000E+00  0.93815850295E-01  0.93815850295E-01  0.00000000000E+00 0. -1.
         13   -1    0    0    0    0 -0.00000000000E+00 -0.00000000000E+00 -0.10000000000E+04  0.10000000000E+04  0.00000000000E+00 0.  1.
    9000005    2    1    2  501    0 -0.79765034661E+01 -0.32920229571E+01 -0.54638248571E+03  0.54648803209E+03  0.63942547831E+01 0.  0.
         13    1    3    3    0    0 -0.36279075285E+01 -0.48345699626E+01 -0.27598612509E+03  0.27605230667E+03  0.00000000000E+00 0.  1.
          1    1    3    3  501    0 -0.43485959376E+01  0.15425470055E+01 -0.27039636063E+03  0.27043572541E+03  0.00000000000E+00 0.  1.
         -3    1    1    2    0  502  0.79765034661E+01  0.32920229571E+01 -0.45352369844E+03  0.45360578376E+03  0.00000000000E+00 0. -1.
<mgrwt>
<rscale>  1 0.30000000E+03</rscale>
<asrwt>0</asrwt>
<pdfrwt beam="1">  1       21 0.34114927E-03 0.30000000E+03</pdfrwt>
<pdfrwt beam="2">0</pdfrwt>
<totfact> 0.21636587E+06</totfact>
</mgrwt>
</event>
<event>
 6    1  0.1132867E-002  0.3000000E+03  0.7818608E-02  0.1093470E+00
         21   -1    0    0  501  502  0.00000000000E+00  0.00000000000E+00  0.33161006763E+00  0.33161006763E+00  0.00000000000E+00 0. -1.
         13   -1    0    0    0    0 -0.00000000000E+00 -0.00000000000E+00 -0.10000000000E+04  0.10000000000E+04  0.00000000000E+00 0.  1.
    9000005    2    1    2  501    0 -0.13935126093E+02  0.62764151848E+01 -0.61214938193E+03  0.61251133895E+03  0.14480794796E+02 0.  0.
         13    1    3    3    0    0  0.13800143351E+00  0.13401552896E+01 -0.30251525184E+03  0.30251825177E+03  0.00000000000E+00 0.  1.
          1    1    3    3  501    0 -0.14073127527E+02  0.49362598951E+01 -0.30963413010E+03  0.30999308718E+03  0.00000000000E+00 0.  1.
         -3    1    1    2    0  502  0.13935126093E+02 -0.62764151848E+01 -0.38751900800E+03  0.38782027111E+03  0.00000000000E+00 0. -1.
<mgrwt>
<rscale>  1 0.30000000E+03</rscale>
<asrwt>0</asrwt>
<pdfrwt beam="1">  1       21 0.12058573E-02 0.30000000E+03</pdfrwt>
<pdfrwt beam="2">0</pdfrwt>
<totfact> 0.29992649E+05</totfact>
</mgrwt>
</event>
<event>
 6    1  0.1132867E-002  0.3000000E+03  0.7818608E-02  0.1093470E+00
         21   -1    0    0  501  502  0.00000000000E+00  0.00000000000E+00  0.13514904934E+00  0.13514904934E+00  0.00000000000E+00 0. -1.
         13   -1    0    0    0    0 -0.00000000000E+00 -0.00000000000E+00 -0.10000000000E+04  0.10000000000E+04  0.00000000000E+00 0.  1.
    9000005    2    1    2  501    0 -0.76076890964E+01 -0.41334987408E+01 -0.59081804979E+03  0.59099672714E+03  0.11670509143E+02 0.  0.
         13    1    3    3    0    0 -0.56294801047E+01  0.91231273963E+00 -0.48994213946E+03  0.48997532936E+03  0.00000000000E+00 0.  1.
          1    1    3    3  501    0 -0.19782089917E+01 -0.50458114804E+01 -0.10087591033E+03  0.10102139778E+03  0.00000000000E+00 0.  1.
         -1    1    1    2    0  502  0.76076890964E+01  0.41334987408E+01 -0.40904680116E+03  0.40913842191E+03  0.00000000000E+00 0. -1.
<mgrwt>
<rscale>  1 0.30000000E+03</rscale>
<asrwt>0</asrwt>
<pdfrwt beam="1">  1       21 0.49145212E-03 0.30000000E+03</pdfrwt>
<pdfrwt beam="2">0</pdfrwt>
<totfact> 0.12315940E+06</totfact>
</mgrwt>
</event>
<event>
 6    1  0.1132867E-002  0.3000000E+03  0.7818608E-02  0.1093470E+00
         21   -1    0    0  501  502  0.00000000000E+00  0.00000000000E+00  0.13294499563E+00  0.13294499563E+00  0.00000000000E+00 0. -1.
         13   -1    0    0    0    0 -0.00000000000E+00 -0.00000000000E+00 -0.10000000000E+04  0.10000000000E+04  0.00000000000E+00 0.  1.
    9000005    2    1    2  501    0  0.64439882466E+01  0.53546935792E+01 -0.67159809568E+03  0.67175708203E+03  0.11974030136E+02 0.  0.
         13    1    3    3    0    0  0.85271904812E+01  0.22648729212E+00 -0.49128017341E+03  0.49135422361E+03  0.00000000000E+00 0.  1.
          1    1    3    3  501    0 -0.20832022345E+01  0.51282062871E+01 -0.18031792227E+03  0.18040285841E+03  0.00000000000E+00 0.  1.
         -1    1    1    2    0  502 -0.64439882466E+01 -0.53546935792E+01 -0.32826895932E+03  0.32837586297E+03  0.00000000000E+00 0. -1.
<mgrwt>
<rscale>  1 0.30000000E+03</rscale>
<asrwt>0</asrwt>
<pdfrwt beam="1">  1       21 0.48343737E-03 0.30000000E+03</pdfrwt>
<pdfrwt beam="2">0</pdfrwt>
<totfact> 0.12634290E+06</totfact>
</mgrwt>
</event>
<event>
 6    1  0.1132867E-002  0.3000000E+03  0.7818608E-02  0.1093470E+00
         21   -1    0    0  501  502  0.00000000000E+00  0.00000000000E+00  0.10482545905E+00  0.10482545905E+00  0.00000000000E+00 0. -1.
         13   -1    0    0    0    0 -0.00000000000E+00 -0.00000000000E+00 -0.10000000000E+04  0.10000000000E+04  0.00000000000E+00 0.  1.
    9000005    2    1    2  501    0  0.85467394563E+00  0.82693424919E+01 -0.68575816079E+03  0.68585782723E+03  0.82214097593E+01 0.  0.
         13    1    3    3    0    0 -0.32043415337E+01  0.59865921390E+01 -0.33547524463E+03  0.33554395665E+03  0.00000000000E+00 0.  1.
          3    1    3    3  501    0  0.40590154794E+01  0.22827503529E+01 -0.35028291617E+03  0.35031387057E+03  0.00000000000E+00 0.  1.
         -3    1    1    2    0  502 -0.85467394563E+00 -0.82693424919E+01 -0.31413701375E+03  0.31424699823E+03  0.00000000000E+00 0. -1.
<mgrwt>
<rscale>  1 0.30000000E+03</rscale>
<asrwt>0</asrwt>
<pdfrwt beam="1">  1       21 0.38118429E-03 0.30000000E+03</pdfrwt>
<pdfrwt beam="2">0</pdfrwt>
<totfact> 0.18241594E+06</totfact>
</mgrwt>
</event>
<event>
 6    1  0.1132867E-002  0.3000000E+03  0.7818608E-02  0.1093470E+00
         21   -1    0    0  501  502  0.00000000000E+00  0.00000000000E+00  0.10615744904E+00  0.10615744904E+00  0.00000000000E+00 0. -1.
         13   -1    0    0    0    0 -0.00000000000E+00 -0.00000000000E+00 -0.10000000000E+04  0.10000000000E+04  0.00000000000E+00 0.  1.
    9000005    2    1    2  501    0  0.78841983072E+01  0.47548430802E+01 -0.44185383350E+03  0.44199020102E+03  0.59798416461E+01 0.  0.
         13    1    3    3    0    0  0.31830340967E+01  0.43284263061E+01 -0.31978246643E+03  0.31982759859E+03  0.00000000000E+00 0.  1.
          1    1    3    3  501    0  0.47011642105E+01  0.42641677419E+00 -0.12207136707E+03  0.12216260244E+03  0.00000000000E+00 0.  1.
         -1    1    1    2    0  502 -0.78841983072E+01 -0.47548430802E+01 -0.55804000905E+03  0.55811595642E+03  0.00000000000E+00 0. -1.
<mgrwt>
<rscale>  1 0.30000000E+03</rscale>
<asrwt>0</asrwt>
<pdfrwt beam="1">  1       21 0.38602790E-03 0.30000000E+03</pdfrwt>
<pdfrwt beam="2">0</pdfrwt>
<totfact> 0.17889915E+06</totfact>
</mgrwt>
</event>
<event>
 6    1  0.1132867E-002  0.3000000E+03  0.7818608E-02  0.1093470E+00
         21   -1    0    0  501  502  0.00000000000E+00  0.00000000000E+00  0.15447004684E+00  0.15447004684E+00  0.00000000000E+00 0. -1.
         13   -1    0    0    0    0 -0.00000000000E+00 -0.00000000000E+00 -0.10000000000E+04  0.10000000000E+04  0.00000000000E+00 0.  1.
    9000005    2    1    2  501    0 -0.22226222624E+01  0.10546570161E+02 -0.70630656214E+03  0.70641769023E+03  0.63893002047E+01 0.  0.
         13    1    3    3    0    0 -0.22919554038E+01  0.36523182290E+01 -0.44263638353E+03  0.44265738502E+03  0.00000000000E+00 0.  1.
          1    1    3    3  501    0  0.69333141403E-01  0.68942519321E+01 -0.26367017860E+03  0.26376030520E+03  0.00000000000E+00 0.  1.
         -3    1    1    2    0  502  0.22226222624E+01 -0.10546570161E+02 -0.29353896782E+03  0.29373677982E+03  0.00000000000E+00 0. -1.
<mgrwt>
<rscale>  1 0.30000000E+03</rscale>
<asrwt>0</asrwt>
<pdfrwt beam="1">  1       21 0.56171045E-03 0.30000000E+03</pdfrwt>
<pdfrwt beam="2">0</pdfrwt>
<totfact> 0.10005835E+06</totfact>
</mgrwt>
</event>
<event>
 6    1  0.1132867E-002  0.3000000E+03  0.7818608E-02  0.1093470E+00
         21   -1    0    0  501  502  0.00000000000E+00  0.00000000000E+00  0.20755650323E+00  0.20755650323E+00  0.00000000000E+00 0. -1.
         13   -1    0    0    0    0 -0.00000000000E+00 -0.00000000000E+00 -0.10000000000E+04  0.10000000000E+04  0.00000000000E+00 0.  1.
    9000005    2    1    2  501    0  0.66638694604E+01 -0.87994956744E+01 -0.56199349450E+03  0.56226948094E+03  0.13727456515E+02 0.  0.
         13    1    3    3    0    0  0.10380079307E+01 -0.10455972279E+02 -0.44989187607E+03  0.45001456084E+03  0.00000000000E+00 0.  1.
          3    1    3    3  501    0  0.56258615297E+01  0.16564766044E+01 -0.11210161843E+03  0.11225492010E+03  0.00000000000E+00 0.  1.
         -1    1    1    2    0  502 -0.66638694604E+01  0.87994956744E+01 -0.43779894900E+03  0.43793807556E+03  0.00000000000E+00 0. -1.
<mgrwt>
<rscale>  1 0.30000000E+03</rscale>
<asrwt>0</asrwt>
<pdfrwt beam="1">  1       21 0.75475251E-03 0.30000000E+03</pdfrwt>
<pdfrwt beam="2">0</pdfrwt>
<totfact> 0.63024092E+05</totfact>
</mgrwt>
</event>
<event>
 6    1  0.1132867E-002  0.3000000E+03  0.7818608E-02  0.1093470E+00
         21   -1    0    0  501  502  0.00000000000E+00  0.00000000000E+00  0.52594549624E+00  0.52594549624E+00  0.00000000000E+00 0. -1.
         13   -1    0    0    0    0 -0.00000000000E+00 -0.00000000000E+00 -0.10000000000E+04  0.10000000000E+04  0.00000000000E+00 0.  1.
    9000005    2    1    2  501    0 -0.17466493088E+02 -0.61542775997E+01 -0.72427643034E+03  0.72470592109E+03  0.16714395448E+02 0.  0.
         13    1    3    3    0    0 -0.19386016873E+02 -0.75977453553E+01 -0.52182506142E+03  0.52224030686E+03  0.00000000000E+00 0.  1.
          3    1    3    3  501    0  0.19195237848E+01  0.14434677556E+01 -0.20245136891E+03  0.20246561423E+03  0.00000000000E+00 0.  1.
         -3    1    1    2    0  502  0.17466493088E+02  0.61542775997E+01 -0.27519762417E+03  0.27582002440E+03  0.00000000000E+00 0. -1.
<mgrwt>
<rscale>  1 0.30000000E+03</rscale>
<asrwt>0</asrwt>
<pdfrwt beam="1">  1       21 0.19125331E-02 0.30000000E+03</pdfrwt>
<pdfrwt beam="2">0</pdfrwt>
<totfact> 0.14257501E+05</totfact>
</mgrwt>
</event>
<event>
 6    1  0.1132867E-002  0.3000000E+03  0.7818608E-02  0.1093470E+00
         21   -1    0    0  501  502  0.00000000000E+00  0.00000000000E+00  0.29962927006E+00  0.29962927006E+00  0.00000000000E+00 0. -1.
         13   -1    0    0    0    0 -0.00000000000E+00 -0.00000000000E+00 -0.10000000000E+04  0.10000000000E+04  0.00000000000E+00 0.  1.
    9000005    2    1    2  501    0  0.43184835728E+01  0.97151729655E+01 -0.22419350813E+03  0.22471989267E+03  0.11102575717E+02 0.  0.
         13    1    3    3    0    0 -0.20731186304E+01  0.63463919174E+01 -0.60550570257E+02  0.60917534994E+02  0.00000000000E+00 0.  1.
          3    1    3    3  501    0  0.63916022031E+01  0.33687810481E+01 -0.16364293787E+03  0.16380235767E+03  0.00000000000E+00 0.  1.
         -3    1    1    2    0  502 -0.43184835728E+01 -0.97151729655E+01 -0.77550686260E+03  0.77557973660E+03  0.00000000000E+00 0. -1.
<mgrwt>
<rscale>  1 0.30000000E+03</rscale>
<asrwt>0</asrwt>
<pdfrwt beam="1">  1       21 0.10895633E-02 0.30000000E+03</pdfrwt>
<pdfrwt beam="2">0</pdfrwt>
<totfact> 0.35256625E+05</totfact>
</mgrwt>
</event>
<event>
 6    1  0.1132867E-002  0.3000000E+03  0.7818608E-02  0.1093470E+00
         21   -1    0    0  501  502  0.00000000000E+00  0.00000000000E+00  0.49912946994E+00  0.49912946994E+00  0.00000000000E+00 0. -1.
         13   -1    0    0    0    0 -0.00000000000E+00 -0.00000000000E+00 -0.10000000000E+04  0.10000000000E+04  0.00000000000E+00 0.  1.
    9000005    2    1    2  501    0 -0.78375753295E+01 -0.95311245847E+01 -0.86280083977E+03  0.86324327957E+03  0.24726517873E+02 0.  0.
         13    1    3    3    0    0  0.33575206442E+01 -0.11318229259E+02 -0.67338413335E+03  0.67348761407E+03  0.00000000000E+00 0.  1.
          1    1    3    3  501    0 -0.11195095974E+02  0.17871046739E+01 -0.18941670642E+03  0.18975566550E+03  0.00000000000E+00 0.  1.
         -1    1    1    2    0  502  0.78375753295E+01  0.95311245847E+01 -0.13670003076E+03  0.13725584990E+03  0.00000000000E+00 0. -1.
<mgrwt>
<rscale>  1 0.30000000E+03</rscale>
<asrwt>0</asrwt>
<pdfrwt beam="1">  1       21 0.18150201E-02 0.30000000E+03</pdfrwt>
<pdfrwt beam="2">0</pdfrwt>
<totfact> 0.15523099E+05</totfact>
</mgrwt>
</event>
<event>
 6    1  0.1132867E-002  0.3000000E+03  0.7818608E-02  0.1093470E+00
         21   -1    0    0  501  502  0.00000000000E+00  0.00000000000E+00  0.68322801412E+00  0.68322801412E+00  0.00000000000E+00 0. -1.
         13   -1    0    0    0    0 -0.00000000000E+00 -0.00000000000E+00 -0.10000000000E+04  0.10000000000E+04  0.00000000000E+00 0.  1.
    9000005    2    1    2  501    0 -0.14040878797E+02 -0.18440888005E+02 -0.68781593986E+03  0.68832128885E+03  0.12578430776E+02 0.  0.
         13    1    3    3    0    0 -0.45202226247E+01 -0.15483740838E+02 -0.47132801542E+03  0.47160394057E+03  0.00000000000E+00 0.  1.
          1    1    3    3  501    0 -0.95206561721E+01 -0.29571471672E+01 -0.21648792444E+03  0.21671734827E+03  0.00000000000E+00 0.  1.
         -3    1    1    2    0  502  0.14040878797E+02  0.18440888005E+02 -0.31150083212E+03  0.31236193917E+03  0.00000000000E+00 0. -1.
<mgrwt>
<rscale>  1 0.30000000E+03</rscale>
<asrwt>0</asrwt>
<pdfrwt beam="1">  1       21 0.24844707E-02 0.30000000E+03</pdfrwt>
<pdfrwt beam="2">0</pdfrwt>
<totfact> 0.92917218E+04</totfact>
</mgrwt>
</event>
<event>
 6    1  0.1132867E-002  0.3000000E+03  0.7818608E-02  0.1093470E+00
         21   -1    0    0  501  502  0.00000000000E+00  0.00000000000E+00  0.32892476826E+00  0.32892476826E+00  0.00000000000E+00 0. -1.
         13   -1    0    0    0    0 -0.00000000000E+00 -0.00000000000E+00 -0.10000000000E+04  0.10000000000E+04  0.00000000000E+00 0.  1.
    9000005    2    1    2  501    0  0.27510673455E+01 -0.12239583269E+02 -0.81583508998E+03  0.81606540358E+03  0.14780835377E+02 0.  0.
         13    1    3    3    0    0  0.18992768706E+01 -0.11820414321E+02 -0.81273589972E+03  0.81282407208E+03  0.00000000000E+00 0.  1.
          3    1    3    3  501    0  0.85179047484E+00 -0.41916894815E+00 -0.30991902590E+01  0.32413314983E+01  0.00000000000E+00 0.  1.
         -1    1    1    2    0  502 -0.27510673455E+01  0.12239583269E+02 -0.18383598525E+03  0.18426352119E+03  0.00000000000E+00 0. -1.
<mgrwt>
<rscale>  1 0.30000000E+03</rscale>
<asrwt>0</asrwt>
<pdfrwt beam="1">  1       21 0.11960926E-02 0.30000000E+03</pdfrwt>
<pdfrwt beam="2">0</pdfrwt>
<totfact> 0.30384656E+05</totfact>
</mgrwt>
</event>
<event>
 6    1  0.1132867E-002  0.3000000E+03  0.7818608E-02  0.1093470E+00
         21   -1    0    0  501  502  0.00000000000E+00  0.00000000000E+00  0.14793616802E+00  0.14793616802E+00  0.00000000000E+00 0. -1.
         13   -1    0    0    0    0 -0.00000000000E+00 -0.00000000000E+00 -0.10000000000E+04  0.10000000000E+04  0.00000000000E+00 0.  1.
    9000005    2    1    2  501    0  0.43927458071E+01 -0.85973029426E+01 -0.73731746592E+03  0.73743587909E+03  0.90233244563E+01 0.  0.
         13    1    3    3    0    0  0.19576247051E+01  0.16603086546E+01 -0.11090533171E+03  0.11093503289E+03  0.00000000000E+00 0.  1.
          1    1    3    3  501    0  0.24351211020E+01 -0.10257611597E+02 -0.62641213420E+03  0.62650084620E+03  0.00000000000E+00 0.  1.
         -3    1    1    2    0  502 -0.43927458071E+01  0.85973029426E+01 -0.26253459792E+03  0.26271205708E+03  0.00000000000E+00 0. -1.
<mgrwt>
<rscale>  1 0.30000000E+03</rscale>
<asrwt>0</asrwt>
<pdfrwt beam="1">  1       21 0.53795084E-03 0.30000000E+03</pdfrwt>
<pdfrwt beam="2">0</pdfrwt>
<totfact> 0.10701939E+06</totfact>
</mgrwt>
</event>
<event>
 6    1  0.1132867E-002  0.3000000E+03  0.7818608E-02  0.1093470E+00
         21   -1    0    0  501  502  0.00000000000E+00  0.00000000000E+00  0.77412076115E+00  0.77412076115E+00  0.00000000000E+00 0. -1.
         13   -1    0    0    0    0 -0.00000000000E+00 -0.00000000000E+00 -0.10000000000E+04  0.10000000000E+04  0.00000000000E+00 0.  1.
    9000005    2    1    2  501    0  0.73399420056E+01 -0.82508659632E+01 -0.95669535307E+03  0.95683328333E+03  0.11915618658E+02 0.  0.
         13    1    3    3    0    0 -0.32130090486E+01 -0.32330576560E+01 -0.27648952240E+03  0.27652709105E+03  0.00000000000E+00 0.  1.
          3    1    3    3  501    0  0.10552951054E+02 -0.50178083072E+01 -0.68020583068E+03  0.68030619228E+03  0.00000000000E+00 0.  1.
         -3    1    1    2    0  502 -0.73399420056E+01  0.82508659632E+01 -0.42530526167E+02  0.43940837428E+02  0.00000000000E+00 0. -1.
<mgrwt>
<rscale>  1 0.30000000E+03</rscale>
<asrwt>0</asrwt>
<pdfrwt beam="1">  1       21 0.28149905E-02 0.30000000E+03</pdfrwt>
<pdfrwt beam="2">0</pdfrwt>
<totfact> 0.75604367E+04</totfact>
</mgrwt>
</event>
<event>
 6    1  0.1132867E-002  0.3000000E+03  0.7818608E-02  0.1093470E+00
         21   -1    0    0  501  502  0.00000000000E+00  0.00000000000E+00  0.14028280853E+01  0.14028280853E+01  0.00000000000E+00 0. -1.
         13   -1    0    0    0    0 -0.00000000000E+00 -0.00000000000E+00 -0.10000000000E+04  0.10000000000E+04  0.00000000000E+00 0.  1.
    9000005    2    1    2  501    0 -0.93409120880E+01  0.33167614665E+01 -0.97670017030E+03  0.97736676716E+03  0.34703333163E+02 0.  0.
         13    1    3    3    0    0  0.78839928140E+01  0.10349652518E+02 -0.18918370362E+03  0.18963055230E+03  0.00000000000E+00 0.  1.
          1    1    3    3  501    0 -0.17224904902E+02 -0.70328910518E+01 -0.78751646668E+03  0.78773621486E+03  0.00000000000E+00 0.  1.
         -1    1    1    2    0  502  0.93409120880E+01 -0.33167614665E+01 -0.21897001615E+02  0.24036060930E+02  0.00000000000E+00 0. -1.
<mgrwt>
<rscale>  1 0.30000000E+03</rscale>
<asrwt>0</asrwt>
<pdfrwt beam="1">  1       21 0.51012038E-02 0.30000000E+03</pdfrwt>
<pdfrwt beam="2">0</pdfrwt>
<totfact> 0.27836810E+04</totfact>
</mgrwt>
</event>
<event>
 6    1  0.1132867E-002  0.3000000E+03  0.7818608E-02  0.1093470E+00
         21   -1    0    0  501  502  0.00000000000E+00  0.00000000000E+00  0.10600009815E+00  0.10600009815E+00  0.00000000000E+00 0.  1.
         13   -1    0    0    0    0 -0.00000000000E+00 -0.00000000000E+00 -0.10000000000E+04  0.10000000000E+04  0.00000000000E+00 0.  1.
    9000005    2    1    2  501    0 -0.14399684390E+01 -0.79176035549E+01 -0.51542879638E+03  0.51557396259E+03  0.92143800985E+01 0.  0.
         13    1    3    3    0    0 -0.52992351569E+01 -0.34670716805E+01 -0.25638736998E+03  0.25646556487E+03  0.00000000000E+00 0.  1.
          1    1    3    3  501    0  0.38592667180E+01 -0.44505318744E+01 -0.25904142640E+03  0.25910839771E+03  0.00000000000E+00 0.  1.
         -1    1    1    2    0  502  0.14399684390E+01  0.79176035549E+01 -0.48446520352E+03  0.48453203751E+03  0.00000000000E+00 0. -1.
<mgrwt>
<rscale>  1 0.30000000E+03</rscale>
<asrwt>0</asrwt>
<pdfrwt beam="1">  1       21 0.38545572E-03 0.30000000E+03</pdfrwt>
<pdfrwt beam="2">0</pdfrwt>
<totfact> 0.17930880E+06</totfact>
</mgrwt>
</event>
<event>
 6    1  0.1132867E-002  0.3000000E+03  0.7818608E-02  0.1093470E+00
         21   -1    0    0  501  502  0.00000000000E+00  0.00000000000E+00  0.61451300970E+00  0.61451300970E+00  0.00000000000E+00 0. -1.
         13   -1    0    0    0    0 -0.00000000000E+00 -0.00000000000E+00 -0.10000000000E+04  0.10000000000E+04  0.00000000000E+00 0.  1.
    9000005    2    1    2  501    0 -0.17131998322E+02  0.12914773681E+01 -0.85493452114E+03  0.85514542758E+03  0.80928113703E+01 0.  0.
         13    1    3    3    0    0 -0.83116440476E+00  0.14580163999E+01 -0.20367542191E+03  0.20368233634E+03  0.00000000000E+00 0.  1.
          1    1    3    3  501    0 -0.16300833918E+02 -0.16653903187E+00 -0.65125909923E+03  0.65146309124E+03  0.00000000000E+00 0.  1.
         -1    1    1    2    0  502  0.17131998322E+02 -0.12914773681E+01 -0.14445096585E+03  0.14546908543E+03  0.00000000000E+00 0. -1.
<mgrwt>
<rscale>  1 0.30000000E+03</rscale>
<asrwt>0</asrwt>
<pdfrwt beam="1">  1       21 0.22345975E-02 0.30000000E+03</pdfrwt>
<pdfrwt beam="2">0</pdfrwt>
<totfact> 0.11057817E+05</totfact>
</mgrwt>
</event>
<event>
 6    1  0.1132867E-002  0.3000000E+03  0.7818608E-02  0.1093470E+00
         21   -1    0    0  501  502  0.00000000000E+00  0.00000000000E+00  0.24560828075E+00  0.24560828075E+00  0.00000000000E+00 0. -1.
         13   -1    0    0    0    0 -0.00000000000E+00 -0.00000000000E+00 -0.10000000000E+04  0.10000000000E+04  0.00000000000E+00 0.  1.
    9000005    2    1    2  501    0  0.10455029737E+02 -0.11076265871E+02 -0.59691122198E+03  0.59711459891E+03  0.32933251849E+01 0.  0.
         13    1    3    3    0    0  0.19981510289E+01 -0.25453896348E+01 -0.83104439744E+02  0.83167418628E+02  0.00000000000E+00 0.  1.
          3    1    3    3  501    0  0.84568787079E+01 -0.85308762363E+01 -0.51380678224E+03  0.51394718028E+03  0.00000000000E+00 0.  1.
         -1    1    1    2    0  502 -0.10455029737E+02  0.11076265871E+02 -0.40284316974E+03  0.40313100937E+03  0.00000000000E+00 0. -1.
<mgrwt>
<rscale>  1 0.30000000E+03</rscale>
<asrwt>0</asrwt>
<pdfrwt beam="1">  1       21 0.89312290E-03 0.30000000E+03</pdfrwt>
<pdfrwt beam="2">0</pdfrwt>
<totfact> 0.48331377E+05</totfact>
</mgrwt>
</event>
<event>
 6    1  0.1132867E-002  0.3000000E+03  0.7818608E-02  0.1093470E+00
         21   -1    0    0  501  502  0.00000000000E+00  0.00000000000E+00  0.16796307187E+00  0.16796307187E+00  0.00000000000E+00 0. -1.
         13   -1    0    0    0    0 -0.00000000000E+00 -0.00000000000E+00 -0.10000000000E+04  0.10000000000E+04  0.00000000000E+00 0.  1.
    9000005    2    1    2  501    0  0.30456369697E+01 -0.86271903787E+01 -0.82839910624E+03  0.82849107458E+03  0.82871659162E+01 0.  0.
         13    1    3    3    0    0  0.25404676209E+01 -0.71210919812E+01 -0.80610000392E+03  0.80613546023E+03  0.00000000000E+00 0.  1.
          3    1    3    3  501    0  0.50516934882E+00 -0.15060983975E+01 -0.22299102324E+02  0.22355614349E+02  0.00000000000E+00 0.  1.
         -1    1    1    2    0  502 -0.30456369697E+01  0.86271903787E+01 -0.17143293068E+03  0.17167688849E+03  0.00000000000E+00 0. -1.
<mgrwt>
<rscale>  1 0.30000000E+03</rscale>
<asrwt>0</asrwt>
<pdfrwt beam="1">  1       21 0.61077609E-03 0.30000000E+03</pdfrwt>
<pdfrwt beam="2">0</pdfrwt>
<totfact> 0.87808647E+05</totfact>
</mgrwt>
</event>
<event>
 6    1  0.1132867E-002  0.3000000E+03  0.7818608E-02  0.1093470E+00
         21   -1    0    0  501  502  0.00000000000E+00  0.00000000000E+00  0.59258237647E+00  0.59258237647E+00  0.00000000000E+00 0. -1.
         13   -1    0    0    0    0 -0.00000000000E+00 -0.00000000000E+00 -0.10000000000E+04  0.10000000000E+04  0.00000000000E+00 0.  1.
    9000005    2    1    2  501    0 -0.89173255391E+01  0.20251542477E+02 -0.40785589986E+03  0.40862734536E+03  0.11841818188E+02 0.  0.
         13    1    3    3    0    0 -0.11331193485E+02  0.19067803485E+02 -0.34355421123E+03  0.34426947748E+03  0.00000000000E+00 0.  1.
          1    1    3    3  501    0  0.24138679461E+01  0.11837389920E+01 -0.64301688635E+02  0.64357867877E+02  0.00000000000E+00 0.  1.
         -3    1    1    2    0  502  0.89173255391E+01 -0.20251542477E+02 -0.59155151776E+03  0.59196523702E+03  0.00000000000E+00 0. -1.
<mgrwt>
<rscale>  1 0.30000000E+03</rscale>
<asrwt>0</asrwt>
<pdfrwt beam="1">  1       21 0.21548495E-02 0.30000000E+03</pdfrwt>
<pdfrwt beam="2">0</pdfrwt>
<totfact> 0.11736018E+05</totfact>
</mgrwt>
</event>
<event>
 6    1  0.1132867E-002  0.3000000E+03  0.7818608E-02  0.1093470E+00
         21   -1    0    0  501  502  0.00000000000E+00  0.00000000000E+00  0.50462026025E+00  0.50462026025E+00  0.00000000000E+00 0. -1.
         13   -1    0    0    0    0 -0.00000000000E+00 -0.00000000000E+00 -0.10000000000E+04  0.10000000000E+04  0.00000000000E+00 0.  1.
    9000005    2    1    2  501    0  0.17416507420E+02  0.53224844843E+01 -0.76670851969E+03  0.76700647084E+03  0.11194131066E+02 0.  0.
         13    1    3    3    0    0  0.53285012962E+01  0.20337199091E+01 -0.89204534720E+02  0.89386676621E+02  0.00000000000E+00 0.  1.
          3    1    3    3  501    0  0.12088006124E+02  0.32887645752E+01 -0.67750398497E+03  0.67761979422E+03  0.00000000000E+00 0.  1.
         -1    1    1    2    0  502 -0.17416507420E+02 -0.53224844843E+01 -0.23278686005E+03  0.23349814942E+03  0.00000000000E+00 0. -1.
<mgrwt>
<rscale>  1 0.30000000E+03</rscale>
<asrwt>0</asrwt>
<pdfrwt beam="1">  1       21 0.18349866E-02 0.30000000E+03</pdfrwt>
<pdfrwt beam="2">0</pdfrwt>
<totfact> 0.15249740E+05</totfact>
</mgrwt>
</event>
<event>
 6    1  0.1132867E-002  0.3000000E+03  0.7818608E-02  0.1093470E+00
         21   -1    0    0  501  502  0.00000000000E+00  0.00000000000E+00  0.39320019036E+00  0.39320019036E+00  0.00000000000E+00 0. -1.
         13   -1    0    0    0    0 -0.00000000000E+00 -0.00000000000E+00 -0.10000000000E+04  0.10000000000E+04  0.00000000000E+00 0.  1.
    9000005    2    1    2  501    0  0.16194039369E+02 -0.20288139318E+01 -0.76489444668E+03  0.76511410697E+03  0.83497975259E+01 0.  0.
         13    1    3    3    0    0  0.48030009505E+01 -0.43616135633E+01 -0.22013638112E+03  0.22023196585E+03  0.00000000000E+00 0.  1.
          1    1    3    3  501    0  0.11391038418E+02  0.23327996314E+01 -0.54475806557E+03  0.54488214112E+03  0.00000000000E+00 0.  1.
         -1    1    1    2    0  502 -0.16194039369E+02  0.20288139318E+01 -0.23471235313E+03  0.23527909322E+03  0.00000000000E+00 0. -1.
<mgrwt>
<rscale>  1 0.30000000E+03</rscale>
<asrwt>0</asrwt>
<pdfrwt beam="1">  1       21 0.14298219E-02 0.30000000E+03</pdfrwt>
<pdfrwt beam="2">0</pdfrwt>
<totfact> 0.22824047E+05</totfact>
</mgrwt>
</event>
<event>
 6    1  0.1132867E-002  0.3000000E+03  0.7818608E-02  0.1093470E+00
         21   -1    0    0  501  502  0.00000000000E+00  0.00000000000E+00  0.24268922301E+00  0.24268922301E+00  0.00000000000E+00 0. -1.
         13   -1    0    0    0    0 -0.00000000000E+00 -0.00000000000E+00 -0.10000000000E+04  0.10000000000E+04  0.00000000000E+00 0.  1.
    9000005    2    1    2  501    0  0.14140537060E+02  0.46477621814E+01 -0.63017317152E+03  0.63035893387E+03  0.35500602836E+01 0.  0.
         13    1    3    3    0    0  0.17849349225E+01  0.16211723651E+01 -0.13979469200E+03  0.13981548592E+03  0.00000000000E+00 0.  1.
          3    1    3    3  501    0  0.12355602138E+02  0.30265898163E+01 -0.49037847952E+03  0.49054344795E+03  0.00000000000E+00 0.  1.
         -3    1    1    2    0  502 -0.14140537060E+02 -0.46477621814E+01 -0.36958413926E+03  0.36988375535E+03  0.00000000000E+00 0. -1.
<mgrwt>
<rscale>  1 0.30000000E+03</rscale>
<asrwt>0</asrwt>
<pdfrwt beam="1">  1       21 0.88250813E-03 0.30000000E+03</pdfrwt>
<pdfrwt beam="2">0</pdfrwt>
<totfact> 0.49253232E+05</totfact>
</mgrwt>
</event>
<event>
 6    1  0.1132867E-002  0.3000000E+03  0.7818608E-02  0.1093470E+00
         21   -1    0    0  501  502  0.00000000000E+00  0.00000000000E+00  0.51587694969E+00  0.51587694969E+00  0.00000000000E+00 0. -1.
         13   -1    0    0    0    0 -0.00000000000E+00 -0.00000000000E+00 -0.10000000000E+04  0.10000000000E+04  0.00000000000E+00 0.  1.
    9000005    2    1    2  501    0  0.17898515770E+02  0.49974588749E+01 -0.76930565633E+03  0.76958849009E+03  0.94826024689E+01 0.  0.
         13    1    3    3    0    0  0.14175842725E+02  0.73006750335E+01 -0.52004479860E+03  0.52028919548E+03  0.00000000000E+00 0.  1.
          3    1    3    3  501    0  0.37226730450E+01 -0.23032161586E+01 -0.24926085773E+03  0.24929929461E+03  0.00000000000E+00 0.  1.
         -3    1    1    2    0  502 -0.17898515770E+02 -0.49974588749E+01 -0.23017846672E+03  0.23092738686E+03  0.00000000000E+00 0. -1.
<mgrwt>
<rscale>  1 0.30000000E+03</rscale>
<asrwt>0</asrwt>
<pdfrwt beam="1">  1       21 0.18759201E-02 0.30000000E+03</pdfrwt>
<pdfrwt beam="2">0</pdfrwt>
<totfact> 0.14712756E+05</totfact>
</mgrwt>
</event>
<event>
 6    1  0.1132867E-002  0.3000000E+03  0.7818608E-02  0.1093470E+00
         21   -1    0    0  501  502  0.00000000000E+00  0.00000000000E+00  0.18987318868E+00  0.18987318868E+00  0.00000000000E+00 0. -1.
         13   -1    0    0    0    0 -0.00000000000E+00 -0.00000000000E+00 -0.10000000000E+04  0.10000000000E+04  0.00000000000E+00 0.  1.
    9000005    2    1    2  501    0 -0.91014856685E+01 -0.23437033221E+01 -0.81514846036E+03  0.81528919433E+03  0.11879729532E+02 0.  0.
         13    1    3    3    0    0  0.69255053607E+00 -0.14087601857E+00 -0.45578336027E+03  0.45578390820E+03  0.00000000000E+00 0.  1.
          1    1    3    3  501    0 -0.97940362045E+01 -0.22028273036E+01 -0.35936510009E+03  0.35950528614E+03  0.00000000000E+00 0.  1.
         -3    1    1    2    0  502  0.91014856685E+01  0.23437033221E+01 -0.18466166645E+03  0.18490067886E+03  0.00000000000E+00 0. -1.
<mgrwt>
<rscale>  1 0.30000000E+03</rscale>
<asrwt>0</asrwt>
<pdfrwt beam="1">  1       21 0.69044941E-03 0.30000000E+03</pdfrwt>
<pdfrwt beam="2">0</pdfrwt>
<totfact> 0.72477159E+05</totfact>
</mgrwt>
</event>
<event>
 6    1  0.1132867E-002  0.3000000E+03  0.7818608E-02  0.1093470E+00
         21   -1    0    0  501  502  0.00000000000E+00  0.00000000000E+00  0.27007630062E+00  0.27007630062E+00  0.00000000000E+00 0. -1.
         13   -1    0    0    0    0 -0.00000000000E+00 -0.00000000000E+00 -0.10000000000E+04  0.10000000000E+04  0.00000000000E+00 0.  1.
    9000005    2    1    2  501    0  0.77111433637E+01  0.78320149060E+01 -0.83789614769E+03  0.83806350046E+03  0.12636229462E+02 0.  0.
         13    1    3    3    0    0  0.46455068015E+01  0.59744319961E+01 -0.78894134357E+03  0.78897764111E+03  0.00000000000E+00 0.  1.
          1    1    3    3  501    0  0.30656365622E+01  0.18575829099E+01 -0.48954804116E+02  0.49085859347E+02  0.00000000000E+00 0.  1.
         -3    1    1    2    0  502 -0.77111433637E+01 -0.78320149060E+01 -0.16183377601E+03  0.16220657584E+03  0.00000000000E+00 0. -1.
<mgrwt>
<rscale>  1 0.30000000E+03</rscale>
<asrwt>0</asrwt>
<pdfrwt beam="1">  1       21 0.98209771E-03 0.30000000E+03</pdfrwt>
<pdfrwt beam="2">0</pdfrwt>
<totfact> 0.41584592E+05</totfact>
</mgrwt>
</event>
<event>
 6    1  0.1132867E-002  0.3000000E+03  0.7818608E-02  0.1093470E+00
         21   -1    0    0  501  502  0.00000000000E+00  0.00000000000E+00  0.48089057145E+00  0.48089057145E+00  0.00000000000E+00 0. -1.
         13   -1    0    0    0    0 -0.00000000000E+00 -0.00000000000E+00 -0.10000000000E+04  0.10000000000E+04  0.00000000000E+00 0.  1.
    9000005    2    1    2  501    0  0.11038456028E+02  0.12986003264E+02 -0.53269847514E+03  0.53334922992E+03  0.20081131435E+02 0.  0.
         13    1    3    3    0    0  0.12379049556E+02  0.11058845231E+02 -0.52580559368E+03  0.52606754440E+03  0.00000000000E+00 0.  1.
          3    1    3    3  501    0 -0.13405935280E+01  0.19271580331E+01 -0.68928814680E+01  0.72816855207E+01  0.00000000000E+00 0.  1.
         -1    1    1    2    0  502 -0.11038456028E+02 -0.12986003264E+02 -0.46682063428E+03  0.46713166065E+03  0.00000000000E+00 0. -1.
<mgrwt>
<rscale>  1 0.30000000E+03</rscale>
<asrwt>0</asrwt>
<pdfrwt beam="1">  1       21 0.17486967E-02 0.30000000E+03</pdfrwt>
<pdfrwt beam="2">0</pdfrwt>
<totfact> 0.16489691E+05</totfact>
</mgrwt>
</event>
<event>
 6    1  0.1132867E-002  0.3000000E+03  0.7818608E-02  0.1093470E+00
         21   -1    0    0  501  502  0.00000000000E+00  0.00000000000E+00  0.40294794341E+00  0.40294794341E+00  0.00000000000E+00 0. -1.
         13   -1    0    0    0    0 -0.00000000000E+00 -0.00000000000E+00 -0.10000000000E+04  0.10000000000E+04  0.00000000000E+00 0.  1.
    9000005    2    1    2  501    0  0.52290864399E+01 -0.14388743918E+02 -0.58863785899E+03  0.58915869247E+03  0.19469375347E+02 0.  0.
         13    1    3    3    0    0  0.99892128661E+01 -0.51801412057E+01 -0.44716722556E+03  0.44730878132E+03  0.00000000000E+00 0.  1.
          1    1    3    3  501    0 -0.47601264262E+01 -0.92086027119E+01 -0.14147063344E+03  0.14184991115E+03  0.00000000000E+00 0.  1.
         -3    1    1    2    0  502 -0.52290864399E+01  0.14388743918E+02 -0.41095919306E+03  0.41124425547E+03  0.00000000000E+00 0. -1.
<mgrwt>
<rscale>  1 0.30000000E+03</rscale>
<asrwt>0</asrwt>
<pdfrwt beam="1">  1       21 0.14652683E-02 0.30000000E+03</pdfrwt>
<pdfrwt beam="2">0</pdfrwt>
<totfact> 0.21942460E+05</totfact>
</mgrwt>
</event>
<event>
 6    1  0.1132867E-002  0.3000000E+03  0.7818608E-02  0.1093470E+00
         21   -1    0    0  501  502  0.00000000000E+00  0.00000000000E+00  0.18396275775E+00  0.18396275775E+00  0.00000000000E+00 0. -1.
         13   -1    0    0    0    0 -0.00000000000E+00 -0.00000000000E+00 -0.10000000000E+04  0.10000000000E+04  0.00000000000E+00 0.  1.
    9000005    2    1    2  501    0 -0.12069393842E+02 -0.89482283597E-02 -0.64589013409E+03  0.64605232725E+03  0.79921134833E+01 0.  0.
         13    1    3    3    0    0 -0.11185086359E+02  0.10898528291E+01 -0.62986391873E+03  0.62996416569E+03  0.00000000000E+00 0.  1.
          1    1    3    3  501    0 -0.88430748323E+00 -0.10988010574E+01 -0.16026215361E+02  0.16088161557E+02  0.00000000000E+00 0.  1.
         -1    1    1    2    0  502  0.12069393842E+02  0.89482283597E-02 -0.35392590315E+03  0.35413163551E+03  0.00000000000E+00 0. -1.
<mgrwt>
<rscale>  1 0.30000000E+03</rscale>
<asrwt>0</asrwt>
<pdfrwt beam="1">  1       21 0.66895689E-03 0.30000000E+03</pdfrwt>
<pdfrwt beam="2">0</pdfrwt>
<totfact> 0.76158216E+05</totfact>
</mgrwt>
</event>
<event>
 6    1  0.1132867E-002  0.3000000E+03  0.7818608E-02  0.1093470E+00
         21   -1    0    0  501  502  0.00000000000E+00  0.00000000000E+00  0.15370340511E+00  0.15370340511E+00  0.00000000000E+00 0. -1.
         13   -1    0    0    0    0 -0.00000000000E+00 -0.00000000000E+00 -0.10000000000E+04  0.10000000000E+04  0.00000000000E+00 0.  1.
    9000005    2    1    2  501    0  0.76115795554E+01  0.58620916115E+01 -0.72086272271E+03  0.72100475614E+03  0.10606277522E+02 0.  0.
         13    1    3    3    0    0 -0.26210216786E+01  0.55964557183E+00 -0.10493545500E+03  0.10496967502E+03  0.00000000000E+00 0.  1.
          3    1    3    3  501    0  0.10232601234E+02  0.53024460397E+01 -0.61592726771E+03  0.61603508112E+03  0.00000000000E+00 0.  1.
         -1    1    1    2    0  502 -0.76115795554E+01 -0.58620916115E+01 -0.27898357389E+03  0.27914894727E+03  0.00000000000E+00 0. -1.
<mgrwt>
<rscale>  1 0.30000000E+03</rscale>
<asrwt>0</asrwt>
<pdfrwt beam="1">  1       21 0.55892265E-03 0.30000000E+03</pdfrwt>
<pdfrwt beam="2">0</pdfrwt>
<totfact> 0.10083649E+06</totfact>
</mgrwt>
</event>
<event>
 6    1  0.1132867E-002  0.3000000E+03  0.7818608E-02  0.1093470E+00
         21   -1    0    0  501  502  0.00000000000E+00  0.00000000000E+00  0.16503983634E+00  0.16503983634E+00  0.00000000000E+00 0. -1.
         13   -1    0    0    0    0 -0.00000000000E+00 -0.00000000000E+00 -0.10000000000E+04  0.10000000000E+04  0.00000000000E+00 0.  1.
    9000005    2    1    2  501    0 -0.75609403052E+01  0.79591872235E+01 -0.61879533046E+03  0.61896730127E+03  0.96095040990E+01 0.  0.
         13    1    3    3    0    0 -0.63701604630E+01  0.25079850933E+01 -0.17069597521E+03  0.17083320780E+03  0.00000000000E+00 0.  1.
          1    1    3    3  501    0 -0.11907798422E+01  0.54512021302E+01 -0.44809935524E+03  0.44813409347E+03  0.00000000000E+00 0.  1.
         -3    1    1    2    0  502  0.75609403052E+01 -0.79591872235E+01 -0.38103962970E+03  0.38119773856E+03  0.00000000000E+00 0. -1.
<mgrwt>
<rscale>  1 0.30000000E+03</rscale>
<asrwt>0</asrwt>
<pdfrwt beam="1">  1       21 0.60014612E-03 0.30000000E+03</pdfrwt>
<pdfrwt beam="2">0</pdfrwt>
<totfact> 0.90249200E+05</totfact>
</mgrwt>
</event>
<event>
 6    1  0.1132867E-002  0.3000000E+03  0.7818608E-02  0.1093470E+00
         21   -1    0    0  501  502  0.00000000000E+00  0.00000000000E+00  0.15038545724E+01  0.15038545724E+01  0.00000000000E+00 0. -1.
         13   -1    0    0    0    0 -0.00000000000E+00 -0.00000000000E+00 -0.10000000000E+04  0.10000000000E+04  0.00000000000E+00 0.  1.
    9000005    2    1    2  501    0 -0.17522946876E+02  0.11716865648E+00 -0.94508266777E+03  0.94528938142E+03  0.91486786726E+01 0.  0.
         13    1    3    3    0    0 -0.15301500902E+02  0.92915978761E+00 -0.90901243344E+03  0.90914168500E+03  0.00000000000E+00 0.  1.
          3    1    3    3  501    0 -0.22214459732E+01 -0.81199113114E+00 -0.36070234329E+02  0.36147696418E+02  0.00000000000E+00 0.  1.
         -1    1    1    2    0  502  0.17522946876E+02 -0.11716865648E+00 -0.53413477662E+02  0.56214473152E+02  0.00000000000E+00 0. -1.
<mgrwt>
<rscale>  1 0.30000000E+03</rscale>
<asrwt>0</asrwt>
<pdfrwt beam="1">  1       21 0.54685736E-02 0.30000000E+03</pdfrwt>
<pdfrwt beam="2">0</pdfrwt>
<totfact> 0.24715756E+04</totfact>
</mgrwt>
</event>
<event>
 6    1  0.1132867E-002  0.3000000E+03  0.7818608E-02  0.1093470E+00
         21   -1    0    0  501  502  0.00000000000E+00  0.00000000000E+00  0.18526861650E+01  0.18526861650E+01  0.00000000000E+00 0. -1.
         13   -1    0    0    0    0 -0.00000000000E+00 -0.00000000000E+00 -0.10000000000E+04  0.10000000000E+04  0.00000000000E+00 0.  1.
    9000005    2    1    2  501    0 -0.47420647489E-01  0.20029039483E+02 -0.93998498945E+03  0.94033829233E+03  0.16222174780E+02 0.  0.
         13    1    3    3    0    0  0.36781422619E+01  0.15724181195E+02 -0.85972036092E+03  0.85987201233E+03  0.00000000000E+00 0.  1.
          1    1    3    3  501    0 -0.37255629094E+01  0.43048582876E+01 -0.80264628527E+02  0.80466279996E+02  0.00000000000E+00 0.  1.
         -1    1    1    2    0  502  0.47420647489E-01 -0.20029039483E+02 -0.58162324385E+02  0.61514393837E+02  0.00000000000E+00 0. -1.
<mgrwt>
<rscale>  1 0.30000000E+03</rscale>
<asrwt>0</asrwt>
<pdfrwt beam="1">  1       21 0.67370548E-02 0.30000000E+03</pdfrwt>
<pdfrwt beam="2">0</pdfrwt>
<totfact> 0.17245363E+04</totfact>
</mgrwt>
</event>
<event>
 6    1  0.1132867E-002  0.3000000E+03  0.7818608E-02  0.1093470E+00
         21   -1    0    0  501  502  0.00000000000E+00  0.00000000000E+00  0.10346057213E+00  0.10346057213E+00  0.00000000000E+00 0. -1.
         13   -1    0    0    0    0 -0.00000000000E+00 -0.00000000000E+00 -0.10000000000E+04  0.10000000000E+04  0.00000000000E+00 0.  1.
    9000005    2    1    2  501    0 -0.64787972960E+00 -0.90241956885E+01 -0.47253347922E+03  0.47266279744E+03  0.63541515432E+01 0.  0.
         13    1    3    3    0    0 -0.75728513352E+00 -0.99864339046E+01 -0.44384157625E+03  0.44395455527E+03  0.00000000000E+00 0.  1.
          1    1    3    3  501    0  0.10940540392E+00  0.96223821606E+00 -0.28691902975E+02  0.28708242165E+02  0.00000000000E+00 0.  1.
         -3    1    1    2    0  502  0.64787972960E+00  0.90241956885E+01 -0.52736306021E+03  0.52744066313E+03  0.00000000000E+00 0. -1.
<mgrwt>
<rscale>  1 0.30000000E+03</rscale>
<asrwt>0</asrwt>
<pdfrwt beam="1">  1       21 0.37622106E-03 0.30000000E+03</pdfrwt>
<pdfrwt beam="2">0</pdfrwt>
<totfact> 0.18613747E+06</totfact>
</mgrwt>
</event>
<event>
 6    1  0.1132867E-002  0.3000000E+03  0.7818608E-02  0.1093470E+00
         21   -1    0    0  501  502  0.00000000000E+00  0.00000000000E+00  0.62222877223E+00  0.62222877223E+00  0.00000000000E+00 0. -1.
         13   -1    0    0    0    0 -0.00000000000E+00 -0.00000000000E+00 -0.10000000000E+04  0.10000000000E+04  0.00000000000E+00 0.  1.
    9000005    2    1    2  501    0  0.11545906932E+02 -0.88460902718E+01 -0.90411435531E+03  0.90425480848E+03  0.65138249622E+01 0.  0.
         13    1    3    3    0    0  0.41419966779E+01 -0.18614692914E+01 -0.14225131295E+03  0.14232377609E+03  0.00000000000E+00 0.  1.
          3    1    3    3  501    0  0.74039102537E+01 -0.69846209804E+01 -0.76186304236E+03  0.76193103240E+03  0.00000000000E+00 0.  1.
         -1    1    1    2    0  502 -0.11545906932E+02  0.88460902718E+01 -0.95263415922E+02  0.96367420288E+02  0.00000000000E+00 0. -1.
<mgrwt>
<rscale>  1 0.30000000E+03</rscale>
<asrwt>0</asrwt>
<pdfrwt beam="1">  1       21 0.22626549E-02 0.30000000E+03</pdfrwt>
<pdfrwt beam="2">0</pdfrwt>
<totfact> 0.10833963E+05</totfact>
</mgrwt>
</event>
<event>
 6    1  0.1132867E-002  0.3000000E+03  0.7818608E-02  0.1093470E+00
         21   -1    0    0  501  502  0.00000000000E+00  0.00000000000E+00  0.12520087891E+01  0.12520087891E+01  0.00000000000E+00 0. -1.
         13   -1    0    0    0    0 -0.00000000000E+00 -0.00000000000E+00 -0.10000000000E+04  0.10000000000E+04  0.00000000000E+00 0.  1.
    9000005    2    1    2  501    0 -0.32542858834E+02  0.97013334317E+01 -0.45720049013E+03  0.45864086860E+03  0.12884278898E+02 0.  0.
         13    1    3    3    0    0 -0.94218564383E+01 -0.30137873674E+01 -0.11514506427E+03  0.11556920056E+03  0.00000000000E+00 0.  1.
          1    1    3    3  501    0 -0.23121002396E+02  0.12715120799E+02 -0.34205542587E+03  0.34307166804E+03  0.00000000000E+00 0.  1.
         -1    1    1    2    0  502  0.32542858834E+02 -0.97013334317E+01 -0.54154750108E+03  0.54261114019E+03  0.00000000000E+00 0. -1.
<mgrwt>
<rscale>  1 0.30000000E+03</rscale>
<asrwt>0</asrwt>
<pdfrwt beam="1">  1       21 0.45527688E-02 0.30000000E+03</pdfrwt>
<pdfrwt beam="2">0</pdfrwt>
<totfact> 0.33782893E+04</totfact>
</mgrwt>
</event>
<event>
 6    1  0.1132867E-002  0.3000000E+03  0.7818608E-02  0.1093470E+00
         21   -1    0    0  501  502  0.00000000000E+00  0.00000000000E+00  0.21028905078E+00  0.21028905078E+00  0.00000000000E+00 0. -1.
         13   -1    0    0    0    0 -0.00000000000E+00 -0.00000000000E+00 -0.10000000000E+04  0.10000000000E+04  0.00000000000E+00 0.  1.
    9000005    2    1    2  501    0  0.10008134691E+02 -0.33220328277E+00 -0.74804935376E+03  0.74827085078E+03  0.15203859560E+02 0.  0.
         13    1    3    3    0    0  0.45542984590E+00  0.36270934890E+01 -0.49097136406E+03  0.49098497284E+03  0.00000000000E+00 0.  1.
          1    1    3    3  501    0  0.95527048454E+01 -0.39592967717E+01 -0.25707798970E+03  0.25728587794E+03  0.00000000000E+00 0.  1.
         -3    1    1    2    0  502 -0.10008134691E+02  0.33220328277E+00 -0.25174035719E+03  0.25193943827E+03  0.00000000000E+00 0. -1.
<mgrwt>
<rscale>  1 0.30000000E+03</rscale>
<asrwt>0</asrwt>
<pdfrwt beam="1">  1       21 0.76468907E-03 0.30000000E+03</pdfrwt>
<pdfrwt beam="2">0</pdfrwt>
<totfact> 0.61741182E+05</totfact>
</mgrwt>
</event>
<event>
 6    1  0.1132867E-002  0.3000000E+03  0.7818608E-02  0.1093470E+00
         21   -1    0    0  501  502  0.00000000000E+00  0.00000000000E+00  0.37974043829E+00  0.37974043829E+00  0.00000000000E+00 0. -1.
         13   -1    0    0    0    0 -0.00000000000E+00 -0.00000000000E+00 -0.10000000000E+04  0.10000000000E+04  0.00000000000E+00 0.  1.
    9000005    2    1    2  501    0 -0.16373688625E+02 -0.79822866774E+01 -0.64498575656E+03  0.64527771947E+03  0.67003353167E+01 0.  0.
         13    1    3    3    0    0 -0.53542184824E+01  0.66927481127E+00 -0.18461791507E+03  0.18469675187E+03  0.00000000000E+00 0.  1.
          1    1    3    3  501    0 -0.11019470142E+02 -0.86515614887E+01 -0.46036784149E+03  0.46058096760E+03  0.00000000000E+00 0.  1.
         -1    1    1    2    0  502  0.16373688625E+02  0.79822866774E+01 -0.35463450300E+03  0.35510202097E+03  0.00000000000E+00 0. -1.
<mgrwt>
<rscale>  1 0.30000000E+03</rscale>
<asrwt>0</asrwt>
<pdfrwt beam="1">  1       21 0.13808772E-02 0.30000000E+03</pdfrwt>
<pdfrwt beam="2">0</pdfrwt>
<totfact> 0.24138093E+05</totfact>
</mgrwt>
</event>
<event>
 6    1  0.1132867E-002  0.3000000E+03  0.7818608E-02  0.1093470E+00
         21   -1    0    0  501  502  0.00000000000E+00  0.00000000000E+00  0.97890517478E-01  0.97890517478E-01  0.00000000000E+00 0. -1.
         13   -1    0    0    0    0 -0.00000000000E+00 -0.00000000000E+00 -0.10000000000E+04  0.10000000000E+04  0.00000000000E+00 0.  1.
    9000005    2    1    2  501    0 -0.91179643292E+01  0.21852360590E+01 -0.50051699075E+03  0.50062475877E+03  0.44697348838E+01 0.  0.
         13    1    3    3    0    0 -0.77772369619E+01  0.84304866529E+00 -0.31136708397E+03  0.31146533856E+03  0.00000000000E+00 0.  1.
          1    1    3    3  501    0 -0.13407273672E+01  0.13421873937E+01 -0.18914990679E+03  0.18915942021E+03  0.00000000000E+00 0.  1.
         -3    1    1    2    0  502  0.91179643292E+01 -0.21852360590E+01 -0.49938511873E+03  0.49947313175E+03  0.00000000000E+00 0. -1.
<mgrwt>
<rscale>  1 0.30000000E+03</rscale>
<asrwt>0</asrwt>
<pdfrwt beam="1">  1       21 0.35596627E-03 0.30000000E+03</pdfrwt>
<pdfrwt beam="2">0</pdfrwt>
<totfact> 0.20268435E+06</totfact>
</mgrwt>
</event>
<event>
 6    1  0.1132867E-002  0.3000000E+03  0.7818608E-02  0.1093470E+00
         21   -1    0    0  501  502  0.00000000000E+00  0.00000000000E+00  0.40325879840E+00  0.40325879840E+00  0.00000000000E+00 0. -1.
         13   -1    0    0    0    0 -0.00000000000E+00 -0.00000000000E+00 -0.10000000000E+04  0.10000000000E+04  0.00000000000E+00 0.  1.
    9000005    2    1    2  501    0  0.18122497654E+02 -0.64708636622E+01 -0.48173636521E+03  0.48218548023E+03  0.79129504801E+01 0.  0.
         13    1    3    3    0    0  0.58526644138E+01  0.63052996056E+00 -0.20690274226E+03  0.20698646333E+03  0.00000000000E+00 0.  1.
          3    1    3    3  501    0  0.12269833240E+02 -0.71013936228E+01 -0.27483362294E+03  0.27519901690E+03  0.00000000000E+00 0.  1.
         -1    1    1    2    0  502 -0.18122497654E+02  0.64708636622E+01 -0.51786037600E+03  0.51821777857E+03  0.00000000000E+00 0. -1.
<mgrwt>
<rscale>  1 0.30000000E+03</rscale>
<asrwt>0</asrwt>
<pdfrwt beam="1">  1       21 0.14663987E-02 0.30000000E+03</pdfrwt>
<pdfrwt beam="2">0</pdfrwt>
<totfact> 0.21915247E+05</totfact>
</mgrwt>
</event>
<event>
 6    1  0.1132867E-002  0.3000000E+03  0.7818608E-02  0.1093470E+00
         21   -1    0    0  501  502  0.00000000000E+00  0.00000000000E+00  0.24899592813E+00  0.24899592813E+00  0.00000000000E+00 0. -1.
         13   -1    0    0    0    0 -0.00000000000E+00 -0.00000000000E+00 -0.10000000000E+04  0.10000000000E+04  0.00000000000E+00 0.  1.
    9000005    2    1    2  501    0  0.40920769744E+01 -0.10014015350E+02 -0.84785375961E+03  0.84796702565E+03  0.86633309705E+01 0.  0.
         13    1    3    3    0    0  0.62070689711E+01 -0.39131666805E+01 -0.49153743722E+03  0.49159220169E+03  0.00000000000E+00 0.  1.
          1    1    3    3  501    0 -0.21149919967E+01 -0.61008486696E+01 -0.35631632240E+03  0.35637482396E+03  0.00000000000E+00 0.  1.
         -1    1    1    2    0  502 -0.40920769744E+01  0.10014015350E+02 -0.15189724446E+03  0.15228197028E+03  0.00000000000E+00 0. -1.
<mgrwt>
<rscale>  1 0.30000000E+03</rscale>
<asrwt>0</asrwt>
<pdfrwt beam="1">  1       21 0.90544165E-03 0.30000000E+03</pdfrwt>
<pdfrwt beam="2">0</pdfrwt>
<totfact> 0.47295967E+05</totfact>
</mgrwt>
</event>
<event>
 6    1  0.1132867E-002  0.3000000E+03  0.7818608E-02  0.1093470E+00
         21   -1    0    0  501  502  0.00000000000E+00  0.00000000000E+00  0.17881583507E+00  0.17881583507E+00  0.00000000000E+00 0. -1.
         13   -1    0    0    0    0 -0.00000000000E+00 -0.00000000000E+00 -0.10000000000E+04  0.10000000000E+04  0.00000000000E+00 0.  1.
    9000005    2    1    2  501    0 -0.37762393834E+01  0.86274924366E+01 -0.83941340392E+03  0.83949481050E+03  0.69267997432E+01 0.  0.
         13    1    3    3    0    0  0.17501204047E+01  0.42653659256E+01 -0.29890879983E+03  0.29894435416E+03  0.00000000000E+00 0.  1.
          3    1    3    3  501    0 -0.55263597882E+01  0.43621265110E+01 -0.54050460409E+03  0.54055045633E+03  0.00000000000E+00 0.  1.
         -3    1    1    2    0  502  0.37762393834E+01 -0.86274924366E+01 -0.16040778024E+03  0.16068400534E+03  0.00000000000E+00 0. -1.
<mgrwt>
<rscale>  1 0.30000000E+03</rscale>
<asrwt>0</asrwt>
<pdfrwt beam="1">  1       21 0.65024077E-03 0.30000000E+03</pdfrwt>
<pdfrwt beam="2">0</pdfrwt>
<totfact> 0.79617876E+05</totfact>
</mgrwt>
</event>
<event>
 6    1  0.1132867E-002  0.3000000E+03  0.7818608E-02  0.1093470E+00
         21   -1    0    0  501  502  0.00000000000E+00  0.00000000000E+00  0.28907883099E+00  0.28907883099E+00  0.00000000000E+00 0. -1.
         13   -1    0    0    0    0 -0.00000000000E+00 -0.00000000000E+00 -0.10000000000E+04  0.10000000000E+04  0.00000000000E+00 0.  1.
    9000005    2    1    2  501    0 -0.37182566613E+01 -0.96666052600E+01 -0.88366630493E+03  0.88378319208E+03  0.99661147152E+01 0.  0.
         13    1    3    3    0    0 -0.66199402944E+01 -0.33467069760E+01 -0.45015704677E+03  0.45021815914E+03  0.00000000000E+00 0.  1.
          1    1    3    3  501    0  0.29016836330E+01 -0.63198982839E+01 -0.43350925816E+03  0.43356503295E+03  0.00000000000E+00 0.  1.
         -3    1    1    2    0  502  0.37182566613E+01  0.96666052600E+01 -0.11604461624E+03  0.11650588675E+03  0.00000000000E+00 0. -1.
<mgrwt>
<rscale>  1 0.30000000E+03</rscale>
<asrwt>0</asrwt>
<pdfrwt beam="1">  1       21 0.10511980E-02 0.30000000E+03</pdfrwt>
<pdfrwt beam="2">0</pdfrwt>
<totfact> 0.37326323E+05</totfact>
</mgrwt>
</event>
<event>
 6    1  0.1132867E-002  0.3000000E+03  0.7818608E-02  0.1093470E+00
         21   -1    0    0  501  502  0.00000000000E+00  0.00000000000E+00  0.14901455871E+00  0.14901455871E+00  0.00000000000E+00 0. -1.
         13   -1    0    0    0    0 -0.00000000000E+00 -0.00000000000E+00 -0.10000000000E+04  0.10000000000E+04  0.00000000000E+00 0.  1.
    9000005    2    1    2  501    0  0.52562586011E+01 -0.89197832381E+01 -0.72252927287E+03  0.72263410856E+03  0.66568696910E+01 0.  0.
         13    1    3    3    0    0  0.70404915789E-01 -0.35478174912E+00 -0.18361475207E+01  0.18714338512E+01  0.00000000000E+00 0.  1.
          1    1    3    3  501    0  0.51858536853E+01 -0.85650014890E+01 -0.72069312535E+03  0.72076267471E+03  0.00000000000E+00 0.  1.
         -3    1    1    2    0  502 -0.52562586011E+01  0.89197832381E+01 -0.27732171257E+03  0.27751490600E+03  0.00000000000E+00 0. -1.
<mgrwt>
<rscale>  1 0.30000000E+03</rscale>
<asrwt>0</asrwt>
<pdfrwt beam="1">  1       21 0.54187227E-03 0.30000000E+03</pdfrwt>
<pdfrwt beam="2">0</pdfrwt>
<totfact> 0.10581718E+06</totfact>
</mgrwt>
</event>
<event>
 6    1  0.1132867E-002  0.3000000E+03  0.7818608E-02  0.1093470E+00
         21   -1    0    0  501  502  0.00000000000E+00  0.00000000000E+00  0.28653162678E+00  0.28653162678E+00  0.00000000000E+00 0. -1.
         13   -1    0    0    0    0 -0.00000000000E+00 -0.00000000000E+00 -0.10000000000E+04  0.10000000000E+04  0.00000000000E+00 0.  1.
    9000005    2    1    2  501    0  0.24196907283E+01 -0.11863955233E+02 -0.84518049896E+03  0.84527992863E+03  0.46339599829E+01 0.  0.
         13    1    3    3    0    0  0.37992086792E+01 -0.90576173219E+01 -0.65821061241E+03  0.65828389370E+03  0.00000000000E+00 0.  1.
          1    1    3    3  501    0 -0.13795179509E+01 -0.28063379111E+01 -0.18696988655E+03  0.18699603493E+03  0.00000000000E+00 0.  1.
         -1    1    1    2    0  502 -0.24196907283E+01  0.11863955233E+02 -0.15453296941E+03  0.15500660299E+03  0.00000000000E+00 0. -1.
<mgrwt>
<rscale>  1 0.30000000E+03</rscale>
<asrwt>0</asrwt>
<pdfrwt beam="1">  1       21 0.10419354E-02 0.30000000E+03</pdfrwt>
<pdfrwt beam="2">0</pdfrwt>
<totfact> 0.37855513E+05</totfact>
</mgrwt>
</event>
<event>
 6    1  0.1132867E-002  0.3000000E+03  0.7818608E-02  0.1093470E+00
         21   -1    0    0  501  502  0.00000000000E+00  0.00000000000E+00  0.47754615063E+00  0.47754615063E+00  0.00000000000E+00 0.  1.
         13   -1    0    0    0    0 -0.00000000000E+00 -0.00000000000E+00 -0.10000000000E+04  0.10000000000E+04  0.00000000000E+00 0.  1.
    9000005    2    1    2  501    0  0.90400185517E+01 -0.40642932850E+01 -0.77128964901E+03  0.77202962294E+03  0.32307516285E+02 0.  0.
         13    1    3    3    0    0  0.92706511300E+01  0.51556652657E+01 -0.70722116023E+03  0.70730071068E+03  0.00000000000E+00 0.  1.
          1    1    3    3  501    0 -0.23063257826E+00 -0.92199585507E+01 -0.64068488781E+02  0.64728912255E+02  0.00000000000E+00 0.  1.
         -3    1    1    2    0  502 -0.90400185517E+01  0.40642932850E+01 -0.22823280484E+03  0.22844792321E+03  0.00000000000E+00 0. -1.
<mgrwt>
<rscale>  1 0.30000000E+03</rscale>
<asrwt>0</asrwt>
<pdfrwt beam="1">  1       21 0.17365351E-02 0.30000000E+03</pdfrwt>
<pdfrwt beam="2">0</pdfrwt>
<totfact> 0.16677374E+05</totfact>
</mgrwt>
</event>
<event>
 6    1  0.1132867E-002  0.3000000E+03  0.7818608E-02  0.1093470E+00
         21   -1    0    0  501  502  0.00000000000E+00  0.00000000000E+00  0.27157968497E+00  0.27157968497E+00  0.00000000000E+00 0. -1.
         13   -1    0    0    0    0 -0.00000000000E+00 -0.00000000000E+00 -0.10000000000E+04  0.10000000000E+04  0.00000000000E+00 0.  1.
    9000005    2    1    2  501    0 -0.14405297214E+01  0.94867236398E+01 -0.87094402943E+03  0.87113021379E+03  0.15240535267E+02 0.  0.
         13    1    3    3    0    0 -0.78421871246E+01  0.27436010697E+01 -0.50362071887E+03  0.50368924519E+03  0.00000000000E+00 0.  1.
          1    1    3    3  501    0  0.64016574033E+01  0.67431225701E+01 -0.36732331056E+03  0.36744096859E+03  0.00000000000E+00 0.  1.
         -1    1    1    2    0  502  0.14405297214E+01 -0.94867236398E+01 -0.12878439088E+03  0.12914136590E+03  0.00000000000E+00 0. -1.
<mgrwt>
<rscale>  1 0.30000000E+03</rscale>
<asrwt>0</asrwt>
<pdfrwt beam="1">  1       21 0.98756457E-03 0.30000000E+03</pdfrwt>
<pdfrwt beam="2">0</pdfrwt>
<totfact> 0.41219984E+05</totfact>
</mgrwt>
</event>
<event>
 6    1  0.1132867E-002  0.3000000E+03  0.7818608E-02  0.1093470E+00
         21   -1    0    0  501  502  0.00000000000E+00  0.00000000000E+00  0.32765821530E+00  0.32765821530E+00  0.00000000000E+00 0. -1.
         13   -1    0    0    0    0 -0.00000000000E+00 -0.00000000000E+00 -0.10000000000E+04  0.10000000000E+04  0.00000000000E+00 0.  1.
    9000005    2    1    2  501    0 -0.46516995491E+01  0.14447902665E+02 -0.54795094287E+03  0.54835132870E+03  0.14441734672E+02 0.  0.
         13    1    3    3    0    0  0.30951281488E+00 -0.21551916035E+01 -0.20399110861E+02  0.20514979234E+02  0.00000000000E+00 0.  1.
          3    1    3    3  501    0 -0.49612123640E+01  0.16603094269E+02 -0.52755183201E+03  0.52783634947E+03  0.00000000000E+00 0.  1.
         -1    1    1    2    0  502  0.46516995491E+01 -0.14447902665E+02 -0.45172139892E+03  0.45197632951E+03  0.00000000000E+00 0. -1.
<mgrwt>
<rscale>  1 0.30000000E+03</rscale>
<asrwt>0</asrwt>
<pdfrwt beam="1">  1       21 0.11914869E-02 0.30000000E+03</pdfrwt>
<pdfrwt beam="2">0</pdfrwt>
<totfact> 0.30572406E+05</totfact>
</mgrwt>
</event>
<event>
 6    1  0.1132867E-002  0.3000000E+03  0.7818608E-02  0.1093470E+00
         21   -1    0    0  501  502  0.00000000000E+00  0.00000000000E+00  0.35865670763E+00  0.35865670763E+00  0.00000000000E+00 0. -1.
         13   -1    0    0    0    0 -0.00000000000E+00 -0.00000000000E+00 -0.10000000000E+04  0.10000000000E+04  0.00000000000E+00 0.  1.
    9000005    2    1    2  501    0  0.12784602883E+02 -0.48365126467E+01 -0.83426227965E+03  0.83441567669E+03  0.83145857420E+01 0.  0.
         13    1    3    3    0    0  0.97507680035E+01  0.50330272232E+00 -0.55496718846E+03  0.55505307049E+03  0.00000000000E+00 0.  1.
          3    1    3    3  501    0  0.30338348791E+01 -0.53398153690E+01 -0.27929509120E+03  0.27936260621E+03  0.00000000000E+00 0.  1.
         -3    1    1    2    0  502 -0.12784602883E+02  0.48365126467E+01 -0.16537906364E+03  0.16594298001E+03  0.00000000000E+00 0. -1.
<mgrwt>
<rscale>  1 0.30000000E+03</rscale>
<asrwt>0</asrwt>
<pdfrwt beam="1">  1       21 0.13042090E-02 0.30000000E+03</pdfrwt>
<pdfrwt beam="2">0</pdfrwt>
<totfact> 0.26455979E+05</totfact>
</mgrwt>
</event>
<event>
 6    1  0.1132867E-002  0.3000000E+03  0.7818608E-02  0.1093470E+00
         21   -1    0    0  501  502  0.00000000000E+00  0.00000000000E+00  0.21807728622E+01  0.21807728622E+01  0.00000000000E+00 0. -1.
         13   -1    0    0    0    0 -0.00000000000E+00 -0.00000000000E+00 -0.10000000000E+04  0.10000000000E+04  0.00000000000E+00 0.  1.
    9000005    2    1    2  501    0  0.10562683158E+02  0.12430614741E+02 -0.96744606133E+03  0.96770440909E+03  0.15292197804E+02 0.  0.
         13    1    3    3    0    0  0.11457771542E+01  0.58087986637E+01 -0.96050769121E+02  0.96233077452E+02  0.00000000000E+00 0.  1.
          1    1    3    3  501    0  0.94169060035E+01  0.66218160778E+01 -0.87139529221E+03  0.87147133163E+03  0.00000000000E+00 0.  1.
         -1    1    1    2    0  502 -0.10562683158E+02 -0.12430614741E+02 -0.30373165803E+02  0.34476363777E+02  0.00000000000E+00 0. -1.
<mgrwt>
<rscale>  1 0.30000000E+03</rscale>
<asrwt>0</asrwt>
<pdfrwt beam="1">  1       21 0.79300999E-02 0.30000000E+03</pdfrwt>
<pdfrwt beam="2">0</pdfrwt>
<totfact> 0.12972248E+04</totfact>
</mgrwt>
</event>
<event>
 6    1  0.1132867E-002  0.3000000E+03  0.7818608E-02  0.1093470E+00
         21   -1    0    0  501  502  0.00000000000E+00  0.00000000000E+00  0.17848897258E+00  0.17848897258E+00  0.00000000000E+00 0. -1.
         13   -1    0    0    0    0 -0.00000000000E+00 -0.00000000000E+00 -0.10000000000E+04  0.10000000000E+04  0.00000000000E+00 0.  1.
    9000005    2    1    2  501    0 -0.78914668072E+01 -0.91035323953E+01 -0.59276463350E+03  0.59294335899E+03  0.81710886812E+01 0.  0.
         13    1    3    3    0    0 -0.58721704806E+01 -0.10515391500E+02 -0.50915895650E+03  0.50930138311E+03  0.00000000000E+00 0.  1.
          3    1    3    3  501    0 -0.20192963266E+01  0.14118591047E+01 -0.83605676997E+02  0.83641975885E+02  0.00000000000E+00 0.  1.
         -1    1    1    2    0  502  0.78914668072E+01  0.91035323953E+01 -0.40705687753E+03  0.40723512998E+03  0.00000000000E+00 0. -1.
<mgrwt>
<rscale>  1 0.30000000E+03</rscale>
<asrwt>0</asrwt>
<pdfrwt beam="1">  1       21 0.64905218E-03 0.30000000E+03</pdfrwt>
<pdfrwt beam="2">0</pdfrwt>
<totfact> 0.79846186E+05</totfact>
</mgrwt>
</event>
<event>
 6    1  0.1132867E-002  0.3000000E+03  0.7818608E-02  0.1093470E+00
         21   -1    0    0  501  502  0.00000000000E+00  0.00000000000E+00  0.20466264762E+00  0.20466264762E+00  0.00000000000E+00 0. -1.
         13   -1    0    0    0    0 -0.00000000000E+00 -0.00000000000E+00 -0.10000000000E+04  0.10000000000E+04  0.00000000000E+00 0.  1.
    9000005    2    1    2  501    0 -0.97642158081E+01  0.48389609922E+01 -0.75588305934E+03  0.75604906714E+03  0.11499437729E+02 0.  0.
         13    1    3    3    0    0 -0.39335702285E+01 -0.37526430640E+01 -0.24075734005E+03  0.24081871209E+03  0.00000000000E+00 0.  1.
          1    1    3    3  501    0 -0.58306455796E+01  0.85916040561E+01 -0.51512571930E+03  0.51523035505E+03  0.00000000000E+00 0.  1.
         -3    1    1    2    0  502  0.97642158081E+01 -0.48389609922E+01 -0.24391227801E+03  0.24415559551E+03  0.00000000000E+00 0. -1.
<mgrwt>
<rscale>  1 0.30000000E+03</rscale>
<asrwt>0</asrwt>
<pdfrwt beam="1">  1       21 0.74422938E-03 0.30000000E+03</pdfrwt>
<pdfrwt beam="2">0</pdfrwt>
<totfact> 0.64430178E+05</totfact>
</mgrwt>
</event>
<event>
 6    1  0.1132867E-002  0.3000000E+03  0.7818608E-02  0.1093470E+00
         21   -1    0    0  501  502  0.00000000000E+00  0.00000000000E+00  0.27238307817E+00  0.27238307817E+00  0.00000000000E+00 0. -1.
         13   -1    0    0    0    0 -0.00000000000E+00 -0.00000000000E+00 -0.10000000000E+04  0.10000000000E+04  0.00000000000E+00 0.  1.
    9000005    2    1    2  501    0  0.13644702401E+02  0.56668647965E+01 -0.58390584878E+03  0.58418821597E+03  0.10561258195E+02 0.  0.
         13    1    3    3    0    0  0.22206721771E+01 -0.27484373762E+01 -0.17648502490E+03  0.17652039346E+03  0.00000000000E+00 0.  1.
          3    1    3    3  501    0  0.11424030224E+02  0.84153021728E+01 -0.40742082388E+03  0.40766782250E+03  0.00000000000E+00 0.  1.
         -3    1    1    2    0  502 -0.13644702401E+02 -0.56668647965E+01 -0.41582176814E+03  0.41608416711E+03  0.00000000000E+00 0. -1.
<mgrwt>
<rscale>  1 0.30000000E+03</rscale>
<asrwt>0</asrwt>
<pdfrwt beam="1">  1       21 0.99048601E-03 0.30000000E+03</pdfrwt>
<pdfrwt beam="2">0</pdfrwt>
<totfact> 0.41027234E+05</totfact>
</mgrwt>
</event>
<event>
 6    1  0.1132867E-002  0.3000000E+03  0.7818608E-02  0.1093470E+00
         21   -1    0    0  501  502  0.00000000000E+00  0.00000000000E+00  0.46742278158E+00  0.46742278158E+00  0.00000000000E+00 0. -1.
         13   -1    0    0    0    0 -0.00000000000E+00 -0.00000000000E+00 -0.10000000000E+04  0.10000000000E+04  0.00000000000E+00 0.  1.
    9000005    2    1    2  501    0 -0.45099659315E+01  0.13913907416E+02 -0.86177330940E+03  0.86193384388E+03  0.79232459437E+01 0.  0.
         13    1    3    3    0    0 -0.52386372603E+01  0.13317267495E+02 -0.64604152304E+03  0.64620000188E+03  0.00000000000E+00 0.  1.
          1    1    3    3  501    0  0.72867132880E+00  0.59663992114E+00 -0.21573178636E+03  0.21573384200E+03  0.00000000000E+00 0.  1.
         -1    1    1    2    0  502  0.45099659315E+01 -0.13913907416E+02 -0.13775926782E+03  0.13853357890E+03  0.00000000000E+00 0. -1.
<mgrwt>
<rscale>  1 0.30000000E+03</rscale>
<asrwt>0</asrwt>
<pdfrwt beam="1">  1       21 0.16997228E-02 0.30000000E+03</pdfrwt>
<pdfrwt beam="2">0</pdfrwt>
<totfact> 0.17266833E+05</totfact>
</mgrwt>
</event>
<event>
 6    1  0.1132867E-002  0.3000000E+03  0.7818608E-02  0.1093470E+00
         21   -1    0    0  501  502  0.00000000000E+00  0.00000000000E+00  0.12683357901E+00  0.12683357901E+00  0.00000000000E+00 0. -1.
         13   -1    0    0    0    0 -0.00000000000E+00 -0.00000000000E+00 -0.10000000000E+04  0.10000000000E+04  0.00000000000E+00 0.  1.
    9000005    2    1    2  501    0 -0.85742638254E+01  0.26323187646E+01 -0.71186497999E+03  0.71197901986E+03  0.90514019007E+01 0.  0.
         13    1    3    3    0    0 -0.53824067105E+01  0.40452133210E+01 -0.22310336392E+03  0.22320493956E+03  0.00000000000E+00 0.  1.
          3    1    3    3  501    0 -0.31918571149E+01 -0.14128945564E+01 -0.48876161607E+03  0.48877408030E+03  0.00000000000E+00 0.  1.
         -3    1    1    2    0  502  0.85742638254E+01 -0.26323187646E+01 -0.28800818643E+03  0.28814781372E+03  0.00000000000E+00 0. -1.
<mgrwt>
<rscale>  1 0.30000000E+03</rscale>
<asrwt>0</asrwt>
<pdfrwt beam="1">  1       21 0.46121399E-03 0.30000000E+03</pdfrwt>
<pdfrwt beam="2">0</pdfrwt>
<totfact> 0.13590280E+06</totfact>
</mgrwt>
</event>
<event>
 6    1  0.1132867E-002  0.3000000E+03  0.7818608E-02  0.1093470E+00
         21   -1    0    0  501  502  0.00000000000E+00  0.00000000000E+00  0.52939519831E+00  0.52939519831E+00  0.00000000000E+00 0. -1.
         13   -1    0    0    0    0 -0.00000000000E+00 -0.00000000000E+00 -0.10000000000E+04  0.10000000000E+04  0.00000000000E+00 0.  1.
    9000005    2    1    2  501    0 -0.12000649472E+02 -0.61840306803E+01 -0.89649375403E+03  0.89667136895E+03  0.11671976718E+02 0.  0.
         13    1    3    3    0    0 -0.17890579621E+01 -0.62761392060E+01 -0.51359179284E+03  0.51363325469E+03  0.00000000000E+00 0.  1.
          1    1    3    3  501    0 -0.10211591510E+02  0.92108525676E-01 -0.38290196120E+03  0.38303811426E+03  0.00000000000E+00 0.  1.
         -3    1    1    2    0  502  0.12000649472E+02  0.61840306803E+01 -0.10297685077E+03  0.10385802625E+03  0.00000000000E+00 0. -1.
<mgrwt>
<rscale>  1 0.30000000E+03</rscale>
<asrwt>0</asrwt>
<pdfrwt beam="1">  1       21 0.19250775E-02 0.30000000E+03</pdfrwt>
<pdfrwt beam="2">0</pdfrwt>
<totfact> 0.14106655E+05</totfact>
</mgrwt>
</event>
<event>
 6    1  0.1132867E-002  0.3000000E+03  0.7818608E-02  0.1093470E+00
         21   -1    0    0  501  502  0.00000000000E+00  0.00000000000E+00  0.42282876595E+00  0.42282876595E+00  0.00000000000E+00 0. -1.
         13   -1    0    0    0    0 -0.00000000000E+00 -0.00000000000E+00 -0.10000000000E+04  0.10000000000E+04  0.00000000000E+00 0.  1.
    9000005    2    1    2  501    0 -0.18444650934E+02  0.13276237505E+01 -0.42351558788E+03  0.42406450658E+03  0.11103370365E+02 0.  0.
         13    1    3    3    0    0 -0.40421161197E+01 -0.29167196877E+01 -0.50144977449E+02  0.50392109698E+02  0.00000000000E+00 0.  1.
          3    1    3    3  501    0 -0.14402534814E+02  0.42443434382E+01 -0.37337061043E+03  0.37367239688E+03  0.00000000000E+00 0.  1.
         -3    1    1    2    0  502  0.18444650934E+02 -0.13276237505E+01 -0.57606158336E+03  0.57635832219E+03  0.00000000000E+00 0. -1.
<mgrwt>
<rscale>  1 0.30000000E+03</rscale>
<asrwt>0</asrwt>
<pdfrwt beam="1">  1       21 0.15375624E-02 0.30000000E+03</pdfrwt>
<pdfrwt beam="2">0</pdfrwt>
<totfact> 0.20304712E+05</totfact>
</mgrwt>
</event>
<event>
 6    1  0.1132867E-002  0.3000000E+03  0.7818608E-02  0.1093470E+00
         21   -1    0    0  501  502  0.00000000000E+00  0.00000000000E+00  0.14870316252E+00  0.14870316252E+00  0.00000000000E+00 0. -1.
         13   -1    0    0    0    0 -0.00000000000E+00 -0.00000000000E+00 -0.10000000000E+04  0.10000000000E+04  0.00000000000E+00 0.  1.
    9000005    2    1    2  501    0  0.82289943543E+01 -0.69340925334E+01 -0.66964853980E+03  0.66977064889E+03  0.69106639177E+01 0.  0.
         13    1    3    3    0    0  0.18866743892E+01 -0.57549521979E+01 -0.39456839070E+03  0.39461486788E+03  0.00000000000E+00 0.  1.
          1    1    3    3  501    0  0.63423199651E+01 -0.11791403355E+01 -0.27508014910E+03  0.27515578101E+03  0.00000000000E+00 0.  1.
         -3    1    1    2    0  502 -0.82289943543E+01  0.69340925334E+01 -0.33020275704E+03  0.33037805427E+03  0.00000000000E+00 0. -1.
<mgrwt>
<rscale>  1 0.30000000E+03</rscale>
<asrwt>0</asrwt>
<pdfrwt beam="1">  1       21 0.54073991E-03 0.30000000E+03</pdfrwt>
<pdfrwt beam="2">0</pdfrwt>
<totfact> 0.10616207E+06</totfact>
</mgrwt>
</event>
<event>
 6    1  0.1132867E-002  0.3000000E+03  0.7818608E-02  0.1093470E+00
         21   -1    0    0  501  502  0.00000000000E+00  0.00000000000E+00  0.14171426436E+00  0.14171426436E+00  0.00000000000E+00 0. -1.
         13   -1    0    0    0    0 -0.00000000000E+00 -0.00000000000E+00 -0.10000000000E+04  0.10000000000E+04  0.00000000000E+00 0.  1.
    9000005    2    1    2  501    0  0.39861311514E+01  0.10695252976E+02 -0.54832547579E+03  0.54846466577E+03  0.47312283614E+01 0.  0.
         13    1    3    3    0    0  0.23723535822E+00  0.67185318063E+01 -0.25688905285E+03  0.25697700369E+03  0.00000000000E+00 0.  1.
          3    1    3    3  501    0  0.37488957932E+01  0.39767211694E+01 -0.29143642294E+03  0.29148766208E+03  0.00000000000E+00 0.  1.
         -1    1    1    2    0  502 -0.39861311514E+01 -0.10695252976E+02 -0.45153280994E+03  0.45167704849E+03  0.00000000000E+00 0. -1.
<mgrwt>
<rscale>  1 0.30000000E+03</rscale>
<asrwt>0</asrwt>
<pdfrwt beam="1">  1       21 0.51532568E-03 0.30000000E+03</pdfrwt>
<pdfrwt beam="2">0</pdfrwt>
<totfact> 0.11441184E+06</totfact>
</mgrwt>
</event>
<event>
 6    1  0.1132867E-002  0.3000000E+03  0.7818608E-02  0.1093470E+00
         21   -1    0    0  501  502  0.00000000000E+00  0.00000000000E+00  0.22387649521E+00  0.22387649521E+00  0.00000000000E+00 0. -1.
         13   -1    0    0    0    0 -0.00000000000E+00 -0.00000000000E+00 -0.10000000000E+04  0.10000000000E+04  0.00000000000E+00 0.  1.
    9000005    2    1    2  501    0  0.37408687332E+01 -0.87593647724E+01 -0.82619514450E+03  0.82638177330E+03  0.14754588494E+02 0.  0.
         13    1    3    3    0    0  0.93534662186E+01 -0.43257932616E+01 -0.44263973855E+03  0.44275968421E+03  0.00000000000E+00 0.  1.
          1    1    3    3  501    0 -0.56125974855E+01 -0.44335715108E+01 -0.38355540595E+03  0.38362208910E+03  0.00000000000E+00 0.  1.
         -3    1    1    2    0  502 -0.37408687332E+01  0.87593647724E+01 -0.17358097900E+03  0.17384210319E+03  0.00000000000E+00 0. -1.
<mgrwt>
<rscale>  1 0.30000000E+03</rscale>
<asrwt>0</asrwt>
<pdfrwt beam="1">  1       21 0.81409806E-03 0.30000000E+03</pdfrwt>
<pdfrwt beam="2">0</pdfrwt>
<totfact> 0.55942937E+05</totfact>
</mgrwt>
</event>
<event>
 6    1  0.1132867E-002  0.3000000E+03  0.7818608E-02  0.1093470E+00
         21   -1    0    0  501  502  0.00000000000E+00  0.00000000000E+00  0.37819350532E+00  0.37819350532E+00  0.00000000000E+00 0. -1.
         13   -1    0    0    0    0 -0.00000000000E+00 -0.00000000000E+00 -0.10000000000E+04  0.10000000000E+04  0.00000000000E+00 0.  1.
    9000005    2    1    2  501    0  0.11058528471E+02  0.10739387590E+02 -0.79487826748E+03  0.79505517417E+03  0.66063890467E+01 0.  0.
         13    1    3    3    0    0  0.11427934287E+02  0.95468512544E+01 -0.77142065145E+03  0.77156435994E+03  0.00000000000E+00 0.  1.
          1    1    3    3  501    0 -0.36940581633E+00  0.11925363358E+01 -0.23457616030E+02  0.23490814234E+02  0.00000000000E+00 0.  1.
         -3    1    1    2    0  502 -0.11058528471E+02 -0.10739387590E+02 -0.20474353902E+03  0.20532301933E+03  0.00000000000E+00 0. -1.
<mgrwt>
<rscale>  1 0.30000000E+03</rscale>
<asrwt>0</asrwt>
<pdfrwt beam="1">  1       21 0.13752520E-02 0.30000000E+03</pdfrwt>
<pdfrwt beam="2">0</pdfrwt>
<totfact> 0.24296877E+05</totfact>
</mgrwt>
</event>
<event>
 6    1  0.1132867E-002  0.3000000E+03  0.7818608E-02  0.1093470E+00
         21   -1    0    0  501  502  0.00000000000E+00  0.00000000000E+00  0.56366909967E+00  0.56366909967E+00  0.00000000000E+00 0. -1.
         13   -1    0    0    0    0 -0.00000000000E+00 -0.00000000000E+00 -0.10000000000E+04  0.10000000000E+04  0.00000000000E+00 0.  1.
    9000005    2    1    2  501    0  0.22402159528E+01  0.11076154936E+02 -0.93186361051E+03  0.93205255820E+03  0.14982752747E+02 0.  0.
         13    1    3    3    0    0  0.45707198699E+01  0.23249741240E+01 -0.93837024420E+02  0.93977040477E+02  0.00000000000E+00 0.  1.
          1    1    3    3  501    0 -0.23305039171E+01  0.87511808118E+01 -0.83802658609E+03  0.83807551772E+03  0.00000000000E+00 0.  1.
         -1    1    1    2    0  502 -0.22402159528E+01 -0.11076154936E+02 -0.67572720392E+02  0.68511110901E+02  0.00000000000E+00 0. -1.
<mgrwt>
<rscale>  1 0.30000000E+03</rscale>
<asrwt>0</asrwt>
<pdfrwt beam="1">  1       21 0.20497101E-02 0.30000000E+03</pdfrwt>
<pdfrwt beam="2">0</pdfrwt>
<totfact> 0.12735867E+05</totfact>
</mgrwt>
</event>
<event>
 6    1  0.1132867E-002  0.3000000E+03  0.7818608E-02  0.1093470E+00
         21   -1    0    0  501  502  0.00000000000E+00  0.00000000000E+00  0.16100188310E+00  0.16100188310E+00  0.00000000000E+00 0. -1.
         13   -1    0    0    0    0 -0.00000000000E+00 -0.00000000000E+00 -0.10000000000E+04  0.10000000000E+04  0.00000000000E+00 0.  1.
    9000005    2    1    2  501    0 -0.56425143235E+01 -0.94137218089E+01 -0.68807344469E+03  0.68820232445E+03  0.75443989748E+01 0.  0.
         13    1    3    3    0    0 -0.29192449974E+01 -0.66414236049E+01 -0.23440777956E+03  0.23452001539E+03  0.00000000000E+00 0.  1.
          3    1    3    3  501    0 -0.27232693261E+01 -0.27722982039E+01 -0.45366566513E+03  0.45368230906E+03  0.00000000000E+00 0.  1.
         -3    1    1    2    0  502  0.56425143235E+01  0.94137218089E+01 -0.31176555342E+03  0.31195867744E+03  0.00000000000E+00 0. -1.
<mgrwt>
<rscale>  1 0.30000000E+03</rscale>
<asrwt>0</asrwt>
<pdfrwt beam="1">  1       21 0.58546263E-03 0.30000000E+03</pdfrwt>
<pdfrwt beam="2">0</pdfrwt>
<totfact> 0.93805109E+05</totfact>
</mgrwt>
</event>
<event>
 6    1  0.1132867E-002  0.3000000E+03  0.7818608E-02  0.1093470E+00
         21   -1    0    0  501  502  0.00000000000E+00  0.00000000000E+00  0.60985423683E+00  0.60985423683E+00  0.00000000000E+00 0. -1.
         13   -1    0    0    0    0 -0.00000000000E+00 -0.00000000000E+00 -0.10000000000E+04  0.10000000000E+04  0.00000000000E+00 0.  1.
    9000005    2    1    2  501    0 -0.13218208829E+00  0.17846194380E+02 -0.84312571381E+03  0.84332960494E+03  0.50347940123E+01 0.  0.
         13    1    3    3    0    0  0.12235648565E+00  0.57732859964E+01 -0.17625861148E+03  0.17635317951E+03  0.00000000000E+00 0.  1.
          3    1    3    3  501    0 -0.25453857394E+00  0.12072908384E+02 -0.66686710233E+03  0.66697642543E+03  0.00000000000E+00 0.  1.
         -3    1    1    2    0  502  0.13218208829E+00 -0.17846194380E+02 -0.15626443195E+03  0.15728024930E+03  0.00000000000E+00 0. -1.
<mgrwt>
<rscale>  1 0.30000000E+03</rscale>
<asrwt>0</asrwt>
<pdfrwt beam="1">  1       21 0.22176564E-02 0.30000000E+03</pdfrwt>
<pdfrwt beam="2">0</pdfrwt>
<totfact> 0.11196571E+05</totfact>
</mgrwt>
</event>
<event>
 6    1  0.1132867E-002  0.3000000E+03  0.7818608E-02  0.1093470E+00
         21   -1    0    0  501  502  0.00000000000E+00  0.00000000000E+00  0.25767434261E+00  0.25767434261E+00  0.00000000000E+00 0. -1.
         13   -1    0    0    0    0 -0.00000000000E+00 -0.00000000000E+00 -0.10000000000E+04  0.10000000000E+04  0.00000000000E+00 0.  1.
    9000005    2    1    2  501    0 -0.12244624565E+02  0.57987472928E+01 -0.50299247017E+03  0.50332309592E+03  0.12213007096E+02 0.  0.
         13    1    3    3    0    0 -0.64347584311E+01 -0.25085160883E+01 -0.12163663884E+03  0.12183255179E+03  0.00000000000E+00 0.  1.
          3    1    3    3  501    0 -0.58098661343E+01  0.83072633811E+01 -0.38135583133E+03  0.38149054413E+03  0.00000000000E+00 0.  1.
         -3    1    1    2    0  502  0.12244624565E+02 -0.57987472928E+01 -0.49674985549E+03  0.49693457842E+03  0.00000000000E+00 0. -1.
<mgrwt>
<rscale>  1 0.30000000E+03</rscale>
<asrwt>0</asrwt>
<pdfrwt beam="1">  1       21 0.93699959E-03 0.30000000E+03</pdfrwt>
<pdfrwt beam="2">0</pdfrwt>
<totfact> 0.44800550E+05</totfact>
</mgrwt>
</event>
<event>
 6    1  0.1132867E-002  0.3000000E+03  0.7818608E-02  0.1093470E+00
         21   -1    0    0  501  502  0.00000000000E+00  0.00000000000E+00  0.11301119103E+00  0.11301119103E+00  0.00000000000E+00 0. -1.
         13   -1    0    0    0    0 -0.00000000000E+00 -0.00000000000E+00 -0.10000000000E+04  0.10000000000E+04  0.00000000000E+00 0.  1.
    9000005    2    1    2  501    0  0.70403800300E+01  0.54773755053E+01 -0.67543518008E+03  0.67553860557E+03  0.77560646816E+01 0.  0.
         13    1    3    3    0    0  0.48574782385E+01  0.69105927914E+01 -0.38992156695E+03  0.39001305076E+03  0.00000000000E+00 0.  1.
          3    1    3    3  501    0  0.21829017915E+01 -0.14332172861E+01 -0.28551361312E+03  0.28552555481E+03  0.00000000000E+00 0.  1.
         -3    1    1    2    0  502 -0.70403800300E+01 -0.54773755053E+01 -0.32445180873E+03  0.32457440562E+03  0.00000000000E+00 0. -1.
<mgrwt>
<rscale>  1 0.30000000E+03</rscale>
<asrwt>0</asrwt>
<pdfrwt beam="1">  1       21 0.41095065E-03 0.30000000E+03</pdfrwt>
<pdfrwt beam="2">0</pdfrwt>
<totfact> 0.16243963E+06</totfact>
</mgrwt>
</event>
<event>
 6    1  0.1132867E-002  0.3000000E+03  0.7818608E-02  0.1093470E+00
         21   -1    0    0  501  502  0.00000000000E+00  0.00000000000E+00  0.10078345964E+01  0.10078345964E+01  0.00000000000E+00 0. -1.
         13   -1    0    0    0    0 -0.00000000000E+00 -0.00000000000E+00 -0.10000000000E+04  0.10000000000E+04  0.00000000000E+00 0.  1.
    9000005    2    1    2  501    0 -0.19668448738E+02 -0.44464825355E+00 -0.88596990793E+03  0.88628610051E+03  0.13165432324E+02 0.  0.
         13    1    3    3    0    0 -0.91336810871E+01  0.38200133307E+01 -0.61266379867E+03  0.61274378564E+03  0.00000000000E+00 0.  1.
          3    1    3    3  501    0 -0.10534767651E+02 -0.42646615842E+01 -0.27330610926E+03  0.27354231487E+03  0.00000000000E+00 0.  1.
         -3    1    1    2    0  502  0.19668448738E+02  0.44464825355E+00 -0.11302225747E+03  0.11472173409E+03  0.00000000000E+00 0. -1.
<mgrwt>
<rscale>  1 0.30000000E+03</rscale>
<asrwt>0</asrwt>
<pdfrwt beam="1">  1       21 0.36648608E-02 0.30000000E+03</pdfrwt>
<pdfrwt beam="2">0</pdfrwt>
<totfact> 0.48709256E+04</totfact>
</mgrwt>
</event>
<event>
 6    1  0.1132867E-002  0.3000000E+03  0.7818608E-02  0.1093470E+00
         21   -1    0    0  501  502  0.00000000000E+00  0.00000000000E+00  0.50060523574E+00  0.50060523574E+00  0.00000000000E+00 0.  1.
         13   -1    0    0    0    0 -0.00000000000E+00 -0.00000000000E+00 -0.10000000000E+04  0.10000000000E+04  0.00000000000E+00 0.  1.
    9000005    2    1    2  501    0  0.16054836271E+02  0.46456302982E+01 -0.63698314804E+03  0.63759928423E+03  0.22493926187E+02 0.  0.
         13    1    3    3    0    0  0.17759662919E+02  0.86008456885E+01 -0.60566538844E+03  0.60598675145E+03  0.00000000000E+00 0.  1.
          1    1    3    3  501    0 -0.17048266483E+01 -0.39552153902E+01 -0.31317759601E+02  0.31612532786E+02  0.00000000000E+00 0.  1.
         -1    1    1    2    0  502 -0.16054836271E+02 -0.46456302982E+01 -0.36251624672E+03  0.36290132101E+03  0.00000000000E+00 0. -1.
<mgrwt>
<rscale>  1 0.30000000E+03</rscale>
<asrwt>0</asrwt>
<pdfrwt beam="1">  1       21 0.18203865E-02 0.30000000E+03</pdfrwt>
<pdfrwt beam="2">0</pdfrwt>
<totfact> 0.15448864E+05</totfact>
</mgrwt>
</event>
<event>
 6    1  0.1132867E-002  0.3000000E+03  0.7818608E-02  0.1093470E+00
         21   -1    0    0  501  502  0.00000000000E+00  0.00000000000E+00  0.88177850256E+00  0.88177850256E+00  0.00000000000E+00 0. -1.
         13   -1    0    0    0    0 -0.00000000000E+00 -0.00000000000E+00 -0.10000000000E+04  0.10000000000E+04  0.00000000000E+00 0.  1.
    9000005    2    1    2  501    0  0.24626966964E+02 -0.10097365579E+02 -0.69211943081E+03  0.69273132535E+03  0.11787210245E+02 0.  0.
         13    1    3    3    0    0  0.12510778590E+02 -0.53400573745E+01 -0.21228528288E+03  0.21272065513E+03  0.00000000000E+00 0.  1.
          3    1    3    3  501    0  0.12116188374E+02 -0.47573082043E+01 -0.47983414793E+03  0.48001067022E+03  0.00000000000E+00 0.  1.
         -3    1    1    2    0  502 -0.24626966964E+02  0.10097365579E+02 -0.30699879069E+03  0.30815045315E+03  0.00000000000E+00 0. -1.
<mgrwt>
<rscale>  1 0.30000000E+03</rscale>
<asrwt>0</asrwt>
<pdfrwt beam="1">  1       21 0.32064740E-02 0.30000000E+03</pdfrwt>
<pdfrwt beam="2">0</pdfrwt>
<totfact> 0.60903018E+04</totfact>
</mgrwt>
</event>
<event>
 6    1  0.1651470E-002  0.3000000E+03  0.7818608E-02  0.1093470E+00
         21   -1    0    0  501  502  0.00000000000E+00  0.00000000000E+00  0.19188649054E+01  0.19188649054E+01  0.00000000000E+00 0. -1.
         13   -1    0    0    0    0 -0.00000000000E+00 -0.00000000000E+00 -0.10000000000E+04  0.10000000000E+04  0.00000000000E+00 0.  1.
    9000005    2    1    2  501    0  0.11121255153E+00  0.11702592065E+02 -0.96518438826E+03  0.96700240773E+03  0.58101550659E+02 0.  0.
         13    1    3    3    0    0  0.13625065343E+02  0.27346994707E+02 -0.79190621491E+03  0.79249539667E+03  0.00000000000E+00 0.  1.
          1    1    3    3  501    0 -0.13513852791E+02 -0.15644402642E+02 -0.17327817334E+03  0.17450701106E+03  0.00000000000E+00 0.  1.
         -3    1    1    2    0  502 -0.11121255153E+00 -0.11702592065E+02 -0.32896746839E+02  0.34916457179E+02  0.00000000000E+00 0. -1.
<mgrwt>
<rscale>  1 0.30000000E+03</rscale>
<asrwt>0</asrwt>
<pdfrwt beam="1">  1       21 0.69777053E-02 0.30000000E+03</pdfrwt>
<pdfrwt beam="2">0</pdfrwt>
<totfact> 0.16225103E+04</totfact>
</mgrwt>
</event>
<event>
 6    1  0.1132867E-002  0.3000000E+03  0.7818608E-02  0.1093470E+00
         21   -1    0    0  501  502  0.00000000000E+00  0.00000000000E+00  0.15974628144E+00  0.15974628144E+00  0.00000000000E+00 0. -1.
         13   -1    0    0    0    0 -0.00000000000E+00 -0.00000000000E+00 -0.10000000000E+04  0.10000000000E+04  0.00000000000E+00 0.  1.
    9000005    2    1    2  501    0 -0.26964807638E+01  0.96496166256E+01 -0.62042071383E+03  0.62060794039E+03  0.11487706943E+02 0.  0.
         13    1    3    3    0    0 -0.58734461777E+00 -0.15599263597E+01 -0.17467519650E+02  0.17546868287E+02  0.00000000000E+00 0.  1.
          1    1    3    3  501    0 -0.21091361460E+01  0.11209542985E+02 -0.60295319418E+03  0.60306107210E+03  0.00000000000E+00 0.  1.
         -3    1    1    2    0  502  0.26964807638E+01 -0.96496166256E+01 -0.37941953989E+03  0.37955180590E+03  0.00000000000E+00 0. -1.
<mgrwt>
<rscale>  1 0.30000000E+03</rscale>
<asrwt>0</asrwt>
<pdfrwt beam="1">  1       21 0.58089679E-03 0.30000000E+03</pdfrwt>
<pdfrwt beam="2">0</pdfrwt>
<totfact> 0.94957173E+05</totfact>
</mgrwt>
</event>
<event>
 6    1  0.1132867E-002  0.3000000E+03  0.7818608E-02  0.1093470E+00
         21   -1    0    0  501  502  0.00000000000E+00  0.00000000000E+00  0.26884011021E+00  0.26884011021E+00  0.00000000000E+00 0. -1.
         13   -1    0    0    0    0 -0.00000000000E+00 -0.00000000000E+00 -0.10000000000E+04  0.10000000000E+04  0.00000000000E+00 0.  1.
    9000005    2    1    2  501    0  0.12118063904E+02  0.69524664277E+01 -0.60483618696E+03  0.60512681007E+03  0.12508354895E+02 0.  0.
         13    1    3    3    0    0  0.19969805126E+01  0.25208935096E+01 -0.27885478115E+02  0.28070317507E+02  0.00000000000E+00 0.  1.
          1    1    3    3  501    0  0.10121083391E+02  0.44315729182E+01 -0.57695070885E+03  0.57705649256E+03  0.00000000000E+00 0.  1.
         -3    1    1    2    0  502 -0.12118063904E+02 -0.69524664277E+01 -0.39489497293E+03  0.39514203004E+03  0.00000000000E+00 0. -1.
<mgrwt>
<rscale>  1 0.30000000E+03</rscale>
<asrwt>0</asrwt>
<pdfrwt beam="1">  1       21 0.97760246E-03 0.30000000E+03</pdfrwt>
<pdfrwt beam="2">0</pdfrwt>
<totfact> 0.41888285E+05</totfact>
</mgrwt>
</event>
<event>
 6    1  0.1132867E-002  0.3000000E+03  0.7818608E-02  0.1093470E+00
         21   -1    0    0  501  502  0.00000000000E+00  0.00000000000E+00  0.14356766803E+00  0.14356766803E+00  0.00000000000E+00 0. -1.
         13   -1    0    0    0    0 -0.00000000000E+00 -0.00000000000E+00 -0.10000000000E+04  0.10000000000E+04  0.00000000000E+00 0.  1.
    9000005    2    1    2  501    0 -0.71030422467E+01  0.73814035971E+01 -0.61668884495E+03  0.61683906946E+03  0.89648087182E+01 0.  0.
         13    1    3    3    0    0 -0.74355642211E+00  0.42985560823E+01 -0.92722037535E+02  0.92824601831E+02  0.00000000000E+00 0.  1.
          1    1    3    3  501    0 -0.63594858246E+01  0.30828475148E+01 -0.52396680742E+03  0.52401446763E+03  0.00000000000E+00 0.  1.
         -3    1    1    2    0  502  0.71030422467E+01 -0.73814035971E+01 -0.38316758738E+03  0.38330449821E+03  0.00000000000E+00 0. -1.
<mgrwt>
<rscale>  1 0.30000000E+03</rscale>
<asrwt>0</asrwt>
<pdfrwt beam="1">  1       21 0.52206535E-03 0.30000000E+03</pdfrwt>
<pdfrwt beam="2">0</pdfrwt>
<totfact> 0.11212476E+06</totfact>
</mgrwt>
</event>
<event>
 6    1  0.1132867E-002  0.3000000E+03  0.7818608E-02  0.1093470E+00
         21   -1    0    0  501  502  0.00000000000E+00  0.00000000000E+00  0.22378039484E+00  0.22378039484E+00  0.00000000000E+00 0. -1.
         13   -1    0    0    0    0 -0.00000000000E+00 -0.00000000000E+00 -0.10000000000E+04  0.10000000000E+04  0.00000000000E+00 0.  1.
    9000005    2    1    2  501    0 -0.93895836594E+01 -0.92152835022E+01 -0.65747281845E+03  0.65766764752E+03  0.91182156016E+01 0.  0.
         13    1    3    3    0    0  0.10782428598E+01  0.57528140671E+00 -0.22565378193E+02  0.22598447941E+02  0.00000000000E+00 0.  1.
          3    1    3    3  501    0 -0.10467826519E+02 -0.97905649089E+01 -0.63490744026E+03  0.63506919957E+03  0.00000000000E+00 0.  1.
         -1    1    1    2    0  502  0.93895836594E+01  0.92152835022E+01 -0.34230340115E+03  0.34255613288E+03  0.00000000000E+00 0. -1.
<mgrwt>
<rscale>  1 0.30000000E+03</rscale>
<asrwt>0</asrwt>
<pdfrwt beam="1">  1       21 0.81374861E-03 0.30000000E+03</pdfrwt>
<pdfrwt beam="2">0</pdfrwt>
<totfact> 0.55980828E+05</totfact>
</mgrwt>
</event>
<event>
 6    1  0.1132867E-002  0.3000000E+03  0.7818608E-02  0.1093470E+00
         21   -1    0    0  501  502  0.00000000000E+00  0.00000000000E+00  0.42551103979E+00  0.42551103979E+00  0.00000000000E+00 0. -1.
         13   -1    0    0    0    0 -0.00000000000E+00 -0.00000000000E+00 -0.10000000000E+04  0.10000000000E+04  0.00000000000E+00 0.  1.
    9000005    2    1    2  501    0 -0.10072597994E+02 -0.76225985576E+01 -0.88080175259E+03  0.88098295521E+03  0.12636406122E+02 0.  0.
         13    1    3    3    0    0 -0.98664152769E+01 -0.81902139492E+01 -0.87876521532E+03  0.87885876534E+03  0.00000000000E+00 0.  1.
          1    1    3    3  501    0 -0.20618271693E+00  0.56761539152E+00 -0.20365372691E+01  0.21241898677E+01  0.00000000000E+00 0.  1.
         -1    1    1    2    0  502  0.10072597994E+02  0.76225985576E+01 -0.11877273637E+03  0.11944255583E+03  0.00000000000E+00 0. -1.
<mgrwt>
<rscale>  1 0.30000000E+03</rscale>
<asrwt>0</asrwt>
<pdfrwt beam="1">  1       21 0.15473161E-02 0.30000000E+03</pdfrwt>
<pdfrwt beam="2">0</pdfrwt>
<totfact> 0.20098721E+05</totfact>
</mgrwt>
</event>
<event>
 6    1  0.1132867E-002  0.3000000E+03  0.7818608E-02  0.1093470E+00
         21   -1    0    0  501  502  0.00000000000E+00  0.00000000000E+00  0.15837955778E+00  0.15837955778E+00  0.00000000000E+00 0. -1.
         13   -1    0    0    0    0 -0.00000000000E+00 -0.00000000000E+00 -0.10000000000E+04  0.10000000000E+04  0.00000000000E+00 0.  1.
    9000005    2    1    2  501    0 -0.41341073632E+01 -0.78303259712E+01 -0.80020413696E+03  0.80032462450E+03  0.10697613200E+02 0.  0.
         13    1    3    3    0    0  0.26635595485E+01 -0.57846385112E+00 -0.35075979174E+03  0.35077038169E+03  0.00000000000E+00 0.  1.
          1    1    3    3  501    0 -0.67976669117E+01 -0.72518621201E+01 -0.44944434522E+03  0.44955424281E+03  0.00000000000E+00 0.  1.
         -1    1    1    2    0  502  0.41341073632E+01  0.78303259712E+01 -0.19963748348E+03  0.19983375506E+03  0.00000000000E+00 0. -1.
<mgrwt>
<rscale>  1 0.30000000E+03</rscale>
<asrwt>0</asrwt>
<pdfrwt beam="1">  1       21 0.57592688E-03 0.30000000E+03</pdfrwt>
<pdfrwt beam="2">0</pdfrwt>
<totfact> 0.96237443E+05</totfact>
</mgrwt>
</event>
<event>
 6    1  0.1132867E-002  0.3000000E+03  0.7818608E-02  0.1093470E+00
         21   -1    0    0  501  502  0.00000000000E+00  0.00000000000E+00  0.22341905489E+00  0.22341905489E+00  0.00000000000E+00 0. -1.
         13   -1    0    0    0    0 -0.00000000000E+00 -0.00000000000E+00 -0.10000000000E+04  0.10000000000E+04  0.00000000000E+00 0.  1.
    9000005    2    1    2  501    0 -0.67247424674E+01  0.94337084734E+01 -0.73749459838E+03  0.73768569720E+03  0.12152703469E+02 0.  0.
         13    1    3    3    0    0 -0.10133581079E+02  0.53126094636E+01 -0.50350850484E+03  0.50363848913E+03  0.00000000000E+00 0.  1.
          3    1    3    3  501    0  0.34088386113E+01  0.41210990098E+01 -0.23398609354E+03  0.23404720807E+03  0.00000000000E+00 0.  1.
         -1    1    1    2    0  502  0.67247424674E+01 -0.94337084734E+01 -0.26228198257E+03  0.26253772185E+03  0.00000000000E+00 0. -1.
<mgrwt>
<rscale>  1 0.30000000E+03</rscale>
<asrwt>0</asrwt>
<pdfrwt beam="1">  1       21 0.81243464E-03 0.30000000E+03</pdfrwt>
<pdfrwt beam="2">0</pdfrwt>
<totfact> 0.56123676E+05</totfact>
</mgrwt>
</event>
<event>
 6    1  0.1132867E-002  0.3000000E+03  0.7818608E-02  0.1093470E+00
         21   -1    0    0  501  502  0.00000000000E+00  0.00000000000E+00  0.46448034550E+00  0.46448034550E+00  0.00000000000E+00 0. -1.
         13   -1    0    0    0    0 -0.00000000000E+00 -0.00000000000E+00 -0.10000000000E+04  0.10000000000E+04  0.00000000000E+00 0.  1.
    9000005    2    1    2  501    0 -0.12888568344E+02 -0.15401449833E+02 -0.62824014181E+03  0.62862637383E+03  0.90621320838E+01 0.  0.
         13    1    3    3    0    0 -0.70497537486E+01 -0.21958818334E+01 -0.17347120471E+03  0.17362828050E+03  0.00000000000E+00 0.  1.
          1    1    3    3  501    0 -0.58388145956E+01 -0.13205568000E+02 -0.45476893710E+03  0.45499809333E+03  0.00000000000E+00 0.  1.
         -1    1    1    2    0  502  0.12888568344E+02  0.15401449833E+02 -0.37129537784E+03  0.37183810652E+03  0.00000000000E+00 0. -1.
<mgrwt>
<rscale>  1 0.30000000E+03</rscale>
<asrwt>0</asrwt>
<pdfrwt beam="1">  1       21 0.16890230E-02 0.30000000E+03</pdfrwt>
<pdfrwt beam="2">0</pdfrwt>
<totfact> 0.17444443E+05</totfact>
</mgrwt>
</event>
<event>
 6    1  0.1132867E-002  0.3000000E+03  0.7818608E-02  0.1093470E+00
         21   -1    0    0  501  502  0.00000000000E+00  0.00000000000E+00  0.35160546580E+00  0.35160546580E+00  0.00000000000E+00 0. -1.
         13   -1    0    0    0    0 -0.00000000000E+00 -0.00000000000E+00 -0.10000000000E+04  0.10000000000E+04  0.00000000000E+00 0.  1.
    9000005    2    1    2  501    0  0.12820750045E+02 -0.16894846360E+01 -0.84692452279E+03  0.84708123328E+03  0.99117343890E+01 0.  0.
         13    1    3    3    0    0  0.63622644426E+01 -0.22133094815E+01 -0.67655313854E+03  0.67658667325E+03  0.00000000000E+00 0.  1.
          1    1    3    3  501    0  0.64584856025E+01  0.52382484551E+00 -0.17037138425E+03  0.17049456003E+03  0.00000000000E+00 0.  1.
         -1    1    1    2    0  502 -0.12820750045E+02  0.16894846360E+01 -0.15272387174E+03  0.15327037218E+03  0.00000000000E+00 0. -1.
<mgrwt>
<rscale>  1 0.30000000E+03</rscale>
<asrwt>0</asrwt>
<pdfrwt beam="1">  1       21 0.12785680E-02 0.30000000E+03</pdfrwt>
<pdfrwt beam="2">0</pdfrwt>
<totfact> 0.27311391E+05</totfact>
</mgrwt>
</event>
<event>
 6    1  0.1132867E-002  0.3000000E+03  0.7818608E-02  0.1093470E+00
         21   -1    0    0  501  502  0.00000000000E+00  0.00000000000E+00  0.11901639184E+00  0.11901639184E+00  0.00000000000E+00 0. -1.
         13   -1    0    0    0    0 -0.00000000000E+00 -0.00000000000E+00 -0.10000000000E+04  0.10000000000E+04  0.00000000000E+00 0.  1.
    9000005    2    1    2  501    0  0.46427672721E+01 -0.66257587513E+01 -0.55960242571E+03  0.55976613005E+03  0.10853088076E+02 0.  0.
         13    1    3    3    0    0  0.46012115673E+01 -0.39550483718E+01 -0.11820029232E+03  0.11835591519E+03  0.00000000000E+00 0.  1.
          3    1    3    3  501    0  0.41555704789E-01 -0.26707103796E+01 -0.44140213339E+03  0.44141021485E+03  0.00000000000E+00 0.  1.
         -3    1    1    2    0  502 -0.46427672721E+01  0.66257587513E+01 -0.44027855790E+03  0.44035288635E+03  0.00000000000E+00 0. -1.
<mgrwt>
<rscale>  1 0.30000000E+03</rscale>
<asrwt>0</asrwt>
<pdfrwt beam="1">  1       21 0.43278779E-03 0.30000000E+03</pdfrwt>
<pdfrwt beam="2">0</pdfrwt>
<totfact> 0.14995642E+06</totfact>
</mgrwt>
</event>
<event>
 6    1  0.1132867E-002  0.3000000E+03  0.7818608E-02  0.1093470E+00
         21   -1    0    0  501  502  0.00000000000E+00  0.00000000000E+00  0.21815088637E+00  0.21815088637E+00  0.00000000000E+00 0. -1.
         13   -1    0    0    0    0 -0.00000000000E+00 -0.00000000000E+00 -0.10000000000E+04  0.10000000000E+04  0.00000000000E+00 0.  1.
    9000005    2    1    2  501    0 -0.12077442728E+02  0.37146972476E+01 -0.74418779260E+03  0.74431194673E+03  0.50139602996E+01 0.  0.
         13    1    3    3    0    0 -0.24533668055E+01 -0.36494915004E+00 -0.25731671209E+03  0.25732866634E+03  0.00000000000E+00 0.  1.
          1    1    3    3  501    0 -0.96240759225E+01  0.40796463977E+01 -0.48687108050E+03  0.48698328039E+03  0.00000000000E+00 0.  1.
         -1    1    1    2    0  502  0.12077442728E+02 -0.37146972476E+01 -0.25559405652E+03  0.25590620415E+03  0.00000000000E+00 0. -1.
<mgrwt>
<rscale>  1 0.30000000E+03</rscale>
<asrwt>0</asrwt>
<pdfrwt beam="1">  1       21 0.79327762E-03 0.30000000E+03</pdfrwt>
<pdfrwt beam="2">0</pdfrwt>
<totfact> 0.58275053E+05</totfact>
</mgrwt>
</event>
<event>
 6    1  0.1132867E-002  0.3000000E+03  0.7818608E-02  0.1093470E+00
         21   -1    0    0  501  502  0.00000000000E+00  0.00000000000E+00  0.36647097904E+00  0.36647097904E+00  0.00000000000E+00 0. -1.
         13   -1    0    0    0    0 -0.00000000000E+00 -0.00000000000E+00 -0.10000000000E+04  0.10000000000E+04  0.00000000000E+00 0.  1.
    9000005    2    1    2  501    0 -0.18033117344E+00 -0.97316868249E+01 -0.89820071017E+03  0.89846772228E+03  0.19621263182E+02 0.  0.
         13    1    3    3    0    0 -0.43591893234E+01 -0.10532122632E+02 -0.85082025126E+03  0.85089660247E+03  0.00000000000E+00 0.  1.
          1    1    3    3  501    0  0.41788581499E+01  0.80043580689E+00 -0.47380458915E+02  0.47571119810E+02  0.00000000000E+00 0.  1.
         -3    1    1    2    0  502  0.18033117344E+00  0.97316868249E+01 -0.10143281885E+03  0.10189874870E+03  0.00000000000E+00 0. -1.
<mgrwt>
<rscale>  1 0.30000000E+03</rscale>
<asrwt>0</asrwt>
<pdfrwt beam="1">  1       21 0.13326246E-02 0.30000000E+03</pdfrwt>
<pdfrwt beam="2">0</pdfrwt>
<totfact> 0.25556746E+05</totfact>
</mgrwt>
</event>
<event>
 6    1  0.1132867E-002  0.3000000E+03  0.7818608E-02  0.1093470E+00
         21   -1    0    0  501  502  0.00000000000E+00  0.00000000000E+00  0.13029704721E+00  0.13029704721E+00  0.00000000000E+00 0. -1.
         13   -1    0    0    0    0 -0.00000000000E+00 -0.00000000000E+00 -0.10000000000E+04  0.10000000000E+04  0.00000000000E+00 0.  1.
    9000005    2    1    2  501    0  0.70231866899E+01 -0.55230707980E+01 -0.56577055659E+03  0.56593921200E+03  0.10537528729E+02 0.  0.
         13    1    3    3    0    0 -0.44569920818E+00 -0.69479383798E+00 -0.34154971526E+01  0.35138308242E+01  0.00000000000E+00 0.  1.
          3    1    3    3  501    0  0.74688858981E+01 -0.48282769600E+01 -0.56235505943E+03  0.56242538117E+03  0.00000000000E+00 0.  1.
         -1    1    1    2    0  502 -0.70231866899E+01  0.55230707980E+01 -0.43409914637E+03  0.43419108505E+03  0.00000000000E+00 0. -1.
<mgrwt>
<rscale>  1 0.30000000E+03</rscale>
<asrwt>0</asrwt>
<pdfrwt beam="1">  1       21 0.47380844E-03 0.30000000E+03</pdfrwt>
<pdfrwt beam="2">0</pdfrwt>
<totfact> 0.13034695E+06</totfact>
</mgrwt>
</event>
<event>
 6    1  0.1132867E-002  0.3000000E+03  0.7818608E-02  0.1093470E+00
         21   -1    0    0  501  502  0.00000000000E+00  0.00000000000E+00  0.71472051038E-01  0.71472051038E-01  0.00000000000E+00 0. -1.
         13   -1    0    0    0    0 -0.00000000000E+00 -0.00000000000E+00 -0.10000000000E+04  0.10000000000E+04  0.00000000000E+00 0.  1.
    9000005    2    1    2  501    0  0.64387215295E+01 -0.33501996982E+01 -0.57084810215E+03  0.57092966242E+03  0.63594595151E+01 0.  0.
         13    1    3    3    0    0  0.13217094343E+01 -0.21717379132E+01 -0.38230848619E+03  0.38231693917E+03  0.00000000000E+00 0.  1.
          3    1    3    3  501    0  0.51170120952E+01 -0.11784617849E+01 -0.18853961596E+03  0.18861272325E+03  0.00000000000E+00 0.  1.
         -1    1    1    2    0  502 -0.64387215295E+01  0.33501996982E+01 -0.42908042580E+03  0.42914180963E+03  0.00000000000E+00 0. -1.
<mgrwt>
<rscale>  1 0.30000000E+03</rscale>
<asrwt>0</asrwt>
<pdfrwt beam="1">  1       21 0.25989892E-03 0.30000000E+03</pdfrwt>
<pdfrwt beam="2">0</pdfrwt>
<totfact> 0.32809825E+06</totfact>
</mgrwt>
</event>
<event>
 6    1  0.1132867E-002  0.3000000E+03  0.7818608E-02  0.1093470E+00
         21   -1    0    0  501  502  0.00000000000E+00  0.00000000000E+00  0.47978451115E+00  0.47978451115E+00  0.00000000000E+00 0. -1.
         13   -1    0    0    0    0 -0.00000000000E+00 -0.00000000000E+00 -0.10000000000E+04  0.10000000000E+04  0.00000000000E+00 0.  1.
    9000005    2    1    2  501    0 -0.54511531692E+01  0.93321958830E+01 -0.93236669921E+03  0.93246214195E+03  0.78217277176E+01 0.  0.
         13    1    3    3    0    0 -0.72282200874E+01  0.82409445108E+01 -0.84218083521E+03  0.84225217098E+03  0.00000000000E+00 0.  1.
          3    1    3    3  501    0  0.17770669183E+01  0.10912513723E+01 -0.90185864006E+02  0.90209970973E+02  0.00000000000E+00 0.  1.
         -1    1    1    2    0  502  0.54511531692E+01 -0.93321958830E+01 -0.67153516275E+02  0.68017642557E+02  0.00000000000E+00 0. -1.
<mgrwt>
<rscale>  1 0.30000000E+03</rscale>
<asrwt>0</asrwt>
<pdfrwt beam="1">  1       21 0.17446746E-02 0.30000000E+03</pdfrwt>
<pdfrwt beam="2">0</pdfrwt>
<totfact> 0.16551386E+05</totfact>
</mgrwt>
</event>
<event>
 6    1  0.1132867E-002  0.3000000E+03  0.7818608E-02  0.1093470E+00
         21   -1    0    0  501  502  0.00000000000E+00  0.00000000000E+00  0.11181170811E+00  0.11181170811E+00  0.00000000000E+00 0. -1.
         13   -1    0    0    0    0 -0.00000000000E+00 -0.00000000000E+00 -0.10000000000E+04  0.10000000000E+04  0.00000000000E+00 0.  1.
    9000005    2    1    2  501    0  0.64603079521E+01 -0.74712626796E+01 -0.59010187108E+03  0.59020647981E+03  0.50906985858E+01 0.  0.
         13    1    3    3    0    0  0.11807726559E+00 -0.35599373741E+01 -0.15596355846E+03  0.15600422642E+03  0.00000000000E+00 0.  1.
          1    1    3    3  501    0  0.63422306865E+01 -0.39113253055E+01 -0.43413831263E+03  0.43420225339E+03  0.00000000000E+00 0.  1.
         -3    1    1    2    0  502 -0.64603079521E+01  0.74712626796E+01 -0.40978631721E+03  0.40990533190E+03  0.00000000000E+00 0. -1.
<mgrwt>
<rscale>  1 0.30000000E+03</rscale>
<asrwt>0</asrwt>
<pdfrwt beam="1">  1       21 0.40658889E-03 0.30000000E+03</pdfrwt>
<pdfrwt beam="2">0</pdfrwt>
<totfact> 0.16513695E+06</totfact>
</mgrwt>
</event>
<event>
 6    1  0.1132867E-002  0.3000000E+03  0.7818608E-02  0.1093470E+00
         21   -1    0    0  501  502  0.00000000000E+00  0.00000000000E+00  0.44565103541E+00  0.44565103541E+00  0.00000000000E+00 0. -1.
         13   -1    0    0    0    0 -0.00000000000E+00 -0.00000000000E+00 -0.10000000000E+04  0.10000000000E+04  0.00000000000E+00 0.  1.
    9000005    2    1    2  501    0 -0.15394516117E+02  0.10421470695E+02 -0.63248395961E+03  0.63290481124E+03  0.13672700777E+02 0.  0.
         13    1    3    3    0    0 -0.71795502199E+01  0.11945344400E+02 -0.31073454438E+03  0.31104693257E+03  0.00000000000E+00 0.  1.
          1    1    3    3  501    0 -0.82149658972E+01 -0.15238737045E+01 -0.32174941523E+03  0.32185787866E+03  0.00000000000E+00 0.  1.
         -3    1    1    2    0  502  0.15394516117E+02 -0.10421470695E+02 -0.36707038936E+03  0.36754083980E+03  0.00000000000E+00 0. -1.
<mgrwt>
<rscale>  1 0.30000000E+03</rscale>
<asrwt>0</asrwt>
<pdfrwt beam="1">  1       21 0.16205526E-02 0.30000000E+03</pdfrwt>
<pdfrwt beam="2">0</pdfrwt>
<totfact> 0.18652732E+05</totfact>
</mgrwt>
</event>
<event>
 6    1  0.1132867E-002  0.3000000E+03  0.7818608E-02  0.1093470E+00
         21   -1    0    0  501  502  0.00000000000E+00  0.00000000000E+00  0.13178893051E+01  0.13178893051E+01  0.00000000000E+00 0. -1.
         13   -1    0    0    0    0 -0.00000000000E+00 -0.00000000000E+00 -0.10000000000E+04  0.10000000000E+04  0.00000000000E+00 0.  1.
    9000005    2    1    2  501    0  0.15069830236E+02  0.62355932487E+01 -0.94599667840E+03  0.94616594299E+03  0.73684272061E+01 0.  0.
         13    1    3    3    0    0  0.11279228020E+02  0.78768900193E+01 -0.73936448075E+03  0.73949246228E+03  0.00000000000E+00 0.  1.
          3    1    3    3  501    0  0.37906022161E+01 -0.16412967706E+01 -0.20663219765E+03  0.20667348070E+03  0.00000000000E+00 0.  1.
         -1    1    1    2    0  502 -0.15069830236E+02 -0.62355932487E+01 -0.52685432294E+02  0.55151946317E+02  0.00000000000E+00 0. -1.
<mgrwt>
<rscale>  1 0.30000000E+03</rscale>
<asrwt>0</asrwt>
<pdfrwt beam="1">  1       21 0.47923349E-02 0.30000000E+03</pdfrwt>
<pdfrwt beam="2">0</pdfrwt>
<totfact> 0.30962627E+04</totfact>
</mgrwt>
</event>
<event>
 6    1  0.1132867E-002  0.3000000E+03  0.7818608E-02  0.1093470E+00
         21   -1    0    0  501  502  0.00000000000E+00  0.00000000000E+00  0.59667603104E-01  0.59667603104E-01  0.00000000000E+00 0. -1.
         13   -1    0    0    0    0 -0.00000000000E+00 -0.00000000000E+00 -0.10000000000E+04  0.10000000000E+04  0.00000000000E+00 0.  1.
    9000005    2    1    2  501    0  0.37115831278E+01  0.64456009469E+01 -0.47969133667E+03  0.47975750618E+03  0.28573841697E+01 0.  0.
         13    1    3    3    0    0  0.30977858127E+01  0.39116443514E+01 -0.37724823431E+03  0.37728123135E+03  0.00000000000E+00 0.  1.
          3    1    3    3  501    0  0.61379731510E+00  0.25339565955E+01 -0.10244310236E+03  0.10247627483E+03  0.00000000000E+00 0.  1.
         -1    1    1    2    0  502 -0.37115831278E+01 -0.64456009469E+01 -0.52024899573E+03  0.52030216142E+03  0.00000000000E+00 0. -1.
<mgrwt>
<rscale>  1 0.30000000E+03</rscale>
<asrwt>0</asrwt>
<pdfrwt beam="1">  1       21 0.21697356E-03 0.30000000E+03</pdfrwt>
<pdfrwt beam="2">0</pdfrwt>
<totfact> 0.43184180E+06</totfact>
</mgrwt>
</event>
<event>
 6    1  0.1132867E-002  0.3000000E+03  0.7818608E-02  0.1093470E+00
         21   -1    0    0  501  502  0.00000000000E+00  0.00000000000E+00  0.20744582640E+00  0.20744582640E+00  0.00000000000E+00 0. -1.
         13   -1    0    0    0    0 -0.00000000000E+00 -0.00000000000E+00 -0.10000000000E+04  0.10000000000E+04  0.00000000000E+00 0.  1.
    9000005    2    1    2  501    0  0.71343504481E+01 -0.69061149052E+01 -0.80447846080E+03  0.80464111833E+03  0.12772706823E+02 0.  0.
         13    1    3    3    0    0  0.44125895337E+01  0.19164848227E+01 -0.11467024573E+03  0.11477111622E+03  0.00000000000E+00 0.  1.
          3    1    3    3  501    0  0.27217609144E+01 -0.88225997279E+01 -0.68980821507E+03  0.68987000212E+03  0.00000000000E+00 0.  1.
         -1    1    1    2    0  502 -0.71343504481E+01  0.69061149052E+01 -0.19531409337E+03  0.19556632749E+03  0.00000000000E+00 0. -1.
<mgrwt>
<rscale>  1 0.30000000E+03</rscale>
<asrwt>0</asrwt>
<pdfrwt beam="1">  1       21 0.75435005E-03 0.30000000E+03</pdfrwt>
<pdfrwt beam="2">0</pdfrwt>
<totfact> 0.63076956E+05</totfact>
</mgrwt>
</event>
<event>
 6    1  0.1132867E-002  0.3000000E+03  0.7818608E-02  0.1093470E+00
         21   -1    0    0  501  502  0.00000000000E+00  0.00000000000E+00  0.11324848020E+00  0.11324848020E+00  0.00000000000E+00 0. -1.
         13   -1    0    0    0    0 -0.00000000000E+00 -0.00000000000E+00 -0.10000000000E+04  0.10000000000E+04  0.00000000000E+00 0.  1.
    9000005    2    1    2  501    0  0.81995333225E+01  0.88883249033E+00 -0.72213177443E+03  0.72223584805E+03  0.90718356375E+01 0.  0.
         13    1    3    3    0    0  0.16261593808E+01  0.44797289548E+01 -0.27128622609E+03  0.27132808338E+03  0.00000000000E+00 0.  1.
          1    1    3    3  501    0  0.65733739417E+01 -0.35908964644E+01 -0.45084554834E+03  0.45090776467E+03  0.00000000000E+00 0.  1.
         -3    1    1    2    0  502 -0.81995333225E+01 -0.88883249033E+00 -0.27775497709E+03  0.27787740043E+03  0.00000000000E+00 0. -1.
<mgrwt>
<rscale>  1 0.30000000E+03</rscale>
<asrwt>0</asrwt>
<pdfrwt beam="1">  1       21 0.41181352E-03 0.30000000E+03</pdfrwt>
<pdfrwt beam="2">0</pdfrwt>
<totfact> 0.16191457E+06</totfact>
</mgrwt>
</event>
<event>
 6    1  0.1132867E-002  0.3000000E+03  0.7818608E-02  0.1093470E+00
         21   -1    0    0  501  502  0.00000000000E+00  0.00000000000E+00  0.11254139379E+00  0.11254139379E+00  0.00000000000E+00 0. -1.
         13   -1    0    0    0    0 -0.00000000000E+00 -0.00000000000E+00 -0.10000000000E+04  0.10000000000E+04  0.00000000000E+00 0.  1.
    9000005    2    1    2  501    0 -0.36825321495E+01 -0.71068934059E+01 -0.64789197365E+03  0.64802605996E+03  0.10473580757E+02 0.  0.
         13    1    3    3    0    0 -0.34931730562E+01 -0.31294750840E+00 -0.45645729271E+03  0.45647076605E+03  0.00000000000E+00 0.  1.
          3    1    3    3  501    0 -0.18935909330E+00 -0.67939458975E+01 -0.19143468094E+03  0.19155529391E+03  0.00000000000E+00 0.  1.
         -1    1    1    2    0  502  0.36825321495E+01  0.71068934059E+01 -0.35199548495E+03  0.35208648143E+03  0.00000000000E+00 0. -1.
<mgrwt>
<rscale>  1 0.30000000E+03</rscale>
<asrwt>0</asrwt>
<pdfrwt beam="1">  1       21 0.40924229E-03 0.30000000E+03</pdfrwt>
<pdfrwt beam="2">0</pdfrwt>
<totfact> 0.16348744E+06</totfact>
</mgrwt>
</event>
<event>
 6    1  0.1132867E-002  0.3000000E+03  0.7818608E-02  0.1093470E+00
         21   -1    0    0  501  502  0.00000000000E+00  0.00000000000E+00  0.47914397288E+00  0.47914397288E+00  0.00000000000E+00 0. -1.
         13   -1    0    0    0    0 -0.00000000000E+00 -0.00000000000E+00 -0.10000000000E+04  0.10000000000E+04  0.00000000000E+00 0.  1.
    9000005    2    1    2  501    0 -0.20432488230E+02  0.67439794309E+01 -0.45740743744E+03  0.45793889068E+03  0.48472606206E+01 0.  0.
         13    1    3    3    0    0 -0.94162834395E+01  0.56411914418E+01 -0.23384833937E+03  0.23410582065E+03  0.00000000000E+00 0.  1.
          3    1    3    3  501    0 -0.11016204790E+02  0.11027879891E+01 -0.22355909807E+03  0.22383307003E+03  0.00000000000E+00 0.  1.
         -1    1    1    2    0  502  0.20432488230E+02 -0.67439794309E+01 -0.54211341859E+03  0.54254025330E+03  0.00000000000E+00 0. -1.
<mgrwt>
<rscale>  1 0.30000000E+03</rscale>
<asrwt>0</asrwt>
<pdfrwt beam="1">  1       21 0.17423454E-02 0.30000000E+03</pdfrwt>
<pdfrwt beam="2">0</pdfrwt>
<totfact> 0.16587283E+05</totfact>
</mgrwt>
</event>
<event>
 6    1  0.1132867E-002  0.3000000E+03  0.7818608E-02  0.1093470E+00
         21   -1    0    0  501  502  0.00000000000E+00  0.00000000000E+00  0.14987007385E+00  0.14987007385E+00  0.00000000000E+00 0. -1.
         13   -1    0    0    0    0 -0.00000000000E+00 -0.00000000000E+00 -0.10000000000E+04  0.10000000000E+04  0.00000000000E+00 0.  1.
    9000005    2    1    2  501    0  0.48431806850E+01  0.10171015085E+02 -0.51313958860E+03  0.51330897514E+03  0.68527818006E+01 0.  0.
         13    1    3    3    0    0  0.38867845433E+01  0.12930559493E+01 -0.20079136988E+03  0.20083314793E+03  0.00000000000E+00 0.  1.
          3    1    3    3  501    0  0.95639614169E+00  0.88779591358E+01 -0.31234821872E+03  0.31247582721E+03  0.00000000000E+00 0.  1.
         -3    1    1    2    0  502 -0.48431806850E+01 -0.10171015085E+02 -0.48671054132E+03  0.48684089493E+03  0.00000000000E+00 0. -1.
<mgrwt>
<rscale>  1 0.30000000E+03</rscale>
<asrwt>0</asrwt>
<pdfrwt beam="1">  1       21 0.54498324E-03 0.30000000E+03</pdfrwt>
<pdfrwt beam="2">0</pdfrwt>
<totfact> 0.10487898E+06</totfact>
</mgrwt>
</event>
<event>
 6    1  0.1132867E-002  0.3000000E+03  0.7818608E-02  0.1093470E+00
         21   -1    0    0  501  502  0.00000000000E+00  0.00000000000E+00  0.61110706920E-01  0.61110706920E-01  0.00000000000E+00 0. -1.
         13   -1    0    0    0    0 -0.00000000000E+00 -0.00000000000E+00 -0.10000000000E+04  0.10000000000E+04  0.00000000000E+00 0.  1.
    9000005    2    1    2  501    0  0.57072962309E+01 -0.46692446493E+01 -0.55535965735E+03  0.55542072955E+03  0.36691595212E+01 0.  0.
         13    1    3    3    0    0  0.22294841867E+01 -0.37968964421E+01 -0.23714480803E+03  0.23718568043E+03  0.00000000000E+00 0.  1.
          3    1    3    3  501    0  0.34778120441E+01 -0.87234820721E+00 -0.31821484931E+03  0.31823504913E+03  0.00000000000E+00 0.  1.
         -1    1    1    2    0  502 -0.57072962309E+01  0.46692446493E+01 -0.44457923194E+03  0.44464038115E+03  0.00000000000E+00 0. -1.
<mgrwt>
<rscale>  1 0.30000000E+03</rscale>
<asrwt>0</asrwt>
<pdfrwt beam="1">  1       21 0.22222122E-03 0.30000000E+03</pdfrwt>
<pdfrwt beam="2">0</pdfrwt>
<totfact> 0.41644899E+06</totfact>
</mgrwt>
</event>
<event>
 6    1  0.1132867E-002  0.3000000E+03  0.7818608E-02  0.1093470E+00
         21   -1    0    0  501  502  0.00000000000E+00  0.00000000000E+00  0.31950489241E+00  0.31950489241E+00  0.00000000000E+00 0. -1.
         13   -1    0    0    0    0 -0.00000000000E+00 -0.00000000000E+00 -0.10000000000E+04  0.10000000000E+04  0.00000000000E+00 0.  1.
    9000005    2    1    2  501    0  0.33938370429E+01 -0.10043464525E+02 -0.89860274918E+03  0.89868732479E+03  0.62942516541E+01 0.  0.
         13    1    3    3    0    0  0.34836090990E+01 -0.10733151402E+02 -0.76985336493E+03  0.76993606200E+03  0.00000000000E+00 0.  1.
          1    1    3    3  501    0 -0.89772056109E-01  0.68968687659E+00 -0.12874938425E+03  0.12875126279E+03  0.00000000000E+00 0.  1.
         -3    1    1    2    0  502 -0.33938370429E+01  0.10043464525E+02 -0.10107774593E+03  0.10163218010E+03  0.00000000000E+00 0. -1.
<mgrwt>
<rscale>  1 0.30000000E+03</rscale>
<asrwt>0</asrwt>
<pdfrwt beam="1">  1       21 0.11618384E-02 0.30000000E+03</pdfrwt>
<pdfrwt beam="2">0</pdfrwt>
<totfact> 0.31826838E+05</totfact>
</mgrwt>
</event>
<event>
 6    1  0.1132867E-002  0.3000000E+03  0.7818608E-02  0.1093470E+00
         21   -1    0    0  501  502  0.00000000000E+00  0.00000000000E+00  0.30162234015E+00  0.30162234015E+00  0.00000000000E+00 0. -1.
         13   -1    0    0    0    0 -0.00000000000E+00 -0.00000000000E+00 -0.10000000000E+04  0.10000000000E+04  0.00000000000E+00 0.  1.
    9000005    2    1    2  501    0  0.68930494252E+00  0.13765024162E+02 -0.73102691627E+03  0.73127689263E+03  0.13251050849E+02 0.  0.
         13    1    3    3    0    0  0.20855584640E+01  0.13311810001E+02 -0.36737433498E+03  0.36762134846E+03  0.00000000000E+00 0.  1.
          1    1    3    3  501    0 -0.13962535215E+01  0.45321416004E+00 -0.36365258129E+03  0.36365554417E+03  0.00000000000E+00 0.  1.
         -3    1    1    2    0  502 -0.68930494252E+00 -0.13765024162E+02 -0.26867146139E+03  0.26902472971E+03  0.00000000000E+00 0. -1.
<mgrwt>
<rscale>  1 0.30000000E+03</rscale>
<asrwt>0</asrwt>
<pdfrwt beam="1">  1       21 0.10968108E-02 0.30000000E+03</pdfrwt>
<pdfrwt beam="2">0</pdfrwt>
<totfact> 0.34886423E+05</totfact>
</mgrwt>
</event>
<event>
 6    1  0.1132867E-002  0.3000000E+03  0.7818608E-02  0.1093470E+00
         21   -1    0    0  501  502  0.00000000000E+00  0.00000000000E+00  0.16818816820E+00  0.16818816820E+00  0.00000000000E+00 0. -1.
         13   -1    0    0    0    0 -0.00000000000E+00 -0.00000000000E+00 -0.10000000000E+04  0.10000000000E+04  0.00000000000E+00 0.  1.
    9000005    2    1    2  501    0 -0.65476054038E+01  0.73400938694E+01 -0.46220402236E+03  0.46245042937E+03  0.11449594939E+02 0.  0.
         13    1    3    3    0    0 -0.13319824802E+01  0.78464915311E+01 -0.37784597594E+03  0.37792978600E+03  0.00000000000E+00 0.  1.
          3    1    3    3  501    0 -0.52156229236E+01 -0.50639766170E+00 -0.84358046417E+02  0.84520643374E+02  0.00000000000E+00 0.  1.
         -3    1    1    2    0  502  0.65476054038E+01 -0.73400938694E+01 -0.53762778947E+03  0.53771775880E+03  0.00000000000E+00 0. -1.
<mgrwt>
<rscale>  1 0.30000000E+03</rscale>
<asrwt>0</asrwt>
<pdfrwt beam="1">  1       21 0.61159463E-03 0.30000000E+03</pdfrwt>
<pdfrwt beam="2">0</pdfrwt>
<totfact> 0.87625139E+05</totfact>
</mgrwt>
</event>
<event>
 6    1  0.1132867E-002  0.3000000E+03  0.7818608E-02  0.1093470E+00
         21   -1    0    0  501  502  0.00000000000E+00  0.00000000000E+00  0.26081452930E+01  0.26081452930E+01  0.00000000000E+00 0. -1.
         13   -1    0    0    0    0 -0.00000000000E+00 -0.00000000000E+00 -0.10000000000E+04  0.10000000000E+04  0.00000000000E+00 0.  1.
    9000005    2    1    2  501    0 -0.26344374057E+01  0.18098551482E+02 -0.96656441298E+03  0.96676363400E+03  0.71177078291E+01 0.  0.
         13    1    3    3    0    0 -0.55093233107E+00  0.14379767498E+02 -0.59159867711E+03  0.59177366958E+03  0.00000000000E+00 0.  1.
          3    1    3    3  501    0 -0.20835050746E+01  0.37187839841E+01 -0.37496573587E+03  0.37498996443E+03  0.00000000000E+00 0.  1.
         -1    1    1    2    0  502  0.26344374057E+01 -0.18098551482E+02 -0.30827441725E+02  0.35844511289E+02  0.00000000000E+00 0. -1.
<mgrwt>
<rscale>  1 0.30000000E+03</rscale>
<asrwt>0</asrwt>
<pdfrwt beam="1">  1       21 0.94841847E-02 0.30000000E+03</pdfrwt>
<pdfrwt beam="2">0</pdfrwt>
<totfact> 0.94557446E+03</totfact>
</mgrwt>
</event>
<event>
 6    1  0.1132867E-002  0.3000000E+03  0.7818608E-02  0.1093470E+00
         21   -1    0    0  501  502  0.00000000000E+00  0.00000000000E+00  0.23143199228E+01  0.23143199228E+01  0.00000000000E+00 0. -1.
         13   -1    0    0    0    0 -0.00000000000E+00 -0.00000000000E+00 -0.10000000000E+04  0.10000000000E+04  0.00000000000E+00 0.  1.
    9000005    2    1    2  501    0  0.27972457994E+02  0.25511041640E+02 -0.55787519024E+03  0.56087741772E+03  0.43880270921E+02 0.  0.
         13    1    3    3    0    0  0.29014755524E+02  0.20532913467E+02 -0.55184569222E+03  0.55298926264E+03  0.00000000000E+00 0.  1.
          3    1    3    3  501    0 -0.10422975300E+01  0.49781281727E+01 -0.60294980162E+01  0.78881550804E+01  0.00000000000E+00 0.  1.
         -3    1    1    2    0  502 -0.27972457994E+02 -0.25511041640E+02 -0.43981048984E+03  0.44143690220E+03  0.00000000000E+00 0. -1.
<mgrwt>
<rscale>  1 0.30000000E+03</rscale>
<asrwt>0</asrwt>
<pdfrwt beam="1">  1       21 0.84157266E-02 0.30000000E+03</pdfrwt>
<pdfrwt beam="2">0</pdfrwt>
<totfact> 0.11684699E+04</totfact>
</mgrwt>
</event>
<event>
 6    1  0.1132867E-002  0.3000000E+03  0.7818608E-02  0.1093470E+00
         21   -1    0    0  501  502  0.00000000000E+00  0.00000000000E+00  0.13791066656E+00  0.13791066656E+00  0.00000000000E+00 0. -1.
         13   -1    0    0    0    0 -0.00000000000E+00 -0.00000000000E+00 -0.10000000000E+04  0.10000000000E+04  0.00000000000E+00 0.  1.
    9000005    2    1    2  501    0  0.34220426729E+01 -0.89742296532E+01 -0.66184857717E+03  0.66198797117E+03  0.96066488892E+01 0.  0.
         13    1    3    3    0    0  0.24879625386E+01 -0.61001582022E+01 -0.61811375993E+03  0.61814886726E+03  0.00000000000E+00 0.  1.
          1    1    3    3  501    0  0.93408013429E+00 -0.28740714510E+01 -0.43734817242E+02  0.43839103910E+02  0.00000000000E+00 0.  1.
         -1    1    1    2    0  502 -0.34220426729E+01  0.89742296532E+01 -0.33801351216E+03  0.33814993949E+03  0.00000000000E+00 0. -1.
<mgrwt>
<rscale>  1 0.30000000E+03</rscale>
<asrwt>0</asrwt>
<pdfrwt beam="1">  1       21 0.50149439E-03 0.30000000E+03</pdfrwt>
<pdfrwt beam="2">0</pdfrwt>
<totfact> 0.11935098E+06</totfact>
</mgrwt>
</event>
<event>
 6    1  0.1132867E-002  0.3000000E+03  0.7818608E-02  0.1093470E+00
         21   -1    0    0  501  502  0.00000000000E+00  0.00000000000E+00  0.16048346929E+00  0.16048346929E+00  0.00000000000E+00 0. -1.
         13   -1    0    0    0    0 -0.00000000000E+00 -0.00000000000E+00 -0.10000000000E+04  0.10000000000E+04  0.00000000000E+00 0.  1.
    9000005    2    1    2  501    0  0.75901369826E+01 -0.81795644977E+01 -0.50411781164E+03  0.50431320440E+03  0.85161417720E+01 0.  0.
         13    1    3    3    0    0  0.68341430438E+01 -0.46952842550E+01 -0.45083411510E+03  0.45091035755E+03  0.00000000000E+00 0.  1.
          1    1    3    3  501    0  0.75599393884E+00 -0.34842802426E+01 -0.53283696538E+02  0.53402846857E+02  0.00000000000E+00 0.  1.
         -1    1    1    2    0  502 -0.75901369826E+01  0.81795644977E+01 -0.49572170489E+03  0.49584727906E+03  0.00000000000E+00 0. -1.
<mgrwt>
<rscale>  1 0.30000000E+03</rscale>
<asrwt>0</asrwt>
<pdfrwt beam="1">  1       21 0.58357748E-03 0.30000000E+03</pdfrwt>
<pdfrwt beam="2">0</pdfrwt>
<totfact> 0.94278019E+05</totfact>
</mgrwt>
</event>
<event>
 6    1  0.1132867E-002  0.3000000E+03  0.7818608E-02  0.1093470E+00
         21   -1    0    0  501  502  0.00000000000E+00  0.00000000000E+00  0.12078881582E+00  0.12078881582E+00  0.00000000000E+00 0. -1.
         13   -1    0    0    0    0 -0.00000000000E+00 -0.00000000000E+00 -0.10000000000E+04  0.10000000000E+04  0.00000000000E+00 0.  1.
    9000005    2    1    2  501    0 -0.58086857652E+01  0.71617728361E+01 -0.42008231979E+03  0.42025057309E+03  0.75071271664E+01 0.  0.
         13    1    3    3    0    0 -0.75662001961E+01  0.65028205673E+01 -0.34053804244E+03  0.34068415345E+03  0.00000000000E+00 0.  1.
          1    1    3    3  501    0  0.17575144309E+01  0.65895226872E+00 -0.79544277348E+02  0.79566419637E+02  0.00000000000E+00 0.  1.
         -1    1    1    2    0  502  0.58086857652E+01 -0.71617728361E+01 -0.57979689139E+03  0.57987021573E+03  0.00000000000E+00 0. -1.
<mgrwt>
<rscale>  1 0.30000000E+03</rscale>
<asrwt>0</asrwt>
<pdfrwt beam="1">  1       21 0.43923298E-03 0.30000000E+03</pdfrwt>
<pdfrwt beam="2">0</pdfrwt>
<totfact> 0.14656882E+06</totfact>
</mgrwt>
</event>
<event>
 6    1  0.1132867E-002  0.3000000E+03  0.7818608E-02  0.1093470E+00
         21   -1    0    0  501  502  0.00000000000E+00  0.00000000000E+00  0.12417384571E+00  0.12417384571E+00  0.00000000000E+00 0. -1.
         13   -1    0    0    0    0 -0.00000000000E+00 -0.00000000000E+00 -0.10000000000E+04  0.10000000000E+04  0.00000000000E+00 0.  1.
    9000005    2    1    2  501    0  0.86083453281E+01 -0.40942285344E+01 -0.72659754604E+03  0.72667969191E+03  0.53398888146E+01 0.  0.
         13    1    3    3    0    0  0.35375779129E+01 -0.28862608416E+01 -0.18221490312E+03  0.18227209298E+03  0.00000000000E+00 0.  1.
          1    1    3    3  501    0  0.50707674152E+01 -0.12079676928E+01 -0.54438264291E+03  0.54440759893E+03  0.00000000000E+00 0.  1.
         -3    1    1    2    0  502 -0.86083453281E+01  0.40942285344E+01 -0.27327828012E+03  0.27344448194E+03  0.00000000000E+00 0. -1.
<mgrwt>
<rscale>  1 0.30000000E+03</rscale>
<asrwt>0</asrwt>
<pdfrwt beam="1">  1       21 0.45154221E-03 0.30000000E+03</pdfrwt>
<pdfrwt beam="2">0</pdfrwt>
<totfact> 0.14043517E+06</totfact>
</mgrwt>
</event>
<event>
 6    1  0.1132867E-002  0.3000000E+03  0.7818608E-02  0.1093470E+00
         21   -1    0    0  501  502  0.00000000000E+00  0.00000000000E+00  0.23911090047E+00  0.23911090047E+00  0.00000000000E+00 0. -1.
         13   -1    0    0    0    0 -0.00000000000E+00 -0.00000000000E+00 -0.10000000000E+04  0.10000000000E+04  0.00000000000E+00 0.  1.
    9000005    2    1    2  501    0 -0.13229950356E+02  0.86660734043E+00 -0.61225435638E+03  0.61250583209E+03  0.11498471488E+02 0.  0.
         13    1    3    3    0    0 -0.16684498401E+01  0.21348260005E+01 -0.33100128209E+03  0.33101237130E+03  0.00000000000E+00 0.  1.
          1    1    3    3  501    0 -0.11561500516E+02 -0.12682186601E+01 -0.28125307429E+03  0.28149346079E+03  0.00000000000E+00 0.  1.
         -3    1    1    2    0  502  0.13229950356E+02 -0.86660734043E+00 -0.38750653272E+03  0.38773327881E+03  0.00000000000E+00 0. -1.
<mgrwt>
<rscale>  1 0.30000000E+03</rscale>
<asrwt>0</asrwt>
<pdfrwt beam="1">  1       21 0.86949602E-03 0.30000000E+03</pdfrwt>
<pdfrwt beam="2">0</pdfrwt>
<totfact> 0.50422612E+05</totfact>
</mgrwt>
</event>
<event>
 6    1  0.1132867E-002  0.3000000E+03  0.7818608E-02  0.1093470E+00
         21   -1    0    0  501  502  0.00000000000E+00  0.00000000000E+00  0.10596633483E+00  0.10596633483E+00  0.00000000000E+00 0. -1.
         13   -1    0    0    0    0 -0.00000000000E+00 -0.00000000000E+00 -0.10000000000E+04  0.10000000000E+04  0.00000000000E+00 0.  1.
    9000005    2    1    2  501    0  0.66466822180E+01 -0.43486111643E+01 -0.69823603329E+03  0.69834341400E+03  0.93207769944E+01 0.  0.
         13    1    3    3    0    0  0.64907704105E+01 -0.40663867678E+01 -0.69747300353E+03  0.69751505808E+03  0.00000000000E+00 0.  1.
          3    1    3    3  501    0  0.15591180750E+00 -0.28222439646E+00 -0.76302976240E+00  0.82835591383E+00  0.00000000000E+00 0.  1.
         -3    1    1    2    0  502 -0.66466822180E+01  0.43486111643E+01 -0.30165800037E+03  0.30176255234E+03  0.00000000000E+00 0. -1.
<mgrwt>
<rscale>  1 0.30000000E+03</rscale>
<asrwt>0</asrwt>
<pdfrwt beam="1">  1       21 0.38533294E-03 0.30000000E+03</pdfrwt>
<pdfrwt beam="2">0</pdfrwt>
<totfact> 0.17939690E+06</totfact>
</mgrwt>
</event>
<event>
 6    1  0.1132867E-002  0.3000000E+03  0.7818608E-02  0.1093470E+00
         21   -1    0    0  501  502  0.00000000000E+00  0.00000000000E+00  0.32548870063E+00  0.32548870063E+00  0.00000000000E+00 0. -1.
         13   -1    0    0    0    0 -0.00000000000E+00 -0.00000000000E+00 -0.10000000000E+04  0.10000000000E+04  0.00000000000E+00 0.  1.
    9000005    2    1    2  501    0  0.10146062923E+02  0.18007045497E+01 -0.90452684401E+03  0.90462144636E+03  0.80600589403E+01 0.  0.
         13    1    3    3    0    0  0.72207481548E+01 -0.22004693210E+01 -0.66816855751E+03  0.66821119604E+03  0.00000000000E+00 0.  1.
          3    1    3    3  501    0  0.29253147683E+01  0.40011738706E+01 -0.23635828651E+03  0.23641025033E+03  0.00000000000E+00 0.  1.
         -1    1    1    2    0  502 -0.10146062923E+02 -0.18007045497E+01 -0.95147667285E+02  0.95704042336E+02  0.00000000000E+00 0. -1.
<mgrwt>
<rscale>  1 0.30000000E+03</rscale>
<asrwt>0</asrwt>
<pdfrwt beam="1">  1       21 0.11835978E-02 0.30000000E+03</pdfrwt>
<pdfrwt beam="2">0</pdfrwt>
<totfact> 0.30898356E+05</totfact>
</mgrwt>
</event>
<event>
 6    1  0.1132867E-002  0.3000000E+03  0.7818608E-02  0.1093470E+00
         21   -1    0    0  501  502  0.00000000000E+00  0.00000000000E+00  0.12054615404E+00  0.12054615404E+00  0.00000000000E+00 0. -1.
         13   -1    0    0    0    0 -0.00000000000E+00 -0.00000000000E+00 -0.10000000000E+04  0.10000000000E+04  0.00000000000E+00 0.  1.
    9000005    2    1    2  501    0 -0.88687961746E+01 -0.31906825651E+01 -0.71757343900E+03  0.71765723522E+03  0.56063282719E+01 0.  0.
         13    1    3    3    0    0 -0.94269997385E+01 -0.33333069659E+01 -0.60744599140E+03  0.60752828060E+03  0.00000000000E+00 0.  1.
          3    1    3    3  501    0  0.55820356389E+00  0.14262440080E+00 -0.11012744759E+03  0.11012895462E+03  0.00000000000E+00 0.  1.
         -3    1    1    2    0  502  0.88687961746E+01  0.31906825651E+01 -0.28230601485E+03  0.28246331093E+03  0.00000000000E+00 0. -1.
<mgrwt>
<rscale>  1 0.30000000E+03</rscale>
<asrwt>0</asrwt>
<pdfrwt beam="1">  1       21 0.43835058E-03 0.30000000E+03</pdfrwt>
<pdfrwt beam="2">0</pdfrwt>
<totfact> 0.14702521E+06</totfact>
</mgrwt>
</event>
<event>
 6    1  0.1132867E-002  0.3000000E+03  0.7818608E-02  0.1093470E+00
         21   -1    0    0  501  502  0.00000000000E+00  0.00000000000E+00  0.13275063061E+00  0.13275063061E+00  0.00000000000E+00 0. -1.
         13   -1    0    0    0    0 -0.00000000000E+00 -0.00000000000E+00 -0.10000000000E+04  0.10000000000E+04  0.00000000000E+00 0.  1.
    9000005    2    1    2  501    0  0.87537059797E+00 -0.91908437527E+01 -0.75289006940E+03  0.75298306864E+03  0.74031867716E+01 0.  0.
         13    1    3    3    0    0  0.88367211566E+00 -0.17362186421E+01 -0.34920778144E+02  0.34975077952E+02  0.00000000000E+00 0.  1.
          3    1    3    3  501    0 -0.83015176949E-02 -0.74546251106E+01 -0.71796929126E+03  0.71800799069E+03  0.00000000000E+00 0.  1.
         -1    1    1    2    0  502 -0.87537059797E+00  0.91908437527E+01 -0.24697717997E+03  0.24714968199E+03  0.00000000000E+00 0. -1.
<mgrwt>
<rscale>  1 0.30000000E+03</rscale>
<asrwt>0</asrwt>
<pdfrwt beam="1">  1       21 0.48273058E-03 0.30000000E+03</pdfrwt>
<pdfrwt beam="2">0</pdfrwt>
<totfact> 0.12663000E+06</totfact>
</mgrwt>
</event>
<event>
 6    1  0.1132867E-002  0.3000000E+03  0.7818608E-02  0.1093470E+00
         21   -1    0    0  501  502  0.00000000000E+00  0.00000000000E+00  0.25971857657E+01  0.25971857657E+01  0.00000000000E+00 0. -1.
         13   -1    0    0    0    0 -0.00000000000E+00 -0.00000000000E+00 -0.10000000000E+04  0.10000000000E+04  0.00000000000E+00 0.  1.
    9000005    2    1    2  501    0 -0.15042188237E+02  0.70880476235E+01 -0.97190744946E+03  0.97215837056E+03  0.14536137382E+02 0.  0.
         13    1    3    3    0    0 -0.44063430614E+01  0.25091516704E+01 -0.68317062811E+03  0.68318944578E+03  0.00000000000E+00 0.  1.
          3    1    3    3  501    0 -0.10635845176E+02  0.45788959531E+01 -0.28873682135E+03  0.28896892479E+03  0.00000000000E+00 0.  1.
         -1    1    1    2    0  502  0.15042188237E+02 -0.70880476235E+01 -0.25495364774E+02  0.30438815204E+02  0.00000000000E+00 0. -1.
<mgrwt>
<rscale>  1 0.30000000E+03</rscale>
<asrwt>0</asrwt>
<pdfrwt beam="1">  1       21 0.94443318E-02 0.30000000E+03</pdfrwt>
<pdfrwt beam="2">0</pdfrwt>
<totfact> 0.95269102E+03</totfact>
</mgrwt>
</event>
<event>
 6    1  0.1132867E-002  0.3000000E+03  0.7818608E-02  0.1093470E+00
         21   -1    0    0  501  502  0.00000000000E+00  0.00000000000E+00  0.13341864218E+00  0.13341864218E+00  0.00000000000E+00 0. -1.
         13   -1    0    0    0    0 -0.00000000000E+00 -0.00000000000E+00 -0.10000000000E+04  0.10000000000E+04  0.00000000000E+00 0.  1.
    9000005    2    1    2  501    0 -0.91289614896E+01 -0.10504013809E+01 -0.78138022927E+03  0.78145391039E+03  0.55416683616E+01 0.  0.
         13    1    3    3    0    0 -0.16997601495E+01  0.32173786045E+00 -0.37171513212E+03  0.37171915762E+03  0.00000000000E+00 0.  1.
          3    1    3    3  501    0 -0.74292013401E+01 -0.13721392413E+01 -0.40966509716E+03  0.40973475277E+03  0.00000000000E+00 0.  1.
         -3    1    1    2    0  502  0.91289614896E+01  0.10504013809E+01 -0.21848635208E+03  0.21867950825E+03  0.00000000000E+00 0. -1.
<mgrwt>
<rscale>  1 0.30000000E+03</rscale>
<asrwt>0</asrwt>
<pdfrwt beam="1">  1       21 0.48515972E-03 0.30000000E+03</pdfrwt>
<pdfrwt beam="2">0</pdfrwt>
<totfact> 0.12564764E+06</totfact>
</mgrwt>
</event>
<event>
 6    1  0.1132867E-002  0.3000000E+03  0.7818608E-02  0.1093470E+00
         21   -1    0    0  501  502  0.00000000000E+00  0.00000000000E+00  0.11566422015E+00  0.11566422015E+00  0.00000000000E+00 0. -1.
         13   -1    0    0    0    0 -0.00000000000E+00 -0.00000000000E+00 -0.10000000000E+04  0.10000000000E+04  0.00000000000E+00 0.  1.
    9000005    2    1    2  501    0 -0.32728219296E+01 -0.82035406877E+01 -0.68666874195E+03  0.68677556519E+03  0.82889278623E+01 0.  0.
         13    1    3    3    0    0 -0.19741071926E+01 -0.36121070222E+00 -0.34463725324E+02  0.34522107925E+02  0.00000000000E+00 0.  1.
          3    1    3    3  501    0 -0.12987147370E+01 -0.78423299855E+01 -0.65220501662E+03  0.65225345726E+03  0.00000000000E+00 0.  1.
         -1    1    1    2    0  502  0.32728219296E+01  0.82035406877E+01 -0.31321559383E+03  0.31334009903E+03  0.00000000000E+00 0. -1.
<mgrwt>
<rscale>  1 0.30000000E+03</rscale>
<asrwt>0</asrwt>
<pdfrwt beam="1">  1       21 0.42059805E-03 0.30000000E+03</pdfrwt>
<pdfrwt beam="2">0</pdfrwt>
<totfact> 0.15672313E+06</totfact>
</mgrwt>
</event>
<event>
 6    1  0.1132867E-002  0.3000000E+03  0.7818608E-02  0.1093470E+00
         21   -1    0    0  501  502  0.00000000000E+00  0.00000000000E+00  0.27309760137E+00  0.27309760137E+00  0.00000000000E+00 0. -1.
         13   -1    0    0    0    0 -0.00000000000E+00 -0.00000000000E+00 -0.10000000000E+04  0.10000000000E+04  0.00000000000E+00 0.  1.
    9000005    2    1    2  501    0  0.12689274535E+02 -0.65171753118E+01 -0.60173219008E+03  0.60202282165E+03  0.12097848814E+02 0.  0.
         13    1    3    3    0    0  0.12581345029E+02 -0.90575524245E+01 -0.55909275269E+03  0.55930763951E+03  0.00000000000E+00 0.  1.
          1    1    3    3  501    0  0.10792950569E+00  0.25403771127E+01 -0.42639437389E+02  0.42715182143E+02  0.00000000000E+00 0.  1.
         -3    1    1    2    0  502 -0.12689274535E+02  0.65171753118E+01 -0.39799471232E+03  0.39825027595E+03  0.00000000000E+00 0. -1.
<mgrwt>
<rscale>  1 0.30000000E+03</rscale>
<asrwt>0</asrwt>
<pdfrwt beam="1">  1       21 0.99308428E-03 0.30000000E+03</pdfrwt>
<pdfrwt beam="2">0</pdfrwt>
<totfact> 0.40857014E+05</totfact>
</mgrwt>
</event>
<event>
 6    1  0.1132867E-002  0.3000000E+03  0.7818608E-02  0.1093470E+00
         21   -1    0    0  501  502  0.00000000000E+00  0.00000000000E+00  0.17312626997E+00  0.17312626997E+00  0.00000000000E+00 0. -1.
         13   -1    0    0    0    0 -0.00000000000E+00 -0.00000000000E+00 -0.10000000000E+04  0.10000000000E+04  0.00000000000E+00 0.  1.
    9000005    2    1    2  501    0 -0.43258436827E+01 -0.87140422879E+01 -0.78502064869E+03  0.78514670516E+03  0.10162790354E+02 0.  0.
         13    1    3    3    0    0  0.11420669823E+00 -0.43219421651E+01 -0.60891607485E+03  0.60893142343E+03  0.00000000000E+00 0.  1.
          3    1    3    3  501    0 -0.44400503809E+01 -0.43921001229E+01 -0.17610457384E+03  0.17621528174E+03  0.00000000000E+00 0.  1.
         -3    1    1    2    0  502  0.43258436827E+01  0.87140422879E+01 -0.21480622504E+03  0.21502642111E+03  0.00000000000E+00 0. -1.
<mgrwt>
<rscale>  1 0.30000000E+03</rscale>
<asrwt>0</asrwt>
<pdfrwt beam="1">  1       21 0.62955140E-03 0.30000000E+03</pdfrwt>
<pdfrwt beam="2">0</pdfrwt>
<totfact> 0.83749683E+05</totfact>
</mgrwt>
</event>
<event>
 6    1  0.1132867E-002  0.3000000E+03  0.7818608E-02  0.1093470E+00
         21   -1    0    0  501  502  0.00000000000E+00  0.00000000000E+00  0.11655147211E+00  0.11655147211E+00  0.00000000000E+00 0. -1.
         13   -1    0    0    0    0 -0.00000000000E+00 -0.00000000000E+00 -0.10000000000E+04  0.10000000000E+04  0.00000000000E+00 0.  1.
    9000005    2    1    2  501    0  0.81786398198E+01 -0.50967466742E+01 -0.61170290275E+03  0.61181640584E+03  0.67827906236E+01 0.  0.
         13    1    3    3    0    0  0.53728911379E+01 -0.46426852645E+01 -0.24601335600E+03  0.24611581383E+03  0.00000000000E+00 0.  1.
          3    1    3    3  501    0  0.28057486819E+01 -0.45406140968E+00 -0.36568954675E+03  0.36570059201E+03  0.00000000000E+00 0.  1.
         -1    1    1    2    0  502 -0.81786398198E+01  0.50967466742E+01 -0.38818054578E+03  0.38830014563E+03  0.00000000000E+00 0. -1.
<mgrwt>
<rscale>  1 0.30000000E+03</rscale>
<asrwt>0</asrwt>
<pdfrwt beam="1">  1       21 0.42382443E-03 0.30000000E+03</pdfrwt>
<pdfrwt beam="2">0</pdfrwt>
<totfact> 0.15488434E+06</totfact>
</mgrwt>
</event>
<event>
 6    1  0.1132867E-002  0.3000000E+03  0.7818608E-02  0.1093470E+00
         21   -1    0    0  501  502  0.00000000000E+00  0.00000000000E+00  0.11590378921E+00  0.11590378921E+00  0.00000000000E+00 0. -1.
         13   -1    0    0    0    0 -0.00000000000E+00 -0.00000000000E+00 -0.10000000000E+04  0.10000000000E+04  0.00000000000E+00 0.  1.
    9000005    2    1    2  501    0 -0.38112717743E+01  0.92598287427E+01 -0.60263022813E+03  0.60273585154E+03  0.52004474881E+01 0.  0.
         13    1    3    3    0    0 -0.41878727375E+01  0.38324833398E+01 -0.25601477328E+03  0.25607770372E+03  0.00000000000E+00 0.  1.
          1    1    3    3  501    0  0.37660096319E+00  0.54273454029E+01 -0.34661545486E+03  0.34665814782E+03  0.00000000000E+00 0.  1.
         -3    1    1    2    0  502  0.38112717743E+01 -0.92598287427E+01 -0.39725386808E+03  0.39738005225E+03  0.00000000000E+00 0. -1.
<mgrwt>
<rscale>  1 0.30000000E+03</rscale>
<asrwt>0</asrwt>
<pdfrwt beam="1">  1       21 0.42146921E-03 0.30000000E+03</pdfrwt>
<pdfrwt beam="2">0</pdfrwt>
<totfact> 0.15622314E+06</totfact>
</mgrwt>
</event>
<event>
 6    1  0.1132867E-002  0.3000000E+03  0.7818608E-02  0.1093470E+00
         21   -1    0    0  501  502  0.00000000000E+00  0.00000000000E+00  0.32237762927E+01  0.32237762927E+01  0.00000000000E+00 0. -1.
         13   -1    0    0    0    0 -0.00000000000E+00 -0.00000000000E+00 -0.10000000000E+04  0.10000000000E+04  0.00000000000E+00 0.  1.
    9000005    2    1    2  501    0  0.20970972412E+02  0.77946549772E+01 -0.95926069947E+03  0.95954365622E+03  0.65115535548E+01 0.  0.
         13    1    3    3    0    0  0.11652958985E+02  0.26561795930E+01 -0.62299944151E+03  0.62311407532E+03  0.00000000000E+00 0.  1.
          3    1    3    3  501    0  0.93180134268E+01  0.51384753842E+01 -0.33626125796E+03  0.33642958091E+03  0.00000000000E+00 0.  1.
         -3    1    1    2    0  502 -0.20970972412E+02 -0.77946549772E+01 -0.37515524242E+02  0.43680120070E+02  0.00000000000E+00 0. -1.
<mgrwt>
<rscale>  1 0.30000000E+03</rscale>
<asrwt>0</asrwt>
<pdfrwt beam="1">  1       21 0.11722848E-01 0.30000000E+03</pdfrwt>
<pdfrwt beam="2">0</pdfrwt>
<totfact> 0.64652240E+03</totfact>
</mgrwt>
</event>
<event>
 6    1  0.1132867E-002  0.3000000E+03  0.7818608E-02  0.1093470E+00
         21   -1    0    0  501  502  0.00000000000E+00  0.00000000000E+00  0.21796376390E+00  0.21796376390E+00  0.00000000000E+00 0. -1.
         13   -1    0    0    0    0 -0.00000000000E+00 -0.00000000000E+00 -0.10000000000E+04  0.10000000000E+04  0.00000000000E+00 0.  1.
    9000005    2    1    2  501    0 -0.10338425090E+02 -0.59186238643E+01 -0.78459072851E+03  0.78469717112E+03  0.50125796864E+01 0.  0.
         13    1    3    3    0    0 -0.75939533682E+01 -0.36759748369E+01 -0.39377723817E+03  0.39386761001E+03  0.00000000000E+00 0.  1.
          1    1    3    3  501    0 -0.27444717222E+01 -0.22426490274E+01 -0.39081349035E+03  0.39082956111E+03  0.00000000000E+00 0.  1.
         -1    1    1    2    0  502  0.10338425090E+02  0.59186238643E+01 -0.21519130772E+03  0.21552079264E+03  0.00000000000E+00 0. -1.
<mgrwt>
<rscale>  1 0.30000000E+03</rscale>
<asrwt>0</asrwt>
<pdfrwt beam="1">  1       21 0.79259718E-03 0.30000000E+03</pdfrwt>
<pdfrwt beam="2">0</pdfrwt>
<totfact> 0.58353893E+05</totfact>
</mgrwt>
</event>
<event>
 6    1  0.1132867E-002  0.3000000E+03  0.7818608E-02  0.1093470E+00
         21   -1    0    0  501  502  0.00000000000E+00  0.00000000000E+00  0.25343774836E+00  0.25343774836E+00  0.00000000000E+00 0. -1.
         13   -1    0    0    0    0 -0.00000000000E+00 -0.00000000000E+00 -0.10000000000E+04  0.10000000000E+04  0.00000000000E+00 0.  1.
    9000005    2    1    2  501    0 -0.58052896425E+01 -0.11861372175E+02 -0.71318731949E+03  0.71339006757E+03  0.10716449464E+02 0.  0.
         13    1    3    3    0    0 -0.16920534468E+01 -0.14307957003E+01 -0.21898912524E+02  0.22010738083E+02  0.00000000000E+00 0.  1.
          3    1    3    3  501    0 -0.41132361957E+01 -0.10430576475E+02 -0.69128840696E+03  0.69137932948E+03  0.00000000000E+00 0.  1.
         -3    1    1    2    0  502  0.58052896425E+01  0.11861372175E+02 -0.28655924277E+03  0.28686337018E+03  0.00000000000E+00 0. -1.
<mgrwt>
<rscale>  1 0.30000000E+03</rscale>
<asrwt>0</asrwt>
<pdfrwt beam="1">  1       21 0.92159376E-03 0.30000000E+03</pdfrwt>
<pdfrwt beam="2">0</pdfrwt>
<totfact> 0.45991565E+05</totfact>
</mgrwt>
</event>
<event>
 6    1  0.1132867E-002  0.3000000E+03  0.7818608E-02  0.1093470E+00
         21   -1    0    0  501  502  0.00000000000E+00  0.00000000000E+00  0.33490967823E+00  0.33490967823E+00  0.00000000000E+00 0. -1.
         13   -1    0    0    0    0 -0.00000000000E+00 -0.00000000000E+00 -0.10000000000E+04  0.10000000000E+04  0.00000000000E+00 0.  1.
    9000005    2    1    2  501    0  0.10235910675E+02  0.89392887769E+01 -0.22913503789E+03  0.22968502389E+03  0.82255615863E+01 0.  0.
         13    1    3    3    0    0  0.16205594345E+01  0.18518221398E+01 -0.11315343740E+02  0.11579829967E+02  0.00000000000E+00 0.  1.
          1    1    3    3  501    0  0.86153512400E+01  0.70874666371E+01 -0.21781969415E+03  0.21810519393E+03  0.00000000000E+00 0.  1.
         -3    1    1    2    0  502 -0.10235910675E+02 -0.89392887769E+01 -0.77053005244E+03  0.77064988578E+03  0.00000000000E+00 0. -1.
<mgrwt>
<rscale>  1 0.30000000E+03</rscale>
<asrwt>0</asrwt>
<pdfrwt beam="1">  1       21 0.12178559E-02 0.30000000E+03</pdfrwt>
<pdfrwt beam="2">0</pdfrwt>
<totfact> 0.29521934E+05</totfact>
</mgrwt>
</event>
<event>
 6    1  0.1132867E-002  0.3000000E+03  0.7818608E-02  0.1093470E+00
         21   -1    0    0  501  502  0.00000000000E+00  0.00000000000E+00  0.12430111716E+00  0.12430111716E+00  0.00000000000E+00 0. -1.
         13   -1    0    0    0    0 -0.00000000000E+00 -0.00000000000E+00 -0.10000000000E+04  0.10000000000E+04  0.00000000000E+00 0.  1.
    9000005    2    1    2  501    0 -0.41196912577E+01 -0.93554331555E+01 -0.64586967222E+03  0.64597071452E+03  0.51024052289E+01 0.  0.
         13    1    3    3    0    0  0.89111240203E-01 -0.59064753966E+01 -0.37326955738E+03  0.37331629600E+03  0.00000000000E+00 0.  1.
          1    1    3    3  501    0 -0.42088024979E+01 -0.34489577590E+01 -0.27260011484E+03  0.27265441852E+03  0.00000000000E+00 0.  1.
         -1    1    1    2    0  502  0.41196912577E+01  0.93554331555E+01 -0.35400602667E+03  0.35415358660E+03  0.00000000000E+00 0. -1.
<mgrwt>
<rscale>  1 0.30000000E+03</rscale>
<asrwt>0</asrwt>
<pdfrwt beam="1">  1       21 0.45200502E-03 0.30000000E+03</pdfrwt>
<pdfrwt beam="2">0</pdfrwt>
<totfact> 0.14021273E+06</totfact>
</mgrwt>
</event>
<event>
 6    1  0.1132867E-002  0.3000000E+03  0.7818608E-02  0.1093470E+00
         21   -1    0    0  501  502  0.00000000000E+00  0.00000000000E+00  0.12204616249E+01  0.12204616249E+01  0.00000000000E+00 0. -1.
         13   -1    0    0    0    0 -0.00000000000E+00 -0.00000000000E+00 -0.10000000000E+04  0.10000000000E+04  0.00000000000E+00 0.  1.
    9000005    2    1    2  501    0 -0.21244830140E+02 -0.57256311306E+00 -0.89041636129E+03  0.89079288905E+03  0.14798787040E+02 0.  0.
         13    1    3    3    0    0 -0.15027535022E+02  0.33076537922E+01 -0.36346044507E+03  0.36378601198E+03  0.00000000000E+00 0.  1.
          3    1    3    3  501    0 -0.62172951179E+01 -0.38802169052E+01 -0.52695591623E+03  0.52700687708E+03  0.00000000000E+00 0.  1.
         -1    1    1    2    0  502  0.21244830140E+02  0.57256311306E+00 -0.10836317708E+03  0.11042757257E+03  0.00000000000E+00 0. -1.
<mgrwt>
<rscale>  1 0.30000000E+03</rscale>
<asrwt>0</asrwt>
<pdfrwt beam="1">  1       21 0.44380516E-02 0.30000000E+03</pdfrwt>
<pdfrwt beam="2">0</pdfrwt>
<totfact> 0.35277881E+04</totfact>
</mgrwt>
</event>
<event>
 6    1  0.1132867E-002  0.3000000E+03  0.7818608E-02  0.1093470E+00
         21   -1    0    0  501  502  0.00000000000E+00  0.00000000000E+00  0.32023206979E+00  0.32023206979E+00  0.00000000000E+00 0. -1.
         13   -1    0    0    0    0 -0.00000000000E+00 -0.00000000000E+00 -0.10000000000E+04  0.10000000000E+04  0.00000000000E+00 0.  1.
    9000005    2    1    2  501    0  0.13907670522E+02 -0.35967145547E+01 -0.75389654016E+03  0.75411756209E+03  0.11266966031E+02 0.  0.
         13    1    3    3    0    0 -0.14145372097E+01 -0.24172129312E+01 -0.91851487506E+02  0.91894176045E+02  0.00000000000E+00 0.  1.
          3    1    3    3  501    0  0.15322207732E+02 -0.11795016235E+01 -0.66204505266E+03  0.66222338604E+03  0.00000000000E+00 0.  1.
         -1    1    1    2    0  502 -0.13907670522E+02  0.35967145547E+01 -0.24578322777E+03  0.24620266998E+03  0.00000000000E+00 0. -1.
<mgrwt>
<rscale>  1 0.30000000E+03</rscale>
<asrwt>0</asrwt>
<pdfrwt beam="1">  1       21 0.11644827E-02 0.30000000E+03</pdfrwt>
<pdfrwt beam="2">0</pdfrwt>
<totfact> 0.31711632E+05</totfact>
</mgrwt>
</event>
<event>
 6    1  0.1132867E-002  0.3000000E+03  0.7818608E-02  0.1093470E+00
         21   -1    0    0  501  502  0.00000000000E+00  0.00000000000E+00  0.41451717703E+00  0.41451717703E+00  0.00000000000E+00 0. -1.
         13   -1    0    0    0    0 -0.00000000000E+00 -0.00000000000E+00 -0.10000000000E+04  0.10000000000E+04  0.00000000000E+00 0.  1.
    9000005    2    1    2  501    0  0.10788457105E+02  0.11895075174E+02 -0.55579095609E+03  0.55632954155E+03  0.18468576256E+02 0.  0.
         13    1    3    3    0    0  0.91370736524E+01  0.16342802928E+02 -0.49488807414E+03  0.49524214204E+03  0.00000000000E+00 0.  1.
          3    1    3    3  501    0  0.16513834530E+01 -0.44477277534E+01 -0.60902881945E+02  0.61087399508E+02  0.00000000000E+00 0.  1.
         -1    1    1    2    0  502 -0.10788457105E+02 -0.11895075174E+02 -0.44379452674E+03  0.44408497563E+03  0.00000000000E+00 0. -1.
<mgrwt>
<rscale>  1 0.30000000E+03</rscale>
<asrwt>0</asrwt>
<pdfrwt beam="1">  1       21 0.15073384E-02 0.30000000E+03</pdfrwt>
<pdfrwt beam="2">0</pdfrwt>
<totfact> 0.20964860E+05</totfact>
</mgrwt>
</event>
<event>
 6    1  0.1132867E-002  0.3000000E+03  0.7818608E-02  0.1093470E+00
         21   -1    0    0  501  502  0.00000000000E+00  0.00000000000E+00  0.17111480254E+00  0.17111480254E+00  0.00000000000E+00 0. -1.
         13   -1    0    0    0    0 -0.00000000000E+00 -0.00000000000E+00 -0.10000000000E+04  0.10000000000E+04  0.00000000000E+00 0.  1.
    9000005    2    1    2  501    0 -0.56071369175E+01  0.69419719659E+01 -0.80204854933E+03  0.80218956967E+03  0.12107817219E+02 0.  0.
         13    1    3    3    0    0 -0.24837909103E+01 -0.29075476782E+01 -0.11554255686E+03  0.11560581947E+03  0.00000000000E+00 0.  1.
          1    1    3    3  501    0 -0.31233460072E+01  0.98495196441E+01 -0.68650599248E+03  0.68658375020E+03  0.00000000000E+00 0.  1.
         -3    1    1    2    0  502  0.56071369175E+01 -0.69419719659E+01 -0.19778033586E+03  0.19798154513E+03  0.00000000000E+00 0. -1.
<mgrwt>
<rscale>  1 0.30000000E+03</rscale>
<asrwt>0</asrwt>
<pdfrwt beam="1">  1       21 0.62223696E-03 0.30000000E+03</pdfrwt>
<pdfrwt beam="2">0</pdfrwt>
<totfact> 0.85294355E+05</totfact>
</mgrwt>
</event>
<event>
 6    1  0.1132867E-002  0.3000000E+03  0.7818608E-02  0.1093470E+00
         21   -1    0    0  501  502  0.00000000000E+00  0.00000000000E+00  0.82628280921E-01  0.82628280921E-01  0.00000000000E+00 0. -1.
         13   -1    0    0    0    0 -0.00000000000E+00 -0.00000000000E+00 -0.10000000000E+04  0.10000000000E+04  0.00000000000E+00 0.  1.
    9000005    2    1    2  501    0 -0.90250048191E+00 -0.76526438658E+01 -0.58544258153E+03  0.58553621451E+03  0.70897653613E+01 0.  0.
         13    1    3    3    0    0  0.79768118102E-01 -0.85038570603E+01 -0.55590976842E+03  0.55597481290E+03  0.00000000000E+00 0.  1.
          3    1    3    3  501    0 -0.98226860002E+00  0.85121319449E+00 -0.29532813104E+02  0.29561401613E+02  0.00000000000E+00 0.  1.
         -3    1    1    2    0  502  0.90250048191E+00  0.76526438658E+01 -0.41447479019E+03  0.41454641377E+03  0.00000000000E+00 0. -1.
<mgrwt>
<rscale>  1 0.30000000E+03</rscale>
<asrwt>0</asrwt>
<pdfrwt beam="1">  1       21 0.30046711E-03 0.30000000E+03</pdfrwt>
<pdfrwt beam="2">0</pdfrwt>
<totfact> 0.26287593E+06</totfact>
</mgrwt>
</event>
<event>
 6    1  0.1132867E-002  0.3000000E+03  0.7818608E-02  0.1093470E+00
         21   -1    0    0  501  502  0.00000000000E+00  0.00000000000E+00  0.11620985182E+01  0.11620985182E+01  0.00000000000E+00 0. -1.
         13   -1    0    0    0    0 -0.00000000000E+00 -0.00000000000E+00 -0.10000000000E+04  0.10000000000E+04  0.00000000000E+00 0.  1.
    9000005    2    1    2  501    0 -0.11718894406E+02  0.20041785691E+01 -0.95479105845E+03  0.95553892898E+03  0.35879385148E+02 0.  0.
         13    1    3    3    0    0 -0.20884622761E+02  0.10679217260E+02 -0.74457839858E+03  0.74494778661E+03  0.00000000000E+00 0.  1.
          3    1    3    3  501    0  0.91657283555E+01 -0.86750386907E+01 -0.21021265987E+03  0.21059114236E+03  0.00000000000E+00 0.  1.
         -3    1    1    2    0  502  0.11718894406E+02 -0.20041785691E+01 -0.44046843034E+02  0.45623169543E+02  0.00000000000E+00 0. -1.
<mgrwt>
<rscale>  1 0.30000000E+03</rscale>
<asrwt>0</asrwt>
<pdfrwt beam="1">  1       21 0.42258217E-02 0.30000000E+03</pdfrwt>
<pdfrwt beam="2">0</pdfrwt>
<totfact> 0.38327631E+04</totfact>
</mgrwt>
</event>
<event>
 6    1  0.1132867E-002  0.3000000E+03  0.7818608E-02  0.1093470E+00
         21   -1    0    0  501  502  0.00000000000E+00  0.00000000000E+00  0.14633252005E+00  0.14633252005E+00  0.00000000000E+00 0. -1.
         13   -1    0    0    0    0 -0.00000000000E+00 -0.00000000000E+00 -0.10000000000E+04  0.10000000000E+04  0.00000000000E+00 0.  1.
    9000005    2    1    2  501    0 -0.19901909007E+01 -0.10926943761E+02 -0.44633443573E+03  0.44651568048E+03  0.62020510731E+01 0.  0.
         13    1    3    3    0    0 -0.28443877103E+01 -0.11318220770E+02 -0.42559677137E+03  0.42575674329E+03  0.00000000000E+00 0.  1.
          3    1    3    3  501    0  0.85419680958E+00  0.39127700977E+00 -0.20737664367E+02  0.20758937191E+02  0.00000000000E+00 0.  1.
         -3    1    1    2    0  502  0.19901909007E+01  0.10926943761E+02 -0.55351923175E+03  0.55363065204E+03  0.00000000000E+00 0. -1.
<mgrwt>
<rscale>  1 0.30000000E+03</rscale>
<asrwt>0</asrwt>
<pdfrwt beam="1">  1       21 0.53211938E-03 0.30000000E+03</pdfrwt>
<pdfrwt beam="2">0</pdfrwt>
<totfact> 0.10884874E+06</totfact>
</mgrwt>
</event>
<event>
 6    1  0.1132867E-002  0.3000000E+03  0.7818608E-02  0.1093470E+00
         21   -1    0    0  501  502  0.00000000000E+00  0.00000000000E+00  0.12060028679E+00  0.12060028679E+00  0.00000000000E+00 0. -1.
         13   -1    0    0    0    0 -0.00000000000E+00 -0.00000000000E+00 -0.10000000000E+04  0.10000000000E+04  0.00000000000E+00 0.  1.
    9000005    2    1    2  501    0  0.74868867450E+01 -0.34058243436E+01 -0.66579969560E+03  0.66593965856E+03  0.10896837626E+02 0.  0.
         13    1    3    3    0    0 -0.27817636259E+01 -0.13242222089E+01 -0.12096115732E+03  0.12100038576E+03  0.00000000000E+00 0.  1.
          3    1    3    3  501    0  0.10268650371E+02 -0.20816021347E+01 -0.54483853828E+03  0.54493927280E+03  0.00000000000E+00 0.  1.
         -3    1    1    2    0  502 -0.74868867450E+01  0.34058243436E+01 -0.33407970412E+03  0.33418094173E+03  0.00000000000E+00 0. -1.
<mgrwt>
<rscale>  1 0.30000000E+03</rscale>
<asrwt>0</asrwt>
<pdfrwt beam="1">  1       21 0.43854742E-03 0.30000000E+03</pdfrwt>
<pdfrwt beam="2">0</pdfrwt>
<totfact> 0.14692320E+06</totfact>
</mgrwt>
</event>
<event>
 6    1  0.1132867E-002  0.3000000E+03  0.7818608E-02  0.1093470E+00
         21   -1    0    0  501  502  0.00000000000E+00  0.00000000000E+00  0.10515152668E+00  0.10515152668E+00  0.00000000000E+00 0.  1.
         13   -1    0    0    0    0 -0.00000000000E+00 -0.00000000000E+00 -0.10000000000E+04  0.10000000000E+04  0.00000000000E+00 0.  1.
    9000005    2    1    2  501    0 -0.57513120834E+01 -0.57345329309E+01 -0.65334492497E+03  0.65346007087E+03  0.91929749054E+01 0.  0.
         13    1    3    3    0    0 -0.15215694858E+01 -0.74184002409E+01 -0.35824665579E+03  0.35832668645E+03  0.00000000000E+00 0.  1.
          3    1    3    3  501    0 -0.42297425976E+01  0.16838673100E+01 -0.29509826918E+03  0.29513338443E+03  0.00000000000E+00 0.  1.
         -1    1    1    2    0  502  0.57513120834E+01  0.57345329309E+01 -0.34654992351E+03  0.34664508065E+03  0.00000000000E+00 0. -1.
<mgrwt>
<rscale>  1 0.30000000E+03</rscale>
<asrwt>0</asrwt>
<pdfrwt beam="1">  1       21 0.38236999E-03 0.30000000E+03</pdfrwt>
<pdfrwt beam="2">0</pdfrwt>
<totfact> 0.18154470E+06</totfact>
</mgrwt>
</event>
<event>
 6    1  0.1132867E-002  0.3000000E+03  0.7818608E-02  0.1093470E+00
         21   -1    0    0  501  502  0.00000000000E+00  0.00000000000E+00  0.28711298158E+00  0.28711298158E+00  0.00000000000E+00 0. -1.
         13   -1    0    0    0    0 -0.00000000000E+00 -0.00000000000E+00 -0.10000000000E+04  0.10000000000E+04  0.00000000000E+00 0.  1.
    9000005    2    1    2  501    0  0.15903959247E+02 -0.28296373030E+01 -0.58179294331E+03  0.58205509350E+03  0.66453157727E+01 0.  0.
         13    1    3    3    0    0  0.10192247942E+02 -0.35209295960E+01 -0.45995298537E+03  0.46007937099E+03  0.00000000000E+00 0.  1.
          3    1    3    3  501    0  0.57117113049E+01  0.69129229301E+00 -0.12183995794E+03  0.12197572251E+03  0.00000000000E+00 0.  1.
         -1    1    1    2    0  502 -0.15903959247E+02  0.28296373030E+01 -0.41791994371E+03  0.41823201948E+03  0.00000000000E+00 0. -1.
<mgrwt>
<rscale>  1 0.30000000E+03</rscale>
<asrwt>0</asrwt>
<pdfrwt beam="1">  1       21 0.10440494E-02 0.30000000E+03</pdfrwt>
<pdfrwt beam="2">0</pdfrwt>
<totfact> 0.37733671E+05</totfact>
</mgrwt>
</event>
<event>
 6    1  0.1132867E-002  0.3000000E+03  0.7818608E-02  0.1093470E+00
         21   -1    0    0  501  502  0.00000000000E+00  0.00000000000E+00  0.34172096051E+00  0.34172096051E+00  0.00000000000E+00 0. -1.
         13   -1    0    0    0    0 -0.00000000000E+00 -0.00000000000E+00 -0.10000000000E+04  0.10000000000E+04  0.00000000000E+00 0.  1.
    9000005    2    1    2  501    0 -0.11246024826E+02 -0.82834781501E+01 -0.37478978117E+03  0.37531713847E+03  0.14159282365E+02 0.  0.
         13    1    3    3    0    0 -0.42781235095E+01 -0.10073594837E+02 -0.29521964752E+03  0.29542244318E+03  0.00000000000E+00 0.  1.
          3    1    3    3  501    0 -0.69679013161E+01  0.17901166871E+01 -0.79570133651E+02  0.79894695292E+02  0.00000000000E+00 0.  1.
         -3    1    1    2    0  502  0.11246024826E+02  0.82834781501E+01 -0.62486849787E+03  0.62502458249E+03  0.00000000000E+00 0. -1.
<mgrwt>
<rscale>  1 0.30000000E+03</rscale>
<asrwt>0</asrwt>
<pdfrwt beam="1">  1       21 0.12426243E-02 0.30000000E+03</pdfrwt>
<pdfrwt beam="2">0</pdfrwt>
<totfact> 0.28586803E+05</totfact>
</mgrwt>
</event>
<event>
 6    1  0.1132867E-002  0.3000000E+03  0.7818608E-02  0.1093470E+00
         21   -1    0    0  501  502  0.00000000000E+00  0.00000000000E+00  0.28506143037E+00  0.28506143037E+00  0.00000000000E+00 0. -1.
         13   -1    0    0    0    0 -0.00000000000E+00 -0.00000000000E+00 -0.10000000000E+04  0.10000000000E+04  0.00000000000E+00 0.  1.
    9000005    2    1    2  501    0  0.64237812401E+01  0.88915391594E+01 -0.87382385863E+03  0.87391699409E+03  0.65155368684E+01 0.  0.
         13    1    3    3    0    0  0.54253033366E+01  0.34180348470E+01 -0.61450740052E+03  0.61454085476E+03  0.00000000000E+00 0.  1.
          3    1    3    3  501    0  0.99847790350E+00  0.54735043124E+01 -0.25931645811E+03  0.25937613933E+03  0.00000000000E+00 0.  1.
         -1    1    1    2    0  502 -0.64237812401E+01 -0.88915391594E+01 -0.12589107994E+03  0.12636806734E+03  0.00000000000E+00 0. -1.
<mgrwt>
<rscale>  1 0.30000000E+03</rscale>
<asrwt>0</asrwt>
<pdfrwt beam="1">  1       21 0.10365892E-02 0.30000000E+03</pdfrwt>
<pdfrwt beam="2">0</pdfrwt>
<totfact> 0.38166496E+05</totfact>
</mgrwt>
</event>
<event>
 6    1  0.1132867E-002  0.3000000E+03  0.7818608E-02  0.1093470E+00
         21   -1    0    0  501  502  0.00000000000E+00  0.00000000000E+00  0.45564012583E+00  0.45564012583E+00  0.00000000000E+00 0. -1.
         13   -1    0    0    0    0 -0.00000000000E+00 -0.00000000000E+00 -0.10000000000E+04  0.10000000000E+04  0.00000000000E+00 0.  1.
    9000005    2    1    2  501    0 -0.16779418764E+02  0.13968069974E+01 -0.49091328636E+03  0.49154595373E+03  0.18386678309E+02 0.  0.
         13    1    3    3    0    0 -0.15262005623E+01 -0.51741092286E+01 -0.44799652033E+02  0.45123270235E+02  0.00000000000E+00 0.  1.
          3    1    3    3  501    0 -0.15253218202E+02  0.65709162260E+01 -0.44611363433E+03  0.44642268349E+03  0.00000000000E+00 0.  1.
         -3    1    1    2    0  502  0.16779418764E+02 -0.13968069974E+01 -0.50863107351E+03  0.50890968640E+03  0.00000000000E+00 0. -1.
<mgrwt>
<rscale>  1 0.30000000E+03</rscale>
<asrwt>0</asrwt>
<pdfrwt beam="1">  1       21 0.16568767E-02 0.30000000E+03</pdfrwt>
<pdfrwt beam="2">0</pdfrwt>
<totfact> 0.17995815E+05</totfact>
</mgrwt>
</event>
<event>
 6    1  0.1132867E-002  0.3000000E+03  0.7818608E-02  0.1093470E+00
         21   -1    0    0  501  502  0.00000000000E+00  0.00000000000E+00  0.19667938186E+00  0.19667938186E+00  0.00000000000E+00 0. -1.
         13   -1    0    0    0    0 -0.00000000000E+00 -0.00000000000E+00 -0.10000000000E+04  0.10000000000E+04  0.00000000000E+00 0.  1.
    9000005    2    1    2  501    0 -0.18606654759E+01  0.11038113194E+02 -0.77807753482E+03  0.77818851263E+03  0.68854172839E+01 0.  0.
         13    1    3    3    0    0  0.21626942831E+01  0.23269781164E+01 -0.12440189283E+03  0.12444244860E+03  0.00000000000E+00 0.  1.
          3    1    3    3  501    0 -0.40233597590E+01  0.87111350778E+01 -0.65367564200E+03  0.65374606403E+03  0.00000000000E+00 0.  1.
         -3    1    1    2    0  502  0.18606654759E+01 -0.11038113194E+02 -0.22172578579E+03  0.22200816675E+03  0.00000000000E+00 0. -1.
<mgrwt>
<rscale>  1 0.30000000E+03</rscale>
<asrwt>0</asrwt>
<pdfrwt beam="1">  1       21 0.71519926E-03 0.30000000E+03</pdfrwt>
<pdfrwt beam="2">0</pdfrwt>
<totfact> 0.68583185E+05</totfact>
</mgrwt>
</event>
<event>
 6    1  0.1132867E-002  0.3000000E+03  0.7818608E-02  0.1093470E+00
         21   -1    0    0  501  502  0.00000000000E+00  0.00000000000E+00  0.34537834822E+00  0.34537834822E+00  0.00000000000E+00 0. -1.
         13   -1    0    0    0    0 -0.00000000000E+00 -0.00000000000E+00 -0.10000000000E+04  0.10000000000E+04  0.00000000000E+00 0.  1.
    9000005    2    1    2  501    0 -0.14620321087E+02 -0.38751561354E+01 -0.71923312391E+03  0.71951627192E+03  0.13364445323E+02 0.  0.
         13    1    3    3    0    0 -0.16186839197E+02 -0.40242355110E+00 -0.61631795868E+03  0.61653061716E+03  0.00000000000E+00 0.  1.
          3    1    3    3  501    0  0.15665181092E+01 -0.34727325843E+01 -0.10291516524E+03  0.10298565476E+03  0.00000000000E+00 0.  1.
         -1    1    1    2    0  502  0.14620321087E+02  0.38751561354E+01 -0.28042149774E+03  0.28082910643E+03  0.00000000000E+00 0. -1.
<mgrwt>
<rscale>  1 0.30000000E+03</rscale>
<asrwt>0</asrwt>
<pdfrwt beam="1">  1       21 0.12559239E-02 0.30000000E+03</pdfrwt>
<pdfrwt beam="2">0</pdfrwt>
<totfact> 0.28104026E+05</totfact>
</mgrwt>
</event>
<event>
 6    1  0.1132867E-002  0.3000000E+03  0.7818608E-02  0.1093470E+00
         21   -1    0    0  501  502  0.00000000000E+00  0.00000000000E+00  0.10570682595E+00  0.10570682595E+00  0.00000000000E+00 0. -1.
         13   -1    0    0    0    0 -0.00000000000E+00 -0.00000000000E+00 -0.10000000000E+04  0.10000000000E+04  0.00000000000E+00 0.  1.
    9000005    2    1    2  501    0  0.70038704419E+01 -0.52398269074E+01 -0.70775007936E+03  0.70783057677E+03  0.61188709767E+01 0.  0.
         13    1    3    3    0    0  0.80115230596E+01 -0.37301344034E+01 -0.60341841818E+03  0.60348312802E+03  0.00000000000E+00 0.  1.
          3    1    3    3  501    0 -0.10076526177E+01 -0.15096925041E+01 -0.10433166118E+03  0.10434744875E+03  0.00000000000E+00 0.  1.
         -1    1    1    2    0  502 -0.70038704419E+01  0.52398269074E+01 -0.29214421381E+03  0.29227513006E+03  0.00000000000E+00 0. -1.
<mgrwt>
<rscale>  1 0.30000000E+03</rscale>
<asrwt>0</asrwt>
<pdfrwt beam="1">  1       21 0.38438927E-03 0.30000000E+03</pdfrwt>
<pdfrwt beam="2">0</pdfrwt>
<totfact> 0.18007642E+06</totfact>
</mgrwt>
</event>
<event>
 6    1  0.1132867E-002  0.3000000E+03  0.7818608E-02  0.1093470E+00
         21   -1    0    0  501  502  0.00000000000E+00  0.00000000000E+00  0.14935858443E+00  0.14935858443E+00  0.00000000000E+00 0. -1.
         13   -1    0    0    0    0 -0.00000000000E+00 -0.00000000000E+00 -0.10000000000E+04  0.10000000000E+04  0.00000000000E+00 0.  1.
    9000005    2    1    2  501    0  0.82130870159E+01 -0.37177310554E+01 -0.71205610337E+03  0.71221364969E+03  0.11962948988E+02 0.  0.
         13    1    3    3    0    0  0.89775036349E+01  0.28457180334E+00 -0.62261006416E+03  0.62267484977E+03  0.00000000000E+00 0.  1.
          1    1    3    3  501    0 -0.76441661900E+00 -0.40023028588E+01 -0.89446039209E+02  0.89538799920E+02  0.00000000000E+00 0.  1.
         -3    1    1    2    0  502 -0.82130870159E+01  0.37177310554E+01 -0.28779453805E+03  0.28793570889E+03  0.00000000000E+00 0. -1.
<mgrwt>
<rscale>  1 0.30000000E+03</rscale>
<asrwt>0</asrwt>
<pdfrwt beam="1">  1       21 0.54312327E-03 0.30000000E+03</pdfrwt>
<pdfrwt beam="2">0</pdfrwt>
<totfact> 0.10543827E+06</totfact>
</mgrwt>
</event>
<event>
 6    1  0.1132867E-002  0.3000000E+03  0.7818608E-02  0.1093470E+00
         21   -1    0    0  501  502  0.00000000000E+00  0.00000000000E+00  0.82534620378E-01  0.82534620378E-01  0.00000000000E+00 0. -1.
         13   -1    0    0    0    0 -0.00000000000E+00 -0.00000000000E+00 -0.10000000000E+04  0.10000000000E+04  0.00000000000E+00 0.  1.
    9000005    2    1    2  501    0 -0.14304559415E+01  0.80422083370E+01 -0.39864756133E+03  0.39875714780E+03  0.45454865416E+01 0.  0.
         13    1    3    3    0    0 -0.89569510381E+00  0.70164953611E+01 -0.38359311029E+03  0.38365832161E+03  0.00000000000E+00 0.  1.
          3    1    3    3  501    0 -0.53476083768E+00  0.10257129759E+01 -0.15054451040E+02  0.15098826192E+02  0.00000000000E+00 0.  1.
         -3    1    1    2    0  502  0.14304559415E+01 -0.80422083370E+01 -0.60126990405E+03  0.60132538682E+03  0.00000000000E+00 0. -1.
<mgrwt>
<rscale>  1 0.30000000E+03</rscale>
<asrwt>0</asrwt>
<pdfrwt beam="1">  1       21 0.30012653E-03 0.30000000E+03</pdfrwt>
<pdfrwt beam="2">0</pdfrwt>
<totfact> 0.26333302E+06</totfact>
</mgrwt>
</event>
<event>
 6    1  0.1132867E-002  0.3000000E+03  0.7818608E-02  0.1093470E+00
         21   -1    0    0  501  502  0.00000000000E+00  0.00000000000E+00  0.18998518573E+00  0.18998518573E+00  0.00000000000E+00 0. -1.
         13   -1    0    0    0    0 -0.00000000000E+00 -0.00000000000E+00 -0.10000000000E+04  0.10000000000E+04  0.00000000000E+00 0.  1.
    9000005    2    1    2  501    0 -0.93139581109E+01 -0.65234827156E+00 -0.32041049777E+03  0.32072631498E+03  0.10738094028E+02 0.  0.
         13    1    3    3    0    0  0.76461294758E+00 -0.22339873502E+01 -0.19426999133E+02  0.19569967495E+02  0.00000000000E+00 0.  1.
          3    1    3    3  501    0 -0.10078571058E+02  0.15816390787E+01 -0.30098349864E+03  0.30115634748E+03  0.00000000000E+00 0.  1.
         -1    1    1    2    0  502  0.93139581109E+01  0.65234827156E+00 -0.67939951704E+03  0.67946367021E+03  0.00000000000E+00 0. -1.
<mgrwt>
<rscale>  1 0.30000000E+03</rscale>
<asrwt>0</asrwt>
<pdfrwt beam="1">  1       21 0.69085668E-03 0.30000000E+03</pdfrwt>
<pdfrwt beam="2">0</pdfrwt>
<totfact> 0.72410208E+05</totfact>
</mgrwt>
</event>
<event>
 6    1  0.1132867E-002  0.3000000E+03  0.7818608E-02  0.1093470E+00
         21   -1    0    0  501  502  0.00000000000E+00  0.00000000000E+00  0.23780184900E+00  0.23780184900E+00  0.00000000000E+00 0. -1.
         13   -1    0    0    0    0 -0.00000000000E+00 -0.00000000000E+00 -0.10000000000E+04  0.10000000000E+04  0.00000000000E+00 0.  1.
    9000005    2    1    2  501    0  0.19928029457E+01 -0.10484473278E+02 -0.85135878298E+03  0.85145114560E+03  0.65863906651E+01 0.  0.
         13    1    3    3    0    0  0.10360019023E+01 -0.62911249209E+01 -0.70588059623E+03  0.70590939056E+03  0.00000000000E+00 0.  1.
          1    1    3    3  501    0  0.95680104333E+00 -0.41933483572E+01 -0.14547818675E+03  0.14554175503E+03  0.00000000000E+00 0.  1.
         -1    1    1    2    0  502 -0.19928029457E+01  0.10484473278E+02 -0.14840341517E+03  0.14878665625E+03  0.00000000000E+00 0. -1.
<mgrwt>
<rscale>  1 0.30000000E+03</rscale>
<asrwt>0</asrwt>
<pdfrwt beam="1">  1       21 0.86473582E-03 0.30000000E+03</pdfrwt>
<pdfrwt beam="2">0</pdfrwt>
<totfact> 0.50861652E+05</totfact>
</mgrwt>
</event>
<event>
 6    1  0.1132867E-002  0.3000000E+03  0.7818608E-02  0.1093470E+00
         21   -1    0    0  501  502  0.00000000000E+00  0.00000000000E+00  0.26400576684E+00  0.26400576684E+00  0.00000000000E+00 0. -1.
         13   -1    0    0    0    0 -0.00000000000E+00 -0.00000000000E+00 -0.10000000000E+04  0.10000000000E+04  0.00000000000E+00 0.  1.
    9000005    2    1    2  501    0 -0.39830148813E+01  0.95717734588E+01 -0.84464471831E+03  0.84482659997E+03  0.14135083518E+02 0.  0.
         13    1    3    3    0    0 -0.24464249759E+01  0.12635351667E+00 -0.58568763088E+03  0.58569275386E+03  0.00000000000E+00 0.  1.
          3    1    3    3  501    0 -0.15365899055E+01  0.94454199421E+01 -0.25895708743E+03  0.25913384611E+03  0.00000000000E+00 0.  1.
         -1    1    1    2    0  502  0.39830148813E+01 -0.95717734588E+01 -0.15509127592E+03  0.15543740580E+03  0.00000000000E+00 0. -1.
<mgrwt>
<rscale>  1 0.30000000E+03</rscale>
<asrwt>0</asrwt>
<pdfrwt beam="1">  1       21 0.96002299E-03 0.30000000E+03</pdfrwt>
<pdfrwt beam="2">0</pdfrwt>
<totfact> 0.43110758E+05</totfact>
</mgrwt>
</event>
<event>
 6    1  0.1132867E-002  0.3000000E+03  0.7818608E-02  0.1093470E+00
         21   -1    0    0  501  502  0.00000000000E+00  0.00000000000E+00  0.24965970563E+00  0.24965970563E+00  0.00000000000E+00 0. -1.
         13   -1    0    0    0    0 -0.00000000000E+00 -0.00000000000E+00 -0.10000000000E+04  0.10000000000E+04  0.00000000000E+00 0.  1.
    9000005    2    1    2  501    0  0.96062716332E+01 -0.76648240432E+01 -0.79626483210E+03  0.79639338184E+03  0.73284246884E+01 0.  0.
         13    1    3    3    0    0  0.67913698173E+01 -0.59330709283E+01 -0.72057773797E+03  0.72063416551E+03  0.00000000000E+00 0.  1.
          3    1    3    3  501    0  0.28149018159E+01 -0.17317531149E+01 -0.75687094131E+02  0.75759216331E+02  0.00000000000E+00 0.  1.
         -1    1    1    2    0  502 -0.96062716332E+01  0.76648240432E+01 -0.20348550819E+03  0.20385627787E+03  0.00000000000E+00 0. -1.
<mgrwt>
<rscale>  1 0.30000000E+03</rscale>
<asrwt>0</asrwt>
<pdfrwt beam="1">  1       21 0.90785539E-03 0.30000000E+03</pdfrwt>
<pdfrwt beam="2">0</pdfrwt>
<totfact> 0.47097277E+05</totfact>
</mgrwt>
</event>
<event>
 6    1  0.1132867E-002  0.3000000E+03  0.7818608E-02  0.1093470E+00
         21   -1    0    0  501  502  0.00000000000E+00  0.00000000000E+00  0.33660400352E+00  0.33660400352E+00  0.00000000000E+00 0. -1.
         13   -1    0    0    0    0 -0.00000000000E+00 -0.00000000000E+00 -0.10000000000E+04  0.10000000000E+04  0.00000000000E+00 0.  1.
    9000005    2    1    2  501    0 -0.57548910982E+01  0.10067014005E+02 -0.85080347123E+03  0.85102571778E+03  0.15612883404E+02 0.  0.
         13    1    3    3    0    0 -0.10995014877E+02  0.49335766413E+01 -0.49548431187E+03  0.49563084432E+03  0.00000000000E+00 0.  1.
          1    1    3    3  501    0  0.52401237788E+01  0.51334373640E+01 -0.35531915935E+03  0.35539487346E+03  0.00000000000E+00 0.  1.
         -1    1    1    2    0  502  0.57548910982E+01 -0.10067014005E+02 -0.14885992477E+03  0.14931088622E+03  0.00000000000E+00 0. -1.
<mgrwt>
<rscale>  1 0.30000000E+03</rscale>
<asrwt>0</asrwt>
<pdfrwt beam="1">  1       21 0.12240171E-02 0.30000000E+03</pdfrwt>
<pdfrwt beam="2">0</pdfrwt>
<totfact> 0.29284799E+05</totfact>
</mgrwt>
</event>
<event>
 6    1  0.1132867E-002  0.3000000E+03  0.7818608E-02  0.1093470E+00
         21   -1    0    0  501  502  0.00000000000E+00  0.00000000000E+00  0.33210696371E+01  0.33210696371E+01  0.00000000000E+00 0. -1.
         13   -1    0    0    0    0 -0.00000000000E+00 -0.00000000000E+00 -0.10000000000E+04  0.10000000000E+04  0.00000000000E+00 0.  1.
    9000005    2    1    2  501    0  0.57938326331E+01 -0.16836907802E+02 -0.97523246539E+03  0.97544633519E+03  0.10007063147E+02 0.  0.
         13    1    3    3    0    0  0.92512729181E+00 -0.15125553302E+02 -0.76912055378E+03  0.76926982553E+03  0.00000000000E+00 0.  1.
          1    1    3    3  501    0  0.48687053413E+01 -0.17113545002E+01 -0.20611191161E+03  0.20617650966E+03  0.00000000000E+00 0.  1.
         -1    1    1    2    0  502 -0.57938326331E+01  0.16836907802E+02 -0.21446464968E+02  0.27874734448E+02  0.00000000000E+00 0. -1.
<mgrwt>
<rscale>  1 0.30000000E+03</rscale>
<asrwt>0</asrwt>
<pdfrwt beam="1">  1       21 0.12076642E-01 0.30000000E+03</pdfrwt>
<pdfrwt beam="2">0</pdfrwt>
<totfact> 0.61258991E+03</totfact>
</mgrwt>
</event>
<event>
 6    1  0.1132867E-002  0.3000000E+03  0.7818608E-02  0.1093470E+00
         21   -1    0    0  501  502  0.00000000000E+00  0.00000000000E+00  0.15636635077E+00  0.15636635077E+00  0.00000000000E+00 0. -1.
         13   -1    0    0    0    0 -0.00000000000E+00 -0.00000000000E+00 -0.10000000000E+04  0.10000000000E+04  0.00000000000E+00 0.  1.
    9000005    2    1    2  501    0  0.44690622848E+01  0.84410420225E+01 -0.77698914891E+03  0.77709730449E+03  0.87669504097E+01 0.  0.
         13    1    3    3    0    0 -0.10624702229E+01  0.49638642133E+00 -0.14704675539E+02  0.14751363501E+02  0.00000000000E+00 0.  1.
          3    1    3    3  501    0  0.55315325077E+01  0.79446556011E+01 -0.76228447337E+03  0.76234594099E+03  0.00000000000E+00 0.  1.
         -1    1    1    2    0  502 -0.44690622848E+01 -0.84410420225E+01 -0.22285448474E+03  0.22305906186E+03  0.00000000000E+00 0. -1.
<mgrwt>
<rscale>  1 0.30000000E+03</rscale>
<asrwt>0</asrwt>
<pdfrwt beam="1">  1       21 0.56860611E-03 0.30000000E+03</pdfrwt>
<pdfrwt beam="2">0</pdfrwt>
<totfact> 0.98174896E+05</totfact>
</mgrwt>
</event>
<event>
 6    1  0.1132867E-002  0.3000000E+03  0.7818608E-02  0.1093470E+00
         21   -1    0    0  501  502  0.00000000000E+00  0.00000000000E+00  0.19255465571E+00  0.19255465571E+00  0.00000000000E+00 0. -1.
         13   -1    0    0    0    0 -0.00000000000E+00 -0.00000000000E+00 -0.10000000000E+04  0.10000000000E+04  0.00000000000E+00 0.  1.
    9000005    2    1    2  501    0 -0.10908969309E+02  0.69616328329E+01 -0.61687907044E+03  0.61704557209E+03  0.61628357705E+01 0.  0.
         13    1    3    3    0    0 -0.88182723828E+01  0.80015495449E+01 -0.53896181365E+03  0.53909333450E+03  0.00000000000E+00 0.  1.
          1    1    3    3  501    0 -0.20906969258E+01 -0.10399167120E+01 -0.77917256792E+02  0.77952237597E+02  0.00000000000E+00 0.  1.
         -3    1    1    2    0  502  0.10908969309E+02 -0.69616328329E+01 -0.38292837490E+03  0.38314698256E+03  0.00000000000E+00 0. -1.
<mgrwt>
<rscale>  1 0.30000000E+03</rscale>
<asrwt>0</asrwt>
<pdfrwt beam="1">  1       21 0.70020022E-03 0.30000000E+03</pdfrwt>
<pdfrwt beam="2">0</pdfrwt>
<totfact> 0.70901292E+05</totfact>
</mgrwt>
</event>
<event>
 6    1  0.1132867E-002  0.3000000E+03  0.7818608E-02  0.1093470E+00
         21   -1    0    0  501  502  0.00000000000E+00  0.00000000000E+00  0.19993865029E+00  0.19993865029E+00  0.00000000000E+00 0. -1.
         13   -1    0    0    0    0 -0.00000000000E+00 -0.00000000000E+00 -0.10000000000E+04  0.10000000000E+04  0.00000000000E+00 0.  1.
    9000005    2    1    2  501    0  0.42025587165E+01 -0.10672426770E+02 -0.76690312853E+03  0.76702072965E+03  0.69877730053E+01 0.  0.
         13    1    3    3    0    0  0.47943330139E+01 -0.90729593597E+01 -0.46690989188E+03  0.46702264544E+03  0.00000000000E+00 0.  1.
          3    1    3    3  501    0 -0.59177429743E+00 -0.15994674104E+01 -0.29999323665E+03  0.29999808421E+03  0.00000000000E+00 0.  1.
         -3    1    1    2    0  502 -0.42025587165E+01  0.10672426770E+02 -0.23289693282E+03  0.23317920900E+03  0.00000000000E+00 0. -1.
<mgrwt>
<rscale>  1 0.30000000E+03</rscale>
<asrwt>0</asrwt>
<pdfrwt beam="1">  1       21 0.72705117E-03 0.30000000E+03</pdfrwt>
<pdfrwt beam="2">0</pdfrwt>
<totfact> 0.66836865E+05</totfact>
</mgrwt>
</event>
<event>
 6    1  0.1132867E-002  0.3000000E+03  0.7818608E-02  0.1093470E+00
         21   -1    0    0  501  502  0.00000000000E+00  0.00000000000E+00  0.51461141971E+00  0.51461141971E+00  0.00000000000E+00 0. -1.
         13   -1    0    0    0    0 -0.00000000000E+00 -0.00000000000E+00 -0.10000000000E+04  0.10000000000E+04  0.00000000000E+00 0.  1.
    9000005    2    1    2  501    0 -0.15904111339E+02  0.12642052031E+02 -0.51745366123E+03  0.51805492563E+03  0.14486276794E+02 0.  0.
         13    1    3    3    0    0 -0.14901434117E+02  0.35944019319E+01 -0.37289577252E+03  0.37321070406E+03  0.00000000000E+00 0.  1.
          1    1    3    3  501    0 -0.10026772216E+01  0.90476500987E+01 -0.14455788871E+03  0.14484422157E+03  0.00000000000E+00 0.  1.
         -1    1    1    2    0  502  0.15904111339E+02 -0.12642052031E+02 -0.48203172735E+03  0.48245968579E+03  0.00000000000E+00 0. -1.
<mgrwt>
<rscale>  1 0.30000000E+03</rscale>
<asrwt>0</asrwt>
<pdfrwt beam="1">  1       21 0.18713182E-02 0.30000000E+03</pdfrwt>
<pdfrwt beam="2">0</pdfrwt>
<totfact> 0.14771612E+05</totfact>
</mgrwt>
</event>
<event>
 6    1  0.1132867E-002  0.3000000E+03  0.7818608E-02  0.1093470E+00
         21   -1    0    0  501  502  0.00000000000E+00  0.00000000000E+00  0.92351039145E-01  0.92351039145E-01  0.00000000000E+00 0. -1.
         13   -1    0    0    0    0 -0.00000000000E+00 -0.00000000000E+00 -0.10000000000E+04  0.10000000000E+04  0.00000000000E+00 0.  1.
    9000005    2    1    2  501    0 -0.35093321800E+01 -0.68954204241E+01 -0.56638368901E+03  0.56649935515E+03  0.84364666965E+01 0.  0.
         13    1    3    3    0    0 -0.60407082133E+01 -0.28610650461E+01 -0.32855340847E+03  0.32862139016E+03  0.00000000000E+00 0.  1.
          3    1    3    3  501    0  0.25313760332E+01 -0.40343553780E+01 -0.23783028054E+03  0.23787796499E+03  0.00000000000E+00 0.  1.
         -3    1    1    2    0  502  0.35093321800E+01  0.68954204241E+01 -0.43352395995E+03  0.43359299589E+03  0.00000000000E+00 0. -1.
<mgrwt>
<rscale>  1 0.30000000E+03</rscale>
<asrwt>0</asrwt>
<pdfrwt beam="1">  1       21 0.33582267E-03 0.30000000E+03</pdfrwt>
<pdfrwt beam="2">0</pdfrwt>
<totfact> 0.22165655E+06</totfact>
</mgrwt>
</event>
<event>
 6    1  0.1132867E-002  0.3000000E+03  0.7818608E-02  0.1093470E+00
         21   -1    0    0  501  502  0.00000000000E+00  0.00000000000E+00  0.59149198166E+00  0.59149198166E+00  0.00000000000E+00 0. -1.
         13   -1    0    0    0    0 -0.00000000000E+00 -0.00000000000E+00 -0.10000000000E+04  0.10000000000E+04  0.00000000000E+00 0.  1.
    9000005    2    1    2  501    0 -0.20285590684E+02 -0.10410438934E+02 -0.33002912084E+03  0.33082388571E+03  0.23109148315E+01 0.  0.
         13    1    3    3    0    0 -0.56250530408E+01 -0.34614916333E+01 -0.10923486234E+03  0.10943435610E+03  0.00000000000E+00 0.  1.
          1    1    3    3  501    0 -0.14660537643E+02 -0.69489473003E+01 -0.22079425850E+03  0.22138952961E+03  0.00000000000E+00 0.  1.
         -3    1    1    2    0  502  0.20285590684E+02  0.10410438934E+02 -0.66937938718E+03  0.66976760627E+03  0.00000000000E+00 0. -1.
<mgrwt>
<rscale>  1 0.30000000E+03</rscale>
<asrwt>0</asrwt>
<pdfrwt beam="1">  1       21 0.21508845E-02 0.30000000E+03</pdfrwt>
<pdfrwt beam="2">0</pdfrwt>
<totfact> 0.11771452E+05</totfact>
</mgrwt>
</event>
<event>
 6    1  0.1132867E-002  0.3000000E+03  0.7818608E-02  0.1093470E+00
         21   -1    0    0  501  502  0.00000000000E+00  0.00000000000E+00  0.13908868821E+00  0.13908868821E+00  0.00000000000E+00 0. -1.
         13   -1    0    0    0    0 -0.00000000000E+00 -0.00000000000E+00 -0.10000000000E+04  0.10000000000E+04  0.00000000000E+00 0.  1.
    9000005    2    1    2  501    0 -0.63116351276E+00 -0.96976628730E+01 -0.58717541212E+03  0.58733918041E+03  0.98947062637E+01 0.  0.
         13    1    3    3    0    0  0.32448733856E+01 -0.82847138326E+01 -0.48326899687E+03  0.48335089637E+03  0.00000000000E+00 0.  1.
          1    1    3    3  501    0 -0.38760368984E+01 -0.14129490404E+01 -0.10390641525E+03  0.10398828404E+03  0.00000000000E+00 0.  1.
         -1    1    1    2    0  502  0.63116351276E+00  0.96976628730E+01 -0.41268549919E+03  0.41279990828E+03  0.00000000000E+00 0. -1.
<mgrwt>
<rscale>  1 0.30000000E+03</rscale>
<asrwt>0</asrwt>
<pdfrwt beam="1">  1       21 0.50577811E-03 0.30000000E+03</pdfrwt>
<pdfrwt beam="2">0</pdfrwt>
<totfact> 0.11778461E+06</totfact>
</mgrwt>
</event>
<event>
 6    1  0.1132867E-002  0.3000000E+03  0.7818608E-02  0.1093470E+00
         21   -1    0    0  501  502  0.00000000000E+00  0.00000000000E+00  0.28732168313E+00  0.28732168313E+00  0.00000000000E+00 0.  1.
         13   -1    0    0    0    0 -0.00000000000E+00 -0.00000000000E+00 -0.10000000000E+04  0.10000000000E+04  0.00000000000E+00 0.  1.
    9000005    2    1    2  501    0 -0.71395131777E+01  0.17511899168E+01 -0.78174269302E+03  0.78219341117E+03  0.25511861282E+02 0.  0.
         13    1    3    3    0    0 -0.19522985107E+00  0.30856497987E+01 -0.72567079953E+03  0.72567738606E+03  0.00000000000E+00 0.  1.
          3    1    3    3  501    0 -0.69442833266E+01 -0.13344598820E+01 -0.56071893491E+02  0.56516025105E+02  0.00000000000E+00 0.  1.
         -1    1    1    2    0  502  0.71395131777E+01 -0.17511899168E+01 -0.21796998530E+03  0.21809391052E+03  0.00000000000E+00 0. -1.
<mgrwt>
<rscale>  1 0.30000000E+03</rscale>
<asrwt>0</asrwt>
<pdfrwt beam="1">  1       21 0.10448083E-02 0.30000000E+03</pdfrwt>
<pdfrwt beam="2">0</pdfrwt>
<totfact> 0.37690085E+05</totfact>
</mgrwt>
</event>
<event>
 6    1  0.1132867E-002  0.3000000E+03  0.7818608E-02  0.1093470E+00
         21   -1    0    0  501  502  0.00000000000E+00  0.00000000000E+00  0.12908956151E+01  0.12908956151E+01  0.00000000000E+00 0. -1.
         13   -1    0    0    0    0 -0.00000000000E+00 -0.00000000000E+00 -0.10000000000E+04  0.10000000000E+04  0.00000000000E+00 0.  1.
    9000005    2    1    2  501    0 -0.10201159383E+02  0.24511484604E+01 -0.97738266648E+03  0.97752350755E+03  0.12855321994E+02 0.  0.
         13    1    3    3    0    0 -0.35292647660E+01 -0.52852572076E+01 -0.35075573133E+03  0.35081330179E+03  0.00000000000E+00 0.  1.
          1    1    3    3  501    0 -0.66718946174E+01  0.77364056679E+01 -0.62662693515E+03  0.62671020576E+03  0.00000000000E+00 0.  1.
         -1    1    1    2    0  502  0.10201159383E+02 -0.24511484604E+01 -0.21326437906E+02  0.23767388062E+02  0.00000000000E+00 0. -1.
<mgrwt>
<rscale>  1 0.30000000E+03</rscale>
<asrwt>0</asrwt>
<pdfrwt beam="1">  1       21 0.46941758E-02 0.30000000E+03</pdfrwt>
<pdfrwt beam="2">0</pdfrwt>
<totfact> 0.32071875E+04</totfact>
</mgrwt>
</event>
<event>
 6    1  0.1132867E-002  0.3000000E+03  0.7818608E-02  0.1093470E+00
         21   -1    0    0  501  502  0.00000000000E+00  0.00000000000E+00  0.48172101809E+00  0.48172101809E+00  0.00000000000E+00 0. -1.
         13   -1    0    0    0    0 -0.00000000000E+00 -0.00000000000E+00 -0.10000000000E+04  0.10000000000E+04  0.00000000000E+00 0.  1.
    9000005    2    1    2  501    0 -0.12105120103E+02 -0.42639260776E+01 -0.89215174016E+03  0.89235083433E+03  0.13804675036E+02 0.  0.
         13    1    3    3    0    0 -0.12301145872E+02 -0.13140920519E+00 -0.81134415199E+03  0.81143740881E+03  0.00000000000E+00 0.  1.
          1    1    3    3  501    0  0.19602576987E+00 -0.41325168724E+01 -0.80807588178E+02  0.80913425517E+02  0.00000000000E+00 0.  1.
         -1    1    1    2    0  502  0.12105120103E+02  0.42639260776E+01 -0.10736653882E+03  0.10813088669E+03  0.00000000000E+00 0. -1.
<mgrwt>
<rscale>  1 0.30000000E+03</rscale>
<asrwt>0</asrwt>
<pdfrwt beam="1">  1       21 0.17517165E-02 0.30000000E+03</pdfrwt>
<pdfrwt beam="2">0</pdfrwt>
<totfact> 0.16443611E+05</totfact>
</mgrwt>
</event>
<event>
 6    1  0.1132867E-002  0.3000000E+03  0.7818608E-02  0.1093470E+00
         21   -1    0    0  501  502  0.00000000000E+00  0.00000000000E+00  0.12677120289E+01  0.12677120289E+01  0.00000000000E+00 0. -1.
         13   -1    0    0    0    0 -0.00000000000E+00 -0.00000000000E+00 -0.10000000000E+04  0.10000000000E+04  0.00000000000E+00 0.  1.
    9000005    2    1    2  501    0 -0.28472864536E+02  0.16872567046E+02 -0.67551355614E+03  0.67635889999E+03  0.68854581480E+01 0.  0.
         13    1    3    3    0    0 -0.28807103574E+02  0.16523092878E+02 -0.67054727607E+03  0.67136913189E+03  0.00000000000E+00 0.  1.
          3    1    3    3  501    0  0.33423903739E+00  0.34947416879E+00 -0.49662800696E+01  0.49897680967E+01  0.00000000000E+00 0.  1.
         -3    1    1    2    0  502  0.28472864536E+02 -0.16872567046E+02 -0.32321873184E+03  0.32490881204E+03  0.00000000000E+00 0. -1.
<mgrwt>
<rscale>  1 0.30000000E+03</rscale>
<asrwt>0</asrwt>
<pdfrwt beam="1">  1       21 0.46098716E-02 0.30000000E+03</pdfrwt>
<pdfrwt beam="2">0</pdfrwt>
<totfact> 0.33075098E+04</totfact>
</mgrwt>
</event>
<event>
 6    1  0.1132867E-002  0.3000000E+03  0.7818608E-02  0.1093470E+00
         21   -1    0    0  501  502  0.00000000000E+00  0.00000000000E+00  0.18482163626E+00  0.18482163626E+00  0.00000000000E+00 0. -1.
         13   -1    0    0    0    0 -0.00000000000E+00 -0.00000000000E+00 -0.10000000000E+04  0.10000000000E+04  0.00000000000E+00 0.  1.
    9000005    2    1    2  501    0  0.94774809871E+01 -0.24375642049E+01 -0.78517494260E+03  0.78532162057E+03  0.11601417051E+02 0.  0.
         13    1    3    3    0    0  0.11926966157E+02 -0.23999740066E+01 -0.71591701227E+03  0.71602037740E+03  0.00000000000E+00 0.  1.
          1    1    3    3  501    0 -0.24494851701E+01 -0.37590198226E-01 -0.69257930329E+02  0.69301243164E+02  0.00000000000E+00 0.  1.
         -1    1    1    2    0  502 -0.94774809871E+01  0.24375642049E+01 -0.21464023576E+03  0.21486320107E+03  0.00000000000E+00 0. -1.
<mgrwt>
<rscale>  1 0.30000000E+03</rscale>
<asrwt>0</asrwt>
<pdfrwt beam="1">  1       21 0.67208009E-03 0.30000000E+03</pdfrwt>
<pdfrwt beam="2">0</pdfrwt>
<totfact> 0.75604678E+05</totfact>
</mgrwt>
</event>
<event>
 6    1  0.1132867E-002  0.3000000E+03  0.7818608E-02  0.1093470E+00
         21   -1    0    0  501  502  0.00000000000E+00  0.00000000000E+00  0.16441355573E+01  0.16441355573E+01  0.00000000000E+00 0. -1.
         13   -1    0    0    0    0 -0.00000000000E+00 -0.00000000000E+00 -0.10000000000E+04  0.10000000000E+04  0.00000000000E+00 0.  1.
    9000005    2    1    2  501    0  0.39537725704E+02 -0.75790964167E+01 -0.45697303364E+03  0.45876657667E+03  0.46630396020E+01 0.  0.
         13    1    3    3    0    0  0.11959956137E+02 -0.44865244399E+01 -0.14175628897E+03  0.14233065347E+03  0.00000000000E+00 0.  1.
          3    1    3    3  501    0  0.27577769567E+02 -0.30925719769E+01 -0.31521674467E+03  0.31643592320E+03  0.00000000000E+00 0.  1.
         -3    1    1    2    0  502 -0.39537725704E+02  0.75790964167E+01 -0.54138283080E+03  0.54287755889E+03  0.00000000000E+00 0. -1.
<mgrwt>
<rscale>  1 0.30000000E+03</rscale>
<asrwt>0</asrwt>
<pdfrwt beam="1">  1       21 0.59786874E-02 0.30000000E+03</pdfrwt>
<pdfrwt beam="2">0</pdfrwt>
<totfact> 0.21201371E+04</totfact>
</mgrwt>
</event>
<event>
 6    1  0.1132867E-002  0.3000000E+03  0.7818608E-02  0.1093470E+00
         21   -1    0    0  501  502  0.00000000000E+00  0.00000000000E+00  0.22792025046E+01  0.22792025046E+01  0.00000000000E+00 0. -1.
         13   -1    0    0    0    0 -0.00000000000E+00 -0.00000000000E+00 -0.10000000000E+04  0.10000000000E+04  0.00000000000E+00 0.  1.
    9000005    2    1    2  501    0  0.11520606948E+02 -0.21255129268E+02 -0.93084382884E+03  0.93116637777E+03  0.40105489711E+01 0.  0.
         13    1    3    3    0    0  0.38755329070E+01 -0.95485382685E+01 -0.33467652245E+03  0.33483513707E+03  0.00000000000E+00 0.  1.
          1    1    3    3  501    0  0.76450740411E+01 -0.11706590999E+02 -0.59616730638E+03  0.59633124070E+03  0.00000000000E+00 0.  1.
         -3    1    1    2    0  502 -0.11520606948E+02  0.21255129268E+02 -0.66876968660E+02  0.71112824735E+02  0.00000000000E+00 0. -1.
<mgrwt>
<rscale>  1 0.30000000E+03</rscale>
<asrwt>0</asrwt>
<pdfrwt beam="1">  1       21 0.82880266E-02 0.30000000E+03</pdfrwt>
<pdfrwt beam="2">0</pdfrwt>
<totfact> 0.12003631E+04</totfact>
</mgrwt>
</event>
<event>
 6    1  0.1132867E-002  0.3000000E+03  0.7818608E-02  0.1093470E+00
         21   -1    0    0  501  502  0.00000000000E+00  0.00000000000E+00  0.36483608364E+00  0.36483608364E+00  0.00000000000E+00 0.  1.
         13   -1    0    0    0    0 -0.00000000000E+00 -0.00000000000E+00 -0.10000000000E+04  0.10000000000E+04  0.00000000000E+00 0.  1.
    9000005    2    1    2  501    0  0.72688939601E+01  0.47054203044E+01 -0.76355881853E+03  0.76412974417E+03  0.28235062837E+02 0.  0.
         13    1    3    3    0    0  0.89474122301E+01  0.48166765484E+00 -0.71924657047E+02  0.72480649009E+02  0.00000000000E+00 0.  1.
          3    1    3    3  501    0 -0.16785182700E+01  0.42237526495E+01 -0.69163416148E+03  0.69164909516E+03  0.00000000000E+00 0.  1.
         -1    1    1    2    0  502 -0.72688939601E+01 -0.47054203044E+01 -0.23607634539E+03  0.23623509191E+03  0.00000000000E+00 0. -1.
<mgrwt>
<rscale>  1 0.30000000E+03</rscale>
<asrwt>0</asrwt>
<pdfrwt beam="1">  1       21 0.13266795E-02 0.30000000E+03</pdfrwt>
<pdfrwt beam="2">0</pdfrwt>
<totfact> 0.25740797E+05</totfact>
</mgrwt>
</event>
<event>
 6    1  0.1132867E-002  0.3000000E+03  0.7818608E-02  0.1093470E+00
         21   -1    0    0  501  502  0.00000000000E+00  0.00000000000E+00  0.10172201649E+01  0.10172201649E+01  0.00000000000E+00 0. -1.
         13   -1    0    0    0    0 -0.00000000000E+00 -0.00000000000E+00 -0.10000000000E+04  0.10000000000E+04  0.00000000000E+00 0.  1.
    9000005    2    1    2  501    0  0.22205034874E+02 -0.95090147790E+01 -0.76366876426E+03  0.76446665293E+03  0.25215015186E+02 0.  0.
         13    1    3    3    0    0  0.11487798637E+02 -0.17135206844E+02 -0.36651306825E+03  0.36709319529E+03  0.00000000000E+00 0.  1.
          1    1    3    3  501    0  0.10717236238E+02  0.76261920645E+01 -0.39715569601E+03  0.39737345764E+03  0.00000000000E+00 0.  1.
         -3    1    1    2    0  502 -0.22205034874E+02  0.95090147790E+01 -0.23531401557E+03  0.23655056724E+03  0.00000000000E+00 0. -1.
<mgrwt>
<rscale>  1 0.30000000E+03</rscale>
<asrwt>0</asrwt>
<pdfrwt beam="1">  1       21 0.36989902E-02 0.30000000E+03</pdfrwt>
<pdfrwt beam="2">0</pdfrwt>
<totfact> 0.47957404E+04</totfact>
</mgrwt>
</event>
<event>
 6    1  0.1132867E-002  0.3000000E+03  0.7818608E-02  0.1093470E+00
         21   -1    0    0  501  502  0.00000000000E+00  0.00000000000E+00  0.55535497759E+00  0.55535497759E+00  0.00000000000E+00 0. -1.
         13   -1    0    0    0    0 -0.00000000000E+00 -0.00000000000E+00 -0.10000000000E+04  0.10000000000E+04  0.00000000000E+00 0.  1.
    9000005    2    1    2  501    0 -0.22293772020E+01  0.13956941001E+02 -0.12628183245E+03  0.12727815753E+03  0.72706156663E+01 0.  0.
         13    1    3    3    0    0 -0.41596560307E+01  0.12947402796E+02 -0.10282286514E+03  0.10371827020E+03  0.00000000000E+00 0.  1.
          3    1    3    3  501    0  0.19302788287E+01  0.10095382053E+01 -0.23458967312E+02  0.23559887332E+02  0.00000000000E+00 0.  1.
         -1    1    1    2    0  502  0.22293772020E+01 -0.13956941001E+02 -0.87316281257E+03  0.87327719745E+03  0.00000000000E+00 0. -1.
<mgrwt>
<rscale>  1 0.30000000E+03</rscale>
<asrwt>0</asrwt>
<pdfrwt beam="1">  1       21 0.20194769E-02 0.30000000E+03</pdfrwt>
<pdfrwt beam="2">0</pdfrwt>
<totfact> 0.13048398E+05</totfact>
</mgrwt>
</event>
<event>
 6    1  0.1132867E-002  0.3000000E+03  0.7818608E-02  0.1093470E+00
         21   -1    0    0  501  502  0.00000000000E+00  0.00000000000E+00  0.21517539995E+01  0.21517539995E+01  0.00000000000E+00 0. -1.
         13   -1    0    0    0    0 -0.00000000000E+00 -0.00000000000E+00 -0.10000000000E+04  0.10000000000E+04  0.00000000000E+00 0.  1.
    9000005    2    1    2  501    0  0.41194094867E+02  0.14915012277E+02 -0.61972035988E+03  0.62149428421E+03  0.16805053265E+02 0.  0.
         13    1    3    3    0    0  0.11179075829E+02  0.12099450152E+02 -0.18639561701E+03  0.18712213785E+03  0.00000000000E+00 0.  1.
          3    1    3    3  501    0  0.30015019038E+02  0.28155621253E+01 -0.43332474287E+03  0.43437214637E+03  0.00000000000E+00 0.  1.
         -1    1    1    2    0  502 -0.41194094867E+02 -0.14915012277E+02 -0.37812788612E+03  0.38065746979E+03  0.00000000000E+00 0. -1.
<mgrwt>
<rscale>  1 0.30000000E+03</rscale>
<asrwt>0</asrwt>
<pdfrwt beam="1">  1       21 0.78245765E-02 0.30000000E+03</pdfrwt>
<pdfrwt beam="2">0</pdfrwt>
<totfact> 0.13280833E+04</totfact>
</mgrwt>
</event>
<event>
 6    1  0.1132867E-002  0.3000000E+03  0.7818608E-02  0.1093470E+00
         21   -1    0    0  501  502  0.00000000000E+00  0.00000000000E+00  0.62503771164E+00  0.62503771164E+00  0.00000000000E+00 0. -1.
         13   -1    0    0    0    0 -0.00000000000E+00 -0.00000000000E+00 -0.10000000000E+04  0.10000000000E+04  0.00000000000E+00 0.  1.
    9000005    2    1    2  501    0  0.99786075514E+01  0.12794878093E+01 -0.95718346504E+03  0.95725071192E+03  0.52469066952E+01 0.  0.
         13    1    3    3    0    0  0.35198368783E+01  0.29425620050E+01 -0.33262765412E+03  0.33265929148E+03  0.00000000000E+00 0.  1.
          1    1    3    3  501    0  0.64587706731E+01 -0.16630741958E+01 -0.62455581092E+03  0.62459142044E+03  0.00000000000E+00 0.  1.
         -1    1    1    2    0  502 -0.99786075514E+01 -0.12794878093E+01 -0.42191497248E+02  0.43374325790E+02  0.00000000000E+00 0. -1.
<mgrwt>
<rscale>  1 0.30000000E+03</rscale>
<asrwt>0</asrwt>
<pdfrwt beam="1">  1       21 0.22728692E-02 0.30000000E+03</pdfrwt>
<pdfrwt beam="2">0</pdfrwt>
<totfact> 0.10754256E+05</totfact>
</mgrwt>
</event>
<event>
 6    1  0.1132867E-002  0.3000000E+03  0.7818608E-02  0.1093470E+00
         21   -1    0    0  501  502  0.00000000000E+00  0.00000000000E+00  0.19117560589E+00  0.19117560589E+00  0.00000000000E+00 0. -1.
         13   -1    0    0    0    0 -0.00000000000E+00 -0.00000000000E+00 -0.10000000000E+04  0.10000000000E+04  0.00000000000E+00 0.  1.
    9000005    2    1    2  501    0  0.10249941334E+02  0.85147883326E+01 -0.48137929384E+03  0.48159042255E+03  0.50742130469E+01 0.  0.
         13    1    3    3    0    0  0.47299170713E+01  0.36618085534E+01 -0.13408280849E+03  0.13421617075E+03  0.00000000000E+00 0.  1.
          1    1    3    3  501    0  0.55200242627E+01  0.48529797791E+01 -0.34729648535E+03  0.34737425180E+03  0.00000000000E+00 0.  1.
         -1    1    1    2    0  502 -0.10249941334E+02 -0.85147883326E+01 -0.51842953056E+03  0.51860075306E+03  0.00000000000E+00 0. -1.
<mgrwt>
<rscale>  1 0.30000000E+03</rscale>
<asrwt>0</asrwt>
<pdfrwt beam="1">  1       21 0.69518549E-03 0.30000000E+03</pdfrwt>
<pdfrwt beam="2">0</pdfrwt>
<totfact> 0.71704732E+05</totfact>
</mgrwt>
</event>
<event>
 6    1  0.1132867E-002  0.3000000E+03  0.7818608E-02  0.1093470E+00
         21   -1    0    0  501  502  0.00000000000E+00  0.00000000000E+00  0.93293551580E-01  0.93293551580E-01  0.00000000000E+00 0. -1.
         13   -1    0    0    0    0 -0.00000000000E+00 -0.00000000000E+00 -0.10000000000E+04  0.10000000000E+04  0.00000000000E+00 0.  1.
    9000005    2    1    2  501    0 -0.20122362404E+01  0.77561561614E+01 -0.64138044886E+03  0.64147750411E+03  0.77653752175E+01 0.  0.
         13    1    3    3    0    0 -0.20759461645E+01  0.32531605919E+01 -0.51880778620E+03  0.51882213872E+03  0.00000000000E+00 0.  1.
          3    1    3    3  501    0  0.63709924076E-01  0.45029955695E+01 -0.12257266265E+03  0.12265536539E+03  0.00000000000E+00 0.  1.
         -3    1    1    2    0  502  0.20122362404E+01 -0.77561561614E+01 -0.35852625759E+03  0.35861578944E+03  0.00000000000E+00 0. -1.
<mgrwt>
<rscale>  1 0.30000000E+03</rscale>
<asrwt>0</asrwt>
<pdfrwt beam="1">  1       21 0.33924999E-03 0.30000000E+03</pdfrwt>
<pdfrwt beam="2">0</pdfrwt>
<totfact> 0.21822843E+06</totfact>
</mgrwt>
</event>
<event>
 6    1  0.1132867E-002  0.3000000E+03  0.7818608E-02  0.1093470E+00
         21   -1    0    0  501  502  0.00000000000E+00  0.00000000000E+00  0.87277543740E+00  0.87277543740E+00  0.00000000000E+00 0. -1.
         13   -1    0    0    0    0 -0.00000000000E+00 -0.00000000000E+00 -0.10000000000E+04  0.10000000000E+04  0.00000000000E+00 0.  1.
    9000005    2    1    2  501    0 -0.77556025577E+01 -0.66059941592E+01 -0.96682417212E+03  0.96700131655E+03  0.15452439600E+02 0.  0.
         13    1    3    3    0    0 -0.12508055161E+02 -0.50983535218E+01 -0.72334194475E+03  0.72346804607E+03  0.00000000000E+00 0.  1.
          1    1    3    3  501    0  0.47524526037E+01 -0.15076406374E+01 -0.24348222737E+03  0.24353327048E+03  0.00000000000E+00 0.  1.
         -3    1    1    2    0  502  0.77556025577E+01  0.66059941592E+01 -0.32303052445E+02  0.33871458887E+02  0.00000000000E+00 0. -1.
<mgrwt>
<rscale>  1 0.30000000E+03</rscale>
<asrwt>0</asrwt>
<pdfrwt beam="1">  1       21 0.31737356E-02 0.30000000E+03</pdfrwt>
<pdfrwt beam="2">0</pdfrwt>
<totfact> 0.61952570E+04</totfact>
</mgrwt>
</event>
<event>
 6    1  0.1132867E-002  0.3000000E+03  0.7818608E-02  0.1093470E+00
         21   -1    0    0  501  502  0.00000000000E+00  0.00000000000E+00  0.56411985213E+00  0.56411985213E+00  0.00000000000E+00 0. -1.
         13   -1    0    0    0    0 -0.00000000000E+00 -0.00000000000E+00 -0.10000000000E+04  0.10000000000E+04  0.00000000000E+00 0.  1.
    9000005    2    1    2  501    0 -0.40565781082E+01  0.14322904727E+02 -0.87647123995E+03  0.87670167936E+03  0.13505506531E+02 0.  0.
         13    1    3    3    0    0  0.46085729723E+01  0.61023095907E+01 -0.25119893053E+03  0.25131529963E+03  0.00000000000E+00 0.  1.
          3    1    3    3  501    0 -0.86651510805E+01  0.82205951365E+01 -0.62527230942E+03  0.62538637973E+03  0.00000000000E+00 0.  1.
         -3    1    1    2    0  502  0.40565781082E+01 -0.14322904727E+02 -0.12296464020E+03  0.12386244049E+03  0.00000000000E+00 0. -1.
<mgrwt>
<rscale>  1 0.30000000E+03</rscale>
<asrwt>0</asrwt>
<pdfrwt beam="1">  1       21 0.20513492E-02 0.30000000E+03</pdfrwt>
<pdfrwt beam="2">0</pdfrwt>
<totfact> 0.12719262E+05</totfact>
</mgrwt>
</event>
<event>
 6    1  0.1132867E-002  0.3000000E+03  0.7818608E-02  0.1093470E+00
         21   -1    0    0  501  502  0.00000000000E+00  0.00000000000E+00  0.11387926188E+01  0.11387926188E+01  0.00000000000E+00 0. -1.
         13   -1    0    0    0    0 -0.00000000000E+00 -0.00000000000E+00 -0.10000000000E+04  0.10000000000E+04  0.00000000000E+00 0.  1.
    9000005    2    1    2  501    0  0.31543043629E+01 -0.18268849280E+02 -0.89691445820E+03  0.89752006768E+03  0.27258504435E+02 0.  0.
         13    1    3    3    0    0  0.13087636919E+02 -0.15475761485E+02 -0.73362156329E+03  0.73390148083E+03  0.00000000000E+00 0.  1.
          1    1    3    3  501    0 -0.99333325562E+01 -0.27930877948E+01 -0.16329289491E+03  0.16361858685E+03  0.00000000000E+00 0.  1.
         -1    1    1    2    0  502 -0.31543043629E+01  0.18268849280E+02 -0.10194674918E+03  0.10361872494E+03  0.00000000000E+00 0. -1.
<mgrwt>
<rscale>  1 0.30000000E+03</rscale>
<asrwt>0</asrwt>
<pdfrwt beam="1">  1       21 0.41410728E-02 0.30000000E+03</pdfrwt>
<pdfrwt beam="2">0</pdfrwt>
<totfact> 0.39661172E+04</totfact>
</mgrwt>
</event>
<event>
 6    1  0.1132867E-002  0.3000000E+03  0.7818608E-02  0.1093470E+00
         21   -1    0    0  501  502  0.00000000000E+00  0.00000000000E+00  0.37572120732E+00  0.37572120732E+00  0.00000000000E+00 0. -1.
         13   -1    0    0    0    0 -0.00000000000E+00 -0.00000000000E+00 -0.10000000000E+04  0.10000000000E+04  0.00000000000E+00 0.  1.
    9000005    2    1    2  501    0 -0.95538287318E+01  0.20933359168E+01 -0.92424513435E+03  0.92436471466E+03  0.11198198472E+02 0.  0.
         13    1    3    3    0    0 -0.96777179010E+01 -0.21283824685E+01 -0.49744237261E+03  0.49754105590E+03  0.00000000000E+00 0.  1.
          3    1    3    3  501    0  0.12388916924E+00  0.42217183853E+01 -0.42680276174E+03  0.42682365876E+03  0.00000000000E+00 0.  1.
         -1    1    1    2    0  502  0.95538287318E+01 -0.20933359168E+01 -0.75379144444E+02  0.76011006544E+02  0.00000000000E+00 0. -1.
<mgrwt>
<rscale>  1 0.30000000E+03</rscale>
<asrwt>0</asrwt>
<pdfrwt beam="1">  1       21 0.13662618E-02 0.30000000E+03</pdfrwt>
<pdfrwt beam="2">0</pdfrwt>
<totfact> 0.24554155E+05</totfact>
</mgrwt>
</event>
<event>
 6    1  0.1132867E-002  0.3000000E+03  0.7818608E-02  0.1093470E+00
         21   -1    0    0  501  502  0.00000000000E+00  0.00000000000E+00  0.15144666506E+01  0.15144666506E+01  0.00000000000E+00 0. -1.
         13   -1    0    0    0    0 -0.00000000000E+00 -0.00000000000E+00 -0.10000000000E+04  0.10000000000E+04  0.00000000000E+00 0.  1.
    9000005    2    1    2  501    0  0.35629441268E+02  0.37223282365E+01 -0.36146670733E+03  0.36348915562E+03  0.13523051898E+02 0.  0.
         13    1    3    3    0    0  0.23058526356E+01 -0.33867192925E+01 -0.30736495464E+02  0.31008369473E+02  0.00000000000E+00 0.  1.
          1    1    3    3  501    0  0.33323588633E+02  0.71090475290E+01 -0.33073021186E+03  0.33248078615E+03  0.00000000000E+00 0.  1.
         -1    1    1    2    0  502 -0.35629441268E+02 -0.37223282365E+01 -0.63701882602E+03  0.63802531103E+03  0.00000000000E+00 0. -1.
<mgrwt>
<rscale>  1 0.30000000E+03</rscale>
<asrwt>0</asrwt>
<pdfrwt beam="1">  1       21 0.55071631E-02 0.30000000E+03</pdfrwt>
<pdfrwt beam="2">0</pdfrwt>
<totfact> 0.24419589E+04</totfact>
</mgrwt>
</event>
<event>
 6    1  0.1132867E-002  0.3000000E+03  0.7818608E-02  0.1093470E+00
         21   -1    0    0  501  502  0.00000000000E+00  0.00000000000E+00  0.15228228567E+00  0.15228228567E+00  0.00000000000E+00 0. -1.
         13   -1    0    0    0    0 -0.00000000000E+00 -0.00000000000E+00 -0.10000000000E+04  0.10000000000E+04  0.00000000000E+00 0.  1.
    9000005    2    1    2  501    0  0.19177130718E+01  0.10740579257E+02 -0.71003245452E+03  0.71013172362E+03  0.46840963815E+01 0.  0.
         13    1    3    3    0    0  0.15412797758E+01  0.19726209647E+01 -0.82682726904E+02  0.82720614753E+02  0.00000000000E+00 0.  1.
          1    1    3    3  501    0  0.37643329592E+00  0.87679582919E+01 -0.62734972761E+03  0.62741110887E+03  0.00000000000E+00 0.  1.
         -1    1    1    2    0  502 -0.19177130718E+01 -0.10740579257E+02 -0.28981526320E+03  0.29002055867E+03  0.00000000000E+00 0. -1.
<mgrwt>
<rscale>  1 0.30000000E+03</rscale>
<asrwt>0</asrwt>
<pdfrwt beam="1">  1       21 0.55375493E-03 0.30000000E+03</pdfrwt>
<pdfrwt beam="2">0</pdfrwt>
<totfact> 0.10230516E+06</totfact>
</mgrwt>
</event>
<event>
 6    1  0.1132867E-002  0.3000000E+03  0.7818608E-02  0.1093470E+00
         21   -1    0    0  501  502  0.00000000000E+00  0.00000000000E+00  0.14323045901E+00  0.14323045901E+00  0.00000000000E+00 0. -1.
         13   -1    0    0    0    0 -0.00000000000E+00 -0.00000000000E+00 -0.10000000000E+04  0.10000000000E+04  0.00000000000E+00 0.  1.
    9000005    2    1    2  501    0 -0.21454068321E+01 -0.89316425042E+01 -0.60190280643E+03  0.60208326794E+03  0.11528058446E+02 0.  0.
         13    1    3    3    0    0  0.45514925336E+01 -0.54958359772E+01 -0.26219008790E+03  0.26228717562E+03  0.00000000000E+00 0.  1.
          1    1    3    3  501    0 -0.66968993657E+01 -0.34358065270E+01 -0.33971271853E+03  0.33979609232E+03  0.00000000000E+00 0.  1.
         -1    1    1    2    0  502  0.21454068321E+01  0.89316425042E+01 -0.39795396311E+03  0.39805996252E+03  0.00000000000E+00 0. -1.
<mgrwt>
<rscale>  1 0.30000000E+03</rscale>
<asrwt>0</asrwt>
<pdfrwt beam="1">  1       21 0.52083913E-03 0.30000000E+03</pdfrwt>
<pdfrwt beam="2">0</pdfrwt>
<totfact> 0.11253530E+06</totfact>
</mgrwt>
</event>
<event>
 6    1  0.1132867E-002  0.3000000E+03  0.7818608E-02  0.1093470E+00
         21   -1    0    0  501  502  0.00000000000E+00  0.00000000000E+00  0.24180281736E+00  0.24180281736E+00  0.00000000000E+00 0. -1.
         13   -1    0    0    0    0 -0.00000000000E+00 -0.00000000000E+00 -0.10000000000E+04  0.10000000000E+04  0.00000000000E+00 0.  1.
    9000005    2    1    2  501    0  0.80903702458E+01 -0.68181034116E+01 -0.85483603952E+03  0.85493394891E+03  0.74472757464E+01 0.  0.
         13    1    3    3    0    0  0.59883603026E+00 -0.10768002148E+01 -0.39073563933E+03  0.39073758195E+03  0.00000000000E+00 0.  1.
          3    1    3    3  501    0  0.74915342156E+01 -0.57413031968E+01 -0.46410040018E+03  0.46419636696E+03  0.00000000000E+00 0.  1.
         -3    1    1    2    0  502 -0.80903702458E+01  0.68181034116E+01 -0.14492215767E+03  0.14530785391E+03  0.00000000000E+00 0. -1.
<mgrwt>
<rscale>  1 0.30000000E+03</rscale>
<asrwt>0</asrwt>
<pdfrwt beam="1">  1       21 0.87928483E-03 0.30000000E+03</pdfrwt>
<pdfrwt beam="2">0</pdfrwt>
<totfact> 0.49538793E+05</totfact>
</mgrwt>
</event>
<event>
 6    1  0.1132867E-002  0.3000000E+03  0.7818608E-02  0.1093470E+00
         21   -1    0    0  501  502  0.00000000000E+00  0.00000000000E+00  0.13914465369E+01  0.13914465369E+01  0.00000000000E+00 0. -1.
         13   -1    0    0    0    0 -0.00000000000E+00 -0.00000000000E+00 -0.10000000000E+04  0.10000000000E+04  0.00000000000E+00 0.  1.
    9000005    2    1    2  501    0 -0.10551999266E+02 -0.10193783591E+02 -0.48439634078E+02  0.51109260406E+02  0.71063659652E+01 0.  0.
         13    1    3    3    0    0 -0.46360875467E+01 -0.51275902090E+01 -0.34073007404E+02  0.34767158679E+02  0.00000000000E+00 0.  1.
          3    1    3    3  501    0 -0.59159117188E+01 -0.50661933817E+01 -0.14366626674E+02  0.16342101727E+02  0.00000000000E+00 0.  1.
         -3    1    1    2    0  502  0.10551999266E+02  0.10193783591E+02 -0.95016891939E+03  0.95028218613E+03  0.00000000000E+00 0. -1.
<mgrwt>
<rscale>  1 0.30000000E+03</rscale>
<asrwt>0</asrwt>
<pdfrwt beam="1">  1       21 0.50598163E-02 0.30000000E+03</pdfrwt>
<pdfrwt beam="2">0</pdfrwt>
<totfact> 0.28226407E+04</totfact>
</mgrwt>
</event>
<event>
 6    1  0.1132867E-002  0.3000000E+03  0.7818608E-02  0.1093470E+00
         21   -1    0    0  501  502  0.00000000000E+00  0.00000000000E+00  0.51237640192E+00  0.51237640192E+00  0.00000000000E+00 0. -1.
         13   -1    0    0    0    0 -0.00000000000E+00 -0.00000000000E+00 -0.10000000000E+04  0.10000000000E+04  0.00000000000E+00 0.  1.
    9000005    2    1    2  501    0  0.85100917440E+01  0.36894003970E+01 -0.90279210954E+03  0.90337301376E+03  0.31035070382E+02 0.  0.
         13    1    3    3    0    0 -0.82091985354E+00 -0.52662470008E+01 -0.75427466307E+03  0.75429349368E+03  0.00000000000E+00 0.  1.
          3    1    3    3  501    0  0.93310115976E+01  0.89556473978E+01 -0.14851744648E+03  0.14907952007E+03  0.00000000000E+00 0.  1.
         -1    1    1    2    0  502 -0.85100917440E+01 -0.36894003970E+01 -0.96695514055E+02  0.97139362645E+02  0.00000000000E+00 0. -1.
<mgrwt>
<rscale>  1 0.30000000E+03</rscale>
<asrwt>0</asrwt>
<pdfrwt beam="1">  1       21 0.18631908E-02 0.30000000E+03</pdfrwt>
<pdfrwt beam="2">0</pdfrwt>
<totfact> 0.14876475E+05</totfact>
</mgrwt>
</event>
<event>
 6    1  0.1132867E-002  0.3000000E+03  0.7818608E-02  0.1093470E+00
         21   -1    0    0  501  502  0.00000000000E+00  0.00000000000E+00  0.17214171808E+00  0.17214171808E+00  0.00000000000E+00 0. -1.
         13   -1    0    0    0    0 -0.00000000000E+00 -0.00000000000E+00 -0.10000000000E+04  0.10000000000E+04  0.00000000000E+00 0.  1.
    9000005    2    1    2  501    0 -0.95732330708E+01  0.30974590119E+01 -0.72548792163E+03  0.72564774957E+03  0.11432015432E+02 0.  0.
         13    1    3    3    0    0 -0.33829910352E+01  0.13893933169E+01 -0.58665159966E+03  0.58666299902E+03  0.00000000000E+00 0.  1.
          1    1    3    3  501    0 -0.61902420355E+01  0.17080656950E+01 -0.13883632198E+03  0.13898475055E+03  0.00000000000E+00 0.  1.
         -1    1    1    2    0  502  0.95732330708E+01 -0.30974590119E+01 -0.27433993665E+03  0.27452439215E+03  0.00000000000E+00 0. -1.
<mgrwt>
<rscale>  1 0.30000000E+03</rscale>
<asrwt>0</asrwt>
<pdfrwt beam="1">  1       21 0.62597120E-03 0.30000000E+03</pdfrwt>
<pdfrwt beam="2">0</pdfrwt>
<totfact> 0.84500081E+05</totfact>
</mgrwt>
</event>
<event>
 6    1  0.1132867E-002  0.3000000E+03  0.7818608E-02  0.1093470E+00
         21   -1    0    0  501  502  0.00000000000E+00  0.00000000000E+00  0.18550046736E+00  0.18550046736E+00  0.00000000000E+00 0. -1.
         13   -1    0    0    0    0 -0.00000000000E+00 -0.00000000000E+00 -0.10000000000E+04  0.10000000000E+04  0.00000000000E+00 0.  1.
    9000005    2    1    2  501    0  0.12474930925E+01  0.87419191495E+01 -0.76613305664E+03  0.76633727161E+03  0.15328926440E+02 0.  0.
         13    1    3    3    0    0 -0.25589679380E+01 -0.39901478099E+00 -0.24208489396E+02  0.24346631975E+02  0.00000000000E+00 0.  1.
          3    1    3    3  501    0  0.38064610306E+01  0.91409339305E+01 -0.74192456725E+03  0.74199063963E+03  0.00000000000E+00 0.  1.
         -3    1    1    2    0  502 -0.12474930925E+01 -0.87419191495E+01 -0.23368144289E+03  0.23384822886E+03  0.00000000000E+00 0. -1.
<mgrwt>
<rscale>  1 0.30000000E+03</rscale>
<asrwt>0</asrwt>
<pdfrwt beam="1">  1       21 0.67454858E-03 0.30000000E+03</pdfrwt>
<pdfrwt beam="2">0</pdfrwt>
<totfact> 0.75171786E+05</totfact>
</mgrwt>
</event>
<event>
 6    1  0.1132867E-002  0.3000000E+03  0.7818608E-02  0.1093470E+00
         21   -1    0    0  501  502  0.00000000000E+00  0.00000000000E+00  0.93181032512E+00  0.93181032512E+00  0.00000000000E+00 0. -1.
         13   -1    0    0    0    0 -0.00000000000E+00 -0.00000000000E+00 -0.10000000000E+04  0.10000000000E+04  0.00000000000E+00 0.  1.
    9000005    2    1    2  501    0  0.13242602967E+02 -0.40998157076E+00 -0.93578941224E+03  0.93628091480E+03  0.27287226770E+02 0.  0.
         13    1    3    3    0    0  0.20378004217E+02 -0.21766931136E+01 -0.48662224687E+03  0.48705360300E+03  0.00000000000E+00 0.  1.
          3    1    3    3  501    0 -0.71354012507E+01  0.17667115429E+01 -0.44916716537E+03  0.44922731180E+03  0.00000000000E+00 0.  1.
         -1    1    1    2    0  502 -0.13242602967E+02  0.40998157076E+00 -0.63278777436E+02  0.64650895523E+02  0.00000000000E+00 0. -1.
<mgrwt>
<rscale>  1 0.30000000E+03</rscale>
<asrwt>0</asrwt>
<pdfrwt beam="1">  1       21 0.33884083E-02 0.30000000E+03</pdfrwt>
<pdfrwt beam="2">0</pdfrwt>
<totfact> 0.55547094E+04</totfact>
</mgrwt>
</event>
<event>
 6    1  0.1132867E-002  0.3000000E+03  0.7818608E-02  0.1093470E+00
         21   -1    0    0  501  502  0.00000000000E+00  0.00000000000E+00  0.52380607874E+00  0.52380607874E+00  0.00000000000E+00 0. -1.
         13   -1    0    0    0    0 -0.00000000000E+00 -0.00000000000E+00 -0.10000000000E+04  0.10000000000E+04  0.00000000000E+00 0.  1.
    9000005    2    1    2  501    0  0.17166761324E+02  0.88779648093E+01 -0.75619793837E+03  0.75647908564E+03  0.71950713143E+01 0.  0.
         13    1    3    3    0    0  0.16504027230E+02  0.75702992751E+01 -0.60100140502E+03  0.60127562830E+03  0.00000000000E+00 0.  1.
          3    1    3    3  501    0  0.66273409322E+00  0.13076655342E+01 -0.15519653335E+03  0.15520345734E+03  0.00000000000E+00 0.  1.
         -1    1    1    2    0  502 -0.17166761324E+02 -0.88779648093E+01 -0.24327825555E+03  0.24404472044E+03  0.00000000000E+00 0. -1.
<mgrwt>
<rscale>  1 0.30000000E+03</rscale>
<asrwt>0</asrwt>
<pdfrwt beam="1">  1       21 0.19047534E-02 0.30000000E+03</pdfrwt>
<pdfrwt beam="2">0</pdfrwt>
<totfact> 0.14352344E+05</totfact>
</mgrwt>
</event>
<event>
 6    1  0.1132867E-002  0.3000000E+03  0.7818608E-02  0.1093470E+00
         21   -1    0    0  501  502  0.00000000000E+00  0.00000000000E+00  0.16233824176E+00  0.16233824176E+00  0.00000000000E+00 0. -1.
         13   -1    0    0    0    0 -0.00000000000E+00 -0.00000000000E+00 -0.10000000000E+04  0.10000000000E+04  0.00000000000E+00 0.  1.
    9000005    2    1    2  501    0  0.23769765323E+01  0.11488451784E+02 -0.36758805025E+03  0.36780389100E+03  0.45927125492E+01 0.  0.
         13    1    3    3    0    0  0.27442171857E+01  0.97549129846E+01 -0.25406511237E+03  0.25426712406E+03  0.00000000000E+00 0.  1.
          1    1    3    3  501    0 -0.36724065339E+00  0.17335387993E+01 -0.11352293788E+03  0.11353676694E+03  0.00000000000E+00 0.  1.
         -3    1    1    2    0  502 -0.23769765323E+01 -0.11488451784E+02 -0.63224961151E+03  0.63235844724E+03  0.00000000000E+00 0. -1.
<mgrwt>
<rscale>  1 0.30000000E+03</rscale>
<asrwt>0</asrwt>
<pdfrwt beam="1">  1       21 0.59032212E-03 0.30000000E+03</pdfrwt>
<pdfrwt beam="2">0</pdfrwt>
<totfact> 0.92603582E+05</totfact>
</mgrwt>
</event>
<event>
 6    1  0.1132867E-002  0.3000000E+03  0.7818608E-02  0.1093470E+00
         21   -1    0    0  501  502  0.00000000000E+00  0.00000000000E+00  0.14322167922E+00  0.14322167922E+00  0.00000000000E+00 0. -1.
         13   -1    0    0    0    0 -0.00000000000E+00 -0.00000000000E+00 -0.10000000000E+04  0.10000000000E+04  0.00000000000E+00 0.  1.
    9000005    2    1    2  501    0 -0.83544984555E+01  0.39475975340E+01 -0.79667567740E+03  0.79675211828E+03  0.60350519087E+01 0.  0.
         13    1    3    3    0    0 -0.24217464436E+01  0.44158712970E+01 -0.40279187294E+03  0.40282335792E+03  0.00000000000E+00 0.  1.
          1    1    3    3  501    0 -0.59327520120E+01 -0.46827376300E+00 -0.39388380446E+03  0.39392876037E+03  0.00000000000E+00 0.  1.
         -1    1    1    2    0  502  0.83544984555E+01 -0.39475975340E+01 -0.20318110092E+03  0.20339110340E+03  0.00000000000E+00 0. -1.
<mgrwt>
<rscale>  1 0.30000000E+03</rscale>
<asrwt>0</asrwt>
<pdfrwt beam="1">  1       21 0.52080720E-03 0.30000000E+03</pdfrwt>
<pdfrwt beam="2">0</pdfrwt>
<totfact> 0.11254602E+06</totfact>
</mgrwt>
</event>
<event>
 6    1  0.1132867E-002  0.3000000E+03  0.7818608E-02  0.1093470E+00
         21   -1    0    0  501  502  0.00000000000E+00  0.00000000000E+00  0.20511905848E+00  0.20511905848E+00  0.00000000000E+00 0. -1.
         13   -1    0    0    0    0 -0.00000000000E+00 -0.00000000000E+00 -0.10000000000E+04  0.10000000000E+04  0.00000000000E+00 0.  1.
    9000005    2    1    2  501    0  0.76959635282E+01  0.52232140278E+01 -0.87040758640E+03  0.87048394959E+03  0.68139718461E+01 0.  0.
         13    1    3    3    0    0 -0.23693193918E+00 -0.12354888008E+01 -0.74407663378E+02  0.74418297069E+02  0.00000000000E+00 0.  1.
          1    1    3    3  501    0  0.79328954674E+01  0.64587028286E+01 -0.79599992302E+03  0.79606565252E+03  0.00000000000E+00 0.  1.
         -1    1    1    2    0  502 -0.76959635282E+01 -0.52232140278E+01 -0.12938729455E+03  0.12972116947E+03  0.00000000000E+00 0. -1.
<mgrwt>
<rscale>  1 0.30000000E+03</rscale>
<asrwt>0</asrwt>
<pdfrwt beam="1">  1       21 0.74588906E-03 0.30000000E+03</pdfrwt>
<pdfrwt beam="2">0</pdfrwt>
<totfact> 0.64205075E+05</totfact>
</mgrwt>
</event>
<event>
 6    1  0.1132867E-002  0.3000000E+03  0.7818608E-02  0.1093470E+00
         21   -1    0    0  501  502  0.00000000000E+00  0.00000000000E+00  0.30970794956E+00  0.30970794956E+00  0.00000000000E+00 0. -1.
         13   -1    0    0    0    0 -0.00000000000E+00 -0.00000000000E+00 -0.10000000000E+04  0.10000000000E+04  0.00000000000E+00 0.  1.
    9000005    2    1    2  501    0 -0.21684907551E+01  0.13363171718E+02 -0.80712408820E+03  0.80726821092E+03  0.70280791687E+01 0.  0.
         13    1    3    3    0    0  0.21381423140E+01  0.72329335413E+01 -0.33666616819E+03  0.33675064334E+03  0.00000000000E+00 0.  1.
          1    1    3    3  501    0 -0.43066330691E+01  0.61302381765E+01 -0.47045792000E+03  0.47051756758E+03  0.00000000000E+00 0.  1.
         -3    1    1    2    0  502  0.21684907551E+01 -0.13363171718E+02 -0.19256620385E+03  0.19304149703E+03  0.00000000000E+00 0. -1.
<mgrwt>
<rscale>  1 0.30000000E+03</rscale>
<asrwt>0</asrwt>
<pdfrwt beam="1">  1       21 0.11262131E-02 0.30000000E+03</pdfrwt>
<pdfrwt beam="2">0</pdfrwt>
<totfact> 0.33446919E+05</totfact>
</mgrwt>
</event>
<event>
 6    1  0.1132867E-002  0.3000000E+03  0.7818608E-02  0.1093470E+00
         21   -1    0    0  501  502  0.00000000000E+00  0.00000000000E+00  0.70288228746E+00  0.70288228746E+00  0.00000000000E+00 0. -1.
         13   -1    0    0    0    0 -0.00000000000E+00 -0.00000000000E+00 -0.10000000000E+04  0.10000000000E+04  0.00000000000E+00 0.  1.
    9000005    2    1    2  501    0  0.11571161874E+02 -0.29935591026E+01 -0.93859763655E+03  0.93883786635E+03  0.17554565700E+02 0.  0.
         13    1    3    3    0    0  0.61189273510E+01 -0.30039008167E+01 -0.86908562971E+03  0.86911236124E+03  0.00000000000E+00 0.  1.
          1    1    3    3  501    0  0.54522345234E+01  0.10341714112E-01 -0.69512006837E+02  0.69725505110E+02  0.00000000000E+00 0.  1.
         -3    1    1    2    0  502 -0.11571161874E+02  0.29935591026E+01 -0.60699481162E+02  0.61865015934E+02  0.00000000000E+00 0. -1.
<mgrwt>
<rscale>  1 0.30000000E+03</rscale>
<asrwt>0</asrwt>
<pdfrwt beam="1">  1       21 0.25559410E-02 0.30000000E+03</pdfrwt>
<pdfrwt beam="2">0</pdfrwt>
<totfact> 0.88678653E+04</totfact>
</mgrwt>
</event>
<event>
 6    1  0.1132867E-002  0.3000000E+03  0.7818608E-02  0.1093470E+00
         21   -1    0    0  501  502  0.00000000000E+00  0.00000000000E+00  0.12368695597E+00  0.12368695597E+00  0.00000000000E+00 0. -1.
         13   -1    0    0    0    0 -0.00000000000E+00 -0.00000000000E+00 -0.10000000000E+04  0.10000000000E+04  0.00000000000E+00 0.  1.
    9000005    2    1    2  501    0 -0.89254350990E+01  0.20529389708E+01 -0.70313955183E+03  0.70324562545E+03  0.80809907270E+01 0.  0.
         13    1    3    3    0    0 -0.44844779506E+01 -0.15736596512E+01 -0.14761627310E+03  0.14769275890E+03  0.00000000000E+00 0.  1.
          1    1    3    3  501    0 -0.44409571483E+01  0.36265986221E+01 -0.55552327873E+03  0.55555286655E+03  0.00000000000E+00 0.  1.
         -3    1    1    2    0  502  0.89254350990E+01 -0.20529389708E+01 -0.29673676121E+03  0.29687806151E+03  0.00000000000E+00 0. -1.
<mgrwt>
<rscale>  1 0.30000000E+03</rscale>
<asrwt>0</asrwt>
<pdfrwt beam="1">  1       21 0.44977170E-03 0.30000000E+03</pdfrwt>
<pdfrwt beam="2">0</pdfrwt>
<totfact> 0.14129146E+06</totfact>
</mgrwt>
</event>
<event>
 6    1  0.1132867E-002  0.3000000E+03  0.7818608E-02  0.1093470E+00
         21   -1    0    0  501  502  0.00000000000E+00  0.00000000000E+00  0.20030899224E+00  0.20030899224E+00  0.00000000000E+00 0. -1.
         13   -1    0    0    0    0 -0.00000000000E+00 -0.00000000000E+00 -0.10000000000E+04  0.10000000000E+04  0.00000000000E+00 0.  1.
    9000005    2    1    2  501    0  0.86721699610E+01 -0.65519431901E+01 -0.73477471132E+03  0.73495254868E+03  0.11968204817E+02 0.  0.
         13    1    3    3    0    0  0.24753330124E+01 -0.19499327529E+01 -0.36662967909E+02  0.36798134832E+02  0.00000000000E+00 0.  1.
          3    1    3    3  501    0  0.61968369486E+01 -0.46020104373E+01 -0.69811174341E+03  0.69815441385E+03  0.00000000000E+00 0.  1.
         -3    1    1    2    0  502 -0.86721699610E+01  0.65519431901E+01 -0.26502497968E+03  0.26524776031E+03  0.00000000000E+00 0. -1.
<mgrwt>
<rscale>  1 0.30000000E+03</rscale>
<asrwt>0</asrwt>
<pdfrwt beam="1">  1       21 0.72839787E-03 0.30000000E+03</pdfrwt>
<pdfrwt beam="2">0</pdfrwt>
<totfact> 0.66642985E+05</totfact>
</mgrwt>
</event>
<event>
 6    1  0.1132867E-002  0.3000000E+03  0.7818608E-02  0.1093470E+00
         21   -1    0    0  501  502  0.00000000000E+00  0.00000000000E+00  0.24184323878E+00  0.24184323878E+00  0.00000000000E+00 0. -1.
         13   -1    0    0    0    0 -0.00000000000E+00 -0.00000000000E+00 -0.10000000000E+04  0.10000000000E+04  0.00000000000E+00 0.  1.
    9000005    2    1    2  501    0 -0.95256527690E+01 -0.29101627811E+01 -0.85019735690E+03  0.85034974884E+03  0.12646840104E+02 0.  0.
         13    1    3    3    0    0 -0.37874576176E+01 -0.41128248540E+01 -0.71871032609E+03  0.71873207316E+03  0.00000000000E+00 0.  1.
          3    1    3    3  501    0 -0.57381951514E+01  0.12026620730E+01 -0.13148703081E+03  0.13161767568E+03  0.00000000000E+00 0.  1.
         -1    1    1    2    0  502  0.95256527690E+01  0.29101627811E+01 -0.14956079986E+03  0.14989209440E+03  0.00000000000E+00 0. -1.
<mgrwt>
<rscale>  1 0.30000000E+03</rscale>
<asrwt>0</asrwt>
<pdfrwt beam="1">  1       21 0.87943181E-03 0.30000000E+03</pdfrwt>
<pdfrwt beam="2">0</pdfrwt>
<totfact> 0.49525713E+05</totfact>
</mgrwt>
</event>
<event>
 6    1  0.1132867E-002  0.3000000E+03  0.7818608E-02  0.1093470E+00
         21   -1    0    0  501  502  0.00000000000E+00  0.00000000000E+00  0.21314893170E+00  0.21314893170E+00  0.00000000000E+00 0. -1.
         13   -1    0    0    0    0 -0.00000000000E+00 -0.00000000000E+00 -0.10000000000E+04  0.10000000000E+04  0.00000000000E+00 0.  1.
    9000005    2    1    2  501    0 -0.98119209782E+01 -0.84076112161E+01 -0.65041350455E+03  0.65060093951E+03  0.87689149866E+01 0.  0.
         13    1    3    3    0    0  0.65953844549E+00  0.26025659255E+00 -0.56712049201E+01  0.57153556058E+01  0.00000000000E+00 0.  1.
          1    1    3    3  501    0 -0.10471459424E+02 -0.86678678086E+01 -0.64474229963E+03  0.64488558390E+03  0.00000000000E+00 0.  1.
         -1    1    1    2    0  502  0.98119209782E+01  0.84076112161E+01 -0.34937334652E+03  0.34961220942E+03  0.00000000000E+00 0. -1.
<mgrwt>
<rscale>  1 0.30000000E+03</rscale>
<asrwt>0</asrwt>
<pdfrwt beam="1">  1       21 0.77508866E-03 0.30000000E+03</pdfrwt>
<pdfrwt beam="2">0</pdfrwt>
<totfact> 0.60442889E+05</totfact>
</mgrwt>
</event>
<event>
 6    1  0.1132867E-002  0.3000000E+03  0.7818608E-02  0.1093470E+00
         21   -1    0    0  501  502  0.00000000000E+00  0.00000000000E+00  0.40717023308E+00  0.40717023308E+00  0.00000000000E+00 0. -1.
         13   -1    0    0    0    0 -0.00000000000E+00 -0.00000000000E+00 -0.10000000000E+04  0.10000000000E+04  0.00000000000E+00 0.  1.
    9000005    2    1    2  501    0 -0.14084117047E+02  0.36922099302E+01 -0.76169663342E+03  0.76206582887E+03  0.18723551971E+02 0.  0.
         13    1    3    3    0    0 -0.11726881402E+02 -0.56867890167E+01 -0.32337913818E+03  0.32364166346E+03  0.00000000000E+00 0.  1.
          1    1    3    3  501    0 -0.23572356453E+01  0.93789989470E+01 -0.43831749524E+03  0.43842416541E+03  0.00000000000E+00 0.  1.
         -3    1    1    2    0  502  0.14084117047E+02 -0.36922099302E+01 -0.23789619634E+03  0.23834134136E+03  0.00000000000E+00 0. -1.
<mgrwt>
<rscale>  1 0.30000000E+03</rscale>
<asrwt>0</asrwt>
<pdfrwt beam="1">  1       21 0.14806222E-02 0.30000000E+03</pdfrwt>
<pdfrwt beam="2">0</pdfrwt>
<totfact> 0.21577390E+05</totfact>
</mgrwt>
</event>
<event>
 6    1  0.1132867E-002  0.3000000E+03  0.7818608E-02  0.1093470E+00
         21   -1    0    0  501  502  0.00000000000E+00  0.00000000000E+00  0.28869764379E+00  0.28869764379E+00  0.00000000000E+00 0. -1.
         13   -1    0    0    0    0 -0.00000000000E+00 -0.00000000000E+00 -0.10000000000E+04  0.10000000000E+04  0.00000000000E+00 0.  1.
    9000005    2    1    2  501    0 -0.10778718056E+02 -0.41786734759E+00 -0.64760643012E+03  0.64801863586E+03  0.20437923432E+02 0.  0.
         13    1    3    3    0    0  0.58236383038E+01 -0.65795482964E+00 -0.11016938077E+03  0.11032515637E+03  0.00000000000E+00 0.  1.
          3    1    3    3  501    0 -0.16602356360E+02  0.24008748205E+00 -0.53743704935E+03  0.53769347949E+03  0.00000000000E+00 0.  1.
         -1    1    1    2    0  502  0.10778718056E+02  0.41786734759E+00 -0.35210487223E+03  0.35227006178E+03  0.00000000000E+00 0. -1.
<mgrwt>
<rscale>  1 0.30000000E+03</rscale>
<asrwt>0</asrwt>
<pdfrwt beam="1">  1       21 0.10498118E-02 0.30000000E+03</pdfrwt>
<pdfrwt beam="2">0</pdfrwt>
<totfact> 0.37404752E+05</totfact>
</mgrwt>
</event>
<event>
 6    1  0.1132867E-002  0.3000000E+03  0.7818608E-02  0.1093470E+00
         21   -1    0    0  501  502  0.00000000000E+00  0.00000000000E+00  0.22821587214E+00  0.22821587214E+00  0.00000000000E+00 0. -1.
         13   -1    0    0    0    0 -0.00000000000E+00 -0.00000000000E+00 -0.10000000000E+04  0.10000000000E+04  0.00000000000E+00 0.  1.
    9000005    2    1    2  501    0  0.85861200096E+01 -0.12340131575E+02 -0.51907219069E+03  0.51929360552E+03  0.19771902273E+01 0.  0.
         13    1    3    3    0    0  0.11720123968E+00  0.48640726399E-01 -0.84193188027E+01  0.84202750046E+01  0.00000000000E+00 0.  1.
          1    1    3    3  501    0  0.84689187700E+01 -0.12388772301E+02 -0.51065287189E+03  0.51087333052E+03  0.00000000000E+00 0.  1.
         -3    1    1    2    0  502 -0.85861200096E+01  0.12340131575E+02 -0.48069959344E+03  0.48093461035E+03  0.00000000000E+00 0. -1.
<mgrwt>
<rscale>  1 0.30000000E+03</rscale>
<asrwt>0</asrwt>
<pdfrwt beam="1">  1       21 0.82987765E-03 0.30000000E+03</pdfrwt>
<pdfrwt beam="2">0</pdfrwt>
<totfact> 0.54274334E+05</totfact>
</mgrwt>
</event>
<event>
 6    1  0.1132867E-002  0.3000000E+03  0.7818608E-02  0.1093470E+00
         21   -1    0    0  501  502  0.00000000000E+00  0.00000000000E+00  0.84060105647E+00  0.84060105647E+00  0.00000000000E+00 0. -1.
         13   -1    0    0    0    0 -0.00000000000E+00 -0.00000000000E+00 -0.10000000000E+04  0.10000000000E+04  0.00000000000E+00 0.  1.
    9000005    2    1    2  501    0  0.18693093926E+02  0.89320208205E+01 -0.67292644488E+03  0.67395047720E+03  0.30822601216E+02 0.  0.
         13    1    3    3    0    0  0.12654451273E+02  0.20405139388E+02 -0.40603564050E+03  0.40674493999E+03  0.00000000000E+00 0.  1.
          1    1    3    3  501    0  0.60386426530E+01 -0.11473118567E+02 -0.26689080438E+03  0.26720553721E+03  0.00000000000E+00 0.  1.
         -3    1    1    2    0  502 -0.18693093926E+02 -0.89320208205E+01 -0.32623295406E+03  0.32689012386E+03  0.00000000000E+00 0. -1.
<mgrwt>
<rscale>  1 0.30000000E+03</rscale>
<asrwt>0</asrwt>
<pdfrwt beam="1">  1       21 0.30567376E-02 0.30000000E+03</pdfrwt>
<pdfrwt beam="2">0</pdfrwt>
<totfact> 0.65945772E+04</totfact>
</mgrwt>
</event>
<event>
 6    1  0.1132867E-002  0.3000000E+03  0.7818608E-02  0.1093470E+00
         21   -1    0    0  501  502  0.00000000000E+00  0.00000000000E+00  0.25318091431E+00  0.25318091431E+00  0.00000000000E+00 0. -1.
         13   -1    0    0    0    0 -0.00000000000E+00 -0.00000000000E+00 -0.10000000000E+04  0.10000000000E+04  0.00000000000E+00 0.  1.
    9000005    2    1    2  501    0 -0.63345759397E+01  0.68351923181E+01 -0.88015037817E+03  0.88029420715E+03  0.12897916365E+02 0.  0.
         13    1    3    3    0    0  0.88415316030E+00 -0.25335962967E+01 -0.35729416501E+03  0.35730424177E+03  0.00000000000E+00 0.  1.
          1    1    3    3  501    0 -0.72187291000E+01  0.93687886148E+01 -0.52285621316E+03  0.52298996539E+03  0.00000000000E+00 0.  1.
         -1    1    1    2    0  502  0.63345759397E+01 -0.68351923181E+01 -0.11959644092E+03  0.11995897376E+03  0.00000000000E+00 0. -1.
<mgrwt>
<rscale>  1 0.30000000E+03</rscale>
<asrwt>0</asrwt>
<pdfrwt beam="1">  1       21 0.92065981E-03 0.30000000E+03</pdfrwt>
<pdfrwt beam="2">0</pdfrwt>
<totfact> 0.46065403E+05</totfact>
</mgrwt>
</event>
<event>
 6    1  0.1132867E-002  0.3000000E+03  0.7818608E-02  0.1093470E+00
         21   -1    0    0  501  502  0.00000000000E+00  0.00000000000E+00  0.52367568375E+00  0.52367568375E+00  0.00000000000E+00 0. -1.
         13   -1    0    0    0    0 -0.00000000000E+00 -0.00000000000E+00 -0.10000000000E+04  0.10000000000E+04  0.00000000000E+00 0.  1.
    9000005    2    1    2  501    0 -0.12185517107E+01  0.11179531188E+02 -0.93435516243E+03  0.93443863568E+03  0.54339231420E+01 0.  0.
         13    1    3    3    0    0  0.18601343579E+01  0.59424670103E+01 -0.55352766297E+03  0.55356268542E+03  0.00000000000E+00 0.  1.
          3    1    3    3  501    0 -0.30786860686E+01  0.52370641777E+01 -0.38082749945E+03  0.38087595026E+03  0.00000000000E+00 0.  1.
         -3    1    1    2    0  502  0.12185517107E+01 -0.11179531188E+02 -0.65121161890E+02  0.66085040000E+02  0.00000000000E+00 0. -1.
<mgrwt>
<rscale>  1 0.30000000E+03</rscale>
<asrwt>0</asrwt>
<pdfrwt beam="1">  1       21 0.19042792E-02 0.30000000E+03</pdfrwt>
<pdfrwt beam="2">0</pdfrwt>
<totfact> 0.14358157E+05</totfact>
</mgrwt>
</event>
<event>
 6    1  0.1132867E-002  0.3000000E+03  0.7818608E-02  0.1093470E+00
         21   -1    0    0  501  502  0.00000000000E+00  0.00000000000E+00  0.22154995210E+00  0.22154995210E+00  0.00000000000E+00 0. -1.
         13   -1    0    0    0    0 -0.00000000000E+00 -0.00000000000E+00 -0.10000000000E+04  0.10000000000E+04  0.00000000000E+00 0.  1.
    9000005    2    1    2  501    0 -0.40676276952E+00 -0.12837282097E+02 -0.66573053977E+03  0.66592681828E+03  0.98190857373E+01 0.  0.
         13    1    3    3    0    0 -0.21521061053E+01 -0.29107863521E+01 -0.58082145716E+02  0.58194844178E+02  0.00000000000E+00 0.  1.
          1    1    3    3  501    0  0.17453433357E+01 -0.99264957451E+01 -0.60764839406E+03  0.60773197410E+03  0.00000000000E+00 0.  1.
         -3    1    1    2    0  502  0.40676276952E+00  0.12837282097E+02 -0.33404791027E+03  0.33429473168E+03  0.00000000000E+00 0. -1.
<mgrwt>
<rscale>  1 0.30000000E+03</rscale>
<asrwt>0</asrwt>
<pdfrwt beam="1">  1       21 0.80563789E-03 0.30000000E+03</pdfrwt>
<pdfrwt beam="2">0</pdfrwt>
<totfact> 0.56872119E+05</totfact>
</mgrwt>
</event>
<event>
 6    1  0.1132867E-002  0.3000000E+03  0.7818608E-02  0.1093470E+00
         21   -1    0    0  501  502  0.00000000000E+00  0.00000000000E+00  0.81179092335E-01  0.81179092335E-01  0.00000000000E+00 0. -1.
         13   -1    0    0    0    0 -0.00000000000E+00 -0.00000000000E+00 -0.10000000000E+04  0.10000000000E+04  0.00000000000E+00 0.  1.
    9000005    2    1    2  501    0  0.32618395540E+01 -0.68578986594E+01 -0.62059834960E+03  0.62068469739E+03  0.70364538439E+01 0.  0.
         13    1    3    3    0    0  0.20200750463E+01 -0.61840795835E+01 -0.60111041845E+03  0.60114562188E+03  0.00000000000E+00 0.  1.
          3    1    3    3  501    0  0.12417645077E+01 -0.67381907587E+00 -0.19487931151E+02  0.19539075510E+02  0.00000000000E+00 0.  1.
         -3    1    1    2    0  502 -0.32618395540E+01  0.68578986594E+01 -0.37932047131E+03  0.37939648170E+03  0.00000000000E+00 0. -1.
<mgrwt>
<rscale>  1 0.30000000E+03</rscale>
<asrwt>0</asrwt>
<pdfrwt beam="1">  1       21 0.29519732E-03 0.30000000E+03</pdfrwt>
<pdfrwt beam="2">0</pdfrwt>
<totfact> 0.27009627E+06</totfact>
</mgrwt>
</event>
<event>
 6    1  0.1132867E-002  0.3000000E+03  0.7818608E-02  0.1093470E+00
         21   -1    0    0  501  502  0.00000000000E+00  0.00000000000E+00  0.81608594472E+00  0.81608594472E+00  0.00000000000E+00 0. -1.
         13   -1    0    0    0    0 -0.00000000000E+00 -0.00000000000E+00 -0.10000000000E+04  0.10000000000E+04  0.00000000000E+00 0.  1.
    9000005    2    1    2  501    0 -0.18838228172E+01  0.16771861123E+02 -0.87660570709E+03  0.87708144675E+03  0.23440444016E+02 0.  0.
         13    1    3    3    0    0 -0.68330676976E+01  0.17947503383E+02 -0.41145667714E+03  0.41190460164E+03  0.00000000000E+00 0.  1.
          1    1    3    3  501    0  0.49492448804E+01 -0.11756422600E+01 -0.46514902995E+03  0.46517684510E+03  0.00000000000E+00 0.  1.
         -3    1    1    2    0  502  0.18838228172E+01 -0.16771861123E+02 -0.12257820697E+03  0.12373463920E+03  0.00000000000E+00 0. -1.
<mgrwt>
<rscale>  1 0.30000000E+03</rscale>
<asrwt>0</asrwt>
<pdfrwt beam="1">  1       21 0.29675915E-02 0.30000000E+03</pdfrwt>
<pdfrwt beam="2">0</pdfrwt>
<totfact> 0.69267878E+04</totfact>
</mgrwt>
</event>
<event>
 6    1  0.1132867E-002  0.3000000E+03  0.7818608E-02  0.1093470E+00
         21   -1    0    0  501  502  0.00000000000E+00  0.00000000000E+00  0.47596580892E+00  0.47596580892E+00  0.00000000000E+00 0.  1.
         13   -1    0    0    0    0 -0.00000000000E+00 -0.00000000000E+00 -0.10000000000E+04  0.10000000000E+04  0.00000000000E+00 0.  1.
    9000005    2    1    2  501    0 -0.12011022213E+01  0.95116934418E+01 -0.68947442390E+03  0.69027816472E+03  0.31891198135E+02 0.  0.
         13    1    3    3    0    0 -0.31050427491E+01  0.13730070143E+02 -0.12586370588E+03  0.12664844482E+03  0.00000000000E+00 0.  1.
          1    1    3    3  501    0  0.19039405278E+01 -0.42183767016E+01 -0.56361071802E+03  0.56362971990E+03  0.00000000000E+00 0.  1.
         -3    1    1    2    0  502  0.12011022213E+01 -0.95116934418E+01 -0.31004961029E+03  0.31019780109E+03  0.00000000000E+00 0. -1.
<mgrwt>
<rscale>  1 0.30000000E+03</rscale>
<asrwt>0</asrwt>
<pdfrwt beam="1">  1       21 0.17307884E-02 0.30000000E+03</pdfrwt>
<pdfrwt beam="2">0</pdfrwt>
<totfact> 0.16767253E+05</totfact>
</mgrwt>
</event>
<event>
 6    1  0.1132867E-002  0.3000000E+03  0.7818608E-02  0.1093470E+00
         21   -1    0    0  501  502  0.00000000000E+00  0.00000000000E+00  0.56594857077E+00  0.56594857077E+00  0.00000000000E+00 0. -1.
         13   -1    0    0    0    0 -0.00000000000E+00 -0.00000000000E+00 -0.10000000000E+04  0.10000000000E+04  0.00000000000E+00 0.  1.
    9000005    2    1    2  501    0 -0.11369305825E+02  0.48476925548E+01 -0.80270907656E+03  0.80345309517E+03  0.32283948182E+02 0.  0.
         13    1    3    3    0    0  0.76044944997E+01  0.17102439306E+01 -0.53392644085E+03  0.53398333074E+03  0.00000000000E+00 0.  1.
          3    1    3    3  501    0 -0.18973800325E+02  0.31374486242E+01 -0.26878263571E+03  0.26946976443E+03  0.00000000000E+00 0.  1.
         -1    1    1    2    0  502  0.11369305825E+02 -0.48476925548E+01 -0.19672497487E+03  0.19711285340E+03  0.00000000000E+00 0. -1.
<mgrwt>
<rscale>  1 0.30000000E+03</rscale>
<asrwt>0</asrwt>
<pdfrwt beam="1">  1       21 0.20579991E-02 0.30000000E+03</pdfrwt>
<pdfrwt beam="2">0</pdfrwt>
<totfact> 0.12652244E+05</totfact>
</mgrwt>
</event>
<event>
 6    1  0.1132867E-002  0.3000000E+03  0.7818608E-02  0.1093470E+00
         21   -1    0    0  501  502  0.00000000000E+00  0.00000000000E+00  0.17216371774E+00  0.17216371774E+00  0.00000000000E+00 0. -1.
         13   -1    0    0    0    0 -0.00000000000E+00 -0.00000000000E+00 -0.10000000000E+04  0.10000000000E+04  0.00000000000E+00 0.  1.
    9000005    2    1    2  501    0 -0.53070967791E+00  0.10036951697E+02 -0.77371109918E+03  0.77383215212E+03  0.92904579399E+01 0.  0.
         13    1    3    3    0    0  0.17660371097E+01  0.61779169574E+01 -0.66152773171E+03  0.66155893567E+03  0.00000000000E+00 0.  1.
          1    1    3    3  501    0 -0.22967467876E+01  0.38590347400E+01 -0.11218336747E+03  0.11227321645E+03  0.00000000000E+00 0.  1.
         -1    1    1    2    0  502  0.53070967791E+00 -0.10036951697E+02 -0.22611673711E+03  0.22634001160E+03  0.00000000000E+00 0. -1.
<mgrwt>
<rscale>  1 0.30000000E+03</rscale>
<asrwt>0</asrwt>
<pdfrwt beam="1">  1       21 0.62605120E-03 0.30000000E+03</pdfrwt>
<pdfrwt beam="2">0</pdfrwt>
<totfact> 0.84483196E+05</totfact>
</mgrwt>
</event>
<event>
 6    1  0.1132867E-002  0.3000000E+03  0.7818608E-02  0.1093470E+00
         21   -1    0    0  501  502  0.00000000000E+00  0.00000000000E+00  0.21146519944E+00  0.21146519944E+00  0.00000000000E+00 0. -1.
         13   -1    0    0    0    0 -0.00000000000E+00 -0.00000000000E+00 -0.10000000000E+04  0.10000000000E+04  0.00000000000E+00 0.  1.
    9000005    2    1    2  501    0  0.68360647068E+00 -0.92065467060E+01 -0.80967862446E+03  0.80987753278E+03  0.15392055628E+02 0.  0.
         13    1    3    3    0    0 -0.22727150353E+01 -0.12930293631E+02 -0.62354569050E+03  0.62368388296E+03  0.00000000000E+00 0.  1.
          3    1    3    3  501    0  0.29563215059E+01  0.37237469249E+01 -0.18613293396E+03  0.18619364982E+03  0.00000000000E+00 0.  1.
         -3    1    1    2    0  502 -0.68360647068E+00  0.92065467060E+01 -0.19010991034E+03  0.19033393242E+03  0.00000000000E+00 0. -1.
<mgrwt>
<rscale>  1 0.30000000E+03</rscale>
<asrwt>0</asrwt>
<pdfrwt beam="1">  1       21 0.76896598E-03 0.30000000E+03</pdfrwt>
<pdfrwt beam="2">0</pdfrwt>
<totfact> 0.61201872E+05</totfact>
</mgrwt>
</event>
<event>
 6    1  0.1132867E-002  0.3000000E+03  0.7818608E-02  0.1093470E+00
         21   -1    0    0  501  502  0.00000000000E+00  0.00000000000E+00  0.85722016330E+00  0.85722016330E+00  0.00000000000E+00 0. -1.
         13   -1    0    0    0    0 -0.00000000000E+00 -0.00000000000E+00 -0.10000000000E+04  0.10000000000E+04  0.00000000000E+00 0.  1.
    9000005    2    1    2  501    0  0.24428662242E+02 -0.11361790995E+01 -0.70244350072E+03  0.70315180760E+03  0.19938464930E+02 0.  0.
         13    1    3    3    0    0  0.97151141821E+01 -0.22348500880E+01 -0.52539920425E+03  0.52549376954E+03  0.00000000000E+00 0.  1.
          1    1    3    3  501    0  0.14713548060E+02  0.10986709885E+01 -0.17704429647E+03  0.17765803806E+03  0.00000000000E+00 0.  1.
         -3    1    1    2    0  502 -0.24428662242E+02  0.11361790995E+01 -0.29669927911E+03  0.29770541256E+03  0.00000000000E+00 0. -1.
<mgrwt>
<rscale>  1 0.30000000E+03</rscale>
<asrwt>0</asrwt>
<pdfrwt beam="1">  1       21 0.31171708E-02 0.30000000E+03</pdfrwt>
<pdfrwt beam="2">0</pdfrwt>
<totfact> 0.63834199E+04</totfact>
</mgrwt>
</event>
<event>
 6    1  0.1132867E-002  0.3000000E+03  0.7818608E-02  0.1093470E+00
         21   -1    0    0  501  502  0.00000000000E+00  0.00000000000E+00  0.15479853401E+00  0.15479853401E+00  0.00000000000E+00 0. -1.
         13   -1    0    0    0    0 -0.00000000000E+00 -0.00000000000E+00 -0.10000000000E+04  0.10000000000E+04  0.00000000000E+00 0.  1.
    9000005    2    1    2  501    0  0.90257977516E+01 -0.82657181712E+01 -0.48784389978E+03  0.48800724162E+03  0.31000325546E+01 0.  0.
         13    1    3    3    0    0  0.13662912150E+01 -0.31781865623E+00 -0.87346695200E+02  0.87357958554E+02  0.00000000000E+00 0.  1.
          3    1    3    3  501    0  0.76595065366E+01 -0.79478995150E+01 -0.40049720458E+03  0.40064928306E+03  0.00000000000E+00 0.  1.
         -1    1    1    2    0  502 -0.90257977516E+01  0.82657181712E+01 -0.51200130169E+03  0.51214755692E+03  0.00000000000E+00 0. -1.
<mgrwt>
<rscale>  1 0.30000000E+03</rscale>
<asrwt>0</asrwt>
<pdfrwt beam="1">  1       21 0.56290495E-03 0.30000000E+03</pdfrwt>
<pdfrwt beam="2">0</pdfrwt>
<totfact> 0.99727911E+05</totfact>
</mgrwt>
</event>
<event>
 6    1  0.1132867E-002  0.3000000E+03  0.7818608E-02  0.1093470E+00
         21   -1    0    0  501  502  0.00000000000E+00  0.00000000000E+00  0.23837504087E+00  0.23837504087E+00  0.00000000000E+00 0. -1.
         13   -1    0    0    0    0 -0.00000000000E+00 -0.00000000000E+00 -0.10000000000E+04  0.10000000000E+04  0.00000000000E+00 0.  1.
    9000005    2    1    2  501    0  0.10009902266E+01  0.10375253794E+02 -0.85269103878E+03  0.85279887833E+03  0.86759082614E+01 0.  0.
         13    1    3    3    0    0 -0.15569311425E+01  0.10586819366E+02 -0.60581136984E+03  0.60590586778E+03  0.00000000000E+00 0.  1.
          3    1    3    3  501    0  0.25579213690E+01 -0.21156557206E+00 -0.24687966894E+03  0.24689301055E+03  0.00000000000E+00 0.  1.
         -3    1    1    2    0  502 -0.10009902266E+01 -0.10375253794E+02 -0.14707058618E+03  0.14743949672E+03  0.00000000000E+00 0. -1.
<mgrwt>
<rscale>  1 0.30000000E+03</rscale>
<asrwt>0</asrwt>
<pdfrwt beam="1">  1       21 0.86682016E-03 0.30000000E+03</pdfrwt>
<pdfrwt beam="2">0</pdfrwt>
<totfact> 0.50668653E+05</totfact>
</mgrwt>
</event>
<event>
 6    1  0.1132867E-002  0.3000000E+03  0.7818608E-02  0.1093470E+00
         21   -1    0    0  501  502  0.00000000000E+00  0.00000000000E+00  0.13632403336E+00  0.13632403336E+00  0.00000000000E+00 0. -1.
         13   -1    0    0    0    0 -0.00000000000E+00 -0.00000000000E+00 -0.10000000000E+04  0.10000000000E+04  0.00000000000E+00 0.  1.
    9000005    2    1    2  501    0 -0.56056695241E+01  0.93506304010E+01 -0.59572329648E+03  0.59584892112E+03  0.55527484860E+01 0.  0.
         13    1    3    3    0    0 -0.45850419918E+01  0.23405774582E+01 -0.24427444463E+03  0.24432868274E+03  0.00000000000E+00 0.  1.
          1    1    3    3  501    0 -0.10206275324E+01  0.70100529428E+01 -0.35144885185E+03  0.35152023838E+03  0.00000000000E+00 0.  1.
         -1    1    1    2    0  502  0.56056695241E+01 -0.93506304010E+01 -0.40414037949E+03  0.40428740291E+03  0.00000000000E+00 0. -1.
<mgrwt>
<rscale>  1 0.30000000E+03</rscale>
<asrwt>0</asrwt>
<pdfrwt beam="1">  1       21 0.49572480E-03 0.30000000E+03</pdfrwt>
<pdfrwt beam="2">0</pdfrwt>
<totfact> 0.12151509E+06</totfact>
</mgrwt>
</event>
<event>
 6    1  0.1132867E-002  0.3000000E+03  0.7818608E-02  0.1093470E+00
         21   -1    0    0  501  502  0.00000000000E+00  0.00000000000E+00  0.11570354645E+00  0.11570354645E+00  0.00000000000E+00 0. -1.
         13   -1    0    0    0    0 -0.00000000000E+00 -0.00000000000E+00 -0.10000000000E+04  0.10000000000E+04  0.00000000000E+00 0.  1.
    9000005    2    1    2  501    0  0.62677180533E+01 -0.80938857716E+01 -0.50063088715E+03  0.50075735329E+03  0.46740156239E+01 0.  0.
         13    1    3    3    0    0  0.50146398687E+01 -0.79202553320E+01 -0.36427912186E+03  0.36439971965E+03  0.00000000000E+00 0.  1.
          3    1    3    3  501    0  0.12530781846E+01 -0.17363043961E+00 -0.13635176529E+03  0.13635763364E+03  0.00000000000E+00 0.  1.
         -1    1    1    2    0  502 -0.62677180533E+01  0.80938857716E+01 -0.49925340930E+03  0.49935835026E+03  0.00000000000E+00 0. -1.
<mgrwt>
<rscale>  1 0.30000000E+03</rscale>
<asrwt>0</asrwt>
<pdfrwt beam="1">  1       21 0.42074106E-03 0.30000000E+03</pdfrwt>
<pdfrwt beam="2">0</pdfrwt>
<totfact> 0.15664088E+06</totfact>
</mgrwt>
</event>
<event>
 6    1  0.1132867E-002  0.3000000E+03  0.7818608E-02  0.1093470E+00
         21   -1    0    0  501  502  0.00000000000E+00  0.00000000000E+00  0.13138385913E+00  0.13138385913E+00  0.00000000000E+00 0. -1.
         13   -1    0    0    0    0 -0.00000000000E+00 -0.00000000000E+00 -0.10000000000E+04  0.10000000000E+04  0.00000000000E+00 0.  1.
    9000005    2    1    2  501    0  0.86541618294E+01  0.64345840801E+01 -0.61065083535E+03  0.61076423158E+03  0.47122686751E+01 0.  0.
         13    1    3    3    0    0  0.89200297423E+00 -0.71064907771E+00 -0.83926638716E+02  0.83934387337E+02  0.00000000000E+00 0.  1.
          1    1    3    3  501    0  0.77621588551E+01  0.71452331578E+01 -0.52672419663E+03  0.52682984424E+03  0.00000000000E+00 0.  1.
         -3    1    1    2    0  502 -0.86541618294E+01 -0.64345840801E+01 -0.38921778079E+03  0.38936715228E+03  0.00000000000E+00 0. -1.
<mgrwt>
<rscale>  1 0.30000000E+03</rscale>
<asrwt>0</asrwt>
<pdfrwt beam="1">  1       21 0.47776050E-03 0.30000000E+03</pdfrwt>
<pdfrwt beam="2">0</pdfrwt>
<totfact> 0.12867905E+06</totfact>
</mgrwt>
</event>
<event>
 6    1  0.1132867E-002  0.3000000E+03  0.7818608E-02  0.1093470E+00
         21   -1    0    0  501  502  0.00000000000E+00  0.00000000000E+00  0.12553096519E+00  0.12553096519E+00  0.00000000000E+00 0. -1.
         13   -1    0    0    0    0 -0.00000000000E+00 -0.00000000000E+00 -0.10000000000E+04  0.10000000000E+04  0.00000000000E+00 0.  1.
    9000005    2    1    2  501    0 -0.87879782706E+01  0.49363049317E+01 -0.68132381341E+03  0.68141544975E+03  0.48250151869E+01 0.  0.
         13    1    3    3    0    0 -0.69144991398E+01  0.55500939836E+01 -0.47917648963E+03  0.47925851277E+03  0.00000000000E+00 0.  1.
          3    1    3    3  501    0 -0.18734791309E+01 -0.61378905190E+00 -0.20214732377E+03  0.20215693698E+03  0.00000000000E+00 0.  1.
         -3    1    1    2    0  502  0.87879782706E+01 -0.49363049317E+01 -0.31855065563E+03  0.31871008122E+03  0.00000000000E+00 0. -1.
<mgrwt>
<rscale>  1 0.30000000E+03</rscale>
<asrwt>0</asrwt>
<pdfrwt beam="1">  1       21 0.45647720E-03 0.30000000E+03</pdfrwt>
<pdfrwt beam="2">0</pdfrwt>
<totfact> 0.13809239E+06</totfact>
</mgrwt>
</event>
<event>
 6    1  0.1132867E-002  0.3000000E+03  0.7818608E-02  0.1093470E+00
         21   -1    0    0  501  502  0.00000000000E+00  0.00000000000E+00  0.24462013789E+00  0.24462013789E+00  0.00000000000E+00 0. -1.
         13   -1    0    0    0    0 -0.00000000000E+00 -0.00000000000E+00 -0.10000000000E+04  0.10000000000E+04  0.00000000000E+00 0.  1.
    9000005    2    1    2  501    0 -0.12418265496E+02  0.92733345688E+00 -0.58116372708E+03  0.58146777617E+03  0.14086297764E+02 0.  0.
         13    1    3    3    0    0 -0.12813490285E+02 -0.98320963347E+00 -0.27714853247E+03  0.27744632144E+03  0.00000000000E+00 0.  1.
          3    1    3    3  501    0  0.39522478854E+00  0.19105430903E+01 -0.30401519461E+03  0.30402145472E+03  0.00000000000E+00 0.  1.
         -3    1    1    2    0  502  0.12418265496E+02 -0.92733345688E+00 -0.41859165279E+03  0.41877684397E+03  0.00000000000E+00 0. -1.
<mgrwt>
<rscale>  1 0.30000000E+03</rscale>
<asrwt>0</asrwt>
<pdfrwt beam="1">  1       21 0.88952965E-03 0.30000000E+03</pdfrwt>
<pdfrwt beam="2">0</pdfrwt>
<totfact> 0.48640298E+05</totfact>
</mgrwt>
</event>
<event>
 6    1  0.1132867E-002  0.3000000E+03  0.7818608E-02  0.1093470E+00
         21   -1    0    0  501  502  0.00000000000E+00  0.00000000000E+00  0.26682255489E+00  0.26682255489E+00  0.00000000000E+00 0. -1.
         13   -1    0    0    0    0 -0.00000000000E+00 -0.00000000000E+00 -0.10000000000E+04  0.10000000000E+04  0.00000000000E+00 0.  1.
    9000005    2    1    2  501    0 -0.60076234859E+01  0.12330079247E+02 -0.71902005623E+03  0.71921882165E+03  0.98868473493E+01 0.  0.
         13    1    3    3    0    0 -0.70575872955E+01  0.46094486713E+01 -0.47388327040E+03  0.47395823711E+03  0.00000000000E+00 0.  1.
          3    1    3    3  501    0  0.10499638096E+01  0.77206305757E+01 -0.24513678583E+03  0.24526058454E+03  0.00000000000E+00 0.  1.
         -1    1    1    2    0  502  0.60076234859E+01 -0.12330079247E+02 -0.28071312121E+03  0.28104800091E+03  0.00000000000E+00 0. -1.
<mgrwt>
<rscale>  1 0.30000000E+03</rscale>
<asrwt>0</asrwt>
<pdfrwt beam="1">  1       21 0.97026588E-03 0.30000000E+03</pdfrwt>
<pdfrwt beam="2">0</pdfrwt>
<totfact> 0.42391627E+05</totfact>
</mgrwt>
</event>
<event>
 6    1  0.1132867E-002  0.3000000E+03  0.7818608E-02  0.1093470E+00
         21   -1    0    0  501  502  0.00000000000E+00  0.00000000000E+00  0.12632512714E+00  0.12632512714E+00  0.00000000000E+00 0. -1.
         13   -1    0    0    0    0 -0.00000000000E+00 -0.00000000000E+00 -0.10000000000E+04  0.10000000000E+04  0.00000000000E+00 0.  1.
    9000005    2    1    2  501    0 -0.54007441813E+01  0.84041358698E+01 -0.29430799715E+03  0.29448992930E+03  0.27062399006E+01 0.  0.
         13    1    3    3    0    0 -0.39855849002E+01  0.78825020851E+01 -0.25551376397E+03  0.25566638869E+03  0.00000000000E+00 0.  1.
          3    1    3    3  501    0 -0.14151592811E+01  0.52163378470E+00 -0.38794233186E+02  0.38823540618E+02  0.00000000000E+00 0.  1.
         -1    1    1    2    0  502  0.54007441813E+01 -0.84041358698E+01 -0.70556567772E+03  0.70563639582E+03  0.00000000000E+00 0. -1.
<mgrwt>
<rscale>  1 0.30000000E+03</rscale>
<asrwt>0</asrwt>
<pdfrwt beam="1">  1       21 0.45936507E-03 0.30000000E+03</pdfrwt>
<pdfrwt beam="2">0</pdfrwt>
<totfact> 0.13675072E+06</totfact>
</mgrwt>
</event>
<event>
 6    1  0.1132867E-002  0.3000000E+03  0.7818608E-02  0.1093470E+00
         21   -1    0    0  501  502  0.00000000000E+00  0.00000000000E+00  0.84981573803E-01  0.84981573803E-01  0.00000000000E+00 0. -1.
         13   -1    0    0    0    0 -0.00000000000E+00 -0.00000000000E+00 -0.10000000000E+04  0.10000000000E+04  0.00000000000E+00 0.  1.
    9000005    2    1    2  501    0 -0.32557334652E+01 -0.68420686988E+01 -0.58530330876E+03  0.58540403977E+03  0.77789991015E+01 0.  0.
         13    1    3    3    0    0 -0.35937203530E+00 -0.11337214535E+01 -0.10836424879E+02  0.10901494244E+02  0.00000000000E+00 0.  1.
          1    1    3    3  501    0 -0.28963614299E+01 -0.57083472453E+01 -0.57446688388E+03  0.57450254553E+03  0.00000000000E+00 0.  1.
         -1    1    1    2    0  502  0.32557334652E+01  0.68420686988E+01 -0.41461170966E+03  0.41468094180E+03  0.00000000000E+00 0. -1.
<mgrwt>
<rscale>  1 0.30000000E+03</rscale>
<asrwt>0</asrwt>
<pdfrwt beam="1">  1       21 0.30902456E-03 0.30000000E+03</pdfrwt>
<pdfrwt beam="2">0</pdfrwt>
<totfact> 0.25180577E+06</totfact>
</mgrwt>
</event>
<event>
 6    1  0.1132867E-002  0.3000000E+03  0.7818608E-02  0.1093470E+00
         21   -1    0    0  501  502  0.00000000000E+00  0.00000000000E+00  0.32202136620E+00  0.32202136620E+00  0.00000000000E+00 0. -1.
         13   -1    0    0    0    0 -0.00000000000E+00 -0.00000000000E+00 -0.10000000000E+04  0.10000000000E+04  0.00000000000E+00 0.  1.
    9000005    2    1    2  501    0  0.11862258663E+02 -0.95504193625E+01 -0.66364068957E+03  0.66393982306E+03  0.12853019570E+02 0.  0.
         13    1    3    3    0    0  0.12191350589E+02 -0.38849458963E+01 -0.55810789857E+03  0.55825455509E+03  0.00000000000E+00 0.  1.
          1    1    3    3  501    0 -0.32909192653E+00 -0.56654734661E+01 -0.10553279100E+03  0.10568526798E+03  0.00000000000E+00 0.  1.
         -3    1    1    2    0  502 -0.11862258663E+02  0.95504193625E+01 -0.33603728907E+03  0.33638219830E+03  0.00000000000E+00 0. -1.
<mgrwt>
<rscale>  1 0.30000000E+03</rscale>
<asrwt>0</asrwt>
<pdfrwt beam="1">  1       21 0.11709893E-02 0.30000000E+03</pdfrwt>
<pdfrwt beam="2">0</pdfrwt>
<totfact> 0.31430987E+05</totfact>
</mgrwt>
</event>
<event>
 6    1  0.1132867E-002  0.3000000E+03  0.7818608E-02  0.1093470E+00
         21   -1    0    0  501  502  0.00000000000E+00  0.00000000000E+00  0.13136743740E+01  0.13136743740E+01  0.00000000000E+00 0. -1.
         13   -1    0    0    0    0 -0.00000000000E+00 -0.00000000000E+00 -0.10000000000E+04  0.10000000000E+04  0.00000000000E+00 0.  1.
    9000005    2    1    2  501    0  0.17469229163E+02 -0.29426003734E+02 -0.66039597727E+03  0.66129687560E+03  0.44325173046E+01 0.  0.
         13    1    3    3    0    0  0.14841243755E+02 -0.22945893407E+02 -0.55148244195E+03  0.55215908968E+03  0.00000000000E+00 0.  1.
          1    1    3    3  501    0  0.26279854082E+01 -0.64801103263E+01 -0.10891353533E+03  0.10913778591E+03  0.00000000000E+00 0.  1.
         -1    1    1    2    0  502 -0.17469229163E+02  0.29426003734E+02 -0.33829034835E+03  0.34001679878E+03  0.00000000000E+00 0. -1.
<mgrwt>
<rscale>  1 0.30000000E+03</rscale>
<asrwt>0</asrwt>
<pdfrwt beam="1">  1       21 0.47770078E-02 0.30000000E+03</pdfrwt>
<pdfrwt beam="2">0</pdfrwt>
<totfact> 0.31131839E+04</totfact>
</mgrwt>
</event>
<event>
 6    1  0.1132867E-002  0.3000000E+03  0.7818608E-02  0.1093470E+00
         21   -1    0    0  501  502  0.00000000000E+00  0.00000000000E+00  0.62338866827E+00  0.62338866827E+00  0.00000000000E+00 0. -1.
         13   -1    0    0    0    0 -0.00000000000E+00 -0.00000000000E+00 -0.10000000000E+04  0.10000000000E+04  0.00000000000E+00 0.  1.
    9000005    2    1    2  501    0 -0.64747790429E+01 -0.98098508937E+01 -0.92730136538E+03  0.92759601697E+03  0.20208723957E+02 0.  0.
         13    1    3    3    0    0 -0.12527176824E+02 -0.11903426019E+01 -0.43482978732E+03  0.43501182859E+03  0.00000000000E+00 0.  1.
          3    1    3    3  501    0  0.60523977816E+01 -0.86195082918E+01 -0.49247157807E+03  0.49258418839E+03  0.00000000000E+00 0.  1.
         -1    1    1    2    0  502  0.64747790429E+01  0.98098508937E+01 -0.72075245947E+02  0.73027371694E+02  0.00000000000E+00 0. -1.
<mgrwt>
<rscale>  1 0.30000000E+03</rscale>
<asrwt>0</asrwt>
<pdfrwt beam="1">  1       21 0.22668727E-02 0.30000000E+03</pdfrwt>
<pdfrwt beam="2">0</pdfrwt>
<totfact> 0.10800936E+05</totfact>
</mgrwt>
</event>
<event>
 6    1  0.1132867E-002  0.3000000E+03  0.7818608E-02  0.1093470E+00
         21   -1    0    0  501  502  0.00000000000E+00  0.00000000000E+00  0.19572486719E+00  0.19572486719E+00  0.00000000000E+00 0. -1.
         13   -1    0    0    0    0 -0.00000000000E+00 -0.00000000000E+00 -0.10000000000E+04  0.10000000000E+04  0.00000000000E+00 0.  1.
    9000005    2    1    2  501    0  0.58668175016E+01 -0.53768824850E+01 -0.74953746636E+03  0.74980242227E+03  0.18273711987E+02 0.  0.
         13    1    3    3    0    0  0.36670147774E+01 -0.85558265402E+01 -0.71304573737E+03  0.71310649467E+03  0.00000000000E+00 0.  1.
          3    1    3    3  501    0  0.21998027243E+01  0.31789440552E+01 -0.36491728988E+02  0.36695927593E+02  0.00000000000E+00 0.  1.
         -1    1    1    2    0  502 -0.58668175016E+01  0.53768824850E+01 -0.25026680878E+03  0.25039330260E+03  0.00000000000E+00 0. -1.
<mgrwt>
<rscale>  1 0.30000000E+03</rscale>
<asrwt>0</asrwt>
<pdfrwt beam="1">  1       21 0.71172829E-03 0.30000000E+03</pdfrwt>
<pdfrwt beam="2">0</pdfrwt>
<totfact> 0.69108611E+05</totfact>
</mgrwt>
</event>
<event>
 6    1  0.1132867E-002  0.3000000E+03  0.7818608E-02  0.1093470E+00
         21   -1    0    0  501  502  0.00000000000E+00  0.00000000000E+00  0.36651047678E+01  0.36651047678E+01  0.00000000000E+00 0. -1.
         13   -1    0    0    0    0 -0.00000000000E+00 -0.00000000000E+00 -0.10000000000E+04  0.10000000000E+04  0.00000000000E+00 0.  1.
    9000005    2    1    2  501    0  0.19361952070E+02  0.43100429418E+01 -0.97214100089E+03  0.97237922646E+03  0.83530102560E+01 0.  0.
         13    1    3    3    0    0  0.55699608572E+01 -0.32218770147E+00 -0.45311687266E+03  0.45315122041E+03  0.00000000000E+00 0.  1.
          3    1    3    3  501    0  0.13791991213E+02  0.46322306433E+01 -0.51902412822E+03  0.51922800605E+03  0.00000000000E+00 0.  1.
         -3    1    1    2    0  502 -0.19361952070E+02 -0.43100429418E+01 -0.24193894346E+02  0.31285878312E+02  0.00000000000E+00 0. -1.
<mgrwt>
<rscale>  1 0.30000000E+03</rscale>
<asrwt>0</asrwt>
<pdfrwt beam="1">  1       21 0.13327682E-01 0.30000000E+03</pdfrwt>
<pdfrwt beam="2">0</pdfrwt>
<totfact> 0.51182556E+03</totfact>
</mgrwt>
</event>
<event>
 6    1  0.1132867E-002  0.3000000E+03  0.7818608E-02  0.1093470E+00
         21   -1    0    0  501  502  0.00000000000E+00  0.00000000000E+00  0.90762147620E+00  0.90762147620E+00  0.00000000000E+00 0. -1.
         13   -1    0    0    0    0 -0.00000000000E+00 -0.00000000000E+00 -0.10000000000E+04  0.10000000000E+04  0.00000000000E+00 0.  1.
    9000005    2    1    2  501    0  0.10471594109E+02  0.11299049942E+02 -0.92089997866E+03  0.92121211213E+03  0.18375582562E+02 0.  0.
         13    1    3    3    0    0  0.20216779494E+01  0.51811362459E+01 -0.73409493179E+03  0.73411599916E+03  0.00000000000E+00 0.  1.
          1    1    3    3  501    0  0.84499161594E+01  0.61179136966E+01 -0.18680504687E+03  0.18709611297E+03  0.00000000000E+00 0.  1.
         -1    1    1    2    0  502 -0.10471594109E+02 -0.11299049942E+02 -0.78192399865E+02  0.79695509343E+02  0.00000000000E+00 0. -1.
<mgrwt>
<rscale>  1 0.30000000E+03</rscale>
<asrwt>0</asrwt>
<pdfrwt beam="1">  1       21 0.33004487E-02 0.30000000E+03</pdfrwt>
<pdfrwt beam="2">0</pdfrwt>
<totfact> 0.58040353E+04</totfact>
</mgrwt>
</event>
<event>
 6    1  0.1132867E-002  0.3000000E+03  0.7818608E-02  0.1093470E+00
         21   -1    0    0  501  502  0.00000000000E+00  0.00000000000E+00  0.43441097788E+00  0.43441097788E+00  0.00000000000E+00 0. -1.
         13   -1    0    0    0    0 -0.00000000000E+00 -0.00000000000E+00 -0.10000000000E+04  0.10000000000E+04  0.00000000000E+00 0.  1.
    9000005    2    1    2  501    0  0.49857011770E+01 -0.18644590121E+02 -0.65923931569E+03  0.65956134035E+03  0.72255366620E+01 0.  0.
         13    1    3    3    0    0  0.13302256005E+00 -0.13178217120E+02 -0.45694380799E+03  0.45713381713E+03  0.00000000000E+00 0.  1.
          3    1    3    3  501    0  0.48526786170E+01 -0.54663730005E+01 -0.20229550770E+03  0.20242752323E+03  0.00000000000E+00 0.  1.
         -1    1    1    2    0  502 -0.49857011770E+01  0.18644590121E+02 -0.34032627333E+03  0.34087307062E+03  0.00000000000E+00 0. -1.
<mgrwt>
<rscale>  1 0.30000000E+03</rscale>
<asrwt>0</asrwt>
<pdfrwt beam="1">  1       21 0.15796796E-02 0.30000000E+03</pdfrwt>
<pdfrwt beam="2">0</pdfrwt>
<totfact> 0.19438520E+05</totfact>
</mgrwt>
</event>
<event>
 6    1  0.1132867E-002  0.3000000E+03  0.7818608E-02  0.1093470E+00
         21   -1    0    0  501  502  0.00000000000E+00  0.00000000000E+00  0.27544320309E+00  0.27544320309E+00  0.00000000000E+00 0. -1.
         13   -1    0    0    0    0 -0.00000000000E+00 -0.00000000000E+00 -0.10000000000E+04  0.10000000000E+04  0.00000000000E+00 0.  1.
    9000005    2    1    2  501    0 -0.65414618260E+01  0.73595432495E+01 -0.51896995950E+03  0.51942002166E+03  0.19245426580E+02 0.  0.
         13    1    3    3    0    0 -0.85233427088E+01 -0.17218086592E+01 -0.39744191040E+03  0.39753702235E+03  0.00000000000E+00 0.  1.
          3    1    3    3  501    0  0.19818808827E+01  0.90813519088E+01 -0.12152804910E+03  0.12188299931E+03  0.00000000000E+00 0.  1.
         -1    1    1    2    0  502  0.65414618260E+01 -0.73595432495E+01 -0.48075459730E+03  0.48085542154E+03  0.00000000000E+00 0. -1.
<mgrwt>
<rscale>  1 0.30000000E+03</rscale>
<asrwt>0</asrwt>
<pdfrwt beam="1">  1       21 0.10016138E-02 0.30000000E+03</pdfrwt>
<pdfrwt beam="2">0</pdfrwt>
<totfact> 0.40306092E+05</totfact>
</mgrwt>
</event>
<event>
 6    1  0.1132867E-002  0.3000000E+03  0.7818608E-02  0.1093470E+00
         21   -1    0    0  501  502  0.00000000000E+00  0.00000000000E+00  0.29723397406E+00  0.29723397406E+00  0.00000000000E+00 0. -1.
         13   -1    0    0    0    0 -0.00000000000E+00 -0.00000000000E+00 -0.10000000000E+04  0.10000000000E+04  0.00000000000E+00 0.  1.
    9000005    2    1    2  501    0 -0.87452701395E+01  0.39542244139E+00 -0.83245294121E+03  0.83281845917E+03  0.23066219832E+02 0.  0.
         13    1    3    3    0    0 -0.11018560215E+02 -0.61001125101E+01 -0.74097387181E+03  0.74108089892E+03  0.00000000000E+00 0.  1.
          1    1    3    3  501    0  0.22732900759E+01  0.64955349515E+01 -0.91479069396E+02  0.91737560244E+02  0.00000000000E+00 0.  1.
         -1    1    1    2    0  502  0.87452701395E+01 -0.39542244139E+00 -0.16724982482E+03  0.16747877480E+03  0.00000000000E+00 0. -1.
<mgrwt>
<rscale>  1 0.30000000E+03</rscale>
<asrwt>0</asrwt>
<pdfrwt beam="1">  1       21 0.10808531E-02 0.30000000E+03</pdfrwt>
<pdfrwt beam="2">0</pdfrwt>
<totfact> 0.35709987E+05</totfact>
</mgrwt>
</event>
<event>
 6    1  0.1132867E-002  0.3000000E+03  0.7818608E-02  0.1093470E+00
         21   -1    0    0  501  502  0.00000000000E+00  0.00000000000E+00  0.36432551665E+00  0.36432551665E+00  0.00000000000E+00 0. -1.
         13   -1    0    0    0    0 -0.00000000000E+00 -0.00000000000E+00 -0.10000000000E+04  0.10000000000E+04  0.00000000000E+00 0.  1.
    9000005    2    1    2  501    0 -0.14871719480E+02 -0.58083419304E+01 -0.70695074169E+03  0.70724425667E+03  0.12656324139E+02 0.  0.
         13    1    3    3    0    0 -0.13203135180E+02 -0.72221804730E+01 -0.68848402653E+03  0.68864848613E+03  0.00000000000E+00 0.  1.
          1    1    3    3  501    0 -0.16685843002E+01  0.14138385426E+01 -0.18466715164E+02  0.18595770539E+02  0.00000000000E+00 0.  1.
         -1    1    1    2    0  502  0.14871719480E+02  0.58083419304E+01 -0.29268493279E+03  0.29312006884E+03  0.00000000000E+00 0. -1.
<mgrwt>
<rscale>  1 0.30000000E+03</rscale>
<asrwt>0</asrwt>
<pdfrwt beam="1">  1       21 0.13248229E-02 0.30000000E+03</pdfrwt>
<pdfrwt beam="2">0</pdfrwt>
<totfact> 0.25798713E+05</totfact>
</mgrwt>
</event>
<event>
 6    1  0.1132867E-002  0.3000000E+03  0.7818608E-02  0.1093470E+00
         21   -1    0    0  501  502  0.00000000000E+00  0.00000000000E+00  0.14042802956E+00  0.14042802956E+00  0.00000000000E+00 0. -1.
         13   -1    0    0    0    0 -0.00000000000E+00 -0.00000000000E+00 -0.10000000000E+04  0.10000000000E+04  0.00000000000E+00 0.  1.
    9000005    2    1    2  501    0 -0.49098184599E+01  0.95073541219E+01 -0.33751778906E+03  0.33771221797E+03  0.40973322425E+01 0.  0.
         13    1    3    3    0    0 -0.62115179894E+00 -0.31332501549E+00 -0.29089362111E+02  0.29097680151E+02  0.00000000000E+00 0.  1.
          1    1    3    3  501    0 -0.42886666609E+01  0.98206791374E+01 -0.30842842695E+03  0.30861453782E+03  0.00000000000E+00 0.  1.
         -1    1    1    2    0  502  0.49098184599E+01 -0.95073541219E+01 -0.66234178291E+03  0.66242821006E+03  0.00000000000E+00 0. -1.
<mgrwt>
<rscale>  1 0.30000000E+03</rscale>
<asrwt>0</asrwt>
<pdfrwt beam="1">  1       21 0.51064846E-03 0.30000000E+03</pdfrwt>
<pdfrwt beam="2">0</pdfrwt>
<totfact> 0.11604414E+06</totfact>
</mgrwt>
</event>
<event>
 6    1  0.1132867E-002  0.3000000E+03  0.7818608E-02  0.1093470E+00
         21   -1    0    0  501  502  0.00000000000E+00  0.00000000000E+00  0.29731270413E+00  0.29731270413E+00  0.00000000000E+00 0. -1.
         13   -1    0    0    0    0 -0.00000000000E+00 -0.00000000000E+00 -0.10000000000E+04  0.10000000000E+04  0.00000000000E+00 0.  1.
    9000005    2    1    2  501    0 -0.95448777298E+01  0.88114938983E+01 -0.82070211152E+03  0.82082599676E+03  0.58833665460E+01 0.  0.
         13    1    3    3    0    0  0.75967851015E+00  0.46185386308E+00 -0.31867301581E+02  0.31879700916E+02  0.00000000000E+00 0.  1.
          1    1    3    3  501    0 -0.10304556240E+02  0.83496400352E+01 -0.78883480994E+03  0.78894629585E+03  0.00000000000E+00 0.  1.
         -1    1    1    2    0  502  0.95448777298E+01 -0.88114938983E+01 -0.17900057578E+03  0.17947131594E+03  0.00000000000E+00 0. -1.
<mgrwt>
<rscale>  1 0.30000000E+03</rscale>
<asrwt>0</asrwt>
<pdfrwt beam="1">  1       21 0.10811394E-02 0.30000000E+03</pdfrwt>
<pdfrwt beam="2">0</pdfrwt>
<totfact> 0.35694937E+05</totfact>
</mgrwt>
</event>
<event>
 6    1  0.1132867E-002  0.3000000E+03  0.7818608E-02  0.1093470E+00
         21   -1    0    0  501  502  0.00000000000E+00  0.00000000000E+00  0.83911786462E-01  0.83911786462E-01  0.00000000000E+00 0. -1.
         13   -1    0    0    0    0 -0.00000000000E+00 -0.00000000000E+00 -0.10000000000E+04  0.10000000000E+04  0.00000000000E+00 0.  1.
    9000005    2    1    2  501    0 -0.82907068703E+01 -0.23591723075E+01 -0.47995762490E+03  0.48005400391E+03  0.42688940264E+01 0.  0.
         13    1    3    3    0    0 -0.66069816079E+01 -0.33554917796E+00 -0.39560980163E+03  0.39566511085E+03  0.00000000000E+00 0.  1.
          1    1    3    3  501    0 -0.16837252624E+01 -0.20236231296E+01 -0.84347823268E+02  0.84388893057E+02  0.00000000000E+00 0.  1.
         -1    1    1    2    0  502  0.82907068703E+01  0.23591723075E+01 -0.51995846332E+03  0.52002990788E+03  0.00000000000E+00 0. -1.
<mgrwt>
<rscale>  1 0.30000000E+03</rscale>
<asrwt>0</asrwt>
<pdfrwt beam="1">  1       21 0.30513441E-03 0.30000000E+03</pdfrwt>
<pdfrwt beam="2">0</pdfrwt>
<totfact> 0.25674125E+06</totfact>
</mgrwt>
</event>
<event>
 6    1  0.1132867E-002  0.3000000E+03  0.7818608E-02  0.1093470E+00
         21   -1    0    0  501  502  0.00000000000E+00  0.00000000000E+00  0.29543669062E+01  0.29543669062E+01  0.00000000000E+00 0. -1.
         13   -1    0    0    0    0 -0.00000000000E+00 -0.00000000000E+00 -0.10000000000E+04  0.10000000000E+04  0.00000000000E+00 0.  1.
    9000005    2    1    2  501    0 -0.35195790114E+02  0.30788731797E+02 -0.74413118661E+03  0.74575326487E+03  0.15166394901E+02 0.  0.
         13    1    3    3    0    0 -0.51165628278E+01  0.13159283469E+02 -0.24420988474E+03  0.24461768898E+03  0.00000000000E+00 0.  1.
          1    1    3    3  501    0 -0.30079227286E+02  0.17629448328E+02 -0.49992130186E+03  0.50113557589E+03  0.00000000000E+00 0.  1.
         -3    1    1    2    0  502  0.35195790114E+02 -0.30788731797E+02 -0.25291444649E+03  0.25720110204E+03  0.00000000000E+00 0. -1.
<mgrwt>
<rscale>  1 0.30000000E+03</rscale>
<asrwt>0</asrwt>
<pdfrwt beam="1">  1       21 0.10743175E-01 0.30000000E+03</pdfrwt>
<pdfrwt beam="2">0</pdfrwt>
<totfact> 0.75665897E+03</totfact>
</mgrwt>
</event>
<event>
 6    1  0.1132867E-002  0.3000000E+03  0.7818608E-02  0.1093470E+00
         21   -1    0    0  501  502  0.00000000000E+00  0.00000000000E+00  0.14141974295E+00  0.14141974295E+00  0.00000000000E+00 0. -1.
         13   -1    0    0    0    0 -0.00000000000E+00 -0.00000000000E+00 -0.10000000000E+04  0.10000000000E+04  0.00000000000E+00 0.  1.
    9000005    2    1    2  501    0 -0.35058737926E+01  0.85130475456E+01 -0.70264835138E+03  0.70278862713E+03  0.10601206876E+02 0.  0.
         13    1    3    3    0    0 -0.60637776394E+01  0.92541659392E+01 -0.61603440315E+03  0.61613374754E+03  0.00000000000E+00 0.  1.
          1    1    3    3  501    0  0.25579038469E+01 -0.74111839357E+00 -0.86613948231E+02  0.86654879590E+02  0.00000000000E+00 0.  1.
         -1    1    1    2    0  502  0.35058737926E+01 -0.85130475456E+01 -0.29721022887E+03  0.29735279262E+03  0.00000000000E+00 0. -1.
<mgrwt>
<rscale>  1 0.30000000E+03</rscale>
<asrwt>0</asrwt>
<pdfrwt beam="1">  1       21 0.51425470E-03 0.30000000E+03</pdfrwt>
<pdfrwt beam="2">0</pdfrwt>
<totfact> 0.11478228E+06</totfact>
</mgrwt>
</event>
<event>
 6    1  0.1132867E-002  0.3000000E+03  0.7818608E-02  0.1093470E+00
         21   -1    0    0  501  502  0.00000000000E+00  0.00000000000E+00  0.77115873219E-01  0.77115873219E-01  0.00000000000E+00 0. -1.
         13   -1    0    0    0    0 -0.00000000000E+00 -0.00000000000E+00 -0.10000000000E+04  0.10000000000E+04  0.00000000000E+00 0.  1.
    9000005    2    1    2  501    0 -0.62352386583E+00  0.82308161752E+01 -0.42772714908E+03  0.42782184563E+03  0.35892088416E+01 0.  0.
         13    1    3    3    0    0 -0.13402727350E+01  0.44661687210E+01 -0.30288471299E+03  0.30292060405E+03  0.00000000000E+00 0.  1.
          3    1    3    3  501    0  0.71674886915E+00  0.37646474541E+01 -0.12484243608E+03  0.12490124157E+03  0.00000000000E+00 0.  1.
         -1    1    1    2    0  502  0.62352386583E+00 -0.82308161752E+01 -0.57219573505E+03  0.57225527025E+03  0.00000000000E+00 0. -1.
<mgrwt>
<rscale>  1 0.30000000E+03</rscale>
<asrwt>0</asrwt>
<pdfrwt beam="1">  1       21 0.28042195E-03 0.30000000E+03</pdfrwt>
<pdfrwt beam="2">0</pdfrwt>
<totfact> 0.29216208E+06</totfact>
</mgrwt>
</event>
<event>
 6    1  0.1132867E-002  0.3000000E+03  0.7818608E-02  0.1093470E+00
         21   -1    0    0  501  502  0.00000000000E+00  0.00000000000E+00  0.21660577148E+00  0.21660577148E+00  0.00000000000E+00 0. -1.
         13   -1    0    0    0    0 -0.00000000000E+00 -0.00000000000E+00 -0.10000000000E+04  0.10000000000E+04  0.00000000000E+00 0.  1.
    9000005    2    1    2  501    0  0.56153570901E+01  0.86965943583E+01 -0.75660494256E+03  0.75681791567E+03  0.14668175743E+02 0.  0.
         13    1    3    3    0    0  0.36679177092E+01  0.10281262354E+02 -0.73273275405E+03  0.73281406021E+03  0.00000000000E+00 0.  1.
          3    1    3    3  501    0  0.19474393809E+01 -0.15846679960E+01 -0.23872188507E+02  0.24003855459E+02  0.00000000000E+00 0.  1.
         -3    1    1    2    0  502 -0.56153570901E+01 -0.86965943583E+01 -0.24317845167E+03  0.24339869011E+03  0.00000000000E+00 0. -1.
<mgrwt>
<rscale>  1 0.30000000E+03</rscale>
<asrwt>0</asrwt>
<pdfrwt beam="1">  1       21 0.78765901E-03 0.30000000E+03</pdfrwt>
<pdfrwt beam="2">0</pdfrwt>
<totfact> 0.58931212E+05</totfact>
</mgrwt>
</event>
<event>
 6    1  0.1132867E-002  0.3000000E+03  0.7818608E-02  0.1093470E+00
         21   -1    0    0  501  502  0.00000000000E+00  0.00000000000E+00  0.79134870158E+00  0.79134870158E+00  0.00000000000E+00 0. -1.
         13   -1    0    0    0    0 -0.00000000000E+00 -0.00000000000E+00 -0.10000000000E+04  0.10000000000E+04  0.00000000000E+00 0.  1.
    9000005    2    1    2  501    0 -0.12985219680E+02 -0.16217016995E+02 -0.80069791630E+03  0.80119646029E+03  0.19157433126E+02 0.  0.
         13    1    3    3    0    0 -0.39831163278E+01 -0.13899304473E+02 -0.67518202093E+03  0.67533681765E+03  0.00000000000E+00 0.  1.
          3    1    3    3  501    0 -0.90021033517E+01 -0.23177125225E+01 -0.12551589536E+03  0.12585964264E+03  0.00000000000E+00 0.  1.
         -3    1    1    2    0  502  0.12985219680E+02  0.16217016995E+02 -0.19851073500E+03  0.19959488841E+03  0.00000000000E+00 0. -1.
<mgrwt>
<rscale>  1 0.30000000E+03</rscale>
<asrwt>0</asrwt>
<pdfrwt beam="1">  1       21 0.28776377E-02 0.30000000E+03</pdfrwt>
<pdfrwt beam="2">0</pdfrwt>
<totfact> 0.72896236E+04</totfact>
</mgrwt>
</event>
<event>
 6    1  0.1132867E-002  0.3000000E+03  0.7818608E-02  0.1093470E+00
         21   -1    0    0  501  502  0.00000000000E+00  0.00000000000E+00  0.15041492337E+00  0.15041492337E+00  0.00000000000E+00 0. -1.
         13   -1    0    0    0    0 -0.00000000000E+00 -0.00000000000E+00 -0.10000000000E+04  0.10000000000E+04  0.00000000000E+00 0.  1.
    9000005    2    1    2  501    0  0.16834746438E+01 -0.10101566671E+02 -0.43788833504E+03  0.43809586039E+03  0.87700162552E+01 0.  0.
         13    1    3    3    0    0 -0.76341004635E+00 -0.96999845897E+01 -0.40390597098E+03  0.40402315019E+03  0.00000000000E+00 0.  1.
          3    1    3    3  501    0  0.24468846901E+01 -0.40158208156E+00 -0.33982364068E+02  0.34072710202E+02  0.00000000000E+00 0.  1.
         -1    1    1    2    0  502 -0.16834746438E+01  0.10101566671E+02 -0.56196125003E+03  0.56205455454E+03  0.00000000000E+00 0. -1.
<mgrwt>
<rscale>  1 0.30000000E+03</rscale>
<asrwt>0</asrwt>
<pdfrwt beam="1">  1       21 0.54696451E-03 0.30000000E+03</pdfrwt>
<pdfrwt beam="2">0</pdfrwt>
<totfact> 0.10428849E+06</totfact>
</mgrwt>
</event>
<event>
 6    1  0.1132867E-002  0.3000000E+03  0.7818608E-02  0.1093470E+00
         21   -1    0    0  501  502  0.00000000000E+00  0.00000000000E+00  0.41925011383E+00  0.41925011383E+00  0.00000000000E+00 0. -1.
         13   -1    0    0    0    0 -0.00000000000E+00 -0.00000000000E+00 -0.10000000000E+04  0.10000000000E+04  0.00000000000E+00 0.  1.
    9000005    2    1    2  501    0  0.89084985076E+01 -0.51038336544E+01 -0.93245568384E+03  0.93251354376E+03  0.15800340652E+01 0.  0.
         13    1    3    3    0    0  0.52567056631E+01 -0.24714814833E+01 -0.46807197595E+03  0.46810801728E+03  0.00000000000E+00 0.  1.
          1    1    3    3  501    0  0.36517928445E+01 -0.26323521712E+01 -0.46438370790E+03  0.46440552648E+03  0.00000000000E+00 0.  1.
         -3    1    1    2    0  502 -0.89084985076E+01  0.51038336544E+01 -0.67125066042E+02  0.67905706349E+02  0.00000000000E+00 0. -1.
<mgrwt>
<rscale>  1 0.30000000E+03</rscale>
<asrwt>0</asrwt>
<pdfrwt beam="1">  1       21 0.15245491E-02 0.30000000E+03</pdfrwt>
<pdfrwt beam="2">0</pdfrwt>
<totfact> 0.20584825E+05</totfact>
</mgrwt>
</event>
<event>
 6    1  0.1132867E-002  0.3000000E+03  0.7818608E-02  0.1093470E+00
         21   -1    0    0  501  502  0.00000000000E+00  0.00000000000E+00  0.45432721464E+00  0.45432721464E+00  0.00000000000E+00 0. -1.
         13   -1    0    0    0    0 -0.00000000000E+00 -0.00000000000E+00 -0.10000000000E+04  0.10000000000E+04  0.00000000000E+00 0.  1.
    9000005    2    1    2  501    0 -0.13970922656E+02 -0.22830957669E+01 -0.45254177797E+03  0.45326728410E+03  0.21372197446E+02 0.  0.
         13    1    3    3    0    0 -0.24291581158E+01 -0.34107190477E+01 -0.15045236045E+02  0.15617072108E+02  0.00000000000E+00 0.  1.
          3    1    3    3  501    0 -0.11541764540E+02  0.11276232808E+01 -0.43749654192E+03  0.43765021199E+03  0.00000000000E+00 0.  1.
         -3    1    1    2    0  502  0.13970922656E+02  0.22830957669E+01 -0.54700389482E+03  0.54718704312E+03  0.00000000000E+00 0. -1.
<mgrwt>
<rscale>  1 0.30000000E+03</rscale>
<asrwt>0</asrwt>
<pdfrwt beam="1">  1       21 0.16521024E-02 0.30000000E+03</pdfrwt>
<pdfrwt beam="2">0</pdfrwt>
<totfact> 0.18080049E+05</totfact>
</mgrwt>
</event>
<event>
 6    1  0.1132867E-002  0.3000000E+03  0.7818608E-02  0.1093470E+00
         21   -1    0    0  501  502  0.00000000000E+00  0.00000000000E+00  0.13227666916E+00  0.13227666916E+00  0.00000000000E+00 0. -1.
         13   -1    0    0    0    0 -0.00000000000E+00 -0.00000000000E+00 -0.10000000000E+04  0.10000000000E+04  0.00000000000E+00 0.  1.
    9000005    2    1    2  501    0  0.27043062466E+01  0.78083627966E+01 -0.55901704238E+03  0.55920415702E+03  0.11872310483E+02 0.  0.
         13    1    3    3    0    0  0.29528588605E+01  0.85972393175E+01 -0.55604149900E+03  0.55611579775E+03  0.00000000000E+00 0.  1.
          1    1    3    3  501    0 -0.24855261389E+00 -0.78887652096E+00 -0.29755433855E+01  0.30883592741E+01  0.00000000000E+00 0.  1.
         -3    1    1    2    0  502 -0.27043062466E+01 -0.78083627966E+01 -0.44085068095E+03  0.44092811965E+03  0.00000000000E+00 0. -1.
<mgrwt>
<rscale>  1 0.30000000E+03</rscale>
<asrwt>0</asrwt>
<pdfrwt beam="1">  1       21 0.48100708E-03 0.30000000E+03</pdfrwt>
<pdfrwt beam="2">0</pdfrwt>
<totfact> 0.12733455E+06</totfact>
</mgrwt>
</event>
<event>
 6    1  0.1132867E-002  0.3000000E+03  0.7818608E-02  0.1093470E+00
         21   -1    0    0  501  502  0.00000000000E+00  0.00000000000E+00  0.52296159336E+00  0.52296159336E+00  0.00000000000E+00 0. -1.
         13   -1    0    0    0    0 -0.00000000000E+00 -0.00000000000E+00 -0.10000000000E+04  0.10000000000E+04  0.00000000000E+00 0.  1.
    9000005    2    1    2  501    0  0.36961702632E+01  0.15909061850E+02 -0.83966027103E+03  0.83987378152E+03  0.95832257017E+01 0.  0.
         13    1    3    3    0    0 -0.38402031073E+00 -0.10270318605E+01 -0.21383552788E+02  0.21411646267E+02  0.00000000000E+00 0.  1.
          1    1    3    3  501    0  0.40801905739E+01  0.16936093710E+02 -0.81827671824E+03  0.81846213525E+03  0.00000000000E+00 0.  1.
         -3    1    1    2    0  502 -0.36961702632E+01 -0.15909061850E+02 -0.15981676738E+03  0.16064918008E+03  0.00000000000E+00 0. -1.
<mgrwt>
<rscale>  1 0.30000000E+03</rscale>
<asrwt>0</asrwt>
<pdfrwt beam="1">  1       21 0.19016825E-02 0.30000000E+03</pdfrwt>
<pdfrwt beam="2">0</pdfrwt>
<totfact> 0.14390058E+05</totfact>
</mgrwt>
</event>
<event>
 6    1  0.1132867E-002  0.3000000E+03  0.7818608E-02  0.1093470E+00
         21   -1    0    0  501  502  0.00000000000E+00  0.00000000000E+00  0.18883182848E+00  0.18883182848E+00  0.00000000000E+00 0. -1.
         13   -1    0    0    0    0 -0.00000000000E+00 -0.00000000000E+00 -0.10000000000E+04  0.10000000000E+04  0.00000000000E+00 0.  1.
    9000005    2    1    2  501    0 -0.62022991374E+01  0.91289039941E+01 -0.61072226666E+03  0.61094343534E+03  0.12181494011E+02 0.  0.
         13    1    3    3    0    0  0.89198587050E+00  0.71410051337E+01 -0.44416898601E+03  0.44422728161E+03  0.00000000000E+00 0.  1.
          3    1    3    3  501    0 -0.70942850079E+01  0.19878988603E+01 -0.16655328064E+03  0.16671615373E+03  0.00000000000E+00 0.  1.
         -3    1    1    2    0  502  0.62022991374E+01 -0.91289039941E+01 -0.38908890152E+03  0.38924539649E+03  0.00000000000E+00 0. -1.
<mgrwt>
<rscale>  1 0.30000000E+03</rscale>
<asrwt>0</asrwt>
<pdfrwt beam="1">  1       21 0.68666264E-03 0.30000000E+03</pdfrwt>
<pdfrwt beam="2">0</pdfrwt>
<totfact> 0.73104513E+05</totfact>
</mgrwt>
</event>
<event>
 6    1  0.1132867E-002  0.3000000E+03  0.7818608E-02  0.1093470E+00
         21   -1    0    0  501  502  0.00000000000E+00  0.00000000000E+00  0.91547453884E-01  0.91547453884E-01  0.00000000000E+00 0. -1.
         13   -1    0    0    0    0 -0.00000000000E+00 -0.00000000000E+00 -0.10000000000E+04  0.10000000000E+04  0.00000000000E+00 0.  1.
    9000005    2    1    2  501    0  0.43333254346E+01 -0.77810025978E+01 -0.64314606300E+03  0.64321800640E+03  0.36364394838E+01 0.  0.
         13    1    3    3    0    0  0.12207952246E+01 -0.54947015502E+01 -0.32816215145E+03  0.32821041990E+03  0.00000000000E+00 0.  1.
          1    1    3    3  501    0  0.31125302101E+01 -0.22863010476E+01 -0.31498391156E+03  0.31500758651E+03  0.00000000000E+00 0.  1.
         -1    1    1    2    0  502 -0.43333254346E+01  0.77810025978E+01 -0.35676238954E+03  0.35687354105E+03  0.00000000000E+00 0. -1.
<mgrwt>
<rscale>  1 0.30000000E+03</rscale>
<asrwt>0</asrwt>
<pdfrwt beam="1">  1       21 0.33290053E-03 0.30000000E+03</pdfrwt>
<pdfrwt beam="2">0</pdfrwt>
<totfact> 0.22464950E+06</totfact>
</mgrwt>
</event>
<event>
 6    1  0.1132867E-002  0.3000000E+03  0.7818608E-02  0.1093470E+00
         21   -1    0    0  501  502  0.00000000000E+00  0.00000000000E+00  0.18093859735E+00  0.18093859735E+00  0.00000000000E+00 0. -1.
         13   -1    0    0    0    0 -0.00000000000E+00 -0.00000000000E+00 -0.10000000000E+04  0.10000000000E+04  0.00000000000E+00 0.  1.
    9000005    2    1    2  501    0  0.59158151400E+01 -0.10204337985E+02 -0.42788060585E+03  0.42812086979E+03  0.81572609237E+01 0.  0.
         13    1    3    3    0    0  0.57254576878E+00  0.11872653396E+00 -0.14543491968E+03  0.14543609513E+03  0.00000000000E+00 0.  1.
          3    1    3    3  501    0  0.53432693713E+01 -0.10323064519E+02 -0.28244568617E+03  0.28268477466E+03  0.00000000000E+00 0.  1.
         -3    1    1    2    0  502 -0.59158151400E+01  0.10204337985E+02 -0.57193845556E+03  0.57206006881E+03  0.00000000000E+00 0. -1.
<mgrwt>
<rscale>  1 0.30000000E+03</rscale>
<asrwt>0</asrwt>
<pdfrwt beam="1">  1       21 0.65795992E-03 0.30000000E+03</pdfrwt>
<pdfrwt beam="2">0</pdfrwt>
<totfact> 0.78160638E+05</totfact>
</mgrwt>
</event>
<event>
 6    1  0.1132867E-002  0.3000000E+03  0.7818608E-02  0.1093470E+00
         21   -1    0    0  501  502  0.00000000000E+00  0.00000000000E+00  0.43834922614E+00  0.43834922614E+00  0.00000000000E+00 0. -1.
         13   -1    0    0    0    0 -0.00000000000E+00 -0.00000000000E+00 -0.10000000000E+04  0.10000000000E+04  0.00000000000E+00 0.  1.
    9000005    2    1    2  501    0 -0.78408826709E+01 -0.61795058279E+01 -0.93252713796E+03  0.93266452211E+03  0.12513274694E+02 0.  0.
         13    1    3    3    0    0  0.53038017421E-01  0.16279688552E+01 -0.47464340583E+03  0.47464620065E+03  0.00000000000E+00 0.  1.
          3    1    3    3  501    0 -0.78939206883E+01 -0.78074746831E+01 -0.45788373213E+03  0.45801832146E+03  0.00000000000E+00 0.  1.
         -3    1    1    2    0  502  0.78408826709E+01  0.61795058279E+01 -0.67034512814E+02  0.67773827114E+02  0.00000000000E+00 0. -1.
<mgrwt>
<rscale>  1 0.30000000E+03</rscale>
<asrwt>0</asrwt>
<pdfrwt beam="1">  1       21 0.15940005E-02 0.30000000E+03</pdfrwt>
<pdfrwt beam="2">0</pdfrwt>
<totfact> 0.19157315E+05</totfact>
</mgrwt>
</event>
<event>
 6    1  0.1132867E-002  0.3000000E+03  0.7818608E-02  0.1093470E+00
         21   -1    0    0  501  502  0.00000000000E+00  0.00000000000E+00  0.11221297684E+00  0.11221297684E+00  0.00000000000E+00 0. -1.
         13   -1    0    0    0    0 -0.00000000000E+00 -0.00000000000E+00 -0.10000000000E+04  0.10000000000E+04  0.00000000000E+00 0.  1.
    9000005    2    1    2  501    0 -0.67106981788E+01  0.55538402987E+01 -0.50909579378E+03  0.50924292361E+03  0.85993831205E+01 0.  0.
         13    1    3    3    0    0 -0.16421431681E+01 -0.18640003564E+01 -0.52487899684E+02  0.52546653031E+02  0.00000000000E+00 0.  1.
          1    1    3    3  501    0 -0.50685550108E+01  0.74178406551E+01 -0.45660789409E+03  0.45669627057E+03  0.00000000000E+00 0.  1.
         -1    1    1    2    0  502  0.67106981788E+01 -0.55538402987E+01 -0.49079199325E+03  0.49086928937E+03  0.00000000000E+00 0. -1.
<mgrwt>
<rscale>  1 0.30000000E+03</rscale>
<asrwt>0</asrwt>
<pdfrwt beam="1">  1       21 0.40804805E-03 0.30000000E+03</pdfrwt>
<pdfrwt beam="2">0</pdfrwt>
<totfact> 0.16422650E+06</totfact>
</mgrwt>
</event>
<event>
 6    1  0.1132867E-002  0.3000000E+03  0.7818608E-02  0.1093470E+00
         21   -1    0    0  501  502  0.00000000000E+00  0.00000000000E+00  0.45908719733E+00  0.45908719733E+00  0.00000000000E+00 0. -1.
         13   -1    0    0    0    0 -0.00000000000E+00 -0.00000000000E+00 -0.10000000000E+04  0.10000000000E+04  0.00000000000E+00 0.  1.
    9000005    2    1    2  501    0 -0.74076499988E+01  0.73843300805E+01 -0.92911209873E+03  0.92925782695E+03  0.12704933315E+02 0.  0.
         13    1    3    3    0    0  0.99298964383E+00  0.79656906712E+01 -0.43858178626E+03  0.43865524219E+03  0.00000000000E+00 0.  1.
          1    1    3    3  501    0 -0.84006396427E+01 -0.58136059070E+00 -0.49053031247E+03  0.49060258477E+03  0.00000000000E+00 0.  1.
         -1    1    1    2    0  502  0.74076499988E+01 -0.73843300805E+01 -0.70428814070E+02  0.71201260246E+02  0.00000000000E+00 0. -1.
<mgrwt>
<rscale>  1 0.30000000E+03</rscale>
<asrwt>0</asrwt>
<pdfrwt beam="1">  1       21 0.16694115E-02 0.30000000E+03</pdfrwt>
<pdfrwt beam="2">0</pdfrwt>
<totfact> 0.17777586E+05</totfact>
</mgrwt>
</event>
<event>
 6    1  0.1132867E-002  0.3000000E+03  0.7818608E-02  0.1093470E+00
         21   -1    0    0  501  502  0.00000000000E+00  0.00000000000E+00  0.23373589315E+00  0.23373589315E+00  0.00000000000E+00 0. -1.
         13   -1    0    0    0    0 -0.00000000000E+00 -0.00000000000E+00 -0.10000000000E+04  0.10000000000E+04  0.00000000000E+00 0.  1.
    9000005    2    1    2  501    0 -0.11516683756E+02  0.65023926617E+00 -0.80707818965E+03  0.80720070541E+03  0.80447377655E+01 0.  0.
         13    1    3    3    0    0  0.54246513528E+00  0.93116230577E+00 -0.19882845147E+03  0.19883137188E+03  0.00000000000E+00 0.  1.
          3    1    3    3  501    0 -0.12059148891E+02 -0.28092303960E+00 -0.60824973818E+03  0.60836933353E+03  0.00000000000E+00 0.  1.
         -3    1    1    2    0  502  0.11516683756E+02 -0.65023926617E+00 -0.19268807446E+03  0.19303303048E+03  0.00000000000E+00 0. -1.
<mgrwt>
<rscale>  1 0.30000000E+03</rscale>
<asrwt>0</asrwt>
<pdfrwt beam="1">  1       21 0.84995049E-03 0.30000000E+03</pdfrwt>
<pdfrwt beam="2">0</pdfrwt>
<totfact> 0.52265516E+05</totfact>
</mgrwt>
</event>
<event>
 6    1  0.1132867E-002  0.3000000E+03  0.7818608E-02  0.1093470E+00
         21   -1    0    0  501  502  0.00000000000E+00  0.00000000000E+00  0.52790529877E+00  0.52790529877E+00  0.00000000000E+00 0. -1.
         13   -1    0    0    0    0 -0.00000000000E+00 -0.00000000000E+00 -0.10000000000E+04  0.10000000000E+04  0.00000000000E+00 0.  1.
    9000005    2    1    2  501    0  0.30640576431E+01 -0.10639307648E+02 -0.93569176813E+03  0.93579373060E+03  0.82606274846E+01 0.  0.
         13    1    3    3    0    0  0.57635641257E+01 -0.53563869449E+01 -0.51334249959E+03  0.51340279648E+03  0.00000000000E+00 0.  1.
          3    1    3    3  501    0 -0.26995064826E+01 -0.52829207030E+01 -0.42234926855E+03  0.42239093412E+03  0.00000000000E+00 0.  1.
         -1    1    1    2    0  502 -0.30640576431E+01  0.10639307648E+02 -0.63780326567E+02  0.64734174695E+02  0.00000000000E+00 0. -1.
<mgrwt>
<rscale>  1 0.30000000E+03</rscale>
<asrwt>0</asrwt>
<pdfrwt beam="1">  1       21 0.19196597E-02 0.30000000E+03</pdfrwt>
<pdfrwt beam="2">0</pdfrwt>
<totfact> 0.14171492E+05</totfact>
</mgrwt>
</event>
<event>
 6    1  0.1132867E-002  0.3000000E+03  0.7818608E-02  0.1093470E+00
         21   -1    0    0  501  502  0.00000000000E+00  0.00000000000E+00  0.16944326372E+00  0.16944326372E+00  0.00000000000E+00 0. -1.
         13   -1    0    0    0    0 -0.00000000000E+00 -0.00000000000E+00 -0.10000000000E+04  0.10000000000E+04  0.00000000000E+00 0.  1.
    9000005    2    1    2  501    0 -0.96214187440E+01  0.42347705730E+01 -0.75429016770E+03  0.75440413321E+03  0.78379925101E+01 0.  0.
         13    1    3    3    0    0 -0.83037283865E+01  0.64551088416E+00 -0.63030271322E+03  0.63035773882E+03  0.00000000000E+00 0.  1.
          3    1    3    3  501    0 -0.13176903574E+01  0.35892596888E+01 -0.12398745448E+03  0.12404639439E+03  0.00000000000E+00 0.  1.
         -1    1    1    2    0  502  0.96214187440E+01 -0.42347705730E+01 -0.24554038904E+03  0.24576531006E+03  0.00000000000E+00 0. -1.
<mgrwt>
<rscale>  1 0.30000000E+03</rscale>
<asrwt>0</asrwt>
<pdfrwt beam="1">  1       21 0.61615862E-03 0.30000000E+03</pdfrwt>
<pdfrwt beam="2">0</pdfrwt>
<totfact> 0.86613167E+05</totfact>
</mgrwt>
</event>
<event>
 6    1  0.1132867E-002  0.3000000E+03  0.7818608E-02  0.1093470E+00
         21   -1    0    0  501  502  0.00000000000E+00  0.00000000000E+00  0.17673168617E+00  0.17673168617E+00  0.00000000000E+00 0. -1.
         13   -1    0    0    0    0 -0.00000000000E+00 -0.00000000000E+00 -0.10000000000E+04  0.10000000000E+04  0.00000000000E+00 0.  1.
    9000005    2    1    2  501    0 -0.10169374113E+02  0.14351505687E+01 -0.75012022860E+03  0.75026257869E+03  0.10397297535E+02 0.  0.
         13    1    3    3    0    0 -0.88302695177E+01  0.51065221497E+01 -0.44264756980E+03  0.44276508588E+03  0.00000000000E+00 0.  1.
          1    1    3    3  501    0 -0.13391045953E+01 -0.36713715810E+01 -0.30747265880E+03  0.30749749281E+03  0.00000000000E+00 0.  1.
         -1    1    1    2    0  502  0.10169374113E+02 -0.14351505687E+01 -0.24970303971E+03  0.24991415300E+03  0.00000000000E+00 0. -1.
<mgrwt>
<rscale>  1 0.30000000E+03</rscale>
<asrwt>0</asrwt>
<pdfrwt beam="1">  1       21 0.64266203E-03 0.30000000E+03</pdfrwt>
<pdfrwt beam="2">0</pdfrwt>
<totfact> 0.81092104E+05</totfact>
</mgrwt>
</event>
<event>
 6    1  0.1132867E-002  0.3000000E+03  0.7818608E-02  0.1093470E+00
         21   -1    0    0  501  502  0.00000000000E+00  0.00000000000E+00  0.27636130203E+00  0.27636130203E+00  0.00000000000E+00 0. -1.
         13   -1    0    0    0    0 -0.00000000000E+00 -0.00000000000E+00 -0.10000000000E+04  0.10000000000E+04  0.00000000000E+00 0.  1.
    9000005    2    1    2  501    0 -0.97821758317E+01  0.12729245135E+01 -0.84636410660E+03  0.84659989145E+03  0.17374232697E+02 0.  0.
         13    1    3    3    0    0 -0.30412273530E+01  0.53161629629E+01 -0.69860656467E+03  0.69863341092E+03  0.00000000000E+00 0.  1.
          3    1    3    3  501    0 -0.67409484787E+01 -0.40432384495E+01 -0.14775754193E+03  0.14796648053E+03  0.00000000000E+00 0.  1.
         -3    1    1    2    0  502  0.97821758317E+01 -0.12729245135E+01 -0.15335953210E+03  0.15367646985E+03  0.00000000000E+00 0. -1.
<mgrwt>
<rscale>  1 0.30000000E+03</rscale>
<asrwt>0</asrwt>
<pdfrwt beam="1">  1       21 0.10049523E-02 0.30000000E+03</pdfrwt>
<pdfrwt beam="2">0</pdfrwt>
<totfact> 0.40093682E+05</totfact>
</mgrwt>
</event>
<event>
 6    1  0.1132867E-002  0.3000000E+03  0.7818608E-02  0.1093470E+00
         21   -1    0    0  501  502  0.00000000000E+00  0.00000000000E+00  0.78246149312E-01  0.78246149312E-01  0.00000000000E+00 0. -1.
         13   -1    0    0    0    0 -0.00000000000E+00 -0.00000000000E+00 -0.10000000000E+04  0.10000000000E+04  0.00000000000E+00 0.  1.
    9000005    2    1    2  501    0 -0.34671692342E+01  0.70416134325E+01 -0.58531032283E+03  0.58539252863E+03  0.58849792846E+01 0.  0.
         13    1    3    3    0    0 -0.34371522107E+01  0.75436651352E+00 -0.20223962693E+03  0.20227023949E+03  0.00000000000E+00 0.  1.
          3    1    3    3  501    0 -0.30017023483E-01  0.62872469190E+01 -0.38307069591E+03  0.38312228914E+03  0.00000000000E+00 0.  1.
         -3    1    1    2    0  502  0.34671692342E+01 -0.70416134325E+01 -0.41461143102E+03  0.41468571752E+03  0.00000000000E+00 0. -1.
<mgrwt>
<rscale>  1 0.30000000E+03</rscale>
<asrwt>0</asrwt>
<pdfrwt beam="1">  1       21 0.28453205E-03 0.30000000E+03</pdfrwt>
<pdfrwt beam="2">0</pdfrwt>
<totfact> 0.28573658E+06</totfact>
</mgrwt>
</event>
<event>
 6    1  0.1132867E-002  0.3000000E+03  0.7818608E-02  0.1093470E+00
         21   -1    0    0  501  502  0.00000000000E+00  0.00000000000E+00  0.59155647484E+00  0.59155647484E+00  0.00000000000E+00 0. -1.
         13   -1    0    0    0    0 -0.00000000000E+00 -0.00000000000E+00 -0.10000000000E+04  0.10000000000E+04  0.00000000000E+00 0.  1.
    9000005    2    1    2  501    0 -0.14391587239E+02 -0.13003742773E+02 -0.26558375102E+03  0.26651057018E+03  0.10813884705E+02 0.  0.
         13    1    3    3    0    0 -0.12109339859E+02 -0.73012359809E+01 -0.22709477714E+03  0.22753457311E+03  0.00000000000E+00 0.  1.
          1    1    3    3  501    0 -0.22822473803E+01 -0.57025067922E+01 -0.38488973881E+02  0.38975997065E+02  0.00000000000E+00 0.  1.
         -3    1    1    2    0  502  0.14391587239E+02  0.13003742773E+02 -0.73382469251E+03  0.73408098630E+03  0.00000000000E+00 0. -1.
<mgrwt>
<rscale>  1 0.30000000E+03</rscale>
<asrwt>0</asrwt>
<pdfrwt beam="1">  1       21 0.21511190E-02 0.30000000E+03</pdfrwt>
<pdfrwt beam="2">0</pdfrwt>
<totfact> 0.11769352E+05</totfact>
</mgrwt>
</event>
<event>
 6    1  0.1132867E-002  0.3000000E+03  0.7818608E-02  0.1093470E+00
         21   -1    0    0  501  502  0.00000000000E+00  0.00000000000E+00  0.17374038755E+00  0.17374038755E+00  0.00000000000E+00 0. -1.
         13   -1    0    0    0    0 -0.00000000000E+00 -0.00000000000E+00 -0.10000000000E+04  0.10000000000E+04  0.00000000000E+00 0.  1.
    9000005    2    1    2  501    0 -0.12146589058E+02 -0.38684848628E+00 -0.67565464072E+03  0.67577440659E+03  0.37637466244E+01 0.  0.
         13    1    3    3    0    0 -0.26106317212E+00 -0.25581888513E+00 -0.81837125607E+02  0.81837941842E+02  0.00000000000E+00 0.  1.
          3    1    3    3  501    0 -0.11885525885E+02 -0.13102960116E+00 -0.59381751512E+03  0.59393646474E+03  0.00000000000E+00 0.  1.
         -3    1    1    2    0  502  0.12146589058E+02  0.38684848628E+00 -0.32417161889E+03  0.32439933380E+03  0.00000000000E+00 0. -1.
<mgrwt>
<rscale>  1 0.30000000E+03</rscale>
<asrwt>0</asrwt>
<pdfrwt beam="1">  1       21 0.63178456E-03 0.30000000E+03</pdfrwt>
<pdfrwt beam="2">0</pdfrwt>
<totfact> 0.83287070E+05</totfact>
</mgrwt>
</event>
<event>
 6    1  0.1132867E-002  0.3000000E+03  0.7818608E-02  0.1093470E+00
         21   -1    0    0  501  502  0.00000000000E+00  0.00000000000E+00  0.12627420305E+01  0.12627420305E+01  0.00000000000E+00 0. -1.
         13   -1    0    0    0    0 -0.00000000000E+00 -0.00000000000E+00 -0.10000000000E+04  0.10000000000E+04  0.00000000000E+00 0.  1.
    9000005    2    1    2  501    0  0.49558445818E+01  0.10223390764E+02 -0.41100600686E+03  0.41342169069E+03  0.43156442637E+02 0.  0.
         13    1    3    3    0    0 -0.18075975646E+02 -0.16579230105E+01 -0.13807541797E+03  0.13926345770E+03  0.00000000000E+00 0.  1.
          1    1    3    3  501    0  0.23031820228E+02  0.11881313774E+02 -0.27293058889E+03  0.27415823299E+03  0.00000000000E+00 0.  1.
         -3    1    1    2    0  502 -0.49558445818E+01 -0.10223390764E+02 -0.58773125111E+03  0.58784105134E+03  0.00000000000E+00 0. -1.
<mgrwt>
<rscale>  1 0.30000000E+03</rscale>
<asrwt>0</asrwt>
<pdfrwt beam="1">  1       21 0.45917989E-02 0.30000000E+03</pdfrwt>
<pdfrwt beam="2">0</pdfrwt>
<totfact> 0.33296574E+04</totfact>
</mgrwt>
</event>
<event>
 6    1  0.1132867E-002  0.3000000E+03  0.7818608E-02  0.1093470E+00
         21   -1    0    0  501  502  0.00000000000E+00  0.00000000000E+00  0.13573718155E+00  0.13573718155E+00  0.00000000000E+00 0. -1.
         13   -1    0    0    0    0 -0.00000000000E+00 -0.00000000000E+00 -0.10000000000E+04  0.10000000000E+04  0.00000000000E+00 0.  1.
    9000005    2    1    2  501    0 -0.72152235168E+01  0.30391271738E+01 -0.65956777889E+03  0.65974920291E+03  0.13343913832E+02 0.  0.
         13    1    3    3    0    0 -0.98219306857E+01  0.54523270829E+01 -0.57053906139E+03  0.57064964625E+03  0.00000000000E+00 0.  1.
          3    1    3    3  501    0  0.26067071689E+01 -0.24131999092E+01 -0.89028717508E+02  0.89099556661E+02  0.00000000000E+00 0.  1.
         -3    1    1    2    0  502  0.72152235168E+01 -0.30391271738E+01 -0.34029648392E+03  0.34038653427E+03  0.00000000000E+00 0. -1.
<mgrwt>
<rscale>  1 0.30000000E+03</rscale>
<asrwt>0</asrwt>
<pdfrwt beam="1">  1       21 0.49359079E-03 0.30000000E+03</pdfrwt>
<pdfrwt beam="2">0</pdfrwt>
<totfact> 0.12233183E+06</totfact>
</mgrwt>
</event>
<event>
 6    1  0.1132867E-002  0.3000000E+03  0.7818608E-02  0.1093470E+00
         21   -1    0    0  501  502  0.00000000000E+00  0.00000000000E+00  0.22005224535E+01  0.22005224535E+01  0.00000000000E+00 0. -1.
         13   -1    0    0    0    0 -0.00000000000E+00 -0.00000000000E+00 -0.10000000000E+04  0.10000000000E+04  0.00000000000E+00 0.  1.
    9000005    2    1    2  501    0 -0.89005962077E+01  0.34544493297E+02 -0.79198037234E+03  0.79331288113E+03  0.28980589432E+02 0.  0.
         13    1    3    3    0    0 -0.35960102660E+01  0.37966806493E+02 -0.58836878121E+03  0.58960345351E+03  0.00000000000E+00 0.  1.
          1    1    3    3  501    0 -0.53045859417E+01 -0.34223131954E+01 -0.20361159113E+03  0.20370942762E+03  0.00000000000E+00 0.  1.
         -3    1    1    2    0  502  0.89005962077E+01 -0.34544493297E+02 -0.20581910521E+03  0.20888764133E+03  0.00000000000E+00 0. -1.
<mgrwt>
<rscale>  1 0.30000000E+03</rscale>
<asrwt>0</asrwt>
<pdfrwt beam="1">  1       21 0.80019167E-02 0.30000000E+03</pdfrwt>
<pdfrwt beam="2">0</pdfrwt>
<totfact> 0.12768495E+04</totfact>
</mgrwt>
</event>
<event>
 6    1  0.1132867E-002  0.3000000E+03  0.7818608E-02  0.1093470E+00
         21   -1    0    0  501  502  0.00000000000E+00  0.00000000000E+00  0.25455437683E+00  0.25455437683E+00  0.00000000000E+00 0.  1.
         13   -1    0    0    0    0 -0.00000000000E+00 -0.00000000000E+00 -0.10000000000E+04  0.10000000000E+04  0.00000000000E+00 0.  1.
    9000005    2    1    2  501    0  0.79843290757E+01  0.14156555203E+01 -0.66299162067E+03  0.66340311500E+03  0.21910050625E+02 0.  0.
         13    1    3    3    0    0 -0.36596766509E+01 -0.61606342796E+01 -0.10789091067E+03  0.10812860515E+03  0.00000000000E+00 0.  1.
          1    1    3    3  501    0  0.11644005727E+02  0.75762897999E+01 -0.55510071000E+03  0.55527450985E+03  0.00000000000E+00 0.  1.
         -3    1    1    2    0  502 -0.79843290757E+01 -0.14156555203E+01 -0.33675382495E+03  0.33685143938E+03  0.00000000000E+00 0. -1.
<mgrwt>
<rscale>  1 0.30000000E+03</rscale>
<asrwt>0</asrwt>
<pdfrwt beam="1">  1       21 0.92565423E-03 0.30000000E+03</pdfrwt>
<pdfrwt beam="2">0</pdfrwt>
<totfact> 0.45672751E+05</totfact>
</mgrwt>
</event>
<event>
 6    1  0.1132867E-002  0.3000000E+03  0.7818608E-02  0.1093470E+00
         21   -1    0    0  501  502  0.00000000000E+00  0.00000000000E+00  0.14059926603E+00  0.14059926603E+00  0.00000000000E+00 0. -1.
         13   -1    0    0    0    0 -0.00000000000E+00 -0.00000000000E+00 -0.10000000000E+04  0.10000000000E+04  0.00000000000E+00 0.  1.
    9000005    2    1    2  501    0  0.99628845267E+01 -0.15014046345E+01 -0.72758390625E+03  0.72767875206E+03  0.60425398804E+01 0.  0.
         13    1    3    3    0    0  0.34497353589E+00  0.13127440675E+01 -0.42780167878E+02  0.42801694679E+02  0.00000000000E+00 0.  1.
          1    1    3    3  501    0  0.96179109908E+01 -0.28141487020E+01 -0.68480373837E+03  0.68487705739E+03  0.00000000000E+00 0.  1.
         -3    1    1    2    0  502 -0.99628845267E+01  0.15014046345E+01 -0.27227549448E+03  0.27246184720E+03  0.00000000000E+00 0. -1.
<mgrwt>
<rscale>  1 0.30000000E+03</rscale>
<asrwt>0</asrwt>
<pdfrwt beam="1">  1       21 0.51127114E-03 0.30000000E+03</pdfrwt>
<pdfrwt beam="2">0</pdfrwt>
<totfact> 0.11582464E+06</totfact>
</mgrwt>
</event>
<event>
 6    1  0.1132867E-002  0.3000000E+03  0.7818608E-02  0.1093470E+00
         21   -1    0    0  501  502  0.00000000000E+00  0.00000000000E+00  0.30097525835E+00  0.30097525835E+00  0.00000000000E+00 0. -1.
         13   -1    0    0    0    0 -0.00000000000E+00 -0.00000000000E+00 -0.10000000000E+04  0.10000000000E+04  0.00000000000E+00 0.  1.
    9000005    2    1    2  501    0 -0.23852912207E+01  0.11058025472E+02 -0.85982281144E+03  0.85996806896E+03  0.11038252703E+02 0.  0.
         13    1    3    3    0    0 -0.53295374056E+01  0.91743159712E+01 -0.77585177740E+03  0.77592432140E+03  0.00000000000E+00 0.  1.
          1    1    3    3  501    0  0.29442461849E+01  0.18837095006E+01 -0.83971034043E+02  0.84043747568E+02  0.00000000000E+00 0.  1.
         -1    1    1    2    0  502  0.23852912207E+01 -0.11058025472E+02 -0.13987621330E+03  0.14033290629E+03  0.00000000000E+00 0. -1.
<mgrwt>
<rscale>  1 0.30000000E+03</rscale>
<asrwt>0</asrwt>
<pdfrwt beam="1">  1       21 0.10944578E-02 0.30000000E+03</pdfrwt>
<pdfrwt beam="2">0</pdfrwt>
<totfact> 0.35005925E+05</totfact>
</mgrwt>
</event>
<event>
 6    1  0.1132867E-002  0.3000000E+03  0.7818608E-02  0.1093470E+00
         21   -1    0    0  501  502  0.00000000000E+00  0.00000000000E+00  0.21907050234E+00  0.21907050234E+00  0.00000000000E+00 0. -1.
         13   -1    0    0    0    0 -0.00000000000E+00 -0.00000000000E+00 -0.10000000000E+04  0.10000000000E+04  0.00000000000E+00 0.  1.
    9000005    2    1    2  501    0 -0.82006758989E+01 -0.65511519885E+01 -0.77803890459E+03  0.77822876827E+03  0.13612862337E+02 0.  0.
         13    1    3    3    0    0 -0.32632667846E+01 -0.62267648511E+01 -0.69888609084E+03  0.69892144729E+03  0.00000000000E+00 0.  1.
          3    1    3    3  501    0 -0.49374091143E+01 -0.32438713741E+00 -0.79152813753E+02  0.79307320979E+02  0.00000000000E+00 0.  1.
         -1    1    1    2    0  502  0.82006758989E+01  0.65511519885E+01 -0.22174202490E+03  0.22199030224E+03  0.00000000000E+00 0. -1.
<mgrwt>
<rscale>  1 0.30000000E+03</rscale>
<asrwt>0</asrwt>
<pdfrwt beam="1">  1       21 0.79662169E-03 0.30000000E+03</pdfrwt>
<pdfrwt beam="2">0</pdfrwt>
<totfact> 0.57890063E+05</totfact>
</mgrwt>
</event>
<event>
 6    1  0.1132867E-002  0.3000000E+03  0.7818608E-02  0.1093470E+00
         21   -1    0    0  501  502  0.00000000000E+00  0.00000000000E+00  0.78578129773E-01  0.78578129773E-01  0.00000000000E+00 0. -1.
         13   -1    0    0    0    0 -0.00000000000E+00 -0.00000000000E+00 -0.10000000000E+04  0.10000000000E+04  0.00000000000E+00 0.  1.
    9000005    2    1    2  501    0 -0.82340191632E+01 -0.19502609835E+01 -0.49887659750E+03  0.49896230558E+03  0.37309869425E+01 0.  0.
         13    1    3    3    0    0 -0.18245305059E+00 -0.67574523762E+00 -0.14275488133E+02  0.14292637342E+02  0.00000000000E+00 0.  1.
          3    1    3    3  501    0 -0.80515661126E+01 -0.12745157459E+01 -0.48460110937E+03  0.48466966824E+03  0.00000000000E+00 0.  1.
         -3    1    1    2    0  502  0.82340191632E+01  0.19502609835E+01 -0.50104482437E+03  0.50111627255E+03  0.00000000000E+00 0. -1.
<mgrwt>
<rscale>  1 0.30000000E+03</rscale>
<asrwt>0</asrwt>
<pdfrwt beam="1">  1       21 0.28573926E-03 0.30000000E+03</pdfrwt>
<pdfrwt beam="2">0</pdfrwt>
<totfact> 0.28389303E+06</totfact>
</mgrwt>
</event>
<event>
 6    1  0.1132867E-002  0.3000000E+03  0.7818608E-02  0.1093470E+00
         21   -1    0    0  501  502  0.00000000000E+00  0.00000000000E+00  0.40550074509E+00  0.40550074509E+00  0.00000000000E+00 0.  1.
         13   -1    0    0    0    0 -0.00000000000E+00 -0.00000000000E+00 -0.10000000000E+04  0.10000000000E+04  0.00000000000E+00 0.  1.
    9000005    2    1    2  501    0 -0.97738228804E+01  0.44909104914E+01 -0.54665837660E+03  0.54734167843E+03  0.25136354988E+02 0.  0.
         13    1    3    3    0    0 -0.10519031477E+02  0.44781793975E+01 -0.54644753001E+03  0.54656711131E+03  0.00000000000E+00 0.  1.
          1    1    3    3  501    0  0.74520859657E+00  0.12731093831E-01 -0.21084659625E+00  0.77456711801E+00  0.00000000000E+00 0.  1.
         -1    1    1    2    0  502  0.97738228804E+01 -0.44909104914E+01 -0.45293612265E+03  0.45306382232E+03  0.00000000000E+00 0. -1.
<mgrwt>
<rscale>  1 0.30000000E+03</rscale>
<asrwt>0</asrwt>
<pdfrwt beam="1">  1       21 0.14745513E-02 0.30000000E+03</pdfrwt>
<pdfrwt beam="2">0</pdfrwt>
<totfact> 0.21720569E+05</totfact>
</mgrwt>
</event>
<event>
 6    1  0.1132867E-002  0.3000000E+03  0.7818608E-02  0.1093470E+00
         21   -1    0    0  501  502  0.00000000000E+00  0.00000000000E+00  0.65751324767E+00  0.65751324767E+00  0.00000000000E+00 0. -1.
         13   -1    0    0    0    0 -0.00000000000E+00 -0.00000000000E+00 -0.10000000000E+04  0.10000000000E+04  0.00000000000E+00 0.  1.
    9000005    2    1    2  501    0 -0.10767470958E+02 -0.12903160379E+02 -0.87569224429E+03  0.87587044485E+03  0.54497221422E+01 0.  0.
         13    1    3    3    0    0 -0.23963405577E+01 -0.66000910926E+01 -0.29410800185E+03  0.29419180886E+03  0.00000000000E+00 0.  1.
          1    1    3    3  501    0 -0.83711303999E+01 -0.63030692864E+01 -0.58158424244E+03  0.58167863599E+03  0.00000000000E+00 0.  1.
         -3    1    1    2    0  502  0.10767470958E+02  0.12903160379E+02 -0.12365024246E+03  0.12478706840E+03  0.00000000000E+00 0. -1.
<mgrwt>
<rscale>  1 0.30000000E+03</rscale>
<asrwt>0</asrwt>
<pdfrwt beam="1">  1       21 0.23909623E-02 0.30000000E+03</pdfrwt>
<pdfrwt beam="2">0</pdfrwt>
<totfact> 0.98965261E+04</totfact>
</mgrwt>
</event>
<event>
 6    1  0.1132867E-002  0.3000000E+03  0.7818608E-02  0.1093470E+00
         21   -1    0    0  501  502  0.00000000000E+00  0.00000000000E+00  0.14860162122E+00  0.14860162122E+00  0.00000000000E+00 0. -1.
         13   -1    0    0    0    0 -0.00000000000E+00 -0.00000000000E+00 -0.10000000000E+04  0.10000000000E+04  0.00000000000E+00 0.  1.
    9000005    2    1    2  501    0  0.66090939741E+01  0.71983594606E+01 -0.34517687306E+03  0.34540114603E+03  0.77059380435E+01 0.  0.
         13    1    3    3    0    0  0.15674533872E+01  0.72276019184E+01 -0.19926456869E+03  0.19940176398E+03  0.00000000000E+00 0.  1.
          1    1    3    3  501    0  0.50416405869E+01 -0.29242457796E-01 -0.14591230437E+03  0.14599938205E+03  0.00000000000E+00 0.  1.
         -3    1    1    2    0  502 -0.66090939741E+01 -0.71983594606E+01 -0.65467452532E+03  0.65474745559E+03  0.00000000000E+00 0. -1.
<mgrwt>
<rscale>  1 0.30000000E+03</rscale>
<asrwt>0</asrwt>
<pdfrwt beam="1">  1       21 0.54037067E-03 0.30000000E+03</pdfrwt>
<pdfrwt beam="2">0</pdfrwt>
<totfact> 0.10627492E+06</totfact>
</mgrwt>
</event>
<event>
 6    1  0.1132867E-002  0.3000000E+03  0.7818608E-02  0.1093470E+00
         21   -1    0    0  501  502  0.00000000000E+00  0.00000000000E+00  0.35755335008E+00  0.35755335008E+00  0.00000000000E+00 0. -1.
         13   -1    0    0    0    0 -0.00000000000E+00 -0.00000000000E+00 -0.10000000000E+04  0.10000000000E+04  0.00000000000E+00 0.  1.
    9000005    2    1    2  501    0 -0.85531836218E+01 -0.67434115426E+01 -0.84415922375E+03  0.84449330744E+03  0.21107361796E+02 0.  0.
         13    1    3    3    0    0  0.32041187358E+01 -0.77559907012E+01 -0.15054777974E+03  0.15078148346E+03  0.00000000000E+00 0.  1.
          1    1    3    3  501    0 -0.11757302358E+02  0.10125791586E+01 -0.69361144401E+03  0.69371182399E+03  0.00000000000E+00 0.  1.
         -1    1    1    2    0  502  0.85531836218E+01  0.67434115426E+01 -0.15548322290E+03  0.15586424591E+03  0.00000000000E+00 0. -1.
<mgrwt>
<rscale>  1 0.30000000E+03</rscale>
<asrwt>0</asrwt>
<pdfrwt beam="1">  1       21 0.13001967E-02 0.30000000E+03</pdfrwt>
<pdfrwt beam="2">0</pdfrwt>
<totfact> 0.26586999E+05</totfact>
</mgrwt>
</event>
<event>
 6    1  0.1132867E-002  0.3000000E+03  0.7818608E-02  0.1093470E+00
         21   -1    0    0  501  502  0.00000000000E+00  0.00000000000E+00  0.47587968308E+00  0.47587968308E+00  0.00000000000E+00 0. -1.
         13   -1    0    0    0    0 -0.00000000000E+00 -0.00000000000E+00 -0.10000000000E+04  0.10000000000E+04  0.00000000000E+00 0.  1.
    9000005    2    1    2  501    0  0.17190655474E+02  0.79121754254E+01 -0.70023387922E+03  0.70058795133E+03  0.11741839155E+02 0.  0.
         13    1    3    3    0    0  0.13192299528E+02  0.59795464826E+01 -0.31946966831E+03  0.31979784351E+03  0.00000000000E+00 0.  1.
          3    1    3    3  501    0  0.39983559458E+01  0.19326289428E+01 -0.38076421091E+03  0.38079010782E+03  0.00000000000E+00 0.  1.
         -1    1    1    2    0  502 -0.17190655474E+02 -0.79121754254E+01 -0.29929024110E+03  0.29988792835E+03  0.00000000000E+00 0. -1.
<mgrwt>
<rscale>  1 0.30000000E+03</rscale>
<asrwt>0</asrwt>
<pdfrwt beam="1">  1       21 0.17304752E-02 0.30000000E+03</pdfrwt>
<pdfrwt beam="2">0</pdfrwt>
<totfact> 0.16772173E+05</totfact>
</mgrwt>
</event>
<event>
 6    1  0.1132867E-002  0.3000000E+03  0.7818608E-02  0.1093470E+00
         21   -1    0    0  501  502  0.00000000000E+00  0.00000000000E+00  0.12672377198E+00  0.12672377198E+00  0.00000000000E+00 0. -1.
         13   -1    0    0    0    0 -0.00000000000E+00 -0.00000000000E+00 -0.10000000000E+04  0.10000000000E+04  0.00000000000E+00 0.  1.
    9000005    2    1    2  501    0  0.12712567085E+01  0.81841838024E+01 -0.67985331189E+03  0.67999960132E+03  0.11416441725E+02 0.  0.
         13    1    3    3    0    0 -0.41235972380E+01  0.26849283033E+01 -0.13125599401E+03  0.13134819701E+03  0.00000000000E+00 0.  1.
          3    1    3    3  501    0  0.53948539465E+01  0.54992554991E+01 -0.54859731788E+03  0.54865140431E+03  0.00000000000E+00 0.  1.
         -3    1    1    2    0  502 -0.12712567085E+01 -0.81841838024E+01 -0.32001996433E+03  0.32012712245E+03  0.00000000000E+00 0. -1.
<mgrwt>
<rscale>  1 0.30000000E+03</rscale>
<asrwt>0</asrwt>
<pdfrwt beam="1">  1       21 0.46081469E-03 0.30000000E+03</pdfrwt>
<pdfrwt beam="2">0</pdfrwt>
<totfact> 0.13608520E+06</totfact>
</mgrwt>
</event>
<event>
 6    1  0.1132867E-002  0.3000000E+03  0.7818608E-02  0.1093470E+00
         21   -1    0    0  501  502  0.00000000000E+00  0.00000000000E+00  0.56609529943E+00  0.56609529943E+00  0.00000000000E+00 0. -1.
         13   -1    0    0    0    0 -0.00000000000E+00 -0.00000000000E+00 -0.10000000000E+04  0.10000000000E+04  0.00000000000E+00 0.  1.
    9000005    2    1    2  501    0  0.95668675107E+01  0.21175483492E+02 -0.54933005044E+03  0.54986286071E+03  0.67627811908E+01 0.  0.
         13    1    3    3    0    0  0.27276567436E+01  0.42802277599E+01 -0.68654580402E+02  0.68841933959E+02  0.00000000000E+00 0.  1.
          1    1    3    3  501    0  0.68392107671E+01  0.16895255732E+02 -0.48067547004E+03  0.48102092675E+03  0.00000000000E+00 0.  1.
         -1    1    1    2    0  502 -0.95668675107E+01 -0.21175483492E+02 -0.45010385426E+03  0.45070323459E+03  0.00000000000E+00 0. -1.
<mgrwt>
<rscale>  1 0.30000000E+03</rscale>
<asrwt>0</asrwt>
<pdfrwt beam="1">  1       21 0.20585327E-02 0.30000000E+03</pdfrwt>
<pdfrwt beam="2">0</pdfrwt>
<totfact> 0.12646891E+05</totfact>
</mgrwt>
</event>
<event>
 6    1  0.1132867E-002  0.3000000E+03  0.7818608E-02  0.1093470E+00
         21   -1    0    0  501  502  0.00000000000E+00  0.00000000000E+00  0.57109371989E+00  0.57109371989E+00  0.00000000000E+00 0. -1.
         13   -1    0    0    0    0 -0.00000000000E+00 -0.00000000000E+00 -0.10000000000E+04  0.10000000000E+04  0.00000000000E+00 0.  1.
    9000005    2    1    2  501    0 -0.29321921225E+01 -0.16524860060E+02 -0.82050859130E+03  0.82086536798E+03  0.17433737505E+02 0.  0.
         13    1    3    3    0    0  0.50729788942E+01 -0.79031861261E+01 -0.57336331254E+03  0.57344021801E+03  0.00000000000E+00 0.  1.
          3    1    3    3  501    0 -0.80051710167E+01 -0.86216739336E+01 -0.24714527875E+03  0.24742514996E+03  0.00000000000E+00 0.  1.
         -3    1    1    2    0  502  0.29321921225E+01  0.16524860060E+02 -0.17892031498E+03  0.17970572574E+03  0.00000000000E+00 0. -1.
<mgrwt>
<rscale>  1 0.30000000E+03</rscale>
<asrwt>0</asrwt>
<pdfrwt beam="1">  1       21 0.20767088E-02 0.30000000E+03</pdfrwt>
<pdfrwt beam="2">0</pdfrwt>
<totfact> 0.12466648E+05</totfact>
</mgrwt>
</event>
<event>
 6    1  0.1132867E-002  0.3000000E+03  0.7818608E-02  0.1093470E+00
         21   -1    0    0  501  502  0.00000000000E+00  0.00000000000E+00  0.11343402332E+00  0.11343402332E+00  0.00000000000E+00 0. -1.
         13   -1    0    0    0    0 -0.00000000000E+00 -0.00000000000E+00 -0.10000000000E+04  0.10000000000E+04  0.00000000000E+00 0.  1.
    9000005    2    1    2  501    0  0.46963354740E+00  0.86642574497E+01 -0.29901773650E+03  0.29919089476E+03  0.53192907380E+01 0.  0.
         13    1    3    3    0    0  0.26693158419E+01  0.60758346929E+01 -0.22023172384E+03  0.22033168905E+03  0.00000000000E+00 0.  1.
          3    1    3    3  501    0 -0.21996822945E+01  0.25884227568E+01 -0.78786012660E+02  0.78859205712E+02  0.00000000000E+00 0.  1.
         -3    1    1    2    0  502 -0.46963354740E+00 -0.86642574497E+01 -0.70086882948E+03  0.70092253926E+03  0.00000000000E+00 0. -1.
<mgrwt>
<rscale>  1 0.30000000E+03</rscale>
<asrwt>0</asrwt>
<pdfrwt beam="1">  1       21 0.41248823E-03 0.30000000E+03</pdfrwt>
<pdfrwt beam="2">0</pdfrwt>
<totfact> 0.16150593E+06</totfact>
</mgrwt>
</event>
<event>
 6    1  0.1132867E-002  0.3000000E+03  0.7818608E-02  0.1093470E+00
         21   -1    0    0  501  502  0.00000000000E+00  0.00000000000E+00  0.64387253092E-01  0.64387253092E-01  0.00000000000E+00 0. -1.
         13   -1    0    0    0    0 -0.00000000000E+00 -0.00000000000E+00 -0.10000000000E+04  0.10000000000E+04  0.00000000000E+00 0.  1.
    9000005    2    1    2  501    0 -0.49438051202E+01  0.52243913970E+01 -0.53947683974E+03  0.53954943949E+03  0.51576703272E+01 0.  0.
         13    1    3    3    0    0 -0.40695550108E+01  0.62025014297E+01 -0.42118196185E+03  0.42124728758E+03  0.00000000000E+00 0.  1.
          1    1    3    3  501    0 -0.87425010938E+00 -0.97811003263E+00 -0.11829487788E+03  0.11830215191E+03  0.00000000000E+00 0.  1.
         -3    1    1    2    0  502  0.49438051202E+01 -0.52243913970E+01 -0.46045877301E+03  0.46051494777E+03  0.00000000000E+00 0. -1.
<mgrwt>
<rscale>  1 0.30000000E+03</rscale>
<asrwt>0</asrwt>
<pdfrwt beam="1">  1       21 0.23413596E-03 0.30000000E+03</pdfrwt>
<pdfrwt beam="2">0</pdfrwt>
<totfact> 0.38465169E+06</totfact>
</mgrwt>
</event>
<event>
 6    1  0.1132867E-002  0.3000000E+03  0.7818608E-02  0.1093470E+00
         21   -1    0    0  501  502  0.00000000000E+00  0.00000000000E+00  0.10733653431E+00  0.10733653431E+00  0.00000000000E+00 0. -1.
         13   -1    0    0    0    0 -0.00000000000E+00 -0.00000000000E+00 -0.10000000000E+04  0.10000000000E+04  0.00000000000E+00 0.  1.
    9000005    2    1    2  501    0 -0.87051692016E+01 -0.15286394930E+00 -0.62203299248E+03  0.62214737265E+03  0.81551351749E+01 0.  0.
         13    1    3    3    0    0 -0.90551969809E+01 -0.19252455160E+01 -0.40035954798E+03  0.40046656642E+03  0.00000000000E+00 0.  1.
          3    1    3    3  501    0  0.35002777926E+00  0.17723815667E+01 -0.22167344449E+03  0.22168080623E+03  0.00000000000E+00 0.  1.
         -1    1    1    2    0  502  0.87051692016E+01  0.15286394930E+00 -0.37785967099E+03  0.37795996388E+03  0.00000000000E+00 0. -1.
<mgrwt>
<rscale>  1 0.30000000E+03</rscale>
<asrwt>0</asrwt>
<pdfrwt beam="1">  1       21 0.39031549E-03 0.30000000E+03</pdfrwt>
<pdfrwt beam="2">0</pdfrwt>
<totfact> 0.17587772E+06</totfact>
</mgrwt>
</event>
<event>
 6    1  0.1132867E-002  0.3000000E+03  0.7818608E-02  0.1093470E+00
         21   -1    0    0  501  502  0.00000000000E+00  0.00000000000E+00  0.12386821893E+00  0.12386821893E+00  0.00000000000E+00 0. -1.
         13   -1    0    0    0    0 -0.00000000000E+00 -0.00000000000E+00 -0.10000000000E+04  0.10000000000E+04  0.00000000000E+00 0.  1.
    9000005    2    1    2  501    0  0.70852136074E+01  0.59862265892E+01 -0.71135593252E+03  0.71145461018E+03  0.73732245784E+01 0.  0.
         13    1    3    3    0    0  0.82030259117E+01  0.61468894563E+01 -0.68189538901E+03  0.68197243012E+03  0.00000000000E+00 0.  1.
          3    1    3    3  501    0 -0.11178123043E+01 -0.16066286715E+00 -0.29460543514E+02  0.29482180059E+02  0.00000000000E+00 0.  1.
         -1    1    1    2    0  502 -0.70852136074E+01 -0.59862265892E+01 -0.28852019926E+03  0.28866925804E+03  0.00000000000E+00 0. -1.
<mgrwt>
<rscale>  1 0.30000000E+03</rscale>
<asrwt>0</asrwt>
<pdfrwt beam="1">  1       21 0.45043084E-03 0.30000000E+03</pdfrwt>
<pdfrwt beam="2">0</pdfrwt>
<totfact> 0.14097168E+06</totfact>
</mgrwt>
</event>
<event>
 6    1  0.1132867E-002  0.3000000E+03  0.7818608E-02  0.1093470E+00
         21   -1    0    0  501  502  0.00000000000E+00  0.00000000000E+00  0.45316568514E+00  0.45316568514E+00  0.00000000000E+00 0. -1.
         13   -1    0    0    0    0 -0.00000000000E+00 -0.00000000000E+00 -0.10000000000E+04  0.10000000000E+04  0.00000000000E+00 0.  1.
    9000005    2    1    2  501    0 -0.96889822327E+01  0.11743682329E+02 -0.84704013967E+03  0.84718841970E+03  0.44079252508E+01 0.  0.
         13    1    3    3    0    0 -0.81869025689E+00  0.34422880438E+01 -0.14496966484E+03  0.14501283848E+03  0.00000000000E+00 0.  1.
          1    1    3    3  501    0 -0.88702919758E+01  0.83013942848E+01 -0.70207047483E+03  0.70217558121E+03  0.00000000000E+00 0.  1.
         -3    1    1    2    0  502  0.96889822327E+01 -0.11743682329E+02 -0.15250669464E+03  0.15326474599E+03  0.00000000000E+00 0. -1.
<mgrwt>
<rscale>  1 0.30000000E+03</rscale>
<asrwt>0</asrwt>
<pdfrwt beam="1">  1       21 0.16478787E-02 0.30000000E+03</pdfrwt>
<pdfrwt beam="2">0</pdfrwt>
<totfact> 0.18155091E+05</totfact>
</mgrwt>
</event>
<event>
 6    1  0.1132867E-002  0.3000000E+03  0.7818608E-02  0.1093470E+00
         21   -1    0    0  501  502  0.00000000000E+00  0.00000000000E+00  0.70073777892E+00  0.70073777892E+00  0.00000000000E+00 0. -1.
         13   -1    0    0    0    0 -0.00000000000E+00 -0.00000000000E+00 -0.10000000000E+04  0.10000000000E+04  0.00000000000E+00 0.  1.
    9000005    2    1    2  501    0 -0.70407824107E+01 -0.97621864457E+01 -0.92436554253E+03  0.92480650053E+03  0.25894677077E+02 0.  0.
         13    1    3    3    0    0  0.79936807346E+00  0.33882163773E+01 -0.19298566055E+02  0.19610039554E+02  0.00000000000E+00 0.  1.
          3    1    3    3  501    0 -0.78401504841E+01 -0.13150402823E+02 -0.90506697648E+03  0.90519646097E+03  0.00000000000E+00 0.  1.
         -1    1    1    2    0  502  0.70407824107E+01  0.97621864457E+01 -0.74933719690E+02  0.75894237250E+02  0.00000000000E+00 0. -1.
<mgrwt>
<rscale>  1 0.30000000E+03</rscale>
<asrwt>0</asrwt>
<pdfrwt beam="1">  1       21 0.25481428E-02 0.30000000E+03</pdfrwt>
<pdfrwt beam="2">0</pdfrwt>
<totfact> 0.89126164E+04</totfact>
</mgrwt>
</event>
<event>
 6    1  0.1132867E-002  0.3000000E+03  0.7818608E-02  0.1093470E+00
         21   -1    0    0  501  502  0.00000000000E+00  0.00000000000E+00  0.17529725325E+00  0.17529725325E+00  0.00000000000E+00 0. -1.
         13   -1    0    0    0    0 -0.00000000000E+00 -0.00000000000E+00 -0.10000000000E+04  0.10000000000E+04  0.00000000000E+00 0.  1.
    9000005    2    1    2  501    0 -0.82210352197E+01 -0.69769014260E+01 -0.74959959157E+03  0.74971797786E+03  0.78253481004E+01 0.  0.
         13    1    3    3    0    0 -0.17502635683E+01 -0.66071041230E+01 -0.37301312818E+03  0.37307574437E+03  0.00000000000E+00 0.  1.
          3    1    3    3  501    0 -0.64707716514E+01 -0.36979730302E+00 -0.37658646339E+03  0.37664223349E+03  0.00000000000E+00 0.  1.
         -1    1    1    2    0  502  0.82210352197E+01  0.69769014260E+01 -0.25022511118E+03  0.25045731939E+03  0.00000000000E+00 0. -1.
<mgrwt>
<rscale>  1 0.30000000E+03</rscale>
<asrwt>0</asrwt>
<pdfrwt beam="1">  1       21 0.63744590E-03 0.30000000E+03</pdfrwt>
<pdfrwt beam="2">0</pdfrwt>
<totfact> 0.82132758E+05</totfact>
</mgrwt>
</event>
<event>
 6    1  0.1132867E-002  0.3000000E+03  0.7818608E-02  0.1093470E+00
         21   -1    0    0  501  502  0.00000000000E+00  0.00000000000E+00  0.38826744949E+00  0.38826744949E+00  0.00000000000E+00 0. -1.
         13   -1    0    0    0    0 -0.00000000000E+00 -0.00000000000E+00 -0.10000000000E+04  0.10000000000E+04  0.00000000000E+00 0.  1.
    9000005    2    1    2  501    0  0.11113036003E+02  0.28143954263E+01 -0.89348559948E+03  0.89364475940E+03  0.12370090097E+02 0.  0.
         13    1    3    3    0    0  0.10033837185E+02  0.46989928032E+01 -0.39744122149E+03  0.39759562744E+03  0.00000000000E+00 0.  1.
          1    1    3    3  501    0  0.10791988184E+01 -0.18845973769E+01 -0.49604437799E+03  0.49604913195E+03  0.00000000000E+00 0.  1.
         -1    1    1    2    0  502 -0.11113036003E+02 -0.28143954263E+01 -0.10612613307E+03  0.10674350805E+03  0.00000000000E+00 0. -1.
<mgrwt>
<rscale>  1 0.30000000E+03</rscale>
<asrwt>0</asrwt>
<pdfrwt beam="1">  1       21 0.14118846E-02 0.30000000E+03</pdfrwt>
<pdfrwt beam="2">0</pdfrwt>
<totfact> 0.23291997E+05</totfact>
</mgrwt>
</event>
<event>
 6    1  0.1132867E-002  0.3000000E+03  0.7818608E-02  0.1093470E+00
         21   -1    0    0  501  502  0.00000000000E+00  0.00000000000E+00  0.33623025289E+00  0.33623025289E+00  0.00000000000E+00 0. -1.
         13   -1    0    0    0    0 -0.00000000000E+00 -0.00000000000E+00 -0.10000000000E+04  0.10000000000E+04  0.00000000000E+00 0.  1.
    9000005    2    1    2  501    0  0.53386357343E+01 -0.81854258275E+01 -0.91445483435E+03  0.91456872534E+03  0.10621067572E+02 0.  0.
         13    1    3    3    0    0  0.35218364648E+01 -0.16559084753E+00 -0.84949999080E+02  0.85023132712E+02  0.00000000000E+00 0.  1.
          1    1    3    3  501    0  0.18167992695E+01 -0.80198349799E+01 -0.82950483527E+03  0.82954559263E+03  0.00000000000E+00 0.  1.
         -1    1    1    2    0  502 -0.53386357343E+01  0.81854258275E+01 -0.85208935394E+02  0.85767504910E+02  0.00000000000E+00 0. -1.
<mgrwt>
<rscale>  1 0.30000000E+03</rscale>
<asrwt>0</asrwt>
<pdfrwt beam="1">  1       21 0.12226580E-02 0.30000000E+03</pdfrwt>
<pdfrwt beam="2">0</pdfrwt>
<totfact> 0.29336846E+05</totfact>
</mgrwt>
</event>
<event>
 6    1  0.1132867E-002  0.3000000E+03  0.7818608E-02  0.1093470E+00
         21   -1    0    0  501  502  0.00000000000E+00  0.00000000000E+00  0.15060087898E+00  0.15060087898E+00  0.00000000000E+00 0. -1.
         13   -1    0    0    0    0 -0.00000000000E+00 -0.00000000000E+00 -0.10000000000E+04  0.10000000000E+04  0.00000000000E+00 0.  1.
    9000005    2    1    2  501    0 -0.64763134982E+01 -0.76162130747E+01 -0.72548441249E+03  0.72560352800E+03  0.85380173327E+01 0.  0.
         13    1    3    3    0    0 -0.48354739262E+01 -0.73831049200E+01 -0.33690005071E+03  0.33701563200E+03  0.00000000000E+00 0.  1.
          1    1    3    3  501    0 -0.16408395719E+01 -0.23310815466E+00 -0.38858436179E+03  0.38858789600E+03  0.00000000000E+00 0.  1.
         -1    1    1    2    0  502  0.64763134982E+01  0.76162130747E+01 -0.27436498663E+03  0.27454707288E+03  0.00000000000E+00 0. -1.
<mgrwt>
<rscale>  1 0.30000000E+03</rscale>
<asrwt>0</asrwt>
<pdfrwt beam="1">  1       21 0.54764071E-03 0.30000000E+03</pdfrwt>
<pdfrwt beam="2">0</pdfrwt>
<totfact> 0.10408820E+06</totfact>
</mgrwt>
</event>
<event>
 6    1  0.1132867E-002  0.3000000E+03  0.7818608E-02  0.1093470E+00
         21   -1    0    0  501  502  0.00000000000E+00  0.00000000000E+00  0.37881896286E+00  0.37881896286E+00  0.00000000000E+00 0. -1.
         13   -1    0    0    0    0 -0.00000000000E+00 -0.00000000000E+00 -0.10000000000E+04  0.10000000000E+04  0.00000000000E+00 0.  1.
    9000005    2    1    2  501    0  0.16080190568E+00  0.16611925094E+02 -0.56544378676E+03  0.56588371932E+03  0.14890463158E+02 0.  0.
         13    1    3    3    0    0  0.72388709985E+01  0.56225023336E+01 -0.25572827797E+03  0.25589248902E+03  0.00000000000E+00 0.  1.
          3    1    3    3  501    0 -0.70780690929E+01  0.10989422761E+02 -0.30971550879E+03  0.30999123030E+03  0.00000000000E+00 0.  1.
         -1    1    1    2    0  502 -0.16080190568E+00 -0.16611925094E+02 -0.43417739427E+03  0.43449509964E+03  0.00000000000E+00 0. -1.
<mgrwt>
<rscale>  1 0.30000000E+03</rscale>
<asrwt>0</asrwt>
<pdfrwt beam="1">  1       21 0.13775264E-02 0.30000000E+03</pdfrwt>
<pdfrwt beam="2">0</pdfrwt>
<totfact> 0.24232476E+05</totfact>
</mgrwt>
</event>
<event>
 6    1  0.1132867E-002  0.3000000E+03  0.7818608E-02  0.1093470E+00
         21   -1    0    0  501  502  0.00000000000E+00  0.00000000000E+00  0.85022953313E+00  0.85022953313E+00  0.00000000000E+00 0. -1.
         13   -1    0    0    0    0 -0.00000000000E+00 -0.00000000000E+00 -0.10000000000E+04  0.10000000000E+04  0.00000000000E+00 0.  1.
    9000005    2    1    2  501    0  0.20481313193E+02  0.11824700991E+02 -0.77855784347E+03  0.77899418161E+03  0.10968664955E+02 0.  0.
         13    1    3    3    0    0  0.59555266852E+01  0.13211738364E+01 -0.91816110310E+02  0.92018541125E+02  0.00000000000E+00 0.  1.
          3    1    3    3  501    0  0.14525786507E+02  0.10503527155E+02 -0.68674173316E+03  0.68697564048E+03  0.00000000000E+00 0.  1.
         -3    1    1    2    0  502 -0.20481313193E+02 -0.11824700991E+02 -0.22059192700E+03  0.22185604793E+03  0.00000000000E+00 0. -1.
<mgrwt>
<rscale>  1 0.30000000E+03</rscale>
<asrwt>0</asrwt>
<pdfrwt beam="1">  1       21 0.30917503E-02 0.30000000E+03</pdfrwt>
<pdfrwt beam="2">0</pdfrwt>
<totfact> 0.64709248E+04</totfact>
</mgrwt>
</event>
<event>
 6    1  0.1132867E-002  0.3000000E+03  0.7818608E-02  0.1093470E+00
         21   -1    0    0  501  502  0.00000000000E+00  0.00000000000E+00  0.24745435431E+00  0.24745435431E+00  0.00000000000E+00 0. -1.
         13   -1    0    0    0    0 -0.00000000000E+00 -0.00000000000E+00 -0.10000000000E+04  0.10000000000E+04  0.00000000000E+00 0.  1.
    9000005    2    1    2  501    0 -0.24306531373E+01 -0.11152513717E+02 -0.67328487460E+03  0.67358030438E+03  0.16359017127E+02 0.  0.
         13    1    3    3    0    0 -0.54431847855E+01 -0.14467248545E+02 -0.53116389790E+03  0.53138876161E+03  0.00000000000E+00 0.  1.
          3    1    3    3  501    0  0.30125316482E+01  0.33147348274E+01 -0.14212097671E+03  0.14219154276E+03  0.00000000000E+00 0.  1.
         -3    1    1    2    0  502  0.24306531373E+01  0.11152513717E+02 -0.32646767104E+03  0.32666714998E+03  0.00000000000E+00 0. -1.
<mgrwt>
<rscale>  1 0.30000000E+03</rscale>
<asrwt>0</asrwt>
<pdfrwt beam="1">  1       21 0.89983591E-03 0.30000000E+03</pdfrwt>
<pdfrwt beam="2">0</pdfrwt>
<totfact> 0.47762658E+05</totfact>
</mgrwt>
</event>
<event>
 6    1  0.1132867E-002  0.3000000E+03  0.7818608E-02  0.1093470E+00
         21   -1    0    0  501  502  0.00000000000E+00  0.00000000000E+00  0.22697783938E+00  0.22697783938E+00  0.00000000000E+00 0. -1.
         13   -1    0    0    0    0 -0.00000000000E+00 -0.00000000000E+00 -0.10000000000E+04  0.10000000000E+04  0.00000000000E+00 0.  1.
    9000005    2    1    2  501    0 -0.10507411612E+02 -0.69843871244E+01 -0.34342374839E+03  0.34375644800E+03  0.83329001095E+01 0.  0.
         13    1    3    3    0    0 -0.92830600092E+01 -0.58983722870E+01 -0.33469108099E+03  0.33487174514E+03  0.00000000000E+00 0.  1.
          3    1    3    3  501    0 -0.12243516027E+01 -0.10860148373E+01 -0.87326673934E+01  0.88847028581E+01  0.00000000000E+00 0.  1.
         -1    1    1    2    0  502  0.10507411612E+02  0.69843871244E+01 -0.65634927378E+03  0.65647052984E+03  0.00000000000E+00 0. -1.
<mgrwt>
<rscale>  1 0.30000000E+03</rscale>
<asrwt>0</asrwt>
<pdfrwt beam="1">  1       21 0.82537570E-03 0.30000000E+03</pdfrwt>
<pdfrwt beam="2">0</pdfrwt>
<totfact> 0.54742077E+05</totfact>
</mgrwt>
</event>
<event>
 6    1  0.1132867E-002  0.3000000E+03  0.7818608E-02  0.1093470E+00
         21   -1    0    0  501  502  0.00000000000E+00  0.00000000000E+00  0.60718931943E+00  0.60718931943E+00  0.00000000000E+00 0. -1.
         13   -1    0    0    0    0 -0.00000000000E+00 -0.00000000000E+00 -0.10000000000E+04  0.10000000000E+04  0.00000000000E+00 0.  1.
    9000005    2    1    2  501    0 -0.80309120866E+01  0.94184104341E+01 -0.92602306289E+03  0.92620072526E+03  0.13261540275E+02 0.  0.
         13    1    3    3    0    0 -0.53493093193E+00  0.10164581752E+02 -0.62794750791E+03  0.62802999735E+03  0.00000000000E+00 0.  1.
          1    1    3    3  501    0 -0.74959811547E+01 -0.74617131750E+00 -0.29807555498E+03  0.29817072791E+03  0.00000000000E+00 0.  1.
         -1    1    1    2    0  502  0.80309120866E+01 -0.94184104341E+01 -0.73369747787E+02  0.74406464063E+02  0.00000000000E+00 0. -1.
<mgrwt>
<rscale>  1 0.30000000E+03</rscale>
<asrwt>0</asrwt>
<pdfrwt beam="1">  1       21 0.22079658E-02 0.30000000E+03</pdfrwt>
<pdfrwt beam="2">0</pdfrwt>
<totfact> 0.11277193E+05</totfact>
</mgrwt>
</event>
<event>
 6    1  0.1132867E-002  0.3000000E+03  0.7818608E-02  0.1093470E+00
         21   -1    0    0  501  502  0.00000000000E+00  0.00000000000E+00  0.45681761417E+00  0.45681761417E+00  0.00000000000E+00 0. -1.
         13   -1    0    0    0    0 -0.00000000000E+00 -0.00000000000E+00 -0.10000000000E+04  0.10000000000E+04  0.00000000000E+00 0.  1.
    9000005    2    1    2  501    0  0.15023322751E+02  0.65793436396E+01 -0.74638523533E+03  0.74676816168E+03  0.17400568952E+02 0.  0.
         13    1    3    3    0    0  0.74998864410E+01  0.10241638323E+02 -0.25879899964E+03  0.25911013425E+03  0.00000000000E+00 0.  1.
          1    1    3    3  501    0  0.75234363096E+01 -0.36622946830E+01 -0.48758623568E+03  0.48765802744E+03  0.00000000000E+00 0.  1.
         -1    1    1    2    0  502 -0.15023322751E+02 -0.65793436396E+01 -0.25315794706E+03  0.25368865593E+03  0.00000000000E+00 0. -1.
<mgrwt>
<rscale>  1 0.30000000E+03</rscale>
<asrwt>0</asrwt>
<pdfrwt beam="1">  1       21 0.16611585E-02 0.30000000E+03</pdfrwt>
<pdfrwt beam="2">0</pdfrwt>
<totfact> 0.17920796E+05</totfact>
</mgrwt>
</event>
<event>
 6    1  0.1132867E-002  0.3000000E+03  0.7818608E-02  0.1093470E+00
         21   -1    0    0  501  502  0.00000000000E+00  0.00000000000E+00  0.26144841571E+00  0.26144841571E+00  0.00000000000E+00 0. -1.
         13   -1    0    0    0    0 -0.00000000000E+00 -0.00000000000E+00 -0.10000000000E+04  0.10000000000E+04  0.00000000000E+00 0.  1.
    9000005    2    1    2  501    0 -0.14211287767E+02 -0.41528545753E+01 -0.58427480096E+03  0.58453397160E+03  0.91495360725E+01 0.  0.
         13    1    3    3    0    0 -0.14239215292E+02 -0.18478866111E+01 -0.42498489711E+03  0.42522738942E+03  0.00000000000E+00 0.  1.
          1    1    3    3  501    0  0.27927524667E-01 -0.23049679643E+01 -0.15928990385E+03  0.15930658218E+03  0.00000000000E+00 0.  1.
         -1    1    1    2    0  502  0.14211287767E+02  0.41528545753E+01 -0.41546375062E+03  0.41572747682E+03  0.00000000000E+00 0. -1.
<mgrwt>
<rscale>  1 0.30000000E+03</rscale>
<asrwt>0</asrwt>
<pdfrwt beam="1">  1       21 0.95072352E-03 0.30000000E+03</pdfrwt>
<pdfrwt beam="2">0</pdfrwt>
<totfact> 0.43780762E+05</totfact>
</mgrwt>
</event>
<event>
 6    1  0.1132867E-002  0.3000000E+03  0.7818608E-02  0.1093470E+00
         21   -1    0    0  501  502  0.00000000000E+00  0.00000000000E+00  0.43078067826E+00  0.43078067826E+00  0.00000000000E+00 0. -1.
         13   -1    0    0    0    0 -0.00000000000E+00 -0.00000000000E+00 -0.10000000000E+04  0.10000000000E+04  0.00000000000E+00 0.  1.
    9000005    2    1    2  501    0  0.40221463275E+01  0.16787319998E+02 -0.75939986566E+03  0.75964184777E+03  0.83420106705E+01 0.  0.
         13    1    3    3    0    0  0.43859689733E+01  0.30053368095E+01 -0.18372230023E+03  0.18379921756E+03  0.00000000000E+00 0.  1.
          3    1    3    3  501    0 -0.36382264576E+00  0.13781983189E+02 -0.57567756543E+03  0.57584263021E+03  0.00000000000E+00 0.  1.
         -3    1    1    2    0  502 -0.40221463275E+01 -0.16787319998E+02 -0.24016935366E+03  0.24078893291E+03  0.00000000000E+00 0. -1.
<mgrwt>
<rscale>  1 0.30000000E+03</rscale>
<asrwt>0</asrwt>
<pdfrwt beam="1">  1       21 0.15664785E-02 0.30000000E+03</pdfrwt>
<pdfrwt beam="2">0</pdfrwt>
<totfact> 0.19703591E+05</totfact>
</mgrwt>
</event>
<event>
 6    1  0.1132867E-002  0.3000000E+03  0.7818608E-02  0.1093470E+00
         21   -1    0    0  501  502  0.00000000000E+00  0.00000000000E+00  0.53594508197E+00  0.53594508197E+00  0.00000000000E+00 0. -1.
         13   -1    0    0    0    0 -0.00000000000E+00 -0.00000000000E+00 -0.10000000000E+04  0.10000000000E+04  0.00000000000E+00 0.  1.
    9000005    2    1    2  501    0 -0.25746478133E+01  0.13692068391E+02 -0.88113837841E+03  0.88139289128E+03  0.15952596767E+02 0.  0.
         13    1    3    3    0    0 -0.83242656136E+01  0.33212996824E+01 -0.30126369702E+03  0.30139698003E+03  0.00000000000E+00 0.  1.
          3    1    3    3  501    0  0.57496178003E+01  0.10370768709E+02 -0.57987468138E+03  0.57999591124E+03  0.00000000000E+00 0.  1.
         -1    1    1    2    0  502  0.25746478133E+01 -0.13692068391E+02 -0.11832567651E+03  0.11914305381E+03  0.00000000000E+00 0. -1.
<mgrwt>
<rscale>  1 0.30000000E+03</rscale>
<asrwt>0</asrwt>
<pdfrwt beam="1">  1       21 0.19488953E-02 0.30000000E+03</pdfrwt>
<pdfrwt beam="2">0</pdfrwt>
<totfact> 0.13827132E+05</totfact>
</mgrwt>
</event>
<event>
 6    1  0.1132867E-002  0.3000000E+03  0.7818608E-02  0.1093470E+00
         21   -1    0    0  501  502  0.00000000000E+00  0.00000000000E+00  0.13817700042E+01  0.13817700042E+01  0.00000000000E+00 0. -1.
         13   -1    0    0    0    0 -0.00000000000E+00 -0.00000000000E+00 -0.10000000000E+04  0.10000000000E+04  0.00000000000E+00 0.  1.
    9000005    2    1    2  501    0 -0.12239790506E+01 -0.12009871471E+02 -0.97070284620E+03  0.97096789505E+03  0.19206833468E+02 0.  0.
         13    1    3    3    0    0  0.78484721286E+01 -0.11035116069E+02 -0.59948529993E+03  0.59963822187E+03  0.00000000000E+00 0.  1.
          1    1    3    3  501    0 -0.90724511792E+01 -0.97475540240E+00 -0.37121754628E+03  0.37132967318E+03  0.00000000000E+00 0.  1.
         -1    1    1    2    0  502  0.12239790506E+01  0.12009871471E+02 -0.27915383791E+02  0.30413874953E+02  0.00000000000E+00 0. -1.
<mgrwt>
<rscale>  1 0.30000000E+03</rscale>
<asrwt>0</asrwt>
<pdfrwt beam="1">  1       21 0.50246288E-02 0.30000000E+03</pdfrwt>
<pdfrwt beam="2">0</pdfrwt>
<totfact> 0.28564353E+04</totfact>
</mgrwt>
</event>
<event>
 6    1  0.1132867E-002  0.3000000E+03  0.7818608E-02  0.1093470E+00
         21   -1    0    0  501  502  0.00000000000E+00  0.00000000000E+00  0.40004898132E+00  0.40004898132E+00  0.00000000000E+00 0. -1.
         13   -1    0    0    0    0 -0.00000000000E+00 -0.00000000000E+00 -0.10000000000E+04  0.10000000000E+04  0.00000000000E+00 0.  1.
    9000005    2    1    2  501    0 -0.43089002500E+01  0.15841146865E+02 -0.76087350711E+03  0.76110979933E+03  0.94933799996E+01 0.  0.
         13    1    3    3    0    0 -0.55574699596E+01  0.10669379746E+02 -0.35990902933E+03  0.36011002559E+03  0.00000000000E+00 0.  1.
          1    1    3    3  501    0  0.12485697096E+01  0.51717671194E+01 -0.40096447778E+03  0.40099977374E+03  0.00000000000E+00 0.  1.
         -1    1    1    2    0  502  0.43089002500E+01 -0.15841146865E+02 -0.23872644391E+03  0.23929024965E+03  0.00000000000E+00 0. -1.
<mgrwt>
<rscale>  1 0.30000000E+03</rscale>
<asrwt>0</asrwt>
<pdfrwt beam="1">  1       21 0.14547266E-02 0.30000000E+03</pdfrwt>
<pdfrwt beam="2">0</pdfrwt>
<totfact> 0.22198869E+05</totfact>
</mgrwt>
</event>
<event>
 6    1  0.1132867E-002  0.3000000E+03  0.7818608E-02  0.1093470E+00
         21   -1    0    0  501  502  0.00000000000E+00  0.00000000000E+00  0.44201794693E+00  0.44201794693E+00  0.00000000000E+00 0. -1.
         13   -1    0    0    0    0 -0.00000000000E+00 -0.00000000000E+00 -0.10000000000E+04  0.10000000000E+04  0.00000000000E+00 0.  1.
    9000005    2    1    2  501    0 -0.13499010366E+02  0.38905482877E+01 -0.56166983260E+03  0.56232857250E+03  0.23303711167E+02 0.  0.
         13    1    3    3    0    0 -0.38145431563E+01  0.13151682958E+02 -0.30990868789E+03  0.31021107706E+03  0.00000000000E+00 0.  1.
          1    1    3    3  501    0 -0.96844672093E+01 -0.92611346707E+01 -0.25176114471E+03  0.25211749543E+03  0.00000000000E+00 0.  1.
         -1    1    1    2    0  502  0.13499010366E+02 -0.38905482877E+01 -0.43788814946E+03  0.43811344545E+03  0.00000000000E+00 0. -1.
<mgrwt>
<rscale>  1 0.30000000E+03</rscale>
<asrwt>0</asrwt>
<pdfrwt beam="1">  1       21 0.16073414E-02 0.30000000E+03</pdfrwt>
<pdfrwt beam="2">0</pdfrwt>
<totfact> 0.18901122E+05</totfact>
</mgrwt>
</event>
<event>
 6    1  0.1132867E-002  0.3000000E+03  0.7818608E-02  0.1093470E+00
         21   -1    0    0  501  502  0.00000000000E+00  0.00000000000E+00  0.10424797448E+01  0.10424797448E+01  0.00000000000E+00 0. -1.
         13   -1    0    0    0    0 -0.00000000000E+00 -0.00000000000E+00 -0.10000000000E+04  0.10000000000E+04  0.00000000000E+00 0.  1.
    9000005    2    1    2  501    0 -0.20736272779E+02  0.14153743587E+02 -0.80427259996E+03  0.80474540983E+03  0.11420951446E+02 0.  0.
         13    1    3    3    0    0 -0.90967521057E+01  0.62198215027E+01 -0.52701949461E+03  0.52713469320E+03  0.00000000000E+00 0.  1.
          3    1    3    3  501    0 -0.11639520673E+02  0.79339220838E+01 -0.27725310535E+03  0.27761071663E+03  0.00000000000E+00 0.  1.
         -3    1    1    2    0  502  0.20736272779E+02 -0.14153743587E+02 -0.19468492029E+03  0.19629706991E+03  0.00000000000E+00 0. -1.
<mgrwt>
<rscale>  1 0.30000000E+03</rscale>
<asrwt>0</asrwt>
<pdfrwt beam="1">  1       21 0.37908434E-02 0.30000000E+03</pdfrwt>
<pdfrwt beam="2">0</pdfrwt>
<totfact> 0.46022241E+04</totfact>
</mgrwt>
</event>
<event>
 6    1  0.1132867E-002  0.3000000E+03  0.7818608E-02  0.1093470E+00
         21   -1    0    0  501  502  0.00000000000E+00  0.00000000000E+00  0.81165040582E+00  0.81165040582E+00  0.00000000000E+00 0.  1.
         13   -1    0    0    0    0 -0.00000000000E+00 -0.00000000000E+00 -0.10000000000E+04  0.10000000000E+04  0.00000000000E+00 0.  1.
    9000005    2    1    2  501    0 -0.12698366423E+02 -0.34563828988E+01 -0.82108390295E+03  0.82222164787E+03  0.41188195446E+02 0.  0.
         13    1    3    3    0    0  0.86794347540E+01 -0.93632332000E+01 -0.10201852848E+03  0.10281431261E+03  0.00000000000E+00 0.  1.
          1    1    3    3  501    0 -0.21377801177E+02  0.59068503011E+01 -0.71906537447E+03  0.71940733526E+03  0.00000000000E+00 0.  1.
         -3    1    1    2    0  502  0.12698366423E+02  0.34563828988E+01 -0.17810444664E+03  0.17859000253E+03  0.00000000000E+00 0. -1.
<mgrwt>
<rscale>  1 0.30000000E+03</rscale>
<asrwt>0</asrwt>
<pdfrwt beam="1">  1       21 0.29514622E-02 0.30000000E+03</pdfrwt>
<pdfrwt beam="2">0</pdfrwt>
<totfact> 0.69897165E+04</totfact>
</mgrwt>
</event>
<event>
 6    1  0.1132867E-002  0.3000000E+03  0.7818608E-02  0.1093470E+00
         21   -1    0    0  501  502  0.00000000000E+00  0.00000000000E+00  0.17783802074E+00  0.17783802074E+00  0.00000000000E+00 0. -1.
         13   -1    0    0    0    0 -0.00000000000E+00 -0.00000000000E+00 -0.10000000000E+04  0.10000000000E+04  0.00000000000E+00 0.  1.
    9000005    2    1    2  501    0  0.93381636003E+01 -0.36090847402E+01 -0.78443476218E+03  0.78455789742E+03  0.96421728184E+01 0.  0.
         13    1    3    3    0    0  0.93919161690E+01 -0.40035656174E+01 -0.42395635194E+03  0.42407926732E+03  0.00000000000E+00 0.  1.
          1    1    3    3  501    0 -0.53752568690E-01  0.39448087715E+00 -0.36047841024E+03  0.36047863010E+03  0.00000000000E+00 0.  1.
         -1    1    1    2    0  502 -0.93381636003E+01  0.36090847402E+01 -0.21538739980E+03  0.21561994060E+03  0.00000000000E+00 0. -1.
<mgrwt>
<rscale>  1 0.30000000E+03</rscale>
<asrwt>0</asrwt>
<pdfrwt beam="1">  1       21 0.64668508E-03 0.30000000E+03</pdfrwt>
<pdfrwt beam="2">0</pdfrwt>
<totfact> 0.80304056E+05</totfact>
</mgrwt>
</event>
<event>
 6    1  0.1132867E-002  0.3000000E+03  0.7818608E-02  0.1093470E+00
         21   -1    0    0  501  502  0.00000000000E+00  0.00000000000E+00  0.34302836206E+00  0.34302836206E+00  0.00000000000E+00 0. -1.
         13   -1    0    0    0    0 -0.00000000000E+00 -0.00000000000E+00 -0.10000000000E+04  0.10000000000E+04  0.00000000000E+00 0.  1.
    9000005    2    1    2  501    0 -0.99961907933E+01  0.51685885020E+01 -0.89072209889E+03  0.89082844195E+03  0.79257422211E+01 0.  0.
         13    1    3    3    0    0 -0.44294800335E+01 -0.61636916317E+00 -0.16075268613E+03  0.16081488209E+03  0.00000000000E+00 0.  1.
          1    1    3    3  501    0 -0.55667107598E+01  0.57849576651E+01 -0.72996941276E+03  0.73001355986E+03  0.00000000000E+00 0.  1.
         -3    1    1    2    0  502  0.99961907933E+01 -0.51685885020E+01 -0.10893487275E+03  0.10951458642E+03  0.00000000000E+00 0. -1.
<mgrwt>
<rscale>  1 0.30000000E+03</rscale>
<asrwt>0</asrwt>
<pdfrwt beam="1">  1       21 0.12473785E-02 0.30000000E+03</pdfrwt>
<pdfrwt beam="2">0</pdfrwt>
<totfact> 0.28412717E+05</totfact>
</mgrwt>
</event>
<event>
 6    1  0.1132867E-002  0.3000000E+03  0.7818608E-02  0.1093470E+00
         21   -1    0    0  501  502  0.00000000000E+00  0.00000000000E+00  0.37218930994E+00  0.37218930994E+00  0.00000000000E+00 0. -1.
         13   -1    0    0    0    0 -0.00000000000E+00 -0.00000000000E+00 -0.10000000000E+04  0.10000000000E+04  0.00000000000E+00 0.  1.
    9000005    2    1    2  501    0 -0.10460043329E+02  0.12012509471E+02 -0.75277172356E+03  0.75300274769E+03  0.97034714919E+01 0.  0.
         13    1    3    3    0    0  0.22334217588E+00  0.32058594946E+01 -0.55085104260E+02  0.55178765192E+02  0.00000000000E+00 0.  1.
          1    1    3    3  501    0 -0.10683385505E+02  0.88066499763E+01 -0.69768661930E+03  0.69782398250E+03  0.00000000000E+00 0.  1.
         -1    1    1    2    0  502  0.10460043329E+02 -0.12012509471E+02 -0.24685608713E+03  0.24736944162E+03  0.00000000000E+00 0. -1.
<mgrwt>
<rscale>  1 0.30000000E+03</rscale>
<asrwt>0</asrwt>
<pdfrwt beam="1">  1       21 0.13534185E-02 0.30000000E+03</pdfrwt>
<pdfrwt beam="2">0</pdfrwt>
<totfact> 0.24929371E+05</totfact>
</mgrwt>
</event>
<event>
 6    1  0.1132867E-002  0.3000000E+03  0.7818608E-02  0.1093470E+00
         21   -1    0    0  501  502  0.00000000000E+00  0.00000000000E+00  0.62708311178E+00  0.62708311178E+00  0.00000000000E+00 0. -1.
         13   -1    0    0    0    0 -0.00000000000E+00 -0.00000000000E+00 -0.10000000000E+04  0.10000000000E+04  0.00000000000E+00 0.  1.
    9000005    2    1    2  501    0 -0.30333541253E+00 -0.17505630494E+02 -0.73243910927E+03  0.73311970609E+03  0.26285272649E+02 0.  0.
         13    1    3    3    0    0 -0.12247992116E+02 -0.61987607458E+01 -0.22826590528E+03  0.22867829250E+03  0.00000000000E+00 0.  1.
          1    1    3    3  501    0  0.11944656703E+02 -0.11306869749E+02 -0.50417320399E+03  0.50444141360E+03  0.00000000000E+00 0.  1.
         -3    1    1    2    0  502  0.30333541253E+00  0.17505630494E+02 -0.26693380762E+03  0.26750737702E+03  0.00000000000E+00 0. -1.
<mgrwt>
<rscale>  1 0.30000000E+03</rscale>
<asrwt>0</asrwt>
<pdfrwt beam="1">  1       21 0.22803070E-02 0.30000000E+03</pdfrwt>
<pdfrwt beam="2">0</pdfrwt>
<totfact> 0.10696801E+05</totfact>
</mgrwt>
</event>
<event>
 6    1  0.1132867E-002  0.3000000E+03  0.7818608E-02  0.1093470E+00
         21   -1    0    0  501  502  0.00000000000E+00  0.00000000000E+00  0.37727082869E+00  0.37727082869E+00  0.00000000000E+00 0. -1.
         13   -1    0    0    0    0 -0.00000000000E+00 -0.00000000000E+00 -0.10000000000E+04  0.10000000000E+04  0.00000000000E+00 0.  1.
    9000005    2    1    2  501    0  0.46090318156E+01 -0.12191498585E+02 -0.86700850824E+03  0.86712410049E+03  0.55296002115E+01 0.  0.
         13    1    3    3    0    0  0.26836224672E+01 -0.11864995454E+02 -0.76798646232E+03  0.76808279909E+03  0.00000000000E+00 0.  1.
          3    1    3    3  501    0  0.19254093484E+01 -0.32650313054E+00 -0.99022045915E+02  0.99041301399E+02  0.00000000000E+00 0.  1.
         -1    1    1    2    0  502 -0.46090318156E+01  0.12191498585E+02 -0.13261422093E+03  0.13325317034E+03  0.00000000000E+00 0. -1.
<mgrwt>
<rscale>  1 0.30000000E+03</rscale>
<asrwt>0</asrwt>
<pdfrwt beam="1">  1       21 0.13718968E-02 0.30000000E+03</pdfrwt>
<pdfrwt beam="2">0</pdfrwt>
<totfact> 0.24392386E+05</totfact>
</mgrwt>
</event>
<event>
 6    1  0.1132867E-002  0.3000000E+03  0.7818608E-02  0.1093470E+00
         21   -1    0    0  501  502  0.00000000000E+00  0.00000000000E+00  0.10189914548E+00  0.10189914548E+00  0.00000000000E+00 0. -1.
         13   -1    0    0    0    0 -0.00000000000E+00 -0.00000000000E+00 -0.10000000000E+04  0.10000000000E+04  0.00000000000E+00 0.  1.
    9000005    2    1    2  501    0 -0.49716139064E+01 -0.76697210877E+01 -0.60468991608E+03  0.60478803539E+03  0.59271892825E+01 0.  0.
         13    1    3    3    0    0 -0.41650684063E+01 -0.29961437565E+01 -0.43980229918E+03  0.43983222601E+03  0.00000000000E+00 0.  1.
          3    1    3    3  501    0 -0.80654550009E+00 -0.46735773312E+01 -0.16488761691E+03  0.16495580939E+03  0.00000000000E+00 0.  1.
         -1    1    1    2    0  502  0.49716139064E+01  0.76697210877E+01 -0.39520818477E+03  0.39531386375E+03  0.00000000000E+00 0. -1.
<mgrwt>
<rscale>  1 0.30000000E+03</rscale>
<asrwt>0</asrwt>
<pdfrwt beam="1">  1       21 0.37054313E-03 0.30000000E+03</pdfrwt>
<pdfrwt beam="2">0</pdfrwt>
<totfact> 0.19054823E+06</totfact>
</mgrwt>
</event>
<event>
 6    1  0.1132867E-002  0.3000000E+03  0.7818608E-02  0.1093470E+00
         21   -1    0    0  501  502  0.00000000000E+00  0.00000000000E+00  0.34365028515E+01  0.34365028515E+01  0.00000000000E+00 0. -1.
         13   -1    0    0    0    0 -0.00000000000E+00 -0.00000000000E+00 -0.10000000000E+04  0.10000000000E+04  0.00000000000E+00 0.  1.
    9000005    2    1    2  501    0  0.98022346946E+01 -0.17535962283E+02 -0.96946984319E+03  0.96970728906E+03  0.75402798968E+01 0.  0.
         13    1    3    3    0    0  0.54083641053E+01 -0.58380747755E+01 -0.53028487770E+03  0.53034459084E+03  0.00000000000E+00 0.  1.
          1    1    3    3  501    0  0.43938705894E+01 -0.11697887508E+02 -0.43918496550E+03  0.43936269822E+03  0.00000000000E+00 0.  1.
         -3    1    1    2    0  502 -0.98022346946E+01  0.17535962283E+02 -0.27093653956E+02  0.33729213790E+02  0.00000000000E+00 0. -1.
<mgrwt>
<rscale>  1 0.30000000E+03</rscale>
<asrwt>0</asrwt>
<pdfrwt beam="1">  1       21 0.12496400E-01 0.30000000E+03</pdfrwt>
<pdfrwt beam="2">0</pdfrwt>
<totfact> 0.57567132E+03</totfact>
</mgrwt>
</event>
<event>
 6    1  0.1132867E-002  0.3000000E+03  0.7818608E-02  0.1093470E+00
         21   -1    0    0  501  502  0.00000000000E+00  0.00000000000E+00  0.34742281176E+00  0.34742281176E+00  0.00000000000E+00 0. -1.
         13   -1    0    0    0    0 -0.00000000000E+00 -0.00000000000E+00 -0.10000000000E+04  0.10000000000E+04  0.00000000000E+00 0.  1.
    9000005    2    1    2  501    0  0.15250774755E+02 -0.37319487778E+01 -0.61488476611E+03  0.61525940429E+03  0.14640539350E+02 0.  0.
         13    1    3    3    0    0  0.30325160037E+01  0.31357485936E+01 -0.47077051557E+02  0.47278725193E+02  0.00000000000E+00 0.  1.
          3    1    3    3  501    0  0.12218258752E+02 -0.68676973714E+01 -0.56780771456E+03  0.56798067909E+03  0.00000000000E+00 0.  1.
         -3    1    1    2    0  502 -0.15250774755E+02  0.37319487778E+01 -0.38476781107E+03  0.38508801853E+03  0.00000000000E+00 0. -1.
<mgrwt>
<rscale>  1 0.30000000E+03</rscale>
<asrwt>0</asrwt>
<pdfrwt beam="1">  1       21 0.12633583E-02 0.30000000E+03</pdfrwt>
<pdfrwt beam="2">0</pdfrwt>
<totfact> 0.27839795E+05</totfact>
</mgrwt>
</event>
<event>
 6    1  0.1132867E-002  0.3000000E+03  0.7818608E-02  0.1093470E+00
         21   -1    0    0  501  502  0.00000000000E+00  0.00000000000E+00  0.35237916428E+00  0.35237916428E+00  0.00000000000E+00 0. -1.
         13   -1    0    0    0    0 -0.00000000000E+00 -0.00000000000E+00 -0.10000000000E+04  0.10000000000E+04  0.00000000000E+00 0.  1.
    9000005    2    1    2  501    0  0.14136440495E+02  0.83186907173E+01 -0.68600126865E+03  0.68627742982E+03  0.10484776021E+02 0.  0.
         13    1    3    3    0    0  0.11507052248E+02  0.31654511066E+01 -0.30680918926E+03  0.30704122028E+03  0.00000000000E+00 0.  1.
          1    1    3    3  501    0  0.26293882467E+01  0.51532396107E+01 -0.37919207938E+03  0.37923620954E+03  0.00000000000E+00 0.  1.
         -1    1    1    2    0  502 -0.14136440495E+02 -0.83186907173E+01 -0.31364635219E+03  0.31407494934E+03  0.00000000000E+00 0. -1.
<mgrwt>
<rscale>  1 0.30000000E+03</rscale>
<asrwt>0</asrwt>
<pdfrwt beam="1">  1       21 0.12813815E-02 0.30000000E+03</pdfrwt>
<pdfrwt beam="2">0</pdfrwt>
<totfact> 0.27215398E+05</totfact>
</mgrwt>
</event>
<event>
 6    1  0.1132867E-002  0.3000000E+03  0.7818608E-02  0.1093470E+00
         21   -1    0    0  501  502  0.00000000000E+00  0.00000000000E+00  0.15641762225E+01  0.15641762225E+01  0.00000000000E+00 0. -1.
         13   -1    0    0    0    0 -0.00000000000E+00 -0.00000000000E+00 -0.10000000000E+04  0.10000000000E+04  0.00000000000E+00 0.  1.
    9000005    2    1    2  501    0  0.19497584613E+02 -0.19500349354E+02 -0.50133380487E+03  0.50369789233E+03  0.40194071776E+02 0.  0.
         13    1    3    3    0    0  0.42827124615E+01 -0.15878445267E+02 -0.63829475611E+02  0.65914100213E+02  0.00000000000E+00 0.  1.
          1    1    3    3  501    0  0.15214872151E+02 -0.36219040877E+01 -0.43750432926E+03  0.43778379212E+03  0.00000000000E+00 0.  1.
         -3    1    1    2    0  502 -0.19497584613E+02  0.19500349354E+02 -0.49710201891E+03  0.49786628389E+03  0.00000000000E+00 0. -1.
<mgrwt>
<rscale>  1 0.30000000E+03</rscale>
<asrwt>0</asrwt>
<pdfrwt beam="1">  1       21 0.56879255E-02 0.30000000E+03</pdfrwt>
<pdfrwt beam="2">0</pdfrwt>
<totfact> 0.23102340E+04</totfact>
</mgrwt>
</event>
<event>
 6    1  0.1132867E-002  0.3000000E+03  0.7818608E-02  0.1093470E+00
         21   -1    0    0  501  502  0.00000000000E+00  0.00000000000E+00  0.60375563867E+00  0.60375563867E+00  0.00000000000E+00 0. -1.
         13   -1    0    0    0    0 -0.00000000000E+00 -0.00000000000E+00 -0.10000000000E+04  0.10000000000E+04  0.00000000000E+00 0.  1.
    9000005    2    1    2  501    0  0.17030187024E+02 -0.48866793880E+01 -0.68612901948E+03  0.68683590978E+03  0.25624767217E+02 0.  0.
         13    1    3    3    0    0  0.21117114609E+01 -0.46267123080E+00 -0.41492307645E+01  0.46786222223E+01  0.00000000000E+00 0.  1.
          3    1    3    3  501    0  0.14918475563E+02 -0.44240081572E+01 -0.68197978871E+03  0.68215728756E+03  0.00000000000E+00 0.  1.
         -3    1    1    2    0  502 -0.17030187024E+02  0.48866793880E+01 -0.31326722489E+03  0.31376784586E+03  0.00000000000E+00 0. -1.
<mgrwt>
<rscale>  1 0.30000000E+03</rscale>
<asrwt>0</asrwt>
<pdfrwt beam="1">  1       21 0.21954797E-02 0.30000000E+03</pdfrwt>
<pdfrwt beam="2">0</pdfrwt>
<totfact> 0.11382447E+05</totfact>
</mgrwt>
</event>
<event>
 6    1  0.1132867E-002  0.3000000E+03  0.7818608E-02  0.1093470E+00
         21   -1    0    0  501  502  0.00000000000E+00  0.00000000000E+00  0.14714657875E+00  0.14714657875E+00  0.00000000000E+00 0. -1.
         13   -1    0    0    0    0 -0.00000000000E+00 -0.00000000000E+00 -0.10000000000E+04  0.10000000000E+04  0.00000000000E+00 0.  1.
    9000005    2    1    2  501    0  0.23940651544E+01 -0.92890444046E+01 -0.77246857850E+03  0.77256062155E+03  0.70845821028E+01 0.  0.
         13    1    3    3    0    0 -0.22501853142E+01 -0.11862254515E+01 -0.19353266684E+03  0.19354938285E+03  0.00000000000E+00 0.  1.
          3    1    3    3  501    0  0.46442504686E+01 -0.81028189532E+01 -0.57893591166E+03  0.57901123870E+03  0.00000000000E+00 0.  1.
         -3    1    1    2    0  502 -0.23940651544E+01  0.92890444046E+01 -0.22738427492E+03  0.22758652503E+03  0.00000000000E+00 0. -1.
<mgrwt>
<rscale>  1 0.30000000E+03</rscale>
<asrwt>0</asrwt>
<pdfrwt beam="1">  1       21 0.53507960E-03 0.30000000E+03</pdfrwt>
<pdfrwt beam="2">0</pdfrwt>
<totfact> 0.10791381E+06</totfact>
</mgrwt>
</event>
<event>
 6    1  0.1132867E-002  0.3000000E+03  0.7818608E-02  0.1093470E+00
         21   -1    0    0  501  502  0.00000000000E+00  0.00000000000E+00  0.18163729356E+00  0.18163729356E+00  0.00000000000E+00 0. -1.
         13   -1    0    0    0    0 -0.00000000000E+00 -0.00000000000E+00 -0.10000000000E+04  0.10000000000E+04  0.00000000000E+00 0.  1.
    9000005    2    1    2  501    0  0.11698830695E+02  0.22125348460E+01 -0.68470660420E+03  0.68484502620E+03  0.69150646344E+01 0.  0.
         13    1    3    3    0    0 -0.65569886486E+00  0.63467316381E+00 -0.18980065129E+02  0.19001989983E+02  0.00000000000E+00 0.  1.
          3    1    3    3  501    0  0.12354529560E+02  0.15778616821E+01 -0.66572653907E+03  0.66584303621E+03  0.00000000000E+00 0.  1.
         -3    1    1    2    0  502 -0.11698830695E+02 -0.22125348460E+01 -0.31511175850E+03  0.31533661110E+03  0.00000000000E+00 0. -1.
<mgrwt>
<rscale>  1 0.30000000E+03</rscale>
<asrwt>0</asrwt>
<pdfrwt beam="1">  1       21 0.66050064E-03 0.30000000E+03</pdfrwt>
<pdfrwt beam="2">0</pdfrwt>
<totfact> 0.77690461E+05</totfact>
</mgrwt>
</event>
<event>
 6    1  0.1132867E-002  0.3000000E+03  0.7818608E-02  0.1093470E+00
         21   -1    0    0  501  502  0.00000000000E+00  0.00000000000E+00  0.11407609572E+00  0.11407609572E+00  0.00000000000E+00 0. -1.
         13   -1    0    0    0    0 -0.00000000000E+00 -0.00000000000E+00 -0.10000000000E+04  0.10000000000E+04  0.00000000000E+00 0.  1.
    9000005    2    1    2  501    0  0.47204486867E+01  0.84266670905E+01 -0.69830882488E+03  0.69838234424E+03  0.30647159406E+01 0.  0.
         13    1    3    3    0    0  0.43581124782E+01  0.58064717312E+01 -0.43899350905E+03  0.43905353802E+03  0.00000000000E+00 0.  1.
          3    1    3    3  501    0  0.36233620850E+00  0.26201953593E+01 -0.25931531583E+03  0.25932880622E+03  0.00000000000E+00 0.  1.
         -1    1    1    2    0  502 -0.47204486867E+01 -0.84266670905E+01 -0.30157709903E+03  0.30173173186E+03  0.00000000000E+00 0. -1.
<mgrwt>
<rscale>  1 0.30000000E+03</rscale>
<asrwt>0</asrwt>
<pdfrwt beam="1">  1       21 0.41482304E-03 0.30000000E+03</pdfrwt>
<pdfrwt beam="2">0</pdfrwt>
<totfact> 0.16010477E+06</totfact>
</mgrwt>
</event>
<event>
 6    1  0.1132867E-002  0.3000000E+03  0.7818608E-02  0.1093470E+00
         21   -1    0    0  501  502  0.00000000000E+00  0.00000000000E+00  0.32360601408E+00  0.32360601408E+00  0.00000000000E+00 0. -1.
         13   -1    0    0    0    0 -0.00000000000E+00 -0.00000000000E+00 -0.10000000000E+04  0.10000000000E+04  0.00000000000E+00 0.  1.
    9000005    2    1    2  501    0 -0.91670465851E+00 -0.12465791147E+02 -0.84401039920E+03  0.84415658571E+03  0.95158264026E+01 0.  0.
         13    1    3    3    0    0 -0.14303333123E+01 -0.13865039248E+02 -0.79885368767E+03  0.79897528089E+03  0.00000000000E+00 0.  1.
          3    1    3    3  501    0  0.51362865382E+00  0.13992481010E+01 -0.45156711526E+02  0.45181304822E+02  0.00000000000E+00 0.  1.
         -1    1    1    2    0  502  0.91670465851E+00  0.12465791147E+02 -0.15566599479E+03  0.15616702030E+03  0.00000000000E+00 0. -1.
<mgrwt>
<rscale>  1 0.30000000E+03</rscale>
<asrwt>0</asrwt>
<pdfrwt beam="1">  1       21 0.11767516E-02 0.30000000E+03</pdfrwt>
<pdfrwt beam="2">0</pdfrwt>
<totfact> 0.31185751E+05</totfact>
</mgrwt>
</event>
<event>
 6    1  0.1132867E-002  0.3000000E+03  0.7818608E-02  0.1093470E+00
         21   -1    0    0  501  502  0.00000000000E+00  0.00000000000E+00  0.11524400345E+01  0.11524400345E+01  0.00000000000E+00 0.  1.
         13   -1    0    0    0    0 -0.00000000000E+00 -0.00000000000E+00 -0.10000000000E+04  0.10000000000E+04  0.00000000000E+00 0.  1.
    9000005    2    1    2  501    0  0.13026206909E+02 -0.60815678703E+01 -0.64697802346E+03  0.64898935529E+03  0.48989314233E+02 0.  0.
         13    1    3    3    0    0  0.46799225160E+00  0.18489043693E+02 -0.13407908334E+03  0.13534867691E+03  0.00000000000E+00 0.  1.
          1    1    3    3  501    0  0.12558214657E+02 -0.24570611563E+02 -0.51289894012E+03  0.51364067838E+03  0.00000000000E+00 0.  1.
         -1    1    1    2    0  502 -0.13026206909E+02  0.60815678703E+01 -0.35186953651E+03  0.35216308474E+03  0.00000000000E+00 0. -1.
<mgrwt>
<rscale>  1 0.30000000E+03</rscale>
<asrwt>0</asrwt>
<pdfrwt beam="1">  1       21 0.41906999E-02 0.30000000E+03</pdfrwt>
<pdfrwt beam="2">0</pdfrwt>
<totfact> 0.38871686E+04</totfact>
</mgrwt>
</event>
<event>
 6    1  0.1132867E-002  0.3000000E+03  0.7818608E-02  0.1093470E+00
         21   -1    0    0  501  502  0.00000000000E+00  0.00000000000E+00  0.91142573670E+00  0.91142573670E+00  0.00000000000E+00 0. -1.
         13   -1    0    0    0    0 -0.00000000000E+00 -0.00000000000E+00 -0.10000000000E+04  0.10000000000E+04  0.00000000000E+00 0.  1.
    9000005    2    1    2  501    0 -0.24186805282E+02 -0.10013996954E+02 -0.74371403334E+03  0.74419867219E+03  0.59848650002E+01 0.  0.
         13    1    3    3    0    0 -0.41745633606E+01  0.56820446329E+00 -0.12035194035E+03  0.12042565915E+03  0.00000000000E+00 0.  1.
          3    1    3    3  501    0 -0.20012241921E+02 -0.10582201417E+02 -0.62336209299E+03  0.62377301304E+03  0.00000000000E+00 0.  1.
         -1    1    1    2    0  502  0.24186805282E+02  0.10013996954E+02 -0.25537454092E+03  0.25671275355E+03  0.00000000000E+00 0. -1.
<mgrwt>
<rscale>  1 0.30000000E+03</rscale>
<asrwt>0</asrwt>
<pdfrwt beam="1">  1       21 0.33142824E-02 0.30000000E+03</pdfrwt>
<pdfrwt beam="2">0</pdfrwt>
<totfact> 0.57636773E+04</totfact>
</mgrwt>
</event>
<event>
 6    1  0.1132867E-002  0.3000000E+03  0.7818608E-02  0.1093470E+00
         21   -1    0    0  501  502  0.00000000000E+00  0.00000000000E+00  0.24522624419E+00  0.24522624419E+00  0.00000000000E+00 0. -1.
         13   -1    0    0    0    0 -0.00000000000E+00 -0.00000000000E+00 -0.10000000000E+04  0.10000000000E+04  0.00000000000E+00 0.  1.
    9000005    2    1    2  501    0  0.29142219975E-01 -0.13680134446E+02 -0.54217649057E+03  0.54246249157E+03  0.11093281733E+02 0.  0.
         13    1    3    3    0    0 -0.33691471538E+01 -0.76208474721E+01 -0.42407287344E+03  0.42415472466E+03  0.00000000000E+00 0.  1.
          1    1    3    3  501    0  0.33982893737E+01 -0.60592869738E+01 -0.11810361714E+03  0.11830776690E+03  0.00000000000E+00 0.  1.
         -3    1    1    2    0  502 -0.29142219975E-01  0.13680134446E+02 -0.45757828318E+03  0.45778273468E+03  0.00000000000E+00 0. -1.
<mgrwt>
<rscale>  1 0.30000000E+03</rscale>
<asrwt>0</asrwt>
<pdfrwt beam="1">  1       21 0.89173368E-03 0.30000000E+03</pdfrwt>
<pdfrwt beam="2">0</pdfrwt>
<totfact> 0.48450436E+05</totfact>
</mgrwt>
</event>
<event>
 6    1  0.1132867E-002  0.3000000E+03  0.7818608E-02  0.1093470E+00
         21   -1    0    0  501  502  0.00000000000E+00  0.00000000000E+00  0.21711035077E+00  0.21711035077E+00  0.00000000000E+00 0. -1.
         13   -1    0    0    0    0 -0.00000000000E+00 -0.00000000000E+00 -0.10000000000E+04  0.10000000000E+04  0.00000000000E+00 0.  1.
    9000005    2    1    2  501    0  0.12087113131E+02 -0.20593444835E+01 -0.75600152342E+03  0.75612759045E+03  0.63474740392E+01 0.  0.
         13    1    3    3    0    0  0.73602493735E+01 -0.39055180813E+01 -0.55239792716E+03  0.55246076446E+03  0.00000000000E+00 0.  1.
          3    1    3    3  501    0  0.47268637579E+01  0.18461735978E+01 -0.20360359626E+03  0.20366682599E+03  0.00000000000E+00 0.  1.
         -1    1    1    2    0  502 -0.12087113131E+02  0.20593444835E+01 -0.24378136623E+03  0.24408951990E+03  0.00000000000E+00 0. -1.
<mgrwt>
<rscale>  1 0.30000000E+03</rscale>
<asrwt>0</asrwt>
<pdfrwt beam="1">  1       21 0.78949385E-03 0.30000000E+03</pdfrwt>
<pdfrwt beam="2">0</pdfrwt>
<totfact> 0.58715637E+05</totfact>
</mgrwt>
</event>
<event>
 6    1  0.1132867E-002  0.3000000E+03  0.7818608E-02  0.1093470E+00
         21   -1    0    0  501  502  0.00000000000E+00  0.00000000000E+00  0.11361150193E+00  0.11361150193E+00  0.00000000000E+00 0. -1.
         13   -1    0    0    0    0 -0.00000000000E+00 -0.00000000000E+00 -0.10000000000E+04  0.10000000000E+04  0.00000000000E+00 0.  1.
    9000005    2    1    2  501    0 -0.80575562597E+01 -0.31948030565E+01 -0.59083391295E+03  0.59096931088E+03  0.92131824398E+01 0.  0.
         13    1    3    3    0    0 -0.70630329068E+01  0.18742007162E+01 -0.39322247131E+03  0.39329036475E+03  0.00000000000E+00 0.  1.
          1    1    3    3  501    0 -0.99452335298E+00 -0.50690037727E+01 -0.19761144164E+03  0.19767894613E+03  0.00000000000E+00 0.  1.
         -3    1    1    2    0  502  0.80575562597E+01  0.31948030565E+01 -0.40905247555E+03  0.40914430062E+03  0.00000000000E+00 0. -1.
<mgrwt>
<rscale>  1 0.30000000E+03</rscale>
<asrwt>0</asrwt>
<pdfrwt beam="1">  1       21 0.41313361E-03 0.30000000E+03</pdfrwt>
<pdfrwt beam="2">0</pdfrwt>
<totfact> 0.16111663E+06</totfact>
</mgrwt>
</event>
<event>
 6    1  0.1132867E-002  0.3000000E+03  0.7818608E-02  0.1093470E+00
         21   -1    0    0  501  502  0.00000000000E+00  0.00000000000E+00  0.11441976315E+01  0.11441976315E+01  0.00000000000E+00 0. -1.
         13   -1    0    0    0    0 -0.00000000000E+00 -0.00000000000E+00 -0.10000000000E+04  0.10000000000E+04  0.00000000000E+00 0.  1.
    9000005    2    1    2  501    0  0.16682056419E+02 -0.10397701498E+02 -0.90562389142E+03  0.90586254975E+03  0.67766611728E+01 0.  0.
         13    1    3    3    0    0  0.13697246922E+02 -0.11132529313E+02 -0.74316162642E+03  0.74337120657E+03  0.00000000000E+00 0.  1.
          1    1    3    3  501    0  0.29848094972E+01  0.73482781570E+00 -0.16246226500E+03  0.16249134318E+03  0.00000000000E+00 0.  1.
         -3    1    1    2    0  502 -0.16682056419E+02  0.10397701498E+02 -0.93231910951E+02  0.95281647878E+02  0.00000000000E+00 0. -1.
<mgrwt>
<rscale>  1 0.30000000E+03</rscale>
<asrwt>0</asrwt>
<pdfrwt beam="1">  1       21 0.41607274E-02 0.30000000E+03</pdfrwt>
<pdfrwt beam="2">0</pdfrwt>
<totfact> 0.39345538E+04</totfact>
</mgrwt>
</event>
<event>
 6    1  0.1132867E-002  0.3000000E+03  0.7818608E-02  0.1093470E+00
         21   -1    0    0  501  502  0.00000000000E+00  0.00000000000E+00  0.71941918530E+00  0.71941918530E+00  0.00000000000E+00 0. -1.
         13   -1    0    0    0    0 -0.00000000000E+00 -0.00000000000E+00 -0.10000000000E+04  0.10000000000E+04  0.00000000000E+00 0.  1.
    9000005    2    1    2  501    0 -0.12864851938E+02 -0.22126729225E+01 -0.92586767007E+03  0.92615497859E+03  0.19018453012E+02 0.  0.
         13    1    3    3    0    0 -0.86819856413E+01  0.75035435412E+01 -0.61581457692E+03  0.61592148297E+03  0.00000000000E+00 0.  1.
          3    1    3    3  501    0 -0.41828662963E+01 -0.97162164636E+01 -0.31005309315E+03  0.31023349562E+03  0.00000000000E+00 0.  1.
         -1    1    1    2    0  502  0.12864851938E+02  0.22126729225E+01 -0.73412910749E+02  0.74564440596E+02  0.00000000000E+00 0. -1.
<mgrwt>
<rscale>  1 0.30000000E+03</rscale>
<asrwt>0</asrwt>
<pdfrwt beam="1">  1       21 0.26160753E-02 0.30000000E+03</pdfrwt>
<pdfrwt beam="2">0</pdfrwt>
<totfact> 0.85343397E+04</totfact>
</mgrwt>
</event>
<event>
 6    1  0.1132867E-002  0.3000000E+03  0.7818608E-02  0.1093470E+00
         21   -1    0    0  501  502  0.00000000000E+00  0.00000000000E+00  0.17669483783E+00  0.17669483783E+00  0.00000000000E+00 0. -1.
         13   -1    0    0    0    0 -0.00000000000E+00 -0.00000000000E+00 -0.10000000000E+04  0.10000000000E+04  0.00000000000E+00 0.  1.
    9000005    2    1    2  501    0  0.32422446680E+01  0.94676730860E+01 -0.53673948433E+03  0.53698475395E+03  0.12775091192E+02 0.  0.
         13    1    3    3    0    0 -0.35931461561E+01  0.21457259753E+01 -0.30521450929E+03  0.30524320061E+03  0.00000000000E+00 0.  1.
          1    1    3    3  501    0  0.68353908241E+01  0.73219471107E+01 -0.23152497504E+03  0.23174155334E+03  0.00000000000E+00 0.  1.
         -1    1    1    2    0  502 -0.32422446680E+01 -0.94676730860E+01 -0.46308382083E+03  0.46319194089E+03  0.00000000000E+00 0. -1.
<mgrwt>
<rscale>  1 0.30000000E+03</rscale>
<asrwt>0</asrwt>
<pdfrwt beam="1">  1       21 0.64252804E-03 0.30000000E+03</pdfrwt>
<pdfrwt beam="2">0</pdfrwt>
<totfact> 0.81118567E+05</totfact>
</mgrwt>
</event>
<event>
 6    1  0.1132867E-002  0.3000000E+03  0.7818608E-02  0.1093470E+00
         21   -1    0    0  501  502  0.00000000000E+00  0.00000000000E+00  0.72291219839E+00  0.72291219839E+00  0.00000000000E+00 0. -1.
         13   -1    0    0    0    0 -0.00000000000E+00 -0.00000000000E+00 -0.10000000000E+04  0.10000000000E+04  0.00000000000E+00 0.  1.
    9000005    2    1    2  501    0  0.18381761947E+02  0.57822758294E+01 -0.77524420731E+03  0.77586283253E+03  0.24253454421E+02 0.  0.
         13    1    3    3    0    0 -0.30130904821E+01  0.14836077821E+01 -0.18395098764E+02  0.18699183534E+02  0.00000000000E+00 0.  1.
          3    1    3    3  501    0  0.21394852429E+02  0.42986680473E+01 -0.75684910854E+03  0.75716364899E+03  0.00000000000E+00 0.  1.
         -3    1    1    2    0  502 -0.18381761947E+02 -0.57822758294E+01 -0.22403288050E+03  0.22486007967E+03  0.00000000000E+00 0. -1.
<mgrwt>
<rscale>  1 0.30000000E+03</rscale>
<asrwt>0</asrwt>
<pdfrwt beam="1">  1       21 0.26287772E-02 0.30000000E+03</pdfrwt>
<pdfrwt beam="2">0</pdfrwt>
<totfact> 0.84664119E+04</totfact>
</mgrwt>
</event>
<event>
 6    1  0.1132867E-002  0.3000000E+03  0.7818608E-02  0.1093470E+00
         21   -1    0    0  501  502  0.00000000000E+00  0.00000000000E+00  0.11278414274E+01  0.11278414274E+01  0.00000000000E+00 0. -1.
         13   -1    0    0    0    0 -0.00000000000E+00 -0.00000000000E+00 -0.10000000000E+04  0.10000000000E+04  0.00000000000E+00 0.  1.
    9000005    2    1    2  501    0  0.13614281669E+02 -0.26447646609E+02 -0.31911353009E+03  0.32071868535E+03  0.11924905453E+02 0.  0.
         13    1    3    3    0    0  0.10423754076E+02 -0.26075034259E+02 -0.30226956746E+03  0.30357116706E+03  0.00000000000E+00 0.  1.
          3    1    3    3  501    0  0.31905275928E+01 -0.37261235022E+00 -0.16843962630E+02  0.17147518286E+02  0.00000000000E+00 0.  1.
         -1    1    1    2    0  502 -0.13614281669E+02  0.26447646609E+02 -0.67975862849E+03  0.68040915608E+03  0.00000000000E+00 0. -1.
<mgrwt>
<rscale>  1 0.30000000E+03</rscale>
<asrwt>0</asrwt>
<pdfrwt beam="1">  1       21 0.41012502E-02 0.30000000E+03</pdfrwt>
<pdfrwt beam="2">0</pdfrwt>
<totfact> 0.40312905E+04</totfact>
</mgrwt>
</event>
<event>
 6    1  0.1132867E-002  0.3000000E+03  0.7818608E-02  0.1093470E+00
         21   -1    0    0  501  502  0.00000000000E+00  0.00000000000E+00  0.77106153672E+00  0.77106153672E+00  0.00000000000E+00 0. -1.
         13   -1    0    0    0    0 -0.00000000000E+00 -0.00000000000E+00 -0.10000000000E+04  0.10000000000E+04  0.00000000000E+00 0.  1.
    9000005    2    1    2  501    0 -0.15665290677E+02  0.57421872357E+00 -0.91058101942E+03  0.91074781671E+03  0.76198193984E+01 0.  0.
         13    1    3    3    0    0 -0.57054635956E+01  0.26343278655E+01 -0.21308017062E+03  0.21317281982E+03  0.00000000000E+00 0.  1.
          1    1    3    3  501    0 -0.99598270813E+01 -0.20601091420E+01 -0.69750084880E+03  0.69757499689E+03  0.00000000000E+00 0.  1.
         -1    1    1    2    0  502  0.15665290677E+02 -0.57421872357E+00 -0.88647919039E+02  0.90023244826E+02  0.00000000000E+00 0. -1.
<mgrwt>
<rscale>  1 0.30000000E+03</rscale>
<asrwt>0</asrwt>
<pdfrwt beam="1">  1       21 0.28038660E-02 0.30000000E+03</pdfrwt>
<pdfrwt beam="2">0</pdfrwt>
<totfact> 0.76101930E+04</totfact>
</mgrwt>
</event>
<event>
 6    1  0.1132867E-002  0.3000000E+03  0.7818608E-02  0.1093470E+00
         21   -1    0    0  501  502  0.00000000000E+00  0.00000000000E+00  0.72270853133E+00  0.72270853133E+00  0.00000000000E+00 0. -1.
         13   -1    0    0    0    0 -0.00000000000E+00 -0.00000000000E+00 -0.10000000000E+04  0.10000000000E+04  0.00000000000E+00 0.  1.
    9000005    2    1    2  501    0 -0.54087212308E+01 -0.98211175102E+01 -0.95369326079E+03  0.95378005769E+03  0.63130158220E+01 0.  0.
         13    1    3    3    0    0 -0.13041240877E+01 -0.28096570448E+01 -0.52913428055E+03  0.52914334709E+03  0.00000000000E+00 0.  1.
          3    1    3    3  501    0 -0.41045971431E+01 -0.70114604654E+01 -0.42455898024E+03  0.42463671061E+03  0.00000000000E+00 0.  1.
         -1    1    1    2    0  502  0.54087212308E+01  0.98211175102E+01 -0.45584030684E+02  0.46942650840E+02  0.00000000000E+00 0. -1.
<mgrwt>
<rscale>  1 0.30000000E+03</rscale>
<asrwt>0</asrwt>
<pdfrwt beam="1">  1       21 0.26280366E-02 0.30000000E+03</pdfrwt>
<pdfrwt beam="2">0</pdfrwt>
<totfact> 0.84703492E+04</totfact>
</mgrwt>
</event>
<event>
 6    1  0.1132867E-002  0.3000000E+03  0.7818608E-02  0.1093470E+00
         21   -1    0    0  501  502  0.00000000000E+00  0.00000000000E+00  0.11838754395E+00  0.11838754395E+00  0.00000000000E+00 0. -1.
         13   -1    0    0    0    0 -0.00000000000E+00 -0.00000000000E+00 -0.10000000000E+04  0.10000000000E+04  0.00000000000E+00 0.  1.
    9000005    2    1    2  501    0  0.71485903927E+01 -0.54961418751E+01 -0.73766806992E+03  0.73774984558E+03  0.62724286976E+01 0.  0.
         13    1    3    3    0    0  0.63246184366E+01 -0.65746514660E+01 -0.53949941641E+03  0.53957654429E+03  0.00000000000E+00 0.  1.
          1    1    3    3  501    0  0.82397195603E+00  0.10785095909E+01 -0.19816865351E+03  0.19817330130E+03  0.00000000000E+00 0.  1.
         -1    1    1    2    0  502 -0.71485903927E+01  0.54961418751E+01 -0.26221354254E+03  0.26236854196E+03  0.00000000000E+00 0. -1.
<mgrwt>
<rscale>  1 0.30000000E+03</rscale>
<asrwt>0</asrwt>
<pdfrwt beam="1">  1       21 0.43050107E-03 0.30000000E+03</pdfrwt>
<pdfrwt beam="2">0</pdfrwt>
<totfact> 0.15118909E+06</totfact>
</mgrwt>
</event>
<event>
 6    1  0.1132867E-002  0.3000000E+03  0.7818608E-02  0.1093470E+00
         21   -1    0    0  501  502  0.00000000000E+00  0.00000000000E+00  0.15191236213E+00  0.15191236213E+00  0.00000000000E+00 0. -1.
         13   -1    0    0    0    0 -0.00000000000E+00 -0.00000000000E+00 -0.10000000000E+04  0.10000000000E+04  0.00000000000E+00 0.  1.
    9000005    2    1    2  501    0 -0.61865064853E+01 -0.64428148611E+01 -0.81304592644E+03  0.81313632437E+03  0.81988276496E+01 0.  0.
         13    1    3    3    0    0 -0.31096453708E+01 -0.64385573948E+01 -0.72740935733E+03  0.72744449825E+03  0.00000000000E+00 0.  1.
          3    1    3    3  501    0 -0.30768611145E+01 -0.42574662433E-02 -0.85636569119E+02  0.85691826115E+02  0.00000000000E+00 0.  1.
         -3    1    1    2    0  502  0.61865064853E+01  0.64428148611E+01 -0.18680216119E+03  0.18701558799E+03  0.00000000000E+00 0. -1.
<mgrwt>
<rscale>  1 0.30000000E+03</rscale>
<asrwt>0</asrwt>
<pdfrwt beam="1">  1       21 0.55240975E-03 0.30000000E+03</pdfrwt>
<pdfrwt beam="2">0</pdfrwt>
<totfact> 0.10269316E+06</totfact>
</mgrwt>
</event>
<event>
 6    1  0.1132867E-002  0.3000000E+03  0.7818608E-02  0.1093470E+00
         21   -1    0    0  501  502  0.00000000000E+00  0.00000000000E+00  0.17527194168E+00  0.17527194168E+00  0.00000000000E+00 0. -1.
         13   -1    0    0    0    0 -0.00000000000E+00 -0.00000000000E+00 -0.10000000000E+04  0.10000000000E+04  0.00000000000E+00 0.  1.
    9000005    2    1    2  501    0 -0.86131592812E+01 -0.55768483235E+01 -0.76148907738E+03  0.76161884228E+03  0.96103169833E+01 0.  0.
         13    1    3    3    0    0 -0.86258072069E+01 -0.58018554674E+01 -0.76108639779E+03  0.76115738910E+03  0.00000000000E+00 0.  1.
          3    1    3    3  501    0  0.12647925754E-01  0.22500714395E+00 -0.40267959075E+00  0.46145318035E+00  0.00000000000E+00 0.  1.
         -3    1    1    2    0  502  0.86131592812E+01  0.55768483235E+01 -0.23833565068E+03  0.23855642966E+03  0.00000000000E+00 0. -1.
<mgrwt>
<rscale>  1 0.30000000E+03</rscale>
<asrwt>0</asrwt>
<pdfrwt beam="1">  1       21 0.63735386E-03 0.30000000E+03</pdfrwt>
<pdfrwt beam="2">0</pdfrwt>
<totfact> 0.82151316E+05</totfact>
</mgrwt>
</event>
<event>
 6    1  0.1132867E-002  0.3000000E+03  0.7818608E-02  0.1093470E+00
         21   -1    0    0  501  502  0.00000000000E+00  0.00000000000E+00  0.14691789335E+00  0.14691789335E+00  0.00000000000E+00 0. -1.
         13   -1    0    0    0    0 -0.00000000000E+00 -0.00000000000E+00 -0.10000000000E+04  0.10000000000E+04  0.00000000000E+00 0.  1.
    9000005    2    1    2  501    0  0.86744959001E+01 -0.34749391761E+01 -0.58790432124E+03  0.58809218408E+03  0.11558717822E+02 0.  0.
         13    1    3    3    0    0  0.11385880478E+02 -0.18111004404E+01 -0.49220074284E+03  0.49233574886E+03  0.00000000000E+00 0.  1.
          3    1    3    3  501    0 -0.27113845775E+01 -0.16638387357E+01 -0.95703578403E+02  0.95756435213E+02  0.00000000000E+00 0.  1.
         -1    1    1    2    0  502 -0.86744959001E+01  0.34749391761E+01 -0.41194876087E+03  0.41205473382E+03  0.00000000000E+00 0. -1.
<mgrwt>
<rscale>  1 0.30000000E+03</rscale>
<asrwt>0</asrwt>
<pdfrwt beam="1">  1       21 0.53424801E-03 0.30000000E+03</pdfrwt>
<pdfrwt beam="2">0</pdfrwt>
<totfact> 0.10817512E+06</totfact>
</mgrwt>
</event>
<event>
 6    1  0.1132867E-002  0.3000000E+03  0.7818608E-02  0.1093470E+00
         21   -1    0    0  501  502  0.00000000000E+00  0.00000000000E+00  0.14924231120E+01  0.14924231120E+01  0.00000000000E+00 0. -1.
         13   -1    0    0    0    0 -0.00000000000E+00 -0.00000000000E+00 -0.10000000000E+04  0.10000000000E+04  0.00000000000E+00 0.  1.
    9000005    2    1    2  501    0 -0.32507785135E+02  0.33232169555E+01 -0.76393916350E+03  0.76465885196E+03  0.56845831896E+01 0.  0.
         13    1    3    3    0    0 -0.18467776665E+02 -0.30261933447E+00 -0.38609559169E+03  0.38653713441E+03  0.00000000000E+00 0.  1.
          3    1    3    3  501    0 -0.14040008470E+02  0.36258362900E+01 -0.37784357181E+03  0.37812171755E+03  0.00000000000E+00 0.  1.
         -3    1    1    2    0  502  0.32507785135E+02 -0.33232169555E+01 -0.23456841339E+03  0.23683357115E+03  0.00000000000E+00 0. -1.
<mgrwt>
<rscale>  1 0.30000000E+03</rscale>
<asrwt>0</asrwt>
<pdfrwt beam="1">  1       21 0.54270046E-02 0.30000000E+03</pdfrwt>
<pdfrwt beam="2">0</pdfrwt>
<totfact> 0.25041030E+04</totfact>
</mgrwt>
</event>
<event>
 6    1  0.1132867E-002  0.3000000E+03  0.7818608E-02  0.1093470E+00
         21   -1    0    0  501  502  0.00000000000E+00  0.00000000000E+00  0.58699541319E+00  0.58699541319E+00  0.00000000000E+00 0. -1.
         13   -1    0    0    0    0 -0.00000000000E+00 -0.00000000000E+00 -0.10000000000E+04  0.10000000000E+04  0.00000000000E+00 0.  1.
    9000005    2    1    2  501    0 -0.27225475450E+01 -0.10714916000E+02 -0.38815824762E+03  0.38923227056E+03  0.26696695622E+02 0.  0.
         13    1    3    3    0    0 -0.33337672748E+01  0.83034227220E+01 -0.82883425100E+02  0.83364998587E+02  0.00000000000E+00 0.  1.
          1    1    3    3  501    0  0.61121972981E+00 -0.19018338722E+02 -0.30527482252E+03  0.30586727197E+03  0.00000000000E+00 0.  1.
         -3    1    1    2    0  502  0.27225475450E+01  0.10714916000E+02 -0.61125475697E+03  0.61135472486E+03  0.00000000000E+00 0. -1.
<mgrwt>
<rscale>  1 0.30000000E+03</rscale>
<asrwt>0</asrwt>
<pdfrwt beam="1">  1       21 0.21345333E-02 0.30000000E+03</pdfrwt>
<pdfrwt beam="2">0</pdfrwt>
<totfact> 0.11919368E+05</totfact>
</mgrwt>
</event>
<event>
 6    1  0.1132867E-002  0.3000000E+03  0.7818608E-02  0.1093470E+00
         21   -1    0    0  501  502  0.00000000000E+00  0.00000000000E+00  0.23179927387E+00  0.23179927387E+00  0.00000000000E+00 0. -1.
         13   -1    0    0    0    0 -0.00000000000E+00 -0.00000000000E+00 -0.10000000000E+04  0.10000000000E+04  0.00000000000E+00 0.  1.
    9000005    2    1    2  501    0 -0.27131413891E+01 -0.87624679919E+01 -0.85836042116E+03  0.85852681664E+03  0.14196488796E+02 0.  0.
         13    1    3    3    0    0 -0.34218329705E+01 -0.10816108078E+02 -0.83190421634E+03  0.83198156367E+03  0.00000000000E+00 0.  1.
          3    1    3    3  501    0  0.70869158148E+00  0.20536400857E+01 -0.26456204826E+02  0.26545252969E+02  0.00000000000E+00 0.  1.
         -1    1    1    2    0  502  0.27131413891E+01  0.87624679919E+01 -0.14140777956E+03  0.14170498263E+03  0.00000000000E+00 0. -1.
<mgrwt>
<rscale>  1 0.30000000E+03</rscale>
<asrwt>0</asrwt>
<pdfrwt beam="1">  1       21 0.84290823E-03 0.30000000E+03</pdfrwt>
<pdfrwt beam="2">0</pdfrwt>
<totfact> 0.52956366E+05</totfact>
</mgrwt>
</event>
<event>
 6    1  0.1132867E-002  0.3000000E+03  0.7818608E-02  0.1093470E+00
         21   -1    0    0  501  502  0.00000000000E+00  0.00000000000E+00  0.22825810422E+00  0.22825810422E+00  0.00000000000E+00 0. -1.
         13   -1    0    0    0    0 -0.00000000000E+00 -0.00000000000E+00 -0.10000000000E+04  0.10000000000E+04  0.00000000000E+00 0.  1.
    9000005    2    1    2  501    0 -0.27144712251E+01  0.91093983487E+01 -0.87751076988E+03  0.87759834833E+03  0.79599151231E+01 0.  0.
         13    1    3    3    0    0 -0.64221371425E-01 -0.29540336136E+00 -0.13641413063E+01  0.13972362126E+01  0.00000000000E+00 0.  1.
          1    1    3    3  501    0 -0.26502498537E+01  0.94048017101E+01 -0.87614662857E+03  0.87620111212E+03  0.00000000000E+00 0.  1.
         -1    1    1    2    0  502  0.27144712251E+01 -0.91093983487E+01 -0.12226097202E+03  0.12262990978E+03  0.00000000000E+00 0. -1.
<mgrwt>
<rscale>  1 0.30000000E+03</rscale>
<asrwt>0</asrwt>
<pdfrwt beam="1">  1       21 0.83003122E-03 0.30000000E+03</pdfrwt>
<pdfrwt beam="2">0</pdfrwt>
<totfact> 0.54258493E+05</totfact>
</mgrwt>
</event>
<event>
 6    1  0.1132867E-002  0.3000000E+03  0.7818608E-02  0.1093470E+00
         21   -1    0    0  501  502  0.00000000000E+00  0.00000000000E+00  0.33755449488E+01  0.33755449488E+01  0.00000000000E+00 0. -1.
         13   -1    0    0    0    0 -0.00000000000E+00 -0.00000000000E+00 -0.10000000000E+04  0.10000000000E+04  0.00000000000E+00 0.  1.
    9000005    2    1    2  501    0  0.46671004079E+02  0.70328415821E+01 -0.21162595772E+03  0.21695944370E+03  0.76295969461E+01 0.  0.
         13    1    3    3    0    0  0.44757738908E+02  0.79735931630E+01 -0.20563158211E+03  0.21059720069E+03  0.00000000000E+00 0.  1.
          1    1    3    3  501    0  0.19132651713E+01 -0.94075158089E+00 -0.59943756111E+01  0.63622430101E+01  0.00000000000E+00 0.  1.
         -1    1    1    2    0  502 -0.46671004079E+02 -0.70328415821E+01 -0.78499849733E+03  0.78641610125E+03  0.00000000000E+00 0. -1.
<mgrwt>
<rscale>  1 0.30000000E+03</rscale>
<asrwt>0</asrwt>
<pdfrwt beam="1">  1       21 0.12274735E-01 0.30000000E+03</pdfrwt>
<pdfrwt beam="2">0</pdfrwt>
<totfact> 0.59473558E+03</totfact>
</mgrwt>
</event>
<event>
 6    1  0.1132867E-002  0.3000000E+03  0.7818608E-02  0.1093470E+00
         21   -1    0    0  501  502  0.00000000000E+00  0.00000000000E+00  0.36757566514E+00  0.36757566514E+00  0.00000000000E+00 0. -1.
         13   -1    0    0    0    0 -0.00000000000E+00 -0.00000000000E+00 -0.10000000000E+04  0.10000000000E+04  0.00000000000E+00 0.  1.
    9000005    2    1    2  501    0 -0.66516609972E+01  0.72669507767E+01 -0.92384124102E+03  0.92393880729E+03  0.91229289646E+01 0.  0.
         13    1    3    3    0    0 -0.79513491706E+01  0.38567476610E+01 -0.78453048896E+03  0.78458026139E+03  0.00000000000E+00 0.  1.
          3    1    3    3  501    0  0.12996881734E+01  0.34102031157E+01 -0.13931075206E+03  0.13935854590E+03  0.00000000000E+00 0.  1.
         -3    1    1    2    0  502  0.66516609972E+01 -0.72669507767E+01 -0.75791183311E+02  0.76428768375E+02  0.00000000000E+00 0. -1.
<mgrwt>
<rscale>  1 0.30000000E+03</rscale>
<asrwt>0</asrwt>
<pdfrwt beam="1">  1       21 0.13366416E-02 0.30000000E+03</pdfrwt>
<pdfrwt beam="2">0</pdfrwt>
<totfact> 0.25433581E+05</totfact>
</mgrwt>
</event>
<event>
 6    1  0.1132867E-002  0.3000000E+03  0.7818608E-02  0.1093470E+00
         21   -1    0    0  501  502  0.00000000000E+00  0.00000000000E+00  0.25358240544E+00  0.25358240544E+00  0.00000000000E+00 0. -1.
         13   -1    0    0    0    0 -0.00000000000E+00 -0.00000000000E+00 -0.10000000000E+04  0.10000000000E+04  0.00000000000E+00 0.  1.
    9000005    2    1    2  501    0 -0.92520881495E+01  0.72782923058E+01 -0.81220986519E+03  0.81234793278E+03  0.92587311870E+01 0.  0.
         13    1    3    3    0    0 -0.34190894067E+01  0.83701855235E+01 -0.49422972877E+03  0.49431242648E+03  0.00000000000E+00 0.  1.
          1    1    3    3  501    0 -0.58329987427E+01 -0.10918932178E+01 -0.31798013642E+03  0.31803550630E+03  0.00000000000E+00 0.  1.
         -3    1    1    2    0  502  0.92520881495E+01 -0.72782923058E+01 -0.18753655241E+03  0.18790564963E+03  0.00000000000E+00 0. -1.
<mgrwt>
<rscale>  1 0.30000000E+03</rscale>
<asrwt>0</asrwt>
<pdfrwt beam="1">  1       21 0.92211978E-03 0.30000000E+03</pdfrwt>
<pdfrwt beam="2">0</pdfrwt>
<totfact> 0.45950062E+05</totfact>
</mgrwt>
</event>
<event>
 6    1  0.1132867E-002  0.3000000E+03  0.7818608E-02  0.1093470E+00
         21   -1    0    0  501  502  0.00000000000E+00  0.00000000000E+00  0.47201531005E+00  0.47201531005E+00  0.00000000000E+00 0. -1.
         13   -1    0    0    0    0 -0.00000000000E+00 -0.00000000000E+00 -0.10000000000E+04  0.10000000000E+04  0.00000000000E+00 0.  1.
    9000005    2    1    2  501    0 -0.16409447158E+02  0.69966163006E+01 -0.66580731299E+03  0.66627490384E+03  0.17454135873E+02 0.  0.
         13    1    3    3    0    0 -0.14701996159E+02  0.60305748692E+01 -0.65897369077E+03  0.65916526126E+03  0.00000000000E+00 0.  1.
          3    1    3    3  501    0 -0.17074509990E+01  0.96604143137E+00 -0.68336222169E+01  0.71096425764E+01  0.00000000000E+00 0.  1.
         -3    1    1    2    0  502  0.16409447158E+02 -0.69966163006E+01 -0.33372067170E+03  0.33419711147E+03  0.00000000000E+00 0. -1.
<mgrwt>
<rscale>  1 0.30000000E+03</rscale>
<asrwt>0</asrwt>
<pdfrwt beam="1">  1       21 0.17164229E-02 0.30000000E+03</pdfrwt>
<pdfrwt beam="2">0</pdfrwt>
<totfact> 0.16995353E+05</totfact>
</mgrwt>
</event>
<event>
 6    1  0.1132867E-002  0.3000000E+03  0.7818608E-02  0.1093470E+00
         21   -1    0    0  501  502  0.00000000000E+00  0.00000000000E+00  0.32066156435E+00  0.32066156435E+00  0.00000000000E+00 0.  1.
         13   -1    0    0    0    0 -0.00000000000E+00 -0.00000000000E+00 -0.10000000000E+04  0.10000000000E+04  0.00000000000E+00 0.  1.
    9000005    2    1    2  501    0  0.12748203859E+02  0.34316295749E+01 -0.77832939413E+03  0.77857736262E+03  0.14552354873E+02 0.  0.
         13    1    3    3    0    0  0.14969915958E+02  0.24085065777E+01 -0.48320251022E+03  0.48344034293E+03  0.00000000000E+00 0.  1.
          1    1    3    3  501    0 -0.22217120985E+01  0.10231229972E+01 -0.29512688390E+03  0.29513701968E+03  0.00000000000E+00 0.  1.
         -1    1    1    2    0  502 -0.12748203859E+02 -0.34316295749E+01 -0.22134994431E+03  0.22174329895E+03  0.00000000000E+00 0. -1.
<mgrwt>
<rscale>  1 0.30000000E+03</rscale>
<asrwt>0</asrwt>
<pdfrwt beam="1">  1       21 0.11660445E-02 0.30000000E+03</pdfrwt>
<pdfrwt beam="2">0</pdfrwt>
<totfact> 0.31643901E+05</totfact>
</mgrwt>
</event>
<event>
 6    1  0.1132867E-002  0.3000000E+03  0.7818608E-02  0.1093470E+00
         21   -1    0    0  501  502  0.00000000000E+00  0.00000000000E+00  0.18589070244E+00  0.18589070244E+00  0.00000000000E+00 0. -1.
         13   -1    0    0    0    0 -0.00000000000E+00 -0.00000000000E+00 -0.10000000000E+04  0.10000000000E+04  0.00000000000E+00 0.  1.
    9000005    2    1    2  501    0 -0.19888590485E+01 -0.81608099421E+01 -0.72266604487E+03  0.72291056905E+03  0.16820346694E+02 0.  0.
         13    1    3    3    0    0 -0.83530016812E+01 -0.68571202461E+01 -0.57518563708E+03  0.57528715425E+03  0.00000000000E+00 0.  1.
          1    1    3    3  501    0  0.63641426327E+01 -0.13036896960E+01 -0.14748040778E+03  0.14762341480E+03  0.00000000000E+00 0.  1.
         -3    1    1    2    0  502  0.19888590485E+01  0.81608099421E+01 -0.27714806443E+03  0.27727532165E+03  0.00000000000E+00 0. -1.
<mgrwt>
<rscale>  1 0.30000000E+03</rscale>
<asrwt>0</asrwt>
<pdfrwt beam="1">  1       21 0.67596762E-03 0.30000000E+03</pdfrwt>
<pdfrwt beam="2">0</pdfrwt>
<totfact> 0.74924750E+05</totfact>
</mgrwt>
</event>
<event>
 6    1  0.1132867E-002  0.3000000E+03  0.7818608E-02  0.1093470E+00
         21   -1    0    0  501  502  0.00000000000E+00  0.00000000000E+00  0.37955948680E+00  0.37955948680E+00  0.00000000000E+00 0. -1.
         13   -1    0    0    0    0 -0.00000000000E+00 -0.00000000000E+00 -0.10000000000E+04  0.10000000000E+04  0.00000000000E+00 0.  1.
    9000005    2    1    2  501    0 -0.89176498855E+01  0.56003743150E+01 -0.89061136630E+03  0.89086304506E+03  0.18370372729E+02 0.  0.
         13    1    3    3    0    0 -0.12482378422E+02  0.39399150820E+01 -0.36123188125E+03  0.36146895403E+03  0.00000000000E+00 0.  1.
          1    1    3    3  501    0  0.35647285366E+01  0.16604592330E+01 -0.52937948506E+03  0.52939409103E+03  0.00000000000E+00 0.  1.
         -3    1    1    2    0  502  0.89176498855E+01 -0.56003743150E+01 -0.10900907421E+03  0.10951651443E+03  0.00000000000E+00 0. -1.
<mgrwt>
<rscale>  1 0.30000000E+03</rscale>
<asrwt>0</asrwt>
<pdfrwt beam="1">  1       21 0.13802192E-02 0.30000000E+03</pdfrwt>
<pdfrwt beam="2">0</pdfrwt>
<totfact> 0.24156580E+05</totfact>
</mgrwt>
</event>
<event>
 6    1  0.1132867E-002  0.3000000E+03  0.7818608E-02  0.1093470E+00
         21   -1    0    0  501  502  0.00000000000E+00  0.00000000000E+00  0.59686438447E+00  0.59686438447E+00  0.00000000000E+00 0. -1.
         13   -1    0    0    0    0 -0.00000000000E+00 -0.00000000000E+00 -0.10000000000E+04  0.10000000000E+04  0.00000000000E+00 0.  1.
    9000005    2    1    2  501    0 -0.12827471312E+02 -0.58198208313E+01 -0.90198918979E+03  0.90216977881E+03  0.11287025852E+02 0.  0.
         13    1    3    3    0    0  0.56330118908E+00  0.78236515501E+00 -0.82864997965E+01  0.83423906851E+01  0.00000000000E+00 0.  1.
          3    1    3    3  501    0 -0.13390772501E+02 -0.66021859863E+01 -0.89370269000E+03  0.89382738812E+03  0.00000000000E+00 0.  1.
         -3    1    1    2    0  502  0.12827471312E+02  0.58198208313E+01 -0.97413945821E+02  0.98427085577E+02  0.00000000000E+00 0. -1.
<mgrwt>
<rscale>  1 0.30000000E+03</rscale>
<asrwt>0</asrwt>
<pdfrwt beam="1">  1       21 0.21704205E-02 0.30000000E+03</pdfrwt>
<pdfrwt beam="2">0</pdfrwt>
<totfact> 0.11598476E+05</totfact>
</mgrwt>
</event>
<event>
 6    1  0.1132867E-002  0.3000000E+03  0.7818608E-02  0.1093470E+00
         21   -1    0    0  501  502  0.00000000000E+00  0.00000000000E+00  0.35452181242E+00  0.35452181242E+00  0.00000000000E+00 0. -1.
         13   -1    0    0    0    0 -0.00000000000E+00 -0.00000000000E+00 -0.10000000000E+04  0.10000000000E+04  0.00000000000E+00 0.  1.
    9000005    2    1    2  501    0  0.53165773898E+01 -0.14288711437E+02 -0.49945175393E+03  0.49992850824E+03  0.15621318167E+02 0.  0.
         13    1    3    3    0    0  0.60348156773E+01 -0.17406490250E+02 -0.44677887863E+03  0.44715855275E+03  0.00000000000E+00 0.  1.
          1    1    3    3  501    0 -0.71823828757E+00  0.31177788129E+01 -0.52672875297E+02  0.52769955496E+02  0.00000000000E+00 0.  1.
         -1    1    1    2    0  502 -0.53165773898E+01  0.14288711437E+02 -0.50019372426E+03  0.50042601357E+03  0.00000000000E+00 0. -1.
<mgrwt>
<rscale>  1 0.30000000E+03</rscale>
<asrwt>0</asrwt>
<pdfrwt beam="1">  1       21 0.12891729E-02 0.30000000E+03</pdfrwt>
<pdfrwt beam="2">0</pdfrwt>
<totfact> 0.26952341E+05</totfact>
</mgrwt>
</event>
<event>
 6    1  0.1132867E-002  0.3000000E+03  0.7818608E-02  0.1093470E+00
         21   -1    0    0  501  502  0.00000000000E+00  0.00000000000E+00  0.40047173977E+00  0.40047173977E+00  0.00000000000E+00 0. -1.
         13   -1    0    0    0    0 -0.00000000000E+00 -0.00000000000E+00 -0.10000000000E+04  0.10000000000E+04  0.00000000000E+00 0.  1.
    9000005    2    1    2  501    0 -0.66730975942E+01 -0.17313725556E+02 -0.65621858376E+03  0.65651856124E+03  0.70353574553E+01 0.  0.
         13    1    3    3    0    0 -0.56773282653E+01 -0.13316655698E+02 -0.39083023598E+03  0.39109824691E+03  0.00000000000E+00 0.  1.
          3    1    3    3  501    0 -0.99576932893E+00 -0.39970698583E+01 -0.26538834778E+03  0.26542031434E+03  0.00000000000E+00 0.  1.
         -3    1    1    2    0  502  0.66730975942E+01  0.17313725556E+02 -0.34338094450E+03  0.34388191050E+03  0.00000000000E+00 0. -1.
<mgrwt>
<rscale>  1 0.30000000E+03</rscale>
<asrwt>0</asrwt>
<pdfrwt beam="1">  1       21 0.14562639E-02 0.30000000E+03</pdfrwt>
<pdfrwt beam="2">0</pdfrwt>
<totfact> 0.22161179E+05</totfact>
</mgrwt>
</event>
<event>
 6    1  0.1132867E-002  0.3000000E+03  0.7818608E-02  0.1093470E+00
         21   -1    0    0  501  502  0.00000000000E+00  0.00000000000E+00  0.10866349229E+00  0.10866349229E+00  0.00000000000E+00 0. -1.
         13   -1    0    0    0    0 -0.00000000000E+00 -0.00000000000E+00 -0.10000000000E+04  0.10000000000E+04  0.00000000000E+00 0.  1.
    9000005    2    1    2  501    0  0.64927121195E+01 -0.60915236296E+01 -0.72793224350E+03  0.72800388544E+03  0.50044094586E+01 0.  0.
         13    1    3    3    0    0  0.29649052356E+01 -0.47084373602E+01 -0.56584168232E+03  0.56586903917E+03  0.00000000000E+00 0.  1.
          1    1    3    3  501    0  0.35278068839E+01 -0.13830862694E+01 -0.16209056118E+03  0.16213484626E+03  0.00000000000E+00 0.  1.
         -3    1    1    2    0  502 -0.64927121195E+01  0.60915236296E+01 -0.27195909301E+03  0.27210477806E+03  0.00000000000E+00 0. -1.
<mgrwt>
<rscale>  1 0.30000000E+03</rscale>
<asrwt>0</asrwt>
<pdfrwt beam="1">  1       21 0.39514081E-03 0.30000000E+03</pdfrwt>
<pdfrwt beam="2">0</pdfrwt>
<totfact> 0.17257619E+06</totfact>
</mgrwt>
</event>
<event>
 6    1  0.1132867E-002  0.3000000E+03  0.7818608E-02  0.1093470E+00
         21   -1    0    0  501  502  0.00000000000E+00  0.00000000000E+00  0.90499138037E+00  0.90499138037E+00  0.00000000000E+00 0. -1.
         13   -1    0    0    0    0 -0.00000000000E+00 -0.00000000000E+00 -0.10000000000E+04  0.10000000000E+04  0.00000000000E+00 0.  1.
    9000005    2    1    2  501    0  0.83103626281E+01 -0.25225113212E+02 -0.54614191259E+03  0.54717393044E+03  0.20565821085E+02 0.  0.
         13    1    3    3    0    0  0.14033589980E+02 -0.23625656472E+02 -0.42626113371E+03  0.42714595562E+03  0.00000000000E+00 0.  1.
          3    1    3    3  501    0 -0.57232273519E+01 -0.15994567404E+01 -0.11988077888E+03  0.12002797481E+03  0.00000000000E+00 0.  1.
         -3    1    1    2    0  502 -0.83103626281E+01  0.25225113212E+02 -0.45295309603E+03  0.45373106094E+03  0.00000000000E+00 0. -1.
<mgrwt>
<rscale>  1 0.30000000E+03</rscale>
<asrwt>0</asrwt>
<pdfrwt beam="1">  1       21 0.32908847E-02 0.30000000E+03</pdfrwt>
<pdfrwt beam="2">0</pdfrwt>
<totfact> 0.58321961E+04</totfact>
</mgrwt>
</event>
<event>
 6    1  0.1132867E-002  0.3000000E+03  0.7818608E-02  0.1093470E+00
         21   -1    0    0  501  502  0.00000000000E+00  0.00000000000E+00  0.32154029489E+00  0.32154029489E+00  0.00000000000E+00 0. -1.
         13   -1    0    0    0    0 -0.00000000000E+00 -0.00000000000E+00 -0.10000000000E+04  0.10000000000E+04  0.00000000000E+00 0.  1.
    9000005    2    1    2  501    0 -0.89209310050E+00  0.11500947422E+02 -0.86195797732E+03  0.86211879470E+03  0.12008075901E+02 0.  0.
         13    1    3    3    0    0 -0.42141411894E+00  0.12182371339E+02 -0.46438800744E+03  0.46454796224E+03  0.00000000000E+00 0.  1.
          1    1    3    3  501    0 -0.47067898156E+00 -0.68142391618E+00 -0.39756996988E+03  0.39757083247E+03  0.00000000000E+00 0.  1.
         -1    1    1    2    0  502  0.89209310050E+00 -0.11500947422E+02 -0.13772048238E+03  0.13820274559E+03  0.00000000000E+00 0. -1.
<mgrwt>
<rscale>  1 0.30000000E+03</rscale>
<asrwt>0</asrwt>
<pdfrwt beam="1">  1       21 0.11692399E-02 0.30000000E+03</pdfrwt>
<pdfrwt beam="2">0</pdfrwt>
<totfact> 0.31506048E+05</totfact>
</mgrwt>
</event>
<event>
 6    1  0.1132867E-002  0.3000000E+03  0.7818608E-02  0.1093470E+00
         21   -1    0    0  501  502  0.00000000000E+00  0.00000000000E+00  0.22512561445E+00  0.22512561445E+00  0.00000000000E+00 0. -1.
         13   -1    0    0    0    0 -0.00000000000E+00 -0.00000000000E+00 -0.10000000000E+04  0.10000000000E+04  0.00000000000E+00 0.  1.
    9000005    2    1    2  501    0 -0.31261283654E+01  0.12110168603E+02 -0.48194469993E+03  0.48224393055E+03  0.11492863047E+02 0.  0.
         13    1    3    3    0    0  0.13778646413E+00 -0.15231433134E+01 -0.14459201959E+03  0.14460010747E+03  0.00000000000E+00 0.  1.
          1    1    3    3  501    0 -0.32639148295E+01  0.13633311916E+02 -0.33735268034E+03  0.33764382309E+03  0.00000000000E+00 0.  1.
         -1    1    1    2    0  502  0.31261283654E+01 -0.12110168603E+02 -0.51783017445E+03  0.51798119506E+03  0.00000000000E+00 0. -1.
<mgrwt>
<rscale>  1 0.30000000E+03</rscale>
<asrwt>0</asrwt>
<pdfrwt beam="1">  1       21 0.81864032E-03 0.30000000E+03</pdfrwt>
<pdfrwt beam="2">0</pdfrwt>
<totfact> 0.55454178E+05</totfact>
</mgrwt>
</event>
<event>
 6    1  0.1132867E-002  0.3000000E+03  0.7818608E-02  0.1093470E+00
         21   -1    0    0  501  502  0.00000000000E+00  0.00000000000E+00  0.16617942633E+00  0.16617942633E+00  0.00000000000E+00 0. -1.
         13   -1    0    0    0    0 -0.00000000000E+00 -0.00000000000E+00 -0.10000000000E+04  0.10000000000E+04  0.00000000000E+00 0.  1.
    9000005    2    1    2  501    0 -0.12465733565E+01  0.89496031824E+01 -0.66997342664E+03  0.67018204522E+03  0.14068830385E+02 0.  0.
         13    1    3    3    0    0 -0.12603363724E+01  0.11011069455E+02 -0.30268958761E+03  0.30289242074E+03  0.00000000000E+00 0.  1.
          1    1    3    3  501    0  0.13763015919E-01 -0.20614662724E+01 -0.36728383903E+03  0.36728962447E+03  0.00000000000E+00 0.  1.
         -3    1    1    2    0  502  0.12465733565E+01 -0.89496031824E+01 -0.32986039393E+03  0.32998413421E+03  0.00000000000E+00 0. -1.
<mgrwt>
<rscale>  1 0.30000000E+03</rscale>
<asrwt>0</asrwt>
<pdfrwt beam="1">  1       21 0.60429010E-03 0.30000000E+03</pdfrwt>
<pdfrwt beam="2">0</pdfrwt>
<totfact> 0.89284916E+05</totfact>
</mgrwt>
</event>
<event>
 6    1  0.1132867E-002  0.3000000E+03  0.7818608E-02  0.1093470E+00
         21   -1    0    0  501  502  0.00000000000E+00  0.00000000000E+00  0.79396370383E+00  0.79396370383E+00  0.00000000000E+00 0. -1.
         13   -1    0    0    0    0 -0.00000000000E+00 -0.00000000000E+00 -0.10000000000E+04  0.10000000000E+04  0.00000000000E+00 0.  1.
    9000005    2    1    2  501    0 -0.10942062295E+02 -0.23208036980E+02 -0.69885031117E+03  0.69934429407E+03  0.56870479857E+01 0.  0.
         13    1    3    3    0    0 -0.97952300577E+01 -0.17122533081E+02 -0.57646258317E+03  0.57679999780E+03  0.00000000000E+00 0.  1.
          3    1    3    3  501    0 -0.11468322375E+01 -0.60855038990E+01 -0.12238772800E+03  0.12254429626E+03  0.00000000000E+00 0.  1.
         -1    1    1    2    0  502  0.10942062295E+02  0.23208036980E+02 -0.30035572513E+03  0.30144966964E+03  0.00000000000E+00 0. -1.
<mgrwt>
<rscale>  1 0.30000000E+03</rscale>
<asrwt>0</asrwt>
<pdfrwt beam="1">  1       21 0.28871468E-02 0.30000000E+03</pdfrwt>
<pdfrwt beam="2">0</pdfrwt>
<totfact> 0.72498621E+04</totfact>
</mgrwt>
</event>
<event>
 6    1  0.1132867E-002  0.3000000E+03  0.7818608E-02  0.1093470E+00
         21   -1    0    0  501  502  0.00000000000E+00  0.00000000000E+00  0.14107569931E+00  0.14107569931E+00  0.00000000000E+00 0. -1.
         13   -1    0    0    0    0 -0.00000000000E+00 -0.00000000000E+00 -0.10000000000E+04  0.10000000000E+04  0.00000000000E+00 0.  1.
    9000005    2    1    2  501    0  0.52813761093E+01 -0.73816415818E+01 -0.79059564416E+03  0.79068105092E+03  0.72574203623E+01 0.  0.
         13    1    3    3    0    0  0.21389911793E+01 -0.68680331601E+01 -0.68409641044E+03  0.68413422948E+03  0.00000000000E+00 0.  1.
          3    1    3    3  501    0  0.31423849300E+01 -0.51360842176E+00 -0.10649923372E+03  0.10654682144E+03  0.00000000000E+00 0.  1.
         -1    1    1    2    0  502 -0.52813761093E+01  0.73816415818E+01 -0.20926328014E+03  0.20946002478E+03  0.00000000000E+00 0. -1.
<mgrwt>
<rscale>  1 0.30000000E+03</rscale>
<asrwt>0</asrwt>
<pdfrwt beam="1">  1       21 0.51300362E-03 0.30000000E+03</pdfrwt>
<pdfrwt beam="2">0</pdfrwt>
<totfact> 0.11521750E+06</totfact>
</mgrwt>
</event>
<event>
 6    1  0.1132867E-002  0.3000000E+03  0.7818608E-02  0.1093470E+00
         21   -1    0    0  501  502  0.00000000000E+00  0.00000000000E+00  0.16797149571E+00  0.16797149571E+00  0.00000000000E+00 0. -1.
         13   -1    0    0    0    0 -0.00000000000E+00 -0.00000000000E+00 -0.10000000000E+04  0.10000000000E+04  0.00000000000E+00 0.  1.
    9000005    2    1    2  501    0 -0.85452912221E+01 -0.37528514602E+01 -0.70830382515E+03  0.70849041109E+03  0.13313451136E+02 0.  0.
         13    1    3    3    0    0 -0.13731158326E+01 -0.76323472186E+01 -0.41871655945E+03  0.41878836580E+03  0.00000000000E+00 0.  1.
          3    1    3    3  501    0 -0.71721753895E+01  0.38794957584E+01 -0.28958726570E+03  0.28970204529E+03  0.00000000000E+00 0.  1.
         -1    1    1    2    0  502  0.85452912221E+01  0.37528514602E+01 -0.29152820335E+03  0.29167756041E+03  0.00000000000E+00 0. -1.
<mgrwt>
<rscale>  1 0.30000000E+03</rscale>
<asrwt>0</asrwt>
<pdfrwt beam="1">  1       21 0.61080673E-03 0.30000000E+03</pdfrwt>
<pdfrwt beam="2">0</pdfrwt>
<totfact> 0.87801768E+05</totfact>
</mgrwt>
</event>
<event>
 6    1  0.1132867E-002  0.3000000E+03  0.7818608E-02  0.1093470E+00
         21   -1    0    0  501  502  0.00000000000E+00  0.00000000000E+00  0.43434183467E+00  0.43434183467E+00  0.00000000000E+00 0. -1.
         13   -1    0    0    0    0 -0.00000000000E+00 -0.00000000000E+00 -0.10000000000E+04  0.10000000000E+04  0.00000000000E+00 0.  1.
    9000005    2    1    2  501    0 -0.16558545184E+02  0.13747736064E+01 -0.77495688289E+03  0.77521183551E+03  0.10915317994E+02 0.  0.
         13    1    3    3    0    0 -0.66401748770E+01  0.22857342744E+01 -0.13928106280E+03  0.13945798994E+03  0.00000000000E+00 0.  1.
          3    1    3    3  501    0 -0.99183703066E+01 -0.91096066792E+00 -0.63567582008E+03  0.63575384557E+03  0.00000000000E+00 0.  1.
         -1    1    1    2    0  502  0.16558545184E+02 -0.13747736064E+01 -0.22460877528E+03  0.22522250632E+03  0.00000000000E+00 0. -1.
<mgrwt>
<rscale>  1 0.30000000E+03</rscale>
<asrwt>0</asrwt>
<pdfrwt beam="1">  1       21 0.15794282E-02 0.30000000E+03</pdfrwt>
<pdfrwt beam="2">0</pdfrwt>
<totfact> 0.19443515E+05</totfact>
</mgrwt>
</event>
<event>
 6    1  0.1132867E-002  0.3000000E+03  0.7818608E-02  0.1093470E+00
         21   -1    0    0  501  502  0.00000000000E+00  0.00000000000E+00  0.30374721924E+00  0.30374721924E+00  0.00000000000E+00 0. -1.
         13   -1    0    0    0    0 -0.00000000000E+00 -0.00000000000E+00 -0.10000000000E+04  0.10000000000E+04  0.00000000000E+00 0.  1.
    9000005    2    1    2  501    0 -0.10080714097E+02 -0.83884938589E+01 -0.21628802733E+03  0.21678576062E+03  0.66005767861E+01 0.  0.
         13    1    3    3    0    0 -0.10638133191E+01 -0.48881014670E+01 -0.76883579826E+02  0.77046155528E+02  0.00000000000E+00 0.  1.
          3    1    3    3  501    0 -0.90169007775E+01 -0.35003923918E+01 -0.13940444751E+03  0.13973960509E+03  0.00000000000E+00 0.  1.
         -1    1    1    2    0  502  0.10080714097E+02  0.83884938589E+01 -0.78340822545E+03  0.78351798660E+03  0.00000000000E+00 0. -1.
<mgrwt>
<rscale>  1 0.30000000E+03</rscale>
<asrwt>0</asrwt>
<pdfrwt beam="1">  1       21 0.11045377E-02 0.30000000E+03</pdfrwt>
<pdfrwt beam="2">0</pdfrwt>
<totfact> 0.34498592E+05</totfact>
</mgrwt>
</event>
<event>
 6    1  0.1132867E-002  0.3000000E+03  0.7818608E-02  0.1093470E+00
         21   -1    0    0  501  502  0.00000000000E+00  0.00000000000E+00  0.38641286524E+00  0.38641286524E+00  0.00000000000E+00 0. -1.
         13   -1    0    0    0    0 -0.00000000000E+00 -0.00000000000E+00 -0.10000000000E+04  0.10000000000E+04  0.00000000000E+00 0.  1.
    9000005    2    1    2  501    0 -0.89696140531E+01 -0.11893310835E+01 -0.58783512689E+03  0.58850855621E+03  0.26651751109E+02 0.  0.
         13    1    3    3    0    0  0.22167527509E+01  0.32897651064E+00 -0.41680755503E+01  0.47323431930E+01  0.00000000000E+00 0.  1.
          3    1    3    3  501    0 -0.11186366804E+02 -0.15183075942E+01 -0.58366705134E+03  0.58377621301E+03  0.00000000000E+00 0.  1.
         -3    1    1    2    0  502  0.89696140531E+01  0.11893310835E+01 -0.41177846024E+03  0.41187785666E+03  0.00000000000E+00 0. -1.
<mgrwt>
<rscale>  1 0.30000000E+03</rscale>
<asrwt>0</asrwt>
<pdfrwt beam="1">  1       21 0.14051407E-02 0.30000000E+03</pdfrwt>
<pdfrwt beam="2">0</pdfrwt>
<totfact> 0.23471926E+05</totfact>
</mgrwt>
</event>
<event>
 6    1  0.1132867E-002  0.3000000E+03  0.7818608E-02  0.1093470E+00
         21   -1    0    0  501  502  0.00000000000E+00  0.00000000000E+00  0.21409592364E+00  0.21409592364E+00  0.00000000000E+00 0. -1.
         13   -1    0    0    0    0 -0.00000000000E+00 -0.00000000000E+00 -0.10000000000E+04  0.10000000000E+04  0.00000000000E+00 0.  1.
    9000005    2    1    2  501    0  0.71410766597E+01 -0.98727960813E+01 -0.77042656685E+03  0.77053133068E+03  0.36013287285E+01 0.  0.
         13    1    3    3    0    0  0.14610654009E+01 -0.37837754315E+00 -0.61950841876E+02  0.61969223739E+02  0.00000000000E+00 0.  1.
          3    1    3    3  501    0  0.56800112588E+01 -0.94944185381E+01 -0.70847572498E+03  0.70856210694E+03  0.00000000000E+00 0.  1.
         -1    1    1    2    0  502 -0.71410766597E+01  0.98727960813E+01 -0.22935933722E+03  0.22968276524E+03  0.00000000000E+00 0. -1.
<mgrwt>
<rscale>  1 0.30000000E+03</rscale>
<asrwt>0</asrwt>
<pdfrwt beam="1">  1       21 0.77853227E-03 0.30000000E+03</pdfrwt>
<pdfrwt beam="2">0</pdfrwt>
<totfact> 0.60022631E+05</totfact>
</mgrwt>
</event>
<event>
 6    1  0.1132867E-002  0.3000000E+03  0.7818608E-02  0.1093470E+00
         21   -1    0    0  501  502  0.00000000000E+00  0.00000000000E+00  0.16553398494E+00  0.16553398494E+00  0.00000000000E+00 0. -1.
         13   -1    0    0    0    0 -0.00000000000E+00 -0.00000000000E+00 -0.10000000000E+04  0.10000000000E+04  0.00000000000E+00 0.  1.
    9000005    2    1    2  501    0 -0.24403900427E+01  0.85565443884E+01 -0.53243707856E+03  0.53268346186E+03  0.13537280436E+02 0.  0.
         13    1    3    3    0    0  0.27796882858E+01  0.45009496296E+00 -0.25552050522E+02  0.25706741107E+02  0.00000000000E+00 0.  1.
          3    1    3    3  501    0 -0.52200783285E+01  0.81064494255E+01 -0.50688502803E+03  0.50697672075E+03  0.00000000000E+00 0.  1.
         -1    1    1    2    0  502  0.24403900427E+01 -0.85565443884E+01 -0.46739738746E+03  0.46748207213E+03  0.00000000000E+00 0. -1.
<mgrwt>
<rscale>  1 0.30000000E+03</rscale>
<asrwt>0</asrwt>
<pdfrwt beam="1">  1       21 0.60194303E-03 0.30000000E+03</pdfrwt>
<pdfrwt beam="2">0</pdfrwt>
<totfact> 0.89829014E+05</totfact>
</mgrwt>
</event>
<event>
 6    1  0.1132867E-002  0.3000000E+03  0.7818608E-02  0.1093470E+00
         21   -1    0    0  501  502  0.00000000000E+00  0.00000000000E+00  0.27052757305E+00  0.27052757305E+00  0.00000000000E+00 0. -1.
         13   -1    0    0    0    0 -0.00000000000E+00 -0.00000000000E+00 -0.10000000000E+04  0.10000000000E+04  0.00000000000E+00 0.  1.
    9000005    2    1    2  501    0 -0.22424710823E+01 -0.99804246309E+01 -0.88149303222E+03  0.88159241946E+03  0.84018239314E+01 0.  0.
         13    1    3    3    0    0 -0.98480172675E+00 -0.11285562467E+02 -0.79219804741E+03  0.79227904180E+03  0.00000000000E+00 0.  1.
          3    1    3    3  501    0 -0.12576693555E+01  0.13051378359E+01 -0.89294984812E+02  0.89313377663E+02  0.00000000000E+00 0.  1.
         -1    1    1    2    0  502  0.22424710823E+01  0.99804246309E+01 -0.11823644020E+03  0.11867810811E+03  0.00000000000E+00 0. -1.
<mgrwt>
<rscale>  1 0.30000000E+03</rscale>
<asrwt>0</asrwt>
<pdfrwt beam="1">  1       21 0.98373870E-03 0.30000000E+03</pdfrwt>
<pdfrwt beam="2">0</pdfrwt>
<totfact> 0.41474607E+05</totfact>
</mgrwt>
</event>
<event>
 6    1  0.1132867E-002  0.3000000E+03  0.7818608E-02  0.1093470E+00
         21   -1    0    0  501  502  0.00000000000E+00  0.00000000000E+00  0.34576029423E+00  0.34576029423E+00  0.00000000000E+00 0. -1.
         13   -1    0    0    0    0 -0.00000000000E+00 -0.00000000000E+00 -0.10000000000E+04  0.10000000000E+04  0.00000000000E+00 0.  1.
    9000005    2    1    2  501    0  0.14900063019E+02 -0.61439938725E+00 -0.79364427917E+03  0.79379675109E+03  0.44329236739E+01 0.  0.
         13    1    3    3    0    0 -0.23119405319E+00  0.31187761777E+00 -0.24722358220E+02  0.24725406251E+02  0.00000000000E+00 0.  1.
          3    1    3    3  501    0  0.15131257072E+02 -0.92627700503E+00 -0.76892192095E+03  0.76907134483E+03  0.00000000000E+00 0.  1.
         -1    1    1    2    0  502 -0.14900063019E+02  0.61439938725E+00 -0.20600996054E+03  0.20654900921E+03  0.00000000000E+00 0. -1.
<mgrwt>
<rscale>  1 0.30000000E+03</rscale>
<asrwt>0</asrwt>
<pdfrwt beam="1">  1       21 0.12573128E-02 0.30000000E+03</pdfrwt>
<pdfrwt beam="2">0</pdfrwt>
<totfact> 0.28054360E+05</totfact>
</mgrwt>
</event>
<event>
 6    1  0.1132867E-002  0.3000000E+03  0.7818608E-02  0.1093470E+00
         21   -1    0    0  501  502  0.00000000000E+00  0.00000000000E+00  0.10139654765E+00  0.10139654765E+00  0.00000000000E+00 0. -1.
         13   -1    0    0    0    0 -0.00000000000E+00 -0.00000000000E+00 -0.10000000000E+04  0.10000000000E+04  0.00000000000E+00 0.  1.
    9000005    2    1    2  501    0 -0.27106684097E+01  0.69382707243E+01 -0.60193692548E+03  0.60207001028E+03  0.10234631986E+02 0.  0.
         13    1    3    3    0    0  0.49204471524E+00 -0.41338304335E+00 -0.35936452006E+03  0.35936509468E+03  0.00000000000E+00 0.  1.
          1    1    3    3  501    0 -0.32027131250E+01  0.73516537677E+01 -0.24257240542E+03  0.24270491560E+03  0.00000000000E+00 0.  1.
         -1    1    1    2    0  502  0.27106684097E+01 -0.69382707243E+01 -0.39796167797E+03  0.39803138627E+03  0.00000000000E+00 0. -1.
<mgrwt>
<rscale>  1 0.30000000E+03</rscale>
<asrwt>0</asrwt>
<pdfrwt beam="1">  1       21 0.36871550E-03 0.30000000E+03</pdfrwt>
<pdfrwt beam="2">0</pdfrwt>
<totfact> 0.19200419E+06</totfact>
</mgrwt>
</event>
<event>
 6    1  0.1132867E-002  0.3000000E+03  0.7818608E-02  0.1093470E+00
         21   -1    0    0  501  502  0.00000000000E+00  0.00000000000E+00  0.27921545271E+00  0.27921545271E+00  0.00000000000E+00 0. -1.
         13   -1    0    0    0    0 -0.00000000000E+00 -0.00000000000E+00 -0.10000000000E+04  0.10000000000E+04  0.00000000000E+00 0.  1.
    9000005    2    1    2  501    0  0.10180655987E+02  0.31782381351E+01 -0.87718254928E+03  0.87727772743E+03  0.72965282994E+01 0.  0.
         13    1    3    3    0    0  0.79467102545E+01  0.51468510686E+01 -0.54865402757E+03  0.54873571257E+03  0.00000000000E+00 0.  1.
          1    1    3    3  501    0  0.22339457324E+01 -0.19686129335E+01 -0.32852852171E+03  0.32854201486E+03  0.00000000000E+00 0.  1.
         -1    1    1    2    0  502 -0.10180655987E+02 -0.31782381351E+01 -0.12253823527E+03  0.12300148803E+03  0.00000000000E+00 0. -1.
<mgrwt>
<rscale>  1 0.30000000E+03</rscale>
<asrwt>0</asrwt>
<pdfrwt beam="1">  1       21 0.10153311E-02 0.30000000E+03</pdfrwt>
<pdfrwt beam="2">0</pdfrwt>
<totfact> 0.39444642E+05</totfact>
</mgrwt>
</event>
<event>
 6    1  0.1132867E-002  0.3000000E+03  0.7818608E-02  0.1093470E+00
         21   -1    0    0  501  502  0.00000000000E+00  0.00000000000E+00  0.49585871104E+00  0.49585871104E+00  0.00000000000E+00 0. -1.
         13   -1    0    0    0    0 -0.00000000000E+00 -0.00000000000E+00 -0.10000000000E+04  0.10000000000E+04  0.00000000000E+00 0.  1.
    9000005    2    1    2  501    0 -0.59960531253E+01 -0.12876572939E+02 -0.81450493391E+03  0.81495215627E+03  0.22955846006E+02 0.  0.
         13    1    3    3    0    0 -0.34226473424E+01 -0.19547326774E+02 -0.59690347753E+03  0.59723326597E+03  0.00000000000E+00 0.  1.
          3    1    3    3  501    0 -0.25734057830E+01  0.66707538350E+01 -0.21760145638E+03  0.21771889030E+03  0.00000000000E+00 0.  1.
         -1    1    1    2    0  502  0.59960531253E+01  0.12876572939E+02 -0.18499920738E+03  0.18554370244E+03  0.00000000000E+00 0. -1.
<mgrwt>
<rscale>  1 0.30000000E+03</rscale>
<asrwt>0</asrwt>
<pdfrwt beam="1">  1       21 0.18031264E-02 0.30000000E+03</pdfrwt>
<pdfrwt beam="2">0</pdfrwt>
<totfact> 0.15689670E+05</totfact>
</mgrwt>
</event>
<event>
 6    1  0.1132867E-002  0.3000000E+03  0.7818608E-02  0.1093470E+00
         21   -1    0    0  501  502  0.00000000000E+00  0.00000000000E+00  0.22239192358E+00  0.22239192358E+00  0.00000000000E+00 0. -1.
         13   -1    0    0    0    0 -0.00000000000E+00 -0.00000000000E+00 -0.10000000000E+04  0.10000000000E+04  0.00000000000E+00 0.  1.
    9000005    2    1    2  501    0  0.94656219628E+01  0.24719059070E+01 -0.81114446399E+03  0.81133572917E+03  0.14649766194E+02 0.  0.
         13    1    3    3    0    0  0.75223450873E+01 -0.46777980088E+01 -0.59152809310E+03  0.59159441545E+03  0.00000000000E+00 0.  1.
          3    1    3    3  501    0  0.19432768756E+01  0.71497039158E+01 -0.21961637089E+03  0.21974131372E+03  0.00000000000E+00 0.  1.
         -3    1    1    2    0  502 -0.94656219628E+01 -0.24719059070E+01 -0.18863314409E+03  0.18888666276E+03  0.00000000000E+00 0. -1.
<mgrwt>
<rscale>  1 0.30000000E+03</rscale>
<asrwt>0</asrwt>
<pdfrwt beam="1">  1       21 0.80869961E-03 0.30000000E+03</pdfrwt>
<pdfrwt beam="2">0</pdfrwt>
<totfact> 0.56532976E+05</totfact>
</mgrwt>
</event>
<event>
 6    1  0.1132867E-002  0.3000000E+03  0.7818608E-02  0.1093470E+00
         21   -1    0    0  501  502  0.00000000000E+00  0.00000000000E+00  0.22311024462E+00  0.22311024462E+00  0.00000000000E+00 0. -1.
         13   -1    0    0    0    0 -0.00000000000E+00 -0.00000000000E+00 -0.10000000000E+04  0.10000000000E+04  0.00000000000E+00 0.  1.
    9000005    2    1    2  501    0  0.78136529016E+01  0.54937388309E+01 -0.86375725527E+03  0.86386851625E+03  0.10049029691E+02 0.  0.
         13    1    3    3    0    0  0.10054539712E+01 -0.25147852763E+01 -0.30770974586E+03  0.30772166446E+03  0.00000000000E+00 0.  1.
          1    1    3    3  501    0  0.68081989304E+01  0.80085241073E+01 -0.55604750941E+03  0.55614685179E+03  0.00000000000E+00 0.  1.
         -1    1    1    2    0  502 -0.78136529016E+01 -0.54937388309E+01 -0.13601963449E+03  0.13635459400E+03  0.00000000000E+00 0. -1.
<mgrwt>
<rscale>  1 0.30000000E+03</rscale>
<asrwt>0</asrwt>
<pdfrwt beam="1">  1       21 0.81131169E-03 0.30000000E+03</pdfrwt>
<pdfrwt beam="2">0</pdfrwt>
<totfact> 0.56246226E+05</totfact>
</mgrwt>
</event>
<event>
 6    1  0.1132867E-002  0.3000000E+03  0.7818608E-02  0.1093470E+00
         21   -1    0    0  501  502  0.00000000000E+00  0.00000000000E+00  0.25175067017E+00  0.25175067017E+00  0.00000000000E+00 0.  1.
         13   -1    0    0    0    0 -0.00000000000E+00 -0.00000000000E+00 -0.10000000000E+04  0.10000000000E+04  0.00000000000E+00 0.  1.
    9000005    2    1    2  501    0  0.86754365852E+01 -0.35025402934E+01 -0.83289341113E+03  0.83313482149E+03  0.17738812933E+02 0.  0.
         13    1    3    3    0    0  0.98734068312E+01 -0.41999869884E+01 -0.23993187841E+03  0.24017166846E+03  0.00000000000E+00 0.  1.
          3    1    3    3  501    0 -0.11979702459E+01  0.69744669496E+00 -0.59296153272E+03  0.59296315303E+03  0.00000000000E+00 0.  1.
         -1    1    1    2    0  502 -0.86754365852E+01  0.35025402934E+01 -0.16685483820E+03  0.16711692918E+03  0.00000000000E+00 0. -1.
<mgrwt>
<rscale>  1 0.30000000E+03</rscale>
<asrwt>0</asrwt>
<pdfrwt beam="1">  1       21 0.91545891E-03 0.30000000E+03</pdfrwt>
<pdfrwt beam="2">0</pdfrwt>
<totfact> 0.46480096E+05</totfact>
</mgrwt>
</event>
<event>
 6    1  0.1132867E-002  0.3000000E+03  0.7818608E-02  0.1093470E+00
         21   -1    0    0  501  502  0.00000000000E+00  0.00000000000E+00  0.25365274155E+00  0.25365274155E+00  0.00000000000E+00 0. -1.
         13   -1    0    0    0    0 -0.00000000000E+00 -0.00000000000E+00 -0.10000000000E+04  0.10000000000E+04  0.00000000000E+00 0.  1.
    9000005    2    1    2  501    0 -0.11555950617E+01  0.14189646338E+02 -0.71282459057E+03  0.71297891329E+03  0.41656233991E+01 0.  0.
         13    1    3    3    0    0  0.12761385609E+01  0.85915906778E+01 -0.44538242655E+03  0.44546711421E+03  0.00000000000E+00 0.  1.
          3    1    3    3  501    0 -0.24317336226E+01  0.55980556598E+01 -0.26744216402E+03  0.26751179908E+03  0.00000000000E+00 0.  1.
         -3    1    1    2    0  502  0.11555950617E+01 -0.14189646338E+02 -0.28692175669E+03  0.28727473945E+03  0.00000000000E+00 0. -1.
<mgrwt>
<rscale>  1 0.30000000E+03</rscale>
<asrwt>0</asrwt>
<pdfrwt beam="1">  1       21 0.92237555E-03 0.30000000E+03</pdfrwt>
<pdfrwt beam="2">0</pdfrwt>
<totfact> 0.45929904E+05</totfact>
</mgrwt>
</event>
<event>
 6    1  0.1132867E-002  0.3000000E+03  0.7818608E-02  0.1093470E+00
         21   -1    0    0  501  502  0.00000000000E+00  0.00000000000E+00  0.88395425064E-01  0.88395425064E-01  0.00000000000E+00 0. -1.
         13   -1    0    0    0    0 -0.00000000000E+00 -0.00000000000E+00 -0.10000000000E+04  0.10000000000E+04  0.00000000000E+00 0.  1.
    9000005    2    1    2  501    0  0.63110270058E+01 -0.52412144776E+01 -0.68298054976E+03  0.68305118484E+03  0.54028109631E+01 0.  0.
         13    1    3    3    0    0  0.12301507266E+01 -0.39210013567E+01 -0.20071335217E+03  0.20075541652E+03  0.00000000000E+00 0.  1.
          1    1    3    3  501    0  0.50808762792E+01 -0.13202131209E+01 -0.48226719759E+03  0.48229576832E+03  0.00000000000E+00 0.  1.
         -3    1    1    2    0  502 -0.63110270058E+01  0.52412144776E+01 -0.31693105481E+03  0.31703721059E+03  0.00000000000E+00 0. -1.
<mgrwt>
<rscale>  1 0.30000000E+03</rscale>
<asrwt>0</asrwt>
<pdfrwt beam="1">  1       21 0.32143859E-03 0.30000000E+03</pdfrwt>
<pdfrwt beam="2">0</pdfrwt>
<totfact> 0.23705351E+06</totfact>
</mgrwt>
</event>
<event>
 6    1  0.1132867E-002  0.3000000E+03  0.7818608E-02  0.1093470E+00
         21   -1    0    0  501  502  0.00000000000E+00  0.00000000000E+00  0.66249612045E+00  0.66249612045E+00  0.00000000000E+00 0. -1.
         13   -1    0    0    0    0 -0.00000000000E+00 -0.00000000000E+00 -0.10000000000E+04  0.10000000000E+04  0.00000000000E+00 0.  1.
    9000005    2    1    2  501    0  0.87952575691E+01  0.10221965261E+02 -0.81774058497E+03  0.81856558212E+03  0.34177518953E+02 0.  0.
         13    1    3    3    0    0 -0.58087106698E+01 -0.82571755677E+01 -0.42465479886E+03  0.42477478769E+03  0.00000000000E+00 0.  1.
          1    1    3    3  501    0  0.14603968239E+02  0.18479140829E+02 -0.39308578611E+03  0.39379079443E+03  0.00000000000E+00 0.  1.
         -1    1    1    2    0  502 -0.87952575691E+01 -0.10221965261E+02 -0.18159691891E+03  0.18209691400E+03  0.00000000000E+00 0. -1.
<mgrwt>
<rscale>  1 0.30000000E+03</rscale>
<asrwt>0</asrwt>
<pdfrwt beam="1">  1       21 0.24090819E-02 0.30000000E+03</pdfrwt>
<pdfrwt beam="2">0</pdfrwt>
<totfact> 0.97745492E+04</totfact>
</mgrwt>
</event>
<event>
 6    1  0.1132867E-002  0.3000000E+03  0.7818608E-02  0.1093470E+00
         21   -1    0    0  501  502  0.00000000000E+00  0.00000000000E+00  0.56047220329E+00  0.56047220329E+00  0.00000000000E+00 0. -1.
         13   -1    0    0    0    0 -0.00000000000E+00 -0.00000000000E+00 -0.10000000000E+04  0.10000000000E+04  0.00000000000E+00 0.  1.
    9000005    2    1    2  501    0 -0.13162532246E+02  0.36634705955E+01 -0.89970441900E+03  0.89989386801E+03  0.12420098730E+02 0.  0.
         13    1    3    3    0    0 -0.42111373238E+01  0.18922303419E+01 -0.65954551103E+03  0.65956166909E+03  0.00000000000E+00 0.  1.
          1    1    3    3  501    0 -0.89513949226E+01  0.17712402536E+01 -0.24015890796E+03  0.24033219892E+03  0.00000000000E+00 0.  1.
         -3    1    1    2    0  502  0.13162532246E+02 -0.36634705955E+01 -0.99735108800E+02  0.10066660419E+03  0.00000000000E+00 0. -1.
<mgrwt>
<rscale>  1 0.30000000E+03</rscale>
<asrwt>0</asrwt>
<pdfrwt beam="1">  1       21 0.20380850E-02 0.30000000E+03</pdfrwt>
<pdfrwt beam="2">0</pdfrwt>
<totfact> 0.12854626E+05</totfact>
</mgrwt>
</event>
<event>
 6    1  0.1132867E-002  0.3000000E+03  0.7818608E-02  0.1093470E+00
         21   -1    0    0  501  502  0.00000000000E+00  0.00000000000E+00  0.15559434513E+01  0.15559434513E+01  0.00000000000E+00 0. -1.
         13   -1    0    0    0    0 -0.00000000000E+00 -0.00000000000E+00 -0.10000000000E+04  0.10000000000E+04  0.00000000000E+00 0.  1.
    9000005    2    1    2  501    0 -0.24240433708E+02 -0.80471378350E+01 -0.84462512010E+03  0.84563089651E+03  0.32367647017E+02 0.  0.
         13    1    3    3    0    0 -0.21100668568E+02 -0.19294274989E+02 -0.50871119961E+03  0.50951407426E+03  0.00000000000E+00 0.  1.
          3    1    3    3  501    0 -0.31397651392E+01  0.11247137154E+02 -0.33591392049E+03  0.33611682225E+03  0.00000000000E+00 0.  1.
         -1    1    1    2    0  502  0.24240433708E+02  0.80471378350E+01 -0.15381893645E+03  0.15592504694E+03  0.00000000000E+00 0. -1.
<mgrwt>
<rscale>  1 0.30000000E+03</rscale>
<asrwt>0</asrwt>
<pdfrwt beam="1">  1       21 0.56579881E-02 0.30000000E+03</pdfrwt>
<pdfrwt beam="2">0</pdfrwt>
<totfact> 0.23312848E+04</totfact>
</mgrwt>
</event>
<event>
 6    1  0.1132867E-002  0.3000000E+03  0.7818608E-02  0.1093470E+00
         21   -1    0    0  501  502  0.00000000000E+00  0.00000000000E+00  0.92206312379E-01  0.92206312379E-01  0.00000000000E+00 0. -1.
         13   -1    0    0    0    0 -0.00000000000E+00 -0.00000000000E+00 -0.10000000000E+04  0.10000000000E+04  0.00000000000E+00 0.  1.
    9000005    2    1    2  501    0 -0.83065139827E+01  0.22901451857E+01 -0.70585587660E+03  0.70591407510E+03  0.28142417921E+01 0.  0.
         13    1    3    3    0    0 -0.21339314461E+01  0.19321171212E+01 -0.23240482001E+03  0.23242264757E+03  0.00000000000E+00 0.  1.
          1    1    3    3  501    0 -0.61725825366E+01  0.35802806444E+00 -0.47345105659E+03  0.47349142753E+03  0.00000000000E+00 0.  1.
         -3    1    1    2    0  502  0.83065139827E+01 -0.22901451857E+01 -0.29405191709E+03  0.29417813121E+03  0.00000000000E+00 0. -1.
<mgrwt>
<rscale>  1 0.30000000E+03</rscale>
<asrwt>0</asrwt>
<pdfrwt beam="1">  1       21 0.33529639E-03 0.30000000E+03</pdfrwt>
<pdfrwt beam="2">0</pdfrwt>
<totfact> 0.22219075E+06</totfact>
</mgrwt>
</event>
<event>
 6    1  0.1132867E-002  0.3000000E+03  0.7818608E-02  0.1093470E+00
         21   -1    0    0  501  502  0.00000000000E+00  0.00000000000E+00  0.54624252798E+00  0.54624252798E+00  0.00000000000E+00 0. -1.
         13   -1    0    0    0    0 -0.00000000000E+00 -0.00000000000E+00 -0.10000000000E+04  0.10000000000E+04  0.00000000000E+00 0.  1.
    9000005    2    1    2  501    0 -0.18371275709E+02  0.85664069183E+01 -0.73316810334E+03  0.73349018719E+03  0.78421835761E+01 0.  0.
         13    1    3    3    0    0 -0.16260260964E+02  0.94752043605E+01 -0.58097635338E+03  0.58128108413E+03  0.00000000000E+00 0.  1.
          1    1    3    3  501    0 -0.21110147455E+01 -0.90879744212E+00 -0.15219174996E+03  0.15220910306E+03  0.00000000000E+00 0.  1.
         -1    1    1    2    0  502  0.18371275709E+02 -0.85664069183E+01 -0.26628565413E+03  0.26705605534E+03  0.00000000000E+00 0. -1.
<mgrwt>
<rscale>  1 0.30000000E+03</rscale>
<asrwt>0</asrwt>
<pdfrwt beam="1">  1       21 0.19863407E-02 0.30000000E+03</pdfrwt>
<pdfrwt beam="2">0</pdfrwt>
<totfact> 0.13405100E+05</totfact>
</mgrwt>
</event>
<event>
 6    1  0.1132867E-002  0.3000000E+03  0.7818608E-02  0.1093470E+00
         21   -1    0    0  501  502  0.00000000000E+00  0.00000000000E+00  0.17556827153E+00  0.17556827153E+00  0.00000000000E+00 0. -1.
         13   -1    0    0    0    0 -0.00000000000E+00 -0.00000000000E+00 -0.10000000000E+04  0.10000000000E+04  0.00000000000E+00 0.  1.
    9000005    2    1    2  501    0 -0.16388479944E+00 -0.90739107259E+01 -0.81460895897E+03  0.81473788585E+03  0.11300614366E+02 0.  0.
         13    1    3    3    0    0 -0.20174767168E+01 -0.11200818016E+02 -0.70860044286E+03  0.70869183441E+03  0.00000000000E+00 0.  1.
          1    1    3    3  501    0  0.18535919173E+01  0.21269072898E+01 -0.10600851612E+03  0.10604605144E+03  0.00000000000E+00 0.  1.
         -1    1    1    2    0  502  0.16388479944E+00  0.90739107259E+01 -0.18521547275E+03  0.18543768242E+03  0.00000000000E+00 0. -1.
<mgrwt>
<rscale>  1 0.30000000E+03</rscale>
<asrwt>0</asrwt>
<pdfrwt beam="1">  1       21 0.63843142E-03 0.30000000E+03</pdfrwt>
<pdfrwt beam="2">0</pdfrwt>
<totfact> 0.81934479E+05</totfact>
</mgrwt>
</event>
<event>
 6    1  0.1132867E-002  0.3000000E+03  0.7818608E-02  0.1093470E+00
         21   -1    0    0  501  502  0.00000000000E+00  0.00000000000E+00  0.23897137885E+00  0.23897137885E+00  0.00000000000E+00 0. -1.
         13   -1    0    0    0    0 -0.00000000000E+00 -0.00000000000E+00 -0.10000000000E+04  0.10000000000E+04  0.00000000000E+00 0.  1.
    9000005    2    1    2  501    0 -0.34780536162E+01  0.10079176516E+02 -0.82207370898E+03  0.82223203270E+03  0.12109745963E+02 0.  0.
         13    1    3    3    0    0  0.27951512995E+01  0.79776685717E+00 -0.55181741768E+02  0.55258247596E+02  0.00000000000E+00 0.  1.
          3    1    3    3  501    0 -0.62732049157E+01  0.92814096592E+01 -0.76689196721E+03  0.76697378510E+03  0.00000000000E+00 0.  1.
         -1    1    1    2    0  502  0.34780536162E+01 -0.10079176516E+02 -0.17768731964E+03  0.17800693868E+03  0.00000000000E+00 0. -1.
<mgrwt>
<rscale>  1 0.30000000E+03</rscale>
<asrwt>0</asrwt>
<pdfrwt beam="1">  1       21 0.86898866E-03 0.30000000E+03</pdfrwt>
<pdfrwt beam="2">0</pdfrwt>
<totfact> 0.50469114E+05</totfact>
</mgrwt>
</event>
<event>
 6    1  0.1132867E-002  0.3000000E+03  0.7818608E-02  0.1093470E+00
         21   -1    0    0  501  502  0.00000000000E+00  0.00000000000E+00  0.32032791448E+00  0.32032791448E+00  0.00000000000E+00 0. -1.
         13   -1    0    0    0    0 -0.00000000000E+00 -0.00000000000E+00 -0.10000000000E+04  0.10000000000E+04  0.00000000000E+00 0.  1.
    9000005    2    1    2  501    0  0.95407301726E+01  0.13389479680E+02 -0.66132847096E+03  0.66156991980E+03  0.70077511643E+01 0.  0.
         13    1    3    3    0    0  0.98705577908E+00 -0.11975486404E-01 -0.12974563688E+03  0.12974939195E+03  0.00000000000E+00 0.  1.
          3    1    3    3  501    0  0.85536743936E+01  0.13401455166E+02 -0.53158283409E+03  0.53182052785E+03  0.00000000000E+00 0.  1.
         -1    1    1    2    0  502 -0.95407301726E+01 -0.13389479680E+02 -0.33835120112E+03  0.33875040812E+03  0.00000000000E+00 0. -1.
<mgrwt>
<rscale>  1 0.30000000E+03</rscale>
<asrwt>0</asrwt>
<pdfrwt beam="1">  1       21 0.11648312E-02 0.30000000E+03</pdfrwt>
<pdfrwt beam="2">0</pdfrwt>
<totfact> 0.31696497E+05</totfact>
</mgrwt>
</event>
<event>
 6    1  0.1132867E-002  0.3000000E+03  0.7818608E-02  0.1093470E+00
         21   -1    0    0  501  502  0.00000000000E+00  0.00000000000E+00  0.24070419797E+01  0.24070419797E+01  0.00000000000E+00 0. -1.
         13   -1    0    0    0    0 -0.00000000000E+00 -0.00000000000E+00 -0.10000000000E+04  0.10000000000E+04  0.00000000000E+00 0.  1.
    9000005    2    1    2  501    0  0.52034473402E+01  0.20333357278E+02 -0.95143720263E+03  0.95170324490E+03  0.81113825933E+01 0.  0.
         13    1    3    3    0    0 -0.87985149847E+00  0.11650189215E+02 -0.43265648015E+03  0.43281419901E+03  0.00000000000E+00 0.  1.
          1    1    3    3  501    0  0.60832988386E+01  0.86831680630E+01 -0.51878072248E+03  0.51888904589E+03  0.00000000000E+00 0.  1.
         -1    1    1    2    0  502 -0.52034473402E+01 -0.20333357278E+02 -0.46155755394E+02  0.50703797081E+02  0.00000000000E+00 0. -1.
<mgrwt>
<rscale>  1 0.30000000E+03</rscale>
<asrwt>0</asrwt>
<pdfrwt beam="1">  1       21 0.87528984E-02 0.30000000E+03</pdfrwt>
<pdfrwt beam="2">0</pdfrwt>
<totfact> 0.10902136E+04</totfact>
</mgrwt>
</event>
<event>
 6    1  0.1132867E-002  0.3000000E+03  0.7818608E-02  0.1093470E+00
         21   -1    0    0  501  502  0.00000000000E+00  0.00000000000E+00  0.82730405182E+00  0.82730405182E+00  0.00000000000E+00 0. -1.
         13   -1    0    0    0    0 -0.00000000000E+00 -0.00000000000E+00 -0.10000000000E+04  0.10000000000E+04  0.00000000000E+00 0.  1.
    9000005    2    1    2  501    0 -0.10008669521E+02 -0.16950667937E+02 -0.85935432196E+03  0.85963000835E+03  0.92952661906E+01 0.  0.
         13    1    3    3    0    0 -0.62330252637E+01 -0.27843619222E+01 -0.34136259452E+03  0.34143084836E+03  0.00000000000E+00 0.  1.
          1    1    3    3  501    0 -0.37756442573E+01 -0.14166306015E+02 -0.51799172744E+03  0.51819915999E+03  0.00000000000E+00 0.  1.
         -1    1    1    2    0  502  0.10008669521E+02  0.16950667937E+02 -0.13981837399E+03  0.14119729570E+03  0.00000000000E+00 0. -1.
<mgrwt>
<rscale>  1 0.30000000E+03</rscale>
<asrwt>0</asrwt>
<pdfrwt beam="1">  1       21 0.30083847E-02 0.30000000E+03</pdfrwt>
<pdfrwt beam="2">0</pdfrwt>
<totfact> 0.67715664E+04</totfact>
</mgrwt>
</event>
<event>
 6    1  0.1132867E-002  0.3000000E+03  0.7818608E-02  0.1093470E+00
         21   -1    0    0  501  502  0.00000000000E+00  0.00000000000E+00  0.61942946536E+00  0.61942946536E+00  0.00000000000E+00 0. -1.
         13   -1    0    0    0    0 -0.00000000000E+00 -0.00000000000E+00 -0.10000000000E+04  0.10000000000E+04  0.00000000000E+00 0.  1.
    9000005    2    1    2  501    0  0.13002278078E+02 -0.24688013332E+01 -0.86712141996E+03  0.86769976528E+03  0.28777969108E+02 0.  0.
         13    1    3    3    0    0  0.79617217951E+01  0.10177708132E+02 -0.18877283779E+03  0.18921458465E+03  0.00000000000E+00 0.  1.
          1    1    3    3  501    0  0.50405562831E+01 -0.12646509465E+02 -0.67834858216E+03  0.67848518063E+03  0.00000000000E+00 0.  1.
         -1    1    1    2    0  502 -0.13002278078E+02  0.24688013332E+01 -0.13225915058E+03  0.13291966418E+03  0.00000000000E+00 0. -1.
<mgrwt>
<rscale>  1 0.30000000E+03</rscale>
<asrwt>0</asrwt>
<pdfrwt beam="1">  1       21 0.22524755E-02 0.30000000E+03</pdfrwt>
<pdfrwt beam="2">0</pdfrwt>
<totfact> 0.10914337E+05</totfact>
</mgrwt>
</event>
<event>
 6    1  0.1132867E-002  0.3000000E+03  0.7818608E-02  0.1093470E+00
         21   -1    0    0  501  502  0.00000000000E+00  0.00000000000E+00  0.40521858391E+00  0.40521858391E+00  0.00000000000E+00 0. -1.
         13   -1    0    0    0    0 -0.00000000000E+00 -0.00000000000E+00 -0.10000000000E+04  0.10000000000E+04  0.00000000000E+00 0.  1.
    9000005    2    1    2  501    0  0.10749778790E+02 -0.47598376142E+01 -0.90117402350E+03  0.90128478987E+03  0.78382418538E+01 0.  0.
         13    1    3    3    0    0  0.50245609682E+01 -0.33729309826E+01 -0.69575489465E+03  0.69578121296E+03  0.00000000000E+00 0.  1.
          3    1    3    3  501    0  0.57252178221E+01 -0.13869066316E+01 -0.20541912885E+03  0.20550357692E+03  0.00000000000E+00 0.  1.
         -3    1    1    2    0  502 -0.10749778790E+02  0.47598376142E+01 -0.98420757921E+02  0.99120428711E+02  0.00000000000E+00 0. -1.
<mgrwt>
<rscale>  1 0.30000000E+03</rscale>
<asrwt>0</asrwt>
<pdfrwt beam="1">  1       21 0.14735252E-02 0.30000000E+03</pdfrwt>
<pdfrwt beam="2">0</pdfrwt>
<totfact> 0.21744918E+05</totfact>
</mgrwt>
</event>
<event>
 6    1  0.1132867E-002  0.3000000E+03  0.7818608E-02  0.1093470E+00
         21   -1    0    0  501  502  0.00000000000E+00  0.00000000000E+00  0.11185347510E+00  0.11185347510E+00  0.00000000000E+00 0. -1.
         13   -1    0    0    0    0 -0.00000000000E+00 -0.00000000000E+00 -0.10000000000E+04  0.10000000000E+04  0.00000000000E+00 0.  1.
    9000005    2    1    2  501    0  0.87560588834E+01  0.31093681542E+01 -0.67881045134E+03  0.67889973807E+03  0.59066713298E+01 0.  0.
         13    1    3    3    0    0  0.27590321741E+01  0.27603765527E+01 -0.42620540423E+03  0.42622327310E+03  0.00000000000E+00 0.  1.
          1    1    3    3  501    0  0.59970267093E+01  0.34899160149E+00 -0.25260504711E+03  0.25267646497E+03  0.00000000000E+00 0.  1.
         -3    1    1    2    0  502 -0.87560588834E+01 -0.31093681542E+01 -0.32107769518E+03  0.32121211540E+03  0.00000000000E+00 0. -1.
<mgrwt>
<rscale>  1 0.30000000E+03</rscale>
<asrwt>0</asrwt>
<pdfrwt beam="1">  1       21 0.40674077E-03 0.30000000E+03</pdfrwt>
<pdfrwt beam="2">0</pdfrwt>
<totfact> 0.16504180E+06</totfact>
</mgrwt>
</event>
<event>
 6    1  0.1132867E-002  0.3000000E+03  0.7818608E-02  0.1093470E+00
         21   -1    0    0  501  502  0.00000000000E+00  0.00000000000E+00  0.24579020028E+00  0.24579020028E+00  0.00000000000E+00 0. -1.
         13   -1    0    0    0    0 -0.00000000000E+00 -0.00000000000E+00 -0.10000000000E+04  0.10000000000E+04  0.00000000000E+00 0.  1.
    9000005    2    1    2  501    0 -0.87901559845E+01 -0.78732591379E+01 -0.76057548276E+03  0.76077612924E+03  0.12884051979E+02 0.  0.
         13    1    3    3    0    0 -0.93673969099E+01 -0.20814406729E+01 -0.62756034735E+03  0.62763370694E+03  0.00000000000E+00 0.  1.
          3    1    3    3  501    0  0.57724092539E+00 -0.57918184650E+01 -0.13301513541E+03  0.13314242230E+03  0.00000000000E+00 0.  1.
         -1    1    1    2    0  502  0.87901559845E+01  0.78732591379E+01 -0.23917872704E+03  0.23946966096E+03  0.00000000000E+00 0. -1.
<mgrwt>
<rscale>  1 0.30000000E+03</rscale>
<asrwt>0</asrwt>
<pdfrwt beam="1">  1       21 0.89378443E-03 0.30000000E+03</pdfrwt>
<pdfrwt beam="2">0</pdfrwt>
<totfact> 0.48274849E+05</totfact>
</mgrwt>
</event>
<event>
 6    1  0.1132867E-002  0.3000000E+03  0.7818608E-02  0.1093470E+00
         21   -1    0    0  501  502  0.00000000000E+00  0.00000000000E+00  0.10156313433E+00  0.10156313433E+00  0.00000000000E+00 0. -1.
         13   -1    0    0    0    0 -0.00000000000E+00 -0.00000000000E+00 -0.10000000000E+04  0.10000000000E+04  0.00000000000E+00 0.  1.
    9000005    2    1    2  501    0 -0.94133418473E+01 -0.25534385320E+01 -0.56220384041E+03  0.56229830730E+03  0.33312410706E+01 0.  0.
         13    1    3    3    0    0 -0.75750302018E+01 -0.62725215664E+00 -0.43777578517E+03  0.43784176664E+03  0.00000000000E+00 0.  1.
          3    1    3    3  501    0 -0.18383116455E+01 -0.19261863754E+01 -0.12442805524E+03  0.12445654066E+03  0.00000000000E+00 0.  1.
         -1    1    1    2    0  502  0.94133418473E+01  0.25534385320E+01 -0.43769459646E+03  0.43780325584E+03  0.00000000000E+00 0. -1.
<mgrwt>
<rscale>  1 0.30000000E+03</rscale>
<asrwt>0</asrwt>
<pdfrwt beam="1">  1       21 0.36932127E-03 0.30000000E+03</pdfrwt>
<pdfrwt beam="2">0</pdfrwt>
<totfact> 0.19151961E+06</totfact>
</mgrwt>
</event>
<event>
 6    1  0.1132867E-002  0.3000000E+03  0.7818608E-02  0.1093470E+00
         21   -1    0    0  501  502  0.00000000000E+00  0.00000000000E+00  0.10720175768E+00  0.10720175768E+00  0.00000000000E+00 0. -1.
         13   -1    0    0    0    0 -0.00000000000E+00 -0.00000000000E+00 -0.10000000000E+04  0.10000000000E+04  0.00000000000E+00 0.  1.
    9000005    2    1    2  501    0  0.52370489971E+01 -0.64155719203E+01 -0.71928060198E+03  0.71937282385E+03  0.80055650082E+01 0.  0.
         13    1    3    3    0    0  0.13028972768E+01 -0.72532288125E+01 -0.41206168404E+03  0.41212757530E+03  0.00000000000E+00 0.  1.
          1    1    3    3  501    0  0.39341517203E+01  0.83765689214E+00 -0.30721891794E+03  0.30724524855E+03  0.00000000000E+00 0.  1.
         -1    1    1    2    0  502 -0.52370489971E+01  0.64155719203E+01 -0.28061219627E+03  0.28073437791E+03  0.00000000000E+00 0. -1.
<mgrwt>
<rscale>  1 0.30000000E+03</rscale>
<asrwt>0</asrwt>
<pdfrwt beam="1">  1       21 0.38982540E-03 0.30000000E+03</pdfrwt>
<pdfrwt beam="2">0</pdfrwt>
<totfact> 0.17621884E+06</totfact>
</mgrwt>
</event>
<event>
 6    1  0.1132867E-002  0.3000000E+03  0.7818608E-02  0.1093470E+00
         21   -1    0    0  501  502  0.00000000000E+00  0.00000000000E+00  0.17901774728E+00  0.17901774728E+00  0.00000000000E+00 0.  1.
         13   -1    0    0    0    0 -0.00000000000E+00 -0.00000000000E+00 -0.10000000000E+04  0.10000000000E+04  0.00000000000E+00 0.  1.
    9000005    2    1    2  501    0 -0.12682407202E+01  0.85418571582E+01 -0.80476220268E+03  0.80492917973E+03  0.13935916068E+02 0.  0.
         13    1    3    3    0    0 -0.63408757516E+01  0.42281089631E+01 -0.22559178927E+03  0.22572048865E+03  0.00000000000E+00 0.  1.
          1    1    3    3  501    0  0.50726350314E+01  0.43137481951E+01 -0.57917041341E+03  0.57920869108E+03  0.00000000000E+00 0.  1.
         -1    1    1    2    0  502  0.12682407202E+01 -0.85418571582E+01 -0.19505877957E+03  0.19524983802E+03  0.00000000000E+00 0. -1.
<mgrwt>
<rscale>  1 0.30000000E+03</rscale>
<asrwt>0</asrwt>
<pdfrwt beam="1">  1       21 0.65097500E-03 0.30000000E+03</pdfrwt>
<pdfrwt beam="2">0</pdfrwt>
<totfact> 0.79477372E+05</totfact>
</mgrwt>
</event>
<event>
 6    1  0.1132867E-002  0.3000000E+03  0.7818608E-02  0.1093470E+00
         21   -1    0    0  501  502  0.00000000000E+00  0.00000000000E+00  0.23729304636E+01  0.23729304636E+01  0.00000000000E+00 0. -1.
         13   -1    0    0    0    0 -0.00000000000E+00 -0.00000000000E+00 -0.10000000000E+04  0.10000000000E+04  0.00000000000E+00 0.  1.
    9000005    2    1    2  501    0  0.19073533755E+01 -0.32639729134E+02 -0.86697134859E+03  0.86768845723E+03  0.13226852046E+02 0.  0.
         13    1    3    3    0    0  0.45630330678E+01 -0.10094241320E+02 -0.41447761405E+03  0.41462562334E+03  0.00000000000E+00 0.  1.
          1    1    3    3  501    0 -0.26556796923E+01 -0.22545487814E+02 -0.45249373454E+03  0.45306283389E+03  0.00000000000E+00 0.  1.
         -1    1    1    2    0  502 -0.19073533755E+01  0.32639729134E+02 -0.13065572094E+03  0.13468447323E+03  0.00000000000E+00 0. -1.
<mgrwt>
<rscale>  1 0.30000000E+03</rscale>
<asrwt>0</asrwt>
<pdfrwt beam="1">  1       21 0.86288562E-02 0.30000000E+03</pdfrwt>
<pdfrwt beam="2">0</pdfrwt>
<totfact> 0.11180487E+04</totfact>
</mgrwt>
</event>
<event>
 6    1  0.1132867E-002  0.3000000E+03  0.7818608E-02  0.1093470E+00
         21   -1    0    0  501  502  0.00000000000E+00  0.00000000000E+00  0.52444909886E+00  0.52444909886E+00  0.00000000000E+00 0. -1.
         13   -1    0    0    0    0 -0.00000000000E+00 -0.00000000000E+00 -0.10000000000E+04  0.10000000000E+04  0.00000000000E+00 0.  1.
    9000005    2    1    2  501    0  0.69013260421E+01 -0.10411728195E+02 -0.28932194852E+03  0.29026099702E+03  0.19703403514E+02 0.  0.
         13    1    3    3    0    0  0.99007277812E+01 -0.13996130425E+02 -0.26040886724E+03  0.26097259284E+03  0.00000000000E+00 0.  1.
          1    1    3    3  501    0 -0.29994017391E+01  0.35844022299E+01 -0.28913081274E+02  0.29288404171E+02  0.00000000000E+00 0.  1.
         -1    1    1    2    0  502 -0.69013260421E+01  0.10411728195E+02 -0.71015360239E+03  0.71026345208E+03  0.00000000000E+00 0. -1.
<mgrwt>
<rscale>  1 0.30000000E+03</rscale>
<asrwt>0</asrwt>
<pdfrwt beam="1">  1       21 0.19070917E-02 0.30000000E+03</pdfrwt>
<pdfrwt beam="2">0</pdfrwt>
<totfact> 0.14323733E+05</totfact>
</mgrwt>
</event>
<event>
 6    1  0.1132867E-002  0.3000000E+03  0.7818608E-02  0.1093470E+00
         21   -1    0    0  501  502  0.00000000000E+00  0.00000000000E+00  0.52321037936E+00  0.52321037936E+00  0.00000000000E+00 0. -1.
         13   -1    0    0    0    0 -0.00000000000E+00 -0.00000000000E+00 -0.10000000000E+04  0.10000000000E+04  0.00000000000E+00 0.  1.
    9000005    2    1    2  501    0 -0.87380770988E+00  0.14780223748E+02 -0.78089088491E+03  0.78143643239E+03  0.25161581199E+02 0.  0.
         13    1    3    3    0    0 -0.29642639839E+01 -0.26640914841E+01 -0.48958246360E+03  0.48959868557E+03  0.00000000000E+00 0.  1.
          3    1    3    3  501    0  0.20904562741E+01  0.17444315233E+02 -0.29130842131E+03  0.29183774682E+03  0.00000000000E+00 0.  1.
         -3    1    1    2    0  502  0.87380770988E+00 -0.14780223748E+02 -0.21858590471E+03  0.21908677799E+03  0.00000000000E+00 0. -1.
<mgrwt>
<rscale>  1 0.30000000E+03</rscale>
<asrwt>0</asrwt>
<pdfrwt beam="1">  1       21 0.19025872E-02 0.30000000E+03</pdfrwt>
<pdfrwt beam="2">0</pdfrwt>
<totfact> 0.14378931E+05</totfact>
</mgrwt>
</event>
<event>
 6    1  0.1132867E-002  0.3000000E+03  0.7818608E-02  0.1093470E+00
         21   -1    0    0  501  502  0.00000000000E+00  0.00000000000E+00  0.61802766251E+00  0.61802766251E+00  0.00000000000E+00 0. -1.
         13   -1    0    0    0    0 -0.00000000000E+00 -0.00000000000E+00 -0.10000000000E+04  0.10000000000E+04  0.00000000000E+00 0.  1.
    9000005    2    1    2  501    0 -0.37858492494E+01  0.10147272428E+02 -0.94915294789E+03  0.94923461897E+03  0.61435791029E+01 0.  0.
         13    1    3    3    0    0 -0.24446949088E+01  0.10581374513E+02 -0.88213154105E+03  0.88219838910E+03  0.00000000000E+00 0.  1.
          1    1    3    3  501    0 -0.13411543406E+01 -0.43410208522E+00 -0.67021406843E+02  0.67036229867E+02  0.00000000000E+00 0.  1.
         -1    1    1    2    0  502  0.37858492494E+01 -0.10147272428E+02 -0.50229024447E+02  0.51383408696E+02  0.00000000000E+00 0. -1.
<mgrwt>
<rscale>  1 0.30000000E+03</rscale>
<asrwt>0</asrwt>
<pdfrwt beam="1">  1       21 0.22473781E-02 0.30000000E+03</pdfrwt>
<pdfrwt beam="2">0</pdfrwt>
<totfact> 0.10954943E+05</totfact>
</mgrwt>
</event>
<event>
 6    1  0.1132867E-002  0.3000000E+03  0.7818608E-02  0.1093470E+00
         21   -1    0    0  501  502  0.00000000000E+00  0.00000000000E+00  0.12511787281E+01  0.12511787281E+01  0.00000000000E+00 0. -1.
         13   -1    0    0    0    0 -0.00000000000E+00 -0.00000000000E+00 -0.10000000000E+04  0.10000000000E+04  0.00000000000E+00 0.  1.
    9000005    2    1    2  501    0 -0.11253196052E+02 -0.91314796722E+01 -0.95587827150E+03  0.95599742330E+03  0.42172375388E+01 0.  0.
         13    1    3    3    0    0 -0.53679924354E+01 -0.17638410310E+01 -0.37771034475E+03  0.37775260556E+03  0.00000000000E+00 0.  1.
          1    1    3    3  501    0 -0.58852036168E+01 -0.73676386412E+01 -0.57816792675E+03  0.57824481774E+03  0.00000000000E+00 0.  1.
         -3    1    1    2    0  502  0.11253196052E+02  0.91314796722E+01 -0.42870549772E+02  0.45253755426E+02  0.00000000000E+00 0. -1.
<mgrwt>
<rscale>  1 0.30000000E+03</rscale>
<asrwt>0</asrwt>
<pdfrwt beam="1">  1       21 0.45497504E-02 0.30000000E+03</pdfrwt>
<pdfrwt beam="2">0</pdfrwt>
<totfact> 0.33820966E+04</totfact>
</mgrwt>
</event>
<event>
 6    1  0.1132867E-002  0.3000000E+03  0.7818608E-02  0.1093470E+00
         21   -1    0    0  501  502  0.00000000000E+00  0.00000000000E+00  0.77472444640E+00  0.77472444640E+00  0.00000000000E+00 0. -1.
         13   -1    0    0    0    0 -0.00000000000E+00 -0.00000000000E+00 -0.10000000000E+04  0.10000000000E+04  0.00000000000E+00 0.  1.
    9000005    2    1    2  501    0 -0.31530425189E+01  0.21905073662E+02 -0.76666485869E+03  0.76716367714E+03  0.16593012142E+02 0.  0.
         13    1    3    3    0    0  0.26391105483E+01  0.67386940287E+01 -0.46942967896E+03  0.46948546132E+03  0.00000000000E+00 0.  1.
          3    1    3    3  501    0 -0.57921530672E+01  0.15166379633E+02 -0.29723517972E+03  0.29767821582E+03  0.00000000000E+00 0.  1.
         -3    1    1    2    0  502  0.31530425189E+01 -0.21905073662E+02 -0.23256041687E+03  0.23361104730E+03  0.00000000000E+00 0. -1.
<mgrwt>
<rscale>  1 0.30000000E+03</rscale>
<asrwt>0</asrwt>
<pdfrwt beam="1">  1       21 0.28171857E-02 0.30000000E+03</pdfrwt>
<pdfrwt beam="2">0</pdfrwt>
<totfact> 0.75506791E+04</totfact>
</mgrwt>
</event>
<event>
 6    1  0.1132867E-002  0.3000000E+03  0.7818608E-02  0.1093470E+00
         21   -1    0    0  501  502  0.00000000000E+00  0.00000000000E+00  0.26883332175E+01  0.26883332175E+01  0.00000000000E+00 0. -1.
         13   -1    0    0    0    0 -0.00000000000E+00 -0.00000000000E+00 -0.10000000000E+04  0.10000000000E+04  0.00000000000E+00 0.  1.
    9000005    2    1    2  501    0  0.13596534809E+02 -0.25581622875E+02 -0.91186919546E+03  0.91246804119E+03  0.15912616936E+02 0.  0.
         13    1    3    3    0    0  0.10839193862E+01 -0.13932730176E+02 -0.57039898963E+03  0.57057015626E+03  0.00000000000E+00 0.  1.
          1    1    3    3  501    0  0.12512615423E+02 -0.11648892699E+02 -0.34147020583E+03  0.34189788493E+03  0.00000000000E+00 0.  1.
         -1    1    1    2    0  502 -0.13596534809E+02  0.25581622875E+02 -0.85442471323E+02  0.90220292027E+02  0.00000000000E+00 0. -1.
<mgrwt>
<rscale>  1 0.30000000E+03</rscale>
<asrwt>0</asrwt>
<pdfrwt beam="1">  1       21 0.97757778E-02 0.30000000E+03</pdfrwt>
<pdfrwt beam="2">0</pdfrwt>
<totfact> 0.89587282E+03</totfact>
</mgrwt>
</event>
<event>
 6    1  0.1132867E-002  0.3000000E+03  0.7818608E-02  0.1093470E+00
         21   -1    0    0  501  502  0.00000000000E+00  0.00000000000E+00  0.29618147002E+00  0.29618147002E+00  0.00000000000E+00 0. -1.
         13   -1    0    0    0    0 -0.00000000000E+00 -0.00000000000E+00 -0.10000000000E+04  0.10000000000E+04  0.00000000000E+00 0.  1.
    9000005    2    1    2  501    0 -0.11422765175E+02  0.15364996130E+01 -0.85803672959E+03  0.85816101874E+03  0.89701931789E+01 0.  0.
         13    1    3    3    0    0 -0.43378752036E+01 -0.32663242164E+01 -0.46135841202E+03  0.46139036659E+03  0.00000000000E+00 0.  1.
          3    1    3    3  501    0 -0.70848899710E+01  0.48028238294E+01 -0.39667831757E+03  0.39677065216E+03  0.00000000000E+00 0.  1.
         -1    1    1    2    0  502  0.11422765175E+02 -0.15364996130E+01 -0.14166708894E+03  0.14213516273E+03  0.00000000000E+00 0. -1.
<mgrwt>
<rscale>  1 0.30000000E+03</rscale>
<asrwt>0</asrwt>
<pdfrwt beam="1">  1       21 0.10770258E-02 0.30000000E+03</pdfrwt>
<pdfrwt beam="2">0</pdfrwt>
<totfact> 0.35912179E+05</totfact>
</mgrwt>
</event>
<event>
 6    1  0.1132867E-002  0.3000000E+03  0.7818608E-02  0.1093470E+00
         21   -1    0    0  501  502  0.00000000000E+00  0.00000000000E+00  0.55818863192E+00  0.55818863192E+00  0.00000000000E+00 0.  1.
         13   -1    0    0    0    0 -0.00000000000E+00 -0.00000000000E+00 -0.10000000000E+04  0.10000000000E+04  0.00000000000E+00 0.  1.
    9000005    2    1    2  501    0 -0.10945092629E+02  0.30117879387E+01 -0.90430318622E+03  0.90474470359E+03  0.25881656865E+02 0.  0.
         13    1    3    3    0    0 -0.95300366674E+01  0.94307587000E+01 -0.21901855398E+03  0.21942854827E+03  0.00000000000E+00 0.  1.
          1    1    3    3  501    0 -0.14150559618E+01 -0.64189707613E+01 -0.68528463224E+03  0.68531615533E+03  0.00000000000E+00 0.  1.
         -3    1    1    2    0  502  0.10945092629E+02 -0.30117879387E+01 -0.95138625152E+02  0.95813485038E+02  0.00000000000E+00 0. -1.
<mgrwt>
<rscale>  1 0.30000000E+03</rscale>
<asrwt>0</asrwt>
<pdfrwt beam="1">  1       21 0.20297811E-02 0.30000000E+03</pdfrwt>
<pdfrwt beam="2">0</pdfrwt>
<totfact> 0.12940531E+05</totfact>
</mgrwt>
</event>
<event>
 6    1  0.1132867E-002  0.3000000E+03  0.7818608E-02  0.1093470E+00
         21   -1    0    0  501  502  0.00000000000E+00  0.00000000000E+00  0.31571472270E+00  0.31571472270E+00  0.00000000000E+00 0. -1.
         13   -1    0    0    0    0 -0.00000000000E+00 -0.00000000000E+00 -0.10000000000E+04  0.10000000000E+04  0.00000000000E+00 0.  1.
    9000005    2    1    2  501    0  0.45952371220E+01 -0.11204085979E+02 -0.85940252996E+03  0.85951223955E+03  0.64756220945E+01 0.  0.
         13    1    3    3    0    0  0.14906978980E+01 -0.38720989501E+01 -0.12987262334E+03  0.12993888419E+03  0.00000000000E+00 0.  1.
          1    1    3    3  501    0  0.31045392240E+01 -0.73319870288E+01 -0.72952990662E+03  0.72957335536E+03  0.00000000000E+00 0.  1.
         -3    1    1    2    0  502 -0.45952371220E+01  0.11204085979E+02 -0.14028175531E+03  0.14080347517E+03  0.00000000000E+00 0. -1.
<mgrwt>
<rscale>  1 0.30000000E+03</rscale>
<asrwt>0</asrwt>
<pdfrwt beam="1">  1       21 0.11480560E-02 0.30000000E+03</pdfrwt>
<pdfrwt beam="2">0</pdfrwt>
<totfact> 0.32438340E+05</totfact>
</mgrwt>
</event>
<event>
 6    1  0.1132867E-002  0.3000000E+03  0.7818608E-02  0.1093470E+00
         21   -1    0    0  501  502  0.00000000000E+00  0.00000000000E+00  0.26148357946E+00  0.26148357946E+00  0.00000000000E+00 0. -1.
         13   -1    0    0    0    0 -0.00000000000E+00 -0.00000000000E+00 -0.10000000000E+04  0.10000000000E+04  0.00000000000E+00 0.  1.
    9000005    2    1    2  501    0 -0.12512413818E+02 -0.59276339863E+01 -0.57693043700E+03  0.57722676944E+03  0.12260378309E+02 0.  0.
         13    1    3    3    0    0 -0.60023598450E+01 -0.63849723159E+01 -0.15613945172E+03  0.15638518018E+03  0.00000000000E+00 0.  1.
          3    1    3    3  501    0 -0.65100539731E+01  0.45733832954E+00 -0.42079098528E+03  0.42084158926E+03  0.00000000000E+00 0.  1.
         -1    1    1    2    0  502  0.12512413818E+02  0.59276339863E+01 -0.42280807942E+03  0.42303471414E+03  0.00000000000E+00 0. -1.
<mgrwt>
<rscale>  1 0.30000000E+03</rscale>
<asrwt>0</asrwt>
<pdfrwt beam="1">  1       21 0.95085138E-03 0.30000000E+03</pdfrwt>
<pdfrwt beam="2">0</pdfrwt>
<totfact> 0.43771436E+05</totfact>
</mgrwt>
</event>
<event>
 6    1  0.1132867E-002  0.3000000E+03  0.7818608E-02  0.1093470E+00
         21   -1    0    0  501  502  0.00000000000E+00  0.00000000000E+00  0.93718508252E+00  0.93718508252E+00  0.00000000000E+00 0. -1.
         13   -1    0    0    0    0 -0.00000000000E+00 -0.00000000000E+00 -0.10000000000E+04  0.10000000000E+04  0.00000000000E+00 0.  1.
    9000005    2    1    2  501    0  0.16136622263E+02  0.94824124246E+01 -0.88299671096E+03  0.88337168330E+03  0.17664443154E+02 0.  0.
         13    1    3    3    0    0  0.86998152817E+01  0.13238262976E+02 -0.70750466776E+03  0.70768198599E+03  0.00000000000E+00 0.  1.
          3    1    3    3  501    0  0.74368069814E+01 -0.37558505517E+01 -0.17549204321E+03  0.17568969731E+03  0.00000000000E+00 0.  1.
         -1    1    1    2    0  502 -0.16136622263E+02 -0.94824124246E+01 -0.11606610395E+03  0.11756550179E+03  0.00000000000E+00 0. -1.
<mgrwt>
<rscale>  1 0.30000000E+03</rscale>
<asrwt>0</asrwt>
<pdfrwt beam="1">  1       21 0.34079529E-02 0.30000000E+03</pdfrwt>
<pdfrwt beam="2">0</pdfrwt>
<totfact> 0.55015784E+04</totfact>
</mgrwt>
</event>
<event>
 6    1  0.1132867E-002  0.3000000E+03  0.7818608E-02  0.1093470E+00
         21   -1    0    0  501  502  0.00000000000E+00  0.00000000000E+00  0.15426276671E+00  0.15426276671E+00  0.00000000000E+00 0. -1.
         13   -1    0    0    0    0 -0.00000000000E+00 -0.00000000000E+00 -0.10000000000E+04  0.10000000000E+04  0.00000000000E+00 0.  1.
    9000005    2    1    2  501    0 -0.75367687995E+01  0.66010424971E+01 -0.67664436491E+03  0.67679764274E+03  0.10347753507E+02 0.  0.
         13    1    3    3    0    0  0.25466106835E+01  0.12131692523E+01 -0.99119189437E+02  0.99159319886E+02  0.00000000000E+00 0.  1.
          1    1    3    3  501    0 -0.10083379483E+02  0.53878732447E+01 -0.57752517548E+03  0.57763832285E+03  0.00000000000E+00 0.  1.
         -1    1    1    2    0  502  0.75367687995E+01 -0.66010424971E+01 -0.32320137232E+03  0.32335662003E+03  0.00000000000E+00 0. -1.
<mgrwt>
<rscale>  1 0.30000000E+03</rscale>
<asrwt>0</asrwt>
<pdfrwt beam="1">  1       21 0.56095670E-03 0.30000000E+03</pdfrwt>
<pdfrwt beam="2">0</pdfrwt>
<totfact> 0.10026777E+06</totfact>
</mgrwt>
</event>
<event>
 6    1  0.1132867E-002  0.3000000E+03  0.7818608E-02  0.1093470E+00
         21   -1    0    0  501  502  0.00000000000E+00  0.00000000000E+00  0.20611951315E+00  0.20611951315E+00  0.00000000000E+00 0. -1.
         13   -1    0    0    0    0 -0.00000000000E+00 -0.00000000000E+00 -0.10000000000E+04  0.10000000000E+04  0.00000000000E+00 0.  1.
    9000005    2    1    2  501    0  0.56486839609E+01 -0.85458903780E+01 -0.73184733912E+03  0.73206382724E+03  0.14559516112E+02 0.  0.
         13    1    3    3    0    0  0.36386037175E+01 -0.11293777756E+02 -0.34954910922E+03  0.34975043761E+03  0.00000000000E+00 0.  1.
          1    1    3    3  501    0  0.20100802434E+01  0.27478873776E+01 -0.38229822990E+03  0.38231338963E+03  0.00000000000E+00 0.  1.
         -3    1    1    2    0  502 -0.56486839609E+01  0.85458903780E+01 -0.26794654137E+03  0.26814229227E+03  0.00000000000E+00 0. -1.
<mgrwt>
<rscale>  1 0.30000000E+03</rscale>
<asrwt>0</asrwt>
<pdfrwt beam="1">  1       21 0.74952708E-03 0.30000000E+03</pdfrwt>
<pdfrwt beam="2">0</pdfrwt>
<totfact> 0.63716059E+05</totfact>
</mgrwt>
</event>
<event>
 6    1  0.1132867E-002  0.3000000E+03  0.7818608E-02  0.1093470E+00
         21   -1    0    0  501  502  0.00000000000E+00  0.00000000000E+00  0.73380249579E-01  0.73380249579E-01  0.00000000000E+00 0. -1.
         13   -1    0    0    0    0 -0.00000000000E+00 -0.00000000000E+00 -0.10000000000E+04  0.10000000000E+04  0.00000000000E+00 0.  1.
    9000005    2    1    2  501    0 -0.32724015250E+00  0.73294862712E+01 -0.58375740721E+03  0.58383950138E+03  0.64826260141E+01 0.  0.
         13    1    3    3    0    0 -0.32430185955E+01  0.24899171429E+01 -0.21597956402E+03  0.21601826065E+03  0.00000000000E+00 0.  1.
          3    1    3    3  501    0  0.29157784430E+01  0.48395691283E+01 -0.36777784319E+03  0.36782124073E+03  0.00000000000E+00 0.  1.
         -1    1    1    2    0  502  0.32724015250E+00 -0.73294862712E+01 -0.41616921254E+03  0.41623387887E+03  0.00000000000E+00 0. -1.
<mgrwt>
<rscale>  1 0.30000000E+03</rscale>
<asrwt>0</asrwt>
<pdfrwt beam="1">  1       21 0.26683783E-03 0.30000000E+03</pdfrwt>
<pdfrwt beam="2">0</pdfrwt>
<totfact> 0.31517364E+06</totfact>
</mgrwt>
</event>
<event>
 6    1  0.1132867E-002  0.3000000E+03  0.7818608E-02  0.1093470E+00
         21   -1    0    0  501  502  0.00000000000E+00  0.00000000000E+00  0.33494520629E+00  0.33494520629E+00  0.00000000000E+00 0. -1.
         13   -1    0    0    0    0 -0.00000000000E+00 -0.00000000000E+00 -0.10000000000E+04  0.10000000000E+04  0.00000000000E+00 0.  1.
    9000005    2    1    2  501    0  0.61271939968E+00  0.10116107821E+02 -0.91521695321E+03  0.91528088638E+03  0.37839739194E+01 0.  0.
         13    1    3    3    0    0  0.16558323396E+01  0.22138228716E+01 -0.18957640715E+03  0.18959656363E+03  0.00000000000E+00 0.  1.
          3    1    3    3  501    0 -0.10431129399E+01  0.79022849497E+01 -0.72564054606E+03  0.72568432275E+03  0.00000000000E+00 0.  1.
         -1    1    1    2    0  502 -0.61271939968E+00 -0.10116107821E+02 -0.84448101583E+02  0.85054058830E+02  0.00000000000E+00 0. -1.
<mgrwt>
<rscale>  1 0.30000000E+03</rscale>
<asrwt>0</asrwt>
<pdfrwt beam="1">  1       21 0.12179851E-02 0.30000000E+03</pdfrwt>
<pdfrwt beam="2">0</pdfrwt>
<totfact> 0.29516930E+05</totfact>
</mgrwt>
</event>
<event>
 6    1  0.1132867E-002  0.3000000E+03  0.7818608E-02  0.1093470E+00
         21   -1    0    0  501  502  0.00000000000E+00  0.00000000000E+00  0.14303586277E+00  0.14303586277E+00  0.00000000000E+00 0. -1.
         13   -1    0    0    0    0 -0.00000000000E+00 -0.00000000000E+00 -0.10000000000E+04  0.10000000000E+04  0.00000000000E+00 0.  1.
    9000005    2    1    2  501    0 -0.85479105883E+01  0.55890658804E+01 -0.71745480344E+03  0.71755626193E+03  0.64257006738E+01 0.  0.
         13    1    3    3    0    0 -0.32697318528E+01  0.61098409234E+00 -0.93274729667E+02  0.93334021892E+02  0.00000000000E+00 0.  1.
          3    1    3    3  501    0 -0.52781787356E+01  0.49780817880E+01 -0.62418007377E+03  0.62422224004E+03  0.00000000000E+00 0.  1.
         -1    1    1    2    0  502  0.85479105883E+01 -0.55890658804E+01 -0.28240216070E+03  0.28258677393E+03  0.00000000000E+00 0. -1.
<mgrwt>
<rscale>  1 0.30000000E+03</rscale>
<asrwt>0</asrwt>
<pdfrwt beam="1">  1       21 0.52013151E-03 0.30000000E+03</pdfrwt>
<pdfrwt beam="2">0</pdfrwt>
<totfact> 0.11277332E+06</totfact>
</mgrwt>
</event>
<event>
 6    1  0.1132867E-002  0.3000000E+03  0.7818608E-02  0.1093470E+00
         21   -1    0    0  501  502  0.00000000000E+00  0.00000000000E+00  0.11987983759E+01  0.11987983759E+01  0.00000000000E+00 0. -1.
         13   -1    0    0    0    0 -0.00000000000E+00 -0.00000000000E+00 -0.10000000000E+04  0.10000000000E+04  0.00000000000E+00 0.  1.
    9000005    2    1    2  501    0 -0.33494516382E+02 -0.42197749707E+01 -0.53786739583E+03  0.53903036323E+03  0.10616395341E+02 0.  0.
         13    1    3    3    0    0 -0.33419067136E+02 -0.31122586303E+01 -0.48907044966E+03  0.49022079202E+03  0.00000000000E+00 0.  1.
          3    1    3    3  501    0 -0.75449246491E-01 -0.11075163403E+01 -0.48796946178E+02  0.48809571206E+02  0.00000000000E+00 0.  1.
         -1    1    1    2    0  502  0.33494516382E+02  0.42197749707E+01 -0.46093380579E+03  0.46216843515E+03  0.00000000000E+00 0. -1.
<mgrwt>
<rscale>  1 0.30000000E+03</rscale>
<asrwt>0</asrwt>
<pdfrwt beam="1">  1       21 0.43592760E-02 0.30000000E+03</pdfrwt>
<pdfrwt beam="2">0</pdfrwt>
<totfact> 0.36364518E+04</totfact>
</mgrwt>
</event>
<event>
 6    1  0.1132867E-002  0.3000000E+03  0.7818608E-02  0.1093470E+00
         21   -1    0    0  501  502  0.00000000000E+00  0.00000000000E+00  0.42609268210E+00  0.42609268210E+00  0.00000000000E+00 0. -1.
         13   -1    0    0    0    0 -0.00000000000E+00 -0.00000000000E+00 -0.10000000000E+04  0.10000000000E+04  0.00000000000E+00 0.  1.
    9000005    2    1    2  501    0 -0.98325935195E+01 -0.13160759990E+02 -0.30715313531E+03  0.30781046262E+03  0.11590809657E+02 0.  0.
         13    1    3    3    0    0 -0.12176858605E+02 -0.10962061788E+02 -0.22568136081E+03  0.22627531748E+03  0.00000000000E+00 0.  1.
          3    1    3    3  501    0  0.23442650854E+01 -0.21986982018E+01 -0.81471774504E+02  0.81535145143E+02  0.00000000000E+00 0.  1.
         -1    1    1    2    0  502  0.98325935195E+01  0.13160759990E+02 -0.69242077201E+03  0.69261563006E+03  0.00000000000E+00 0. -1.
<mgrwt>
<rscale>  1 0.30000000E+03</rscale>
<asrwt>0</asrwt>
<pdfrwt beam="1">  1       21 0.15494312E-02 0.30000000E+03</pdfrwt>
<pdfrwt beam="2">0</pdfrwt>
<totfact> 0.20054492E+05</totfact>
</mgrwt>
</event>
<event>
 6    1  0.1132867E-002  0.3000000E+03  0.7818608E-02  0.1093470E+00
         21   -1    0    0  501  502  0.00000000000E+00  0.00000000000E+00  0.42060487657E+00  0.42060487657E+00  0.00000000000E+00 0. -1.
         13   -1    0    0    0    0 -0.00000000000E+00 -0.00000000000E+00 -0.10000000000E+04  0.10000000000E+04  0.00000000000E+00 0.  1.
    9000005    2    1    2  501    0 -0.23907334664E+00 -0.14928372936E+02 -0.82710084962E+03  0.82729705901E+03  0.10084390370E+02 0.  0.
         13    1    3    3    0    0  0.33493339612E+01 -0.54718566155E+01 -0.49669773585E+03  0.49673916702E+03  0.00000000000E+00 0.  1.
          3    1    3    3  501    0 -0.35884073079E+01 -0.94565163209E+01 -0.33040311377E+03  0.33055789199E+03  0.00000000000E+00 0.  1.
         -1    1    1    2    0  502  0.23907334664E+00  0.14928372936E+02 -0.17247854551E+03  0.17312354587E+03  0.00000000000E+00 0. -1.
<mgrwt>
<rscale>  1 0.30000000E+03</rscale>
<asrwt>0</asrwt>
<pdfrwt beam="1">  1       21 0.15294755E-02 0.30000000E+03</pdfrwt>
<pdfrwt beam="2">0</pdfrwt>
<totfact> 0.20478063E+05</totfact>
</mgrwt>
</event>
<event>
 6    1  0.1132867E-002  0.3000000E+03  0.7818608E-02  0.1093470E+00
         21   -1    0    0  501  502  0.00000000000E+00  0.00000000000E+00  0.15832314800E+00  0.15832314800E+00  0.00000000000E+00 0. -1.
         13   -1    0    0    0    0 -0.00000000000E+00 -0.00000000000E+00 -0.10000000000E+04  0.10000000000E+04  0.00000000000E+00 0.  1.
    9000005    2    1    2  501    0 -0.33691402184E+01  0.98199750696E+01 -0.42287115096E+03  0.42309440055E+03  0.90043570730E+01 0.  0.
         13    1    3    3    0    0  0.27048041996E+01  0.18982863152E+01 -0.64873166636E+02  0.64957272157E+02  0.00000000000E+00 0.  1.
          1    1    3    3  501    0 -0.60739444180E+01  0.79216887544E+01 -0.35799798433E+03  0.35813712840E+03  0.00000000000E+00 0.  1.
         -3    1    1    2    0  502  0.33691402184E+01 -0.98199750696E+01 -0.57697052589E+03  0.57706392260E+03  0.00000000000E+00 0. -1.
<mgrwt>
<rscale>  1 0.30000000E+03</rscale>
<asrwt>0</asrwt>
<pdfrwt beam="1">  1       21 0.57572175E-03 0.30000000E+03</pdfrwt>
<pdfrwt beam="2">0</pdfrwt>
<totfact> 0.96290884E+05</totfact>
</mgrwt>
</event>
<event>
 6    1  0.1132867E-002  0.3000000E+03  0.7818608E-02  0.1093470E+00
         21   -1    0    0  501  502  0.00000000000E+00  0.00000000000E+00  0.86923419745E-01  0.86923419745E-01  0.00000000000E+00 0. -1.
         13   -1    0    0    0    0 -0.00000000000E+00 -0.00000000000E+00 -0.10000000000E+04  0.10000000000E+04  0.00000000000E+00 0.  1.
    9000005    2    1    2  501    0 -0.51641344599E+01 -0.63532949591E+01 -0.40045530229E+03  0.40057324068E+03  0.52382602896E+01 0.  0.
         13    1    3    3    0    0 -0.17554559013E+01 -0.57355470578E+01 -0.29524164954E+03  0.29530257322E+03  0.00000000000E+00 0.  1.
          1    1    3    3  501    0 -0.34086785586E+01 -0.61774790128E+00 -0.10521365275E+03  0.10527066746E+03  0.00000000000E+00 0.  1.
         -1    1    1    2    0  502  0.51641344599E+01  0.63532949591E+01 -0.59945777429E+03  0.59951368274E+03  0.00000000000E+00 0. -1.
<mgrwt>
<rscale>  1 0.30000000E+03</rscale>
<asrwt>0</asrwt>
<pdfrwt beam="1">  1       21 0.31608583E-03 0.30000000E+03</pdfrwt>
<pdfrwt beam="2">0</pdfrwt>
<totfact> 0.24323581E+06</totfact>
</mgrwt>
</event>
<event>
 6    1  0.1132867E-002  0.3000000E+03  0.7818608E-02  0.1093470E+00
         21   -1    0    0  501  502  0.00000000000E+00  0.00000000000E+00  0.23537940869E+00  0.23537940869E+00  0.00000000000E+00 0. -1.
         13   -1    0    0    0    0 -0.00000000000E+00 -0.00000000000E+00 -0.10000000000E+04  0.10000000000E+04  0.00000000000E+00 0.  1.
    9000005    2    1    2  501    0 -0.10060349788E+02  0.25365388059E+01 -0.86377809099E+03  0.86385363246E+03  0.47815455814E+01 0.  0.
         13    1    3    3    0    0 -0.10392091597E+01 -0.10938680552E+01 -0.71846547795E+02  0.71862388862E+02  0.00000000000E+00 0.  1.
          3    1    3    3  501    0 -0.90211406278E+01  0.36304068611E+01 -0.79193154320E+03  0.79199124360E+03  0.00000000000E+00 0.  1.
         -3    1    1    2    0  502  0.10060349788E+02 -0.25365388059E+01 -0.13598652960E+03  0.13638174695E+03  0.00000000000E+00 0. -1.
<mgrwt>
<rscale>  1 0.30000000E+03</rscale>
<asrwt>0</asrwt>
<pdfrwt beam="1">  1       21 0.85592693E-03 0.30000000E+03</pdfrwt>
<pdfrwt beam="2">0</pdfrwt>
<totfact> 0.51690594E+05</totfact>
</mgrwt>
</event>
<event>
 6    1  0.1132867E-002  0.3000000E+03  0.7818608E-02  0.1093470E+00
         21   -1    0    0  501  502  0.00000000000E+00  0.00000000000E+00  0.12224534274E+01  0.12224534274E+01  0.00000000000E+00 0. -1.
         13   -1    0    0    0    0 -0.00000000000E+00 -0.00000000000E+00 -0.10000000000E+04  0.10000000000E+04  0.00000000000E+00 0.  1.
    9000005    2    1    2  501    0 -0.30848883212E+01  0.26005694276E+02 -0.78802785916E+03  0.78885192012E+03  0.24771604739E+02 0.  0.
         13    1    3    3    0    0 -0.27693375336E+01  0.49760308884E+01 -0.30198039216E+02  0.30730305665E+02  0.00000000000E+00 0.  1.
          3    1    3    3  501    0 -0.31555078755E+00  0.21029663388E+02 -0.75782981994E+03  0.75812161446E+03  0.00000000000E+00 0.  1.
         -1    1    1    2    0  502  0.30848883212E+01 -0.26005694276E+02 -0.21074968742E+03  0.21237053331E+03  0.00000000000E+00 0. -1.
<mgrwt>
<rscale>  1 0.30000000E+03</rscale>
<asrwt>0</asrwt>
<pdfrwt beam="1">  1       21 0.44452946E-02 0.30000000E+03</pdfrwt>
<pdfrwt beam="2">0</pdfrwt>
<totfact> 0.35180498E+04</totfact>
</mgrwt>
</event>
<event>
 6    1  0.1132867E-002  0.3000000E+03  0.7818608E-02  0.1093470E+00
         21   -1    0    0  501  502  0.00000000000E+00  0.00000000000E+00  0.13582108910E+00  0.13582108910E+00  0.00000000000E+00 0. -1.
         13   -1    0    0    0    0 -0.00000000000E+00 -0.00000000000E+00 -0.10000000000E+04  0.10000000000E+04  0.00000000000E+00 0.  1.
    9000005    2    1    2  501    0  0.35891062844E+01 -0.92549130669E+01 -0.65050433529E+03  0.65063498356E+03  0.84531946176E+01 0.  0.
         13    1    3    3    0    0  0.24456927442E+01  0.75511759388E+00 -0.77957762263E+02  0.77999771235E+02  0.00000000000E+00 0.  1.
          1    1    3    3  501    0  0.11434135402E+01 -0.10010030661E+02 -0.57254657303E+03  0.57263521233E+03  0.00000000000E+00 0.  1.
         -1    1    1    2    0  502 -0.35891062844E+01  0.92549130669E+01 -0.34935984362E+03  0.34950083753E+03  0.00000000000E+00 0. -1.
<mgrwt>
<rscale>  1 0.30000000E+03</rscale>
<asrwt>0</asrwt>
<pdfrwt beam="1">  1       21 0.49389591E-03 0.30000000E+03</pdfrwt>
<pdfrwt beam="2">0</pdfrwt>
<totfact> 0.12221451E+06</totfact>
</mgrwt>
</event>
<event>
 6    1  0.1132867E-002  0.3000000E+03  0.7818608E-02  0.1093470E+00
         21   -1    0    0  501  502  0.00000000000E+00  0.00000000000E+00  0.14188308811E+00  0.14188308811E+00  0.00000000000E+00 0. -1.
         13   -1    0    0    0    0 -0.00000000000E+00 -0.00000000000E+00 -0.10000000000E+04  0.10000000000E+04  0.00000000000E+00 0.  1.
    9000005    2    1    2  501    0  0.64693331833E+01  0.82411113213E+01 -0.66151862161E+03  0.66164021061E+03  0.71493618532E+01 0.  0.
         13    1    3    3    0    0  0.63627198849E+01  0.28918559118E+01 -0.29639293734E+03  0.29647532838E+03  0.00000000000E+00 0.  1.
          3    1    3    3  501    0  0.10661329837E+00  0.53492554095E+01 -0.36512568428E+03  0.36516488224E+03  0.00000000000E+00 0.  1.
         -1    1    1    2    0  502 -0.64693331833E+01 -0.82411113213E+01 -0.33833949530E+03  0.33850167247E+03  0.00000000000E+00 0. -1.
<mgrwt>
<rscale>  1 0.30000000E+03</rscale>
<asrwt>0</asrwt>
<pdfrwt beam="1">  1       21 0.51593959E-03 0.30000000E+03</pdfrwt>
<pdfrwt beam="2">0</pdfrwt>
<totfact> 0.11420038E+06</totfact>
</mgrwt>
</event>
<event>
 6    1  0.1132867E-002  0.3000000E+03  0.7818608E-02  0.1093470E+00
         21   -1    0    0  501  502  0.00000000000E+00  0.00000000000E+00  0.10470504867E+00  0.10470504867E+00  0.00000000000E+00 0. -1.
         13   -1    0    0    0    0 -0.00000000000E+00 -0.00000000000E+00 -0.10000000000E+04  0.10000000000E+04  0.00000000000E+00 0.  1.
    9000005    2    1    2  501    0 -0.49438401021E+01  0.70389299877E+01 -0.73952346394E+03  0.73959083118E+03  0.50651522609E+01 0.  0.
         13    1    3    3    0    0 -0.55154305145E+01  0.38845335771E+01 -0.47357020949E+03  0.47361825650E+03  0.00000000000E+00 0.  1.
          1    1    3    3  501    0  0.57159041240E+00  0.31543964106E+01 -0.26595325445E+03  0.26597257469E+03  0.00000000000E+00 0.  1.
         -3    1    1    2    0  502  0.49438401021E+01 -0.70389299877E+01 -0.26037183102E+03  0.26051387387E+03  0.00000000000E+00 0. -1.
<mgrwt>
<rscale>  1 0.30000000E+03</rscale>
<asrwt>0</asrwt>
<pdfrwt beam="1">  1       21 0.38074643E-03 0.30000000E+03</pdfrwt>
<pdfrwt beam="2">0</pdfrwt>
<totfact> 0.18273938E+06</totfact>
</mgrwt>
</event>
<event>
 6    1  0.1132867E-002  0.3000000E+03  0.7818608E-02  0.1093470E+00
         21   -1    0    0  501  502  0.00000000000E+00  0.00000000000E+00  0.99858523341E+00  0.99858523341E+00  0.00000000000E+00 0. -1.
         13   -1    0    0    0    0 -0.00000000000E+00 -0.00000000000E+00 -0.10000000000E+04  0.10000000000E+04  0.00000000000E+00 0.  1.
    9000005    2    1    2  501    0 -0.15159863379E+02 -0.17856627250E+02 -0.76478828322E+03  0.76561704054E+03  0.26826367940E+02 0.  0.
         13    1    3    3    0    0  0.74242626859E+01 -0.47378624488E+01 -0.13465071707E+03  0.13493844013E+03  0.00000000000E+00 0.  1.
          1    1    3    3  501    0 -0.22584126065E+02 -0.13118764801E+02 -0.63013756615E+03  0.63067860041E+03  0.00000000000E+00 0.  1.
         -3    1    1    2    0  502  0.15159863379E+02  0.17856627250E+02 -0.23421313155E+03  0.23538154470E+03  0.00000000000E+00 0. -1.
<mgrwt>
<rscale>  1 0.30000000E+03</rscale>
<asrwt>0</asrwt>
<pdfrwt beam="1">  1       21 0.36312267E-02 0.30000000E+03</pdfrwt>
<pdfrwt beam="2">0</pdfrwt>
<totfact> 0.49468533E+04</totfact>
</mgrwt>
</event>
<event>
 6    1  0.1132867E-002  0.3000000E+03  0.7818608E-02  0.1093470E+00
         21   -1    0    0  501  502  0.00000000000E+00  0.00000000000E+00  0.14102495251E+01  0.14102495251E+01  0.00000000000E+00 0. -1.
         13   -1    0    0    0    0 -0.00000000000E+00 -0.00000000000E+00 -0.10000000000E+04  0.10000000000E+04  0.00000000000E+00 0.  1.
    9000005    2    1    2  501    0 -0.24919036091E+02 -0.31245699059E+01 -0.84517675030E+03  0.84595520805E+03  0.26186895305E+02 0.  0.
         13    1    3    3    0    0  0.43777371164E+01  0.34441846932E+01 -0.20378570403E+03  0.20386181633E+03  0.00000000000E+00 0.  1.
          3    1    3    3  501    0 -0.29296773207E+02 -0.65687545991E+01 -0.64139104627E+03  0.64209339172E+03  0.00000000000E+00 0.  1.
         -3    1    1    2    0  502  0.24919036091E+02  0.31245699059E+01 -0.15341300018E+03  0.15545504147E+03  0.00000000000E+00 0. -1.
<mgrwt>
<rscale>  1 0.30000000E+03</rscale>
<asrwt>0</asrwt>
<pdfrwt beam="1">  1       21 0.51281909E-02 0.30000000E+03</pdfrwt>
<pdfrwt beam="2">0</pdfrwt>
<totfact> 0.27587254E+04</totfact>
</mgrwt>
</event>
<event>
 6    1  0.1132867E-002  0.3000000E+03  0.7818608E-02  0.1093470E+00
         21   -1    0    0  501  502  0.00000000000E+00  0.00000000000E+00  0.11802432917E+00  0.11802432917E+00  0.00000000000E+00 0. -1.
         13   -1    0    0    0    0 -0.00000000000E+00 -0.00000000000E+00 -0.10000000000E+04  0.10000000000E+04  0.00000000000E+00 0.  1.
    9000005    2    1    2  501    0 -0.71950080481E+01 -0.39676833627E+01 -0.55114623319E+03  0.55130706499E+03  0.10478496328E+02 0.  0.
         13    1    3    3    0    0 -0.45459029100E+00 -0.11144731691E+01 -0.64314161306E+01  0.65430739123E+01  0.00000000000E+00 0.  1.
          3    1    3    3  501    0 -0.67404177571E+01 -0.28532101936E+01 -0.54471481706E+03  0.54476399107E+03  0.00000000000E+00 0.  1.
         -1    1    1    2    0  502  0.71950080481E+01  0.39676833627E+01 -0.44873574248E+03  0.44881095934E+03  0.00000000000E+00 0. -1.
<mgrwt>
<rscale>  1 0.30000000E+03</rscale>
<asrwt>0</asrwt>
<pdfrwt beam="1">  1       21 0.42918028E-03 0.30000000E+03</pdfrwt>
<pdfrwt beam="2">0</pdfrwt>
<totfact> 0.15190861E+06</totfact>
</mgrwt>
</event>
<event>
 6    1  0.1132867E-002  0.3000000E+03  0.7818608E-02  0.1093470E+00
         21   -1    0    0  501  502  0.00000000000E+00  0.00000000000E+00  0.93149566240E+01  0.93149566240E+01  0.00000000000E+00 0. -1.
         13   -1    0    0    0    0 -0.00000000000E+00 -0.00000000000E+00 -0.10000000000E+04  0.10000000000E+04  0.00000000000E+00 0.  1.
    9000005    2    1    2  501    0 -0.59726730207E+02 -0.47155081687E+01 -0.89043783745E+03  0.89252873905E+03  0.11768150005E+02 0.  0.
         13    1    3    3    0    0 -0.43699394783E+02 -0.73552087625E+01 -0.69884778659E+03  0.70025135845E+03  0.00000000000E+00 0.  1.
          3    1    3    3  501    0 -0.16027335425E+02  0.26397005938E+01 -0.19159005086E+03  0.19227738060E+03  0.00000000000E+00 0.  1.
         -3    1    1    2    0  502  0.59726730207E+02  0.47155081687E+01 -0.10024720593E+03  0.11678621757E+03  0.00000000000E+00 0. -1.
<mgrwt>
<rscale>  1 0.30000000E+03</rscale>
<asrwt>0</asrwt>
<pdfrwt beam="1">  1       21 0.33872641E-01 0.30000000E+03</pdfrwt>
<pdfrwt beam="2">0</pdfrwt>
<totfact> 0.85080529E+02</totfact>
</mgrwt>
</event>
<event>
 6    1  0.1132867E-002  0.3000000E+03  0.7818608E-02  0.1093470E+00
         21   -1    0    0  501  502  0.00000000000E+00  0.00000000000E+00  0.38977087564E+00  0.38977087564E+00  0.00000000000E+00 0. -1.
         13   -1    0    0    0    0 -0.00000000000E+00 -0.00000000000E+00 -0.10000000000E+04  0.10000000000E+04  0.00000000000E+00 0.  1.
    9000005    2    1    2  501    0 -0.86298501502E+01  0.52591148569E+01 -0.87178942209E+03  0.87217007148E+03  0.23700306144E+02 0.  0.
         13    1    3    3    0    0  0.70241306807E+01 -0.15366367428E+01 -0.14277839729E+03  0.14295933127E+03  0.00000000000E+00 0.  1.
          3    1    3    3  501    0 -0.15653980831E+02  0.67957515998E+01 -0.72901102480E+03  0.72921074020E+03  0.00000000000E+00 0.  1.
         -1    1    1    2    0  502  0.86298501502E+01 -0.52591148569E+01 -0.12782080704E+03  0.12821969940E+03  0.00000000000E+00 0. -1.
<mgrwt>
<rscale>  1 0.30000000E+03</rscale>
<asrwt>0</asrwt>
<pdfrwt beam="1">  1       21 0.14173516E-02 0.30000000E+03</pdfrwt>
<pdfrwt beam="2">0</pdfrwt>
<totfact> 0.23147755E+05</totfact>
</mgrwt>
</event>
<event>
 6    1  0.1132867E-002  0.3000000E+03  0.7818608E-02  0.1093470E+00
         21   -1    0    0  501  502  0.00000000000E+00  0.00000000000E+00  0.44479810810E+00  0.44479810810E+00  0.00000000000E+00 0. -1.
         13   -1    0    0    0    0 -0.00000000000E+00 -0.00000000000E+00 -0.10000000000E+04  0.10000000000E+04  0.00000000000E+00 0.  1.
    9000005    2    1    2  501    0 -0.41160023086E+00 -0.18427743053E+02 -0.40709248821E+03  0.40769542592E+03  0.12309152222E+02 0.  0.
         13    1    3    3    0    0 -0.29537743660E+01 -0.33759243745E+01 -0.19616864444E+03  0.19621992434E+03  0.00000000000E+00 0.  1.
          1    1    3    3  501    0  0.25421741352E+01 -0.15051818679E+02 -0.21092384378E+03  0.21147550158E+03  0.00000000000E+00 0.  1.
         -1    1    1    2    0  502  0.41160023086E+00  0.18427743053E+02 -0.59246271368E+03  0.59274937219E+03  0.00000000000E+00 0. -1.
<mgrwt>
<rscale>  1 0.30000000E+03</rscale>
<asrwt>0</asrwt>
<pdfrwt beam="1">  1       21 0.16174511E-02 0.30000000E+03</pdfrwt>
<pdfrwt beam="2">0</pdfrwt>
<totfact> 0.18710579E+05</totfact>
</mgrwt>
</event>
<event>
 6    1  0.1132867E-002  0.3000000E+03  0.7818608E-02  0.1093470E+00
         21   -1    0    0  501  502  0.00000000000E+00  0.00000000000E+00  0.23939452298E+00  0.23939452298E+00  0.00000000000E+00 0. -1.
         13   -1    0    0    0    0 -0.00000000000E+00 -0.00000000000E+00 -0.10000000000E+04  0.10000000000E+04  0.00000000000E+00 0.  1.
    9000005    2    1    2  501    0 -0.84588920280E+01 -0.88072558262E+01 -0.79647358519E+03  0.79658593094E+03  0.54637777176E+01 0.  0.
         13    1    3    3    0    0 -0.76454908162E+01 -0.66947367288E+01 -0.49752893028E+03  0.49763270541E+03  0.00000000000E+00 0.  1.
          3    1    3    3  501    0 -0.81340121181E+00 -0.21125190974E+01 -0.29894465491E+03  0.29895322553E+03  0.00000000000E+00 0.  1.
         -3    1    1    2    0  502  0.84588920280E+01  0.88072558262E+01 -0.20328702029E+03  0.20365346358E+03  0.00000000000E+00 0. -1.
<mgrwt>
<rscale>  1 0.30000000E+03</rscale>
<asrwt>0</asrwt>
<pdfrwt beam="1">  1       21 0.87052737E-03 0.30000000E+03</pdfrwt>
<pdfrwt beam="2">0</pdfrwt>
<totfact> 0.50328296E+05</totfact>
</mgrwt>
</event>
<event>
 6    1  0.1132867E-002  0.3000000E+03  0.7818608E-02  0.1093470E+00
         21   -1    0    0  501  502  0.00000000000E+00  0.00000000000E+00  0.14282903547E+00  0.14282903547E+00  0.00000000000E+00 0. -1.
         13   -1    0    0    0    0 -0.00000000000E+00 -0.00000000000E+00 -0.10000000000E+04  0.10000000000E+04  0.00000000000E+00 0.  1.
    9000005    2    1    2  501    0  0.67220251652E+01 -0.80598949416E+01 -0.36063406059E+03  0.36083356712E+03  0.58129146786E+01 0.  0.
         13    1    3    3    0    0 -0.22280268689E+00  0.64158409435E+00 -0.10131469343E+02  0.10154208105E+02  0.00000000000E+00 0.  1.
          3    1    3    3  501    0  0.69448278521E+01 -0.87014790360E+01 -0.35050259124E+03  0.35067935902E+03  0.00000000000E+00 0.  1.
         -3    1    1    2    0  502 -0.67220251652E+01  0.80598949416E+01 -0.63922311038E+03  0.63930926191E+03  0.00000000000E+00 0. -1.
<mgrwt>
<rscale>  1 0.30000000E+03</rscale>
<asrwt>0</asrwt>
<pdfrwt beam="1">  1       21 0.51937941E-03 0.30000000E+03</pdfrwt>
<pdfrwt beam="2">0</pdfrwt>
<totfact> 0.11302721E+06</totfact>
</mgrwt>
</event>
<event>
 6    1  0.1132867E-002  0.3000000E+03  0.7818608E-02  0.1093470E+00
         21   -1    0    0  501  502  0.00000000000E+00  0.00000000000E+00  0.13226776004E+00  0.13226776004E+00  0.00000000000E+00 0. -1.
         13   -1    0    0    0    0 -0.00000000000E+00 -0.00000000000E+00 -0.10000000000E+04  0.10000000000E+04  0.00000000000E+00 0.  1.
    9000005    2    1    2  501    0  0.10730473680E+02 -0.11158960665E+01 -0.60351988422E+03  0.60363762099E+03  0.50733157613E+01 0.  0.
         13    1    3    3    0    0  0.82050640908E+01 -0.22832581253E+01 -0.35493321790E+03  0.35503538628E+03  0.00000000000E+00 0.  1.
          3    1    3    3  501    0  0.25254095888E+01  0.11673620588E+01 -0.24858666633E+03  0.24860223471E+03  0.00000000000E+00 0.  1.
         -3    1    1    2    0  502 -0.10730473680E+02  0.11158960665E+01 -0.39634784802E+03  0.39649464677E+03  0.00000000000E+00 0. -1.
<mgrwt>
<rscale>  1 0.30000000E+03</rscale>
<asrwt>0</asrwt>
<pdfrwt beam="1">  1       21 0.48097469E-03 0.30000000E+03</pdfrwt>
<pdfrwt beam="2">0</pdfrwt>
<totfact> 0.12734785E+06</totfact>
</mgrwt>
</event>
<event>
 6    1  0.1132867E-002  0.3000000E+03  0.7818608E-02  0.1093470E+00
         21   -1    0    0  501  502  0.00000000000E+00  0.00000000000E+00  0.73773018440E+00  0.73773018440E+00  0.00000000000E+00 0. -1.
         13   -1    0    0    0    0 -0.00000000000E+00 -0.00000000000E+00 -0.10000000000E+04  0.10000000000E+04  0.00000000000E+00 0.  1.
    9000005    2    1    2  501    0  0.26615288589E+02 -0.16012768202E+01 -0.46725122882E+03  0.46805894760E+03  0.66730743082E+01 0.  0.
         13    1    3    3    0    0  0.84188537052E+00 -0.14901068778E+01 -0.29877137369E+02  0.29926117805E+02  0.00000000000E+00 0.  1.
          1    1    3    3  501    0  0.25773403218E+02 -0.11116994238E+00 -0.43737409145E+03  0.43813282980E+03  0.00000000000E+00 0.  1.
         -1    1    1    2    0  502 -0.26615288589E+02  0.16012768202E+01 -0.53201104099E+03  0.53267878258E+03  0.00000000000E+00 0. -1.
<mgrwt>
<rscale>  1 0.30000000E+03</rscale>
<asrwt>0</asrwt>
<pdfrwt beam="1">  1       21 0.26826609E-02 0.30000000E+03</pdfrwt>
<pdfrwt beam="2">0</pdfrwt>
<totfact> 0.81874697E+04</totfact>
</mgrwt>
</event>
<event>
 6    1  0.1132867E-002  0.3000000E+03  0.7818608E-02  0.1093470E+00
         21   -1    0    0  501  502  0.00000000000E+00  0.00000000000E+00  0.10277735282E+00  0.10277735282E+00  0.00000000000E+00 0. -1.
         13   -1    0    0    0    0 -0.00000000000E+00 -0.00000000000E+00 -0.10000000000E+04  0.10000000000E+04  0.00000000000E+00 0.  1.
    9000005    2    1    2  501    0  0.16546378260E+01 -0.93215404581E+01 -0.52858015461E+03  0.52869063541E+03  0.52133660505E+01 0.  0.
         13    1    3    3    0    0  0.14402817022E+01 -0.82615551233E+01 -0.32679997393E+03  0.32690755676E+03  0.00000000000E+00 0.  1.
          3    1    3    3  501    0  0.21435612378E+00 -0.10599853348E+01 -0.20178018067E+03  0.20178307865E+03  0.00000000000E+00 0.  1.
         -3    1    1    2    0  502 -0.16546378260E+01  0.93215404581E+01 -0.47131706804E+03  0.47141214194E+03  0.00000000000E+00 0. -1.
<mgrwt>
<rscale>  1 0.30000000E+03</rscale>
<asrwt>0</asrwt>
<pdfrwt beam="1">  1       21 0.37373662E-03 0.30000000E+03</pdfrwt>
<pdfrwt beam="2">0</pdfrwt>
<totfact> 0.18804684E+06</totfact>
</mgrwt>
</event>
<event>
 6    1  0.1132867E-002  0.3000000E+03  0.7818608E-02  0.1093470E+00
         21   -1    0    0  501  502  0.00000000000E+00  0.00000000000E+00  0.26126509860E+01  0.26126509860E+01  0.00000000000E+00 0. -1.
         13   -1    0    0    0    0 -0.00000000000E+00 -0.00000000000E+00 -0.10000000000E+04  0.10000000000E+04  0.00000000000E+00 0.  1.
    9000005    2    1    2  501    0 -0.30750362737E+02 -0.32993455500E+02 -0.64691898203E+03  0.64925415149E+03  0.31506046937E+02 0.  0.
         13    1    3    3    0    0 -0.14703464805E+02  0.10196039446E+01 -0.10467801805E+03  0.10571054315E+03  0.00000000000E+00 0.  1.
          3    1    3    3  501    0 -0.16046897932E+02 -0.34013059444E+02 -0.54224096398E+03  0.54354360833E+03  0.00000000000E+00 0.  1.
         -3    1    1    2    0  502  0.30750362737E+02  0.32993455500E+02 -0.35046836698E+03  0.35335849950E+03  0.00000000000E+00 0. -1.
<mgrwt>
<rscale>  1 0.30000000E+03</rscale>
<asrwt>0</asrwt>
<pdfrwt beam="1">  1       21 0.95005691E-02 0.30000000E+03</pdfrwt>
<pdfrwt beam="2">0</pdfrwt>
<totfact> 0.94267180E+03</totfact>
</mgrwt>
</event>
<event>
 6    1  0.1132867E-002  0.3000000E+03  0.7818608E-02  0.1093470E+00
         21   -1    0    0  501  502  0.00000000000E+00  0.00000000000E+00  0.16126457267E+01  0.16126457267E+01  0.00000000000E+00 0. -1.
         13   -1    0    0    0    0 -0.00000000000E+00 -0.00000000000E+00 -0.10000000000E+04  0.10000000000E+04  0.00000000000E+00 0.  1.
    9000005    2    1    2  501    0 -0.15329531418E+02  0.97200630776E+01 -0.94577162273E+03  0.94595395938E+03  0.39315074361E+01 0.  0.
         13    1    3    3    0    0 -0.10744368861E+02  0.61753726128E+01 -0.54792513693E+03  0.54806526288E+03  0.00000000000E+00 0.  1.
          3    1    3    3  501    0 -0.45851625573E+01  0.35446904649E+01 -0.39784648579E+03  0.39788869650E+03  0.00000000000E+00 0.  1.
         -1    1    1    2    0  502  0.15329531418E+02 -0.97200630776E+01 -0.52615731548E+02  0.55658686348E+02  0.00000000000E+00 0. -1.
<mgrwt>
<rscale>  1 0.30000000E+03</rscale>
<asrwt>0</asrwt>
<pdfrwt beam="1">  1       21 0.58641786E-02 0.30000000E+03</pdfrwt>
<pdfrwt beam="2">0</pdfrwt>
<totfact> 0.21920040E+04</totfact>
</mgrwt>
</event>
<event>
 6    1  0.1132867E-002  0.3000000E+03  0.7818608E-02  0.1093470E+00
         21   -1    0    0  501  502  0.00000000000E+00  0.00000000000E+00  0.10399639520E+00  0.10399639520E+00  0.00000000000E+00 0. -1.
         13   -1    0    0    0    0 -0.00000000000E+00 -0.00000000000E+00 -0.10000000000E+04  0.10000000000E+04  0.00000000000E+00 0.  1.
    9000005    2    1    2  501    0 -0.80528082551E+01  0.16093986343E+01 -0.49594225750E+03  0.49608334593E+03  0.85161873944E+01 0.  0.
         13    1    3    3    0    0 -0.36790631282E+01  0.44255614998E+01 -0.16526785514E+03  0.16536802908E+03  0.00000000000E+00 0.  1.
          1    1    3    3  501    0 -0.43737451269E+01 -0.28161628655E+01 -0.33067440236E+03  0.33071531684E+03  0.00000000000E+00 0.  1.
         -1    1    1    2    0  502  0.80528082551E+01 -0.16093986343E+01 -0.50395374611E+03  0.50402065047E+03  0.00000000000E+00 0. -1.
<mgrwt>
<rscale>  1 0.30000000E+03</rscale>
<asrwt>0</asrwt>
<pdfrwt beam="1">  1       21 0.37816951E-03 0.30000000E+03</pdfrwt>
<pdfrwt beam="2">0</pdfrwt>
<totfact> 0.18466193E+06</totfact>
</mgrwt>
</event>
<event>
 6    1  0.1132867E-002  0.3000000E+03  0.7818608E-02  0.1093470E+00
         21   -1    0    0  501  502  0.00000000000E+00  0.00000000000E+00  0.35301101709E+00  0.35301101709E+00  0.00000000000E+00 0. -1.
         13   -1    0    0    0    0 -0.00000000000E+00 -0.00000000000E+00 -0.10000000000E+04  0.10000000000E+04  0.00000000000E+00 0.  1.
    9000005    2    1    2  501    0  0.19253091521E+00  0.16627562730E+02 -0.46982425652E+03  0.47026939427E+03  0.11914623825E+02 0.  0.
         13    1    3    3    0    0 -0.46783384168E+01  0.14202102195E+02 -0.36005240775E+03  0.36036276568E+03  0.00000000000E+00 0.  1.
          3    1    3    3  501    0  0.48708693320E+01  0.24254605341E+01 -0.10977184876E+03  0.10990662859E+03  0.00000000000E+00 0.  1.
         -3    1    1    2    0  502 -0.19253091521E+00 -0.16627562730E+02 -0.52982273247E+03  0.53008361675E+03  0.00000000000E+00 0. -1.
<mgrwt>
<rscale>  1 0.30000000E+03</rscale>
<asrwt>0</asrwt>
<pdfrwt beam="1">  1       21 0.12836791E-02 0.30000000E+03</pdfrwt>
<pdfrwt beam="2">0</pdfrwt>
<totfact> 0.27137401E+05</totfact>
</mgrwt>
</event>
<event>
 6    1  0.1132867E-002  0.3000000E+03  0.7818608E-02  0.1093470E+00
         21   -1    0    0  501  502  0.00000000000E+00  0.00000000000E+00  0.13031508126E+01  0.13031508126E+01  0.00000000000E+00 0. -1.
         13   -1    0    0    0    0 -0.00000000000E+00 -0.00000000000E+00 -0.10000000000E+04  0.10000000000E+04  0.00000000000E+00 0.  1.
    9000005    2    1    2  501    0  0.15473532750E+02  0.29505767519E+02 -0.65861174659E+03  0.65958997059E+03  0.13396865950E+02 0.  0.
         13    1    3    3    0    0  0.17091481248E+02  0.29543290005E+02 -0.61292002054E+03  0.61386959226E+03  0.00000000000E+00 0.  1.
          3    1    3    3  501    0 -0.16179484987E+01 -0.37522485351E-01 -0.45691726047E+02  0.45720378328E+02  0.00000000000E+00 0.  1.
         -3    1    1    2    0  502 -0.15473532750E+02 -0.29505767519E+02 -0.34008510260E+03  0.34171318023E+03  0.00000000000E+00 0. -1.
<mgrwt>
<rscale>  1 0.30000000E+03</rscale>
<asrwt>0</asrwt>
<pdfrwt beam="1">  1       21 0.47387402E-02 0.30000000E+03</pdfrwt>
<pdfrwt beam="2">0</pdfrwt>
<totfact> 0.31560690E+04</totfact>
</mgrwt>
</event>
<event>
 6    1  0.1132867E-002  0.3000000E+03  0.7818608E-02  0.1093470E+00
         21   -1    0    0  501  502  0.00000000000E+00  0.00000000000E+00  0.78480095118E-01  0.78480095118E-01  0.00000000000E+00 0. -1.
         13   -1    0    0    0    0 -0.00000000000E+00 -0.00000000000E+00 -0.10000000000E+04  0.10000000000E+04  0.00000000000E+00 0.  1.
    9000005    2    1    2  501    0  0.36760214268E+01 -0.77214915928E+01 -0.53240236825E+03  0.53248111940E+03  0.32750926967E+01 0.  0.
         13    1    3    3    0    0  0.36637915016E+01 -0.79901135661E+01 -0.52550717973E+03  0.52558068955E+03  0.00000000000E+00 0.  1.
          3    1    3    3  501    0  0.12229925196E-01  0.26862197325E+00 -0.68951885186E+01  0.69004298448E+01  0.00000000000E+00 0.  1.
         -1    1    1    2    0  502 -0.36760214268E+01  0.77214915928E+01 -0.46751915165E+03  0.46759736070E+03  0.00000000000E+00 0. -1.
<mgrwt>
<rscale>  1 0.30000000E+03</rscale>
<asrwt>0</asrwt>
<pdfrwt beam="1">  1       21 0.28538277E-03 0.30000000E+03</pdfrwt>
<pdfrwt beam="2">0</pdfrwt>
<totfact> 0.28443541E+06</totfact>
</mgrwt>
</event>
<event>
 6    1  0.1132867E-002  0.3000000E+03  0.7818608E-02  0.1093470E+00
         21   -1    0    0  501  502  0.00000000000E+00  0.00000000000E+00  0.12163624395E+00  0.12163624395E+00  0.00000000000E+00 0. -1.
         13   -1    0    0    0    0 -0.00000000000E+00 -0.00000000000E+00 -0.10000000000E+04  0.10000000000E+04  0.00000000000E+00 0.  1.
    9000005    2    1    2  501    0 -0.40395444257E+01  0.78822010357E+01 -0.77366029800E+03  0.77373024885E+03  0.54584127446E+01 0.  0.
         13    1    3    3    0    0  0.40080091774E+00 -0.67016218287E-01 -0.17711220223E+03  0.17711266841E+03  0.00000000000E+00 0.  1.
          3    1    3    3  501    0 -0.44403453435E+01  0.79492172540E+01 -0.59654809576E+03  0.59661758043E+03  0.00000000000E+00 0.  1.
         -3    1    1    2    0  502  0.40395444257E+01 -0.78822010357E+01 -0.22621806576E+03  0.22639138740E+03  0.00000000000E+00 0. -1.
<mgrwt>
<rscale>  1 0.30000000E+03</rscale>
<asrwt>0</asrwt>
<pdfrwt beam="1">  1       21 0.44231455E-03 0.30000000E+03</pdfrwt>
<pdfrwt beam="2">0</pdfrwt>
<totfact> 0.14499294E+06</totfact>
</mgrwt>
</event>
<event>
 6    1  0.1132867E-002  0.3000000E+03  0.7818608E-02  0.1093470E+00
         21   -1    0    0  501  502  0.00000000000E+00  0.00000000000E+00  0.21027293451E+00  0.21027293451E+00  0.00000000000E+00 0. -1.
         13   -1    0    0    0    0 -0.00000000000E+00 -0.00000000000E+00 -0.10000000000E+04  0.10000000000E+04  0.00000000000E+00 0.  1.
    9000005    2    1    2  501    0 -0.84803801881E+01  0.56932380440E+01 -0.21094072926E+03  0.21129515003E+03  0.67319654044E+01 0.  0.
         13    1    3    3    0    0 -0.18392235406E+01  0.50740679837E+01 -0.11189847794E+03  0.11202856008E+03  0.00000000000E+00 0.  1.
          1    1    3    3  501    0 -0.66411566475E+01  0.61917006028E+00 -0.99042251322E+02  0.99266589949E+02  0.00000000000E+00 0.  1.
         -1    1    1    2    0  502  0.84803801881E+01 -0.56932380440E+01 -0.78884899781E+03  0.78891512291E+03  0.00000000000E+00 0. -1.
<mgrwt>
<rscale>  1 0.30000000E+03</rscale>
<asrwt>0</asrwt>
<pdfrwt beam="1">  1       21 0.76463047E-03 0.30000000E+03</pdfrwt>
<pdfrwt beam="2">0</pdfrwt>
<totfact> 0.61748625E+05</totfact>
</mgrwt>
</event>
<event>
 6    1  0.1132867E-002  0.3000000E+03  0.7818608E-02  0.1093470E+00
         21   -1    0    0  501  502  0.00000000000E+00  0.00000000000E+00  0.50978799461E+00  0.50978799461E+00  0.00000000000E+00 0. -1.
         13   -1    0    0    0    0 -0.00000000000E+00 -0.00000000000E+00 -0.10000000000E+04  0.10000000000E+04  0.00000000000E+00 0.  1.
    9000005    2    1    2  501    0  0.19538887591E+02 -0.12543442830E+01 -0.70065375784E+03  0.70103263053E+03  0.12153977856E+02 0.  0.
         13    1    3    3    0    0  0.16870423240E+02 -0.38902183606E+01 -0.65372492912E+03  0.65395414819E+03  0.00000000000E+00 0.  1.
          3    1    3    3  501    0  0.26684643506E+01  0.26358740776E+01 -0.46928828724E+02  0.47078482341E+02  0.00000000000E+00 0.  1.
         -1    1    1    2    0  502 -0.19538887591E+02  0.12543442830E+01 -0.29883645416E+03  0.29947715747E+03  0.00000000000E+00 0. -1.
<mgrwt>
<rscale>  1 0.30000000E+03</rscale>
<asrwt>0</asrwt>
<pdfrwt beam="1">  1       21 0.18537784E-02 0.30000000E+03</pdfrwt>
<pdfrwt beam="2">0</pdfrwt>
<totfact> 0.14999408E+05</totfact>
</mgrwt>
</event>
<event>
 6    1  0.1132867E-002  0.3000000E+03  0.7818608E-02  0.1093470E+00
         21   -1    0    0  501  502  0.00000000000E+00  0.00000000000E+00  0.25926214905E+00  0.25926214905E+00  0.00000000000E+00 0. -1.
         13   -1    0    0    0    0 -0.00000000000E+00 -0.00000000000E+00 -0.10000000000E+04  0.10000000000E+04  0.00000000000E+00 0.  1.
    9000005    2    1    2  501    0  0.94700628470E+01  0.54634156449E+01 -0.82423633053E+03  0.82441464896E+03  0.13208097616E+02 0.  0.
         13    1    3    3    0    0 -0.26373600874E+01  0.26275921037E+01 -0.96003780397E+02  0.96075937461E+02  0.00000000000E+00 0.  1.
          1    1    3    3  501    0  0.12107422934E+02  0.28358235412E+01 -0.72823255014E+03  0.72833871149E+03  0.00000000000E+00 0.  1.
         -1    1    1    2    0  502 -0.94700628470E+01 -0.54634156449E+01 -0.17550440732E+03  0.17584461319E+03  0.00000000000E+00 0. -1.
<mgrwt>
<rscale>  1 0.30000000E+03</rscale>
<asrwt>0</asrwt>
<pdfrwt beam="1">  1       21 0.94277344E-03 0.30000000E+03</pdfrwt>
<pdfrwt beam="2">0</pdfrwt>
<totfact> 0.44366906E+05</totfact>
</mgrwt>
</event>
<event>
 6    1  0.1132867E-002  0.3000000E+03  0.7818608E-02  0.1093470E+00
         21   -1    0    0  501  502  0.00000000000E+00  0.00000000000E+00  0.37888489916E+00  0.37888489916E+00  0.00000000000E+00 0. -1.
         13   -1    0    0    0    0 -0.00000000000E+00 -0.00000000000E+00 -0.10000000000E+04  0.10000000000E+04  0.00000000000E+00 0.  1.
    9000005    2    1    2  501    0  0.56044448273E+01 -0.86665814029E+01 -0.86834761607E+03  0.86870029521E+03  0.22496691455E+02 0.  0.
         13    1    3    3    0    0 -0.24540760158E+01 -0.63929481732E+01 -0.75859329621E+02  0.76167776428E+02  0.00000000000E+00 0.  1.
          3    1    3    3  501    0  0.80585208431E+01 -0.22736332297E+01 -0.79248828645E+03  0.79253251878E+03  0.00000000000E+00 0.  1.
         -1    1    1    2    0  502 -0.56044448273E+01  0.86665814029E+01 -0.13127349903E+03  0.13167858969E+03  0.00000000000E+00 0. -1.
<mgrwt>
<rscale>  1 0.30000000E+03</rscale>
<asrwt>0</asrwt>
<pdfrwt beam="1">  1       21 0.13777662E-02 0.30000000E+03</pdfrwt>
<pdfrwt beam="2">0</pdfrwt>
<totfact> 0.24225703E+05</totfact>
</mgrwt>
</event>
<event>
 6    1  0.1132867E-002  0.3000000E+03  0.7818608E-02  0.1093470E+00
         21   -1    0    0  501  502  0.00000000000E+00  0.00000000000E+00  0.16366886930E+00  0.16366886930E+00  0.00000000000E+00 0. -1.
         13   -1    0    0    0    0 -0.00000000000E+00 -0.00000000000E+00 -0.10000000000E+04  0.10000000000E+04  0.00000000000E+00 0.  1.
    9000005    2    1    2  501    0  0.68127928683E+01  0.58520470580E+01 -0.65758084453E+03  0.65779036572E+03  0.13962003408E+02 0.  0.
         13    1    3    3    0    0 -0.40245042643E+01  0.37458835421E+01 -0.24644317629E+03  0.24650449777E+03  0.00000000000E+00 0.  1.
          1    1    3    3  501    0  0.10837297133E+02  0.21061635159E+01 -0.41113766824E+03  0.41128586796E+03  0.00000000000E+00 0.  1.
         -3    1    1    2    0  502 -0.68127928683E+01 -0.58520470580E+01 -0.34225548660E+03  0.34237330315E+03  0.00000000000E+00 0. -1.
<mgrwt>
<rscale>  1 0.30000000E+03</rscale>
<asrwt>0</asrwt>
<pdfrwt beam="1">  1       21 0.59516078E-03 0.30000000E+03</pdfrwt>
<pdfrwt beam="2">0</pdfrwt>
<totfact> 0.91431729E+05</totfact>
</mgrwt>
</event>
<event>
 6    1  0.1132867E-002  0.3000000E+03  0.7818608E-02  0.1093470E+00
         21   -1    0    0  501  502  0.00000000000E+00  0.00000000000E+00  0.30547289978E+00  0.30547289978E+00  0.00000000000E+00 0. -1.
         13   -1    0    0    0    0 -0.00000000000E+00 -0.00000000000E+00 -0.10000000000E+04  0.10000000000E+04  0.00000000000E+00 0.  1.
    9000005    2    1    2  501    0  0.10439818441E+02 -0.41527652121E+01 -0.47620770850E+03  0.47669809660E+03  0.18467766478E+02 0.  0.
         13    1    3    3    0    0  0.56458567370E+01  0.12084019112E+00 -0.43094838343E+03  0.43098538198E+03  0.00000000000E+00 0.  1.
          1    1    3    3  501    0  0.47939617038E+01 -0.42736054032E+01 -0.45259325066E+02  0.45712714614E+02  0.00000000000E+00 0.  1.
         -3    1    1    2    0  502 -0.10439818441E+02  0.41527652121E+01 -0.52348681860E+03  0.52360737630E+03  0.00000000000E+00 0. -1.
<mgrwt>
<rscale>  1 0.30000000E+03</rscale>
<asrwt>0</asrwt>
<pdfrwt beam="1">  1       21 0.11108129E-02 0.30000000E+03</pdfrwt>
<pdfrwt beam="2">0</pdfrwt>
<totfact> 0.34188707E+05</totfact>
</mgrwt>
</event>
<event>
 6    1  0.1132867E-002  0.3000000E+03  0.7818608E-02  0.1093470E+00
         21   -1    0    0  501  502  0.00000000000E+00  0.00000000000E+00  0.71115865510E+00  0.71115865510E+00  0.00000000000E+00 0.  1.
         13   -1    0    0    0    0 -0.00000000000E+00 -0.00000000000E+00 -0.10000000000E+04  0.10000000000E+04  0.00000000000E+00 0.  1.
    9000005    2    1    2  501    0 -0.10832055183E+02 -0.40932360978E+01 -0.93912568989E+03  0.93944377096E+03  0.21527874827E+02 0.  0.
         13    1    3    3    0    0 -0.16522797926E+02 -0.71255103718E+01 -0.68526936755E+03  0.68550556661E+03  0.00000000000E+00 0.  1.
          3    1    3    3  501    0  0.56907427427E+01  0.30322742740E+01 -0.25385632234E+03  0.25393820436E+03  0.00000000000E+00 0.  1.
         -3    1    1    2    0  502  0.10832055183E+02  0.40932360978E+01 -0.60163151457E+02  0.61267387691E+02  0.00000000000E+00 0. -1.
<mgrwt>
<rscale>  1 0.30000000E+03</rscale>
<asrwt>0</asrwt>
<pdfrwt beam="1">  1       21 0.25860369E-02 0.30000000E+03</pdfrwt>
<pdfrwt beam="2">0</pdfrwt>
<totfact> 0.86984294E+04</totfact>
</mgrwt>
</event>
<event>
 6    1  0.1132867E-002  0.3000000E+03  0.7818608E-02  0.1093470E+00
         21   -1    0    0  501  502  0.00000000000E+00  0.00000000000E+00  0.14617183416E+00  0.14617183416E+00  0.00000000000E+00 0. -1.
         13   -1    0    0    0    0 -0.00000000000E+00 -0.00000000000E+00 -0.10000000000E+04  0.10000000000E+04  0.00000000000E+00 0.  1.
    9000005    2    1    2  501    0 -0.27011649327E+00 -0.95659664219E+01 -0.47797120210E+03  0.47817581246E+03  0.10200828776E+02 0.  0.
         13    1    3    3    0    0  0.27995252401E+00  0.13706099280E+01 -0.12885207514E+02  0.12960922717E+02  0.00000000000E+00 0.  1.
          1    1    3    3  501    0 -0.55006901728E+00 -0.10936576350E+02 -0.46508599459E+03  0.46521488974E+03  0.00000000000E+00 0.  1.
         -3    1    1    2    0  502  0.27011649327E+00  0.95659664219E+01 -0.52188262606E+03  0.52197035937E+03  0.00000000000E+00 0. -1.
<mgrwt>
<rscale>  1 0.30000000E+03</rscale>
<asrwt>0</asrwt>
<pdfrwt beam="1">  1       21 0.53153506E-03 0.30000000E+03</pdfrwt>
<pdfrwt beam="2">0</pdfrwt>
<totfact> 0.10903485E+06</totfact>
</mgrwt>
</event>
<event>
 6    1  0.1132867E-002  0.3000000E+03  0.7818608E-02  0.1093470E+00
         21   -1    0    0  501  502  0.00000000000E+00  0.00000000000E+00  0.65047709348E+00  0.65047709348E+00  0.00000000000E+00 0. -1.
         13   -1    0    0    0    0 -0.00000000000E+00 -0.00000000000E+00 -0.10000000000E+04  0.10000000000E+04  0.00000000000E+00 0.  1.
    9000005    2    1    2  501    0 -0.15098657488E+02  0.92648894032E+01 -0.82905289475E+03  0.82943497197E+03  0.17884708496E+02 0.  0.
         13    1    3    3    0    0 -0.74786783641E+01  0.12505874164E+02 -0.67697829612E+03  0.67713509800E+03  0.00000000000E+00 0.  1.
          3    1    3    3  501    0 -0.76199791244E+01 -0.32409847611E+01 -0.15207459863E+03  0.15229987397E+03  0.00000000000E+00 0.  1.
         -3    1    1    2    0  502  0.15098657488E+02 -0.92648894032E+01 -0.17029662816E+03  0.17121550513E+03  0.00000000000E+00 0. -1.
<mgrwt>
<rscale>  1 0.30000000E+03</rscale>
<asrwt>0</asrwt>
<pdfrwt beam="1">  1       21 0.23653762E-02 0.30000000E+03</pdfrwt>
<pdfrwt beam="2">0</pdfrwt>
<totfact> 0.10072921E+05</totfact>
</mgrwt>
</event>
<event>
 6    1  0.1132867E-002  0.3000000E+03  0.7818608E-02  0.1093470E+00
         21   -1    0    0  501  502  0.00000000000E+00  0.00000000000E+00  0.15064926048E+00  0.15064926048E+00  0.00000000000E+00 0. -1.
         13   -1    0    0    0    0 -0.00000000000E+00 -0.00000000000E+00 -0.10000000000E+04  0.10000000000E+04  0.00000000000E+00 0.  1.
    9000005    2    1    2  501    0 -0.29408215864E+01  0.93866003620E+01 -0.68484766475E+03  0.68499541946E+03  0.10278329722E+02 0.  0.
         13    1    3    3    0    0  0.64025178691E+00 -0.20867892712E+01 -0.91507244001E+02  0.91533274368E+02  0.00000000000E+00 0.  1.
          3    1    3    3  501    0 -0.35810733733E+01  0.11473389633E+02 -0.59334042075E+03  0.59346214509E+03  0.00000000000E+00 0.  1.
         -3    1    1    2    0  502  0.29408215864E+01 -0.93866003620E+01 -0.31500168599E+03  0.31515522980E+03  0.00000000000E+00 0. -1.
<mgrwt>
<rscale>  1 0.30000000E+03</rscale>
<asrwt>0</asrwt>
<pdfrwt beam="1">  1       21 0.54781665E-03 0.30000000E+03</pdfrwt>
<pdfrwt beam="2">0</pdfrwt>
<totfact> 0.10403619E+06</totfact>
</mgrwt>
</event>
<event>
 6    1  0.1132867E-002  0.3000000E+03  0.7818608E-02  0.1093470E+00
         21   -1    0    0  501  502  0.00000000000E+00  0.00000000000E+00  0.22289709281E+00  0.22289709281E+00  0.00000000000E+00 0. -1.
         13   -1    0    0    0    0 -0.00000000000E+00 -0.00000000000E+00 -0.10000000000E+04  0.10000000000E+04  0.00000000000E+00 0.  1.
    9000005    2    1    2  501    0 -0.49101521083E+01 -0.88571303793E+01 -0.85761445866E+03  0.85770000149E+03  0.66463897861E+01 0.  0.
         13    1    3    3    0    0  0.77629531522E+00 -0.32831298306E+01 -0.13692548314E+03  0.13696703804E+03  0.00000000000E+00 0.  1.
          1    1    3    3  501    0 -0.56864474235E+01 -0.55740005487E+01 -0.72068897552E+03  0.72073296345E+03  0.00000000000E+00 0.  1.
         -3    1    1    2    0  502  0.49101521083E+01  0.88571303793E+01 -0.14216264424E+03  0.14252289560E+03  0.00000000000E+00 0. -1.
<mgrwt>
<rscale>  1 0.30000000E+03</rscale>
<asrwt>0</asrwt>
<pdfrwt beam="1">  1       21 0.81053659E-03 0.30000000E+03</pdfrwt>
<pdfrwt beam="2">0</pdfrwt>
<totfact> 0.56331069E+05</totfact>
</mgrwt>
</event>
<event>
 6    1  0.1132867E-002  0.3000000E+03  0.7818608E-02  0.1093470E+00
         21   -1    0    0  501  502  0.00000000000E+00  0.00000000000E+00  0.23662588468E+00  0.23662588468E+00  0.00000000000E+00 0. -1.
         13   -1    0    0    0    0 -0.00000000000E+00 -0.00000000000E+00 -0.10000000000E+04  0.10000000000E+04  0.00000000000E+00 0.  1.
    9000005    2    1    2  501    0  0.99146068225E+01 -0.28294899781E+01 -0.79842207165E+03  0.79863150314E+03  0.15105226045E+02 0.  0.
         13    1    3    3    0    0  0.30355449561E+01 -0.47856158336E+01 -0.92629979406E+02  0.92803177407E+02  0.00000000000E+00 0.  1.
          1    1    3    3  501    0  0.68790618664E+01  0.19561258555E+01 -0.70579209225E+03  0.70582832573E+03  0.00000000000E+00 0.  1.
         -3    1    1    2    0  502 -0.99146068225E+01  0.28294899781E+01 -0.20134130246E+03  0.20160512275E+03  0.00000000000E+00 0. -1.
<mgrwt>
<rscale>  1 0.30000000E+03</rscale>
<asrwt>0</asrwt>
<pdfrwt beam="1">  1       21 0.86045958E-03 0.30000000E+03</pdfrwt>
<pdfrwt beam="2">0</pdfrwt>
<totfact> 0.51261352E+05</totfact>
</mgrwt>
</event>
<event>
 6    1  0.1132867E-002  0.3000000E+03  0.7818608E-02  0.1093470E+00
         21   -1    0    0  501  502  0.00000000000E+00  0.00000000000E+00  0.19471334748E+00  0.19471334748E+00  0.00000000000E+00 0. -1.
         13   -1    0    0    0    0 -0.00000000000E+00 -0.00000000000E+00 -0.10000000000E+04  0.10000000000E+04  0.00000000000E+00 0.  1.
    9000005    2    1    2  501    0 -0.22729836656E+01 -0.12085995552E+02 -0.71390883823E+03  0.71403388975E+03  0.52276821602E+01 0.  0.
         13    1    3    3    0    0 -0.31747857983E+01 -0.43910505294E+01 -0.23555453676E+03  0.23561685080E+03  0.00000000000E+00 0.  1.
          1    1    3    3  501    0  0.90180213268E+00 -0.76949450227E+01 -0.47835430147E+03  0.47841703895E+03  0.00000000000E+00 0.  1.
         -1    1    1    2    0  502  0.22729836656E+01  0.12085995552E+02 -0.28589644842E+03  0.28616082360E+03  0.00000000000E+00 0. -1.
<mgrwt>
<rscale>  1 0.30000000E+03</rscale>
<asrwt>0</asrwt>
<pdfrwt beam="1">  1       21 0.70805003E-03 0.30000000E+03</pdfrwt>
<pdfrwt beam="2">0</pdfrwt>
<totfact> 0.69672559E+05</totfact>
</mgrwt>
</event>
<event>
 6    1  0.1132867E-002  0.3000000E+03  0.7818608E-02  0.1093470E+00
         21   -1    0    0  501  502  0.00000000000E+00  0.00000000000E+00  0.15840943070E+01  0.15840943070E+01  0.00000000000E+00 0. -1.
         13   -1    0    0    0    0 -0.00000000000E+00 -0.00000000000E+00 -0.10000000000E+04  0.10000000000E+04  0.00000000000E+00 0.  1.
    9000005    2    1    2  501    0 -0.10019452915E+02  0.14468275658E+02 -0.94792076029E+03  0.94810998705E+03  0.70042362807E+01 0.  0.
         13    1    3    3    0    0 -0.59366329119E+01  0.39265508653E+01 -0.26457151955E+03  0.26466724461E+03  0.00000000000E+00 0.  1.
          3    1    3    3  501    0 -0.40828200026E+01  0.10541724793E+02 -0.68334924074E+03  0.68344274245E+03  0.00000000000E+00 0.  1.
         -1    1    1    2    0  502  0.10019452915E+02 -0.14468275658E+02 -0.50495145404E+02  0.53474107254E+02  0.00000000000E+00 0. -1.
<mgrwt>
<rscale>  1 0.30000000E+03</rscale>
<asrwt>0</asrwt>
<pdfrwt beam="1">  1       21 0.57603551E-02 0.30000000E+03</pdfrwt>
<pdfrwt beam="2">0</pdfrwt>
<totfact> 0.22604927E+04</totfact>
</mgrwt>
</event>
<event>
 6    1  0.1132867E-002  0.3000000E+03  0.7818608E-02  0.1093470E+00
         21   -1    0    0  501  502  0.00000000000E+00  0.00000000000E+00  0.20860104116E+00  0.20860104116E+00  0.00000000000E+00 0. -1.
         13   -1    0    0    0    0 -0.00000000000E+00 -0.00000000000E+00 -0.10000000000E+04  0.10000000000E+04  0.00000000000E+00 0.  1.
    9000005    2    1    2  501    0 -0.93355011419E+01 -0.92331534441E+01 -0.60373328057E+03  0.60393289418E+03  0.82863685993E+01 0.  0.
         13    1    3    3    0    0 -0.10624528182E+02 -0.92473399483E+01 -0.57208733829E+03  0.57226070678E+03  0.00000000000E+00 0.  1.
          1    1    3    3  501    0  0.12890270406E+01  0.14186504186E-01 -0.31645942276E+02  0.31672187397E+02  0.00000000000E+00 0.  1.
         -1    1    1    2    0  502  0.93355011419E+01  0.92331534441E+01 -0.39605811839E+03  0.39627570686E+03  0.00000000000E+00 0. -1.
<mgrwt>
<rscale>  1 0.30000000E+03</rscale>
<asrwt>0</asrwt>
<pdfrwt beam="1">  1       21 0.75855084E-03 0.30000000E+03</pdfrwt>
<pdfrwt beam="2">0</pdfrwt>
<totfact> 0.62528667E+05</totfact>
</mgrwt>
</event>
<event>
 6    1  0.1132867E-002  0.3000000E+03  0.7818608E-02  0.1093470E+00
         21   -1    0    0  501  502  0.00000000000E+00  0.00000000000E+00  0.21376249946E+01  0.21376249946E+01  0.00000000000E+00 0. -1.
         13   -1    0    0    0    0 -0.00000000000E+00 -0.00000000000E+00 -0.10000000000E+04  0.10000000000E+04  0.00000000000E+00 0.  1.
    9000005    2    1    2  501    0  0.10340445968E+02  0.36868920384E+02 -0.77610084534E+03  0.77709447768E+03  0.87785529709E+01 0.  0.
         13    1    3    3    0    0  0.54504341390E+01  0.63410506409E+01 -0.15959025930E+03  0.15980915812E+03  0.00000000000E+00 0.  1.
          1    1    3    3  501    0  0.48900118291E+01  0.30527869743E+02 -0.61651058604E+03  0.61728531956E+03  0.00000000000E+00 0.  1.
         -3    1    1    2    0  502 -0.10340445968E+02 -0.36868920384E+02 -0.22176152966E+03  0.22504314731E+03  0.00000000000E+00 0. -1.
<mgrwt>
<rscale>  1 0.30000000E+03</rscale>
<asrwt>0</asrwt>
<pdfrwt beam="1">  1       21 0.77731982E-02 0.30000000E+03</pdfrwt>
<pdfrwt beam="2">0</pdfrwt>
<totfact> 0.13435191E+04</totfact>
</mgrwt>
</event>
<event>
 6    1  0.1132867E-002  0.3000000E+03  0.7818608E-02  0.1093470E+00
         21   -1    0    0  501  502  0.00000000000E+00  0.00000000000E+00  0.16270072525E+00  0.16270072525E+00  0.00000000000E+00 0. -1.
         13   -1    0    0    0    0 -0.00000000000E+00 -0.00000000000E+00 -0.10000000000E+04  0.10000000000E+04  0.00000000000E+00 0.  1.
    9000005    2    1    2  501    0 -0.25807778518E+01  0.98462813038E+01 -0.71296647158E+03  0.71311134391E+03  0.10148376202E+02 0.  0.
         13    1    3    3    0    0  0.29676847154E+01  0.70138115848E+01 -0.29428331184E+03  0.29438184104E+03  0.00000000000E+00 0.  1.
          1    1    3    3  501    0 -0.55484625671E+01  0.28324697189E+01 -0.41868315974E+03  0.41872950287E+03  0.00000000000E+00 0.  1.
         -3    1    1    2    0  502  0.25807778518E+01 -0.98462813038E+01 -0.28687082769E+03  0.28705135682E+03  0.00000000000E+00 0. -1.
<mgrwt>
<rscale>  1 0.30000000E+03</rscale>
<asrwt>0</asrwt>
<pdfrwt beam="1">  1       21 0.59164025E-03 0.30000000E+03</pdfrwt>
<pdfrwt beam="2">0</pdfrwt>
<totfact> 0.92281956E+05</totfact>
</mgrwt>
</event>
<event>
 6    1  0.1132867E-002  0.3000000E+03  0.7818608E-02  0.1093470E+00
         21   -1    0    0  501  502  0.00000000000E+00  0.00000000000E+00  0.51884498566E+00  0.51884498566E+00  0.00000000000E+00 0. -1.
         13   -1    0    0    0    0 -0.00000000000E+00 -0.00000000000E+00 -0.10000000000E+04  0.10000000000E+04  0.00000000000E+00 0.  1.
    9000005    2    1    2  501    0 -0.11682536513E+02 -0.68761577361E+01 -0.90048834030E+03  0.90060217686E+03  0.46115877122E+01 0.  0.
         13    1    3    3    0    0 -0.54252401434E+01 -0.60532807692E+00 -0.33760882216E+03  0.33765295268E+03  0.00000000000E+00 0.  1.
          3    1    3    3  501    0 -0.62572963692E+01 -0.62708296591E+01 -0.56287951814E+03  0.56294922418E+03  0.00000000000E+00 0.  1.
         -1    1    1    2    0  502  0.11682536513E+02  0.68761577361E+01 -0.98992814709E+02  0.99916668122E+02  0.00000000000E+00 0. -1.
<mgrwt>
<rscale>  1 0.30000000E+03</rscale>
<asrwt>0</asrwt>
<pdfrwt beam="1">  1       21 0.18867130E-02 0.30000000E+03</pdfrwt>
<pdfrwt beam="2">0</pdfrwt>
<totfact> 0.14576177E+05</totfact>
</mgrwt>
</event>
<event>
 6    1  0.1132867E-002  0.3000000E+03  0.7818608E-02  0.1093470E+00
         21   -1    0    0  501  502  0.00000000000E+00  0.00000000000E+00  0.65694885103E+00  0.65694885103E+00  0.00000000000E+00 0. -1.
         13   -1    0    0    0    0 -0.00000000000E+00 -0.00000000000E+00 -0.10000000000E+04  0.10000000000E+04  0.00000000000E+00 0.  1.
    9000005    2    1    2  501    0  0.40601344930E+00  0.12449265596E+02 -0.91302074376E+03  0.91344060970E+03  0.24732971199E+02 0.  0.
         13    1    3    3    0    0 -0.10272209818E+02  0.10936816440E+02 -0.68573933680E+03  0.68590347009E+03  0.00000000000E+00 0.  1.
          1    1    3    3  501    0  0.10678223267E+02  0.15124491562E+01 -0.22728140695E+03  0.22753713961E+03  0.00000000000E+00 0.  1.
         -1    1    1    2    0  502 -0.40601344930E+00 -0.12449265596E+02 -0.86322307393E+02  0.87216339149E+02  0.00000000000E+00 0. -1.
<mgrwt>
<rscale>  1 0.30000000E+03</rscale>
<asrwt>0</asrwt>
<pdfrwt beam="1">  1       21 0.23889100E-02 0.30000000E+03</pdfrwt>
<pdfrwt beam="2">0</pdfrwt>
<totfact> 0.99104941E+04</totfact>
</mgrwt>
</event>
<event>
 6    1  0.1132867E-002  0.3000000E+03  0.7818608E-02  0.1093470E+00
         21   -1    0    0  501  502  0.00000000000E+00  0.00000000000E+00  0.18201202672E+01  0.18201202672E+01  0.00000000000E+00 0.  1.
         13   -1    0    0    0    0 -0.00000000000E+00 -0.00000000000E+00 -0.10000000000E+04  0.10000000000E+04  0.00000000000E+00 0.  1.
    9000005    2    1    2  501    0 -0.18623834286E+02 -0.14004027937E+02 -0.84399275743E+03  0.84588222017E+03  0.51478109984E+02 0.  0.
         13    1    3    3    0    0 -0.34257690624E+02 -0.20043143083E+02 -0.57582945719E+03  0.57719570400E+03  0.00000000000E+00 0.  1.
          1    1    3    3  501    0  0.15633856338E+02  0.60391151468E+01 -0.26816330024E+03  0.26868651617E+03  0.00000000000E+00 0.  1.
         -1    1    1    2    0  502  0.18623834286E+02  0.14004027937E+02 -0.15418712230E+03  0.15593790009E+03  0.00000000000E+00 0. -1.
<mgrwt>
<rscale>  1 0.30000000E+03</rscale>
<asrwt>0</asrwt>
<pdfrwt beam="1">  1       21 0.66186331E-02 0.30000000E+03</pdfrwt>
<pdfrwt beam="2">0</pdfrwt>
<totfact> 0.17784010E+04</totfact>
</mgrwt>
</event>
<event>
 6    1  0.1132867E-002  0.3000000E+03  0.7818608E-02  0.1093470E+00
         21   -1    0    0  501  502  0.00000000000E+00  0.00000000000E+00  0.39675146332E+00  0.39675146332E+00  0.00000000000E+00 0.  1.
         13   -1    0    0    0    0 -0.00000000000E+00 -0.00000000000E+00 -0.10000000000E+04  0.10000000000E+04  0.00000000000E+00 0.  1.
    9000005    2    1    2  501    0  0.11704926654E+01 -0.86532673447E+01 -0.82555619483E+03  0.82613078809E+03  0.29543173628E+02 0.  0.
         13    1    3    3    0    0 -0.14375935848E+01  0.95009518561E+01 -0.14003742579E+03  0.14036671751E+03  0.00000000000E+00 0.  1.
          1    1    3    3  501    0  0.26080862502E+01 -0.18154219201E+02 -0.68551876904E+03  0.68576407058E+03  0.00000000000E+00 0.  1.
         -3    1    1    2    0  502 -0.11704926654E+01  0.86532673447E+01 -0.17404705370E+03  0.17426596338E+03  0.00000000000E+00 0. -1.
<mgrwt>
<rscale>  1 0.30000000E+03</rscale>
<asrwt>0</asrwt>
<pdfrwt beam="1">  1       21 0.14427356E-02 0.30000000E+03</pdfrwt>
<pdfrwt beam="2">0</pdfrwt>
<totfact> 0.22496406E+05</totfact>
</mgrwt>
</event>
<event>
 6    1  0.1132867E-002  0.3000000E+03  0.7818608E-02  0.1093470E+00
         21   -1    0    0  501  502  0.00000000000E+00  0.00000000000E+00  0.44917458955E+00  0.44917458955E+00  0.00000000000E+00 0. -1.
         13   -1    0    0    0    0 -0.00000000000E+00 -0.00000000000E+00 -0.10000000000E+04  0.10000000000E+04  0.00000000000E+00 0.  1.
    9000005    2    1    2  501    0  0.11364455913E+02 -0.39358321436E+01 -0.88865367604E+03  0.88890178838E+03  0.17216033327E+02 0.  0.
         13    1    3    3    0    0  0.12866986461E+02  0.34465539617E+01 -0.61628064920E+03  0.61642459121E+03  0.00000000000E+00 0.  1.
          1    1    3    3  501    0 -0.15025305482E+01 -0.73823861053E+01 -0.27237302685E+03  0.27247719717E+03  0.00000000000E+00 0.  1.
         -1    1    1    2    0  502 -0.11364455913E+02  0.39358321436E+01 -0.11089714937E+03  0.11154738621E+03  0.00000000000E+00 0. -1.
<mgrwt>
<rscale>  1 0.30000000E+03</rscale>
<asrwt>0</asrwt>
<pdfrwt beam="1">  1       21 0.16333656E-02 0.30000000E+03</pdfrwt>
<pdfrwt beam="2">0</pdfrwt>
<totfact> 0.18416738E+05</totfact>
</mgrwt>
</event>
<event>
 6    1  0.1132867E-002  0.3000000E+03  0.7818608E-02  0.1093470E+00
         21   -1    0    0  501  502  0.00000000000E+00  0.00000000000E+00  0.76344404229E+00  0.76344404229E+00  0.00000000000E+00 0. -1.
         13   -1    0    0    0    0 -0.00000000000E+00 -0.00000000000E+00 -0.10000000000E+04  0.10000000000E+04  0.00000000000E+00 0.  1.
    9000005    2    1    2  501    0 -0.15612473517E+02 -0.12591184586E+02 -0.84067596208E+03  0.84093932450E+03  0.63707929025E+01 0.  0.
         13    1    3    3    0    0 -0.11057847412E+01 -0.25394093152E+01 -0.60001575386E+02  0.60065467686E+02  0.00000000000E+00 0.  1.
          3    1    3    3  501    0 -0.14506688776E+02 -0.10051775271E+02 -0.78067438670E+03  0.78087385681E+03  0.00000000000E+00 0.  1.
         -3    1    1    2    0  502  0.15612473517E+02  0.12591184586E+02 -0.15856059387E+03  0.15982411954E+03  0.00000000000E+00 0. -1.
<mgrwt>
<rscale>  1 0.30000000E+03</rscale>
<asrwt>0</asrwt>
<pdfrwt beam="1">  1       21 0.27761660E-02 0.30000000E+03</pdfrwt>
<pdfrwt beam="2">0</pdfrwt>
<totfact> 0.77363690E+04</totfact>
</mgrwt>
</event>
<event>
 6    1  0.1132867E-002  0.3000000E+03  0.7818608E-02  0.1093470E+00
         21   -1    0    0  501  502  0.00000000000E+00  0.00000000000E+00  0.11451400793E+01  0.11451400793E+01  0.00000000000E+00 0. -1.
         13   -1    0    0    0    0 -0.00000000000E+00 -0.00000000000E+00 -0.10000000000E+04  0.10000000000E+04  0.00000000000E+00 0.  1.
    9000005    2    1    2  501    0  0.14940594313E+02  0.81353913797E+01 -0.93064669230E+03  0.93084748662E+03  0.91853966398E+01 0.  0.
         13    1    3    3    0    0  0.92194054868E+01  0.92397255556E+01 -0.54215511492E+03  0.54231221506E+03  0.00000000000E+00 0.  1.
          3    1    3    3  501    0  0.57211888265E+01 -0.11043341759E+01 -0.38849157738E+03  0.38853527156E+03  0.00000000000E+00 0.  1.
         -1    1    1    2    0  502 -0.14940594313E+02 -0.81353913797E+01 -0.68208167621E+02  0.70297653457E+02  0.00000000000E+00 0. -1.
<mgrwt>
<rscale>  1 0.30000000E+03</rscale>
<asrwt>0</asrwt>
<pdfrwt beam="1">  1       21 0.41641545E-02 0.30000000E+03</pdfrwt>
<pdfrwt beam="2">0</pdfrwt>
<totfact> 0.39290903E+04</totfact>
</mgrwt>
</event>
<event>
 6    1  0.1132867E-002  0.3000000E+03  0.7818608E-02  0.1093470E+00
         21   -1    0    0  501  502  0.00000000000E+00  0.00000000000E+00  0.24548240188E+00  0.24548240188E+00  0.00000000000E+00 0. -1.
         13   -1    0    0    0    0 -0.00000000000E+00 -0.00000000000E+00 -0.10000000000E+04  0.10000000000E+04  0.00000000000E+00 0.  1.
    9000005    2    1    2  501    0 -0.11336895591E+02 -0.31213627215E+01 -0.82451868163E+03  0.82461556948E+03  0.46382064011E+01 0.  0.
         13    1    3    3    0    0 -0.37700174459E+00  0.82211248885E+00 -0.89948752875E+02  0.89953299790E+02  0.00000000000E+00 0.  1.
          1    1    3    3  501    0 -0.10959893846E+02 -0.39434752103E+01 -0.73456992876E+03  0.73466226969E+03  0.00000000000E+00 0.  1.
         -3    1    1    2    0  502  0.11336895591E+02  0.31213627215E+01 -0.17523583597E+03  0.17562991293E+03  0.00000000000E+00 0. -1.
<mgrwt>
<rscale>  1 0.30000000E+03</rscale>
<asrwt>0</asrwt>
<pdfrwt beam="1">  1       21 0.89266516E-03 0.30000000E+03</pdfrwt>
<pdfrwt beam="2">0</pdfrwt>
<totfact> 0.48370554E+05</totfact>
</mgrwt>
</event>
<event>
 6    1  0.1132867E-002  0.3000000E+03  0.7818608E-02  0.1093470E+00
         21   -1    0    0  501  502  0.00000000000E+00  0.00000000000E+00  0.26145900685E+00  0.26145900685E+00  0.00000000000E+00 0. -1.
         13   -1    0    0    0    0 -0.00000000000E+00 -0.00000000000E+00 -0.10000000000E+04  0.10000000000E+04  0.00000000000E+00 0.  1.
    9000005    2    1    2  501    0  0.82170972286E+01  0.78935654403E+01 -0.84597547732E+03  0.84607680084E+03  0.64510185012E+01 0.  0.
         13    1    3    3    0    0  0.12837964712E+01  0.43211448824E+01 -0.18328007119E+03  0.18333549826E+03  0.00000000000E+00 0.  1.
          3    1    3    3  501    0  0.69333007574E+01  0.35724205579E+01 -0.66269540612E+03  0.66274130258E+03  0.00000000000E+00 0.  1.
         -1    1    1    2    0  502 -0.82170972286E+01 -0.78935654403E+01 -0.15376306368E+03  0.15418465817E+03  0.00000000000E+00 0. -1.
<mgrwt>
<rscale>  1 0.30000000E+03</rscale>
<asrwt>0</asrwt>
<pdfrwt beam="1">  1       21 0.95076203E-03 0.30000000E+03</pdfrwt>
<pdfrwt beam="2">0</pdfrwt>
<totfact> 0.43777953E+05</totfact>
</mgrwt>
</event>
<event>
 6    1  0.1132867E-002  0.3000000E+03  0.7818608E-02  0.1093470E+00
         21   -1    0    0  501  502  0.00000000000E+00  0.00000000000E+00  0.26788655652E+00  0.26788655652E+00  0.00000000000E+00 0. -1.
         13   -1    0    0    0    0 -0.00000000000E+00 -0.00000000000E+00 -0.10000000000E+04  0.10000000000E+04  0.00000000000E+00 0.  1.
    9000005    2    1    2  501    0  0.11326991672E+02  0.69634552553E+01 -0.77290713167E+03  0.77305353224E+03  0.70384002473E+01 0.  0.
         13    1    3    3    0    0  0.31932809259E+01 -0.12517906796E+01 -0.15086627613E+03  0.15090525934E+03  0.00000000000E+00 0.  1.
          1    1    3    3  501    0  0.81337107465E+01  0.82152459349E+01 -0.62204085553E+03  0.62214827290E+03  0.00000000000E+00 0.  1.
         -1    1    1    2    0  502 -0.11326991672E+02 -0.69634552553E+01 -0.22682498178E+03  0.22721435432E+03  0.00000000000E+00 0. -1.
<mgrwt>
<rscale>  1 0.30000000E+03</rscale>
<asrwt>0</asrwt>
<pdfrwt beam="1">  1       21 0.97413499E-03 0.30000000E+03</pdfrwt>
<pdfrwt beam="2">0</pdfrwt>
<totfact> 0.42124978E+05</totfact>
</mgrwt>
</event>
<event>
 6    1  0.1132867E-002  0.3000000E+03  0.7818608E-02  0.1093470E+00
         21   -1    0    0  501  502  0.00000000000E+00  0.00000000000E+00  0.84347651566E-01  0.84347651566E-01  0.00000000000E+00 0. -1.
         13   -1    0    0    0    0 -0.00000000000E+00 -0.00000000000E+00 -0.10000000000E+04  0.10000000000E+04  0.00000000000E+00 0.  1.
    9000005    2    1    2  501    0  0.63241470748E+00  0.74383964588E+01 -0.63687960982E+03  0.63697155820E+03  0.78357423469E+01 0.  0.
         13    1    3    3    0    0  0.16897130713E+01  0.82381897182E+01 -0.61111665148E+03  0.61117451241E+03  0.00000000000E+00 0.  1.
          3    1    3    3  501    0 -0.10572983638E+01 -0.79979325938E+00 -0.25762958334E+02  0.25797045785E+02  0.00000000000E+00 0.  1.
         -3    1    1    2    0  502 -0.63241470748E+00 -0.74383964588E+01 -0.36303604253E+03  0.36311278946E+03  0.00000000000E+00 0. -1.
<mgrwt>
<rscale>  1 0.30000000E+03</rscale>
<asrwt>0</asrwt>
<pdfrwt beam="1">  1       21 0.30671938E-03 0.30000000E+03</pdfrwt>
<pdfrwt beam="2">0</pdfrwt>
<totfact> 0.25471135E+06</totfact>
</mgrwt>
</event>
<event>
 6    1  0.1132867E-002  0.3000000E+03  0.7818608E-02  0.1093470E+00
         21   -1    0    0  501  502  0.00000000000E+00  0.00000000000E+00  0.39983617175E+00  0.39983617175E+00  0.00000000000E+00 0. -1.
         13   -1    0    0    0    0 -0.00000000000E+00 -0.00000000000E+00 -0.10000000000E+04  0.10000000000E+04  0.00000000000E+00 0.  1.
    9000005    2    1    2  501    0  0.14854449468E+02 -0.25034434574E+01 -0.81436537366E+03  0.81455353036E+03  0.89202070835E+01 0.  0.
         13    1    3    3    0    0 -0.10620446376E+01 -0.10197104523E+01 -0.53531861824E+02  0.53552105267E+02  0.00000000000E+00 0.  1.
          3    1    3    3  501    0  0.15916494106E+02 -0.14837330052E+01 -0.76083351184E+03  0.76100142509E+03  0.00000000000E+00 0.  1.
         -1    1    1    2    0  502 -0.14854449468E+02  0.25034434574E+01 -0.18523479016E+03  0.18584630581E+03  0.00000000000E+00 0. -1.
<mgrwt>
<rscale>  1 0.30000000E+03</rscale>
<asrwt>0</asrwt>
<pdfrwt beam="1">  1       21 0.14539528E-02 0.30000000E+03</pdfrwt>
<pdfrwt beam="2">0</pdfrwt>
<totfact> 0.22217880E+05</totfact>
</mgrwt>
</event>
<event>
 6    1  0.1132867E-002  0.3000000E+03  0.7818608E-02  0.1093470E+00
         21   -1    0    0  501  502  0.00000000000E+00  0.00000000000E+00  0.13296442761E+01  0.13296442761E+01  0.00000000000E+00 0. -1.
         13   -1    0    0    0    0 -0.00000000000E+00 -0.00000000000E+00 -0.10000000000E+04  0.10000000000E+04  0.00000000000E+00 0.  1.
    9000005    2    1    2  501    0 -0.44478592136E+01  0.25811569559E+02 -0.84323869634E+03  0.84370660879E+03  0.10164750286E+02 0.  0.
         13    1    3    3    0    0 -0.49220310474E+01  0.16508701547E+02 -0.66652015857E+03  0.66674274304E+03  0.00000000000E+00 0.  1.
          3    1    3    3  501    0  0.47417183386E+00  0.93028680125E+01 -0.17671853777E+03  0.17696386576E+03  0.00000000000E+00 0.  1.
         -3    1    1    2    0  502  0.44478592136E+01 -0.25811569559E+02 -0.15543165939E+03  0.15762303548E+03  0.00000000000E+00 0. -1.
<mgrwt>
<rscale>  1 0.30000000E+03</rscale>
<asrwt>0</asrwt>
<pdfrwt beam="1">  1       21 0.48350803E-02 0.30000000E+03</pdfrwt>
<pdfrwt beam="2">0</pdfrwt>
<totfact> 0.30498237E+04</totfact>
</mgrwt>
</event>
<event>
 6    1  0.1132867E-002  0.3000000E+03  0.7818608E-02  0.1093470E+00
         21   -1    0    0  501  502  0.00000000000E+00  0.00000000000E+00  0.48954103750E+00  0.48954103750E+00  0.00000000000E+00 0. -1.
         13   -1    0    0    0    0 -0.00000000000E+00 -0.00000000000E+00 -0.10000000000E+04  0.10000000000E+04  0.00000000000E+00 0.  1.
    9000005    2    1    2  501    0 -0.17463303851E+02 -0.44554476661E+01 -0.78353837680E+03  0.78376677281E+03  0.57574512332E+01 0.  0.
         13    1    3    3    0    0 -0.10990087853E+02 -0.34149751114E+01 -0.37724510246E+03  0.37742060279E+03  0.00000000000E+00 0.  1.
          1    1    3    3  501    0 -0.64732159987E+01 -0.10404725547E+01 -0.40629327435E+03  0.40634617002E+03  0.00000000000E+00 0.  1.
         -3    1    1    2    0  502  0.17463303851E+02  0.44554476661E+01 -0.21597208216E+03  0.21672276823E+03  0.00000000000E+00 0. -1.
<mgrwt>
<rscale>  1 0.30000000E+03</rscale>
<asrwt>0</asrwt>
<pdfrwt beam="1">  1       21 0.17801530E-02 0.30000000E+03</pdfrwt>
<pdfrwt beam="2">0</pdfrwt>
<totfact> 0.16019606E+05</totfact>
</mgrwt>
</event>
<event>
 6    1  0.1132867E-002  0.3000000E+03  0.7818608E-02  0.1093470E+00
         21   -1    0    0  501  502  0.00000000000E+00  0.00000000000E+00  0.24852268706E+00  0.24852268706E+00  0.00000000000E+00 0. -1.
         13   -1    0    0    0    0 -0.00000000000E+00 -0.00000000000E+00 -0.10000000000E+04  0.10000000000E+04  0.00000000000E+00 0.  1.
    9000005    2    1    2  501    0  0.68741979073E+01  0.78707762326E+01 -0.85562111313E+03  0.85573981847E+03  0.96924694259E+01 0.  0.
         13    1    3    3    0    0  0.46125437972E+01  0.62797882058E+01 -0.80855709428E+03  0.80859463640E+03  0.00000000000E+00 0.  1.
          3    1    3    3  501    0  0.22616541101E+01  0.15909880268E+01 -0.47064018851E+02  0.47145182072E+02  0.00000000000E+00 0.  1.
         -3    1    1    2    0  502 -0.68741979073E+01 -0.78707762326E+01 -0.14413036418E+03  0.14450870421E+03  0.00000000000E+00 0. -1.
<mgrwt>
<rscale>  1 0.30000000E+03</rscale>
<asrwt>0</asrwt>
<pdfrwt beam="1">  1       21 0.90372077E-03 0.30000000E+03</pdfrwt>
<pdfrwt beam="2">0</pdfrwt>
<totfact> 0.47438450E+05</totfact>
</mgrwt>
</event>
<event>
 6    1  0.1132867E-002  0.3000000E+03  0.7818608E-02  0.1093470E+00
         21   -1    0    0  501  502  0.00000000000E+00  0.00000000000E+00  0.43260459351E+00  0.43260459351E+00  0.00000000000E+00 0. -1.
         13   -1    0    0    0    0 -0.00000000000E+00 -0.00000000000E+00 -0.10000000000E+04  0.10000000000E+04  0.00000000000E+00 0.  1.
    9000005    2    1    2  501    0  0.14893405226E+02  0.11230860840E+01 -0.83890276339E+03  0.83907524089E+03  0.81448513367E+01 0.  0.
         13    1    3    3    0    0 -0.54323637169E+00  0.13817440852E+01 -0.52724468291E+02  0.52745368318E+02  0.00000000000E+00 0.  1.
          3    1    3    3  501    0  0.15436641598E+02 -0.25865800123E+00 -0.78617829510E+03  0.78632987257E+03  0.00000000000E+00 0.  1.
         -1    1    1    2    0  502 -0.14893405226E+02 -0.11230860840E+01 -0.16066463202E+03  0.16135736371E+03  0.00000000000E+00 0. -1.
<mgrwt>
<rscale>  1 0.30000000E+03</rscale>
<asrwt>0</asrwt>
<pdfrwt beam="1">  1       21 0.15731109E-02 0.30000000E+03</pdfrwt>
<pdfrwt beam="2">0</pdfrwt>
<totfact> 0.19569702E+05</totfact>
</mgrwt>
</event>
<event>
 6    1  0.1132867E-002  0.3000000E+03  0.7818608E-02  0.1093470E+00
         21   -1    0    0  501  502  0.00000000000E+00  0.00000000000E+00  0.10706561397E+00  0.10706561397E+00  0.00000000000E+00 0. -1.
         13   -1    0    0    0    0 -0.00000000000E+00 -0.00000000000E+00 -0.10000000000E+04  0.10000000000E+04  0.00000000000E+00 0.  1.
    9000005    2    1    2  501    0  0.92223546861E+01 -0.10247064957E+01 -0.59742490160E+03  0.59753207973E+03  0.64785336773E+01 0.  0.
         13    1    3    3    0    0  0.59400568757E+01  0.23465053056E+01 -0.28358738702E+03  0.28365929641E+03  0.00000000000E+00 0.  1.
          1    1    3    3  501    0  0.32822978104E+01 -0.33712118013E+01 -0.31383751458E+03  0.31387278331E+03  0.00000000000E+00 0.  1.
         -1    1    1    2    0  502 -0.92223546861E+01  0.10247064957E+01 -0.40246803279E+03  0.40257498589E+03  0.00000000000E+00 0. -1.
<mgrwt>
<rscale>  1 0.30000000E+03</rscale>
<asrwt>0</asrwt>
<pdfrwt beam="1">  1       21 0.38933033E-03 0.30000000E+03</pdfrwt>
<pdfrwt beam="2">0</pdfrwt>
<totfact> 0.17656452E+06</totfact>
</mgrwt>
</event>
<event>
 6    1  0.1132867E-002  0.3000000E+03  0.7818608E-02  0.1093470E+00
         21   -1    0    0  501  502  0.00000000000E+00  0.00000000000E+00  0.15407451092E+00  0.15407451092E+00  0.00000000000E+00 0. -1.
         13   -1    0    0    0    0 -0.00000000000E+00 -0.00000000000E+00 -0.10000000000E+04  0.10000000000E+04  0.00000000000E+00 0.  1.
    9000005    2    1    2  501    0 -0.91111843418E+01 -0.14426654548E+01 -0.78435893609E+03  0.78446972745E+03  0.94190078445E+01 0.  0.
         13    1    3    3    0    0 -0.10354633284E+02 -0.27608745502E+01 -0.55383015008E+03  0.55393381915E+03  0.00000000000E+00 0.  1.
          3    1    3    3  501    0  0.12434489426E+01  0.13182090954E+01 -0.23052878601E+03  0.23053590831E+03  0.00000000000E+00 0.  1.
         -1    1    1    2    0  502  0.91111843418E+01  0.14426654548E+01 -0.21548698940E+03  0.21568434706E+03  0.00000000000E+00 0. -1.
<mgrwt>
<rscale>  1 0.30000000E+03</rscale>
<asrwt>0</asrwt>
<pdfrwt beam="1">  1       21 0.56027213E-03 0.30000000E+03</pdfrwt>
<pdfrwt beam="2">0</pdfrwt>
<totfact> 0.10045860E+06</totfact>
</mgrwt>
</event>
<event>
 6    1  0.1132867E-002  0.3000000E+03  0.7818608E-02  0.1093470E+00
         21   -1    0    0  501  502  0.00000000000E+00  0.00000000000E+00  0.82646751399E+00  0.82646751399E+00  0.00000000000E+00 0. -1.
         13   -1    0    0    0    0 -0.00000000000E+00 -0.00000000000E+00 -0.10000000000E+04  0.10000000000E+04  0.00000000000E+00 0.  1.
    9000005    2    1    2  501    0 -0.16100120172E+02  0.21434204250E+02 -0.67272289452E+03  0.67327699338E+03  0.52132536038E+01 0.  0.
         13    1    3    3    0    0 -0.13983472423E+01  0.52597195621E+01 -0.14138247586E+03  0.14148718849E+03  0.00000000000E+00 0.  1.
          3    1    3    3  501    0 -0.14701772930E+02  0.16174484687E+02 -0.53134041866E+03  0.53178980489E+03  0.00000000000E+00 0.  1.
         -1    1    1    2    0  502  0.16100120172E+02 -0.21434204250E+02 -0.32645063796E+03  0.32754947414E+03  0.00000000000E+00 0. -1.
<mgrwt>
<rscale>  1 0.30000000E+03</rscale>
<asrwt>0</asrwt>
<pdfrwt beam="1">  1       21 0.30053428E-02 0.30000000E+03</pdfrwt>
<pdfrwt beam="2">0</pdfrwt>
<totfact> 0.67829510E+04</totfact>
</mgrwt>
</event>
<event>
 6    1  0.1132867E-002  0.3000000E+03  0.7818608E-02  0.1093470E+00
         21   -1    0    0  501  502  0.00000000000E+00  0.00000000000E+00  0.10969961284E+00  0.10969961284E+00  0.00000000000E+00 0. -1.
         13   -1    0    0    0    0 -0.00000000000E+00 -0.00000000000E+00 -0.10000000000E+04  0.10000000000E+04  0.00000000000E+00 0.  1.
    9000005    2    1    2  501    0  0.96321070643E+00  0.76202720012E+01 -0.63469942439E+03  0.63483805791E+03  0.10816844758E+02 0.  0.
         13    1    3    3    0    0 -0.46526607511E+01  0.23749732679E+01 -0.18807825697E+03  0.18815078659E+03  0.00000000000E+00 0.  1.
          1    1    3    3  501    0  0.56158714576E+01  0.52452987333E+01 -0.44662116743E+03  0.44668727133E+03  0.00000000000E+00 0.  1.
         -3    1    1    2    0  502 -0.96321070643E+00 -0.76202720012E+01 -0.36519087599E+03  0.36527164170E+03  0.00000000000E+00 0. -1.
<mgrwt>
<rscale>  1 0.30000000E+03</rscale>
<asrwt>0</asrwt>
<pdfrwt beam="1">  1       21 0.39890852E-03 0.30000000E+03</pdfrwt>
<pdfrwt beam="2">0</pdfrwt>
<totfact> 0.17006825E+06</totfact>
</mgrwt>
</event>
<event>
 6    1  0.1132867E-002  0.3000000E+03  0.7818608E-02  0.1093470E+00
         21   -1    0    0  501  502  0.00000000000E+00  0.00000000000E+00  0.26778376185E+00  0.26778376185E+00  0.00000000000E+00 0. -1.
         13   -1    0    0    0    0 -0.00000000000E+00 -0.00000000000E+00 -0.10000000000E+04  0.10000000000E+04  0.00000000000E+00 0.  1.
    9000005    2    1    2  501    0 -0.10303821887E+02  0.47750305535E+01 -0.21522990339E+03  0.21568327683E+03  0.81483081777E+01 0.  0.
         13    1    3    3    0    0 -0.73533011055E+01  0.22695089656E+01 -0.19021980164E+03  0.19037540451E+03  0.00000000000E+00 0.  1.
          3    1    3    3  501    0 -0.29505207814E+01  0.25055215879E+01 -0.25010101753E+02  0.25307872313E+02  0.00000000000E+00 0.  1.
         -1    1    1    2    0  502  0.10303821887E+02 -0.47750305535E+01 -0.78450231285E+03  0.78458450693E+03  0.00000000000E+00 0. -1.
<mgrwt>
<rscale>  1 0.30000000E+03</rscale>
<asrwt>0</asrwt>
<pdfrwt beam="1">  1       21 0.97376119E-03 0.30000000E+03</pdfrwt>
<pdfrwt beam="2">0</pdfrwt>
<totfact> 0.42150622E+05</totfact>
</mgrwt>
</event>
<event>
 6    1  0.1132867E-002  0.3000000E+03  0.7818608E-02  0.1093470E+00
         21   -1    0    0  501  502  0.00000000000E+00  0.00000000000E+00  0.24030833005E+00  0.24030833005E+00  0.00000000000E+00 0. -1.
         13   -1    0    0    0    0 -0.00000000000E+00 -0.00000000000E+00 -0.10000000000E+04  0.10000000000E+04  0.00000000000E+00 0.  1.
    9000005    2    1    2  501    0 -0.63019184647E+01 -0.86363384634E+01 -0.81760980059E+03  0.81777693299E+03  0.12610535228E+02 0.  0.
         13    1    3    3    0    0 -0.70428380427E+01 -0.17655970181E+00 -0.51437430286E+03  0.51442254634E+03  0.00000000000E+00 0.  1.
          1    1    3    3  501    0  0.74091957793E+00 -0.84597787616E+01 -0.30323549773E+03  0.30335438665E+03  0.00000000000E+00 0.  1.
         -3    1    1    2    0  502  0.63019184647E+01  0.86363384634E+01 -0.18214989108E+03  0.18246337534E+03  0.00000000000E+00 0. -1.
<mgrwt>
<rscale>  1 0.30000000E+03</rscale>
<asrwt>0</asrwt>
<pdfrwt beam="1">  1       21 0.87385032E-03 0.30000000E+03</pdfrwt>
<pdfrwt beam="2">0</pdfrwt>
<totfact> 0.50026348E+05</totfact>
</mgrwt>
</event>
<event>
 6    1  0.1132867E-002  0.3000000E+03  0.7818608E-02  0.1093470E+00
         21   -1    0    0  501  502  0.00000000000E+00  0.00000000000E+00  0.10550406871E+00  0.10550406871E+00  0.00000000000E+00 0. -1.
         13   -1    0    0    0    0 -0.00000000000E+00 -0.00000000000E+00 -0.10000000000E+04  0.10000000000E+04  0.00000000000E+00 0.  1.
    9000005    2    1    2  501    0  0.16810467176E+01  0.79501389412E+01 -0.68801233833E+03  0.68811750613E+03  0.88709594826E+01 0.  0.
         13    1    3    3    0    0 -0.93362209215E+00  0.61327011941E+01 -0.20310189070E+03  0.20319660351E+03  0.00000000000E+00 0.  1.
          1    1    3    3  501    0  0.26146688097E+01  0.18174377471E+01 -0.48491044763E+03  0.48492090262E+03  0.00000000000E+00 0.  1.
         -1    1    1    2    0  502 -0.16810467176E+01 -0.79501389412E+01 -0.31188215760E+03  0.31198799794E+03  0.00000000000E+00 0. -1.
<mgrwt>
<rscale>  1 0.30000000E+03</rscale>
<asrwt>0</asrwt>
<pdfrwt beam="1">  1       21 0.38365197E-03 0.30000000E+03</pdfrwt>
<pdfrwt beam="2">0</pdfrwt>
<totfact> 0.18061029E+06</totfact>
</mgrwt>
</event>
<event>
 6    1  0.1132867E-002  0.3000000E+03  0.7818608E-02  0.1093470E+00
         21   -1    0    0  501  502  0.00000000000E+00  0.00000000000E+00  0.38289994224E+00  0.38289994224E+00  0.00000000000E+00 0. -1.
         13   -1    0    0    0    0 -0.00000000000E+00 -0.00000000000E+00 -0.10000000000E+04  0.10000000000E+04  0.00000000000E+00 0.  1.
    9000005    2    1    2  501    0  0.12307832904E+02 -0.46363698047E+01 -0.83967019074E+03  0.83989616381E+03  0.14372128612E+02 0.  0.
         13    1    3    3    0    0  0.13880355628E+02 -0.34082606575E+01 -0.82009730700E+03  0.82022184405E+03  0.00000000000E+00 0.  1.
          3    1    3    3  501    0 -0.15725227242E+01 -0.12281091472E+01 -0.19572883746E+02  0.19674319757E+02  0.00000000000E+00 0.  1.
         -1    1    1    2    0  502 -0.12307832904E+02  0.46363698047E+01 -0.15994690932E+03  0.16048673614E+03  0.00000000000E+00 0. -1.
<mgrwt>
<rscale>  1 0.30000000E+03</rscale>
<asrwt>0</asrwt>
<pdfrwt beam="1">  1       21 0.13923664E-02 0.30000000E+03</pdfrwt>
<pdfrwt beam="2">0</pdfrwt>
<totfact> 0.23818919E+05</totfact>
</mgrwt>
</event>
<event>
 6    1  0.1132867E-002  0.3000000E+03  0.7818608E-02  0.1093470E+00
         21   -1    0    0  501  502  0.00000000000E+00  0.00000000000E+00  0.11767540471E+00  0.11767540471E+00  0.00000000000E+00 0. -1.
         13   -1    0    0    0    0 -0.00000000000E+00 -0.00000000000E+00 -0.10000000000E+04  0.10000000000E+04  0.00000000000E+00 0.  1.
    9000005    2    1    2  501    0 -0.72960043952E+01  0.44102676656E+01 -0.59376422284E+03  0.59391009951E+03  0.10028550945E+02 0.  0.
         13    1    3    3    0    0 -0.16764725264E+01  0.15800892114E+01 -0.45245667634E+03  0.45246254122E+03  0.00000000000E+00 0.  1.
          1    1    3    3  501    0 -0.56195318688E+01  0.28301784541E+01 -0.14130754650E+03  0.14144755829E+03  0.00000000000E+00 0.  1.
         -3    1    1    2    0  502  0.72960043952E+01 -0.44102676656E+01 -0.40611810175E+03  0.40620757589E+03  0.00000000000E+00 0. -1.
<mgrwt>
<rscale>  1 0.30000000E+03</rscale>
<asrwt>0</asrwt>
<pdfrwt beam="1">  1       21 0.42791146E-03 0.30000000E+03</pdfrwt>
<pdfrwt beam="2">0</pdfrwt>
<totfact> 0.15260509E+06</totfact>
</mgrwt>
</event>
<event>
 6    1  0.1132867E-002  0.3000000E+03  0.7818608E-02  0.1093470E+00
         21   -1    0    0  501  502  0.00000000000E+00  0.00000000000E+00  0.54377831545E+00  0.54377831545E+00  0.00000000000E+00 0. -1.
         13   -1    0    0    0    0 -0.00000000000E+00 -0.00000000000E+00 -0.10000000000E+04  0.10000000000E+04  0.00000000000E+00 0.  1.
    9000005    2    1    2  501    0 -0.11101907068E+02 -0.69529100183E+01 -0.89470052109E+03  0.89497222862E+03  0.17739003977E+02 0.  0.
         13    1    3    3    0    0 -0.14665589944E+02 -0.31108687270E+01 -0.46922359422E+03  0.46946303199E+03  0.00000000000E+00 0.  1.
          3    1    3    3  501    0  0.35636828756E+01 -0.38420412913E+01 -0.42547692687E+03  0.42550919663E+03  0.00000000000E+00 0.  1.
         -1    1    1    2    0  502  0.11101907068E+02  0.69529100183E+01 -0.10475570059E+03  0.10557154970E+03  0.00000000000E+00 0. -1.
<mgrwt>
<rscale>  1 0.30000000E+03</rscale>
<asrwt>0</asrwt>
<pdfrwt beam="1">  1       21 0.19773799E-02 0.30000000E+03</pdfrwt>
<pdfrwt beam="2">0</pdfrwt>
<totfact> 0.13504217E+05</totfact>
</mgrwt>
</event>
<event>
 6    1  0.1132867E-002  0.3000000E+03  0.7818608E-02  0.1093470E+00
         21   -1    0    0  501  502  0.00000000000E+00  0.00000000000E+00  0.18249530940E+00  0.18249530940E+00  0.00000000000E+00 0. -1.
         13   -1    0    0    0    0 -0.00000000000E+00 -0.00000000000E+00 -0.10000000000E+04  0.10000000000E+04  0.00000000000E+00 0.  1.
    9000005    2    1    2  501    0 -0.25725875324E+01 -0.91297851001E+01 -0.83717293518E+03  0.83726157224E+03  0.76449832478E+01 0.  0.
         13    1    3    3    0    0 -0.18262315451E+01  0.87833316474E+00 -0.10189119427E+03  0.10191134412E+03  0.00000000000E+00 0.  1.
          3    1    3    3  501    0 -0.74635598735E+00 -0.10008118265E+02 -0.73528174091E+03  0.73535022812E+03  0.00000000000E+00 0.  1.
         -3    1    1    2    0  502  0.25725875324E+01  0.91297851001E+01 -0.16264456951E+03  0.16292092307E+03  0.00000000000E+00 0. -1.
<mgrwt>
<rscale>  1 0.30000000E+03</rscale>
<asrwt>0</asrwt>
<pdfrwt beam="1">  1       21 0.66362071E-03 0.30000000E+03</pdfrwt>
<pdfrwt beam="2">0</pdfrwt>
<totfact> 0.77119331E+05</totfact>
</mgrwt>
</event>
<event>
 6    1  0.1132867E-002  0.3000000E+03  0.7818608E-02  0.1093470E+00
         21   -1    0    0  501  502  0.00000000000E+00  0.00000000000E+00  0.42802398018E+00  0.42802398018E+00  0.00000000000E+00 0. -1.
         13   -1    0    0    0    0 -0.00000000000E+00 -0.00000000000E+00 -0.10000000000E+04  0.10000000000E+04  0.00000000000E+00 0.  1.
    9000005    2    1    2  501    0  0.11347314694E+02 -0.10282850582E+02 -0.83070616989E+03  0.83086930540E+03  0.60467673007E+01 0.  0.
         13    1    3    3    0    0  0.81554350496E+01 -0.45856053410E+01 -0.37671480479E+03  0.37683097411E+03  0.00000000000E+00 0.  1.
          1    1    3    3  501    0  0.31918796444E+01 -0.56972452414E+01 -0.45399136509E+03  0.45403833129E+03  0.00000000000E+00 0.  1.
         -1    1    1    2    0  502 -0.11347314694E+02  0.10282850582E+02 -0.16886580613E+03  0.16955871858E+03  0.00000000000E+00 0. -1.
<mgrwt>
<rscale>  1 0.30000000E+03</rscale>
<asrwt>0</asrwt>
<pdfrwt beam="1">  1       21 0.15564541E-02 0.30000000E+03</pdfrwt>
<pdfrwt beam="2">0</pdfrwt>
<totfact> 0.19908737E+05</totfact>
</mgrwt>
</event>
<event>
 6    1  0.1132867E-002  0.3000000E+03  0.7818608E-02  0.1093470E+00
         21   -1    0    0  501  502  0.00000000000E+00  0.00000000000E+00  0.31118239760E+00  0.31118239760E+00  0.00000000000E+00 0. -1.
         13   -1    0    0    0    0 -0.00000000000E+00 -0.00000000000E+00 -0.10000000000E+04  0.10000000000E+04  0.00000000000E+00 0.  1.
    9000005    2    1    2  501    0 -0.10399365915E+02 -0.57890239710E+01 -0.82071166782E+03  0.82093872143E+03  0.15201415538E+02 0.  0.
         13    1    3    3    0    0 -0.93277393706E+00  0.49218306618E+01 -0.20735777124E+03  0.20741827252E+03  0.00000000000E+00 0.  1.
          3    1    3    3  501    0 -0.94665919781E+01 -0.10710854633E+02 -0.61335389659E+03  0.61352044891E+03  0.00000000000E+00 0.  1.
         -1    1    1    2    0  502  0.10399365915E+02  0.57890239710E+01 -0.17897714978E+03  0.17937246097E+03  0.00000000000E+00 0. -1.
<mgrwt>
<rscale>  1 0.30000000E+03</rscale>
<asrwt>0</asrwt>
<pdfrwt beam="1">  1       21 0.11315747E-02 0.30000000E+03</pdfrwt>
<pdfrwt beam="2">0</pdfrwt>
<totfact> 0.33194724E+05</totfact>
</mgrwt>
</event>
<event>
 6    1  0.1132867E-002  0.3000000E+03  0.7818608E-02  0.1093470E+00
         21   -1    0    0  501  502  0.00000000000E+00  0.00000000000E+00  0.30572948562E+00  0.30572948562E+00  0.00000000000E+00 0. -1.
         13   -1    0    0    0    0 -0.00000000000E+00 -0.00000000000E+00 -0.10000000000E+04  0.10000000000E+04  0.00000000000E+00 0.  1.
    9000005    2    1    2  501    0  0.14830420821E+02  0.78059931381E+01 -0.62454972114E+03  0.62478701112E+03  0.39471748507E+01 0.  0.
         13    1    3    3    0    0  0.33821441377E+01  0.22499048720E+01 -0.99093921873E+02  0.99177146174E+02  0.00000000000E+00 0.  1.
          3    1    3    3  501    0  0.11448276684E+02  0.55560882661E+01 -0.52545579926E+03  0.52560986495E+03  0.00000000000E+00 0.  1.
         -1    1    1    2    0  502 -0.14830420821E+02 -0.78059931381E+01 -0.37514454938E+03  0.37551871836E+03  0.00000000000E+00 0. -1.
<mgrwt>
<rscale>  1 0.30000000E+03</rscale>
<asrwt>0</asrwt>
<pdfrwt beam="1">  1       21 0.11117459E-02 0.30000000E+03</pdfrwt>
<pdfrwt beam="2">0</pdfrwt>
<totfact> 0.34143014E+05</totfact>
</mgrwt>
</event>
<event>
 6    1  0.1132867E-002  0.3000000E+03  0.7818608E-02  0.1093470E+00
         21   -1    0    0  501  502  0.00000000000E+00  0.00000000000E+00  0.10312633593E+01  0.10312633593E+01  0.00000000000E+00 0. -1.
         13   -1    0    0    0    0 -0.00000000000E+00 -0.00000000000E+00 -0.10000000000E+04  0.10000000000E+04  0.00000000000E+00 0.  1.
    9000005    2    1    2  501    0 -0.21442048596E+02  0.18595787737E+02 -0.56118519096E+03  0.56232863328E+03  0.21888546879E+02 0.  0.
         13    1    3    3    0    0 -0.96479290743E+01  0.89123501916E+01 -0.43868938804E+03  0.43888596662E+03  0.00000000000E+00 0.  1.
          1    1    3    3  501    0 -0.11794119521E+02  0.96834375451E+01 -0.12249580293E+03  0.12344266666E+03  0.00000000000E+00 0.  1.
         -1    1    1    2    0  502  0.21442048596E+02 -0.18595787737E+02 -0.43778354568E+03  0.43870263008E+03  0.00000000000E+00 0. -1.
<mgrwt>
<rscale>  1 0.30000000E+03</rscale>
<asrwt>0</asrwt>
<pdfrwt beam="1">  1       21 0.37500565E-02 0.30000000E+03</pdfrwt>
<pdfrwt beam="2">0</pdfrwt>
<totfact> 0.46866088E+04</totfact>
</mgrwt>
</event>
<event>
 6    1  0.1132867E-002  0.3000000E+03  0.7818608E-02  0.1093470E+00
         21   -1    0    0  501  502  0.00000000000E+00  0.00000000000E+00  0.44262408759E+00  0.44262408759E+00  0.00000000000E+00 0. -1.
         13   -1    0    0    0    0 -0.00000000000E+00 -0.00000000000E+00 -0.10000000000E+04  0.10000000000E+04  0.00000000000E+00 0.  1.
    9000005    2    1    2  501    0 -0.12318359221E+02  0.86899456397E+01 -0.80188304859E+03  0.80219430301E+03  0.16492999450E+02 0.  0.
         13    1    3    3    0    0 -0.13322803476E+02 -0.19443020665E+00 -0.44620958222E+03  0.44640847456E+03  0.00000000000E+00 0.  1.
          1    1    3    3  501    0  0.10044442550E+01  0.88843758463E+01 -0.35567346637E+03  0.35578582845E+03  0.00000000000E+00 0.  1.
         -1    1    1    2    0  502  0.12318359221E+02 -0.86899456397E+01 -0.19767432732E+03  0.19824832108E+03  0.00000000000E+00 0. -1.
<mgrwt>
<rscale>  1 0.30000000E+03</rscale>
<asrwt>0</asrwt>
<pdfrwt beam="1">  1       21 0.16095455E-02 0.30000000E+03</pdfrwt>
<pdfrwt beam="2">0</pdfrwt>
<totfact> 0.18859318E+05</totfact>
</mgrwt>
</event>
<event>
 6    1  0.1132867E-002  0.3000000E+03  0.7818608E-02  0.1093470E+00
         21   -1    0    0  501  502  0.00000000000E+00  0.00000000000E+00  0.71311453191E+00  0.71311453191E+00  0.00000000000E+00 0.  1.
         13   -1    0    0    0    0 -0.00000000000E+00 -0.00000000000E+00 -0.10000000000E+04  0.10000000000E+04  0.00000000000E+00 0.  1.
    9000005    2    1    2  501    0 -0.26728590710E+01 -0.14699981640E+02 -0.76291124894E+03  0.76386574769E+03  0.35129376583E+02 0.  0.
         13    1    3    3    0    0 -0.12389256821E+02 -0.15978434353E+02 -0.23633347353E+03  0.23719678488E+03  0.00000000000E+00 0.  1.
          3    1    3    3  501    0  0.97163977501E+01  0.12784527129E+01 -0.52657777541E+03  0.52666896281E+03  0.00000000000E+00 0.  1.
         -1    1    1    2    0  502  0.26728590710E+01  0.14699981640E+02 -0.23637563653E+03  0.23684736684E+03  0.00000000000E+00 0. -1.
<mgrwt>
<rscale>  1 0.30000000E+03</rscale>
<asrwt>0</asrwt>
<pdfrwt beam="1">  1       21 0.25931492E-02 0.30000000E+03</pdfrwt>
<pdfrwt beam="2">0</pdfrwt>
<totfact> 0.86591319E+04</totfact>
</mgrwt>
</event>
<event>
 6    1  0.1407859E-002  0.3000000E+03  0.7818608E-02  0.1093470E+00
         21   -1    0    0  501  502  0.00000000000E+00  0.00000000000E+00  0.18602928768E+01  0.18602928768E+01  0.00000000000E+00 0.  1.
         13   -1    0    0    0    0 -0.00000000000E+00 -0.00000000000E+00 -0.10000000000E+04  0.10000000000E+04  0.00000000000E+00 0.  1.
    9000005    2    1    2  501    0 -0.86786421093E+01  0.12211464854E+02 -0.92594514630E+03  0.92812771313E+03  0.61823937376E+02 0.  0.
         13    1    3    3    0    0 -0.28686399219E+02  0.22827238068E+01 -0.22579735126E+03  0.22762373374E+03  0.00000000000E+00 0.  1.
          3    1    3    3  501    0  0.20007757110E+02  0.99287410468E+01 -0.70014779504E+03  0.70050397939E+03  0.00000000000E+00 0.  1.
         -1    1    1    2    0  502  0.86786421093E+01 -0.12211464854E+02 -0.72194560826E+02  0.73732579744E+02  0.00000000000E+00 0. -1.
<mgrwt>
<rscale>  1 0.30000000E+03</rscale>
<asrwt>0</asrwt>
<pdfrwt beam="1">  1       21 0.67647156E-02 0.30000000E+03</pdfrwt>
<pdfrwt beam="2">0</pdfrwt>
<totfact> 0.17123160E+04</totfact>
</mgrwt>
</event>
<event>
 6    1  0.1132867E-002  0.3000000E+03  0.7818608E-02  0.1093470E+00
         21   -1    0    0  501  502  0.00000000000E+00  0.00000000000E+00  0.21703709076E+00  0.21703709076E+00  0.00000000000E+00 0. -1.
         13   -1    0    0    0    0 -0.00000000000E+00 -0.00000000000E+00 -0.10000000000E+04  0.10000000000E+04  0.00000000000E+00 0.  1.
    9000005    2    1    2  501    0  0.33733092800E+01  0.10542789983E+02 -0.81743274053E+03  0.81753115028E+03  0.61940907646E+01 0.  0.
         13    1    3    3    0    0  0.46462866612E+01  0.86750727316E+01 -0.73998538031E+03  0.74005081443E+03  0.00000000000E+00 0.  1.
          3    1    3    3  501    0 -0.12729773812E+01  0.18677172511E+01 -0.77447360219E+02  0.77480335854E+02  0.00000000000E+00 0.  1.
         -3    1    1    2    0  502 -0.33733092800E+01 -0.10542789983E+02 -0.18235022238E+03  0.18268588681E+03  0.00000000000E+00 0. -1.
<mgrwt>
<rscale>  1 0.30000000E+03</rscale>
<asrwt>0</asrwt>
<pdfrwt beam="1">  1       21 0.78922745E-03 0.30000000E+03</pdfrwt>
<pdfrwt beam="2">0</pdfrwt>
<totfact> 0.58746857E+05</totfact>
</mgrwt>
</event>
<event>
 6    1  0.1132867E-002  0.3000000E+03  0.7818608E-02  0.1093470E+00
         21   -1    0    0  501  502  0.00000000000E+00  0.00000000000E+00  0.92610150580E+00  0.92610150580E+00  0.00000000000E+00 0. -1.
         13   -1    0    0    0    0 -0.00000000000E+00 -0.00000000000E+00 -0.10000000000E+04  0.10000000000E+04  0.00000000000E+00 0.  1.
    9000005    2    1    2  501    0  0.24774688327E+02 -0.15800690869E+02 -0.59095721275E+03  0.59175293988E+03  0.88129188916E+01 0.  0.
         13    1    3    3    0    0  0.26514498371E+00 -0.30207312709E+01 -0.55671434339E+02  0.55753956995E+02  0.00000000000E+00 0.  1.
          3    1    3    3  501    0  0.24509543343E+02 -0.12779959598E+02 -0.53528577841E+03  0.53599898288E+03  0.00000000000E+00 0.  1.
         -1    1    1    2    0  502 -0.24774688327E+02  0.15800690869E+02 -0.40811668575E+03  0.40917316163E+03  0.00000000000E+00 0. -1.
<mgrwt>
<rscale>  1 0.30000000E+03</rscale>
<asrwt>0</asrwt>
<pdfrwt beam="1">  1       21 0.33676489E-02 0.30000000E+03</pdfrwt>
<pdfrwt beam="2">0</pdfrwt>
<totfact> 0.56120243E+04</totfact>
</mgrwt>
</event>
<event>
 6    1  0.1132867E-002  0.3000000E+03  0.7818608E-02  0.1093470E+00
         21   -1    0    0  501  502  0.00000000000E+00  0.00000000000E+00  0.36178594693E+00  0.36178594693E+00  0.00000000000E+00 0. -1.
         13   -1    0    0    0    0 -0.00000000000E+00 -0.00000000000E+00 -0.10000000000E+04  0.10000000000E+04  0.00000000000E+00 0.  1.
    9000005    2    1    2  501    0  0.11651175274E+02 -0.69397207374E-01 -0.88915838853E+03  0.88926927248E+03  0.78386465054E+01 0.  0.
         13    1    3    3    0    0  0.16961416990E+01  0.23724823136E+01 -0.95046069633E+02  0.95090803560E+02  0.00000000000E+00 0.  1.
          3    1    3    3  501    0  0.99550335751E+01 -0.24418795210E+01 -0.79411231889E+03  0.79417846892E+03  0.00000000000E+00 0.  1.
         -1    1    1    2    0  502 -0.11651175274E+02  0.69397207374E-01 -0.11047982552E+03  0.11109251347E+03  0.00000000000E+00 0. -1.
<mgrwt>
<rscale>  1 0.30000000E+03</rscale>
<asrwt>0</asrwt>
<pdfrwt beam="1">  1       21 0.13155880E-02 0.30000000E+03</pdfrwt>
<pdfrwt beam="2">0</pdfrwt>
<totfact> 0.26089916E+05</totfact>
</mgrwt>
</event>
<event>
 6    1  0.1132867E-002  0.3000000E+03  0.7818608E-02  0.1093470E+00
         21   -1    0    0  501  502  0.00000000000E+00  0.00000000000E+00  0.64267383967E+01  0.64267383967E+01  0.00000000000E+00 0. -1.
         13   -1    0    0    0    0 -0.00000000000E+00 -0.00000000000E+00 -0.10000000000E+04  0.10000000000E+04  0.00000000000E+00 0.  1.
    9000005    2    1    2  501    0  0.37288482403E+02  0.21344508386E+02 -0.92130148138E+03  0.92234803018E+03  0.91351098573E+01 0.  0.
         13    1    3    3    0    0  0.31647836032E+02  0.20087568539E+02 -0.73292712838E+03  0.73388505329E+03  0.00000000000E+00 0.  1.
          1    1    3    3  501    0  0.56406463712E+01  0.12569398476E+01 -0.18837435300E+03  0.18846297689E+03  0.00000000000E+00 0.  1.
         -1    1    1    2    0  502 -0.37288482403E+02 -0.21344508386E+02 -0.72271780223E+02  0.84078708213E+02  0.00000000000E+00 0. -1.
<mgrwt>
<rscale>  1 0.30000000E+03</rscale>
<asrwt>0</asrwt>
<pdfrwt beam="1">  1       21 0.23370007E-01 0.30000000E+03</pdfrwt>
<pdfrwt beam="2">0</pdfrwt>
<totfact> 0.17784483E+03</totfact>
</mgrwt>
</event>
<event>
 6    1  0.1132867E-002  0.3000000E+03  0.7818608E-02  0.1093470E+00
         21   -1    0    0  501  502  0.00000000000E+00  0.00000000000E+00  0.15825836777E+00  0.15825836777E+00  0.00000000000E+00 0.  1.
         13   -1    0    0    0    0 -0.00000000000E+00 -0.00000000000E+00 -0.10000000000E+04  0.10000000000E+04  0.00000000000E+00 0.  1.
    9000005    2    1    2  501    0 -0.19792926975E+01 -0.85434071029E+01 -0.74071807846E+03  0.74088623863E+03  0.13124001879E+02 0.  0.
         13    1    3    3    0    0 -0.33284078880E+01  0.67029904038E+00 -0.46232381440E+03  0.46233628125E+03  0.00000000000E+00 0.  1.
          3    1    3    3  501    0  0.13491151905E+01 -0.92137061433E+01 -0.27839426407E+03  0.27854995739E+03  0.00000000000E+00 0.  1.
         -3    1    1    2    0  502  0.19792926975E+01  0.85434071029E+01 -0.25912366317E+03  0.25927201974E+03  0.00000000000E+00 0. -1.
<mgrwt>
<rscale>  1 0.30000000E+03</rscale>
<asrwt>0</asrwt>
<pdfrwt beam="1">  1       21 0.57548619E-03 0.30000000E+03</pdfrwt>
<pdfrwt beam="2">0</pdfrwt>
<totfact> 0.96352314E+05</totfact>
</mgrwt>
</event>
<event>
 6    1  0.1132867E-002  0.3000000E+03  0.7818608E-02  0.1093470E+00
         21   -1    0    0  501  502  0.00000000000E+00  0.00000000000E+00  0.29657868561E+00  0.29657868561E+00  0.00000000000E+00 0. -1.
         13   -1    0    0    0    0 -0.00000000000E+00 -0.00000000000E+00 -0.10000000000E+04  0.10000000000E+04  0.00000000000E+00 0.  1.
    9000005    2    1    2  501    0 -0.13632919351E+02 -0.26696640969E+00 -0.78196441012E+03  0.78213103430E+03  0.86422427655E+01 0.  0.
         13    1    3    3    0    0  0.10292098113E+01 -0.61085816390E+00 -0.30420003830E+02  0.30443538781E+02  0.00000000000E+00 0.  1.
          1    1    3    3  501    0 -0.14662129162E+02  0.34389175422E+00 -0.75154440629E+03  0.75168749552E+03  0.00000000000E+00 0.  1.
         -3    1    1    2    0  502  0.13632919351E+02  0.26696640969E+00 -0.21773901120E+03  0.21816554439E+03  0.00000000000E+00 0. -1.
<mgrwt>
<rscale>  1 0.30000000E+03</rscale>
<asrwt>0</asrwt>
<pdfrwt beam="1">  1       21 0.10784702E-02 0.30000000E+03</pdfrwt>
<pdfrwt beam="2">0</pdfrwt>
<totfact> 0.35835655E+05</totfact>
</mgrwt>
</event>
<event>
 6    1  0.1132867E-002  0.3000000E+03  0.7818608E-02  0.1093470E+00
         21   -1    0    0  501  502  0.00000000000E+00  0.00000000000E+00  0.31491552821E+00  0.31491552821E+00  0.00000000000E+00 0. -1.
         13   -1    0    0    0    0 -0.00000000000E+00 -0.00000000000E+00 -0.10000000000E+04  0.10000000000E+04  0.00000000000E+00 0.  1.
    9000005    2    1    2  501    0 -0.65721482770E+01  0.10946894379E+02 -0.75960675653E+03  0.75989729725E+03  0.16686826474E+02 0.  0.
         13    1    3    3    0    0 -0.62407696385E+01  0.12602675984E+02 -0.75070966817E+03  0.75084138173E+03  0.00000000000E+00 0.  1.
          3    1    3    3  501    0 -0.33137863845E+00 -0.16557816050E+01 -0.88970883648E+01  0.90559155195E+01  0.00000000000E+00 0.  1.
         -1    1    1    2    0  502  0.65721482770E+01 -0.10946894379E+02 -0.24007832794E+03  0.24041761827E+03  0.00000000000E+00 0. -1.
<mgrwt>
<rscale>  1 0.30000000E+03</rscale>
<asrwt>0</asrwt>
<pdfrwt beam="1">  1       21 0.11451498E-02 0.30000000E+03</pdfrwt>
<pdfrwt beam="2">0</pdfrwt>
<totfact> 0.32569691E+05</totfact>
</mgrwt>
</event>
<event>
 6    1  0.1132867E-002  0.3000000E+03  0.7818608E-02  0.1093470E+00
         21   -1    0    0  501  502  0.00000000000E+00  0.00000000000E+00  0.66622461626E+00  0.66622461626E+00  0.00000000000E+00 0. -1.
         13   -1    0    0    0    0 -0.00000000000E+00 -0.00000000000E+00 -0.10000000000E+04  0.10000000000E+04  0.00000000000E+00 0.  1.
    9000005    2    1    2  501    0 -0.25564629632E+01  0.18479544751E+02 -0.84085999251E+03  0.84109815471E+03  0.72491217489E+01 0.  0.
         13    1    3    3    0    0  0.18189556893E+01  0.11512044857E+02 -0.44441026886E+03  0.44456306959E+03  0.00000000000E+00 0.  1.
          3    1    3    3  501    0 -0.43754186524E+01  0.69674998939E+01 -0.39644972366E+03  0.39653508512E+03  0.00000000000E+00 0.  1.
         -1    1    1    2    0  502  0.25564629632E+01 -0.18479544751E+02 -0.15847378287E+03  0.15956806991E+03  0.00000000000E+00 0. -1.
<mgrwt>
<rscale>  1 0.30000000E+03</rscale>
<asrwt>0</asrwt>
<pdfrwt beam="1">  1       21 0.24226401E-02 0.30000000E+03</pdfrwt>
<pdfrwt beam="2">0</pdfrwt>
<totfact> 0.96848285E+04</totfact>
</mgrwt>
</event>
<event>
 6    1  0.1132867E-002  0.3000000E+03  0.7818608E-02  0.1093470E+00
         21   -1    0    0  501  502  0.00000000000E+00  0.00000000000E+00  0.29509278926E+01  0.29509278926E+01  0.00000000000E+00 0. -1.
         13   -1    0    0    0    0 -0.00000000000E+00 -0.00000000000E+00 -0.10000000000E+04  0.10000000000E+04  0.00000000000E+00 0.  1.
    9000005    2    1    2  501    0 -0.34296799371E+02  0.33191596119E+02 -0.73372638668E+03  0.73533779451E+03  0.94503449267E+01 0.  0.
         13    1    3    3    0    0 -0.31775069788E+02  0.31611064336E+02 -0.71188382950E+03  0.71329341870E+03  0.00000000000E+00 0.  1.
          1    1    3    3  501    0 -0.25217295824E+01  0.15805317835E+01 -0.21842557178E+02  0.22044375811E+02  0.00000000000E+00 0.  1.
         -1    1    1    2    0  502  0.34296799371E+02 -0.33191596119E+02 -0.26332268543E+03  0.26761313338E+03  0.00000000000E+00 0. -1.
<mgrwt>
<rscale>  1 0.30000000E+03</rscale>
<asrwt>0</asrwt>
<pdfrwt beam="1">  1       21 0.10730670E-01 0.30000000E+03</pdfrwt>
<pdfrwt beam="2">0</pdfrwt>
<totfact> 0.75824305E+03</totfact>
</mgrwt>
</event>
<event>
 6    1  0.1132867E-002  0.3000000E+03  0.7818608E-02  0.1093470E+00
         21   -1    0    0  501  502  0.00000000000E+00  0.00000000000E+00  0.21084504017E+00  0.21084504017E+00  0.00000000000E+00 0. -1.
         13   -1    0    0    0    0 -0.00000000000E+00 -0.00000000000E+00 -0.10000000000E+04  0.10000000000E+04  0.00000000000E+00 0.  1.
    9000005    2    1    2  501    0 -0.81675648894E+01 -0.18054213660E+01 -0.64164882427E+03  0.64197284437E+03  0.18599745965E+02 0.  0.
         13    1    3    3    0    0 -0.21903627469E+01 -0.90061237853E+01 -0.18883926312E+03  0.18906658946E+03  0.00000000000E+00 0.  1.
          3    1    3    3  501    0 -0.59772021425E+01  0.72007024194E+01 -0.45280956116E+03  0.45290625491E+03  0.00000000000E+00 0.  1.
         -1    1    1    2    0  502  0.81675648894E+01  0.18054213660E+01 -0.35814033069E+03  0.35823800067E+03  0.00000000000E+00 0. -1.
<mgrwt>
<rscale>  1 0.30000000E+03</rscale>
<asrwt>0</asrwt>
<pdfrwt beam="1">  1       21 0.76671085E-03 0.30000000E+03</pdfrwt>
<pdfrwt beam="2">0</pdfrwt>
<totfact> 0.61485291E+05</totfact>
</mgrwt>
</event>
<event>
 6    1  0.1132867E-002  0.3000000E+03  0.7818608E-02  0.1093470E+00
         21   -1    0    0  501  502  0.00000000000E+00  0.00000000000E+00  0.29711940422E+00  0.29711940422E+00  0.00000000000E+00 0. -1.
         13   -1    0    0    0    0 -0.00000000000E+00 -0.00000000000E+00 -0.10000000000E+04  0.10000000000E+04  0.00000000000E+00 0.  1.
    9000005    2    1    2  501    0  0.55657867178E+01  0.15321160558E+02 -0.57204004984E+03  0.57232374085E+03  0.76765731204E+01 0.  0.
         13    1    3    3    0    0  0.30285424062E+01  0.12363654074E+02 -0.31926472732E+03  0.31951838464E+03  0.00000000000E+00 0.  1.
          3    1    3    3  501    0  0.25372443116E+01  0.29575064836E+01 -0.25277532252E+03  0.25280535621E+03  0.00000000000E+00 0.  1.
         -1    1    1    2    0  502 -0.55657867178E+01 -0.15321160558E+02 -0.42766283075E+03  0.42797337855E+03  0.00000000000E+00 0. -1.
<mgrwt>
<rscale>  1 0.30000000E+03</rscale>
<asrwt>0</asrwt>
<pdfrwt beam="1">  1       21 0.10804365E-02 0.30000000E+03</pdfrwt>
<pdfrwt beam="2">0</pdfrwt>
<totfact> 0.35731908E+05</totfact>
</mgrwt>
</event>
<event>
 6    1  0.1132867E-002  0.3000000E+03  0.7818608E-02  0.1093470E+00
         21   -1    0    0  501  502  0.00000000000E+00  0.00000000000E+00  0.10635570101E+00  0.10635570101E+00  0.00000000000E+00 0. -1.
         13   -1    0    0    0    0 -0.00000000000E+00 -0.00000000000E+00 -0.10000000000E+04  0.10000000000E+04  0.00000000000E+00 0.  1.
    9000005    2    1    2  501    0 -0.99343768121E+01 -0.47408482102E+00 -0.58422855482E+03  0.58432229731E+03  0.32597959400E+01 0.  0.
         13    1    3    3    0    0 -0.23575513509E+01  0.11541049615E+01 -0.11670118488E+03  0.11673070101E+03  0.00000000000E+00 0.  1.
          3    1    3    3  501    0 -0.75768254612E+01 -0.16281897826E+01 -0.46752736993E+03  0.46759159629E+03  0.00000000000E+00 0.  1.
         -3    1    1    2    0  502  0.99343768121E+01  0.47408482102E+00 -0.41566508948E+03  0.41578405839E+03  0.00000000000E+00 0. -1.
<mgrwt>
<rscale>  1 0.30000000E+03</rscale>
<asrwt>0</asrwt>
<pdfrwt beam="1">  1       21 0.38674882E-03 0.30000000E+03</pdfrwt>
<pdfrwt beam="2">0</pdfrwt>
<totfact> 0.17838519E+06</totfact>
</mgrwt>
</event>
<event>
 6    1  0.1132867E-002  0.3000000E+03  0.7818608E-02  0.1093470E+00
         21   -1    0    0  501  502  0.00000000000E+00  0.00000000000E+00  0.13427796636E+00  0.13427796636E+00  0.00000000000E+00 0. -1.
         13   -1    0    0    0    0 -0.00000000000E+00 -0.00000000000E+00 -0.10000000000E+04  0.10000000000E+04  0.00000000000E+00 0.  1.
    9000005    2    1    2  501    0 -0.27189583790E+01 -0.85736911306E+01 -0.76641900344E+03  0.76651434873E+03  0.80781842458E+01 0.  0.
         13    1    3    3    0    0  0.20828820397E+01 -0.19693650625E+01 -0.37084470990E+03  0.37085578822E+03  0.00000000000E+00 0.  1.
          3    1    3    3  501    0 -0.48018404187E+01 -0.66043260680E+01 -0.39557429355E+03  0.39565856051E+03  0.00000000000E+00 0.  1.
         -3    1    1    2    0  502  0.27189583790E+01  0.85736911306E+01 -0.23344671859E+03  0.23361992923E+03  0.00000000000E+00 0. -1.
<mgrwt>
<rscale>  1 0.30000000E+03</rscale>
<asrwt>0</asrwt>
<pdfrwt beam="1">  1       21 0.48828454E-03 0.30000000E+03</pdfrwt>
<pdfrwt beam="2">0</pdfrwt>
<totfact> 0.12440193E+06</totfact>
</mgrwt>
</event>
<event>
 6    1  0.1132867E-002  0.3000000E+03  0.7818608E-02  0.1093470E+00
         21   -1    0    0  501  502  0.00000000000E+00  0.00000000000E+00  0.12441721249E+00  0.12441721249E+00  0.00000000000E+00 0. -1.
         13   -1    0    0    0    0 -0.00000000000E+00 -0.00000000000E+00 -0.10000000000E+04  0.10000000000E+04  0.00000000000E+00 0.  1.
    9000005    2    1    2  501    0 -0.85706036855E+01 -0.33848988127E+01 -0.73776400315E+03  0.73785090927E+03  0.65823386140E+01 0.  0.
         13    1    3    3    0    0  0.17275797719E+00 -0.14100466468E+01 -0.25334298794E+03  0.25334697080E+03  0.00000000000E+00 0.  1.
          3    1    3    3  501    0 -0.87433616627E+01 -0.19748521659E+01 -0.48442101521E+03  0.48450393847E+03  0.00000000000E+00 0.  1.
         -3    1    1    2    0  502  0.85706036855E+01  0.33848988127E+01 -0.26211157964E+03  0.26227350794E+03  0.00000000000E+00 0. -1.
<mgrwt>
<rscale>  1 0.30000000E+03</rscale>
<asrwt>0</asrwt>
<pdfrwt beam="1">  1       21 0.45242718E-03 0.30000000E+03</pdfrwt>
<pdfrwt beam="2">0</pdfrwt>
<totfact> 0.14001032E+06</totfact>
</mgrwt>
</event>
<event>
 6    1  0.1132867E-002  0.3000000E+03  0.7818608E-02  0.1093470E+00
         21   -1    0    0  501  502  0.00000000000E+00  0.00000000000E+00  0.20668873919E+00  0.20668873919E+00  0.00000000000E+00 0. -1.
         13   -1    0    0    0    0 -0.00000000000E+00 -0.00000000000E+00 -0.10000000000E+04  0.10000000000E+04  0.00000000000E+00 0.  1.
    9000005    2    1    2  501    0  0.17526055461E+01 -0.12409652237E+02 -0.52933004391E+03  0.52957651863E+03  0.10194243420E+02 0.  0.
         13    1    3    3    0    0  0.62919981195E+00 -0.13136438368E+02 -0.35836596386E+03  0.35860720288E+03  0.00000000000E+00 0.  1.
          1    1    3    3  501    0  0.11234057341E+01  0.72678613155E+00 -0.17096408006E+03  0.17096931575E+03  0.00000000000E+00 0.  1.
         -3    1    1    2    0  502 -0.17526055461E+01  0.12409652237E+02 -0.47046326735E+03  0.47063017011E+03  0.00000000000E+00 0. -1.
<mgrwt>
<rscale>  1 0.30000000E+03</rscale>
<asrwt>0</asrwt>
<pdfrwt beam="1">  1       21 0.75159700E-03 0.30000000E+03</pdfrwt>
<pdfrwt beam="2">0</pdfrwt>
<totfact> 0.63440498E+05</totfact>
</mgrwt>
</event>
<event>
 6    1  0.1132867E-002  0.3000000E+03  0.7818608E-02  0.1093470E+00
         21   -1    0    0  501  502  0.00000000000E+00  0.00000000000E+00  0.12838340163E+00  0.12838340163E+00  0.00000000000E+00 0. -1.
         13   -1    0    0    0    0 -0.00000000000E+00 -0.00000000000E+00 -0.10000000000E+04  0.10000000000E+04  0.00000000000E+00 0.  1.
    9000005    2    1    2  501    0 -0.54124026188E+01 -0.62343191196E+01 -0.63645401772E+03  0.63661701905E+03  0.11804720980E+02 0.  0.
         13    1    3    3    0    0  0.23475129148E+01  0.18374522987E+01 -0.93331964845E+02  0.93379562591E+02  0.00000000000E+00 0.  1.
          1    1    3    3  501    0 -0.77599155336E+01 -0.80717714183E+01 -0.54312205288E+03  0.54323745646E+03  0.00000000000E+00 0.  1.
         -1    1    1    2    0  502  0.54124026188E+01  0.62343191196E+01 -0.36341759888E+03  0.36351136435E+03  0.00000000000E+00 0. -1.
<mgrwt>
<rscale>  1 0.30000000E+03</rscale>
<asrwt>0</asrwt>
<pdfrwt beam="1">  1       21 0.46684972E-03 0.30000000E+03</pdfrwt>
<pdfrwt beam="2">0</pdfrwt>
<totfact> 0.13337016E+06</totfact>
</mgrwt>
</event>
<event>
 6    1  0.1132867E-002  0.3000000E+03  0.7818608E-02  0.1093470E+00
         21   -1    0    0  501  502  0.00000000000E+00  0.00000000000E+00  0.91119400705E-01  0.91119400705E-01  0.00000000000E+00 0. -1.
         13   -1    0    0    0    0 -0.00000000000E+00 -0.00000000000E+00 -0.10000000000E+04  0.10000000000E+04  0.00000000000E+00 0.  1.
    9000005    2    1    2  501    0 -0.63479341636E+01 -0.44299866835E+01 -0.52234142894E+03  0.52246093617E+03  0.80585597181E+01 0.  0.
         13    1    3    3    0    0 -0.42015189015E+01 -0.67104200652E+00 -0.42710095132E+03  0.42712214375E+03  0.00000000000E+00 0.  1.
          3    1    3    3  501    0 -0.21464152622E+01 -0.37589446769E+01 -0.95240477615E+02  0.95338792419E+02  0.00000000000E+00 0.  1.
         -1    1    1    2    0  502  0.63479341636E+01  0.44299866835E+01 -0.47756745166E+03  0.47763018323E+03  0.00000000000E+00 0. -1.
<mgrwt>
<rscale>  1 0.30000000E+03</rscale>
<asrwt>0</asrwt>
<pdfrwt beam="1">  1       21 0.33134397E-03 0.30000000E+03</pdfrwt>
<pdfrwt beam="2">0</pdfrwt>
<totfact> 0.22627088E+06</totfact>
</mgrwt>
</event>
<event>
 6    1  0.1132867E-002  0.3000000E+03  0.7818608E-02  0.1093470E+00
         21   -1    0    0  501  502  0.00000000000E+00  0.00000000000E+00  0.62322873345E+00  0.62322873345E+00  0.00000000000E+00 0. -1.
         13   -1    0    0    0    0 -0.00000000000E+00 -0.00000000000E+00 -0.10000000000E+04  0.10000000000E+04  0.00000000000E+00 0.  1.
    9000005    2    1    2  501    0 -0.60627026839E+01 -0.20924511178E+02 -0.69936866434E+03  0.69982519724E+03  0.12813527693E+02 0.  0.
         13    1    3    3    0    0 -0.68146050778E+00 -0.19690715966E+02 -0.52717034655E+03  0.52753839952E+03  0.00000000000E+00 0.  1.
          1    1    3    3  501    0 -0.53812421761E+01 -0.12337952127E+01 -0.17219831779E+03  0.17228679772E+03  0.00000000000E+00 0.  1.
         -3    1    1    2    0  502  0.60627026839E+01  0.20924511178E+02 -0.30000810693E+03  0.30079803150E+03  0.00000000000E+00 0. -1.
<mgrwt>
<rscale>  1 0.30000000E+03</rscale>
<asrwt>0</asrwt>
<pdfrwt beam="1">  1       21 0.22662911E-02 0.30000000E+03</pdfrwt>
<pdfrwt beam="2">0</pdfrwt>
<totfact> 0.10805481E+05</totfact>
</mgrwt>
</event>
<event>
 6    1  0.1132867E-002  0.3000000E+03  0.7818608E-02  0.1093470E+00
         21   -1    0    0  501  502  0.00000000000E+00  0.00000000000E+00  0.89172895156E-01  0.89172895156E-01  0.00000000000E+00 0. -1.
         13   -1    0    0    0    0 -0.00000000000E+00 -0.00000000000E+00 -0.10000000000E+04  0.10000000000E+04  0.00000000000E+00 0.  1.
    9000005    2    1    2  501    0 -0.39397469219E+01 -0.68388208072E+01 -0.49374448568E+03  0.49386130299E+03  0.72854908656E+01 0.  0.
         13    1    3    3    0    0 -0.17770644326E+01 -0.75579654194E+01 -0.28947153842E+03  0.28957564185E+03  0.00000000000E+00 0.  1.
          1    1    3    3  501    0 -0.21626824893E+01  0.71914461216E+00 -0.20427294726E+03  0.20428566114E+03  0.00000000000E+00 0.  1.
         -1    1    1    2    0  502  0.39397469219E+01  0.68388208072E+01 -0.50616634142E+03  0.50622786990E+03  0.00000000000E+00 0. -1.
<mgrwt>
<rscale>  1 0.30000000E+03</rscale>
<asrwt>0</asrwt>
<pdfrwt beam="1">  1       21 0.32426576E-03 0.30000000E+03</pdfrwt>
<pdfrwt beam="2">0</pdfrwt>
<totfact> 0.23389145E+06</totfact>
</mgrwt>
</event>
<event>
 6    1  0.1132867E-002  0.3000000E+03  0.7818608E-02  0.1093470E+00
         21   -1    0    0  501  502  0.00000000000E+00  0.00000000000E+00  0.11511272856E+00  0.11511272856E+00  0.00000000000E+00 0. -1.
         13   -1    0    0    0    0 -0.00000000000E+00 -0.00000000000E+00 -0.10000000000E+04  0.10000000000E+04  0.00000000000E+00 0.  1.
    9000005    2    1    2  501    0 -0.51120456121E+01 -0.70859572166E+01 -0.69687339622E+03  0.69697767276E+03  0.83067544853E+01 0.  0.
         13    1    3    3    0    0  0.21809800368E+01 -0.13989216081E+01 -0.21431660918E+03  0.21433227155E+03  0.00000000000E+00 0.  1.
          3    1    3    3  501    0 -0.72930256489E+01 -0.56870356086E+01 -0.48255678704E+03  0.48264540122E+03  0.00000000000E+00 0.  1.
         -3    1    1    2    0  502  0.51120456121E+01  0.70859572166E+01 -0.30301149105E+03  0.30313743997E+03  0.00000000000E+00 0. -1.
<mgrwt>
<rscale>  1 0.30000000E+03</rscale>
<asrwt>0</asrwt>
<pdfrwt beam="1">  1       21 0.41859262E-03 0.30000000E+03</pdfrwt>
<pdfrwt beam="2">0</pdfrwt>
<totfact> 0.15788411E+06</totfact>
</mgrwt>
</event>
<event>
 6    1  0.1132867E-002  0.3000000E+03  0.7818608E-02  0.1093470E+00
         21   -1    0    0  501  502  0.00000000000E+00  0.00000000000E+00  0.40428898604E+00  0.40428898604E+00  0.00000000000E+00 0. -1.
         13   -1    0    0    0    0 -0.00000000000E+00 -0.00000000000E+00 -0.10000000000E+04  0.10000000000E+04  0.00000000000E+00 0.  1.
    9000005    2    1    2  501    0  0.67511709733E+01  0.17771980371E+02 -0.55613382123E+03  0.55653508609E+03  0.92224361609E+01 0.  0.
         13    1    3    3    0    0  0.11673907574E+00  0.10519721776E+02 -0.21193639789E+03  0.21219734900E+03  0.00000000000E+00 0.  1.
          3    1    3    3  501    0  0.66344318976E+01  0.72522585941E+01 -0.34419742335E+03  0.34433773709E+03  0.00000000000E+00 0.  1.
         -3    1    1    2    0  502 -0.67511709733E+01 -0.17771980371E+02 -0.44346188978E+03  0.44386920290E+03  0.00000000000E+00 0. -1.
<mgrwt>
<rscale>  1 0.30000000E+03</rscale>
<asrwt>0</asrwt>
<pdfrwt beam="1">  1       21 0.14701449E-02 0.30000000E+03</pdfrwt>
<pdfrwt beam="2">0</pdfrwt>
<totfact> 0.21825447E+05</totfact>
</mgrwt>
</event>
<event>
 6    1  0.1132867E-002  0.3000000E+03  0.7818608E-02  0.1093470E+00
         21   -1    0    0  501  502  0.00000000000E+00  0.00000000000E+00  0.54250029744E+00  0.54250029744E+00  0.00000000000E+00 0. -1.
         13   -1    0    0    0    0 -0.00000000000E+00 -0.00000000000E+00 -0.10000000000E+04  0.10000000000E+04  0.00000000000E+00 0.  1.
    9000005    2    1    2  501    0  0.15466509222E+02  0.48022881316E+01 -0.83019590060E+03  0.83050790437E+03  0.15995967684E+02 0.  0.
         13    1    3    3    0    0  0.18181316126E+02  0.57533456993E+01 -0.62235088006E+03  0.62264297889E+03  0.00000000000E+00 0.  1.
          1    1    3    3  501    0 -0.27148069044E+01 -0.95105756771E+00 -0.20784502053E+03  0.20786492549E+03  0.00000000000E+00 0.  1.
         -3    1    1    2    0  502 -0.15466509222E+02 -0.48022881316E+01 -0.16926159911E+03  0.17003459592E+03  0.00000000000E+00 0. -1.
<mgrwt>
<rscale>  1 0.30000000E+03</rscale>
<asrwt>0</asrwt>
<pdfrwt beam="1">  1       21 0.19727325E-02 0.30000000E+03</pdfrwt>
<pdfrwt beam="2">0</pdfrwt>
<totfact> 0.13556080E+05</totfact>
</mgrwt>
</event>
<event>
 6    1  0.1132867E-002  0.3000000E+03  0.7818608E-02  0.1093470E+00
         21   -1    0    0  501  502  0.00000000000E+00  0.00000000000E+00  0.32548552003E+00  0.32548552003E+00  0.00000000000E+00 0. -1.
         13   -1    0    0    0    0 -0.00000000000E+00 -0.00000000000E+00 -0.10000000000E+04  0.10000000000E+04  0.00000000000E+00 0.  1.
    9000005    2    1    2  501    0  0.42148984102E+01  0.15052631197E+02 -0.72217128958E+03  0.72238234942E+03  0.77807574904E+01 0.  0.
         13    1    3    3    0    0  0.34774602736E+01  0.12933083366E+02 -0.69125307848E+03  0.69138279981E+03  0.00000000000E+00 0.  1.
          1    1    3    3  501    0  0.73743813658E+00  0.21195478313E+01 -0.30918211100E+02  0.30999549604E+02  0.00000000000E+00 0.  1.
         -3    1    1    2    0  502 -0.42148984102E+01 -0.15052631197E+02 -0.27750322490E+03  0.27794313610E+03  0.00000000000E+00 0. -1.
<mgrwt>
<rscale>  1 0.30000000E+03</rscale>
<asrwt>0</asrwt>
<pdfrwt beam="1">  1       21 0.11835862E-02 0.30000000E+03</pdfrwt>
<pdfrwt beam="2">0</pdfrwt>
<totfact> 0.30898838E+05</totfact>
</mgrwt>
</event>
<event>
 6    1  0.1132867E-002  0.3000000E+03  0.7818608E-02  0.1093470E+00
         21   -1    0    0  501  502  0.00000000000E+00  0.00000000000E+00  0.14482222276E+01  0.14482222276E+01  0.00000000000E+00 0. -1.
         13   -1    0    0    0    0 -0.00000000000E+00 -0.00000000000E+00 -0.10000000000E+04  0.10000000000E+04  0.00000000000E+00 0.  1.
    9000005    2    1    2  501    0 -0.11348433399E+02  0.31885045569E+02 -0.62983853648E+03  0.63118494106E+03  0.23503291745E+02 0.  0.
         13    1    3    3    0    0 -0.17726004985E+02  0.27595077838E+02 -0.55008381605E+03  0.55106070832E+03  0.00000000000E+00 0.  1.
          1    1    3    3  501    0  0.63775715861E+01  0.42899677314E+01 -0.79754720422E+02  0.80124232740E+02  0.00000000000E+00 0.  1.
         -3    1    1    2    0  502  0.11348433399E+02 -0.31885045569E+02 -0.36871324130E+03  0.37026328116E+03  0.00000000000E+00 0. -1.
<mgrwt>
<rscale>  1 0.30000000E+03</rscale>
<asrwt>0</asrwt>
<pdfrwt beam="1">  1       21 0.52662738E-02 0.30000000E+03</pdfrwt>
<pdfrwt beam="2">0</pdfrwt>
<totfact> 0.26363082E+04</totfact>
</mgrwt>
</event>
<event>
 6    1  0.1132867E-002  0.3000000E+03  0.7818608E-02  0.1093470E+00
         21   -1    0    0  501  502  0.00000000000E+00  0.00000000000E+00  0.25262834406E+00  0.25262834406E+00  0.00000000000E+00 0. -1.
         13   -1    0    0    0    0 -0.00000000000E+00 -0.00000000000E+00 -0.10000000000E+04  0.10000000000E+04  0.00000000000E+00 0.  1.
    9000005    2    1    2  501    0 -0.11728626061E+02 -0.65608145156E+01 -0.40855294103E+03  0.40890547162E+03  0.10371795619E+02 0.  0.
         13    1    3    3    0    0 -0.82018239789E+01  0.13081303533E+01 -0.21569864958E+03  0.21585849196E+03  0.00000000000E+00 0.  1.
          3    1    3    3  501    0 -0.35268020821E+01 -0.78689448689E+01 -0.19285429145E+03  0.19304697966E+03  0.00000000000E+00 0.  1.
         -1    1    1    2    0  502  0.11728626061E+02  0.65608145156E+01 -0.59119443063E+03  0.59134715672E+03  0.00000000000E+00 0. -1.
<mgrwt>
<rscale>  1 0.30000000E+03</rscale>
<asrwt>0</asrwt>
<pdfrwt beam="1">  1       21 0.91865046E-03 0.30000000E+03</pdfrwt>
<pdfrwt beam="2">0</pdfrwt>
<totfact> 0.46224909E+05</totfact>
</mgrwt>
</event>
<event>
 6    1  0.1132867E-002  0.3000000E+03  0.7818608E-02  0.1093470E+00
         21   -1    0    0  501  502  0.00000000000E+00  0.00000000000E+00  0.24833571997E+00  0.24833571997E+00  0.00000000000E+00 0. -1.
         13   -1    0    0    0    0 -0.00000000000E+00 -0.00000000000E+00 -0.10000000000E+04  0.10000000000E+04  0.00000000000E+00 0.  1.
    9000005    2    1    2  501    0  0.60548091209E+01 -0.77724874836E+01 -0.86204492497E+03  0.86218958617E+03  0.12343320576E+02 0.  0.
         13    1    3    3    0    0  0.37562993191E+01 -0.11221751410E+01 -0.67640400332E+03  0.67641536408E+03  0.00000000000E+00 0.  1.
          1    1    3    3  501    0  0.22985098017E+01 -0.66503123426E+01 -0.18564092165E+03  0.18577422209E+03  0.00000000000E+00 0.  1.
         -3    1    1    2    0  502 -0.60548091209E+01  0.77724874836E+01 -0.13770673931E+03  0.13805874955E+03  0.00000000000E+00 0. -1.
<mgrwt>
<rscale>  1 0.30000000E+03</rscale>
<asrwt>0</asrwt>
<pdfrwt beam="1">  1       21 0.90304089E-03 0.30000000E+03</pdfrwt>
<pdfrwt beam="2">0</pdfrwt>
<totfact> 0.47494932E+05</totfact>
</mgrwt>
</event>
<event>
 6    1  0.1132867E-002  0.3000000E+03  0.7818608E-02  0.1093470E+00
         21   -1    0    0  501  502  0.00000000000E+00  0.00000000000E+00  0.40447754719E+00  0.40447754719E+00  0.00000000000E+00 0. -1.
         13   -1    0    0    0    0 -0.00000000000E+00 -0.00000000000E+00 -0.10000000000E+04  0.10000000000E+04  0.00000000000E+00 0.  1.
    9000005    2    1    2  501    0  0.10541545629E+02 -0.67781859974E+01 -0.85998911822E+03  0.86023666350E+03  0.16394078114E+02 0.  0.
         13    1    3    3    0    0  0.35286342060E+01  0.47594435853E+01 -0.14642582095E+03  0.14654564000E+03  0.00000000000E+00 0.  1.
          3    1    3    3  501    0  0.70129114229E+01 -0.11537629583E+02 -0.71356329727E+03  0.71369102351E+03  0.00000000000E+00 0.  1.
         -3    1    1    2    0  502 -0.10541545629E+02  0.67781859974E+01 -0.13960640424E+03  0.14016781404E+03  0.00000000000E+00 0. -1.
<mgrwt>
<rscale>  1 0.30000000E+03</rscale>
<asrwt>0</asrwt>
<pdfrwt beam="1">  1       21 0.14708305E-02 0.30000000E+03</pdfrwt>
<pdfrwt beam="2">0</pdfrwt>
<totfact> 0.21809074E+05</totfact>
</mgrwt>
</event>
<event>
 6    1  0.1132867E-002  0.3000000E+03  0.7818608E-02  0.1093470E+00
         21   -1    0    0  501  502  0.00000000000E+00  0.00000000000E+00  0.27361442577E+00  0.27361442577E+00  0.00000000000E+00 0.  1.
         13   -1    0    0    0    0 -0.00000000000E+00 -0.00000000000E+00 -0.10000000000E+04  0.10000000000E+04  0.00000000000E+00 0.  1.
    9000005    2    1    2  501    0  0.32381793390E+01 -0.11050623454E+02 -0.59474967353E+03  0.59513321977E+03  0.17993694032E+02 0.  0.
         13    1    3    3    0    0 -0.39709057391E+01 -0.18982408114E+01 -0.40625143245E+03  0.40627527340E+03  0.00000000000E+00 0.  1.
          3    1    3    3  501    0  0.72090850780E+01 -0.91523826422E+01 -0.18849824108E+03  0.18885794637E+03  0.00000000000E+00 0.  1.
         -3    1    1    2    0  502 -0.32381793390E+01  0.11050623454E+02 -0.40497671204E+03  0.40514039466E+03  0.00000000000E+00 0. -1.
<mgrwt>
<rscale>  1 0.30000000E+03</rscale>
<asrwt>0</asrwt>
<pdfrwt beam="1">  1       21 0.99496365E-03 0.30000000E+03</pdfrwt>
<pdfrwt beam="2">0</pdfrwt>
<totfact> 0.40734595E+05</totfact>
</mgrwt>
</event>
<event>
 6    1  0.1132867E-002  0.3000000E+03  0.7818608E-02  0.1093470E+00
         21   -1    0    0  501  502  0.00000000000E+00  0.00000000000E+00  0.22213900268E+00  0.22213900268E+00  0.00000000000E+00 0.  1.
         13   -1    0    0    0    0 -0.00000000000E+00 -0.00000000000E+00 -0.10000000000E+04  0.10000000000E+04  0.00000000000E+00 0.  1.
    9000005    2    1    2  501    0 -0.17792711032E+01  0.11226076844E+02 -0.31041208730E+03  0.31076266916E+03  0.94118008965E+01 0.  0.
         13    1    3    3    0    0 -0.13992148862E+01  0.11730096441E+01 -0.16187052769E+03  0.16188082496E+03  0.00000000000E+00 0.  1.
          1    1    3    3  501    0 -0.38005621701E+00  0.10053067199E+02 -0.14854155960E+03  0.14888184420E+03  0.00000000000E+00 0.  1.
         -1    1    1    2    0  502  0.17792711032E+01 -0.11226076844E+02 -0.68936577370E+03  0.68945946985E+03  0.00000000000E+00 0. -1.
<mgrwt>
<rscale>  1 0.30000000E+03</rscale>
<asrwt>0</asrwt>
<pdfrwt beam="1">  1       21 0.80777989E-03 0.30000000E+03</pdfrwt>
<pdfrwt beam="2">0</pdfrwt>
<totfact> 0.56634506E+05</totfact>
</mgrwt>
</event>
<event>
 6    1  0.1132867E-002  0.3000000E+03  0.7818608E-02  0.1093470E+00
         21   -1    0    0  501  502  0.00000000000E+00  0.00000000000E+00  0.13265745635E+00  0.13265745635E+00  0.00000000000E+00 0. -1.
         13   -1    0    0    0    0 -0.00000000000E+00 -0.00000000000E+00 -0.10000000000E+04  0.10000000000E+04  0.00000000000E+00 0.  1.
    9000005    2    1    2  501    0 -0.41920031514E+01  0.94169539217E+01 -0.50025156426E+03  0.50041055687E+03  0.72695229316E+01 0.  0.
         13    1    3    3    0    0 -0.33985225048E+01  0.56507565315E+01 -0.15823190450E+03  0.15836924135E+03  0.00000000000E+00 0.  1.
          1    1    3    3  501    0 -0.79348064655E+00  0.37661973902E+01 -0.34201965976E+03  0.34204131551E+03  0.00000000000E+00 0.  1.
         -1    1    1    2    0  502  0.41920031514E+01 -0.94169539217E+01 -0.49961577828E+03  0.49972210059E+03  0.00000000000E+00 0. -1.
<mgrwt>
<rscale>  1 0.30000000E+03</rscale>
<asrwt>0</asrwt>
<pdfrwt beam="1">  1       21 0.48239177E-03 0.30000000E+03</pdfrwt>
<pdfrwt beam="2">0</pdfrwt>
<totfact> 0.12676801E+06</totfact>
</mgrwt>
</event>
<event>
 6    1  0.1132867E-002  0.3000000E+03  0.7818608E-02  0.1093470E+00
         21   -1    0    0  501  502  0.00000000000E+00  0.00000000000E+00  0.27302219047E+00  0.27302219047E+00  0.00000000000E+00 0.  1.
         13   -1    0    0    0    0 -0.00000000000E+00 -0.00000000000E+00 -0.10000000000E+04  0.10000000000E+04  0.00000000000E+00 0.  1.
    9000005    2    1    2  501    0 -0.55818336798E+01 -0.91982481965E+01 -0.80384203595E+03  0.80409281146E+03  0.16954823366E+02 0.  0.
         13    1    3    3    0    0 -0.41155968349E+01 -0.57387689099E+01 -0.77163918458E+03  0.77167149927E+03  0.00000000000E+00 0.  1.
          3    1    3    3  501    0 -0.14662368449E+01 -0.34594792866E+01 -0.32202851368E+02  0.32421312183E+02  0.00000000000E+00 0.  1.
         -3    1    1    2    0  502  0.55818336798E+01  0.91982481965E+01 -0.19588494186E+03  0.19618021074E+03  0.00000000000E+00 0. -1.
<mgrwt>
<rscale>  1 0.30000000E+03</rscale>
<asrwt>0</asrwt>
<pdfrwt beam="1">  1       21 0.99281006E-03 0.30000000E+03</pdfrwt>
<pdfrwt beam="2">0</pdfrwt>
<totfact> 0.40874926E+05</totfact>
</mgrwt>
</event>
<event>
 6    1  0.1132867E-002  0.3000000E+03  0.7818608E-02  0.1093470E+00
         21   -1    0    0  501  502  0.00000000000E+00  0.00000000000E+00  0.65994380117E+00  0.65994380117E+00  0.00000000000E+00 0. -1.
         13   -1    0    0    0    0 -0.00000000000E+00 -0.00000000000E+00 -0.10000000000E+04  0.10000000000E+04  0.00000000000E+00 0.  1.
    9000005    2    1    2  501    0  0.53094450754E+01  0.16497262407E+02 -0.85932034696E+03  0.85957178395E+03  0.11482299216E+02 0.  0.
         13    1    3    3    0    0  0.69841195126E+01  0.16957227976E+02 -0.82819601351E+03  0.82839903567E+03  0.00000000000E+00 0.  1.
          3    1    3    3  501    0 -0.16746744372E+01 -0.45996556902E+00 -0.31124333446E+02  0.31172748279E+02  0.00000000000E+00 0.  1.
         -1    1    1    2    0  502 -0.53094450754E+01 -0.16497262407E+02 -0.14001970924E+03  0.14108815985E+03  0.00000000000E+00 0. -1.
<mgrwt>
<rscale>  1 0.30000000E+03</rscale>
<asrwt>0</asrwt>
<pdfrwt beam="1">  1       21 0.23998007E-02 0.30000000E+03</pdfrwt>
<pdfrwt beam="2">0</pdfrwt>
<totfact> 0.98367286E+04</totfact>
</mgrwt>
</event>
<event>
 6    1  0.1132867E-002  0.3000000E+03  0.7818608E-02  0.1093470E+00
         21   -1    0    0  501  502  0.00000000000E+00  0.00000000000E+00  0.16551043840E+00  0.16551043840E+00  0.00000000000E+00 0. -1.
         13   -1    0    0    0    0 -0.00000000000E+00 -0.00000000000E+00 -0.10000000000E+04  0.10000000000E+04  0.00000000000E+00 0.  1.
    9000005    2    1    2  501    0 -0.85180119614E+01 -0.58806843579E+01 -0.72949514636E+03  0.72962808335E+03  0.93183938989E+01 0.  0.
         13    1    3    3    0    0 -0.81665258108E+01 -0.13952597601E+00 -0.41600604734E+03  0.41608622068E+03  0.00000000000E+00 0.  1.
          3    1    3    3  501    0 -0.35148615062E+00 -0.57411583819E+01 -0.31348909902E+03  0.31354186267E+03  0.00000000000E+00 0.  1.
         -3    1    1    2    0  502  0.85180119614E+01  0.58806843579E+01 -0.27033934320E+03  0.27053742709E+03  0.00000000000E+00 0. -1.
<mgrwt>
<rscale>  1 0.30000000E+03</rscale>
<asrwt>0</asrwt>
<pdfrwt beam="1">  1       21 0.60185741E-03 0.30000000E+03</pdfrwt>
<pdfrwt beam="2">0</pdfrwt>
<totfact> 0.89848964E+05</totfact>
</mgrwt>
</event>
<event>
 6    1  0.1132867E-002  0.3000000E+03  0.7818608E-02  0.1093470E+00
         21   -1    0    0  501  502  0.00000000000E+00  0.00000000000E+00  0.96230397007E-01  0.96230397007E-01  0.00000000000E+00 0. -1.
         13   -1    0    0    0    0 -0.00000000000E+00 -0.00000000000E+00 -0.10000000000E+04  0.10000000000E+04  0.00000000000E+00 0.  1.
    9000005    2    1    2  501    0  0.33162607974E+01 -0.71685068268E+01 -0.50276391422E+03  0.50289363498E+03  0.82504296373E+01 0.  0.
         13    1    3    3    0    0 -0.24868321650E+01 -0.42494671847E+01 -0.22159458414E+03  0.22164927707E+03  0.00000000000E+00 0.  1.
          1    1    3    3  501    0  0.58030929624E+01 -0.29190396422E+01 -0.28116933007E+03  0.28124435791E+03  0.00000000000E+00 0.  1.
         -3    1    1    2    0  502 -0.33162607974E+01  0.71685068268E+01 -0.49713985538E+03  0.49720259541E+03  0.00000000000E+00 0. -1.
<mgrwt>
<rscale>  1 0.30000000E+03</rscale>
<asrwt>0</asrwt>
<pdfrwt beam="1">  1       21 0.34992945E-03 0.30000000E+03</pdfrwt>
<pdfrwt beam="2">0</pdfrwt>
<totfact> 0.20808338E+06</totfact>
</mgrwt>
</event>
<event>
 6    1  0.1132867E-002  0.3000000E+03  0.7818608E-02  0.1093470E+00
         21   -1    0    0  501  502  0.00000000000E+00  0.00000000000E+00  0.24615306456E+00  0.24615306456E+00  0.00000000000E+00 0. -1.
         13   -1    0    0    0    0 -0.00000000000E+00 -0.00000000000E+00 -0.10000000000E+04  0.10000000000E+04  0.00000000000E+00 0.  1.
    9000005    2    1    2  501    0 -0.10502645745E+02  0.96849968779E+01 -0.49270216313E+03  0.49299324298E+03  0.91000739405E+01 0.  0.
         13    1    3    3    0    0 -0.62283914819E+01  0.70018582561E+01 -0.42497802184E+03  0.42508133095E+03  0.00000000000E+00 0.  1.
          1    1    3    3  501    0 -0.42742542633E+01  0.26831386218E+01 -0.67724141290E+02  0.67911912032E+02  0.00000000000E+00 0.  1.
         -3    1    1    2    0  502  0.10502645745E+02 -0.96849968779E+01 -0.50705168381E+03  0.50725291008E+03  0.00000000000E+00 0. -1.
<mgrwt>
<rscale>  1 0.30000000E+03</rscale>
<asrwt>0</asrwt>
<pdfrwt beam="1">  1       21 0.89510394E-03 0.30000000E+03</pdfrwt>
<pdfrwt beam="2">0</pdfrwt>
<totfact> 0.48162414E+05</totfact>
</mgrwt>
</event>
<event>
 6    1  0.1132867E-002  0.3000000E+03  0.7818608E-02  0.1093470E+00
         21   -1    0    0  501  502  0.00000000000E+00  0.00000000000E+00  0.17915674098E+00  0.17915674098E+00  0.00000000000E+00 0.  1.
         13   -1    0    0    0    0 -0.00000000000E+00 -0.00000000000E+00 -0.10000000000E+04  0.10000000000E+04  0.00000000000E+00 0.  1.
    9000005    2    1    2  501    0  0.80710348559E+01 -0.11435116968E+00 -0.63084974883E+03  0.63111978048E+03  0.16601717927E+02 0.  0.
         13    1    3    3    0    0 -0.20356445774E+01 -0.54805362291E+01 -0.33124347331E+03  0.33129506295E+03  0.00000000000E+00 0.  1.
          1    1    3    3  501    0  0.10106679433E+02  0.53661850595E+01 -0.29960627552E+03  0.29982471753E+03  0.00000000000E+00 0.  1.
         -3    1    1    2    0  502 -0.80710348559E+01  0.11435116968E+00 -0.36897109443E+03  0.36905937626E+03  0.00000000000E+00 0. -1.
<mgrwt>
<rscale>  1 0.30000000E+03</rscale>
<asrwt>0</asrwt>
<pdfrwt beam="1">  1       21 0.65148043E-03 0.30000000E+03</pdfrwt>
<pdfrwt beam="2">0</pdfrwt>
<totfact> 0.79380885E+05</totfact>
</mgrwt>
</event>
<event>
 6    1  0.1132867E-002  0.3000000E+03  0.7818608E-02  0.1093470E+00
         21   -1    0    0  501  502  0.00000000000E+00  0.00000000000E+00  0.35239500052E+00  0.35239500052E+00  0.00000000000E+00 0. -1.
         13   -1    0    0    0    0 -0.00000000000E+00 -0.00000000000E+00 -0.10000000000E+04  0.10000000000E+04  0.00000000000E+00 0.  1.
    9000005    2    1    2  501    0 -0.17124458892E+02  0.42538056511E+01 -0.48987548231E+03  0.49027499006E+03  0.89574415701E+01 0.  0.
         13    1    3    3    0    0 -0.12834963154E+02  0.11626670492E+00 -0.39767685114E+03  0.39788393752E+03  0.00000000000E+00 0.  1.
          1    1    3    3  501    0 -0.42894957385E+01  0.41375389462E+01 -0.92198631166E+02  0.92391052549E+02  0.00000000000E+00 0.  1.
         -1    1    1    2    0  502  0.17124458892E+02 -0.42538056511E+01 -0.50977212269E+03  0.51007740494E+03  0.00000000000E+00 0. -1.
<mgrwt>
<rscale>  1 0.30000000E+03</rscale>
<asrwt>0</asrwt>
<pdfrwt beam="1">  1       21 0.12814391E-02 0.30000000E+03</pdfrwt>
<pdfrwt beam="2">0</pdfrwt>
<totfact> 0.27213438E+05</totfact>
</mgrwt>
</event>
<event>
 6    1  0.1132867E-002  0.3000000E+03  0.7818608E-02  0.1093470E+00
         21   -1    0    0  501  502  0.00000000000E+00  0.00000000000E+00  0.34422753341E+01  0.34422753341E+01  0.00000000000E+00 0. -1.
         13   -1    0    0    0    0 -0.00000000000E+00 -0.00000000000E+00 -0.10000000000E+04  0.10000000000E+04  0.00000000000E+00 0.  1.
    9000005    2    1    2  501    0 -0.58622571827E+01  0.10094579539E+02 -0.98967583401E+03  0.98989137078E+03  0.17041212343E+02 0.  0.
         13    1    3    3    0    0 -0.15182438259E+01  0.71162719928E+01 -0.91544446240E+03  0.91547338035E+03  0.00000000000E+00 0.  1.
          3    1    3    3  501    0 -0.43440133568E+01  0.29783075465E+01 -0.74231371607E+02  0.74417990423E+02  0.00000000000E+00 0.  1.
         -3    1    1    2    0  502  0.58622571827E+01 -0.10094579539E+02 -0.68818906566E+01  0.13550904559E+02  0.00000000000E+00 0. -1.
<mgrwt>
<rscale>  1 0.30000000E+03</rscale>
<asrwt>0</asrwt>
<pdfrwt beam="1">  1       21 0.12517391E-01 0.30000000E+03</pdfrwt>
<pdfrwt beam="2">0</pdfrwt>
<totfact> 0.57391418E+03</totfact>
</mgrwt>
</event>
<event>
 6    1  0.1132867E-002  0.3000000E+03  0.7818608E-02  0.1093470E+00
         21   -1    0    0  501  502  0.00000000000E+00  0.00000000000E+00  0.36230976171E+00  0.36230976171E+00  0.00000000000E+00 0. -1.
         13   -1    0    0    0    0 -0.00000000000E+00 -0.00000000000E+00 -0.10000000000E+04  0.10000000000E+04  0.00000000000E+00 0.  1.
    9000005    2    1    2  501    0 -0.10178514397E+02  0.99057815895E+01 -0.78185846158E+03  0.78212042767E+03  0.14421607718E+02 0.  0.
         13    1    3    3    0    0 -0.48853578369E+01  0.10571397300E+02 -0.69541441234E+03  0.69551191654E+03  0.00000000000E+00 0.  1.
          1    1    3    3  501    0 -0.52931565601E+01 -0.66561571048E+00 -0.86444049244E+02  0.86608511131E+02  0.00000000000E+00 0.  1.
         -3    1    1    2    0  502  0.10178514397E+02 -0.99057815895E+01 -0.21777922865E+03  0.21824188209E+03  0.00000000000E+00 0. -1.
<mgrwt>
<rscale>  1 0.30000000E+03</rscale>
<asrwt>0</asrwt>
<pdfrwt beam="1">  1       21 0.13174928E-02 0.30000000E+03</pdfrwt>
<pdfrwt beam="2">0</pdfrwt>
<totfact> 0.26029425E+05</totfact>
</mgrwt>
</event>
<event>
 6    1  0.1132867E-002  0.3000000E+03  0.7818608E-02  0.1093470E+00
         21   -1    0    0  501  502  0.00000000000E+00  0.00000000000E+00  0.49606039544E+00  0.49606039544E+00  0.00000000000E+00 0. -1.
         13   -1    0    0    0    0 -0.00000000000E+00 -0.00000000000E+00 -0.10000000000E+04  0.10000000000E+04  0.00000000000E+00 0.  1.
    9000005    2    1    2  501    0 -0.20309669006E+02 -0.45540866176E+01 -0.64053595448E+03  0.64092515403E+03  0.80945492019E+01 0.  0.
         13    1    3    3    0    0 -0.19115828287E+02 -0.24934218252E+01 -0.50420118317E+03  0.50456958406E+03  0.00000000000E+00 0.  1.
          3    1    3    3  501    0 -0.11938407192E+01 -0.20606647924E+01 -0.13633477131E+03  0.13635556997E+03  0.00000000000E+00 0.  1.
         -3    1    1    2    0  502  0.20309669006E+02  0.45540866176E+01 -0.35896798513E+03  0.35957090637E+03  0.00000000000E+00 0. -1.
<mgrwt>
<rscale>  1 0.30000000E+03</rscale>
<asrwt>0</asrwt>
<pdfrwt beam="1">  1       21 0.18038598E-02 0.30000000E+03</pdfrwt>
<pdfrwt beam="2">0</pdfrwt>
<totfact> 0.15679316E+05</totfact>
</mgrwt>
</event>
<event>
 6    1  0.1132867E-002  0.3000000E+03  0.7818608E-02  0.1093470E+00
         21   -1    0    0  501  502  0.00000000000E+00  0.00000000000E+00  0.18507838178E+00  0.18507838178E+00  0.00000000000E+00 0. -1.
         13   -1    0    0    0    0 -0.00000000000E+00 -0.00000000000E+00 -0.10000000000E+04  0.10000000000E+04  0.00000000000E+00 0.  1.
    9000005    2    1    2  501    0 -0.67069299020E+01 -0.76624771073E+01 -0.82323003780E+03  0.82330682178E+03  0.47677243028E+01 0.  0.
         13    1    3    3    0    0 -0.31081864023E+01 -0.10487876581E+01 -0.15717951534E+03  0.15721374247E+03  0.00000000000E+00 0.  1.
          3    1    3    3  501    0 -0.35987434998E+01 -0.66136894493E+01 -0.66605052246E+03  0.66609307932E+03  0.00000000000E+00 0.  1.
         -3    1    1    2    0  502  0.67069299020E+01  0.76624771073E+01 -0.17658488382E+03  0.17687825660E+03  0.00000000000E+00 0. -1.
<mgrwt>
<rscale>  1 0.30000000E+03</rscale>
<asrwt>0</asrwt>
<pdfrwt beam="1">  1       21 0.67301372E-03 0.30000000E+03</pdfrwt>
<pdfrwt beam="2">0</pdfrwt>
<totfact> 0.75440476E+05</totfact>
</mgrwt>
</event>
<event>
 6    1  0.1132867E-002  0.3000000E+03  0.7818608E-02  0.1093470E+00
         21   -1    0    0  501  502  0.00000000000E+00  0.00000000000E+00  0.26276699086E+00  0.26276699086E+00  0.00000000000E+00 0. -1.
         13   -1    0    0    0    0 -0.00000000000E+00 -0.00000000000E+00 -0.10000000000E+04  0.10000000000E+04  0.00000000000E+00 0.  1.
    9000005    2    1    2  501    0  0.65215950173E+01  0.13141310713E+02 -0.64962046278E+03  0.64983876946E+03  0.82737768768E+01 0.  0.
         13    1    3    3    0    0  0.10847620854E+01  0.81384174650E+01 -0.46190078968E+03  0.46197375472E+03  0.00000000000E+00 0.  1.
          1    1    3    3  501    0  0.54368329320E+01  0.50028932480E+01 -0.18771967310E+03  0.18786501473E+03  0.00000000000E+00 0.  1.
         -3    1    1    2    0  502 -0.65215950173E+01 -0.13141310713E+02 -0.35011677023E+03  0.35042399753E+03  0.00000000000E+00 0. -1.
<mgrwt>
<rscale>  1 0.30000000E+03</rscale>
<asrwt>0</asrwt>
<pdfrwt beam="1">  1       21 0.95551835E-03 0.30000000E+03</pdfrwt>
<pdfrwt beam="2">0</pdfrwt>
<totfact> 0.43433236E+05</totfact>
</mgrwt>
</event>
<event>
 6    1  0.1132867E-002  0.3000000E+03  0.7818608E-02  0.1093470E+00
         21   -1    0    0  501  502  0.00000000000E+00  0.00000000000E+00  0.67247902197E-01  0.67247902197E-01  0.00000000000E+00 0. -1.
         13   -1    0    0    0    0 -0.00000000000E+00 -0.00000000000E+00 -0.10000000000E+04  0.10000000000E+04  0.00000000000E+00 0.  1.
    9000005    2    1    2  501    0  0.46645237274E+01 -0.62558755294E+01 -0.52136516693E+03  0.52143604610E+03  0.36082031112E+01 0.  0.
         13    1    3    3    0    0  0.36204961785E+01 -0.65728205072E+01 -0.45900023859E+03  0.45906157429E+03  0.00000000000E+00 0.  1.
          1    1    3    3  501    0  0.10440275490E+01  0.31694497781E+00 -0.62364928338E+02  0.62374471815E+02  0.00000000000E+00 0.  1.
         -3    1    1    2    0  502 -0.46645237274E+01  0.62558755294E+01 -0.47856758517E+03  0.47863120180E+03  0.00000000000E+00 0. -1.
<mgrwt>
<rscale>  1 0.30000000E+03</rscale>
<asrwt>0</asrwt>
<pdfrwt beam="1">  1       21 0.24453834E-03 0.30000000E+03</pdfrwt>
<pdfrwt beam="2">0</pdfrwt>
<totfact> 0.36001667E+06</totfact>
</mgrwt>
</event>
<event>
 6    1  0.1132867E-002  0.3000000E+03  0.7818608E-02  0.1093470E+00
         21   -1    0    0  501  502  0.00000000000E+00  0.00000000000E+00  0.21609155443E+00  0.21609155443E+00  0.00000000000E+00 0. -1.
         13   -1    0    0    0    0 -0.00000000000E+00 -0.00000000000E+00 -0.10000000000E+04  0.10000000000E+04  0.00000000000E+00 0.  1.
    9000005    2    1    2  501    0  0.95387658072E+01  0.74998921396E+01 -0.72660435482E+03  0.72676718416E+03  0.94559555651E+01 0.  0.
         13    1    3    3    0    0  0.14708726805E+01  0.67874514575E+01 -0.41231702307E+03  0.41237550907E+03  0.00000000000E+00 0.  1.
          3    1    3    3  501    0  0.80678931267E+01  0.71244068210E+00 -0.31428733175E+03  0.31439167510E+03  0.00000000000E+00 0.  1.
         -3    1    1    2    0  502 -0.95387658072E+01 -0.74998921396E+01 -0.27317955362E+03  0.27344890739E+03  0.00000000000E+00 0. -1.
<mgrwt>
<rscale>  1 0.30000000E+03</rscale>
<asrwt>0</asrwt>
<pdfrwt beam="1">  1       21 0.78578913E-03 0.30000000E+03</pdfrwt>
<pdfrwt beam="2">0</pdfrwt>
<totfact> 0.59152214E+05</totfact>
</mgrwt>
</event>
<event>
 6    1  0.1132867E-002  0.3000000E+03  0.7818608E-02  0.1093470E+00
         21   -1    0    0  501  502  0.00000000000E+00  0.00000000000E+00  0.11712871380E+00  0.11712871380E+00  0.00000000000E+00 0. -1.
         13   -1    0    0    0    0 -0.00000000000E+00 -0.00000000000E+00 -0.10000000000E+04  0.10000000000E+04  0.00000000000E+00 0.  1.
    9000005    2    1    2  501    0 -0.58756406003E+00 -0.80801696901E+01 -0.59903755556E+03  0.59918995139E+03  0.10815290420E+02 0.  0.
         13    1    3    3    0    0 -0.36190339261E+01  0.11163628421E+01 -0.14787059461E+03  0.14791908742E+03  0.00000000000E+00 0.  1.
          3    1    3    3  501    0  0.30314698661E+01 -0.91965325322E+01 -0.45116696095E+03  0.45127086397E+03  0.00000000000E+00 0.  1.
         -1    1    1    2    0  502  0.58756406003E+00  0.80801696901E+01 -0.40084531573E+03  0.40092717732E+03  0.00000000000E+00 0. -1.
<mgrwt>
<rscale>  1 0.30000000E+03</rscale>
<asrwt>0</asrwt>
<pdfrwt beam="1">  1       21 0.42592349E-03 0.30000000E+03</pdfrwt>
<pdfrwt beam="2">0</pdfrwt>
<totfact> 0.15370685E+06</totfact>
</mgrwt>
</event>
<event>
 6    1  0.1132867E-002  0.3000000E+03  0.7818608E-02  0.1093470E+00
         21   -1    0    0  501  502  0.00000000000E+00  0.00000000000E+00  0.92418942182E-01  0.92418942182E-01  0.00000000000E+00 0. -1.
         13   -1    0    0    0    0 -0.00000000000E+00 -0.00000000000E+00 -0.10000000000E+04  0.10000000000E+04  0.00000000000E+00 0.  1.
    9000005    2    1    2  501    0 -0.68205739852E+01  0.58063145415E+01 -0.59268856093E+03  0.59277489676E+03  0.47026014498E+01 0.  0.
         13    1    3    3    0    0  0.44391892956E+00  0.79381849624E+00 -0.23007287661E+02  0.23025257812E+02  0.00000000000E+00 0.  1.
          1    1    3    3  501    0 -0.72644929148E+01  0.50124960452E+01 -0.56968127327E+03  0.56974963895E+03  0.00000000000E+00 0.  1.
         -3    1    1    2    0  502  0.68205739852E+01 -0.58063145415E+01 -0.40721902013E+03  0.40731752218E+03  0.00000000000E+00 0. -1.
<mgrwt>
<rscale>  1 0.30000000E+03</rscale>
<asrwt>0</asrwt>
<pdfrwt beam="1">  1       21 0.33606959E-03 0.30000000E+03</pdfrwt>
<pdfrwt beam="2">0</pdfrwt>
<totfact> 0.22140664E+06</totfact>
</mgrwt>
</event>
<event>
 6    1  0.1132867E-002  0.3000000E+03  0.7818608E-02  0.1093470E+00
         21   -1    0    0  501  502  0.00000000000E+00  0.00000000000E+00  0.13523007582E+00  0.13523007582E+00  0.00000000000E+00 0. -1.
         13   -1    0    0    0    0 -0.00000000000E+00 -0.00000000000E+00 -0.10000000000E+04  0.10000000000E+04  0.00000000000E+00 0.  1.
    9000005    2    1    2  501    0 -0.31059643136E+01 -0.93255756847E+01 -0.70883060339E+03  0.70893512797E+03  0.71817819163E+01 0.  0.
         13    1    3    3    0    0  0.77902845995E+00 -0.11498350394E+01 -0.30469516952E+03  0.30469833497E+03  0.00000000000E+00 0.  1.
          1    1    3    3  501    0 -0.38849927736E+01 -0.81757406453E+01 -0.40413543387E+03  0.40423679300E+03  0.00000000000E+00 0.  1.
         -3    1    1    2    0  502  0.31059643136E+01  0.93255756847E+01 -0.29103416653E+03  0.29120010210E+03  0.00000000000E+00 0. -1.
<mgrwt>
<rscale>  1 0.30000000E+03</rscale>
<asrwt>0</asrwt>
<pdfrwt beam="1">  1       21 0.49174677E-03 0.30000000E+03</pdfrwt>
<pdfrwt beam="2">0</pdfrwt>
<totfact> 0.12304485E+06</totfact>
</mgrwt>
</event>
<event>
 6    1  0.1132867E-002  0.3000000E+03  0.7818608E-02  0.1093470E+00
         21   -1    0    0  501  502  0.00000000000E+00  0.00000000000E+00  0.12516891018E+00  0.12516891018E+00  0.00000000000E+00 0. -1.
         13   -1    0    0    0    0 -0.00000000000E+00 -0.00000000000E+00 -0.10000000000E+04  0.10000000000E+04  0.00000000000E+00 0.  1.
    9000005    2    1    2  501    0  0.64363951170E+01 -0.68986820842E+01 -0.61709725037E+03  0.61723132553E+03  0.87449302407E+01 0.  0.
         13    1    3    3    0    0  0.21840127873E+01 -0.14656103359E+01 -0.37131097227E+02  0.37224136078E+02  0.00000000000E+00 0.  1.
          1    1    3    3  501    0  0.42523823296E+01 -0.54330717483E+01 -0.57996615314E+03  0.58000718945E+03  0.00000000000E+00 0.  1.
         -1    1    1    2    0  502 -0.64363951170E+01  0.68986820842E+01 -0.38277758072E+03  0.38289384338E+03  0.00000000000E+00 0. -1.
<mgrwt>
<rscale>  1 0.30000000E+03</rscale>
<asrwt>0</asrwt>
<pdfrwt beam="1">  1       21 0.45516063E-03 0.30000000E+03</pdfrwt>
<pdfrwt beam="2">0</pdfrwt>
<totfact> 0.13871116E+06</totfact>
</mgrwt>
</event>
<event>
 6    1  0.1132867E-002  0.3000000E+03  0.7818608E-02  0.1093470E+00
         21   -1    0    0  501  502  0.00000000000E+00  0.00000000000E+00  0.12587841871E+00  0.12587841871E+00  0.00000000000E+00 0. -1.
         13   -1    0    0    0    0 -0.00000000000E+00 -0.00000000000E+00 -0.10000000000E+04  0.10000000000E+04  0.00000000000E+00 0.  1.
    9000005    2    1    2  501    0  0.49306641500E+01 -0.83725730715E+01 -0.71911611777E+03  0.71919978826E+03  0.50924616039E+01 0.  0.
         13    1    3    3    0    0  0.52795644607E+01 -0.88822464819E+01 -0.66742203256E+03  0.66750201322E+03  0.00000000000E+00 0.  1.
          3    1    3    3  501    0 -0.34890031073E+00  0.50967341040E+00 -0.51694085207E+02  0.51697775037E+02  0.00000000000E+00 0.  1.
         -3    1    1    2    0  502 -0.49306641500E+01  0.83725730715E+01 -0.28075800381E+03  0.28092609016E+03  0.00000000000E+00 0. -1.
<mgrwt>
<rscale>  1 0.30000000E+03</rscale>
<asrwt>0</asrwt>
<pdfrwt beam="1">  1       21 0.45774067E-03 0.30000000E+03</pdfrwt>
<pdfrwt beam="2">0</pdfrwt>
<totfact> 0.13750278E+06</totfact>
</mgrwt>
</event>
<event>
 6    1  0.1132867E-002  0.3000000E+03  0.7818608E-02  0.1093470E+00
         21   -1    0    0  501  502  0.00000000000E+00  0.00000000000E+00  0.66152511721E+00  0.66152511721E+00  0.00000000000E+00 0.  1.
         13   -1    0    0    0    0 -0.00000000000E+00 -0.00000000000E+00 -0.10000000000E+04  0.10000000000E+04  0.00000000000E+00 0.  1.
    9000005    2    1    2  501    0 -0.12864564147E+02 -0.10901729824E+01 -0.84128475762E+03  0.84208137810E+03  0.34268330116E+02 0.  0.
         13    1    3    3    0    0  0.75906830491E+01 -0.93738481450E+01 -0.16673779755E+03  0.16717350457E+03  0.00000000000E+00 0.  1.
          1    1    3    3  501    0 -0.20455247197E+02  0.82836751626E+01 -0.67454696008E+03  0.67490787353E+03  0.00000000000E+00 0.  1.
         -1    1    1    2    0  502  0.12864564147E+02  0.10901729824E+01 -0.15805371726E+03  0.15858014702E+03  0.00000000000E+00 0. -1.
<mgrwt>
<rscale>  1 0.30000000E+03</rscale>
<asrwt>0</asrwt>
<pdfrwt beam="1">  1       21 0.24055510E-02 0.30000000E+03</pdfrwt>
<pdfrwt beam="2">0</pdfrwt>
<totfact> 0.97981312E+04</totfact>
</mgrwt>
</event>
<event>
 6    1  0.1132867E-002  0.3000000E+03  0.7818608E-02  0.1093470E+00
         21   -1    0    0  501  502  0.00000000000E+00  0.00000000000E+00  0.16242794447E+00  0.16242794447E+00  0.00000000000E+00 0. -1.
         13   -1    0    0    0    0 -0.00000000000E+00 -0.00000000000E+00 -0.10000000000E+04  0.10000000000E+04  0.00000000000E+00 0.  1.
    9000005    2    1    2  501    0 -0.27211570859E+01 -0.10202167202E+02 -0.69757336779E+03  0.69771385696E+03  0.91942280677E+01 0.  0.
         13    1    3    3    0    0  0.20047087134E+01 -0.42271782139E+01 -0.12137685671E+03  0.12146698827E+03  0.00000000000E+00 0.  1.
          3    1    3    3  501    0 -0.47258657992E+01 -0.59749889885E+01 -0.57619651107E+03  0.57624686869E+03  0.00000000000E+00 0.  1.
         -3    1    1    2    0  502  0.27211570859E+01  0.10202167202E+02 -0.30226420427E+03  0.30244857099E+03  0.00000000000E+00 0. -1.
<mgrwt>
<rscale>  1 0.30000000E+03</rscale>
<asrwt>0</asrwt>
<pdfrwt beam="1">  1       21 0.59064832E-03 0.30000000E+03</pdfrwt>
<pdfrwt beam="2">0</pdfrwt>
<totfact> 0.92523821E+05</totfact>
</mgrwt>
</event>
<event>
 6    1  0.1132867E-002  0.3000000E+03  0.7818608E-02  0.1093470E+00
         21   -1    0    0  501  502  0.00000000000E+00  0.00000000000E+00  0.38114255769E+00  0.38114255769E+00  0.00000000000E+00 0. -1.
         13   -1    0    0    0    0 -0.00000000000E+00 -0.00000000000E+00 -0.10000000000E+04  0.10000000000E+04  0.00000000000E+00 0.  1.
    9000005    2    1    2  501    0 -0.10543610996E+02  0.11456602386E+01 -0.91804875688E+03  0.91812446151E+03  0.51503937051E+01 0.  0.
         13    1    3    3    0    0 -0.86620374605E+01 -0.11686315585E+01 -0.72454951213E+03  0.72460223028E+03  0.00000000000E+00 0.  1.
          3    1    3    3  501    0 -0.18815735355E+01  0.23142917971E+01 -0.19349924475E+03  0.19352223124E+03  0.00000000000E+00 0.  1.
         -3    1    1    2    0  502  0.10543610996E+02 -0.11456602386E+01 -0.81570100564E+02  0.82256681044E+02  0.00000000000E+00 0. -1.
<mgrwt>
<rscale>  1 0.30000000E+03</rscale>
<asrwt>0</asrwt>
<pdfrwt beam="1">  1       21 0.13859759E-02 0.30000000E+03</pdfrwt>
<pdfrwt beam="2">0</pdfrwt>
<totfact> 0.23995608E+05</totfact>
</mgrwt>
</event>
<event>
 6    1  0.1132867E-002  0.3000000E+03  0.7818608E-02  0.1093470E+00
         21   -1    0    0  501  502  0.00000000000E+00  0.00000000000E+00  0.13991640622E+00  0.13991640622E+00  0.00000000000E+00 0. -1.
         13   -1    0    0    0    0 -0.00000000000E+00 -0.00000000000E+00 -0.10000000000E+04  0.10000000000E+04  0.00000000000E+00 0.  1.
    9000005    2    1    2  501    0  0.86192941654E+01  0.52385698016E+00 -0.76228723860E+03  0.76241018890E+03  0.10625222819E+02 0.  0.
         13    1    3    3    0    0  0.30566715304E+00  0.17962864020E+01 -0.46610701716E+03  0.46611057864E+03  0.00000000000E+00 0.  1.
          3    1    3    3  501    0  0.83136270123E+01 -0.12724294218E+01 -0.29618022143E+03  0.29629961026E+03  0.00000000000E+00 0.  1.
         -1    1    1    2    0  502 -0.86192941654E+01 -0.52385698016E+00 -0.23757284500E+03  0.23772972750E+03  0.00000000000E+00 0. -1.
<mgrwt>
<rscale>  1 0.30000000E+03</rscale>
<asrwt>0</asrwt>
<pdfrwt beam="1">  1       21 0.50878800E-03 0.30000000E+03</pdfrwt>
<pdfrwt beam="2">0</pdfrwt>
<totfact> 0.11670401E+06</totfact>
</mgrwt>
</event>
<event>
 6    1  0.1132867E-002  0.3000000E+03  0.7818608E-02  0.1093470E+00
         21   -1    0    0  501  502  0.00000000000E+00  0.00000000000E+00  0.12956388669E+01  0.12956388669E+01  0.00000000000E+00 0. -1.
         13   -1    0    0    0    0 -0.00000000000E+00 -0.00000000000E+00 -0.10000000000E+04  0.10000000000E+04  0.00000000000E+00 0.  1.
    9000005    2    1    2  501    0 -0.35057164897E+00  0.15804065627E+02 -0.94253269525E+03  0.94294199768E+03  0.22843773699E+02 0.  0.
         13    1    3    3    0    0 -0.60605872741E+01  0.19849294309E+02 -0.72289904714E+03  0.72319690096E+03  0.00000000000E+00 0.  1.
          3    1    3    3  501    0  0.57100156251E+01 -0.40452286821E+01 -0.21963364811E+03  0.21974509673E+03  0.00000000000E+00 0.  1.
         -3    1    1    2    0  502  0.35057164897E+00 -0.15804065627E+02 -0.56171665886E+02  0.58353641182E+02  0.00000000000E+00 0. -1.
<mgrwt>
<rscale>  1 0.30000000E+03</rscale>
<asrwt>0</asrwt>
<pdfrwt beam="1">  1       21 0.47114240E-02 0.30000000E+03</pdfrwt>
<pdfrwt beam="2">0</pdfrwt>
<totfact> 0.31872498E+04</totfact>
</mgrwt>
</event>
<event>
 6    1  0.1132867E-002  0.3000000E+03  0.7818608E-02  0.1093470E+00
         21   -1    0    0  501  502  0.00000000000E+00  0.00000000000E+00  0.25567104475E+00  0.25567104475E+00  0.00000000000E+00 0. -1.
         13   -1    0    0    0    0 -0.00000000000E+00 -0.00000000000E+00 -0.10000000000E+04  0.10000000000E+04  0.00000000000E+00 0.  1.
    9000005    2    1    2  501    0 -0.10231352917E+02 -0.39191069328E+01 -0.83279157925E+03  0.83294380471E+03  0.11555403779E+02 0.  0.
         13    1    3    3    0    0 -0.11133917772E+02 -0.35411531310E+01 -0.45201940245E+03  0.45217037063E+03  0.00000000000E+00 0.  1.
          3    1    3    3  501    0  0.90256485569E+00 -0.37795380176E+00 -0.38077217680E+03  0.38077343408E+03  0.00000000000E+00 0.  1.
         -3    1    1    2    0  502  0.10231352917E+02  0.39191069328E+01 -0.16695274971E+03  0.16731186633E+03  0.00000000000E+00 0. -1.
<mgrwt>
<rscale>  1 0.30000000E+03</rscale>
<asrwt>0</asrwt>
<pdfrwt beam="1">  1       21 0.92971485E-03 0.30000000E+03</pdfrwt>
<pdfrwt beam="2">0</pdfrwt>
<totfact> 0.45357466E+05</totfact>
</mgrwt>
</event>
<event>
 6    1  0.1132867E-002  0.3000000E+03  0.7818608E-02  0.1093470E+00
         21   -1    0    0  501  502  0.00000000000E+00  0.00000000000E+00  0.73168675495E+00  0.73168675495E+00  0.00000000000E+00 0. -1.
         13   -1    0    0    0    0 -0.00000000000E+00 -0.00000000000E+00 -0.10000000000E+04  0.10000000000E+04  0.00000000000E+00 0.  1.
    9000005    2    1    2  501    0  0.11461124231E+02  0.95754079553E+00 -0.95054044168E+03  0.95066493412E+03  0.10218190969E+02 0.  0.
         13    1    3    3    0    0  0.34844417218E+01  0.37534768059E+01 -0.60289323425E+03  0.60291498723E+03  0.00000000000E+00 0.  1.
          3    1    3    3  501    0  0.79766825089E+01 -0.27959360104E+01 -0.34764720744E+03  0.34774994689E+03  0.00000000000E+00 0.  1.
         -3    1    1    2    0  502 -0.11461124231E+02 -0.95754079553E+00 -0.48727871561E+02  0.50066752640E+02  0.00000000000E+00 0. -1.
<mgrwt>
<rscale>  1 0.30000000E+03</rscale>
<asrwt>0</asrwt>
<pdfrwt beam="1">  1       21 0.26606847E-02 0.30000000E+03</pdfrwt>
<pdfrwt beam="2">0</pdfrwt>
<totfact> 0.82994695E+04</totfact>
</mgrwt>
</event>
<event>
 6    1  0.1132867E-002  0.3000000E+03  0.7818608E-02  0.1093470E+00
         21   -1    0    0  501  502  0.00000000000E+00  0.00000000000E+00  0.15876831552E+00  0.15876831552E+00  0.00000000000E+00 0. -1.
         13   -1    0    0    0    0 -0.00000000000E+00 -0.00000000000E+00 -0.10000000000E+04  0.10000000000E+04  0.00000000000E+00 0.  1.
    9000005    2    1    2  501    0  0.14703978678E+01 -0.10898753665E+02 -0.53027176789E+03  0.53046053942E+03  0.89045582134E+01 0.  0.
         13    1    3    3    0    0  0.15334279350E+01 -0.57586571466E+00 -0.23946899362E+03  0.23947459558E+03  0.00000000000E+00 0.  1.
          1    1    3    3  501    0 -0.63030067181E-01 -0.10322887950E+02 -0.29080277427E+03  0.29098594384E+03  0.00000000000E+00 0.  1.
         -1    1    1    2    0  502 -0.14703978678E+01  0.10898753665E+02 -0.46956946380E+03  0.46969822890E+03  0.00000000000E+00 0. -1.
<mgrwt>
<rscale>  1 0.30000000E+03</rscale>
<asrwt>0</asrwt>
<pdfrwt beam="1">  1       21 0.57734055E-03 0.30000000E+03</pdfrwt>
<pdfrwt beam="2">0</pdfrwt>
<totfact> 0.95870445E+05</totfact>
</mgrwt>
</event>
<event>
 6    1  0.1132867E-002  0.3000000E+03  0.7818608E-02  0.1093470E+00
         21   -1    0    0  501  502  0.00000000000E+00  0.00000000000E+00  0.19250929428E+00  0.19250929428E+00  0.00000000000E+00 0. -1.
         13   -1    0    0    0    0 -0.00000000000E+00 -0.00000000000E+00 -0.10000000000E+04  0.10000000000E+04  0.00000000000E+00 0.  1.
    9000005    2    1    2  501    0 -0.10948635292E+02  0.35125806379E+01 -0.57448050174E+03  0.57471012614E+03  0.11474814313E+02 0.  0.
         13    1    3    3    0    0 -0.89580121236E+01  0.28528049803E+01 -0.55996533841E+03  0.56004425245E+03  0.00000000000E+00 0.  1.
          1    1    3    3  501    0 -0.19906231681E+01  0.65977565765E+00 -0.14515163332E+02  0.14665873689E+02  0.00000000000E+00 0.  1.
         -1    1    1    2    0  502  0.10948635292E+02 -0.35125806379E+01 -0.42532698896E+03  0.42548238316E+03  0.00000000000E+00 0. -1.
<mgrwt>
<rscale>  1 0.30000000E+03</rscale>
<asrwt>0</asrwt>
<pdfrwt beam="1">  1       21 0.70003527E-03 0.30000000E+03</pdfrwt>
<pdfrwt beam="2">0</pdfrwt>
<totfact> 0.70927487E+05</totfact>
</mgrwt>
</event>
<event>
 6    1  0.1132867E-002  0.3000000E+03  0.7818608E-02  0.1093470E+00
         21   -1    0    0  501  502  0.00000000000E+00  0.00000000000E+00  0.33032458468E+00  0.33032458468E+00  0.00000000000E+00 0. -1.
         13   -1    0    0    0    0 -0.00000000000E+00 -0.00000000000E+00 -0.10000000000E+04  0.10000000000E+04  0.00000000000E+00 0.  1.
    9000005    2    1    2  501    0 -0.84351505691E+01 -0.65799384681E+01 -0.87269632805E+03  0.87290709948E+03  0.15920928748E+02 0.  0.
         13    1    3    3    0    0 -0.86717627437E+00  0.81885305306E+00 -0.47904685218E+01  0.49367098022E+01  0.00000000000E+00 0.  1.
          3    1    3    3  501    0 -0.75679742948E+01 -0.73987915212E+01 -0.86790585953E+03  0.86797038968E+03  0.00000000000E+00 0.  1.
         -1    1    1    2    0  502  0.84351505691E+01  0.65799384681E+01 -0.12697334736E+03  0.12742322511E+03  0.00000000000E+00 0. -1.
<mgrwt>
<rscale>  1 0.30000000E+03</rscale>
<asrwt>0</asrwt>
<pdfrwt beam="1">  1       21 0.12011828E-02 0.30000000E+03</pdfrwt>
<pdfrwt beam="2">0</pdfrwt>
<totfact> 0.30179291E+05</totfact>
</mgrwt>
</event>
<event>
 6    1  0.1132867E-002  0.3000000E+03  0.7818608E-02  0.1093470E+00
         21   -1    0    0  501  502  0.00000000000E+00  0.00000000000E+00  0.64641495796E+00  0.64641495796E+00  0.00000000000E+00 0. -1.
         13   -1    0    0    0    0 -0.00000000000E+00 -0.00000000000E+00 -0.10000000000E+04  0.10000000000E+04  0.00000000000E+00 0.  1.
    9000005    2    1    2  501    0 -0.44260165760E+01  0.11580078368E+02 -0.93549984635E+03  0.93560037140E+03  0.58655437179E+01 0.  0.
         13    1    3    3    0    0 -0.49900864714E+00  0.90019109585E+01 -0.60900360840E+03  0.60907033949E+03  0.00000000000E+00 0.  1.
          1    1    3    3  501    0 -0.39270079289E+01  0.25781674093E+01 -0.32649623796E+03  0.32653003191E+03  0.00000000000E+00 0.  1.
         -1    1    1    2    0  502  0.44260165760E+01 -0.11580078368E+02 -0.63853738691E+02  0.65046043558E+02  0.00000000000E+00 0. -1.
<mgrwt>
<rscale>  1 0.30000000E+03</rscale>
<asrwt>0</asrwt>
<pdfrwt beam="1">  1       21 0.23506048E-02 0.30000000E+03</pdfrwt>
<pdfrwt beam="2">0</pdfrwt>
<totfact> 0.10177040E+05</totfact>
</mgrwt>
</event>
<event>
 6    1  0.1132867E-002  0.3000000E+03  0.7818608E-02  0.1093470E+00
         21   -1    0    0  501  502  0.00000000000E+00  0.00000000000E+00  0.15402899221E+00  0.15402899221E+00  0.00000000000E+00 0. -1.
         13   -1    0    0    0    0 -0.00000000000E+00 -0.00000000000E+00 -0.10000000000E+04  0.10000000000E+04  0.00000000000E+00 0.  1.
    9000005    2    1    2  501    0 -0.77207406393E+01  0.60218261551E+01 -0.78870275934E+03  0.78878390797E+03  0.56690969705E+01 0.  0.
         13    1    3    3    0    0 -0.45952765376E+01  0.64876932283E+01 -0.49077286775E+03  0.49083725862E+03  0.00000000000E+00 0.  1.
          1    1    3    3  501    0 -0.31254641017E+01 -0.46586707320E+00 -0.29792989159E+03  0.29794664935E+03  0.00000000000E+00 0.  1.
         -1    1    1    2    0  502  0.77207406393E+01 -0.60218261551E+01 -0.21114321167E+03  0.21137012102E+03  0.00000000000E+00 0. -1.
<mgrwt>
<rscale>  1 0.30000000E+03</rscale>
<asrwt>0</asrwt>
<pdfrwt beam="1">  1       21 0.56010661E-03 0.30000000E+03</pdfrwt>
<pdfrwt beam="2">0</pdfrwt>
<totfact> 0.10050482E+06</totfact>
</mgrwt>
</event>
<event>
 6    1  0.1132867E-002  0.3000000E+03  0.7818608E-02  0.1093470E+00
         21   -1    0    0  501  502  0.00000000000E+00  0.00000000000E+00  0.40886388302E+00  0.40886388302E+00  0.00000000000E+00 0. -1.
         13   -1    0    0    0    0 -0.00000000000E+00 -0.00000000000E+00 -0.10000000000E+04  0.10000000000E+04  0.00000000000E+00 0.  1.
    9000005    2    1    2  501    0  0.10095376261E+02 -0.64481607274E+01 -0.89583607840E+03  0.89596458495E+03  0.93146516107E+01 0.  0.
         13    1    3    3    0    0  0.42646008231E+01 -0.14162205979E+01 -0.63235010574E+03  0.63236607178E+03  0.00000000000E+00 0.  1.
          3    1    3    3  501    0  0.58307754383E+01 -0.50319401294E+01 -0.26348597265E+03  0.26359851318E+03  0.00000000000E+00 0.  1.
         -3    1    1    2    0  502 -0.10095376261E+02  0.64481607274E+01 -0.10375505772E+03  0.10444427893E+03  0.00000000000E+00 0. -1.
<mgrwt>
<rscale>  1 0.30000000E+03</rscale>
<asrwt>0</asrwt>
<pdfrwt beam="1">  1       21 0.14867809E-02 0.30000000E+03</pdfrwt>
<pdfrwt beam="2">0</pdfrwt>
<totfact> 0.21433674E+05</totfact>
</mgrwt>
</event>
<event>
 6    1  0.1132867E-002  0.3000000E+03  0.7818608E-02  0.1093470E+00
         21   -1    0    0  501  502  0.00000000000E+00  0.00000000000E+00  0.36536973691E+00  0.36536973691E+00  0.00000000000E+00 0. -1.
         13   -1    0    0    0    0 -0.00000000000E+00 -0.00000000000E+00 -0.10000000000E+04  0.10000000000E+04  0.00000000000E+00 0.  1.
    9000005    2    1    2  501    0  0.10940824053E+02  0.63851098557E+01 -0.82716399076E+03  0.82743014270E+03  0.16730277461E+02 0.  0.
         13    1    3    3    0    0  0.12211565022E+02 -0.12918922414E+01 -0.37974788404E+03  0.37994637351E+03  0.00000000000E+00 0.  1.
          1    1    3    3  501    0 -0.12707409697E+01  0.76770020972E+01 -0.44741610671E+03  0.44748376919E+03  0.00000000000E+00 0.  1.
         -1    1    1    2    0  502 -0.10940824053E+02 -0.63851098557E+01 -0.17247063950E+03  0.17293522704E+03  0.00000000000E+00 0. -1.
<mgrwt>
<rscale>  1 0.30000000E+03</rscale>
<asrwt>0</asrwt>
<pdfrwt beam="1">  1       21 0.13286200E-02 0.30000000E+03</pdfrwt>
<pdfrwt beam="2">0</pdfrwt>
<totfact> 0.25680486E+05</totfact>
</mgrwt>
</event>
<event>
 6    1  0.1132867E-002  0.3000000E+03  0.7818608E-02  0.1093470E+00
         21   -1    0    0  501  502  0.00000000000E+00  0.00000000000E+00  0.28539803281E+00  0.28539803281E+00  0.00000000000E+00 0. -1.
         13   -1    0    0    0    0 -0.00000000000E+00 -0.00000000000E+00 -0.10000000000E+04  0.10000000000E+04  0.00000000000E+00 0.  1.
    9000005    2    1    2  501    0  0.37986852298E+01 -0.10850418398E+02 -0.82004416969E+03  0.82024755250E+03  0.14193151631E+02 0.  0.
         13    1    3    3    0    0 -0.32922990206E+00 -0.10769395269E+02 -0.31089666057E+03  0.31108330366E+03  0.00000000000E+00 0.  1.
          3    1    3    3  501    0  0.41279151319E+01 -0.81023129092E-01 -0.50914750912E+03  0.50916424883E+03  0.00000000000E+00 0.  1.
         -1    1    1    2    0  502 -0.37986852298E+01  0.10850418398E+02 -0.17967043228E+03  0.18003784553E+03  0.00000000000E+00 0. -1.
<mgrwt>
<rscale>  1 0.30000000E+03</rscale>
<asrwt>0</asrwt>
<pdfrwt beam="1">  1       21 0.10378132E-02 0.30000000E+03</pdfrwt>
<pdfrwt beam="2">0</pdfrwt>
<totfact> 0.38094932E+05</totfact>
</mgrwt>
</event>
<event>
 6    1  0.1132867E-002  0.3000000E+03  0.7818608E-02  0.1093470E+00
         21   -1    0    0  501  502  0.00000000000E+00  0.00000000000E+00  0.10744240472E+01  0.10744240472E+01  0.00000000000E+00 0. -1.
         13   -1    0    0    0    0 -0.00000000000E+00 -0.00000000000E+00 -0.10000000000E+04  0.10000000000E+04  0.00000000000E+00 0.  1.
    9000005    2    1    2  501    0  0.15931606278E+02  0.34155668593E+01 -0.93119465255E+03  0.93141123318E+03  0.11744028151E+02 0.  0.
         13    1    3    3    0    0  0.79446247860E+01 -0.11703524904E-01 -0.19049867413E+03  0.19066426525E+03  0.00000000000E+00 0.  1.
          1    1    3    3  501    0  0.79869814924E+01  0.34272703842E+01 -0.74069597842E+03  0.74074696793E+03  0.00000000000E+00 0.  1.
         -1    1    1    2    0  502 -0.15931606278E+02 -0.34155668593E+01 -0.67730923407E+02  0.69663190863E+02  0.00000000000E+00 0. -1.
<mgrwt>
<rscale>  1 0.30000000E+03</rscale>
<asrwt>0</asrwt>
<pdfrwt beam="1">  1       21 0.39070048E-02 0.30000000E+03</pdfrwt>
<pdfrwt beam="2">0</pdfrwt>
<totfact> 0.43745425E+04</totfact>
</mgrwt>
</event>
<event>
 6    1  0.1132867E-002  0.3000000E+03  0.7818608E-02  0.1093470E+00
         21   -1    0    0  501  502  0.00000000000E+00  0.00000000000E+00  0.13585577889E+00  0.13585577889E+00  0.00000000000E+00 0. -1.
         13   -1    0    0    0    0 -0.00000000000E+00 -0.00000000000E+00 -0.10000000000E+04  0.10000000000E+04  0.00000000000E+00 0.  1.
    9000005    2    1    2  501    0 -0.94780387418E+00  0.85007991772E+01 -0.75051189185E+03  0.75063694259E+03  0.10703170415E+02 0.  0.
         13    1    3    3    0    0  0.12369378466E+01 -0.23373404095E+01 -0.14735635216E+03  0.14738007904E+03  0.00000000000E+00 0.  1.
          1    1    3    3  501    0 -0.21847417208E+01  0.10838139587E+02 -0.60315553969E+03  0.60325686356E+03  0.00000000000E+00 0.  1.
         -3    1    1    2    0  502  0.94780387418E+00 -0.85007991772E+01 -0.24935225237E+03  0.24949891319E+03  0.00000000000E+00 0. -1.
<mgrwt>
<rscale>  1 0.30000000E+03</rscale>
<asrwt>0</asrwt>
<pdfrwt beam="1">  1       21 0.49402206E-03 0.30000000E+03</pdfrwt>
<pdfrwt beam="2">0</pdfrwt>
<totfact> 0.12216606E+06</totfact>
</mgrwt>
</event>
<event>
 6    1  0.1132867E-002  0.3000000E+03  0.7818608E-02  0.1093470E+00
         21   -1    0    0  501  502  0.00000000000E+00  0.00000000000E+00  0.22300629414E+00  0.22300629414E+00  0.00000000000E+00 0. -1.
         13   -1    0    0    0    0 -0.00000000000E+00 -0.00000000000E+00 -0.10000000000E+04  0.10000000000E+04  0.00000000000E+00 0.  1.
    9000005    2    1    2  501    0  0.70958202133E+01 -0.69341615372E+01 -0.59029077432E+03  0.59061661337E+03  0.16921952483E+02 0.  0.
         13    1    3    3    0    0  0.75816169053E+01  0.13222636823E+01 -0.11663380034E+03  0.11688743592E+03  0.00000000000E+00 0.  1.
          3    1    3    3  501    0 -0.48579669198E+00 -0.82564252195E+01 -0.47365697399E+03  0.47372917744E+03  0.00000000000E+00 0.  1.
         -1    1    1    2    0  502 -0.70958202133E+01  0.69341615372E+01 -0.40948621938E+03  0.40960639292E+03  0.00000000000E+00 0. -1.
<mgrwt>
<rscale>  1 0.30000000E+03</rscale>
<asrwt>0</asrwt>
<pdfrwt beam="1">  1       21 0.81093369E-03 0.30000000E+03</pdfrwt>
<pdfrwt beam="2">0</pdfrwt>
<totfact> 0.56287577E+05</totfact>
</mgrwt>
</event>
<event>
 6    1  0.1132867E-002  0.3000000E+03  0.7818608E-02  0.1093470E+00
         21   -1    0    0  501  502  0.00000000000E+00  0.00000000000E+00  0.58535796008E+00  0.58535796008E+00  0.00000000000E+00 0.  1.
         13   -1    0    0    0    0 -0.00000000000E+00 -0.00000000000E+00 -0.10000000000E+04  0.10000000000E+04  0.00000000000E+00 0.  1.
    9000005    2    1    2  501    0 -0.13830569820E+02 -0.64637382253E+01 -0.84335732089E+03  0.84378308738E+03  0.22028692261E+02 0.  0.
         13    1    3    3    0    0 -0.11682590372E+02  0.13328769539E+01 -0.18356671676E+03  0.18394292316E+03  0.00000000000E+00 0.  1.
          3    1    3    3  501    0 -0.21479794480E+01 -0.77966151792E+01 -0.65979060413E+03  0.65984016422E+03  0.00000000000E+00 0.  1.
         -1    1    1    2    0  502  0.13830569820E+02  0.64637382253E+01 -0.15605732115E+03  0.15680227058E+03  0.00000000000E+00 0. -1.
<mgrwt>
<rscale>  1 0.30000000E+03</rscale>
<asrwt>0</asrwt>
<pdfrwt beam="1">  1       21 0.21285789E-02 0.30000000E+03</pdfrwt>
<pdfrwt beam="2">0</pdfrwt>
<totfact> 0.11973959E+05</totfact>
</mgrwt>
</event>
<event>
 6    1  0.1132867E-002  0.3000000E+03  0.7818608E-02  0.1093470E+00
         21   -1    0    0  501  502  0.00000000000E+00  0.00000000000E+00  0.29143461291E+00  0.29143461291E+00  0.00000000000E+00 0. -1.
         13   -1    0    0    0    0 -0.00000000000E+00 -0.00000000000E+00 -0.10000000000E+04  0.10000000000E+04  0.00000000000E+00 0.  1.
    9000005    2    1    2  501    0 -0.13120891587E+02 -0.11650868469E+01 -0.81250607553E+03  0.81262607438E+03  0.46366757930E+01 0.  0.
         13    1    3    3    0    0 -0.39124582719E+01 -0.23354322842E+01 -0.21881147165E+03  0.21885890820E+03  0.00000000000E+00 0.  1.
          3    1    3    3  501    0 -0.92084333154E+01  0.11703454372E+01 -0.59369460388E+03  0.59376716617E+03  0.00000000000E+00 0.  1.
         -3    1    1    2    0  502  0.13120891587E+02  0.11650868469E+01 -0.18720248986E+03  0.18766536024E+03  0.00000000000E+00 0. -1.
<mgrwt>
<rscale>  1 0.30000000E+03</rscale>
<asrwt>0</asrwt>
<pdfrwt beam="1">  1       21 0.10597645E-02 0.30000000E+03</pdfrwt>
<pdfrwt beam="2">0</pdfrwt>
<totfact> 0.36847460E+05</totfact>
</mgrwt>
</event>
<event>
 6    1  0.1132867E-002  0.3000000E+03  0.7818608E-02  0.1093470E+00
         21   -1    0    0  501  502  0.00000000000E+00  0.00000000000E+00  0.88049350515E+00  0.88049350515E+00  0.00000000000E+00 0. -1.
         13   -1    0    0    0    0 -0.00000000000E+00 -0.00000000000E+00 -0.10000000000E+04  0.10000000000E+04  0.00000000000E+00 0.  1.
    9000005    2    1    2  501    0  0.22919413936E+01  0.15863890399E+02 -0.92003063468E+03  0.92018374228E+03  0.49834512176E+01 0.  0.
         13    1    3    3    0    0  0.78367943604E+00  0.10654628662E+02 -0.72133866198E+03  0.72141777115E+03  0.00000000000E+00 0.  1.
          1    1    3    3  501    0  0.15082619575E+01  0.52092617367E+01 -0.19869197271E+03  0.19876597113E+03  0.00000000000E+00 0.  1.
         -1    1    1    2    0  502 -0.22919413936E+01 -0.15863890399E+02 -0.79088871812E+02  0.80696751226E+02  0.00000000000E+00 0. -1.
<mgrwt>
<rscale>  1 0.30000000E+03</rscale>
<asrwt>0</asrwt>
<pdfrwt beam="1">  1       21 0.32018013E-02 0.30000000E+03</pdfrwt>
<pdfrwt beam="2">0</pdfrwt>
<totfact> 0.61051105E+04</totfact>
</mgrwt>
</event>
<event>
 6    1  0.1132867E-002  0.3000000E+03  0.7818608E-02  0.1093470E+00
         21   -1    0    0  501  502  0.00000000000E+00  0.00000000000E+00  0.91537239908E-01  0.91537239908E-01  0.00000000000E+00 0. -1.
         13   -1    0    0    0    0 -0.00000000000E+00 -0.00000000000E+00 -0.10000000000E+04  0.10000000000E+04  0.00000000000E+00 0.  1.
    9000005    2    1    2  501    0 -0.75927893318E+01  0.19774993350E+01 -0.55936739003E+03  0.55948060034E+03  0.80687157962E+01 0.  0.
         13    1    3    3    0    0 -0.48910492469E+01 -0.20162439341E+01 -0.16744723482E+03  0.16753078538E+03  0.00000000000E+00 0.  1.
          3    1    3    3  501    0 -0.27017400849E+01  0.39937432691E+01 -0.39192015521E+03  0.39194981496E+03  0.00000000000E+00 0.  1.
         -3    1    1    2    0  502  0.75927893318E+01 -0.19774993350E+01 -0.44054107273E+03  0.44061093690E+03  0.00000000000E+00 0. -1.
<mgrwt>
<rscale>  1 0.30000000E+03</rscale>
<asrwt>0</asrwt>
<pdfrwt beam="1">  1       21 0.33286339E-03 0.30000000E+03</pdfrwt>
<pdfrwt beam="2">0</pdfrwt>
<totfact> 0.22468796E+06</totfact>
</mgrwt>
</event>
<event>
 6    1  0.1132867E-002  0.3000000E+03  0.7818608E-02  0.1093470E+00
         21   -1    0    0  501  502  0.00000000000E+00  0.00000000000E+00  0.10734063372E+00  0.10734063372E+00  0.00000000000E+00 0. -1.
         13   -1    0    0    0    0 -0.00000000000E+00 -0.00000000000E+00 -0.10000000000E+04  0.10000000000E+04  0.00000000000E+00 0.  1.
    9000005    2    1    2  501    0 -0.81216058923E+01 -0.39411734544E+01 -0.39997607549E+03  0.40012284005E+03  0.59944003132E+01 0.  0.
         13    1    3    3    0    0 -0.27069004978E+01 -0.27733191522E+01 -0.75421628560E+02  0.75521127270E+02  0.00000000000E+00 0.  1.
          3    1    3    3  501    0 -0.54147053945E+01 -0.11678543022E+01 -0.32455444693E+03  0.32460171278E+03  0.00000000000E+00 0.  1.
         -1    1    1    2    0  502  0.81216058923E+01  0.39411734544E+01 -0.59991658388E+03  0.59998450059E+03  0.00000000000E+00 0. -1.
<mgrwt>
<rscale>  1 0.30000000E+03</rscale>
<asrwt>0</asrwt>
<pdfrwt beam="1">  1       21 0.39033040E-03 0.30000000E+03</pdfrwt>
<pdfrwt beam="2">0</pdfrwt>
<totfact> 0.17586736E+06</totfact>
</mgrwt>
</event>
<event>
 6    1  0.1132867E-002  0.3000000E+03  0.7818608E-02  0.1093470E+00
         21   -1    0    0  501  502  0.00000000000E+00  0.00000000000E+00  0.27587298514E+00  0.27587298514E+00  0.00000000000E+00 0. -1.
         13   -1    0    0    0    0 -0.00000000000E+00 -0.00000000000E+00 -0.10000000000E+04  0.10000000000E+04  0.00000000000E+00 0.  1.
    9000005    2    1    2  501    0 -0.64305986799E+01  0.91716915271E+01 -0.86205238961E+03  0.86214919270E+03  0.64370433087E+01 0.  0.
         13    1    3    3    0    0 -0.46256422838E+01  0.18154632906E+01 -0.24555103054E+03  0.24560130511E+03  0.00000000000E+00 0.  1.
          3    1    3    3  501    0 -0.18049563962E+01  0.73562282364E+01 -0.61650135906E+03  0.61654788759E+03  0.00000000000E+00 0.  1.
         -3    1    1    2    0  502  0.64305986799E+01 -0.91716915271E+01 -0.13767173741E+03  0.13812668028E+03  0.00000000000E+00 0. -1.
<mgrwt>
<rscale>  1 0.30000000E+03</rscale>
<asrwt>0</asrwt>
<pdfrwt beam="1">  1       21 0.10031766E-02 0.30000000E+03</pdfrwt>
<pdfrwt beam="2">0</pdfrwt>
<totfact> 0.40206435E+05</totfact>
</mgrwt>
</event>
<event>
 6    1  0.1132867E-002  0.3000000E+03  0.7818608E-02  0.1093470E+00
         21   -1    0    0  501  502  0.00000000000E+00  0.00000000000E+00  0.44468132705E+00  0.44468132705E+00  0.00000000000E+00 0. -1.
         13   -1    0    0    0    0 -0.00000000000E+00 -0.00000000000E+00 -0.10000000000E+04  0.10000000000E+04  0.00000000000E+00 0.  1.
    9000005    2    1    2  501    0 -0.13859070146E+02 -0.11644516688E+02 -0.62168011300E+03  0.62213615690E+03  0.15477927007E+02 0.  0.
         13    1    3    3    0    0 -0.16421470967E+02 -0.83476824229E+01 -0.56600035299E+03  0.56630005129E+03  0.00000000000E+00 0.  1.
          1    1    3    3  501    0  0.25624008210E+01 -0.32968342653E+01 -0.55679760014E+02  0.55836105607E+02  0.00000000000E+00 0.  1.
         -3    1    1    2    0  502  0.13859070146E+02  0.11644516688E+02 -0.37787520567E+03  0.37830852443E+03  0.00000000000E+00 0. -1.
<mgrwt>
<rscale>  1 0.30000000E+03</rscale>
<asrwt>0</asrwt>
<pdfrwt beam="1">  1       21 0.16170264E-02 0.30000000E+03</pdfrwt>
<pdfrwt beam="2">0</pdfrwt>
<totfact> 0.18718521E+05</totfact>
</mgrwt>
</event>
<event>
 6    1  0.1132867E-002  0.3000000E+03  0.7818608E-02  0.1093470E+00
         21   -1    0    0  501  502  0.00000000000E+00  0.00000000000E+00  0.11946185432E+00  0.11946185432E+00  0.00000000000E+00 0. -1.
         13   -1    0    0    0    0 -0.00000000000E+00 -0.00000000000E+00 -0.10000000000E+04  0.10000000000E+04  0.00000000000E+00 0.  1.
    9000005    2    1    2  501    0  0.15561761941E+01 -0.94215979022E+01 -0.57087960720E+03  0.57101226436E+03  0.77647883671E+01 0.  0.
         13    1    3    3    0    0 -0.20572483513E+01 -0.82457079969E+01 -0.40459064879E+03  0.40467989455E+03  0.00000000000E+00 0.  1.
          3    1    3    3  501    0  0.36134245453E+01 -0.11758899053E+01 -0.16628895842E+03  0.16633236981E+03  0.00000000000E+00 0.  1.
         -1    1    1    2    0  502 -0.15561761941E+01  0.94215979022E+01 -0.42900093094E+03  0.42910719749E+03  0.00000000000E+00 0. -1.
<mgrwt>
<rscale>  1 0.30000000E+03</rscale>
<asrwt>0</asrwt>
<pdfrwt beam="1">  1       21 0.43440766E-03 0.30000000E+03</pdfrwt>
<pdfrwt beam="2">0</pdfrwt>
<totfact> 0.14909310E+06</totfact>
</mgrwt>
</event>
<event>
 6    1  0.1132867E-002  0.3000000E+03  0.7818608E-02  0.1093470E+00
         21   -1    0    0  501  502  0.00000000000E+00  0.00000000000E+00  0.30633862766E+00  0.30633862766E+00  0.00000000000E+00 0. -1.
         13   -1    0    0    0    0 -0.00000000000E+00 -0.00000000000E+00 -0.10000000000E+04  0.10000000000E+04  0.00000000000E+00 0.  1.
    9000005    2    1    2  501    0  0.97162435187E+01 -0.78296428682E+01 -0.83906876657E+03  0.83919747629E+03  0.77653378392E+01 0.  0.
         13    1    3    3    0    0  0.80271737544E+01 -0.34720813470E+01 -0.36124655832E+03  0.36135241353E+03  0.00000000000E+00 0.  1.
          3    1    3    3  501    0  0.16890697643E+01 -0.43575615212E+01 -0.47782220826E+03  0.47784506276E+03  0.00000000000E+00 0.  1.
         -3    1    1    2    0  502 -0.97162435187E+01  0.78296428682E+01 -0.16062489480E+03  0.16110886234E+03  0.00000000000E+00 0. -1.
<mgrwt>
<rscale>  1 0.30000000E+03</rscale>
<asrwt>0</asrwt>
<pdfrwt beam="1">  1       21 0.11139610E-02 0.30000000E+03</pdfrwt>
<pdfrwt beam="2">0</pdfrwt>
<totfact> 0.34034930E+05</totfact>
</mgrwt>
</event>
<event>
 6    1  0.1132867E-002  0.3000000E+03  0.7818608E-02  0.1093470E+00
         21   -1    0    0  501  502  0.00000000000E+00  0.00000000000E+00  0.16774236762E+01  0.16774236762E+01  0.00000000000E+00 0. -1.
         13   -1    0    0    0    0 -0.00000000000E+00 -0.00000000000E+00 -0.10000000000E+04  0.10000000000E+04  0.00000000000E+00 0.  1.
    9000005    2    1    2  501    0  0.33704718564E+02  0.18235366343E+02 -0.67210748759E+03  0.67321917556E+03  0.52006562738E+01 0.  0.
         13    1    3    3    0    0  0.23417878871E+02  0.11714227228E+02 -0.49634702775E+03  0.49703721403E+03  0.00000000000E+00 0.  1.
          1    1    3    3  501    0  0.10286839693E+02  0.65211391150E+01 -0.17576045984E+03  0.17618196153E+03  0.00000000000E+00 0.  1.
         -3    1    1    2    0  502 -0.33704718564E+02 -0.18235366343E+02 -0.32621508873E+03  0.32845824812E+03  0.00000000000E+00 0. -1.
<mgrwt>
<rscale>  1 0.30000000E+03</rscale>
<asrwt>0</asrwt>
<pdfrwt beam="1">  1       21 0.60997353E-02 0.30000000E+03</pdfrwt>
<pdfrwt beam="2">0</pdfrwt>
<totfact> 0.20480791E+04</totfact>
</mgrwt>
</event>
<event>
 6    1  0.1132867E-002  0.3000000E+03  0.7818608E-02  0.1093470E+00
         21   -1    0    0  501  502  0.00000000000E+00  0.00000000000E+00  0.11296675303E+00  0.11296675303E+00  0.00000000000E+00 0. -1.
         13   -1    0    0    0    0 -0.00000000000E+00 -0.00000000000E+00 -0.10000000000E+04  0.10000000000E+04  0.00000000000E+00 0.  1.
    9000005    2    1    2  501    0  0.83517305818E+01 -0.57616350662E+01 -0.50130835236E+03  0.50143105523E+03  0.44823167869E+01 0.  0.
         13    1    3    3    0    0  0.15404256129E+01  0.37785137420E+00 -0.39766519793E+02  0.39798137886E+02  0.00000000000E+00 0.  1.
          1    1    3    3  501    0  0.68113049688E+01 -0.61394864404E+01 -0.46154183256E+03  0.46163291734E+03  0.00000000000E+00 0.  1.
         -3    1    1    2    0  502 -0.83517305818E+01  0.57616350662E+01 -0.49857868089E+03  0.49868191152E+03  0.00000000000E+00 0. -1.
<mgrwt>
<rscale>  1 0.30000000E+03</rscale>
<asrwt>0</asrwt>
<pdfrwt beam="1">  1       21 0.41078906E-03 0.30000000E+03</pdfrwt>
<pdfrwt beam="2">0</pdfrwt>
<totfact> 0.16253828E+06</totfact>
</mgrwt>
</event>
<event>
 6    1  0.1132867E-002  0.3000000E+03  0.7818608E-02  0.1093470E+00
         21   -1    0    0  501  502  0.00000000000E+00  0.00000000000E+00  0.56904935023E+00  0.56904935023E+00  0.00000000000E+00 0. -1.
         13   -1    0    0    0    0 -0.00000000000E+00 -0.00000000000E+00 -0.10000000000E+04  0.10000000000E+04  0.00000000000E+00 0.  1.
    9000005    2    1    2  501    0 -0.50295659981E+01 -0.86428799639E+01 -0.94915838003E+03  0.94931158878E+03  0.13815436567E+02 0.  0.
         13    1    3    3    0    0 -0.21281869497E+01 -0.67531539614E+01 -0.90141802614E+03  0.90144583427E+03  0.00000000000E+00 0.  1.
          3    1    3    3  501    0 -0.29013790484E+01 -0.18897260025E+01 -0.47740353894E+02  0.47865754508E+02  0.00000000000E+00 0.  1.
         -3    1    1    2    0  502  0.50295659981E+01  0.86428799639E+01 -0.50272570617E+02  0.51257460575E+02  0.00000000000E+00 0. -1.
<mgrwt>
<rscale>  1 0.30000000E+03</rscale>
<asrwt>0</asrwt>
<pdfrwt beam="1">  1       21 0.20692747E-02 0.30000000E+03</pdfrwt>
<pdfrwt beam="2">0</pdfrwt>
<totfact> 0.12539875E+05</totfact>
</mgrwt>
</event>
<event>
 6    1  0.1132867E-002  0.3000000E+03  0.7818608E-02  0.1093470E+00
         21   -1    0    0  501  502  0.00000000000E+00  0.00000000000E+00  0.25767879212E+00  0.25767879212E+00  0.00000000000E+00 0. -1.
         13   -1    0    0    0    0 -0.00000000000E+00 -0.00000000000E+00 -0.10000000000E+04  0.10000000000E+04  0.00000000000E+00 0.  1.
    9000005    2    1    2  501    0 -0.66258077065E+01 -0.82217687291E+01 -0.33400384068E+03  0.33443546283E+03  0.13304675971E+02 0.  0.
         13    1    3    3    0    0 -0.69195092521E+01 -0.10958231474E+02 -0.31061505489E+03  0.31088530807E+03  0.00000000000E+00 0.  1.
          3    1    3    3  501    0  0.29370154559E+00  0.27364627453E+01 -0.23388785785E+02  0.23550154765E+02  0.00000000000E+00 0.  1.
         -3    1    1    2    0  502  0.66258077065E+01  0.82217687291E+01 -0.66573848053E+03  0.66582221596E+03  0.00000000000E+00 0. -1.
<mgrwt>
<rscale>  1 0.30000000E+03</rscale>
<asrwt>0</asrwt>
<pdfrwt beam="1">  1       21 0.93701577E-03 0.30000000E+03</pdfrwt>
<pdfrwt beam="2">0</pdfrwt>
<totfact> 0.44799325E+05</totfact>
</mgrwt>
</event>
<event>
 6    1  0.1132867E-002  0.3000000E+03  0.7818608E-02  0.1093470E+00
         21   -1    0    0  501  502  0.00000000000E+00  0.00000000000E+00  0.15110485304E+00  0.15110485304E+00  0.00000000000E+00 0. -1.
         13   -1    0    0    0    0 -0.00000000000E+00 -0.00000000000E+00 -0.10000000000E+04  0.10000000000E+04  0.00000000000E+00 0.  1.
    9000005    2    1    2  501    0  0.38813116190E+01 -0.82860107901E+01 -0.67285699686E+03  0.67303121231E+03  0.12278108971E+02 0.  0.
         13    1    3    3    0    0  0.47640571238E+01 -0.72247186370E+00 -0.93423641144E+02  0.93547821623E+02  0.00000000000E+00 0.  1.
          3    1    3    3  501    0 -0.88274550481E+00 -0.75635389264E+01 -0.57943335572E+03  0.57948339068E+03  0.00000000000E+00 0.  1.
         -3    1    1    2    0  502 -0.38813116190E+01  0.82860107901E+01 -0.32699189829E+03  0.32711989255E+03  0.00000000000E+00 0. -1.
<mgrwt>
<rscale>  1 0.30000000E+03</rscale>
<asrwt>0</asrwt>
<pdfrwt beam="1">  1       21 0.54947335E-03 0.30000000E+03</pdfrwt>
<pdfrwt beam="2">0</pdfrwt>
<totfact> 0.10354850E+06</totfact>
</mgrwt>
</event>
<event>
 6    1  0.1132867E-002  0.3000000E+03  0.7818608E-02  0.1093470E+00
         21   -1    0    0  501  502  0.00000000000E+00  0.00000000000E+00  0.10694113281E+01  0.10694113281E+01  0.00000000000E+00 0. -1.
         13   -1    0    0    0    0 -0.00000000000E+00 -0.00000000000E+00 -0.10000000000E+04  0.10000000000E+04  0.00000000000E+00 0.  1.
    9000005    2    1    2  501    0 -0.48759853358E+01  0.10784224329E+02 -0.96508259145E+03  0.96521189268E+03  0.10464928672E+02 0.  0.
         13    1    3    3    0    0  0.23485298135E+01  0.23740717526E+01 -0.95020421407E+02  0.95079084415E+02  0.00000000000E+00 0.  1.
          1    1    3    3  501    0 -0.72245151493E+01  0.84101525762E+01 -0.87006217004E+03  0.87013280826E+03  0.00000000000E+00 0.  1.
         -1    1    1    2    0  502  0.48759853358E+01 -0.10784224329E+02 -0.33847997227E+02  0.35857518648E+02  0.00000000000E+00 0. -1.
<mgrwt>
<rscale>  1 0.30000000E+03</rscale>
<asrwt>0</asrwt>
<pdfrwt beam="1">  1       21 0.38887767E-02 0.30000000E+03</pdfrwt>
<pdfrwt beam="2">0</pdfrwt>
<totfact> 0.44090863E+04</totfact>
</mgrwt>
</event>
<event>
 6    1  0.1132867E-002  0.3000000E+03  0.7818608E-02  0.1093470E+00
         21   -1    0    0  501  502  0.00000000000E+00  0.00000000000E+00  0.11668536502E+00  0.11668536502E+00  0.00000000000E+00 0. -1.
         13   -1    0    0    0    0 -0.00000000000E+00 -0.00000000000E+00 -0.10000000000E+04  0.10000000000E+04  0.00000000000E+00 0.  1.
    9000005    2    1    2  501    0 -0.48892357403E+01  0.85435005094E+01 -0.39231617935E+03  0.39246981430E+03  0.48656485737E+01 0.  0.
         13    1    3    3    0    0 -0.35439569052E+00  0.25888592382E+01 -0.47040782992E+02  0.47113300171E+02  0.00000000000E+00 0.  1.
          3    1    3    3  501    0 -0.45348400498E+01  0.59546412713E+01 -0.34527539635E+03  0.34535651413E+03  0.00000000000E+00 0.  1.
         -3    1    1    2    0  502  0.48892357403E+01 -0.85435005094E+01 -0.60756713529E+03  0.60764687106E+03  0.00000000000E+00 0. -1.
<mgrwt>
<rscale>  1 0.30000000E+03</rscale>
<asrwt>0</asrwt>
<pdfrwt beam="1">  1       21 0.42431131E-03 0.30000000E+03</pdfrwt>
<pdfrwt beam="2">0</pdfrwt>
<totfact> 0.15460991E+06</totfact>
</mgrwt>
</event>
<event>
 6    1  0.1132867E-002  0.3000000E+03  0.7818608E-02  0.1093470E+00
         21   -1    0    0  501  502  0.00000000000E+00  0.00000000000E+00  0.22909819727E+00  0.22909819727E+00  0.00000000000E+00 0. -1.
         13   -1    0    0    0    0 -0.00000000000E+00 -0.00000000000E+00 -0.10000000000E+04  0.10000000000E+04  0.00000000000E+00 0.  1.
    9000005    2    1    2  501    0  0.39922532162E+01  0.12820183755E+02 -0.37087752043E+03  0.37119238994E+03  0.73047925264E+01 0.  0.
         13    1    3    3    0    0 -0.21129378997E+01  0.43935796072E+01 -0.12266460770E+03  0.12276145173E+03  0.00000000000E+00 0.  1.
          1    1    3    3  501    0  0.61051911158E+01  0.84266041480E+01 -0.24821291273E+03  0.24843093821E+03  0.00000000000E+00 0.  1.
         -3    1    1    2    0  502 -0.39922532162E+01 -0.12820183755E+02 -0.62889338137E+03  0.62903670826E+03  0.00000000000E+00 0. -1.
<mgrwt>
<rscale>  1 0.30000000E+03</rscale>
<asrwt>0</asrwt>
<pdfrwt beam="1">  1       21 0.83308611E-03 0.30000000E+03</pdfrwt>
<pdfrwt beam="2">0</pdfrwt>
<totfact> 0.53944922E+05</totfact>
</mgrwt>
</event>
<event>
 6    1  0.1132867E-002  0.3000000E+03  0.7818608E-02  0.1093470E+00
         21   -1    0    0  501  502  0.00000000000E+00  0.00000000000E+00  0.14346200259E+00  0.14346200259E+00  0.00000000000E+00 0. -1.
         13   -1    0    0    0    0 -0.00000000000E+00 -0.00000000000E+00 -0.10000000000E+04  0.10000000000E+04  0.00000000000E+00 0.  1.
    9000005    2    1    2  501    0 -0.84962297491E+01 -0.46290167768E+01 -0.60861607329E+03  0.60878337853E+03  0.10491119259E+02 0.  0.
         13    1    3    3    0    0 -0.92250687768E+01 -0.54635974624E+01 -0.60006991126E+03  0.60016568645E+03  0.00000000000E+00 0.  1.
          3    1    3    3  501    0  0.72883902772E+00  0.83458068559E+00 -0.85461620315E+01  0.86176920761E+01  0.00000000000E+00 0.  1.
         -1    1    1    2    0  502  0.84962297491E+01  0.46290167768E+01 -0.39124046471E+03  0.39136008348E+03  0.00000000000E+00 0. -1.
<mgrwt>
<rscale>  1 0.30000000E+03</rscale>
<asrwt>0</asrwt>
<pdfrwt beam="1">  1       21 0.52168111E-03 0.30000000E+03</pdfrwt>
<pdfrwt beam="2">0</pdfrwt>
<totfact> 0.11225314E+06</totfact>
</mgrwt>
</event>
<event>
 6    1  0.1132867E-002  0.3000000E+03  0.7818608E-02  0.1093470E+00
         21   -1    0    0  501  502  0.00000000000E+00  0.00000000000E+00  0.19566473781E+00  0.19566473781E+00  0.00000000000E+00 0. -1.
         13   -1    0    0    0    0 -0.00000000000E+00 -0.00000000000E+00 -0.10000000000E+04  0.10000000000E+04  0.00000000000E+00 0.  1.
    9000005    2    1    2  501    0 -0.96109985005E+01 -0.56626212705E+00 -0.56018880911E+03  0.56047472735E+03  0.15090599679E+02 0.  0.
         13    1    3    3    0    0 -0.33750036175E+00  0.30919031437E+01 -0.24953531764E+02  0.25146620430E+02  0.00000000000E+00 0.  1.
          1    1    3    3  501    0 -0.92734981387E+01 -0.36581652707E+01 -0.53523527735E+03  0.53532810692E+03  0.00000000000E+00 0.  1.
         -1    1    1    2    0  502  0.96109985005E+01  0.56626212705E+00 -0.43961552615E+03  0.43972093739E+03  0.00000000000E+00 0. -1.
<mgrwt>
<rscale>  1 0.30000000E+03</rscale>
<asrwt>0</asrwt>
<pdfrwt beam="1">  1       21 0.71150964E-03 0.30000000E+03</pdfrwt>
<pdfrwt beam="2">0</pdfrwt>
<totfact> 0.69141928E+05</totfact>
</mgrwt>
</event>
<event>
 6    1  0.1132867E-002  0.3000000E+03  0.7818608E-02  0.1093470E+00
         21   -1    0    0  501  502  0.00000000000E+00  0.00000000000E+00  0.27707696982E+00  0.27707696982E+00  0.00000000000E+00 0. -1.
         13   -1    0    0    0    0 -0.00000000000E+00 -0.00000000000E+00 -0.10000000000E+04  0.10000000000E+04  0.00000000000E+00 0.  1.
    9000005    2    1    2  501    0 -0.11558037309E+02 -0.42751302108E+01 -0.79395970009E+03  0.79414515591E+03  0.11943966042E+02 0.  0.
         13    1    3    3    0    0 -0.25968972877E+01 -0.13865748197E+01 -0.34020465614E+02  0.34147599416E+02  0.00000000000E+00 0.  1.
          3    1    3    3  501    0 -0.89611400213E+01 -0.28885553911E+01 -0.75993923448E+03  0.75999755650E+03  0.00000000000E+00 0.  1.
         -3    1    1    2    0  502  0.11558037309E+02  0.42751302108E+01 -0.20576322294E+03  0.20613192106E+03  0.00000000000E+00 0. -1.
<mgrwt>
<rscale>  1 0.30000000E+03</rscale>
<asrwt>0</asrwt>
<pdfrwt beam="1">  1       21 0.10075547E-02 0.30000000E+03</pdfrwt>
<pdfrwt beam="2">0</pdfrwt>
<totfact> 0.39929343E+05</totfact>
</mgrwt>
</event>
<event>
 6    1  0.1132867E-002  0.3000000E+03  0.7818608E-02  0.1093470E+00
         21   -1    0    0  501  502  0.00000000000E+00  0.00000000000E+00  0.69177713718E+00  0.69177713718E+00  0.00000000000E+00 0. -1.
         13   -1    0    0    0    0 -0.00000000000E+00 -0.00000000000E+00 -0.10000000000E+04  0.10000000000E+04  0.00000000000E+00 0.  1.
    9000005    2    1    2  501    0  0.15581159148E+02 -0.19760787098E+02 -0.62151471978E+03  0.62206109666E+03  0.67970469590E+01 0.  0.
         13    1    3    3    0    0  0.12045203691E+02 -0.12230247592E+02 -0.47531137778E+03  0.47562124819E+03  0.00000000000E+00 0.  1.
          3    1    3    3  501    0  0.35359554574E+01 -0.75305395057E+01 -0.14620334200E+03  0.14643984846E+03  0.00000000000E+00 0.  1.
         -1    1    1    2    0  502 -0.15581159148E+02  0.19760787098E+02 -0.37779350309E+03  0.37863068048E+03  0.00000000000E+00 0. -1.
<mgrwt>
<rscale>  1 0.30000000E+03</rscale>
<asrwt>0</asrwt>
<pdfrwt beam="1">  1       21 0.25155585E-02 0.30000000E+03</pdfrwt>
<pdfrwt beam="2">0</pdfrwt>
<totfact> 0.91035113E+04</totfact>
</mgrwt>
</event>
<event>
 6    1  0.1132867E-002  0.3000000E+03  0.7818608E-02  0.1093470E+00
         21   -1    0    0  501  502  0.00000000000E+00  0.00000000000E+00  0.26349504171E+00  0.26349504171E+00  0.00000000000E+00 0. -1.
         13   -1    0    0    0    0 -0.00000000000E+00 -0.00000000000E+00 -0.10000000000E+04  0.10000000000E+04  0.00000000000E+00 0.  1.
    9000005    2    1    2  501    0  0.74404665728E+01  0.77729848976E+01 -0.81097261522E+03  0.81119317504E+03  0.15556502017E+02 0.  0.
         13    1    3    3    0    0  0.10550733682E+01  0.75999772284E+00 -0.50488703248E+01  0.52136232993E+01  0.00000000000E+00 0.  1.
          3    1    3    3  501    0  0.63853932046E+01  0.70129871747E+01 -0.80592374490E+03  0.80597955174E+03  0.00000000000E+00 0.  1.
         -3    1    1    2    0  502 -0.74404665728E+01 -0.77729848976E+01 -0.18876388974E+03  0.18907032000E+03  0.00000000000E+00 0. -1.
<mgrwt>
<rscale>  1 0.30000000E+03</rscale>
<asrwt>0</asrwt>
<pdfrwt beam="1">  1       21 0.95816581E-03 0.30000000E+03</pdfrwt>
<pdfrwt beam="2">0</pdfrwt>
<totfact> 0.43243243E+05</totfact>
</mgrwt>
</event>
<event>
 6    1  0.1132867E-002  0.3000000E+03  0.7818608E-02  0.1093470E+00
         21   -1    0    0  501  502  0.00000000000E+00  0.00000000000E+00  0.13713312499E+00  0.13713312499E+00  0.00000000000E+00 0. -1.
         13   -1    0    0    0    0 -0.00000000000E+00 -0.00000000000E+00 -0.10000000000E+04  0.10000000000E+04  0.00000000000E+00 0.  1.
    9000005    2    1    2  501    0 -0.65967124552E+01 -0.71523262112E+01 -0.56972409276E+03  0.56988832443E+03  0.96170715974E+01 0.  0.
         13    1    3    3    0    0 -0.76245960977E+01 -0.14129903233E+01 -0.35793014943E+03  0.35801413782E+03  0.00000000000E+00 0.  1.
          3    1    3    3  501    0  0.10278836425E+01 -0.57393358880E+01 -0.21179394333E+03  0.21187418661E+03  0.00000000000E+00 0.  1.
         -1    1    1    2    0  502  0.65967124552E+01  0.71523262112E+01 -0.43013877412E+03  0.43024880870E+03  0.00000000000E+00 0. -1.
<mgrwt>
<rscale>  1 0.30000000E+03</rscale>
<asrwt>0</asrwt>
<pdfrwt beam="1">  1       21 0.49866696E-03 0.30000000E+03</pdfrwt>
<pdfrwt beam="2">0</pdfrwt>
<totfact> 0.12040358E+06</totfact>
</mgrwt>
</event>
<event>
 6    1  0.1132867E-002  0.3000000E+03  0.7818608E-02  0.1093470E+00
         21   -1    0    0  501  502  0.00000000000E+00  0.00000000000E+00  0.32536640862E+00  0.32536640862E+00  0.00000000000E+00 0. -1.
         13   -1    0    0    0    0 -0.00000000000E+00 -0.00000000000E+00 -0.10000000000E+04  0.10000000000E+04  0.00000000000E+00 0.  1.
    9000005    2    1    2  501    0 -0.48779543704E+01  0.99477085765E+01 -0.89100959887E+03  0.89109697671E+03  0.57415400109E+01 0.  0.
         13    1    3    3    0    0 -0.41832076296E+01  0.73289617651E+01 -0.80608536337E+03  0.80612953422E+03  0.00000000000E+00 0.  1.
          1    1    3    3  501    0 -0.69474674085E+00  0.26187468113E+01 -0.84924235497E+02  0.84967442487E+02  0.00000000000E+00 0.  1.
         -3    1    1    2    0  502  0.48779543704E+01 -0.99477085765E+01 -0.10866503472E+03  0.10922838970E+03  0.00000000000E+00 0. -1.
<mgrwt>
<rscale>  1 0.30000000E+03</rscale>
<asrwt>0</asrwt>
<pdfrwt beam="1">  1       21 0.11831531E-02 0.30000000E+03</pdfrwt>
<pdfrwt beam="2">0</pdfrwt>
<totfact> 0.30916895E+05</totfact>
</mgrwt>
</event>
<event>
 6    1  0.1132867E-002  0.3000000E+03  0.7818608E-02  0.1093470E+00
         21   -1    0    0  501  502  0.00000000000E+00  0.00000000000E+00  0.29833622429E+00  0.29833622429E+00  0.00000000000E+00 0. -1.
         13   -1    0    0    0    0 -0.00000000000E+00 -0.00000000000E+00 -0.10000000000E+04  0.10000000000E+04  0.00000000000E+00 0.  1.
    9000005    2    1    2  501    0  0.16065306166E+02  0.39553900161E+01 -0.49548224040E+03  0.49580753742E+03  0.69802890217E+01 0.  0.
         13    1    3    3    0    0  0.11711510277E+02  0.55884040479E+01 -0.31853497498E+03  0.31879918447E+03  0.00000000000E+00 0.  1.
          3    1    3    3  501    0  0.43537958889E+01 -0.16330140318E+01 -0.17694726542E+03  0.17700835295E+03  0.00000000000E+00 0.  1.
         -3    1    1    2    0  502 -0.16065306166E+02 -0.39553900161E+01 -0.50421942337E+03  0.50449079880E+03  0.00000000000E+00 0. -1.
<mgrwt>
<rscale>  1 0.30000000E+03</rscale>
<asrwt>0</asrwt>
<pdfrwt beam="1">  1       21 0.10848613E-02 0.30000000E+03</pdfrwt>
<pdfrwt beam="2">0</pdfrwt>
<totfact> 0.35500201E+05</totfact>
</mgrwt>
</event>
<event>
 6    1  0.1132867E-002  0.3000000E+03  0.7818608E-02  0.1093470E+00
         21   -1    0    0  501  502  0.00000000000E+00  0.00000000000E+00  0.20324025420E+00  0.20324025420E+00  0.00000000000E+00 0. -1.
         13   -1    0    0    0    0 -0.00000000000E+00 -0.00000000000E+00 -0.10000000000E+04  0.10000000000E+04  0.00000000000E+00 0.  1.
    9000005    2    1    2  501    0  0.10697593968E+02 -0.63898880094E+01 -0.68686261323E+03  0.68702110596E+03  0.79045174367E+01 0.  0.
         13    1    3    3    0    0  0.13732313791E+00  0.36162311500E+00 -0.16838622799E+01  0.17277213604E+01  0.00000000000E+00 0.  1.
          1    1    3    3  501    0  0.10560270830E+02 -0.67515111244E+01 -0.68517875095E+03  0.68529338460E+03  0.00000000000E+00 0.  1.
         -1    1    1    2    0  502 -0.10697593968E+02  0.63898880094E+01 -0.31293414652E+03  0.31318213430E+03  0.00000000000E+00 0. -1.
<mgrwt>
<rscale>  1 0.30000000E+03</rscale>
<asrwt>0</asrwt>
<pdfrwt beam="1">  1       21 0.73905703E-03 0.30000000E+03</pdfrwt>
<pdfrwt beam="2">0</pdfrwt>
<totfact> 0.65139930E+05</totfact>
</mgrwt>
</event>
<event>
 6    1  0.1132867E-002  0.3000000E+03  0.7818608E-02  0.1093470E+00
         21   -1    0    0  501  502  0.00000000000E+00  0.00000000000E+00  0.47947948761E+00  0.47947948761E+00  0.00000000000E+00 0. -1.
         13   -1    0    0    0    0 -0.00000000000E+00 -0.00000000000E+00 -0.10000000000E+04  0.10000000000E+04  0.00000000000E+00 0.  1.
    9000005    2    1    2  501    0  0.47059108147E+01  0.12299391919E+02 -0.86429941912E+03  0.86461864297E+03  0.19454851263E+02 0.  0.
         13    1    3    3    0    0  0.76990681592E+01  0.16214226968E+02 -0.74722984101E+03  0.74744539072E+03  0.00000000000E+00 0.  1.
          3    1    3    3  501    0 -0.29931573445E+01 -0.39148350499E+01 -0.11706957811E+03  0.11717325226E+03  0.00000000000E+00 0.  1.
         -3    1    1    2    0  502 -0.47059108147E+01 -0.12299391919E+02 -0.13522110139E+03  0.13586083652E+03  0.00000000000E+00 0. -1.
<mgrwt>
<rscale>  1 0.30000000E+03</rscale>
<asrwt>0</asrwt>
<pdfrwt beam="1">  1       21 0.17435654E-02 0.30000000E+03</pdfrwt>
<pdfrwt beam="2">0</pdfrwt>
<totfact> 0.16568464E+05</totfact>
</mgrwt>
</event>
<event>
 6    1  0.1132867E-002  0.3000000E+03  0.7818608E-02  0.1093470E+00
         21   -1    0    0  501  502  0.00000000000E+00  0.00000000000E+00  0.32971329113E+00  0.32971329113E+00  0.00000000000E+00 0. -1.
         13   -1    0    0    0    0 -0.00000000000E+00 -0.00000000000E+00 -0.10000000000E+04  0.10000000000E+04  0.00000000000E+00 0.  1.
    9000005    2    1    2  501    0  0.13518766972E+01 -0.10714634325E+02 -0.83229490578E+03  0.83260628291E+03  0.20044480203E+02 0.  0.
         13    1    3    3    0    0  0.24469887066E+01  0.36804800866E+01 -0.47405543682E+03  0.47407603912E+03  0.00000000000E+00 0.  1.
          1    1    3    3  501    0 -0.10951120095E+01 -0.14395114412E+02 -0.35823946896E+03  0.35853024379E+03  0.00000000000E+00 0.  1.
         -3    1    1    2    0  502 -0.13518766972E+01  0.10714634325E+02 -0.16737538093E+03  0.16772343038E+03  0.00000000000E+00 0. -1.
<mgrwt>
<rscale>  1 0.30000000E+03</rscale>
<asrwt>0</asrwt>
<pdfrwt beam="1">  1       21 0.11989600E-02 0.30000000E+03</pdfrwt>
<pdfrwt beam="2">0</pdfrwt>
<totfact> 0.30268699E+05</totfact>
</mgrwt>
</event>
<event>
 6    1  0.1132867E-002  0.3000000E+03  0.7818608E-02  0.1093470E+00
         21   -1    0    0  501  502  0.00000000000E+00  0.00000000000E+00  0.12482106486E+00  0.12482106486E+00  0.00000000000E+00 0. -1.
         13   -1    0    0    0    0 -0.00000000000E+00 -0.00000000000E+00 -0.10000000000E+04  0.10000000000E+04  0.00000000000E+00 0.  1.
    9000005    2    1    2  501    0 -0.76842304002E+01 -0.51971124385E+01 -0.65060641804E+03  0.65073288540E+03  0.88611265607E+01 0.  0.
         13    1    3    3    0    0 -0.97409672343E+00 -0.46898250029E+01 -0.13957940473E+03  0.13966156790E+03  0.00000000000E+00 0.  1.
          3    1    3    3  501    0 -0.67101336767E+01 -0.50728743556E+00 -0.51102701331E+03  0.51107131750E+03  0.00000000000E+00 0.  1.
         -1    1    1    2    0  502  0.76842304002E+01  0.51971124385E+01 -0.34926876089E+03  0.34939193567E+03  0.00000000000E+00 0. -1.
<mgrwt>
<rscale>  1 0.30000000E+03</rscale>
<asrwt>0</asrwt>
<pdfrwt beam="1">  1       21 0.45389574E-03 0.30000000E+03</pdfrwt>
<pdfrwt beam="2">0</pdfrwt>
<totfact> 0.13930990E+06</totfact>
</mgrwt>
</event>
<event>
 6    1  0.1132867E-002  0.3000000E+03  0.7818608E-02  0.1093470E+00
         21   -1    0    0  501  502  0.00000000000E+00  0.00000000000E+00  0.17601578300E+00  0.17601578300E+00  0.00000000000E+00 0. -1.
         13   -1    0    0    0    0 -0.00000000000E+00 -0.00000000000E+00 -0.10000000000E+04  0.10000000000E+04  0.00000000000E+00 0.  1.
    9000005    2    1    2  501    0  0.11526569725E+02  0.10176421503E+01 -0.72713925599E+03  0.72724588111E+03  0.46018020933E+01 0.  0.
         13    1    3    3    0    0  0.37618220095E+01  0.13611370525E+01 -0.14651121569E+03  0.14656582249E+03  0.00000000000E+00 0.  1.
          3    1    3    3  501    0  0.77647477155E+01 -0.34349490225E+00 -0.58062804030E+03  0.58068005862E+03  0.00000000000E+00 0.  1.
         -3    1    1    2    0  502 -0.11526569725E+02 -0.10176421503E+01 -0.27268472822E+03  0.27293013467E+03  0.00000000000E+00 0. -1.
<mgrwt>
<rscale>  1 0.30000000E+03</rscale>
<asrwt>0</asrwt>
<pdfrwt beam="1">  1       21 0.64005874E-03 0.30000000E+03</pdfrwt>
<pdfrwt beam="2">0</pdfrwt>
<totfact> 0.81608778E+05</totfact>
</mgrwt>
</event>
<event>
 6    1  0.1132867E-002  0.3000000E+03  0.7818608E-02  0.1093470E+00
         21   -1    0    0  501  502  0.00000000000E+00  0.00000000000E+00  0.30703890580E+00  0.30703890580E+00  0.00000000000E+00 0. -1.
         13   -1    0    0    0    0 -0.00000000000E+00 -0.00000000000E+00 -0.10000000000E+04  0.10000000000E+04  0.00000000000E+00 0.  1.
    9000005    2    1    2  501    0 -0.11788474470E+02 -0.84787800960E+01 -0.74464325686E+03  0.74484430293E+03  0.94126392743E+01 0.  0.
         13    1    3    3    0    0 -0.13360891699E+02 -0.82402420369E+01 -0.68504394401E+03  0.68522377384E+03  0.00000000000E+00 0.  1.
          1    1    3    3  501    0  0.15724172295E+01 -0.23853805909E+00 -0.59599312847E+02  0.59620529083E+02  0.00000000000E+00 0.  1.
         -3    1    1    2    0  502  0.11788474470E+02  0.84787800960E+01 -0.25504970424E+03  0.25546273598E+03  0.00000000000E+00 0. -1.
<mgrwt>
<rscale>  1 0.30000000E+03</rscale>
<asrwt>0</asrwt>
<pdfrwt beam="1">  1       21 0.11165075E-02 0.30000000E+03</pdfrwt>
<pdfrwt beam="2">0</pdfrwt>
<totfact> 0.33911355E+05</totfact>
</mgrwt>
</event>
<event>
 6    1  0.1132867E-002  0.3000000E+03  0.7818608E-02  0.1093470E+00
         21   -1    0    0  501  502  0.00000000000E+00  0.00000000000E+00  0.60613825615E+00  0.60613825615E+00  0.00000000000E+00 0. -1.
         13   -1    0    0    0    0 -0.00000000000E+00 -0.00000000000E+00 -0.10000000000E+04  0.10000000000E+04  0.00000000000E+00 0.  1.
    9000005    2    1    2  501    0  0.97228676852E+01  0.28782844414E+01 -0.95316371273E+03  0.95327702084E+03  0.10639385469E+02 0.  0.
         13    1    3    3    0    0  0.82179857331E+01 -0.16303543913E+01 -0.78908392374E+03  0.78912840023E+03  0.00000000000E+00 0.  1.
          1    1    3    3  501    0  0.15048819522E+01  0.45086388327E+01 -0.16407978898E+03  0.16414862061E+03  0.00000000000E+00 0.  1.
         -3    1    1    2    0  502 -0.97228676852E+01 -0.28782844414E+01 -0.46230149017E+02  0.47329117417E+02  0.00000000000E+00 0. -1.
<mgrwt>
<rscale>  1 0.30000000E+03</rscale>
<asrwt>0</asrwt>
<pdfrwt beam="1">  1       21 0.22041438E-02 0.30000000E+03</pdfrwt>
<pdfrwt beam="2">0</pdfrwt>
<totfact> 0.11309246E+05</totfact>
</mgrwt>
</event>
<event>
 6    1  0.1132867E-002  0.3000000E+03  0.7818608E-02  0.1093470E+00
         21   -1    0    0  501  502  0.00000000000E+00  0.00000000000E+00  0.68790244850E+00  0.68790244850E+00  0.00000000000E+00 0. -1.
         13   -1    0    0    0    0 -0.00000000000E+00 -0.00000000000E+00 -0.10000000000E+04  0.10000000000E+04  0.00000000000E+00 0.  1.
    9000005    2    1    2  501    0 -0.11588128776E+02 -0.12354298593E+01 -0.94454614078E+03  0.94469575088E+03  0.12117700486E+02 0.  0.
         13    1    3    3    0    0 -0.57040687076E+00 -0.22219842493E+01 -0.52140151930E+03  0.52140656584E+03  0.00000000000E+00 0.  1.
          1    1    3    3  501    0 -0.11017721905E+02  0.98655439002E+00 -0.42314462148E+03  0.42328918504E+03  0.00000000000E+00 0.  1.
         -3    1    1    2    0  502  0.11588128776E+02  0.12354298593E+01 -0.54765956776E+02  0.55992151567E+02  0.00000000000E+00 0. -1.
<mgrwt>
<rscale>  1 0.30000000E+03</rscale>
<asrwt>0</asrwt>
<pdfrwt beam="1">  1       21 0.25014687E-02 0.30000000E+03</pdfrwt>
<pdfrwt beam="2">0</pdfrwt>
<totfact> 0.91880606E+04</totfact>
</mgrwt>
</event>
<event>
 6    1  0.1132867E-002  0.3000000E+03  0.7818608E-02  0.1093470E+00
         21   -1    0    0  501  502  0.00000000000E+00  0.00000000000E+00  0.66280780711E+00  0.66280780711E+00  0.00000000000E+00 0. -1.
         13   -1    0    0    0    0 -0.00000000000E+00 -0.00000000000E+00 -0.10000000000E+04  0.10000000000E+04  0.00000000000E+00 0.  1.
    9000005    2    1    2  501    0  0.19014471095E+02  0.88380083523E-01 -0.82979398420E+03  0.83005666109E+03  0.86282372963E+01 0.  0.
         13    1    3    3    0    0  0.16723339377E+02 -0.23351338153E+01 -0.75439920000E+03  0.75458814985E+03  0.00000000000E+00 0.  1.
          1    1    3    3  501    0  0.22911317176E+01  0.24235138988E+01 -0.75394784199E+02  0.75468511238E+02  0.00000000000E+00 0.  1.
         -1    1    1    2    0  502 -0.19014471095E+02 -0.88380083523E-01 -0.16954320799E+03  0.17060614672E+03  0.00000000000E+00 0. -1.
<mgrwt>
<rscale>  1 0.30000000E+03</rscale>
<asrwt>0</asrwt>
<pdfrwt beam="1">  1       21 0.24102153E-02 0.30000000E+03</pdfrwt>
<pdfrwt beam="2">0</pdfrwt>
<totfact> 0.97669986E+04</totfact>
</mgrwt>
</event>
<event>
 6    1  0.1132867E-002  0.3000000E+03  0.7818608E-02  0.1093470E+00
         21   -1    0    0  501  502  0.00000000000E+00  0.00000000000E+00  0.12567815766E+00  0.12567815766E+00  0.00000000000E+00 0. -1.
         13   -1    0    0    0    0 -0.00000000000E+00 -0.00000000000E+00 -0.10000000000E+04  0.10000000000E+04  0.00000000000E+00 0.  1.
    9000005    2    1    2  501    0 -0.19128845825E+01  0.82568136662E+01 -0.69455653975E+03  0.69469028046E+03  0.10675428304E+02 0.  0.
         13    1    3    3    0    0 -0.59503496144E+01  0.37029894283E+01 -0.27359696270E+03  0.27368671285E+03  0.00000000000E+00 0.  1.
          1    1    3    3  501    0  0.40374650320E+01  0.45538242379E+01 -0.42095957704E+03  0.42100356761E+03  0.00000000000E+00 0.  1.
         -3    1    1    2    0  502  0.19128845825E+01 -0.82568136662E+01 -0.30531778210E+03  0.30543539769E+03  0.00000000000E+00 0. -1.
<mgrwt>
<rscale>  1 0.30000000E+03</rscale>
<asrwt>0</asrwt>
<pdfrwt beam="1">  1       21 0.45701245E-03 0.30000000E+03</pdfrwt>
<pdfrwt beam="2">0</pdfrwt>
<totfact> 0.13784212E+06</totfact>
</mgrwt>
</event>
<event>
 6    1  0.1132867E-002  0.3000000E+03  0.7818608E-02  0.1093470E+00
         21   -1    0    0  501  502  0.00000000000E+00  0.00000000000E+00  0.14372534098E+00  0.14372534098E+00  0.00000000000E+00 0. -1.
         13   -1    0    0    0    0 -0.00000000000E+00 -0.00000000000E+00 -0.10000000000E+04  0.10000000000E+04  0.00000000000E+00 0.  1.
    9000005    2    1    2  501    0 -0.13281232399E+01  0.10343371566E+02 -0.67052639651E+03  0.67064878170E+03  0.74424945732E+01 0.  0.
         13    1    3    3    0    0 -0.19403692083E+01 -0.22393270314E+00 -0.63281933518E+02  0.63312070637E+02  0.00000000000E+00 0.  1.
          1    1    3    3  501    0  0.61224596841E+00  0.10567304269E+02 -0.60724446299E+03  0.60733671106E+03  0.00000000000E+00 0.  1.
         -3    1    1    2    0  502  0.13281232399E+01 -0.10343371566E+02 -0.32932987815E+03  0.32949494364E+03  0.00000000000E+00 0. -1.
<mgrwt>
<rscale>  1 0.30000000E+03</rscale>
<asrwt>0</asrwt>
<pdfrwt beam="1">  1       21 0.52263871E-03 0.30000000E+03</pdfrwt>
<pdfrwt beam="2">0</pdfrwt>
<totfact> 0.11193364E+06</totfact>
</mgrwt>
</event>
<event>
 6    1  0.1132867E-002  0.3000000E+03  0.7818608E-02  0.1093470E+00
         21   -1    0    0  501  502  0.00000000000E+00  0.00000000000E+00  0.43237602493E+00  0.43237602493E+00  0.00000000000E+00 0. -1.
         13   -1    0    0    0    0 -0.00000000000E+00 -0.00000000000E+00 -0.10000000000E+04  0.10000000000E+04  0.00000000000E+00 0.  1.
    9000005    2    1    2  501    0 -0.19081424566E+02 -0.60019215112E+01 -0.60697956581E+03  0.60733505062E+03  0.56166340063E+01 0.  0.
         13    1    3    3    0    0 -0.10113089046E+02 -0.12557856764E+01 -0.24201389110E+03  0.24222835311E+03  0.00000000000E+00 0.  1.
          1    1    3    3  501    0 -0.89683355200E+01 -0.47461358348E+01 -0.36496567471E+03  0.36510669751E+03  0.00000000000E+00 0.  1.
         -1    1    1    2    0  502  0.19081424566E+02  0.60019215112E+01 -0.39258805817E+03  0.39309732541E+03  0.00000000000E+00 0. -1.
<mgrwt>
<rscale>  1 0.30000000E+03</rscale>
<asrwt>0</asrwt>
<pdfrwt beam="1">  1       21 0.15722798E-02 0.30000000E+03</pdfrwt>
<pdfrwt beam="2">0</pdfrwt>
<totfact> 0.19586401E+05</totfact>
</mgrwt>
</event>
<event>
 6    1  0.1132867E-002  0.3000000E+03  0.7818608E-02  0.1093470E+00
         21   -1    0    0  501  502  0.00000000000E+00  0.00000000000E+00  0.11476414710E+00  0.11476414710E+00  0.00000000000E+00 0. -1.
         13   -1    0    0    0    0 -0.00000000000E+00 -0.00000000000E+00 -0.10000000000E+04  0.10000000000E+04  0.00000000000E+00 0.  1.
    9000005    2    1    2  501    0 -0.30345096640E+01  0.80205602379E+01 -0.75377984553E+03  0.75386001642E+03  0.68797662800E+01 0.  0.
         13    1    3    3    0    0 -0.75715000386E+00  0.72536976856E+01 -0.36561269220E+03  0.36568542506E+03  0.00000000000E+00 0.  1.
          1    1    3    3  501    0 -0.22773596601E+01  0.76686255230E+00 -0.38816715333E+03  0.38817459135E+03  0.00000000000E+00 0.  1.
         -3    1    1    2    0  502  0.30345096640E+01 -0.80205602379E+01 -0.24610539032E+03  0.24625474773E+03  0.00000000000E+00 0. -1.
<mgrwt>
<rscale>  1 0.30000000E+03</rscale>
<asrwt>0</asrwt>
<pdfrwt beam="1">  1       21 0.41732505E-03 0.30000000E+03</pdfrwt>
<pdfrwt beam="2">0</pdfrwt>
<totfact> 0.15862519E+06</totfact>
</mgrwt>
</event>
<event>
 6    1  0.1132867E-002  0.3000000E+03  0.7818608E-02  0.1093470E+00
         21   -1    0    0  501  502  0.00000000000E+00  0.00000000000E+00  0.25436427359E+00  0.25436427359E+00  0.00000000000E+00 0. -1.
         13   -1    0    0    0    0 -0.00000000000E+00 -0.00000000000E+00 -0.10000000000E+04  0.10000000000E+04  0.00000000000E+00 0.  1.
    9000005    2    1    2  501    0  0.85217807731E+01  0.84185460421E+01 -0.82944436284E+03  0.82953232055E+03  0.15579255155E+01 0.  0.
         13    1    3    3    0    0  0.78732510029E+01  0.72117195030E+01 -0.75283677895E+03  0.75291248676E+03  0.00000000000E+00 0.  1.
          1    1    3    3  501    0  0.64852977017E+00  0.12068265391E+01 -0.76607583886E+02  0.76619833790E+02  0.00000000000E+00 0.  1.
         -1    1    1    2    0  502 -0.85217807731E+01 -0.84185460421E+01 -0.17030127289E+03  0.17072204372E+03  0.00000000000E+00 0. -1.
<mgrwt>
<rscale>  1 0.30000000E+03</rscale>
<asrwt>0</asrwt>
<pdfrwt beam="1">  1       21 0.92496295E-03 0.30000000E+03</pdfrwt>
<pdfrwt beam="2">0</pdfrwt>
<totfact> 0.45726776E+05</totfact>
</mgrwt>
</event>
<event>
 6    1  0.1132867E-002  0.3000000E+03  0.7818608E-02  0.1093470E+00
         21   -1    0    0  501  502  0.00000000000E+00  0.00000000000E+00  0.69084836740E+00  0.69084836740E+00  0.00000000000E+00 0. -1.
         13   -1    0    0    0    0 -0.00000000000E+00 -0.00000000000E+00 -0.10000000000E+04  0.10000000000E+04  0.00000000000E+00 0.  1.
    9000005    2    1    2  501    0 -0.10177214385E+02  0.21126549310E+01 -0.94064423535E+03  0.94111223302E+03  0.27796018629E+02 0.  0.
         13    1    3    3    0    0  0.80973384642E+01 -0.52105278451E+01 -0.38155994735E+03  0.38168142464E+03  0.00000000000E+00 0.  1.
          1    1    3    3  501    0 -0.18274552849E+02  0.73231827761E+01 -0.55908428799E+03  0.55943080838E+03  0.00000000000E+00 0.  1.
         -3    1    1    2    0  502  0.10177214385E+02 -0.21126549310E+01 -0.58664916287E+02  0.59578615345E+02  0.00000000000E+00 0. -1.
<mgrwt>
<rscale>  1 0.30000000E+03</rscale>
<asrwt>0</asrwt>
<pdfrwt beam="1">  1       21 0.25121812E-02 0.30000000E+03</pdfrwt>
<pdfrwt beam="2">0</pdfrwt>
<totfact> 0.91236658E+04</totfact>
</mgrwt>
</event>
<event>
 6    1  0.1132867E-002  0.3000000E+03  0.7818608E-02  0.1093470E+00
         21   -1    0    0  501  502  0.00000000000E+00  0.00000000000E+00  0.10580564620E+00  0.10580564620E+00  0.00000000000E+00 0. -1.
         13   -1    0    0    0    0 -0.00000000000E+00 -0.00000000000E+00 -0.10000000000E+04  0.10000000000E+04  0.00000000000E+00 0.  1.
    9000005    2    1    2  501    0 -0.59808623035E+01  0.58742277967E+01 -0.58520746259E+03  0.58533434717E+03  0.88457017253E+01 0.  0.
         13    1    3    3    0    0 -0.74462785847E+01  0.15334124193E+01 -0.37141525390E+03  0.37149305410E+03  0.00000000000E+00 0.  1.
          1    1    3    3  501    0  0.14654162813E+01  0.43408153774E+01 -0.21379220869E+03  0.21384129307E+03  0.00000000000E+00 0.  1.
         -1    1    1    2    0  502  0.59808623035E+01 -0.58742277967E+01 -0.41468673176E+03  0.41477145848E+03  0.00000000000E+00 0. -1.
<mgrwt>
<rscale>  1 0.30000000E+03</rscale>
<asrwt>0</asrwt>
<pdfrwt beam="1">  1       21 0.38474862E-03 0.30000000E+03</pdfrwt>
<pdfrwt beam="2">0</pdfrwt>
<totfact> 0.17981717E+06</totfact>
</mgrwt>
</event>
<event>
 6    1  0.1132867E-002  0.3000000E+03  0.7818608E-02  0.1093470E+00
         21   -1    0    0  501  502  0.00000000000E+00  0.00000000000E+00  0.11115074733E+00  0.11115074733E+00  0.00000000000E+00 0. -1.
         13   -1    0    0    0    0 -0.00000000000E+00 -0.00000000000E+00 -0.10000000000E+04  0.10000000000E+04  0.00000000000E+00 0.  1.
    9000005    2    1    2  501    0  0.75865183323E+01  0.57251028886E+01 -0.59124403665E+03  0.59135582670E+03  0.64707684027E+01 0.  0.
         13    1    3    3    0    0  0.10004385847E+01  0.41768832047E+01 -0.31340153903E+03  0.31343096831E+03  0.00000000000E+00 0.  1.
          1    1    3    3  501    0  0.65860797476E+01  0.15482196839E+01 -0.27784249762E+03  0.27792485840E+03  0.00000000000E+00 0.  1.
         -3    1    1    2    0  502 -0.75865183323E+01 -0.57251028886E+01 -0.40864481261E+03  0.40875532404E+03  0.00000000000E+00 0. -1.
<mgrwt>
<rscale>  1 0.30000000E+03</rscale>
<asrwt>0</asrwt>
<pdfrwt beam="1">  1       21 0.40418539E-03 0.30000000E+03</pdfrwt>
<pdfrwt beam="2">0</pdfrwt>
<totfact> 0.16665473E+06</totfact>
</mgrwt>
</event>
<event>
 6    1  0.1132867E-002  0.3000000E+03  0.7818608E-02  0.1093470E+00
         21   -1    0    0  501  502  0.00000000000E+00  0.00000000000E+00  0.49685992263E+00  0.49685992263E+00  0.00000000000E+00 0. -1.
         13   -1    0    0    0    0 -0.00000000000E+00 -0.00000000000E+00 -0.10000000000E+04  0.10000000000E+04  0.00000000000E+00 0.  1.
    9000005    2    1    2  501    0  0.20298560166E+02 -0.53923094746E+01 -0.64602932213E+03  0.64639962961E+03  0.61227078877E+01 0.  0.
         13    1    3    3    0    0  0.12983626349E+02 -0.10917181953E+01 -0.33172815581E+03  0.33198393901E+03  0.00000000000E+00 0.  1.
          1    1    3    3  501    0  0.73149338174E+01 -0.43005912793E+01 -0.31430116632E+03  0.31441569059E+03  0.00000000000E+00 0.  1.
         -1    1    1    2    0  502 -0.20298560166E+02  0.53923094746E+01 -0.35347381794E+03  0.35409723032E+03  0.00000000000E+00 0. -1.
<mgrwt>
<rscale>  1 0.30000000E+03</rscale>
<asrwt>0</asrwt>
<pdfrwt beam="1">  1       21 0.18067672E-02 0.30000000E+03</pdfrwt>
<pdfrwt beam="2">0</pdfrwt>
<totfact> 0.15638379E+05</totfact>
</mgrwt>
</event>
<event>
 6    1  0.1132867E-002  0.3000000E+03  0.7818608E-02  0.1093470E+00
         21   -1    0    0  501  502  0.00000000000E+00  0.00000000000E+00  0.13374126440E+00  0.13374126440E+00  0.00000000000E+00 0. -1.
         13   -1    0    0    0    0 -0.00000000000E+00 -0.00000000000E+00 -0.10000000000E+04  0.10000000000E+04  0.00000000000E+00 0.  1.
    9000005    2    1    2  501    0  0.17491184588E+01 -0.10433877910E+02 -0.60932454649E+03  0.60944876046E+03  0.62819937512E+01 0.  0.
         13    1    3    3    0    0  0.14728248051E+00  0.58880270826E+00 -0.87911559926E+01  0.88120828665E+01  0.00000000000E+00 0.  1.
          1    1    3    3  501    0  0.16018359783E+01 -0.11022680618E+02 -0.60053339050E+03  0.60063667759E+03  0.00000000000E+00 0.  1.
         -3    1    1    2    0  502 -0.17491184588E+01  0.10433877910E+02 -0.39054171225E+03  0.39068498081E+03  0.00000000000E+00 0. -1.
<mgrwt>
<rscale>  1 0.30000000E+03</rscale>
<asrwt>0</asrwt>
<pdfrwt beam="1">  1       21 0.48633290E-03 0.30000000E+03</pdfrwt>
<pdfrwt beam="2">0</pdfrwt>
<totfact> 0.12517761E+06</totfact>
</mgrwt>
</event>
<event>
 6    1  0.1132867E-002  0.3000000E+03  0.7818608E-02  0.1093470E+00
         21   -1    0    0  501  502  0.00000000000E+00  0.00000000000E+00  0.26338025754E+00  0.26338025754E+00  0.00000000000E+00 0. -1.
         13   -1    0    0    0    0 -0.00000000000E+00 -0.00000000000E+00 -0.10000000000E+04  0.10000000000E+04  0.00000000000E+00 0.  1.
    9000005    2    1    2  501    0  0.40477241243E+00 -0.11074525411E+02 -0.82126596491E+03  0.82144899720E+03  0.13336450766E+02 0.  0.
         13    1    3    3    0    0  0.24463440882E+01 -0.12259152409E+02 -0.44479287849E+03  0.44496851143E+03  0.00000000000E+00 0.  1.
          3    1    3    3  501    0 -0.20415716758E+01  0.11846269980E+01 -0.37647308643E+03  0.37648048576E+03  0.00000000000E+00 0.  1.
         -1    1    1    2    0  502 -0.40477241243E+00  0.11074525411E+02 -0.17847065483E+03  0.17881438306E+03  0.00000000000E+00 0. -1.
<mgrwt>
<rscale>  1 0.30000000E+03</rscale>
<asrwt>0</asrwt>
<pdfrwt beam="1">  1       21 0.95774841E-03 0.30000000E+03</pdfrwt>
<pdfrwt beam="2">0</pdfrwt>
<totfact> 0.43273108E+05</totfact>
</mgrwt>
</event>
<event>
 6    1  0.1132867E-002  0.3000000E+03  0.7818608E-02  0.1093470E+00
         21   -1    0    0  501  502  0.00000000000E+00  0.00000000000E+00  0.18800251127E+00  0.18800251127E+00  0.00000000000E+00 0. -1.
         13   -1    0    0    0    0 -0.00000000000E+00 -0.00000000000E+00 -0.10000000000E+04  0.10000000000E+04  0.00000000000E+00 0.  1.
    9000005    2    1    2  501    0  0.31827489577E+01 -0.95057397056E+01 -0.80356577169E+03  0.80368591571E+03  0.96235490030E+01 0.  0.
         13    1    3    3    0    0 -0.15175848583E+01  0.52161933598E+00 -0.27232309929E+03  0.27232782736E+03  0.00000000000E+00 0.  1.
          3    1    3    3  501    0  0.47003338160E+01 -0.10027359042E+02 -0.53124267241E+03  0.53135808835E+03  0.00000000000E+00 0.  1.
         -3    1    1    2    0  502 -0.31827489577E+01  0.95057397056E+01 -0.19624622580E+03  0.19650208680E+03  0.00000000000E+00 0. -1.
<mgrwt>
<rscale>  1 0.30000000E+03</rscale>
<asrwt>0</asrwt>
<pdfrwt beam="1">  1       21 0.68364694E-03 0.30000000E+03</pdfrwt>
<pdfrwt beam="2">0</pdfrwt>
<totfact> 0.73610448E+05</totfact>
</mgrwt>
</event>
<event>
 6    1  0.1132867E-002  0.3000000E+03  0.7818608E-02  0.1093470E+00
         21   -1    0    0  501  502  0.00000000000E+00  0.00000000000E+00  0.10268959356E+01  0.10268959356E+01  0.00000000000E+00 0.  1.
         13   -1    0    0    0    0 -0.00000000000E+00 -0.00000000000E+00 -0.10000000000E+04  0.10000000000E+04  0.00000000000E+00 0.  1.
    9000005    2    1    2  501    0 -0.20615625670E+02 -0.70675492414E+01 -0.73838865773E+03  0.73953271255E+03  0.34869310155E+02 0.  0.
         13    1    3    3    0    0 -0.24128921279E+02  0.42212090330E+01 -0.30473328620E+03  0.30571620691E+03  0.00000000000E+00 0.  1.
          3    1    3    3  501    0  0.35132956089E+01 -0.11288758274E+02 -0.43365537153E+03  0.43381650564E+03  0.00000000000E+00 0.  1.
         -3    1    1    2    0  502  0.20615625670E+02  0.70675492414E+01 -0.26058444633E+03  0.26149418338E+03  0.00000000000E+00 0. -1.
<mgrwt>
<rscale>  1 0.30000000E+03</rscale>
<asrwt>0</asrwt>
<pdfrwt beam="1">  1       21 0.37341749E-02 0.30000000E+03</pdfrwt>
<pdfrwt beam="2">0</pdfrwt>
<totfact> 0.47201264E+04</totfact>
</mgrwt>
</event>
<event>
 6    1  0.1132867E-002  0.3000000E+03  0.7818608E-02  0.1093470E+00
         21   -1    0    0  501  502  0.00000000000E+00  0.00000000000E+00  0.23908885026E+00  0.23908885026E+00  0.00000000000E+00 0. -1.
         13   -1    0    0    0    0 -0.00000000000E+00 -0.00000000000E+00 -0.10000000000E+04  0.10000000000E+04  0.00000000000E+00 0.  1.
    9000005    2    1    2  501    0 -0.94682635739E+00 -0.91855520067E+01 -0.86201697329E+03  0.86218597131E+03  0.14356741822E+02 0.  0.
         13    1    3    3    0    0 -0.45092631716E+01 -0.11511409529E+01 -0.91013935688E+02  0.91132842979E+02  0.00000000000E+00 0.  1.
          1    1    3    3  501    0  0.35624368142E+01 -0.80344110538E+01 -0.77100303760E+03  0.77105312833E+03  0.00000000000E+00 0.  1.
         -3    1    1    2    0  502  0.94682635739E+00  0.91855520067E+01 -0.13774393786E+03  0.13805311754E+03  0.00000000000E+00 0. -1.
<mgrwt>
<rscale>  1 0.30000000E+03</rscale>
<asrwt>0</asrwt>
<pdfrwt beam="1">  1       21 0.86941583E-03 0.30000000E+03</pdfrwt>
<pdfrwt beam="2">0</pdfrwt>
<totfact> 0.50429957E+05</totfact>
</mgrwt>
</event>
<event>
 6    1  0.1132867E-002  0.3000000E+03  0.7818608E-02  0.1093470E+00
         21   -1    0    0  501  502  0.00000000000E+00  0.00000000000E+00  0.11499378481E+01  0.11499378481E+01  0.00000000000E+00 0. -1.
         13   -1    0    0    0    0 -0.00000000000E+00 -0.00000000000E+00 -0.10000000000E+04  0.10000000000E+04  0.00000000000E+00 0.  1.
    9000005    2    1    2  501    0  0.30067321661E+02 -0.11774995309E+02 -0.61447297428E+03  0.61541889162E+03  0.10985521879E+02 0.  0.
         13    1    3    3    0    0  0.20772233942E+02 -0.13322679923E+02 -0.45047260443E+03  0.45114803207E+03  0.00000000000E+00 0.  1.
          1    1    3    3  501    0  0.92950877196E+01  0.15476846142E+01 -0.16400036986E+03  0.16427085955E+03  0.00000000000E+00 0.  1.
         -1    1    1    2    0  502 -0.30067321661E+02  0.11774995309E+02 -0.38437708787E+03  0.38573104623E+03  0.00000000000E+00 0. -1.
<mgrwt>
<rscale>  1 0.30000000E+03</rscale>
<asrwt>0</asrwt>
<pdfrwt beam="1">  1       21 0.41816010E-02 0.30000000E+03</pdfrwt>
<pdfrwt beam="2">0</pdfrwt>
<totfact> 0.39014592E+04</totfact>
</mgrwt>
</event>
<event>
 6    1  0.1132867E-002  0.3000000E+03  0.7818608E-02  0.1093470E+00
         21   -1    0    0  501  502  0.00000000000E+00  0.00000000000E+00  0.11558869985E+01  0.11558869985E+01  0.00000000000E+00 0.  1.
         13   -1    0    0    0    0 -0.00000000000E+00 -0.00000000000E+00 -0.10000000000E+04  0.10000000000E+04  0.00000000000E+00 0.  1.
    9000005    2    1    2  501    0 -0.73006144390E+01  0.12533880842E+02 -0.93005393647E+03  0.93085307392E+03  0.35731265501E+02 0.  0.
         13    1    3    3    0    0  0.56474540271E+01  0.92427945990E+01 -0.80757945655E+03  0.80765209195E+03  0.00000000000E+00 0.  1.
          3    1    3    3  501    0 -0.12948068466E+02  0.32910862430E+01 -0.12247447992E+03  0.12320098196E+03  0.00000000000E+00 0.  1.
         -1    1    1    2    0  502  0.73006144390E+01 -0.12533880842E+02 -0.68790176528E+02  0.70302813080E+02  0.00000000000E+00 0. -1.
<mgrwt>
<rscale>  1 0.30000000E+03</rscale>
<asrwt>0</asrwt>
<pdfrwt beam="1">  1       21 0.42032343E-02 0.30000000E+03</pdfrwt>
<pdfrwt beam="2">0</pdfrwt>
<totfact> 0.38676150E+04</totfact>
</mgrwt>
</event>
<event>
 6    1  0.1132867E-002  0.3000000E+03  0.7818608E-02  0.1093470E+00
         21   -1    0    0  501  502  0.00000000000E+00  0.00000000000E+00  0.40620611553E+01  0.40620611553E+01  0.00000000000E+00 0. -1.
         13   -1    0    0    0    0 -0.00000000000E+00 -0.00000000000E+00 -0.10000000000E+04  0.10000000000E+04  0.00000000000E+00 0.  1.
    9000005    2    1    2  501    0  0.18826696736E+02  0.49434217890E+02 -0.75476993462E+03  0.75716088119E+03  0.28579002499E+02 0.  0.
         13    1    3    3    0    0  0.20963580278E+02  0.15453836709E+02 -0.31477348053E+03  0.31584907284E+03  0.00000000000E+00 0.  1.
          3    1    3    3  501    0 -0.21368835418E+01  0.33980381181E+02 -0.43999645409E+03  0.44131180835E+03  0.00000000000E+00 0.  1.
         -1    1    1    2    0  502 -0.18826696736E+02 -0.49434217890E+02 -0.24116800422E+03  0.24690117997E+03  0.00000000000E+00 0. -1.
<mgrwt>
<rscale>  1 0.30000000E+03</rscale>
<asrwt>0</asrwt>
<pdfrwt beam="1">  1       21 0.14771163E-01 0.30000000E+03</pdfrwt>
<pdfrwt beam="2">0</pdfrwt>
<totfact> 0.42367865E+03</totfact>
</mgrwt>
</event>
<event>
 6    1  0.1132867E-002  0.3000000E+03  0.7818608E-02  0.1093470E+00
         21   -1    0    0  501  502  0.00000000000E+00  0.00000000000E+00  0.17861585107E+00  0.17861585107E+00  0.00000000000E+00 0. -1.
         13   -1    0    0    0    0 -0.00000000000E+00 -0.00000000000E+00 -0.10000000000E+04  0.10000000000E+04  0.00000000000E+00 0.  1.
    9000005    2    1    2  501    0 -0.11784112595E+02  0.16051965077E+01 -0.60655932303E+03  0.60673676414E+03  0.85934064321E+01 0.  0.
         13    1    3    3    0    0 -0.87733890220E+00  0.32781844378E+01 -0.10086888760E+03  0.10092595653E+03  0.00000000000E+00 0.  1.
          3    1    3    3  501    0 -0.10906773693E+02 -0.16729879301E+01 -0.50569043543E+03  0.50581080760E+03  0.00000000000E+00 0.  1.
         -3    1    1    2    0  502  0.11784112595E+02 -0.16051965077E+01 -0.39326206112E+03  0.39344185171E+03  0.00000000000E+00 0. -1.
<mgrwt>
<rscale>  1 0.30000000E+03</rscale>
<asrwt>0</asrwt>
<pdfrwt beam="1">  1       21 0.64951356E-03 0.30000000E+03</pdfrwt>
<pdfrwt beam="2">0</pdfrwt>
<totfact> 0.79757436E+05</totfact>
</mgrwt>
</event>
<event>
 6    1  0.1132867E-002  0.3000000E+03  0.7818608E-02  0.1093470E+00
         21   -1    0    0  501  502  0.00000000000E+00  0.00000000000E+00  0.32717137574E+00  0.32717137574E+00  0.00000000000E+00 0.  1.
         13   -1    0    0    0    0 -0.00000000000E+00 -0.00000000000E+00 -0.10000000000E+04  0.10000000000E+04  0.00000000000E+00 0.  1.
    9000005    2    1    2  501    0  0.19230259593E+01 -0.82250671115E+01 -0.80809463537E+03  0.80856285278E+03  0.26183915217E+02 0.  0.
         13    1    3    3    0    0  0.83656410809E+01 -0.20801567786E+01 -0.89748324772E+02  0.90161370898E+02  0.00000000000E+00 0.  1.
          3    1    3    3  501    0 -0.64426151216E+01 -0.61449103330E+01 -0.71834631060E+03  0.71840148188E+03  0.00000000000E+00 0.  1.
         -3    1    1    2    0  502 -0.19230259593E+01  0.82250671115E+01 -0.19157819325E+03  0.19176431860E+03  0.00000000000E+00 0. -1.
<mgrwt>
<rscale>  1 0.30000000E+03</rscale>
<asrwt>0</asrwt>
<pdfrwt beam="1">  1       21 0.11897166E-02 0.30000000E+03</pdfrwt>
<pdfrwt beam="2">0</pdfrwt>
<totfact> 0.30645069E+05</totfact>
</mgrwt>
</event>
<event>
 6    1  0.1132867E-002  0.3000000E+03  0.7818608E-02  0.1093470E+00
         21   -1    0    0  501  502  0.00000000000E+00  0.00000000000E+00  0.14875500620E+00  0.14875500620E+00  0.00000000000E+00 0.  1.
         13   -1    0    0    0    0 -0.00000000000E+00 -0.00000000000E+00 -0.10000000000E+04  0.10000000000E+04  0.00000000000E+00 0.  1.
    9000005    2    1    2  501    0  0.10338949108E+02  0.13187021511E+01 -0.74028171123E+03  0.74037004976E+03  0.47080513475E+01 0.  0.
         13    1    3    3    0    0  0.53160918327E+01 -0.76230975193E+00 -0.48921671095E+03  0.48924618774E+03  0.00000000000E+00 0.  1.
          1    1    3    3  501    0  0.50228572753E+01  0.20810119030E+01 -0.25106500028E+03  0.25112386202E+03  0.00000000000E+00 0.  1.
         -3    1    1    2    0  502 -0.10338949108E+02 -0.13187021511E+01 -0.25956953376E+03  0.25977870525E+03  0.00000000000E+00 0. -1.
<mgrwt>
<rscale>  1 0.30000000E+03</rscale>
<asrwt>0</asrwt>
<pdfrwt beam="1">  1       21 0.54092844E-03 0.30000000E+03</pdfrwt>
<pdfrwt beam="2">0</pdfrwt>
<totfact> 0.10610452E+06</totfact>
</mgrwt>
</event>
<event>
 6    1  0.1132867E-002  0.3000000E+03  0.7818608E-02  0.1093470E+00
         21   -1    0    0  501  502  0.00000000000E+00  0.00000000000E+00  0.17571614032E+00  0.17571614032E+00  0.00000000000E+00 0. -1.
         13   -1    0    0    0    0 -0.00000000000E+00 -0.00000000000E+00 -0.10000000000E+04  0.10000000000E+04  0.00000000000E+00 0.  1.
    9000005    2    1    2  501    0  0.90095674959E+01  0.61356230120E+01 -0.74315075306E+03  0.74327083182E+03  0.77246022210E+01 0.  0.
         13    1    3    3    0    0  0.24536066856E+01 -0.11417170318E+01 -0.29821091504E+03  0.29822319419E+03  0.00000000000E+00 0.  1.
          1    1    3    3  501    0  0.65559608103E+01  0.72773400438E+01 -0.44493983802E+03  0.44504763763E+03  0.00000000000E+00 0.  1.
         -3    1    1    2    0  502 -0.90095674959E+01 -0.61356230120E+01 -0.25667353080E+03  0.25690488432E+03  0.00000000000E+00 0. -1.
<mgrwt>
<rscale>  1 0.30000000E+03</rscale>
<asrwt>0</asrwt>
<pdfrwt beam="1">  1       21 0.63896913E-03 0.30000000E+03</pdfrwt>
<pdfrwt beam="2">0</pdfrwt>
<totfact> 0.81826625E+05</totfact>
</mgrwt>
</event>
<event>
 6    1  0.1132867E-002  0.3000000E+03  0.7818608E-02  0.1093470E+00
         21   -1    0    0  501  502  0.00000000000E+00  0.00000000000E+00  0.81153521514E+00  0.81153521514E+00  0.00000000000E+00 0. -1.
         13   -1    0    0    0    0 -0.00000000000E+00 -0.00000000000E+00 -0.10000000000E+04  0.10000000000E+04  0.00000000000E+00 0.  1.
    9000005    2    1    2  501    0 -0.13126873843E+02 -0.20881599678E+02 -0.39964383912E+03  0.40075977563E+03  0.16877309961E+02 0.  0.
         13    1    3    3    0    0 -0.14166292341E+02 -0.14315367271E+02 -0.35995721977E+03  0.36052019866E+03  0.00000000000E+00 0.  1.
          3    1    3    3  501    0  0.10394184982E+01 -0.65662324068E+01 -0.39686619353E+02  0.40239576968E+02  0.00000000000E+00 0.  1.
         -3    1    1    2    0  502  0.13126873843E+02  0.20881599678E+02 -0.59954462566E+03  0.60005175959E+03  0.00000000000E+00 0. -1.
<mgrwt>
<rscale>  1 0.30000000E+03</rscale>
<asrwt>0</asrwt>
<pdfrwt beam="1">  1       21 0.29510434E-02 0.30000000E+03</pdfrwt>
<pdfrwt beam="2">0</pdfrwt>
<totfact> 0.69913628E+04</totfact>
</mgrwt>
</event>
<event>
 6    1  0.1132867E-002  0.3000000E+03  0.7818608E-02  0.1093470E+00
         21   -1    0    0  501  502  0.00000000000E+00  0.00000000000E+00  0.78685362085E+00  0.78685362085E+00  0.00000000000E+00 0. -1.
         13   -1    0    0    0    0 -0.00000000000E+00 -0.00000000000E+00 -0.10000000000E+04  0.10000000000E+04  0.00000000000E+00 0.  1.
    9000005    2    1    2  501    0  0.98573136478E+01  0.32712770515E+01 -0.96334674575E+03  0.96344697440E+03  0.92332038591E+01 0.  0.
         13    1    3    3    0    0  0.79638859402E+00 -0.17965676262E+01 -0.39838367699E+03  0.39838852390E+03  0.00000000000E+00 0.  1.
          1    1    3    3  501    0  0.90609250538E+01  0.50678446778E+01 -0.56496306877E+03  0.56505845050E+03  0.00000000000E+00 0.  1.
         -3    1    1    2    0  502 -0.98573136478E+01 -0.32712770515E+01 -0.35866400627E+02  0.37339879216E+02  0.00000000000E+00 0. -1.
<mgrwt>
<rscale>  1 0.30000000E+03</rscale>
<asrwt>0</asrwt>
<pdfrwt beam="1">  1       21 0.28612919E-02 0.30000000E+03</pdfrwt>
<pdfrwt beam="2">0</pdfrwt>
<totfact> 0.73587839E+04</totfact>
</mgrwt>
</event>
<event>
 6    1  0.1132867E-002  0.3000000E+03  0.7818608E-02  0.1093470E+00
         21   -1    0    0  501  502  0.00000000000E+00  0.00000000000E+00  0.57480512499E+00  0.57480512499E+00  0.00000000000E+00 0. -1.
         13   -1    0    0    0    0 -0.00000000000E+00 -0.00000000000E+00 -0.10000000000E+04  0.10000000000E+04  0.00000000000E+00 0.  1.
    9000005    2    1    2  501    0  0.14596419527E+02 -0.60078049733E+00 -0.78323108880E+03  0.78388768529E+03  0.28557806086E+02 0.  0.
         13    1    3    3    0    0  0.48998988078E+01 -0.11773735666E+02 -0.16979151993E+03  0.17026975685E+03  0.00000000000E+00 0.  1.
          1    1    3    3  501    0  0.96965207191E+01  0.11172955168E+02 -0.61343956887E+03  0.61361792843E+03  0.00000000000E+00 0.  1.
         -1    1    1    2    0  502 -0.14596419527E+02  0.60078049733E+00 -0.21619410608E+03  0.21668711984E+03  0.00000000000E+00 0. -1.
<mgrwt>
<rscale>  1 0.30000000E+03</rscale>
<asrwt>0</asrwt>
<pdfrwt beam="1">  1       21 0.20902049E-02 0.30000000E+03</pdfrwt>
<pdfrwt beam="2">0</pdfrwt>
<totfact> 0.12335422E+05</totfact>
</mgrwt>
</event>
<event>
 6    1  0.1132867E-002  0.3000000E+03  0.7818608E-02  0.1093470E+00
         21   -1    0    0  501  502  0.00000000000E+00  0.00000000000E+00  0.41149159393E+00  0.41149159393E+00  0.00000000000E+00 0. -1.
         13   -1    0    0    0    0 -0.00000000000E+00 -0.00000000000E+00 -0.10000000000E+04  0.10000000000E+04  0.00000000000E+00 0.  1.
    9000005    2    1    2  501    0  0.67890479089E+01 -0.10524799191E+02 -0.84642645670E+03  0.84673821268E+03  0.19261143278E+02 0.  0.
         13    1    3    3    0    0  0.48081193869E+01 -0.69147165930E+01 -0.81495292958E+03  0.81499644707E+03  0.00000000000E+00 0.  1.
          3    1    3    3  501    0  0.19809285220E+01 -0.36100825977E+01 -0.31473527126E+02  0.31741765608E+02  0.00000000000E+00 0.  1.
         -3    1    1    2    0  502 -0.67890479089E+01  0.10524799191E+02 -0.15316205170E+03  0.15367327891E+03  0.00000000000E+00 0. -1.
<mgrwt>
<rscale>  1 0.30000000E+03</rscale>
<asrwt>0</asrwt>
<pdfrwt beam="1">  1       21 0.14963362E-02 0.30000000E+03</pdfrwt>
<pdfrwt beam="2">0</pdfrwt>
<totfact> 0.21213704E+05</totfact>
</mgrwt>
</event>
<event>
 6    1  0.1132867E-002  0.3000000E+03  0.7818608E-02  0.1093470E+00
         21   -1    0    0  501  502  0.00000000000E+00  0.00000000000E+00  0.16319401239E+00  0.16319401239E+00  0.00000000000E+00 0.  1.
         13   -1    0    0    0    0 -0.00000000000E+00 -0.00000000000E+00 -0.10000000000E+04  0.10000000000E+04  0.00000000000E+00 0.  1.
    9000005    2    1    2  501    0  0.93445142376E+01  0.46518259340E+01 -0.28120352350E+03  0.28145410535E+03  0.56597135251E+01 0.  0.
         13    1    3    3    0    0  0.80604664173E+01  0.12712411370E+01 -0.17732225957E+03  0.17750991778E+03  0.00000000000E+00 0.  1.
          1    1    3    3  501    0  0.12840478203E+01  0.33805847970E+01 -0.10388126393E+03  0.10394418756E+03  0.00000000000E+00 0.  1.
         -1    1    1    2    0  502 -0.93445142376E+01 -0.46518259340E+01 -0.71863328249E+03  0.71870908866E+03  0.00000000000E+00 0. -1.
<mgrwt>
<rscale>  1 0.30000000E+03</rscale>
<asrwt>0</asrwt>
<pdfrwt beam="1">  1       21 0.59343402E-03 0.30000000E+03</pdfrwt>
<pdfrwt beam="2">0</pdfrwt>
<totfact> 0.91847161E+05</totfact>
</mgrwt>
</event>
<event>
 6    1  0.1132867E-002  0.3000000E+03  0.7818608E-02  0.1093470E+00
         21   -1    0    0  501  502  0.00000000000E+00  0.00000000000E+00  0.14169657633E+01  0.14169657633E+01  0.00000000000E+00 0. -1.
         13   -1    0    0    0    0 -0.00000000000E+00 -0.00000000000E+00 -0.10000000000E+04  0.10000000000E+04  0.00000000000E+00 0.  1.
    9000005    2    1    2  501    0  0.17238372133E+02 -0.18161028336E+02 -0.86446257779E+03  0.86497913648E+03  0.16320959226E+02 0.  0.
         13    1    3    3    0    0  0.13731288588E+02 -0.17752404066E+02 -0.50419593323E+03  0.50469519041E+03  0.00000000000E+00 0.  1.
          1    1    3    3  501    0  0.35070835451E+01 -0.40862427028E+00 -0.36026664457E+03  0.36028394607E+03  0.00000000000E+00 0.  1.
         -1    1    1    2    0  502 -0.17238372133E+02  0.18161028336E+02 -0.13412045644E+03  0.13643782929E+03  0.00000000000E+00 0. -1.
<mgrwt>
<rscale>  1 0.30000000E+03</rscale>
<asrwt>0</asrwt>
<pdfrwt beam="1">  1       21 0.51526136E-02 0.30000000E+03</pdfrwt>
<pdfrwt beam="2">0</pdfrwt>
<totfact> 0.27364394E+04</totfact>
</mgrwt>
</event>
<event>
 6    1  0.1132867E-002  0.3000000E+03  0.7818608E-02  0.1093470E+00
         21   -1    0    0  501  502  0.00000000000E+00  0.00000000000E+00  0.17657854687E+00  0.17657854687E+00  0.00000000000E+00 0. -1.
         13   -1    0    0    0    0 -0.00000000000E+00 -0.00000000000E+00 -0.10000000000E+04  0.10000000000E+04  0.00000000000E+00 0.  1.
    9000005    2    1    2  501    0 -0.37058898701E+01 -0.80736674480E+01 -0.60395820210E+03  0.60421169422E+03  0.15077925043E+02 0.  0.
         13    1    3    3    0    0  0.58189139294E+01 -0.32139866513E+01 -0.27245325725E+03  0.27253434069E+03  0.00000000000E+00 0.  1.
          3    1    3    3  501    0 -0.95248037995E+01 -0.48596807967E+01 -0.33150494485E+03  0.33167735353E+03  0.00000000000E+00 0.  1.
         -1    1    1    2    0  502  0.37058898701E+01  0.80736674480E+01 -0.39586521936E+03  0.39596488433E+03  0.00000000000E+00 0. -1.
<mgrwt>
<rscale>  1 0.30000000E+03</rscale>
<asrwt>0</asrwt>
<pdfrwt beam="1">  1       21 0.64210516E-03 0.30000000E+03</pdfrwt>
<pdfrwt beam="2">0</pdfrwt>
<totfact> 0.81202177E+05</totfact>
</mgrwt>
</event>
<event>
 6    1  0.1132867E-002  0.3000000E+03  0.7818608E-02  0.1093470E+00
         21   -1    0    0  501  502  0.00000000000E+00  0.00000000000E+00  0.18307755010E+00  0.18307755010E+00  0.00000000000E+00 0. -1.
         13   -1    0    0    0    0 -0.00000000000E+00 -0.00000000000E+00 -0.10000000000E+04  0.10000000000E+04  0.00000000000E+00 0.  1.
    9000005    2    1    2  501    0 -0.12049997141E+02  0.92035892379E+00 -0.45248818761E+03  0.45272093870E+03  0.80398333447E+01 0.  0.
         13    1    3    3    0    0 -0.44030369407E+01  0.40590972607E+01 -0.14922024543E+03  0.14934036511E+03  0.00000000000E+00 0.  1.
          3    1    3    3  501    0 -0.76469602000E+01 -0.31387383369E+01 -0.30326794218E+03  0.30338057359E+03  0.00000000000E+00 0.  1.
         -3    1    1    2    0  502  0.12049997141E+02 -0.92035892379E+00 -0.54732873484E+03  0.54746213885E+03  0.00000000000E+00 0. -1.
<mgrwt>
<rscale>  1 0.30000000E+03</rscale>
<asrwt>0</asrwt>
<pdfrwt beam="1">  1       21 0.66573795E-03 0.30000000E+03</pdfrwt>
<pdfrwt beam="2">0</pdfrwt>
<totfact> 0.76735643E+05</totfact>
</mgrwt>
</event>
<event>
 6    1  0.1132867E-002  0.3000000E+03  0.7818608E-02  0.1093470E+00
         21   -1    0    0  501  502  0.00000000000E+00  0.00000000000E+00  0.97814089994E-01  0.97814089994E-01  0.00000000000E+00 0. -1.
         13   -1    0    0    0    0 -0.00000000000E+00 -0.00000000000E+00 -0.10000000000E+04  0.10000000000E+04  0.00000000000E+00 0.  1.
    9000005    2    1    2  501    0 -0.86971182708E+01  0.29529040705E+01 -0.52305433856E+03  0.52316151957E+03  0.52701957361E+01 0.  0.
         13    1    3    3    0    0  0.56358129490E+00  0.48297763300E+00 -0.16705939061E+02  0.16722418819E+02  0.00000000000E+00 0.  1.
          3    1    3    3  501    0 -0.92606995657E+01  0.24699264375E+01 -0.50634839950E+03  0.50643910075E+03  0.00000000000E+00 0.  1.
         -1    1    1    2    0  502  0.86971182708E+01 -0.29529040705E+01 -0.47684784735E+03  0.47693629452E+03  0.00000000000E+00 0. -1.
<mgrwt>
<rscale>  1 0.30000000E+03</rscale>
<asrwt>0</asrwt>
<pdfrwt beam="1">  1       21 0.35568835E-03 0.30000000E+03</pdfrwt>
<pdfrwt beam="2">0</pdfrwt>
<totfact> 0.20292787E+06</totfact>
</mgrwt>
</event>
<event>
 6    1  0.1132867E-002  0.3000000E+03  0.7818608E-02  0.1093470E+00
         21   -1    0    0  501  502  0.00000000000E+00  0.00000000000E+00  0.60276348682E+00  0.60276348682E+00  0.00000000000E+00 0. -1.
         13   -1    0    0    0    0 -0.00000000000E+00 -0.00000000000E+00 -0.10000000000E+04  0.10000000000E+04  0.00000000000E+00 0.  1.
    9000005    2    1    2  501    0 -0.40443002392E+00  0.16137520006E+02 -0.87449331618E+03  0.87466002876E+03  0.55698073007E+01 0.  0.
         13    1    3    3    0    0 -0.23226648521E+00  0.30136199045E+00 -0.11960227404E+03  0.11960287924E+03  0.00000000000E+00 0.  1.
          1    1    3    3  501    0 -0.17216353871E+00  0.15836158015E+02 -0.75489104214E+03  0.75505714952E+03  0.00000000000E+00 0.  1.
         -1    1    1    2    0  502  0.40443002392E+00 -0.16137520006E+02 -0.12490392033E+03  0.12594273472E+03  0.00000000000E+00 0. -1.
<mgrwt>
<rscale>  1 0.30000000E+03</rscale>
<asrwt>0</asrwt>
<pdfrwt beam="1">  1       21 0.21918718E-02 0.30000000E+03</pdfrwt>
<pdfrwt beam="2">0</pdfrwt>
<totfact> 0.11413152E+05</totfact>
</mgrwt>
</event>
<event>
 6    1  0.1132867E-002  0.3000000E+03  0.7818608E-02  0.1093470E+00
         21   -1    0    0  501  502  0.00000000000E+00  0.00000000000E+00  0.17767157735E+00  0.17767157735E+00  0.00000000000E+00 0. -1.
         13   -1    0    0    0    0 -0.00000000000E+00 -0.00000000000E+00 -0.10000000000E+04  0.10000000000E+04  0.00000000000E+00 0.  1.
    9000005    2    1    2  501    0 -0.18697538538E+01 -0.10173863621E+02 -0.68167897430E+03  0.68186619322E+03  0.12176944431E+02 0.  0.
         13    1    3    3    0    0  0.10554965439E+00 -0.33777795224E+01 -0.38434388893E+02  0.38582674672E+02  0.00000000000E+00 0.  1.
          3    1    3    3  501    0 -0.19753035082E+01 -0.67960840989E+01 -0.64324458541E+03  0.64328351855E+03  0.00000000000E+00 0.  1.
         -3    1    1    2    0  502  0.18697538538E+01  0.10173863621E+02 -0.31814335412E+03  0.31831147835E+03  0.00000000000E+00 0. -1.
<mgrwt>
<rscale>  1 0.30000000E+03</rscale>
<asrwt>0</asrwt>
<pdfrwt beam="1">  1       21 0.64607983E-03 0.30000000E+03</pdfrwt>
<pdfrwt beam="2">0</pdfrwt>
<totfact> 0.80421816E+05</totfact>
</mgrwt>
</event>
<event>
 6    1  0.1132867E-002  0.3000000E+03  0.7818608E-02  0.1093470E+00
         21   -1    0    0  501  502  0.00000000000E+00  0.00000000000E+00  0.38426500408E+00  0.38426500408E+00  0.00000000000E+00 0. -1.
         13   -1    0    0    0    0 -0.00000000000E+00 -0.00000000000E+00 -0.10000000000E+04  0.10000000000E+04  0.00000000000E+00 0.  1.
    9000005    2    1    2  501    0  0.12686753827E+02  0.38447784284E+01 -0.82702406041E+03  0.82728422982E+03  0.15958206995E+02 0.  0.
         13    1    3    3    0    0 -0.32547085170E+01  0.30489315114E+01 -0.12715237221E+03  0.12723055793E+03  0.00000000000E+00 0.  1.
          3    1    3    3  501    0  0.15941462344E+02  0.79584691700E+00 -0.69987168819E+03  0.70005367189E+03  0.00000000000E+00 0.  1.
         -1    1    1    2    0  502 -0.12686753827E+02 -0.38447784284E+01 -0.17259167459E+03  0.17310003518E+03  0.00000000000E+00 0. -1.
<mgrwt>
<rscale>  1 0.30000000E+03</rscale>
<asrwt>0</asrwt>
<pdfrwt beam="1">  1       21 0.13973302E-02 0.30000000E+03</pdfrwt>
<pdfrwt beam="2">0</pdfrwt>
<totfact> 0.23683112E+05</totfact>
</mgrwt>
</event>
<event>
 6    1  0.1132867E-002  0.3000000E+03  0.7818608E-02  0.1093470E+00
         21   -1    0    0  501  502  0.00000000000E+00  0.00000000000E+00  0.22474091286E+00  0.22474091286E+00  0.00000000000E+00 0. -1.
         13   -1    0    0    0    0 -0.00000000000E+00 -0.00000000000E+00 -0.10000000000E+04  0.10000000000E+04  0.00000000000E+00 0.  1.
    9000005    2    1    2  501    0  0.11529060648E+02  0.51885476093E+01 -0.74130179013E+03  0.74144225615E+03  0.69595177999E+01 0.  0.
         13    1    3    3    0    0  0.72863653012E+01  0.50486469935E+01 -0.33156685211E+03  0.33168532885E+03  0.00000000000E+00 0.  1.
          1    1    3    3  501    0  0.42426953463E+01  0.13990061581E+00 -0.40973493802E+03  0.40975692730E+03  0.00000000000E+00 0.  1.
         -1    1    1    2    0  502 -0.11529060648E+02 -0.51885476093E+01 -0.25847346896E+03  0.25878248477E+03  0.00000000000E+00 0. -1.
<mgrwt>
<rscale>  1 0.30000000E+03</rscale>
<asrwt>0</asrwt>
<pdfrwt beam="1">  1       21 0.81724141E-03 0.30000000E+03</pdfrwt>
<pdfrwt beam="2">0</pdfrwt>
<totfact> 0.55603964E+05</totfact>
</mgrwt>
</event>
<event>
 6    1  0.1132867E-002  0.3000000E+03  0.7818608E-02  0.1093470E+00
         21   -1    0    0  501  502  0.00000000000E+00  0.00000000000E+00  0.84531552891E-01  0.84531552891E-01  0.00000000000E+00 0. -1.
         13   -1    0    0    0    0 -0.00000000000E+00 -0.00000000000E+00 -0.10000000000E+04  0.10000000000E+04  0.00000000000E+00 0.  1.
    9000005    2    1    2  501    0  0.14309175756E+01 -0.78857201771E+01 -0.65922888333E+03  0.65930369086E+03  0.58654966578E+01 0.  0.
         13    1    3    3    0    0  0.10865314842E+00 -0.49914210901E+00 -0.28054625235E+03  0.28054671742E+03  0.00000000000E+00 0.  1.
          3    1    3    3  501    0  0.13222644272E+01 -0.73865780681E+01 -0.37868263098E+03  0.37875697344E+03  0.00000000000E+00 0.  1.
         -3    1    1    2    0  502 -0.14309175756E+01  0.78857201771E+01 -0.34068658511E+03  0.34078084070E+03  0.00000000000E+00 0. -1.
<mgrwt>
<rscale>  1 0.30000000E+03</rscale>
<asrwt>0</asrwt>
<pdfrwt beam="1">  1       21 0.30738811E-03 0.30000000E+03</pdfrwt>
<pdfrwt beam="2">0</pdfrwt>
<totfact> 0.25386279E+06</totfact>
</mgrwt>
</event>
<event>
 6    1  0.1132867E-002  0.3000000E+03  0.7818608E-02  0.1093470E+00
         21   -1    0    0  501  502  0.00000000000E+00  0.00000000000E+00  0.49300746717E+00  0.49300746717E+00  0.00000000000E+00 0. -1.
         13   -1    0    0    0    0 -0.00000000000E+00 -0.00000000000E+00 -0.10000000000E+04  0.10000000000E+04  0.00000000000E+00 0.  1.
    9000005    2    1    2  501    0 -0.29365939993E+01 -0.16309064953E+02 -0.77805732328E+03  0.77842417760E+03  0.17216061894E+02 0.  0.
         13    1    3    3    0    0  0.63013656882E+01 -0.15767507754E+01 -0.22222320282E+03  0.22231811718E+03  0.00000000000E+00 0.  1.
          3    1    3    3  501    0 -0.92379596876E+01 -0.14732314178E+02 -0.55583412045E+03  0.55610606043E+03  0.00000000000E+00 0.  1.
         -3    1    1    2    0  502  0.29365939993E+01  0.16309064953E+02 -0.22144966926E+03  0.22206882987E+03  0.00000000000E+00 0. -1.
<mgrwt>
<rscale>  1 0.30000000E+03</rscale>
<asrwt>0</asrwt>
<pdfrwt beam="1">  1       21 0.17927582E-02 0.30000000E+03</pdfrwt>
<pdfrwt beam="2">0</pdfrwt>
<totfact> 0.15837217E+05</totfact>
</mgrwt>
</event>
<event>
 6    1  0.1132867E-002  0.3000000E+03  0.7818608E-02  0.1093470E+00
         21   -1    0    0  501  502  0.00000000000E+00  0.00000000000E+00  0.99819184699E+00  0.99819184699E+00  0.00000000000E+00 0. -1.
         13   -1    0    0    0    0 -0.00000000000E+00 -0.00000000000E+00 -0.10000000000E+04  0.10000000000E+04  0.00000000000E+00 0.  1.
    9000005    2    1    2  501    0  0.89555297291E+01 -0.65081562632E+01 -0.96711106770E+03  0.96724057142E+03  0.11311415029E+02 0.  0.
         13    1    3    3    0    0  0.49305578035E+01 -0.48390889383E+01 -0.20378651727E+03  0.20390358458E+03  0.00000000000E+00 0.  1.
          3    1    3    3  501    0  0.40249719256E+01 -0.16690673249E+01 -0.76332455043E+03  0.76333698684E+03  0.00000000000E+00 0.  1.
         -1    1    1    2    0  502 -0.89555297291E+01  0.65081562632E+01 -0.31890740451E+02  0.33757620431E+02  0.00000000000E+00 0. -1.
<mgrwt>
<rscale>  1 0.30000000E+03</rscale>
<asrwt>0</asrwt>
<pdfrwt beam="1">  1       21 0.36297962E-02 0.30000000E+03</pdfrwt>
<pdfrwt beam="2">0</pdfrwt>
<totfact> 0.49501239E+04</totfact>
</mgrwt>
</event>
<event>
 6    1  0.1132867E-002  0.3000000E+03  0.7818608E-02  0.1093470E+00
         21   -1    0    0  501  502  0.00000000000E+00  0.00000000000E+00  0.21343214261E+01  0.21343214261E+01  0.00000000000E+00 0. -1.
         13   -1    0    0    0    0 -0.00000000000E+00 -0.00000000000E+00 -0.10000000000E+04  0.10000000000E+04  0.00000000000E+00 0.  1.
    9000005    2    1    2  501    0  0.14073383420E+02  0.25428999429E+02 -0.87132070852E+03  0.87229471430E+03  0.29216388655E+02 0.  0.
         13    1    3    3    0    0  0.18327052551E+02  0.19410291401E+02 -0.38775516353E+03  0.38867300795E+03  0.00000000000E+00 0.  1.
          1    1    3    3  501    0 -0.42536691315E+01  0.60187080288E+01 -0.48356554499E+03  0.48362170635E+03  0.00000000000E+00 0.  1.
         -1    1    1    2    0  502 -0.14073383420E+02 -0.25428999429E+02 -0.12654497005E+03  0.12983960713E+03  0.00000000000E+00 0. -1.
<mgrwt>
<rscale>  1 0.30000000E+03</rscale>
<asrwt>0</asrwt>
<pdfrwt beam="1">  1       21 0.77611852E-02 0.30000000E+03</pdfrwt>
<pdfrwt beam="2">0</pdfrwt>
<totfact> 0.13471682E+04</totfact>
</mgrwt>
</event>
<event>
 6    1  0.1132867E-002  0.3000000E+03  0.7818608E-02  0.1093470E+00
         21   -1    0    0  501  502  0.00000000000E+00  0.00000000000E+00  0.32717537319E+00  0.32717537319E+00  0.00000000000E+00 0. -1.
         13   -1    0    0    0    0 -0.00000000000E+00 -0.00000000000E+00 -0.10000000000E+04  0.10000000000E+04  0.00000000000E+00 0.  1.
    9000005    2    1    2  501    0  0.10594384255E+02  0.41595281409E+01 -0.16292646411E+03  0.16350340988E+03  0.76674430988E+01 0.  0.
         13    1    3    3    0    0  0.43826399027E+01  0.49534708446E+01 -0.55152307445E+02  0.55547469991E+02  0.00000000000E+00 0.  1.
          3    1    3    3  501    0  0.62117443525E+01 -0.79394270366E+00 -0.10777415666E+03  0.10795593989E+03  0.00000000000E+00 0.  1.
         -1    1    1    2    0  502 -0.10594384255E+02 -0.41595281409E+01 -0.83674636052E+03  0.83682376549E+03  0.00000000000E+00 0. -1.
<mgrwt>
<rscale>  1 0.30000000E+03</rscale>
<asrwt>0</asrwt>
<pdfrwt beam="1">  1       21 0.11897311E-02 0.30000000E+03</pdfrwt>
<pdfrwt beam="2">0</pdfrwt>
<totfact> 0.30644471E+05</totfact>
</mgrwt>
</event>
<event>
 6    1  0.1132867E-002  0.3000000E+03  0.7818608E-02  0.1093470E+00
         21   -1    0    0  501  502  0.00000000000E+00  0.00000000000E+00  0.17646284276E+00  0.17646284276E+00  0.00000000000E+00 0. -1.
         13   -1    0    0    0    0 -0.00000000000E+00 -0.00000000000E+00 -0.10000000000E+04  0.10000000000E+04  0.00000000000E+00 0.  1.
    9000005    2    1    2  501    0 -0.68550647717E+01  0.78858256382E+01 -0.75957581840E+03  0.75970163147E+03  0.90535512710E+01 0.  0.
         13    1    3    3    0    0 -0.89901118816E+01  0.56266084286E+01 -0.54365196430E+03  0.54375540376E+03  0.00000000000E+00 0.  1.
          3    1    3    3  501    0  0.21350471099E+01  0.22592172096E+01 -0.21592385410E+03  0.21594622770E+03  0.00000000000E+00 0.  1.
         -1    1    1    2    0  502  0.68550647717E+01 -0.78858256382E+01 -0.24024771875E+03  0.24047483138E+03  0.00000000000E+00 0. -1.
<mgrwt>
<rscale>  1 0.30000000E+03</rscale>
<asrwt>0</asrwt>
<pdfrwt beam="1">  1       21 0.64168442E-03 0.30000000E+03</pdfrwt>
<pdfrwt beam="2">0</pdfrwt>
<totfact> 0.81285504E+05</totfact>
</mgrwt>
</event>
<event>
 6    1  0.1132867E-002  0.3000000E+03  0.7818608E-02  0.1093470E+00
         21   -1    0    0  501  502  0.00000000000E+00  0.00000000000E+00  0.78215787476E-01  0.78215787476E-01  0.00000000000E+00 0. -1.
         13   -1    0    0    0    0 -0.00000000000E+00 -0.00000000000E+00 -0.10000000000E+04  0.10000000000E+04  0.00000000000E+00 0.  1.
    9000005    2    1    2  501    0  0.80333282570E+01  0.11012398885E+01 -0.54466499755E+03  0.54474922605E+03  0.51002583090E+01 0.  0.
         13    1    3    3    0    0  0.44754400280E+01  0.31126345800E+01 -0.33575617843E+03  0.33580043093E+03  0.00000000000E+00 0.  1.
          3    1    3    3  501    0  0.35578882290E+01 -0.20113946915E+01 -0.20890881912E+03  0.20894879512E+03  0.00000000000E+00 0.  1.
         -1    1    1    2    0  502 -0.80333282570E+01 -0.11012398885E+01 -0.45525678666E+03  0.45532898974E+03  0.00000000000E+00 0. -1.
<mgrwt>
<rscale>  1 0.30000000E+03</rscale>
<asrwt>0</asrwt>
<pdfrwt beam="1">  1       21 0.28442165E-03 0.30000000E+03</pdfrwt>
<pdfrwt beam="2">0</pdfrwt>
<totfact> 0.28590616E+06</totfact>
</mgrwt>
</event>
<event>
 6    1  0.1132867E-002  0.3000000E+03  0.7818608E-02  0.1093470E+00
         21   -1    0    0  501  502  0.00000000000E+00  0.00000000000E+00  0.12830160600E+00  0.12830160600E+00  0.00000000000E+00 0. -1.
         13   -1    0    0    0    0 -0.00000000000E+00 -0.00000000000E+00 -0.10000000000E+04  0.10000000000E+04  0.00000000000E+00 0.  1.
    9000005    2    1    2  501    0 -0.66382649399E+01  0.63637196807E+01 -0.77157800606E+03  0.77164947665E+03  0.50726623457E+01 0.  0.
         13    1    3    3    0    0 -0.53134235600E+01  0.30021581352E+01 -0.61268196610E+03  0.61271236074E+03  0.00000000000E+00 0.  1.
          1    1    3    3  501    0 -0.13248413799E+01  0.33615615455E+01 -0.15889603996E+03  0.15893711591E+03  0.00000000000E+00 0.  1.
         -1    1    1    2    0  502  0.66382649399E+01 -0.63637196807E+01 -0.22829369234E+03  0.22847882495E+03  0.00000000000E+00 0. -1.
<mgrwt>
<rscale>  1 0.30000000E+03</rscale>
<asrwt>0</asrwt>
<pdfrwt beam="1">  1       21 0.46655228E-03 0.30000000E+03</pdfrwt>
<pdfrwt beam="2">0</pdfrwt>
<totfact> 0.13350190E+06</totfact>
</mgrwt>
</event>
<event>
 6    1  0.1132867E-002  0.3000000E+03  0.7818608E-02  0.1093470E+00
         21   -1    0    0  501  502  0.00000000000E+00  0.00000000000E+00  0.11510097349E+00  0.11510097349E+00  0.00000000000E+00 0. -1.
         13   -1    0    0    0    0 -0.00000000000E+00 -0.00000000000E+00 -0.10000000000E+04  0.10000000000E+04  0.00000000000E+00 0.  1.
    9000005    2    1    2  501    0 -0.86896985220E+01 -0.18196954578E+01 -0.70001903485E+03  0.70011783657E+03  0.77145173210E+01 0.  0.
         13    1    3    3    0    0 -0.15996363735E+01 -0.23115104063E+01 -0.67045895913E+02  0.67104799200E+02  0.00000000000E+00 0.  1.
          3    1    3    3  501    0 -0.70900621485E+01  0.49181494844E+00 -0.63297313894E+03  0.63301303737E+03  0.00000000000E+00 0.  1.
         -1    1    1    2    0  502  0.86896985220E+01  0.18196954578E+01 -0.29986586417E+03  0.29999726440E+03  0.00000000000E+00 0. -1.
<mgrwt>
<rscale>  1 0.30000000E+03</rscale>
<asrwt>0</asrwt>
<pdfrwt beam="1">  1       21 0.41854988E-03 0.30000000E+03</pdfrwt>
<pdfrwt beam="2">0</pdfrwt>
<totfact> 0.15790901E+06</totfact>
</mgrwt>
</event>
<event>
 6    1  0.1132867E-002  0.3000000E+03  0.7818608E-02  0.1093470E+00
         21   -1    0    0  501  502  0.00000000000E+00  0.00000000000E+00  0.80877118265E-01  0.80877118265E-01  0.00000000000E+00 0. -1.
         13   -1    0    0    0    0 -0.00000000000E+00 -0.00000000000E+00 -0.10000000000E+04  0.10000000000E+04  0.00000000000E+00 0.  1.
    9000005    2    1    2  501    0  0.12969257649E+01 -0.78938192720E+01 -0.62944119450E+03  0.62951659144E+03  0.55612202570E+01 0.  0.
         13    1    3    3    0    0 -0.18288279573E+01 -0.14644813064E+01 -0.22521380103E+03  0.22522598761E+03  0.00000000000E+00 0.  1.
          1    1    3    3  501    0  0.31257537221E+01 -0.64293379656E+01 -0.40422739347E+03  0.40429060384E+03  0.00000000000E+00 0.  1.
         -3    1    1    2    0  502 -0.12969257649E+01  0.78938192720E+01 -0.37047792838E+03  0.37056428567E+03  0.00000000000E+00 0. -1.
<mgrwt>
<rscale>  1 0.30000000E+03</rscale>
<asrwt>0</asrwt>
<pdfrwt beam="1">  1       21 0.29409923E-03 0.30000000E+03</pdfrwt>
<pdfrwt beam="2">0</pdfrwt>
<totfact> 0.27164146E+06</totfact>
</mgrwt>
</event>
<event>
 6    1  0.1132867E-002  0.3000000E+03  0.7818608E-02  0.1093470E+00
         21   -1    0    0  501  502  0.00000000000E+00  0.00000000000E+00  0.70429087914E-01  0.70429087914E-01  0.00000000000E+00 0. -1.
         13   -1    0    0    0    0 -0.00000000000E+00 -0.00000000000E+00 -0.10000000000E+04  0.10000000000E+04  0.00000000000E+00 0.  1.
    9000005    2    1    2  501    0 -0.24397889965E+01  0.67980014729E+01 -0.58151443408E+03  0.58159296001E+03  0.62584900097E+01 0.  0.
         13    1    3    3    0    0 -0.20588784643E+01  0.78416603950E+01 -0.54832886699E+03  0.54838880094E+03  0.00000000000E+00 0.  1.
          1    1    3    3  501    0 -0.38091053225E+00 -0.10436589221E+01 -0.33185567094E+02  0.33204159079E+02  0.00000000000E+00 0.  1.
         -3    1    1    2    0  502  0.24397889965E+01 -0.67980014729E+01 -0.41841513683E+03  0.41847746907E+03  0.00000000000E+00 0. -1.
<mgrwt>
<rscale>  1 0.30000000E+03</rscale>
<asrwt>0</asrwt>
<pdfrwt beam="1">  1       21 0.25610631E-03 0.30000000E+03</pdfrwt>
<pdfrwt beam="2">0</pdfrwt>
<totfact> 0.33553450E+06</totfact>
</mgrwt>
</event>
<event>
 6    1  0.1132867E-002  0.3000000E+03  0.7818608E-02  0.1093470E+00
         21   -1    0    0  501  502  0.00000000000E+00  0.00000000000E+00  0.43359763415E+00  0.43359763415E+00  0.00000000000E+00 0. -1.
         13   -1    0    0    0    0 -0.00000000000E+00 -0.00000000000E+00 -0.10000000000E+04  0.10000000000E+04  0.00000000000E+00 0.  1.
    9000005    2    1    2  501    0 -0.13951972799E+02 -0.65031006084E+01 -0.82880210816E+03  0.82897692078E+03  0.72699953012E+01 0.  0.
         13    1    3    3    0    0 -0.22384837861E+01 -0.44461195786E+01 -0.29824709918E+03  0.29828863699E+03  0.00000000000E+00 0.  1.
          3    1    3    3  501    0 -0.11713489013E+02 -0.20569810299E+01 -0.53055500899E+03  0.53068828379E+03  0.00000000000E+00 0.  1.
         -3    1    1    2    0  502  0.13951972799E+02  0.65031006084E+01 -0.17076429420E+03  0.17145667685E+03  0.00000000000E+00 0. -1.
<mgrwt>
<rscale>  1 0.30000000E+03</rscale>
<asrwt>0</asrwt>
<pdfrwt beam="1">  1       21 0.15767220E-02 0.30000000E+03</pdfrwt>
<pdfrwt beam="2">0</pdfrwt>
<totfact> 0.19497412E+05</totfact>
</mgrwt>
</event>
<event>
 6    1  0.1132867E-002  0.3000000E+03  0.7818608E-02  0.1093470E+00
         21   -1    0    0  501  502  0.00000000000E+00  0.00000000000E+00  0.16526257488E+00  0.16526257488E+00  0.00000000000E+00 0. -1.
         13   -1    0    0    0    0 -0.00000000000E+00 -0.00000000000E+00 -0.10000000000E+04  0.10000000000E+04  0.00000000000E+00 0.  1.
    9000005    2    1    2  501    0  0.10033224858E+02  0.79846695918E+00 -0.76339018663E+03  0.76350658694E+03  0.87423174126E+01 0.  0.
         13    1    3    3    0    0  0.31367214771E+01  0.30306876339E+01 -0.49287367391E+03  0.49289297268E+03  0.00000000000E+00 0.  1.
          3    1    3    3  501    0  0.68965033809E+01 -0.22322206748E+01 -0.27051651272E+03  0.27061361426E+03  0.00000000000E+00 0.  1.
         -3    1    1    2    0  502 -0.10033224858E+02 -0.79846695918E+00 -0.23644455080E+03  0.23665867563E+03  0.00000000000E+00 0. -1.
<mgrwt>
<rscale>  1 0.30000000E+03</rscale>
<asrwt>0</asrwt>
<pdfrwt beam="1">  1       21 0.60095608E-03 0.30000000E+03</pdfrwt>
<pdfrwt beam="2">0</pdfrwt>
<totfact> 0.90059408E+05</totfact>
</mgrwt>
</event>
<event>
 6    1  0.1132867E-002  0.3000000E+03  0.7818608E-02  0.1093470E+00
         21   -1    0    0  501  502  0.00000000000E+00  0.00000000000E+00  0.90880310544E-01  0.90880310544E-01  0.00000000000E+00 0. -1.
         13   -1    0    0    0    0 -0.00000000000E+00 -0.00000000000E+00 -0.10000000000E+04  0.10000000000E+04  0.00000000000E+00 0.  1.
    9000005    2    1    2  501    0 -0.68765390036E+01 -0.41705794521E+01 -0.68211267108E+03  0.68219268391E+03  0.66694392595E+01 0.  0.
         13    1    3    3    0    0 -0.15979917165E+01 -0.28831937398E+01 -0.99324252160E+02  0.99378938668E+02  0.00000000000E+00 0.  1.
          3    1    3    3  501    0 -0.52785472871E+01 -0.12873857124E+01 -0.58278841892E+03  0.58281374525E+03  0.00000000000E+00 0.  1.
         -1    1    1    2    0  502  0.68765390036E+01  0.41705794521E+01 -0.31779644861E+03  0.31789819640E+03  0.00000000000E+00 0. -1.
<mgrwt>
<rscale>  1 0.30000000E+03</rscale>
<asrwt>0</asrwt>
<pdfrwt beam="1">  1       21 0.33047455E-03 0.30000000E+03</pdfrwt>
<pdfrwt beam="2">0</pdfrwt>
<totfact> 0.22718485E+06</totfact>
</mgrwt>
</event>
<event>
 6    1  0.1132867E-002  0.3000000E+03  0.7818608E-02  0.1093470E+00
         21   -1    0    0  501  502  0.00000000000E+00  0.00000000000E+00  0.21395642687E+01  0.21395642687E+01  0.00000000000E+00 0. -1.
         13   -1    0    0    0    0 -0.00000000000E+00 -0.00000000000E+00 -0.10000000000E+04  0.10000000000E+04  0.00000000000E+00 0.  1.
    9000005    2    1    2  501    0  0.12544939260E+02  0.38629393929E+02 -0.45327645976E+03  0.45604313280E+03  0.29431011310E+02 0.  0.
         13    1    3    3    0    0  0.42886211303E+01  0.35712974424E+02 -0.42298109977E+03  0.42450773794E+03  0.00000000000E+00 0.  1.
          3    1    3    3  501    0  0.82563181293E+01  0.29164195053E+01 -0.30295359990E+02  0.31535394856E+02  0.00000000000E+00 0.  1.
         -1    1    1    2    0  502 -0.12544939260E+02 -0.38629393929E+02 -0.54458397597E+03  0.54609643147E+03  0.00000000000E+00 0. -1.
<mgrwt>
<rscale>  1 0.30000000E+03</rscale>
<asrwt>0</asrwt>
<pdfrwt beam="1">  1       21 0.77802501E-02 0.30000000E+03</pdfrwt>
<pdfrwt beam="2">0</pdfrwt>
<totfact> 0.13413842E+04</totfact>
</mgrwt>
</event>
<event>
 6    1  0.1132867E-002  0.3000000E+03  0.7818608E-02  0.1093470E+00
         21   -1    0    0  501  502  0.00000000000E+00  0.00000000000E+00  0.97439197724E-01  0.97439197724E-01  0.00000000000E+00 0. -1.
         13   -1    0    0    0    0 -0.00000000000E+00 -0.00000000000E+00 -0.10000000000E+04  0.10000000000E+04  0.00000000000E+00 0.  1.
    9000005    2    1    2  501    0 -0.44810143903E+01  0.57375605517E+01 -0.63944726004E+03  0.63956862906E+03  0.10111073886E+02 0.  0.
         13    1    3    3    0    0 -0.13953685577E+00 -0.17615931809E+01 -0.31709748214E+03  0.31710240596E+03  0.00000000000E+00 0.  1.
          3    1    3    3  501    0 -0.43414775346E+01  0.74991537326E+01 -0.32234977789E+03  0.32246622310E+03  0.00000000000E+00 0.  1.
         -1    1    1    2    0  502  0.44810143903E+01 -0.57375605517E+01 -0.36045530077E+03  0.36052881014E+03  0.00000000000E+00 0. -1.
<mgrwt>
<rscale>  1 0.30000000E+03</rscale>
<asrwt>0</asrwt>
<pdfrwt beam="1">  1       21 0.35432510E-03 0.30000000E+03</pdfrwt>
<pdfrwt beam="2">0</pdfrwt>
<totfact> 0.20412933E+06</totfact>
</mgrwt>
</event>
<event>
 6    1  0.1132867E-002  0.3000000E+03  0.7818608E-02  0.1093470E+00
         21   -1    0    0  501  502  0.00000000000E+00  0.00000000000E+00  0.34940269785E+00  0.34940269785E+00  0.00000000000E+00 0. -1.
         13   -1    0    0    0    0 -0.00000000000E+00 -0.00000000000E+00 -0.10000000000E+04  0.10000000000E+04  0.00000000000E+00 0.  1.
    9000005    2    1    2  501    0  0.16879793957E+01  0.14894074923E+02 -0.78892995179E+03  0.78909630050E+03  0.61497880099E+01 0.  0.
         13    1    3    3    0    0  0.10408810146E+01  0.15221608907E+02 -0.77209738262E+03  0.77224811367E+03  0.00000000000E+00 0.  1.
          1    1    3    3  501    0  0.64709838101E+00 -0.32753398426E+00 -0.16832569165E+02  0.16848186832E+02  0.00000000000E+00 0.  1.
         -3    1    1    2    0  502 -0.16879793957E+01 -0.14894074923E+02 -0.21072064551E+03  0.21125310220E+03  0.00000000000E+00 0. -1.
<mgrwt>
<rscale>  1 0.30000000E+03</rscale>
<asrwt>0</asrwt>
<pdfrwt beam="1">  1       21 0.12705579E-02 0.30000000E+03</pdfrwt>
<pdfrwt beam="2">0</pdfrwt>
<totfact> 0.27587661E+05</totfact>
</mgrwt>
</event>
<event>
 6    1  0.1132867E-002  0.3000000E+03  0.7818608E-02  0.1093470E+00
         21   -1    0    0  501  502  0.00000000000E+00  0.00000000000E+00  0.88469172607E+00  0.88469172607E+00  0.00000000000E+00 0. -1.
         13   -1    0    0    0    0 -0.00000000000E+00 -0.00000000000E+00 -0.10000000000E+04  0.10000000000E+04  0.00000000000E+00 0.  1.
    9000005    2    1    2  501    0 -0.10068032991E+02  0.80473010586E-01 -0.96460467011E+03  0.96493533970E+03  0.23166105636E+02 0.  0.
         13    1    3    3    0    0 -0.25451461470E+01 -0.11073377282E+02 -0.35334879982E+03  0.35353142970E+03  0.00000000000E+00 0.  1.
          1    1    3    3  501    0 -0.75228868444E+01  0.11153850293E+02 -0.61125587029E+03  0.61140391000E+03  0.00000000000E+00 0.  1.
         -1    1    1    2    0  502  0.10068032991E+02 -0.80473010586E-01 -0.34510638165E+02  0.35949352022E+02  0.00000000000E+00 0. -1.
<mgrwt>
<rscale>  1 0.30000000E+03</rscale>
<asrwt>0</asrwt>
<pdfrwt beam="1">  1       21 0.32170676E-02 0.30000000E+03</pdfrwt>
<pdfrwt beam="2">0</pdfrwt>
<totfact> 0.60569369E+04</totfact>
</mgrwt>
</event>
<event>
 6    1  0.1132867E-002  0.3000000E+03  0.7818608E-02  0.1093470E+00
         21   -1    0    0  501  502  0.00000000000E+00  0.00000000000E+00  0.26456520435E+00  0.26456520435E+00  0.00000000000E+00 0. -1.
         13   -1    0    0    0    0 -0.00000000000E+00 -0.00000000000E+00 -0.10000000000E+04  0.10000000000E+04  0.00000000000E+00 0.  1.
    9000005    2    1    2  501    0  0.58584915104E+01 -0.86336825187E+01 -0.87638012718E+03  0.87646878856E+03  0.68225814202E+01 0.  0.
         13    1    3    3    0    0  0.64305655595E+01 -0.39395243758E+01 -0.61092282437E+03  0.61096936859E+03  0.00000000000E+00 0.  1.
          3    1    3    3  501    0 -0.57207404908E+00 -0.46941581428E+01 -0.26545730281E+03  0.26549941997E+03  0.00000000000E+00 0.  1.
         -3    1    1    2    0  502 -0.58584915104E+01  0.86336825187E+01 -0.12335530762E+03  0.12379577664E+03  0.00000000000E+00 0. -1.
<mgrwt>
<rscale>  1 0.30000000E+03</rscale>
<asrwt>0</asrwt>
<pdfrwt beam="1">  1       21 0.96205732E-03 0.30000000E+03</pdfrwt>
<pdfrwt beam="2">0</pdfrwt>
<totfact> 0.42966383E+05</totfact>
</mgrwt>
</event>
<event>
 6    1  0.1132867E-002  0.3000000E+03  0.7818608E-02  0.1093470E+00
         21   -1    0    0  501  502  0.00000000000E+00  0.00000000000E+00  0.19032886165E+00  0.19032886165E+00  0.00000000000E+00 0. -1.
         13   -1    0    0    0    0 -0.00000000000E+00 -0.00000000000E+00 -0.10000000000E+04  0.10000000000E+04  0.00000000000E+00 0.  1.
    9000005    2    1    2  501    0  0.92075051857E+01  0.34933765082E+01 -0.84226155833E+03  0.84233473130E+03  0.51268984192E+01 0.  0.
         13    1    3    3    0    0  0.33015959217E+01  0.30431562515E+01 -0.22527956448E+03  0.22532430741E+03  0.00000000000E+00 0.  1.
          1    1    3    3  501    0  0.59059092641E+01  0.45022025671E+00 -0.61698199385E+03  0.61701042389E+03  0.00000000000E+00 0.  1.
         -3    1    1    2    0  502 -0.92075051857E+01 -0.34933765082E+01 -0.15754811281E+03  0.15785559756E+03  0.00000000000E+00 0. -1.
<mgrwt>
<rscale>  1 0.30000000E+03</rscale>
<asrwt>0</asrwt>
<pdfrwt beam="1">  1       21 0.69210641E-03 0.30000000E+03</pdfrwt>
<pdfrwt beam="2">0</pdfrwt>
<totfact> 0.72205385E+05</totfact>
</mgrwt>
</event>
<event>
 6    1  0.1132867E-002  0.3000000E+03  0.7818608E-02  0.1093470E+00
         21   -1    0    0  501  502  0.00000000000E+00  0.00000000000E+00  0.14253344655E+00  0.14253344655E+00  0.00000000000E+00 0. -1.
         13   -1    0    0    0    0 -0.00000000000E+00 -0.00000000000E+00 -0.10000000000E+04  0.10000000000E+04  0.00000000000E+00 0.  1.
    9000005    2    1    2  501    0 -0.40642613053E+01 -0.96852558973E+01 -0.51414946275E+03  0.51432097427E+03  0.81284762677E+01 0.  0.
         13    1    3    3    0    0 -0.34232582870E+01 -0.10736882216E+01 -0.26020151425E+03  0.26022624680E+03  0.00000000000E+00 0.  1.
          1    1    3    3  501    0 -0.64100301832E+00 -0.86115676757E+01 -0.25394794850E+03  0.25409472747E+03  0.00000000000E+00 0.  1.
         -1    1    1    2    0  502  0.40642613053E+01  0.96852558973E+01 -0.48570800380E+03  0.48582155918E+03  0.00000000000E+00 0. -1.
<mgrwt>
<rscale>  1 0.30000000E+03</rscale>
<asrwt>0</asrwt>
<pdfrwt beam="1">  1       21 0.51830453E-03 0.30000000E+03</pdfrwt>
<pdfrwt beam="2">0</pdfrwt>
<totfact> 0.11339168E+06</totfact>
</mgrwt>
</event>
<event>
 6    1  0.1132867E-002  0.3000000E+03  0.7818608E-02  0.1093470E+00
         21   -1    0    0  501  502  0.00000000000E+00  0.00000000000E+00  0.34875627291E+00  0.34875627291E+00  0.00000000000E+00 0. -1.
         13   -1    0    0    0    0 -0.00000000000E+00 -0.00000000000E+00 -0.10000000000E+04  0.10000000000E+04  0.00000000000E+00 0.  1.
    9000005    2    1    2  501    0 -0.10214380580E+02 -0.92801464980E+01 -0.48968085202E+03  0.49019166761E+03  0.17609073651E+02 0.  0.
         13    1    3    3    0    0 -0.10885038656E+02  0.62389450014E+00 -0.16542723340E+03  0.16578613591E+03  0.00000000000E+00 0.  1.
          3    1    3    3  501    0  0.67065807607E+00 -0.99040409982E+01 -0.32425361862E+03  0.32440553170E+03  0.00000000000E+00 0.  1.
         -1    1    1    2    0  502  0.10214380580E+02  0.92801464980E+01 -0.50997039171E+03  0.51015708866E+03  0.00000000000E+00 0. -1.
<mgrwt>
<rscale>  1 0.30000000E+03</rscale>
<asrwt>0</asrwt>
<pdfrwt beam="1">  1       21 0.12682073E-02 0.30000000E+03</pdfrwt>
<pdfrwt beam="2">0</pdfrwt>
<totfact> 0.27669580E+05</totfact>
</mgrwt>
</event>
<event>
 6    1  0.1132867E-002  0.3000000E+03  0.7818608E-02  0.1093470E+00
         21   -1    0    0  501  502  0.00000000000E+00  0.00000000000E+00  0.50788428277E+00  0.50788428277E+00  0.00000000000E+00 0. -1.
         13   -1    0    0    0    0 -0.00000000000E+00 -0.00000000000E+00 -0.10000000000E+04  0.10000000000E+04  0.00000000000E+00 0.  1.
    9000005    2    1    2  501    0  0.13436638273E+01  0.14512872670E+02 -0.86043816090E+03  0.86069217967E+03  0.14992348359E+02 0.  0.
         13    1    3    3    0    0  0.79875915852E+00  0.17648623809E+02 -0.70390696528E+03  0.70412863009E+03  0.00000000000E+00 0.  1.
          3    1    3    3  501    0  0.54490466876E+00 -0.31357511389E+01 -0.15653119561E+03  0.15656354957E+03  0.00000000000E+00 0.  1.
         -1    1    1    2    0  502 -0.13436638273E+01 -0.14512872670E+02 -0.13905395482E+03  0.13981570462E+03  0.00000000000E+00 0. -1.
<mgrwt>
<rscale>  1 0.30000000E+03</rscale>
<asrwt>0</asrwt>
<pdfrwt beam="1">  1       21 0.18468558E-02 0.30000000E+03</pdfrwt>
<pdfrwt beam="2">0</pdfrwt>
<totfact> 0.15090859E+05</totfact>
</mgrwt>
</event>
<event>
 6    1  0.1132867E-002  0.3000000E+03  0.7818608E-02  0.1093470E+00
         21   -1    0    0  501  502  0.00000000000E+00  0.00000000000E+00  0.28566477893E+00  0.28566477893E+00  0.00000000000E+00 0. -1.
         13   -1    0    0    0    0 -0.00000000000E+00 -0.00000000000E+00 -0.10000000000E+04  0.10000000000E+04  0.00000000000E+00 0.  1.
    9000005    2    1    2  501    0  0.13670812037E+02  0.73825185102E+01 -0.57754687668E+03  0.57783240614E+03  0.94075578448E+01 0.  0.
         13    1    3    3    0    0  0.11244715585E+02  0.82094555737E+01 -0.35807920821E+03  0.35834977068E+03  0.00000000000E+00 0.  1.
          3    1    3    3  501    0  0.24260964517E+01 -0.82693706342E+00 -0.21946766847E+03  0.21948263547E+03  0.00000000000E+00 0.  1.
         -3    1    1    2    0  502 -0.13670812037E+02 -0.73825185102E+01 -0.42216745854E+03  0.42245325864E+03  0.00000000000E+00 0. -1.
<mgrwt>
<rscale>  1 0.30000000E+03</rscale>
<asrwt>0</asrwt>
<pdfrwt beam="1">  1       21 0.10387832E-02 0.30000000E+03</pdfrwt>
<pdfrwt beam="2">0</pdfrwt>
<totfact> 0.38038375E+05</totfact>
</mgrwt>
</event>
<event>
 6    1  0.1132867E-002  0.3000000E+03  0.7818608E-02  0.1093470E+00
         21   -1    0    0  501  502  0.00000000000E+00  0.00000000000E+00  0.44552645484E+01  0.44552645484E+01  0.00000000000E+00 0. -1.
         13   -1    0    0    0    0 -0.00000000000E+00 -0.00000000000E+00 -0.10000000000E+04  0.10000000000E+04  0.00000000000E+00 0.  1.
    9000005    2    1    2  501    0  0.84488469353E+01 -0.17378369832E+02 -0.97790675366E+03  0.97829252092E+03  0.19525544335E+02 0.  0.
         13    1    3    3    0    0  0.64489193136E+01 -0.14538208888E+02 -0.33584752943E+03  0.33622390025E+03  0.00000000000E+00 0.  1.
          3    1    3    3  501    0  0.19999276216E+01 -0.28401609437E+01 -0.64205922423E+03  0.64206862066E+03  0.00000000000E+00 0.  1.
         -3    1    1    2    0  502 -0.84488469353E+01  0.17378369832E+02 -0.17637981795E+02  0.26162743632E+02  0.00000000000E+00 0. -1.
<mgrwt>
<rscale>  1 0.30000000E+03</rscale>
<asrwt>0</asrwt>
<pdfrwt beam="1">  1       21 0.16200996E-01 0.30000000E+03</pdfrwt>
<pdfrwt beam="2">0</pdfrwt>
<totfact> 0.35686137E+03</totfact>
</mgrwt>
</event>
<event>
 6    1  0.1132867E-002  0.3000000E+03  0.7818608E-02  0.1093470E+00
         21   -1    0    0  501  502  0.00000000000E+00  0.00000000000E+00  0.53850892178E+00  0.53850892178E+00  0.00000000000E+00 0.  1.
         13   -1    0    0    0    0 -0.00000000000E+00 -0.00000000000E+00 -0.10000000000E+04  0.10000000000E+04  0.00000000000E+00 0.  1.
    9000005    2    1    2  501    0 -0.10444621692E+02  0.10093482154E+01 -0.92794434509E+03  0.92825565427E+03  0.21627371457E+02 0.  0.
         13    1    3    3    0    0 -0.79312505827E+01 -0.82508245351E+01 -0.71903121444E+03  0.71912229015E+03  0.00000000000E+00 0.  1.
          3    1    3    3  501    0 -0.25133711095E+01  0.92601727504E+01 -0.20891313065E+03  0.20913336413E+03  0.00000000000E+00 0.  1.
         -3    1    1    2    0  502  0.10444621692E+02 -0.10093482154E+01 -0.71517145987E+02  0.72282854649E+02  0.00000000000E+00 0. -1.
<mgrwt>
<rscale>  1 0.30000000E+03</rscale>
<asrwt>0</asrwt>
<pdfrwt beam="1">  1       21 0.19582184E-02 0.30000000E+03</pdfrwt>
<pdfrwt beam="2">0</pdfrwt>
<totfact> 0.13720105E+05</totfact>
</mgrwt>
</event>
<event>
 6    1  0.1132867E-002  0.3000000E+03  0.7818608E-02  0.1093470E+00
         21   -1    0    0  501  502  0.00000000000E+00  0.00000000000E+00  0.20953344154E+00  0.20953344154E+00  0.00000000000E+00 0. -1.
         13   -1    0    0    0    0 -0.00000000000E+00 -0.00000000000E+00 -0.10000000000E+04  0.10000000000E+04  0.00000000000E+00 0.  1.
    9000005    2    1    2  501    0  0.93362137974E+00  0.12238502907E+02 -0.32405992765E+03  0.32436752985E+03  0.69860655265E+01 0.  0.
         13    1    3    3    0    0  0.27367060765E+01  0.47965376086E+01 -0.19678171392E+03  0.19685918639E+03  0.00000000000E+00 0.  1.
          1    1    3    3  501    0 -0.18030846967E+01  0.74419652984E+01 -0.12727821373E+03  0.12750834346E+03  0.00000000000E+00 0.  1.
         -1    1    1    2    0  502 -0.93362137974E+00 -0.12238502907E+02 -0.67573053891E+03  0.67584200359E+03  0.00000000000E+00 0. -1.
<mgrwt>
<rscale>  1 0.30000000E+03</rscale>
<asrwt>0</asrwt>
<pdfrwt beam="1">  1       21 0.76194139E-03 0.30000000E+03</pdfrwt>
<pdfrwt beam="2">0</pdfrwt>
<totfact> 0.62091702E+05</totfact>
</mgrwt>
</event>
<event>
 6    1  0.1132867E-002  0.3000000E+03  0.7818608E-02  0.1093470E+00
         21   -1    0    0  501  502  0.00000000000E+00  0.00000000000E+00  0.20690477686E+01  0.20690477686E+01  0.00000000000E+00 0. -1.
         13   -1    0    0    0    0 -0.00000000000E+00 -0.00000000000E+00 -0.10000000000E+04  0.10000000000E+04  0.00000000000E+00 0.  1.
    9000005    2    1    2  501    0  0.81298997952E+01  0.24375358594E+02 -0.88899315973E+03  0.89014185710E+03  0.37194547001E+02 0.  0.
         13    1    3    3    0    0  0.19605414222E+02  0.18056207954E+02 -0.35950865220E+03  0.36049531192E+03  0.00000000000E+00 0.  1.
          1    1    3    3  501    0 -0.11475514427E+02  0.63191506393E+01 -0.52948450753E+03  0.52964654517E+03  0.00000000000E+00 0.  1.
         -1    1    1    2    0  502 -0.81298997952E+01 -0.24375358594E+02 -0.10893779250E+03  0.11192719067E+03  0.00000000000E+00 0. -1.
<mgrwt>
<rscale>  1 0.30000000E+03</rscale>
<asrwt>0</asrwt>
<pdfrwt beam="1">  1       21 0.75238259E-02 0.30000000E+03</pdfrwt>
<pdfrwt beam="2">0</pdfrwt>
<totfact> 0.14225240E+04</totfact>
</mgrwt>
</event>
<event>
 6    1  0.1132867E-002  0.3000000E+03  0.7818608E-02  0.1093470E+00
         21   -1    0    0  501  502  0.00000000000E+00  0.00000000000E+00  0.98040112705E-01  0.98040112705E-01  0.00000000000E+00 0. -1.
         13   -1    0    0    0    0 -0.00000000000E+00 -0.00000000000E+00 -0.10000000000E+04  0.10000000000E+04  0.00000000000E+00 0.  1.
    9000005    2    1    2  501    0  0.28035880166E+01 -0.73537892210E+01 -0.58550444341E+03  0.58562579739E+03  0.89544960161E+01 0.  0.
         13    1    3    3    0    0  0.56669285944E+01 -0.69952874942E+01 -0.46126245243E+03  0.46135029874E+03  0.00000000000E+00 0.  1.
          1    1    3    3  501    0 -0.28633405778E+01 -0.35850172680E+00 -0.12424199097E+03  0.12427549865E+03  0.00000000000E+00 0.  1.
         -1    1    1    2    0  502 -0.28035880166E+01  0.73537892210E+01 -0.41439751648E+03  0.41447224272E+03  0.00000000000E+00 0. -1.
<mgrwt>
<rscale>  1 0.30000000E+03</rscale>
<asrwt>0</asrwt>
<pdfrwt beam="1">  1       21 0.35651025E-03 0.30000000E+03</pdfrwt>
<pdfrwt beam="2">0</pdfrwt>
<totfact> 0.20220907E+06</totfact>
</mgrwt>
</event>
<event>
 6    1  0.1132867E-002  0.3000000E+03  0.7818608E-02  0.1093470E+00
         21   -1    0    0  501  502  0.00000000000E+00  0.00000000000E+00  0.23462145926E+00  0.23462145926E+00  0.00000000000E+00 0. -1.
         13   -1    0    0    0    0 -0.00000000000E+00 -0.00000000000E+00 -0.10000000000E+04  0.10000000000E+04  0.00000000000E+00 0.  1.
    9000005    2    1    2  501    0 -0.43803856443E+00  0.94986690487E+01 -0.74170116604E+03  0.74199528603E+03  0.18600220105E+02 0.  0.
         13    1    3    3    0    0 -0.47792096951E+01  0.13896099915E+02 -0.53500134860E+03  0.53520312540E+03  0.00000000000E+00 0.  1.
          1    1    3    3  501    0  0.43411711307E+01 -0.43974308659E+01 -0.20669981744E+03  0.20679216063E+03  0.00000000000E+00 0.  1.
         -3    1    1    2    0  502  0.43803856443E+00 -0.94986690487E+01 -0.25806421250E+03  0.25823933543E+03  0.00000000000E+00 0. -1.
<mgrwt>
<rscale>  1 0.30000000E+03</rscale>
<asrwt>0</asrwt>
<pdfrwt beam="1">  1       21 0.85317074E-03 0.30000000E+03</pdfrwt>
<pdfrwt beam="2">0</pdfrwt>
<totfact> 0.51954456E+05</totfact>
</mgrwt>
</event>
<event>
 6    1  0.1132867E-002  0.3000000E+03  0.7818608E-02  0.1093470E+00
         21   -1    0    0  501  502  0.00000000000E+00  0.00000000000E+00  0.24075556024E+00  0.24075556024E+00  0.00000000000E+00 0.  1.
         13   -1    0    0    0    0 -0.00000000000E+00 -0.00000000000E+00 -0.10000000000E+04  0.10000000000E+04  0.00000000000E+00 0.  1.
    9000005    2    1    2  501    0  0.76728551429E+01  0.58587418801E+01 -0.88682499634E+03  0.88689463981E+03  0.55073063013E+01 0.  0.
         13    1    3    3    0    0  0.48293728367E+01  0.25378913364E+01 -0.27550881797E+03  0.27556282862E+03  0.00000000000E+00 0.  1.
          1    1    3    3  501    0  0.28434823062E+01  0.33208505437E+01 -0.61131617837E+03  0.61133181119E+03  0.00000000000E+00 0.  1.
         -3    1    1    2    0  502 -0.76728551429E+01 -0.58587418801E+01 -0.11293424810E+03  0.11334611575E+03  0.00000000000E+00 0. -1.
<mgrwt>
<rscale>  1 0.30000000E+03</rscale>
<asrwt>0</asrwt>
<pdfrwt beam="1">  1       21 0.87547661E-03 0.30000000E+03</pdfrwt>
<pdfrwt beam="2">0</pdfrwt>
<totfact> 0.49879635E+05</totfact>
</mgrwt>
</event>
<event>
 6    1  0.1132867E-002  0.3000000E+03  0.7818608E-02  0.1093470E+00
         21   -1    0    0  501  502  0.00000000000E+00  0.00000000000E+00  0.11645754382E+01  0.11645754382E+01  0.00000000000E+00 0. -1.
         13   -1    0    0    0    0 -0.00000000000E+00 -0.00000000000E+00 -0.10000000000E+04  0.10000000000E+04  0.00000000000E+00 0.  1.
    9000005    2    1    2  501    0 -0.12468534560E+02 -0.10112879830E+02 -0.94029042436E+03  0.94045830112E+03  0.76157282375E+01 0.  0.
         13    1    3    3    0    0 -0.78837120990E+01 -0.47688036495E+01 -0.33423325885E+03  0.33436023347E+03  0.00000000000E+00 0.  1.
          3    1    3    3  501    0 -0.45848224613E+01 -0.53440761808E+01 -0.60605716551E+03  0.60609806765E+03  0.00000000000E+00 0.  1.
         -1    1    1    2    0  502  0.12468534560E+02  0.10112879830E+02 -0.58545000204E+02  0.60706274317E+02  0.00000000000E+00 0. -1.
<mgrwt>
<rscale>  1 0.30000000E+03</rscale>
<asrwt>0</asrwt>
<pdfrwt beam="1">  1       21 0.42348287E-02 0.30000000E+03</pdfrwt>
<pdfrwt beam="2">0</pdfrwt>
<totfact> 0.38190014E+04</totfact>
</mgrwt>
</event>
<event>
 6    1  0.1132867E-002  0.3000000E+03  0.7818608E-02  0.1093470E+00
         21   -1    0    0  501  502  0.00000000000E+00  0.00000000000E+00  0.33386975401E+01  0.33386975401E+01  0.00000000000E+00 0. -1.
         13   -1    0    0    0    0 -0.00000000000E+00 -0.00000000000E+00 -0.10000000000E+04  0.10000000000E+04  0.00000000000E+00 0.  1.
    9000005    2    1    2  501    0  0.28887847141E+02  0.32534475768E+02 -0.81808484471E+03  0.81953839534E+03  0.22076423360E+02 0.  0.
         13    1    3    3    0    0  0.29126105303E+02  0.18011921048E+02 -0.56387650218E+03  0.56491545299E+03  0.00000000000E+00 0.  1.
          3    1    3    3  501    0 -0.23825816193E+00  0.14522554720E+02 -0.25420834252E+03  0.25462294235E+03  0.00000000000E+00 0.  1.
         -1    1    1    2    0  502 -0.28887847141E+02 -0.32534475768E+02 -0.17857645775E+03  0.18380030220E+03  0.00000000000E+00 0. -1.
<mgrwt>
<rscale>  1 0.30000000E+03</rscale>
<asrwt>0</asrwt>
<pdfrwt beam="1">  1       21 0.12140744E-01 0.30000000E+03</pdfrwt>
<pdfrwt beam="2">0</pdfrwt>
<totfact> 0.60672615E+03</totfact>
</mgrwt>
</event>
<event>
 6    1  0.1132867E-002  0.3000000E+03  0.7818608E-02  0.1093470E+00
         21   -1    0    0  501  502  0.00000000000E+00  0.00000000000E+00  0.46727498222E+00  0.46727498222E+00  0.00000000000E+00 0. -1.
         13   -1    0    0    0    0 -0.00000000000E+00 -0.00000000000E+00 -0.10000000000E+04  0.10000000000E+04  0.00000000000E+00 0.  1.
    9000005    2    1    2  501    0 -0.11491862769E+02  0.52986319250E+01 -0.89807909878E+03  0.89822747506E+03  0.10314595841E+02 0.  0.
         13    1    3    3    0    0 -0.72955781406E+01 -0.21569477813E+01 -0.48635568065E+03  0.48641517861E+03  0.00000000000E+00 0.  1.
          1    1    3    3  501    0 -0.41962846279E+01  0.74555797063E+01 -0.41172341813E+03  0.41181229645E+03  0.00000000000E+00 0.  1.
         -3    1    1    2    0  502  0.11491862769E+02 -0.52986319250E+01 -0.10145362624E+03  0.10223979992E+03  0.00000000000E+00 0. -1.
<mgrwt>
<rscale>  1 0.30000000E+03</rscale>
<asrwt>0</asrwt>
<pdfrwt beam="1">  1       21 0.16991853E-02 0.30000000E+03</pdfrwt>
<pdfrwt beam="2">0</pdfrwt>
<totfact> 0.17275686E+05</totfact>
</mgrwt>
</event>
<event>
 6    1  0.1132867E-002  0.3000000E+03  0.7818608E-02  0.1093470E+00
         21   -1    0    0  501  502  0.00000000000E+00  0.00000000000E+00  0.22998505696E+00  0.22998505696E+00  0.00000000000E+00 0. -1.
         13   -1    0    0    0    0 -0.00000000000E+00 -0.00000000000E+00 -0.10000000000E+04  0.10000000000E+04  0.00000000000E+00 0.  1.
    9000005    2    1    2  501    0 -0.30547839093E+01 -0.13501030749E+02 -0.68579243428E+03  0.68594742001E+03  0.45815457115E+01 0.  0.
         13    1    3    3    0    0 -0.39339480083E+01 -0.12453903919E+02 -0.58538560273E+03  0.58553127973E+03  0.00000000000E+00 0.  1.
          1    1    3    3  501    0  0.87916409896E+00 -0.10471268306E+01 -0.10040683155E+03  0.10041614027E+03  0.00000000000E+00 0.  1.
         -1    1    1    2    0  502  0.30547839093E+01  0.13501030749E+02 -0.31397758066E+03  0.31428256505E+03  0.00000000000E+00 0. -1.
<mgrwt>
<rscale>  1 0.30000000E+03</rscale>
<asrwt>0</asrwt>
<pdfrwt beam="1">  1       21 0.83631106E-03 0.30000000E+03</pdfrwt>
<pdfrwt beam="2">0</pdfrwt>
<totfact> 0.53617070E+05</totfact>
</mgrwt>
</event>
<event>
 6    1  0.1132867E-002  0.3000000E+03  0.7818608E-02  0.1093470E+00
         21   -1    0    0  501  502  0.00000000000E+00  0.00000000000E+00  0.31560597973E+00  0.31560597973E+00  0.00000000000E+00 0. -1.
         13   -1    0    0    0    0 -0.00000000000E+00 -0.00000000000E+00 -0.10000000000E+04  0.10000000000E+04  0.00000000000E+00 0.  1.
    9000005    2    1    2  501    0  0.40139855464E+01 -0.88654724581E+01 -0.90328028525E+03  0.90342153563E+03  0.12668410718E+02 0.  0.
         13    1    3    3    0    0  0.65536479257E+00 -0.63579653699E+01 -0.82799193552E+03  0.82801660521E+03  0.00000000000E+00 0.  1.
          1    1    3    3  501    0  0.33586207538E+01 -0.25075070882E+01 -0.75288349731E+02  0.75404930412E+02  0.00000000000E+00 0.  1.
         -3    1    1    2    0  502 -0.40139855464E+01  0.88654724581E+01 -0.96404108770E+02  0.96894070353E+02  0.00000000000E+00 0. -1.
<mgrwt>
<rscale>  1 0.30000000E+03</rscale>
<asrwt>0</asrwt>
<pdfrwt beam="1">  1       21 0.11476605E-02 0.30000000E+03</pdfrwt>
<pdfrwt beam="2">0</pdfrwt>
<totfact> 0.32456162E+05</totfact>
</mgrwt>
</event>
<event>
 6    1  0.1132867E-002  0.3000000E+03  0.7818608E-02  0.1093470E+00
         21   -1    0    0  501  502  0.00000000000E+00  0.00000000000E+00  0.70257178554E-01  0.70257178554E-01  0.00000000000E+00 0. -1.
         13   -1    0    0    0    0 -0.00000000000E+00 -0.00000000000E+00 -0.10000000000E+04  0.10000000000E+04  0.00000000000E+00 0.  1.
    9000005    2    1    2  501    0  0.17251132148E+01 -0.75433008436E+01 -0.50276580468E+03  0.50284610371E+03  0.45686167028E+01 0.  0.
         13    1    3    3    0    0 -0.14245183552E+01 -0.16442123102E+01 -0.90996495200E+02  0.91022496260E+02  0.00000000000E+00 0.  1.
          3    1    3    3  501    0  0.31496315700E+01 -0.58990885334E+01 -0.41176930948E+03  0.41182360745E+03  0.00000000000E+00 0.  1.
         -3    1    1    2    0  502 -0.17251132148E+01  0.75433008436E+01 -0.49716393814E+03  0.49722415347E+03  0.00000000000E+00 0. -1.
<mgrwt>
<rscale>  1 0.30000000E+03</rscale>
<asrwt>0</asrwt>
<pdfrwt beam="1">  1       21 0.25548119E-03 0.30000000E+03</pdfrwt>
<pdfrwt beam="2">0</pdfrwt>
<totfact> 0.33678678E+06</totfact>
</mgrwt>
</event>
<event>
 6    1  0.1132867E-002  0.3000000E+03  0.7818608E-02  0.1093470E+00
         21   -1    0    0  501  502  0.00000000000E+00  0.00000000000E+00  0.16935369400E+01  0.16935369400E+01  0.00000000000E+00 0. -1.
         13   -1    0    0    0    0 -0.00000000000E+00 -0.00000000000E+00 -0.10000000000E+04  0.10000000000E+04  0.00000000000E+00 0.  1.
    9000005    2    1    2  501    0 -0.31077599093E+02 -0.17611711648E+02 -0.44800222668E+03  0.45023117002E+03  0.26946647170E+02 0.  0.
         13    1    3    3    0    0 -0.84976408485E+01 -0.13241883069E+02 -0.30373200228E+03  0.30413925524E+03  0.00000000000E+00 0.  1.
          3    1    3    3  501    0 -0.22579958245E+02 -0.43698285788E+01 -0.14427022440E+03  0.14609191478E+03  0.00000000000E+00 0.  1.
         -1    1    1    2    0  502  0.31077599093E+02  0.17611711648E+02 -0.55030423638E+03  0.55146236692E+03  0.00000000000E+00 0. -1.
<mgrwt>
<rscale>  1 0.30000000E+03</rscale>
<asrwt>0</asrwt>
<pdfrwt beam="1">  1       21 0.61583291E-02 0.30000000E+03</pdfrwt>
<pdfrwt beam="2">0</pdfrwt>
<totfact> 0.20145581E+04</totfact>
</mgrwt>
</event>
<event>
 6    1  0.1132867E-002  0.3000000E+03  0.7818608E-02  0.1093470E+00
         21   -1    0    0  501  502  0.00000000000E+00  0.00000000000E+00  0.32681732242E+00  0.32681732242E+00  0.00000000000E+00 0. -1.
         13   -1    0    0    0    0 -0.00000000000E+00 -0.00000000000E+00 -0.10000000000E+04  0.10000000000E+04  0.00000000000E+00 0.  1.
    9000005    2    1    2  501    0  0.11124374027E+02 -0.41741397557E+01 -0.79621521529E+03  0.79652220591E+03  0.18648868746E+02 0.  0.
         13    1    3    3    0    0  0.92337527116E+01 -0.11365912915E+02 -0.50736824117E+03  0.50757952906E+03  0.00000000000E+00 0.  1.
          3    1    3    3  501    0  0.18906213149E+01  0.71917731592E+01 -0.28884697412E+03  0.28894267685E+03  0.00000000000E+00 0.  1.
         -1    1    1    2    0  502 -0.11124374027E+02  0.41741397557E+01 -0.20345796739E+03  0.20380461141E+03  0.00000000000E+00 0. -1.
<mgrwt>
<rscale>  1 0.30000000E+03</rscale>
<asrwt>0</asrwt>
<pdfrwt beam="1">  1       21 0.11884291E-02 0.30000000E+03</pdfrwt>
<pdfrwt beam="2">0</pdfrwt>
<totfact> 0.30698086E+05</totfact>
</mgrwt>
</event>
<event>
 6    1  0.1132867E-002  0.3000000E+03  0.7818608E-02  0.1093470E+00
         21   -1    0    0  501  502  0.00000000000E+00  0.00000000000E+00  0.20223294259E+00  0.20223294259E+00  0.00000000000E+00 0.  1.
         13   -1    0    0    0    0 -0.00000000000E+00 -0.00000000000E+00 -0.10000000000E+04  0.10000000000E+04  0.00000000000E+00 0.  1.
    9000005    2    1    2  501    0 -0.37664430248E+01  0.84872256494E+01 -0.81172249103E+03  0.81189788210E+03  0.14090756804E+02 0.  0.
         13    1    3    3    0    0 -0.24569971927E+01  0.55285026929E+01 -0.77732757190E+03  0.77735111450E+03  0.00000000000E+00 0.  1.
          1    1    3    3  501    0 -0.13094458321E+01  0.29587229565E+01 -0.34394919134E+02  0.34546767608E+02  0.00000000000E+00 0.  1.
         -1    1    1    2    0  502  0.37664430248E+01 -0.84872256494E+01 -0.18807527603E+03  0.18830435084E+03  0.00000000000E+00 0. -1.
<mgrwt>
<rscale>  1 0.30000000E+03</rscale>
<asrwt>0</asrwt>
<pdfrwt beam="1">  1       21 0.73539407E-03 0.30000000E+03</pdfrwt>
<pdfrwt beam="2">0</pdfrwt>
<totfact> 0.65650223E+05</totfact>
</mgrwt>
</event>
<event>
 6    1  0.1132867E-002  0.3000000E+03  0.7818608E-02  0.1093470E+00
         21   -1    0    0  501  502  0.00000000000E+00  0.00000000000E+00  0.61604953927E+00  0.61604953927E+00  0.00000000000E+00 0. -1.
         13   -1    0    0    0    0 -0.00000000000E+00 -0.00000000000E+00 -0.10000000000E+04  0.10000000000E+04  0.00000000000E+00 0.  1.
    9000005    2    1    2  501    0  0.17847213594E+01 -0.20346470629E+02 -0.77570475204E+03  0.77600628149E+03  0.71219713405E+01 0.  0.
         13    1    3    3    0    0  0.22089313497E+01 -0.16514905980E+02 -0.70470727041E+03  0.70490421936E+03  0.00000000000E+00 0.  1.
          1    1    3    3  501    0 -0.42420999030E+00 -0.38315646493E+01 -0.70997481630E+02  0.71102062134E+02  0.00000000000E+00 0.  1.
         -1    1    1    2    0  502 -0.17847213594E+01  0.20346470629E+02 -0.22367919842E+03  0.22460976805E+03  0.00000000000E+00 0. -1.
<mgrwt>
<rscale>  1 0.30000000E+03</rscale>
<asrwt>0</asrwt>
<pdfrwt beam="1">  1       21 0.22401849E-02 0.30000000E+03</pdfrwt>
<pdfrwt beam="2">0</pdfrwt>
<totfact> 0.11012654E+05</totfact>
</mgrwt>
</event>
<event>
 6    1  0.1132867E-002  0.3000000E+03  0.7818608E-02  0.1093470E+00
         21   -1    0    0  501  502  0.00000000000E+00  0.00000000000E+00  0.23820124642E+00  0.23820124642E+00  0.00000000000E+00 0. -1.
         13   -1    0    0    0    0 -0.00000000000E+00 -0.00000000000E+00 -0.10000000000E+04  0.10000000000E+04  0.00000000000E+00 0.  1.
    9000005    2    1    2  501    0 -0.58473640297E+01 -0.11183312300E+02 -0.64790365627E+03  0.64815382134E+03  0.12844071518E+02 0.  0.
         13    1    3    3    0    0 -0.82247998232E+01 -0.30959684697E+01 -0.23528332266E+03  0.23544739173E+03  0.00000000000E+00 0.  1.
          1    1    3    3  501    0  0.23774357935E+01 -0.80873438308E+01 -0.41262033361E+03  0.41270642961E+03  0.00000000000E+00 0.  1.
         -1    1    1    2    0  502  0.58473640297E+01  0.11183312300E+02 -0.35185814249E+03  0.35208437991E+03  0.00000000000E+00 0. -1.
<mgrwt>
<rscale>  1 0.30000000E+03</rscale>
<asrwt>0</asrwt>
<pdfrwt beam="1">  1       21 0.86618818E-03 0.30000000E+03</pdfrwt>
<pdfrwt beam="2">0</pdfrwt>
<totfact> 0.50727046E+05</totfact>
</mgrwt>
</event>
<event>
 6    1  0.1132867E-002  0.3000000E+03  0.7818608E-02  0.1093470E+00
         21   -1    0    0  501  502  0.00000000000E+00  0.00000000000E+00  0.17784920334E+00  0.17784920334E+00  0.00000000000E+00 0. -1.
         13   -1    0    0    0    0 -0.00000000000E+00 -0.00000000000E+00 -0.10000000000E+04  0.10000000000E+04  0.00000000000E+00 0.  1.
    9000005    2    1    2  501    0 -0.91068572346E+01 -0.14368941557E+00 -0.79137759905E+03  0.79153440539E+03  0.12855159873E+02 0.  0.
         13    1    3    3    0    0 -0.11346109149E+01 -0.54050780200E+01 -0.41005111589E+03  0.41008830738E+03  0.00000000000E+00 0.  1.
          3    1    3    3  501    0 -0.79722463197E+01  0.52613886045E+01 -0.38132648316E+03  0.38144609801E+03  0.00000000000E+00 0.  1.
         -3    1    1    2    0  502  0.91068572346E+01  0.14368941557E+00 -0.20844455175E+03  0.20864344382E+03  0.00000000000E+00 0. -1.
<mgrwt>
<rscale>  1 0.30000000E+03</rscale>
<asrwt>0</asrwt>
<pdfrwt beam="1">  1       21 0.64672574E-03 0.30000000E+03</pdfrwt>
<pdfrwt beam="2">0</pdfrwt>
<totfact> 0.80296155E+05</totfact>
</mgrwt>
</event>
<event>
 6    1  0.1132867E-002  0.3000000E+03  0.7818608E-02  0.1093470E+00
         21   -1    0    0  501  502  0.00000000000E+00  0.00000000000E+00  0.31010554312E+00  0.31010554312E+00  0.00000000000E+00 0.  1.
         13   -1    0    0    0    0 -0.00000000000E+00 -0.00000000000E+00 -0.10000000000E+04  0.10000000000E+04  0.00000000000E+00 0.  1.
    9000005    2    1    2  501    0  0.69691076796E+01 -0.76250857366E+01 -0.78993345433E+03  0.79029945208E+03  0.21717534160E+02 0.  0.
         13    1    3    3    0    0 -0.38405880559E+01 -0.95182781660E+01 -0.19935720021E+03  0.19962124389E+03  0.00000000000E+00 0.  1.
          3    1    3    3  501    0  0.10809695736E+02  0.18931924293E+01 -0.59057625412E+03  0.59067820819E+03  0.00000000000E+00 0.  1.
         -1    1    1    2    0  502 -0.69691076796E+01  0.76250857366E+01 -0.20975644013E+03  0.21001065347E+03  0.00000000000E+00 0. -1.
<mgrwt>
<rscale>  1 0.30000000E+03</rscale>
<asrwt>0</asrwt>
<pdfrwt beam="1">  1       21 0.11276589E-02 0.30000000E+03</pdfrwt>
<pdfrwt beam="2">0</pdfrwt>
<totfact> 0.33378610E+05</totfact>
</mgrwt>
</event>
<event>
 6    1  0.1132867E-002  0.3000000E+03  0.7818608E-02  0.1093470E+00
         21   -1    0    0  501  502  0.00000000000E+00  0.00000000000E+00  0.99652411847E-01  0.99652411847E-01  0.00000000000E+00 0. -1.
         13   -1    0    0    0    0 -0.00000000000E+00 -0.00000000000E+00 -0.10000000000E+04  0.10000000000E+04  0.00000000000E+00 0.  1.
    9000005    2    1    2  501    0  0.72092856553E+01 -0.55584598255E+01 -0.63658424981E+03  0.63666952545E+03  0.50702328696E+01 0.  0.
         13    1    3    3    0    0  0.42852347414E+01 -0.19594765051E+00 -0.24231779958E+03  0.24235576664E+03  0.00000000000E+00 0.  1.
          3    1    3    3  501    0  0.29240509139E+01 -0.53625121750E+01 -0.39426645023E+03  0.39431375881E+03  0.00000000000E+00 0.  1.
         -1    1    1    2    0  502 -0.72092856553E+01  0.55584598255E+01 -0.36331609778E+03  0.36343012696E+03  0.00000000000E+00 0. -1.
<mgrwt>
<rscale>  1 0.30000000E+03</rscale>
<asrwt>0</asrwt>
<pdfrwt beam="1">  1       21 0.36237317E-03 0.30000000E+03</pdfrwt>
<pdfrwt beam="2">0</pdfrwt>
<totfact> 0.19719967E+06</totfact>
</mgrwt>
</event>
<event>
 6    1  0.1132867E-002  0.3000000E+03  0.7818608E-02  0.1093470E+00
         21   -1    0    0  501  502  0.00000000000E+00  0.00000000000E+00  0.77894537774E-01  0.77894537774E-01  0.00000000000E+00 0. -1.
         13   -1    0    0    0    0 -0.00000000000E+00 -0.00000000000E+00 -0.10000000000E+04  0.10000000000E+04  0.00000000000E+00 0.  1.
    9000005    2    1    2  501    0 -0.62267717669E+01 -0.53201700231E+01 -0.58558273732E+03  0.58565758990E+03  0.45380034906E+01 0.  0.
         13    1    3    3    0    0 -0.21187180097E+01 -0.26601184636E+01 -0.38552455660E+03  0.38553955561E+03  0.00000000000E+00 0.  1.
          1    1    3    3  501    0 -0.41080537573E+01 -0.26600515595E+01 -0.20005818071E+03  0.20011803429E+03  0.00000000000E+00 0.  1.
         -1    1    1    2    0  502  0.62267717669E+01  0.53201700231E+01 -0.41433936815E+03  0.41442030463E+03  0.00000000000E+00 0. -1.
<mgrwt>
<rscale>  1 0.30000000E+03</rscale>
<asrwt>0</asrwt>
<pdfrwt beam="1">  1       21 0.28325346E-03 0.30000000E+03</pdfrwt>
<pdfrwt beam="2">0</pdfrwt>
<totfact> 0.28771054E+06</totfact>
</mgrwt>
</event>
<event>
 6    1  0.1132867E-002  0.3000000E+03  0.7818608E-02  0.1093470E+00
         21   -1    0    0  501  502  0.00000000000E+00  0.00000000000E+00  0.21828053280E+00  0.21828053280E+00  0.00000000000E+00 0. -1.
         13   -1    0    0    0    0 -0.00000000000E+00 -0.00000000000E+00 -0.10000000000E+04  0.10000000000E+04  0.00000000000E+00 0.  1.
    9000005    2    1    2  501    0 -0.79094240886E+01 -0.81035382673E+01 -0.57895312156E+03  0.57923736037E+03  0.14176613354E+02 0.  0.
         13    1    3    3    0    0 -0.11388979422E+02 -0.89329335387E+01 -0.48581217637E+03  0.48602775318E+03  0.00000000000E+00 0.  1.
          1    1    3    3  501    0  0.34795553336E+01  0.82939527140E+00 -0.93140945192E+02  0.93209607193E+02  0.00000000000E+00 0.  1.
         -1    1    1    2    0  502  0.79094240886E+01  0.81035382673E+01 -0.42082859791E+03  0.42098092016E+03  0.00000000000E+00 0. -1.
<mgrwt>
<rscale>  1 0.30000000E+03</rscale>
<asrwt>0</asrwt>
<pdfrwt beam="1">  1       21 0.79374907E-03 0.30000000E+03</pdfrwt>
<pdfrwt beam="2">0</pdfrwt>
<totfact> 0.58220529E+05</totfact>
</mgrwt>
</event>
<event>
 6    1  0.1132867E-002  0.3000000E+03  0.7818608E-02  0.1093470E+00
         21   -1    0    0  501  502  0.00000000000E+00  0.00000000000E+00  0.51940080488E+00  0.51940080488E+00  0.00000000000E+00 0. -1.
         13   -1    0    0    0    0 -0.00000000000E+00 -0.00000000000E+00 -0.10000000000E+04  0.10000000000E+04  0.00000000000E+00 0.  1.
    9000005    2    1    2  501    0  0.14135165845E+02  0.43473897916E+01 -0.57504603809E+03  0.57582727777E+03  0.26084577513E+02 0.  0.
         13    1    3    3    0    0  0.14983513982E+02  0.97889054858E+01 -0.54414885816E+03  0.54444311750E+03  0.00000000000E+00 0.  1.
          1    1    3    3  501    0 -0.84834813699E+00 -0.54415156942E+01 -0.30897179939E+02  0.31384160269E+02  0.00000000000E+00 0.  1.
         -1    1    1    2    0  502 -0.14135165845E+02 -0.43473897916E+01 -0.42443456110E+03  0.42469212304E+03  0.00000000000E+00 0. -1.
<mgrwt>
<rscale>  1 0.30000000E+03</rscale>
<asrwt>0</asrwt>
<pdfrwt beam="1">  1       21 0.18887342E-02 0.30000000E+03</pdfrwt>
<pdfrwt beam="2">0</pdfrwt>
<totfact> 0.14550825E+05</totfact>
</mgrwt>
</event>
<event>
 6    1  0.1132867E-002  0.3000000E+03  0.7818608E-02  0.1093470E+00
         21   -1    0    0  501  502  0.00000000000E+00  0.00000000000E+00  0.13810910255E+00  0.13810910255E+00  0.00000000000E+00 0. -1.
         13   -1    0    0    0    0 -0.00000000000E+00 -0.00000000000E+00 -0.10000000000E+04  0.10000000000E+04  0.00000000000E+00 0.  1.
    9000005    2    1    2  501    0 -0.88685566537E+01  0.46072885383E+01 -0.69948187025E+03  0.69959188103E+03  0.73508359470E+01 0.  0.
         13    1    3    3    0    0 -0.73000285565E+00  0.20878999823E+01 -0.44789851346E+02  0.44844431250E+02  0.00000000000E+00 0.  1.
          3    1    3    3  501    0 -0.81385537980E+01  0.25193885560E+01 -0.65469201890E+03  0.65474744978E+03  0.00000000000E+00 0.  1.
         -3    1    1    2    0  502  0.88685566537E+01 -0.46072885383E+01 -0.30038002065E+03  0.30054622807E+03  0.00000000000E+00 0. -1.
<mgrwt>
<rscale>  1 0.30000000E+03</rscale>
<asrwt>0</asrwt>
<pdfrwt beam="1">  1       21 0.50221598E-03 0.30000000E+03</pdfrwt>
<pdfrwt beam="2">0</pdfrwt>
<totfact> 0.11908475E+06</totfact>
</mgrwt>
</event>
<event>
 6    1  0.1132867E-002  0.3000000E+03  0.7818608E-02  0.1093470E+00
         21   -1    0    0  501  502  0.00000000000E+00  0.00000000000E+00  0.14024627435E+00  0.14024627435E+00  0.00000000000E+00 0. -1.
         13   -1    0    0    0    0 -0.00000000000E+00 -0.00000000000E+00 -0.10000000000E+04  0.10000000000E+04  0.00000000000E+00 0.  1.
    9000005    2    1    2  501    0  0.90917499922E+01  0.21249087986E+01 -0.78637201303E+03  0.78644843412E+03  0.57464331997E+01 0.  0.
         13    1    3    3    0    0  0.90265108099E+01  0.27130286615E+01 -0.58799572875E+03  0.58807126733E+03  0.00000000000E+00 0.  1.
          3    1    3    3  501    0  0.65239182270E-01 -0.58811986297E+00 -0.19837628428E+03  0.19837716679E+03  0.00000000000E+00 0.  1.
         -3    1    1    2    0  502 -0.90917499922E+01 -0.21249087986E+01 -0.21348774070E+03  0.21369181216E+03  0.00000000000E+00 0. -1.
<mgrwt>
<rscale>  1 0.30000000E+03</rscale>
<asrwt>0</asrwt>
<pdfrwt beam="1">  1       21 0.50998753E-03 0.30000000E+03</pdfrwt>
<pdfrwt beam="2">0</pdfrwt>
<totfact> 0.11627786E+06</totfact>
</mgrwt>
</event>
<event>
 6    1  0.1132867E-002  0.3000000E+03  0.7818608E-02  0.1093470E+00
         21   -1    0    0  501  502  0.00000000000E+00  0.00000000000E+00  0.30596594236E+00  0.30596594236E+00  0.00000000000E+00 0. -1.
         13   -1    0    0    0    0 -0.00000000000E+00 -0.00000000000E+00 -0.10000000000E+04  0.10000000000E+04  0.00000000000E+00 0.  1.
    9000005    2    1    2  501    0  0.15794421758E+01 -0.16015373785E+02 -0.45025404782E+03  0.45063034768E+03  0.89451571831E+01 0.  0.
         13    1    3    3    0    0 -0.17844657811E+01 -0.13773095676E+02 -0.38560298528E+03  0.38585300924E+03  0.00000000000E+00 0.  1.
          3    1    3    3  501    0  0.33639079569E+01 -0.22422781091E+01 -0.64651062533E+02  0.64777338433E+02  0.00000000000E+00 0.  1.
         -3    1    1    2    0  502 -0.15794421758E+01  0.16015373785E+02 -0.54943998624E+03  0.54967561827E+03  0.00000000000E+00 0. -1.
<mgrwt>
<rscale>  1 0.30000000E+03</rscale>
<asrwt>0</asrwt>
<pdfrwt beam="1">  1       21 0.11126058E-02 0.30000000E+03</pdfrwt>
<pdfrwt beam="2">0</pdfrwt>
<totfact> 0.34100992E+05</totfact>
</mgrwt>
</event>
<event>
 6    1  0.1132867E-002  0.3000000E+03  0.7818608E-02  0.1093470E+00
         21   -1    0    0  501  502  0.00000000000E+00  0.00000000000E+00  0.18582244603E+00  0.18582244603E+00  0.00000000000E+00 0. -1.
         13   -1    0    0    0    0 -0.00000000000E+00 -0.00000000000E+00 -0.10000000000E+04  0.10000000000E+04  0.00000000000E+00 0.  1.
    9000005    2    1    2  501    0 -0.99334825960E+01 -0.36850326049E+01 -0.40264951344E+03  0.40292717696E+03  0.10555838076E+02 0.  0.
         13    1    3    3    0    0 -0.91657796542E+01 -0.40529651767E+01 -0.40034543496E+03  0.40047085454E+03  0.00000000000E+00 0.  1.
          3    1    3    3  501    0 -0.76770294180E+00  0.36793257186E+00 -0.23040784831E+01  0.24563224220E+01  0.00000000000E+00 0.  1.
         -1    1    1    2    0  502  0.99334825960E+01  0.36850326049E+01 -0.59716466411E+03  0.59725864549E+03  0.00000000000E+00 0. -1.
<mgrwt>
<rscale>  1 0.30000000E+03</rscale>
<asrwt>0</asrwt>
<pdfrwt beam="1">  1       21 0.67571941E-03 0.30000000E+03</pdfrwt>
<pdfrwt beam="2">0</pdfrwt>
<totfact> 0.74967864E+05</totfact>
</mgrwt>
</event>
<event>
 6    1  0.1132867E-002  0.3000000E+03  0.7818608E-02  0.1093470E+00
         21   -1    0    0  501  502  0.00000000000E+00  0.00000000000E+00  0.14957479437E+00  0.14957479437E+00  0.00000000000E+00 0. -1.
         13   -1    0    0    0    0 -0.00000000000E+00 -0.00000000000E+00 -0.10000000000E+04  0.10000000000E+04  0.00000000000E+00 0.  1.
    9000005    2    1    2  501    0  0.80638442571E+01  0.86050639953E+00 -0.69133098904E+03  0.69152357370E+03  0.14161586403E+02 0.  0.
         13    1    3    3    0    0  0.12509565518E+01  0.26648001579E+01 -0.27849740466E+02  0.28004894147E+02  0.00000000000E+00 0.  1.
          1    1    3    3  501    0  0.68128877053E+01 -0.18042937584E+01 -0.66348124857E+03  0.66351867956E+03  0.00000000000E+00 0.  1.
         -3    1    1    2    0  502 -0.80638442571E+01 -0.86050639953E+00 -0.30851943617E+03  0.30862600109E+03  0.00000000000E+00 0. -1.
<mgrwt>
<rscale>  1 0.30000000E+03</rscale>
<asrwt>0</asrwt>
<pdfrwt beam="1">  1       21 0.54390949E-03 0.30000000E+03</pdfrwt>
<pdfrwt beam="2">0</pdfrwt>
<totfact> 0.10520126E+06</totfact>
</mgrwt>
</event>
<event>
 6    1  0.1132867E-002  0.3000000E+03  0.7818608E-02  0.1093470E+00
         21   -1    0    0  501  502  0.00000000000E+00  0.00000000000E+00  0.20641783966E+01  0.20641783966E+01  0.00000000000E+00 0. -1.
         13   -1    0    0    0    0 -0.00000000000E+00 -0.00000000000E+00 -0.10000000000E+04  0.10000000000E+04  0.00000000000E+00 0.  1.
    9000005    2    1    2  501    0 -0.22427647991E+02 -0.27983080390E+02 -0.74367964290E+03  0.74529140610E+03  0.33373890464E+02 0.  0.
         13    1    3    3    0    0  0.60800929580E+01  0.28293395073E+01 -0.13459642189E+03  0.13476338329E+03  0.00000000000E+00 0.  1.
          1    1    3    3  501    0 -0.28507740949E+02 -0.30812419897E+02 -0.60908322101E+03  0.61052802281E+03  0.00000000000E+00 0.  1.
         -3    1    1    2    0  502  0.22427647991E+02  0.27983080390E+02 -0.25425617870E+03  0.25677277229E+03  0.00000000000E+00 0. -1.
<mgrwt>
<rscale>  1 0.30000000E+03</rscale>
<asrwt>0</asrwt>
<pdfrwt beam="1">  1       21 0.75061191E-02 0.30000000E+03</pdfrwt>
<pdfrwt beam="2">0</pdfrwt>
<totfact> 0.14284052E+04</totfact>
</mgrwt>
</event>
<event>
 6    1  0.1132867E-002  0.3000000E+03  0.7818608E-02  0.1093470E+00
         21   -1    0    0  501  502  0.00000000000E+00  0.00000000000E+00  0.99588846760E-01  0.99588846760E-01  0.00000000000E+00 0. -1.
         13   -1    0    0    0    0 -0.00000000000E+00 -0.00000000000E+00 -0.10000000000E+04  0.10000000000E+04  0.00000000000E+00 0.  1.
    9000005    2    1    2  501    0 -0.66287970707E+01 -0.47887995805E+01 -0.69823706957E+03  0.69832542626E+03  0.75181169364E+01 0.  0.
         13    1    3    3    0    0 -0.18607708307E+01 -0.58703760629E+01 -0.42507786862E+03  0.42512247432E+03  0.00000000000E+00 0.  1.
          1    1    3    3  501    0 -0.47680262400E+01  0.10815764824E+01 -0.27315920095E+03  0.27320295194E+03  0.00000000000E+00 0.  1.
         -1    1    1    2    0  502  0.66287970707E+01  0.47887995805E+01 -0.30166334158E+03  0.30177416259E+03  0.00000000000E+00 0. -1.
<mgrwt>
<rscale>  1 0.30000000E+03</rscale>
<asrwt>0</asrwt>
<pdfrwt beam="1">  1       21 0.36214202E-03 0.30000000E+03</pdfrwt>
<pdfrwt beam="2">0</pdfrwt>
<totfact> 0.19739333E+06</totfact>
</mgrwt>
</event>
<event>
 6    1  0.1132867E-002  0.3000000E+03  0.7818608E-02  0.1093470E+00
         21   -1    0    0  501  502  0.00000000000E+00  0.00000000000E+00  0.16241241980E+00  0.16241241980E+00  0.00000000000E+00 0. -1.
         13   -1    0    0    0    0 -0.00000000000E+00 -0.00000000000E+00 -0.10000000000E+04  0.10000000000E+04  0.00000000000E+00 0.  1.
    9000005    2    1    2  501    0  0.95155821589E+01  0.11453981376E+01 -0.81596275127E+03  0.81603796084E+03  0.55573225909E+01 0.  0.
         13    1    3    3    0    0  0.43096376132E+01 -0.11258502577E+01 -0.20283533003E+03  0.20288423207E+03  0.00000000000E+00 0.  1.
          1    1    3    3  501    0  0.52059445457E+01  0.22712483953E+01 -0.61312742124E+03  0.61315372877E+03  0.00000000000E+00 0.  1.
         -1    1    1    2    0  502 -0.95155821589E+01 -0.11453981376E+01 -0.18387483631E+03  0.18412445158E+03  0.00000000000E+00 0. -1.
<mgrwt>
<rscale>  1 0.30000000E+03</rscale>
<asrwt>0</asrwt>
<pdfrwt beam="1">  1       21 0.59059186E-03 0.30000000E+03</pdfrwt>
<pdfrwt beam="2">0</pdfrwt>
<totfact> 0.92537617E+05</totfact>
</mgrwt>
</event>
<event>
 6    1  0.1132867E-002  0.3000000E+03  0.7818608E-02  0.1093470E+00
         21   -1    0    0  501  502  0.00000000000E+00  0.00000000000E+00  0.20122784654E+00  0.20122784654E+00  0.00000000000E+00 0. -1.
         13   -1    0    0    0    0 -0.00000000000E+00 -0.00000000000E+00 -0.10000000000E+04  0.10000000000E+04  0.00000000000E+00 0.  1.
    9000005    2    1    2  501    0  0.95714516186E+01  0.13423492171E+01 -0.83573649706E+03  0.83585450687E+03  0.10190659751E+02 0.  0.
         13    1    3    3    0    0  0.93126757039E+01 -0.26946416843E+01 -0.50297757120E+03  0.50307099315E+03  0.00000000000E+00 0.  1.
          3    1    3    3  501    0  0.25877591461E+00  0.40369909014E+01 -0.33275892586E+03  0.33278351371E+03  0.00000000000E+00 0.  1.
         -3    1    1    2    0  502 -0.95714516186E+01 -0.13423492171E+01 -0.16406227509E+03  0.16434672098E+03  0.00000000000E+00 0. -1.
<mgrwt>
<rscale>  1 0.30000000E+03</rscale>
<asrwt>0</asrwt>
<pdfrwt beam="1">  1       21 0.73173917E-03 0.30000000E+03</pdfrwt>
<pdfrwt beam="2">0</pdfrwt>
<totfact> 0.66165853E+05</totfact>
</mgrwt>
</event>
<event>
 6    1  0.1132867E-002  0.3000000E+03  0.7818608E-02  0.1093470E+00
         21   -1    0    0  501  502  0.00000000000E+00  0.00000000000E+00  0.23499972799E+00  0.23499972799E+00  0.00000000000E+00 0. -1.
         13   -1    0    0    0    0 -0.00000000000E+00 -0.00000000000E+00 -0.10000000000E+04  0.10000000000E+04  0.00000000000E+00 0.  1.
    9000005    2    1    2  501    0 -0.76027950327E+01  0.88013612770E+01 -0.64632600525E+03  0.64660469891E+03  0.15002171201E+02 0.  0.
         13    1    3    3    0    0  0.25521475148E+01  0.66517546506E+01 -0.14884156100E+03  0.14901197797E+03  0.00000000000E+00 0.  1.
          3    1    3    3  501    0 -0.10154942548E+02  0.21496066265E+01 -0.49748444425E+03  0.49759272094E+03  0.00000000000E+00 0.  1.
         -3    1    1    2    0  502  0.76027950327E+01 -0.88013612770E+01 -0.35343899502E+03  0.35363030082E+03  0.00000000000E+00 0. -1.
<mgrwt>
<rscale>  1 0.30000000E+03</rscale>
<asrwt>0</asrwt>
<pdfrwt beam="1">  1       21 0.85454627E-03 0.30000000E+03</pdfrwt>
<pdfrwt beam="2">0</pdfrwt>
<totfact> 0.51822499E+05</totfact>
</mgrwt>
</event>
<event>
 6    1  0.1132867E-002  0.3000000E+03  0.7818608E-02  0.1093470E+00
         21   -1    0    0  501  502  0.00000000000E+00  0.00000000000E+00  0.40190213552E+00  0.40190213552E+00  0.00000000000E+00 0. -1.
         13   -1    0    0    0    0 -0.00000000000E+00 -0.00000000000E+00 -0.10000000000E+04  0.10000000000E+04  0.00000000000E+00 0.  1.
    9000005    2    1    2  501    0  0.12590444223E+02  0.69566699370E+00 -0.88266004970E+03  0.88278595786E+03  0.79549247450E+01 0.  0.
         13    1    3    3    0    0  0.62089531646E+00 -0.22231531459E+01 -0.87377441955E+02  0.87407924604E+02  0.00000000000E+00 0.  1.
          3    1    3    3  501    0  0.11969548906E+02  0.29188201396E+01 -0.79528260774E+03  0.79537803326E+03  0.00000000000E+00 0.  1.
         -3    1    1    2    0  502 -0.12590444223E+02 -0.69566699370E+00 -0.11693804817E+03  0.11761594427E+03  0.00000000000E+00 0. -1.
<mgrwt>
<rscale>  1 0.30000000E+03</rscale>
<asrwt>0</asrwt>
<pdfrwt beam="1">  1       21 0.14614654E-02 0.30000000E+03</pdfrwt>
<pdfrwt beam="2">0</pdfrwt>
<totfact> 0.22034411E+05</totfact>
</mgrwt>
</event>
<event>
 6    1  0.1132867E-002  0.3000000E+03  0.7818608E-02  0.1093470E+00
         21   -1    0    0  501  502  0.00000000000E+00  0.00000000000E+00  0.17832975537E+00  0.17832975537E+00  0.00000000000E+00 0. -1.
         13   -1    0    0    0    0 -0.00000000000E+00 -0.00000000000E+00 -0.10000000000E+04  0.10000000000E+04  0.00000000000E+00 0.  1.
    9000005    2    1    2  501    0  0.55186727065E+01 -0.90324716665E+01 -0.56770692382E+03  0.56793395979E+03  0.12074354304E+02 0.  0.
         13    1    3    3    0    0  0.83938662137E+01 -0.45860828464E+01 -0.24999413011E+03  0.25017704578E+03  0.00000000000E+00 0.  1.
          3    1    3    3  501    0 -0.28751935072E+01 -0.44463888201E+01 -0.31771279371E+03  0.31775691401E+03  0.00000000000E+00 0.  1.
         -1    1    1    2    0  502 -0.55186727065E+01  0.90324716665E+01 -0.43211474642E+03  0.43224436997E+03  0.00000000000E+00 0. -1.
<mgrwt>
<rscale>  1 0.30000000E+03</rscale>
<asrwt>0</asrwt>
<pdfrwt beam="1">  1       21 0.64847321E-03 0.30000000E+03</pdfrwt>
<pdfrwt beam="2">0</pdfrwt>
<totfact> 0.79957784E+05</totfact>
</mgrwt>
</event>
<event>
 6    1  0.1132867E-002  0.3000000E+03  0.7818608E-02  0.1093470E+00
         21   -1    0    0  501  502  0.00000000000E+00  0.00000000000E+00  0.62969356261E+00  0.62969356261E+00  0.00000000000E+00 0. -1.
         13   -1    0    0    0    0 -0.00000000000E+00 -0.00000000000E+00 -0.10000000000E+04  0.10000000000E+04  0.00000000000E+00 0.  1.
    9000005    2    1    2  501    0  0.96798510531E+01 -0.18797583173E+02 -0.76548817882E+03  0.76579379710E+03  0.45759273242E+01 0.  0.
         13    1    3    3    0    0  0.33544409620E+01 -0.43903561110E+01 -0.26766241491E+03  0.26771943496E+03  0.00000000000E+00 0.  1.
          1    1    3    3  501    0  0.63254100911E+01 -0.14407227062E+02 -0.49782576391E+03  0.49807436214E+03  0.00000000000E+00 0.  1.
         -1    1    1    2    0  502 -0.96798510531E+01  0.18797583173E+02 -0.23388212762E+03  0.23483589647E+03  0.00000000000E+00 0. -1.
<mgrwt>
<rscale>  1 0.30000000E+03</rscale>
<asrwt>0</asrwt>
<pdfrwt beam="1">  1       21 0.22897996E-02 0.30000000E+03</pdfrwt>
<pdfrwt beam="2">0</pdfrwt>
<totfact> 0.10624180E+05</totfact>
</mgrwt>
</event>
<event>
 6    1  0.1132867E-002  0.3000000E+03  0.7818608E-02  0.1093470E+00
         21   -1    0    0  501  502  0.00000000000E+00  0.00000000000E+00  0.11843665213E+01  0.11843665213E+01  0.00000000000E+00 0. -1.
         13   -1    0    0    0    0 -0.00000000000E+00 -0.00000000000E+00 -0.10000000000E+04  0.10000000000E+04  0.00000000000E+00 0.  1.
    9000005    2    1    2  501    0 -0.34093490660E+01 -0.98923444913E+01 -0.96746686292E+03  0.96813550033E+03  0.34419965466E+02 0.  0.
         13    1    3    3    0    0  0.53354435314E+01  0.11551992478E+02 -0.37686227691E+03  0.37707703622E+03  0.00000000000E+00 0.  1.
          3    1    3    3  501    0 -0.87447925974E+01 -0.21444336969E+02 -0.59060458601E+03  0.59105846411E+03  0.00000000000E+00 0.  1.
         -3    1    1    2    0  502  0.34093490660E+01  0.98923444913E+01 -0.31348770563E+02  0.33048866189E+02  0.00000000000E+00 0. -1.
<mgrwt>
<rscale>  1 0.30000000E+03</rscale>
<asrwt>0</asrwt>
<pdfrwt beam="1">  1       21 0.43067964E-02 0.30000000E+03</pdfrwt>
<pdfrwt beam="2">0</pdfrwt>
<totfact> 0.37117467E+04</totfact>
</mgrwt>
</event>
<event>
 6    1  0.1132867E-002  0.3000000E+03  0.7818608E-02  0.1093470E+00
         21   -1    0    0  501  502  0.00000000000E+00  0.00000000000E+00  0.89238319198E+00  0.89238319198E+00  0.00000000000E+00 0. -1.
         13   -1    0    0    0    0 -0.00000000000E+00 -0.00000000000E+00 -0.10000000000E+04  0.10000000000E+04  0.00000000000E+00 0.  1.
    9000005    2    1    2  501    0 -0.34990614165E+01  0.20358831480E+02 -0.84711894356E+03  0.84750632696E+03  0.15157316805E+02 0.  0.
         13    1    3    3    0    0 -0.12133407753E+01 -0.69907934186E+00 -0.26258427860E+03  0.26258801243E+03  0.00000000000E+00 0.  1.
          1    1    3    3  501    0 -0.22857206413E+01  0.21057910822E+02 -0.58453466497E+03  0.58491831453E+03  0.00000000000E+00 0.  1.
         -1    1    1    2    0  502  0.34990614165E+01 -0.20358831480E+02 -0.15198867325E+03  0.15338605623E+03  0.00000000000E+00 0. -1.
<mgrwt>
<rscale>  1 0.30000000E+03</rscale>
<asrwt>0</asrwt>
<pdfrwt beam="1">  1       21 0.32450366E-02 0.30000000E+03</pdfrwt>
<pdfrwt beam="2">0</pdfrwt>
<totfact> 0.59702118E+04</totfact>
</mgrwt>
</event>
<event>
 6    1  0.1132867E-002  0.3000000E+03  0.7818608E-02  0.1093470E+00
         21   -1    0    0  501  502  0.00000000000E+00  0.00000000000E+00  0.85312512023E+00  0.85312512023E+00  0.00000000000E+00 0. -1.
         13   -1    0    0    0    0 -0.00000000000E+00 -0.00000000000E+00 -0.10000000000E+04  0.10000000000E+04  0.00000000000E+00 0.  1.
    9000005    2    1    2  501    0  0.48436251841E+01 -0.13296069688E+02 -0.93125396290E+03  0.93150117006E+03  0.16131962851E+02 0.  0.
         13    1    3    3    0    0  0.53942440678E+01 -0.13765919473E-01 -0.10350761115E+03  0.10364807584E+03  0.00000000000E+00 0.  1.
          1    1    3    3  501    0 -0.55061888372E+00 -0.13282303769E+02 -0.82774635175E+03  0.82785309422E+03  0.00000000000E+00 0.  1.
         -3    1    1    2    0  502 -0.48436251841E+01  0.13296069688E+02 -0.67892911977E+02  0.69351955061E+02  0.00000000000E+00 0. -1.
<mgrwt>
<rscale>  1 0.30000000E+03</rscale>
<asrwt>0</asrwt>
<pdfrwt beam="1">  1       21 0.31022797E-02 0.30000000E+03</pdfrwt>
<pdfrwt beam="2">0</pdfrwt>
<totfact> 0.64344517E+04</totfact>
</mgrwt>
</event>
<event>
 6    1  0.1132867E-002  0.3000000E+03  0.7818608E-02  0.1093470E+00
         21   -1    0    0  501  502  0.00000000000E+00  0.00000000000E+00  0.26072696400E+00  0.26072696400E+00  0.00000000000E+00 0. -1.
         13   -1    0    0    0    0 -0.00000000000E+00 -0.00000000000E+00 -0.10000000000E+04  0.10000000000E+04  0.00000000000E+00 0.  1.
    9000005    2    1    2  501    0  0.38962498158E+01  0.11359536642E+02 -0.74872205267E+03  0.74895639999E+03  0.14379050626E+02 0.  0.
         13    1    3    3    0    0  0.75268342273E+00 -0.20684931497E+01 -0.23412506375E+02  0.23515753251E+02  0.00000000000E+00 0.  1.
          1    1    3    3  501    0  0.31435663931E+01  0.13428029792E+02 -0.72530954630E+03  0.72544064674E+03  0.00000000000E+00 0.  1.
         -3    1    1    2    0  502 -0.38962498158E+01 -0.11359536642E+02 -0.25101722036E+03  0.25130432697E+03  0.00000000000E+00 0. -1.
<mgrwt>
<rscale>  1 0.30000000E+03</rscale>
<asrwt>0</asrwt>
<pdfrwt beam="1">  1       21 0.94810005E-03 0.30000000E+03</pdfrwt>
<pdfrwt beam="2">0</pdfrwt>
<totfact> 0.43972803E+05</totfact>
</mgrwt>
</event>
<event>
 6    1  0.1132867E-002  0.3000000E+03  0.7818608E-02  0.1093470E+00
         21   -1    0    0  501  502  0.00000000000E+00  0.00000000000E+00  0.12067839262E+00  0.12067839262E+00  0.00000000000E+00 0. -1.
         13   -1    0    0    0    0 -0.00000000000E+00 -0.00000000000E+00 -0.10000000000E+04  0.10000000000E+04  0.00000000000E+00 0.  1.
    9000005    2    1    2  501    0  0.85471355329E+01  0.34271717968E+01 -0.63201298412E+03  0.63213910102E+03  0.86389758924E+01 0.  0.
         13    1    3    3    0    0  0.83381171163E+00 -0.15853541265E+01 -0.28066034867E+03  0.28066606475E+03  0.00000000000E+00 0.  1.
          3    1    3    3  501    0  0.77133238213E+01  0.50125259233E+01 -0.35135263546E+03  0.35147303627E+03  0.00000000000E+00 0.  1.
         -3    1    1    2    0  502 -0.85471355329E+01 -0.34271717968E+01 -0.36786633748E+03  0.36798157737E+03  0.00000000000E+00 0. -1.
<mgrwt>
<rscale>  1 0.30000000E+03</rscale>
<asrwt>0</asrwt>
<pdfrwt beam="1">  1       21 0.43883144E-03 0.30000000E+03</pdfrwt>
<pdfrwt beam="2">0</pdfrwt>
<totfact> 0.14677621E+06</totfact>
</mgrwt>
</event>
<event>
 6    1  0.1132867E-002  0.3000000E+03  0.7818608E-02  0.1093470E+00
         21   -1    0    0  501  502  0.00000000000E+00  0.00000000000E+00  0.16459946783E+00  0.16459946783E+00  0.00000000000E+00 0. -1.
         13   -1    0    0    0    0 -0.00000000000E+00 -0.00000000000E+00 -0.10000000000E+04  0.10000000000E+04  0.00000000000E+00 0.  1.
    9000005    2    1    2  501    0  0.11254880172E+02 -0.16513204126E-01 -0.60063563334E+03  0.60080620563E+03  0.88464732266E+01 0.  0.
         13    1    3    3    0    0  0.46686758222E+01  0.12606945993E+01 -0.44472948758E+03  0.44475577906E+03  0.00000000000E+00 0.  1.
          1    1    3    3  501    0  0.65862043495E+01 -0.12772078034E+01 -0.15590614575E+03  0.15605042657E+03  0.00000000000E+00 0.  1.
         -1    1    1    2    0  502 -0.11254880172E+02  0.16513204126E-01 -0.39919976720E+03  0.39935839384E+03  0.00000000000E+00 0. -1.
<mgrwt>
<rscale>  1 0.30000000E+03</rscale>
<asrwt>0</asrwt>
<pdfrwt beam="1">  1       21 0.59854478E-03 0.30000000E+03</pdfrwt>
<pdfrwt beam="2">0</pdfrwt>
<totfact> 0.90626335E+05</totfact>
</mgrwt>
</event>
<event>
 6    1  0.1132867E-002  0.3000000E+03  0.7818608E-02  0.1093470E+00
         21   -1    0    0  501  502  0.00000000000E+00  0.00000000000E+00  0.12387324246E+01  0.12387324246E+01  0.00000000000E+00 0. -1.
         13   -1    0    0    0    0 -0.00000000000E+00 -0.00000000000E+00 -0.10000000000E+04  0.10000000000E+04  0.00000000000E+00 0.  1.
    9000005    2    1    2  501    0  0.17629277312E+02 -0.12101408176E+02 -0.81882835408E+03  0.82003970136E+03  0.39089677274E+02 0.  0.
         13    1    3    3    0    0 -0.39321392090E+01 -0.41968056658E+01 -0.59664055048E+03  0.59666826745E+03  0.00000000000E+00 0.  1.
          3    1    3    3  501    0  0.21561416521E+02 -0.79046025107E+01 -0.22218780359E+03  0.22337143391E+03  0.00000000000E+00 0.  1.
         -3    1    1    2    0  502 -0.17629277312E+02  0.12101408176E+02 -0.17993291350E+03  0.18119903106E+03  0.00000000000E+00 0. -1.
<mgrwt>
<rscale>  1 0.30000000E+03</rscale>
<asrwt>0</asrwt>
<pdfrwt beam="1">  1       21 0.45044910E-02 0.30000000E+03</pdfrwt>
<pdfrwt beam="2">0</pdfrwt>
<totfact> 0.34399909E+04</totfact>
</mgrwt>
</event>
<event>
 6    1  0.1132867E-002  0.3000000E+03  0.7818608E-02  0.1093470E+00
         21   -1    0    0  501  502  0.00000000000E+00  0.00000000000E+00  0.70643409064E+00  0.70643409064E+00  0.00000000000E+00 0. -1.
         13   -1    0    0    0    0 -0.00000000000E+00 -0.00000000000E+00 -0.10000000000E+04  0.10000000000E+04  0.00000000000E+00 0.  1.
    9000005    2    1    2  501    0 -0.22655210196E+01 -0.86936387898E+01 -0.84334461493E+03  0.84449892066E+03  0.43215454667E+02 0.  0.
         13    1    3    3    0    0  0.16483893034E+01  0.10443606428E+02 -0.66564107745E+03  0.66572504091E+03  0.00000000000E+00 0.  1.
          3    1    3    3  501    0 -0.39139103230E+01 -0.19137245218E+02 -0.17770353748E+03  0.17877387975E+03  0.00000000000E+00 0.  1.
         -1    1    1    2    0  502  0.22655210196E+01  0.86936387898E+01 -0.15594895098E+03  0.15620751343E+03  0.00000000000E+00 0. -1.
<mgrwt>
<rscale>  1 0.30000000E+03</rscale>
<asrwt>0</asrwt>
<pdfrwt beam="1">  1       21 0.25688567E-02 0.30000000E+03</pdfrwt>
<pdfrwt beam="2">0</pdfrwt>
<totfact> 0.87945212E+04</totfact>
</mgrwt>
</event>
<event>
 6    1  0.1132867E-002  0.3000000E+03  0.7818608E-02  0.1093470E+00
         21   -1    0    0  501  502  0.00000000000E+00  0.00000000000E+00  0.18144140176E+00  0.18144140176E+00  0.00000000000E+00 0. -1.
         13   -1    0    0    0    0 -0.00000000000E+00 -0.00000000000E+00 -0.10000000000E+04  0.10000000000E+04  0.00000000000E+00 0.  1.
    9000005    2    1    2  501    0 -0.15300963709E+01  0.12526693258E+02 -0.49824451636E+03  0.49844866483E+03  0.66493721080E+01 0.  0.
         13    1    3    3    0    0 -0.38321565891E+01  0.56251480510E+01 -0.20130872022E+03  0.20142375369E+03  0.00000000000E+00 0.  1.
          1    1    3    3  501    0  0.23020602181E+01  0.69015452070E+01 -0.29693579614E+03  0.29702491113E+03  0.00000000000E+00 0.  1.
         -3    1    1    2    0  502  0.15300963709E+01 -0.12526693258E+02 -0.50157404224E+03  0.50173277658E+03  0.00000000000E+00 0. -1.
<mgrwt>
<rscale>  1 0.30000000E+03</rscale>
<asrwt>0</asrwt>
<pdfrwt beam="1">  1       21 0.65978831E-03 0.30000000E+03</pdfrwt>
<pdfrwt beam="2">0</pdfrwt>
<totfact> 0.77821818E+05</totfact>
</mgrwt>
</event>
<event>
 6    1  0.1132867E-002  0.3000000E+03  0.7818608E-02  0.1093470E+00
         21   -1    0    0  501  502  0.00000000000E+00  0.00000000000E+00  0.26832796809E+00  0.26832796809E+00  0.00000000000E+00 0. -1.
         13   -1    0    0    0    0 -0.00000000000E+00 -0.00000000000E+00 -0.10000000000E+04  0.10000000000E+04  0.00000000000E+00 0.  1.
    9000005    2    1    2  501    0 -0.16042757392E+01 -0.13433778110E+02 -0.46914533117E+03  0.46950952663E+03  0.12602132246E+02 0.  0.
         13    1    3    3    0    0  0.54087572825E+01 -0.60302629189E+01 -0.17480354297E+03  0.17499113510E+03  0.00000000000E+00 0.  1.
          1    1    3    3  501    0 -0.70130330217E+01 -0.74035151912E+01 -0.29434178820E+03  0.29451839153E+03  0.00000000000E+00 0.  1.
         -3    1    1    2    0  502  0.16042757392E+01  0.13433778110E+02 -0.53058634086E+03  0.53075880134E+03  0.00000000000E+00 0. -1.
<mgrwt>
<rscale>  1 0.30000000E+03</rscale>
<asrwt>0</asrwt>
<pdfrwt beam="1">  1       21 0.97574012E-03 0.30000000E+03</pdfrwt>
<pdfrwt beam="2">0</pdfrwt>
<totfact> 0.42015145E+05</totfact>
</mgrwt>
</event>
<event>
 6    1  0.1132867E-002  0.3000000E+03  0.7818608E-02  0.1093470E+00
         21   -1    0    0  501  502  0.00000000000E+00  0.00000000000E+00  0.16147338052E+00  0.16147338052E+00  0.00000000000E+00 0. -1.
         13   -1    0    0    0    0 -0.00000000000E+00 -0.00000000000E+00 -0.10000000000E+04  0.10000000000E+04  0.00000000000E+00 0.  1.
    9000005    2    1    2  501    0  0.23031379018E+01  0.85023377110E+01 -0.80533921690E+03  0.80546279421E+03  0.11021088110E+02 0.  0.
         13    1    3    3    0    0  0.55724183649E+01  0.91212816571E+01 -0.57206742309E+03  0.57216727116E+03  0.00000000000E+00 0.  1.
          3    1    3    3  501    0 -0.32692804632E+01 -0.61894394609E+00 -0.23327179381E+03  0.23329552305E+03  0.00000000000E+00 0.  1.
         -3    1    1    2    0  502 -0.23031379018E+01 -0.85023377110E+01 -0.19449930972E+03  0.19469867917E+03  0.00000000000E+00 0. -1.
<mgrwt>
<rscale>  1 0.30000000E+03</rscale>
<asrwt>0</asrwt>
<pdfrwt beam="1">  1       21 0.58717717E-03 0.30000000E+03</pdfrwt>
<pdfrwt beam="2">0</pdfrwt>
<totfact> 0.93378320E+05</totfact>
</mgrwt>
</event>
<event>
 6    1  0.1132867E-002  0.3000000E+03  0.7818608E-02  0.1093470E+00
         21   -1    0    0  501  502  0.00000000000E+00  0.00000000000E+00  0.32421601331E+00  0.32421601331E+00  0.00000000000E+00 0. -1.
         13   -1    0    0    0    0 -0.00000000000E+00 -0.00000000000E+00 -0.10000000000E+04  0.10000000000E+04  0.00000000000E+00 0.  1.
    9000005    2    1    2  501    0  0.52821050994E+01  0.13809068664E+02 -0.78488024822E+03  0.78502044643E+03  0.12272958314E+01 0.  0.
         13    1    3    3    0    0  0.10090370331E+01  0.28208924216E+01 -0.13468326847E+03  0.13471658545E+03  0.00000000000E+00 0.  1.
          1    1    3    3  501    0  0.42730680663E+01  0.10988176242E+02 -0.65019697975E+03  0.65030386098E+03  0.00000000000E+00 0.  1.
         -1    1    1    2    0  502 -0.52821050994E+01 -0.13809068664E+02 -0.21479553576E+03  0.21530376958E+03  0.00000000000E+00 0. -1.
<mgrwt>
<rscale>  1 0.30000000E+03</rscale>
<asrwt>0</asrwt>
<pdfrwt beam="1">  1       21 0.11789698E-02 0.30000000E+03</pdfrwt>
<pdfrwt beam="2">0</pdfrwt>
<totfact> 0.31092166E+05</totfact>
</mgrwt>
</event>
<event>
 6    1  0.1346272E-002  0.3000000E+03  0.7818608E-02  0.1093470E+00
         21   -1    0    0  501  502  0.00000000000E+00  0.00000000000E+00  0.17588488793E+01  0.17588488793E+01  0.00000000000E+00 0. -1.
         13   -1    0    0    0    0 -0.00000000000E+00 -0.00000000000E+00 -0.10000000000E+04  0.10000000000E+04  0.00000000000E+00 0.  1.
    9000005    2    1    2  501    0 -0.54367094722E+01  0.20460433036E+02 -0.87914986346E+03  0.88080050098E+03  0.49566651837E+02 0.  0.
         13    1    3    3    0    0 -0.11660472739E+02  0.35495501525E+02 -0.57063398657E+03  0.57185578941E+03  0.00000000000E+00 0.  1.
          3    1    3    3  501    0  0.62237632668E+01 -0.15035068488E+02 -0.30851587690E+03  0.30894471158E+03  0.00000000000E+00 0.  1.
         -1    1    1    2    0  502  0.54367094722E+01 -0.20460433036E+02 -0.11909128766E+03  0.12095834790E+03  0.00000000000E+00 0. -1.
<mgrwt>
<rscale>  1 0.30000000E+03</rscale>
<asrwt>0</asrwt>
<pdfrwt beam="1">  1       21 0.63958276E-02 0.30000000E+03</pdfrwt>
<pdfrwt beam="2">0</pdfrwt>
<totfact> 0.18870353E+04</totfact>
</mgrwt>
</event>
<event>
 6    1  0.1132867E-002  0.3000000E+03  0.7818608E-02  0.1093470E+00
         21   -1    0    0  501  502  0.00000000000E+00  0.00000000000E+00  0.31568047659E+00  0.31568047659E+00  0.00000000000E+00 0. -1.
         13   -1    0    0    0    0 -0.00000000000E+00 -0.00000000000E+00 -0.10000000000E+04  0.10000000000E+04  0.00000000000E+00 0.  1.
    9000005    2    1    2  501    0 -0.13004659251E+02  0.95457974812E+01 -0.58538580897E+03  0.58570321171E+03  0.10557625187E+02 0.  0.
         13    1    3    3    0    0 -0.68575649941E+01  0.33322307461E+01 -0.12373827165E+03  0.12397293991E+03  0.00000000000E+00 0.  1.
          3    1    3    3  501    0 -0.61470942564E+01  0.62135667351E+01 -0.46164753733E+03  0.46173027180E+03  0.00000000000E+00 0.  1.
         -3    1    1    2    0  502  0.13004659251E+02 -0.95457974812E+01 -0.41429851055E+03  0.41461246877E+03  0.00000000000E+00 0. -1.
<mgrwt>
<rscale>  1 0.30000000E+03</rscale>
<asrwt>0</asrwt>
<pdfrwt beam="1">  1       21 0.11479314E-02 0.30000000E+03</pdfrwt>
<pdfrwt beam="2">0</pdfrwt>
<totfact> 0.32443951E+05</totfact>
</mgrwt>
</event>
<event>
 6    1  0.1132867E-002  0.3000000E+03  0.7818608E-02  0.1093470E+00
         21   -1    0    0  501  502  0.00000000000E+00  0.00000000000E+00  0.17564518198E+01  0.17564518198E+01  0.00000000000E+00 0. -1.
         13   -1    0    0    0    0 -0.00000000000E+00 -0.00000000000E+00 -0.10000000000E+04  0.10000000000E+04  0.00000000000E+00 0.  1.
    9000005    2    1    2  501    0  0.20722321404E+02 -0.30305059660E+02 -0.73600055211E+03  0.73695614926E+03  0.77292941077E+01 0.  0.
         13    1    3    3    0    0  0.16370232973E+02 -0.17641440433E+02 -0.49253930172E+03  0.49312692959E+03  0.00000000000E+00 0.  1.
          1    1    3    3  501    0  0.43520884307E+01 -0.12663619227E+02 -0.24346125039E+03  0.24382921968E+03  0.00000000000E+00 0.  1.
         -1    1    1    2    0  502 -0.20722321404E+02  0.30305059660E+02 -0.26224299607E+03  0.26480030256E+03  0.00000000000E+00 0. -1.
<mgrwt>
<rscale>  1 0.30000000E+03</rscale>
<asrwt>0</asrwt>
<pdfrwt beam="1">  1       21 0.63871110E-02 0.30000000E+03</pdfrwt>
<pdfrwt beam="2">0</pdfrwt>
<totfact> 0.18914920E+04</totfact>
</mgrwt>
</event>
<event>
 6    1  0.1132867E-002  0.3000000E+03  0.7818608E-02  0.1093470E+00
         21   -1    0    0  501  502  0.00000000000E+00  0.00000000000E+00  0.17609292593E+00  0.17609292593E+00  0.00000000000E+00 0.  1.
         13   -1    0    0    0    0 -0.00000000000E+00 -0.00000000000E+00 -0.10000000000E+04  0.10000000000E+04  0.00000000000E+00 0.  1.
    9000005    2    1    2  501    0 -0.83915019804E+01  0.33700771273E+01 -0.67266835224E+03  0.67289558360E+03  0.14965947977E+02 0.  0.
         13    1    3    3    0    0 -0.10887116640E+02  0.36936358232E+01 -0.64743327167E+03  0.64753533766E+03  0.00000000000E+00 0.  1.
          3    1    3    3  501    0  0.24956146593E+01 -0.32355869589E+00 -0.25235080574E+02  0.25360245944E+02  0.00000000000E+00 0.  1.
         -3    1    1    2    0  502  0.83915019804E+01 -0.33700771273E+01 -0.32715555483E+03  0.32728050932E+03  0.00000000000E+00 0. -1.
<mgrwt>
<rscale>  1 0.30000000E+03</rscale>
<asrwt>0</asrwt>
<pdfrwt beam="1">  1       21 0.64033926E-03 0.30000000E+03</pdfrwt>
<pdfrwt beam="2">0</pdfrwt>
<totfact> 0.81552845E+05</totfact>
</mgrwt>
</event>
<event>
 6    1  0.1132867E-002  0.3000000E+03  0.7818608E-02  0.1093470E+00
         21   -1    0    0  501  502  0.00000000000E+00  0.00000000000E+00  0.21225929040E+00  0.21225929040E+00  0.00000000000E+00 0. -1.
         13   -1    0    0    0    0 -0.00000000000E+00 -0.00000000000E+00 -0.10000000000E+04  0.10000000000E+04  0.00000000000E+00 0.  1.
    9000005    2    1    2  501    0  0.15125824532E+01  0.13037358687E+02 -0.68493251976E+03  0.68508360177E+03  0.58927218906E+01 0.  0.
         13    1    3    3    0    0  0.52092418173E+00  0.13172138682E+02 -0.65889449879E+03  0.65902635542E+03  0.00000000000E+00 0.  1.
          3    1    3    3  501    0  0.99165827147E+00 -0.13477999544E+00 -0.26038020965E+02  0.26057246354E+02  0.00000000000E+00 0.  1.
         -1    1    1    2    0  502 -0.15125824532E+01 -0.13037358687E+02 -0.31485522095E+03  0.31512865752E+03  0.00000000000E+00 0. -1.
<mgrwt>
<rscale>  1 0.30000000E+03</rscale>
<asrwt>0</asrwt>
<pdfrwt beam="1">  1       21 0.77185359E-03 0.30000000E+03</pdfrwt>
<pdfrwt beam="2">0</pdfrwt>
<totfact> 0.60842019E+05</totfact>
</mgrwt>
</event>
<event>
 6    1  0.1132867E-002  0.3000000E+03  0.7818608E-02  0.1093470E+00
         21   -1    0    0  501  502  0.00000000000E+00  0.00000000000E+00  0.11383008164E+01  0.11383008164E+01  0.00000000000E+00 0. -1.
         13   -1    0    0    0    0 -0.00000000000E+00 -0.00000000000E+00 -0.10000000000E+04  0.10000000000E+04  0.00000000000E+00 0.  1.
    9000005    2    1    2  501    0  0.27693406331E+01 -0.16438652526E+02 -0.93205517351E+03  0.93228330523E+03  0.12141507417E+02 0.  0.
         13    1    3    3    0    0  0.24659169661E+01  0.10950108291E+01 -0.74483097080E+02  0.74531949832E+02  0.00000000000E+00 0.  1.
          1    1    3    3  501    0  0.30342366700E+00 -0.17533663355E+02 -0.85757207643E+03  0.85775135540E+03  0.00000000000E+00 0.  1.
         -3    1    1    2    0  502 -0.27693406331E+01  0.16438652526E+02 -0.66806525670E+02  0.68854995582E+02  0.00000000000E+00 0. -1.
<mgrwt>
<rscale>  1 0.30000000E+03</rscale>
<asrwt>0</asrwt>
<pdfrwt beam="1">  1       21 0.41392844E-02 0.30000000E+03</pdfrwt>
<pdfrwt beam="2">0</pdfrwt>
<totfact> 0.39690087E+04</totfact>
</mgrwt>
</event>
<event>
 6    1  0.1132867E-002  0.3000000E+03  0.7818608E-02  0.1093470E+00
         21   -1    0    0  501  502  0.00000000000E+00  0.00000000000E+00  0.13949456054E+00  0.13949456054E+00  0.00000000000E+00 0. -1.
         13   -1    0    0    0    0 -0.00000000000E+00 -0.00000000000E+00 -0.10000000000E+04  0.10000000000E+04  0.00000000000E+00 0.  1.
    9000005    2    1    2  501    0  0.33950059249E+01 -0.88270813462E+01 -0.69041311630E+03  0.69054761793E+03  0.98131564513E+01 0.  0.
         13    1    3    3    0    0 -0.15275311639E+01 -0.74163163876E+01 -0.52672937358E+03  0.52678379635E+03  0.00000000000E+00 0.  1.
          1    1    3    3  501    0  0.49225370889E+01 -0.14107649587E+01 -0.16368374272E+03  0.16376382158E+03  0.00000000000E+00 0.  1.
         -3    1    1    2    0  502 -0.33950059249E+01  0.88270813462E+01 -0.30944738914E+03  0.30959187663E+03  0.00000000000E+00 0. -1.
<mgrwt>
<rscale>  1 0.30000000E+03</rscale>
<asrwt>0</asrwt>
<pdfrwt beam="1">  1       21 0.50725402E-03 0.30000000E+03</pdfrwt>
<pdfrwt beam="2">0</pdfrwt>
<totfact> 0.11725270E+06</totfact>
</mgrwt>
</event>
<event>
 6    1  0.1132867E-002  0.3000000E+03  0.7818608E-02  0.1093470E+00
         21   -1    0    0  501  502  0.00000000000E+00  0.00000000000E+00  0.37687667065E+00  0.37687667065E+00  0.00000000000E+00 0. -1.
         13   -1    0    0    0    0 -0.00000000000E+00 -0.00000000000E+00 -0.10000000000E+04  0.10000000000E+04  0.00000000000E+00 0.  1.
    9000005    2    1    2  501    0 -0.14854176431E+01 -0.99846047043E+01 -0.87655902242E+03  0.87689946283E+03  0.22249703935E+02 0.  0.
         13    1    3    3    0    0 -0.25158278017E+01 -0.59527044661E+01 -0.84930239496E+03  0.84932698189E+03  0.00000000000E+00 0.  1.
          1    1    3    3  501    0  0.10304101587E+01 -0.40319002382E+01 -0.27256627458E+02  0.27572480937E+02  0.00000000000E+00 0.  1.
         -1    1    1    2    0  502  0.14854176431E+01  0.99846047043E+01 -0.12306410091E+03  0.12347741384E+03  0.00000000000E+00 0. -1.
<mgrwt>
<rscale>  1 0.30000000E+03</rscale>
<asrwt>0</asrwt>
<pdfrwt beam="1">  1       21 0.13704635E-02 0.30000000E+03</pdfrwt>
<pdfrwt beam="2">0</pdfrwt>
<totfact> 0.24433370E+05</totfact>
</mgrwt>
</event>
<event>
 6    1  0.1132867E-002  0.3000000E+03  0.7818608E-02  0.1093470E+00
         21   -1    0    0  501  502  0.00000000000E+00  0.00000000000E+00  0.21710816574E+01  0.21710816574E+01  0.00000000000E+00 0. -1.
         13   -1    0    0    0    0 -0.00000000000E+00 -0.00000000000E+00 -0.10000000000E+04  0.10000000000E+04  0.00000000000E+00 0.  1.
    9000005    2    1    2  501    0  0.24451577893E+02  0.23673062007E+02 -0.16946513536E+03  0.17310844802E+03  0.94767689200E+01 0.  0.
         13    1    3    3    0    0  0.12972401158E+02  0.67091762090E+01 -0.60777774047E+02  0.62507871947E+02  0.00000000000E+00 0.  1.
          1    1    3    3  501    0  0.11479176735E+02  0.16963885798E+02 -0.10868736131E+03  0.11060057608E+03  0.00000000000E+00 0.  1.
         -3    1    1    2    0  502 -0.24451577893E+02 -0.23673062007E+02 -0.82836378299E+03  0.82906263363E+03  0.00000000000E+00 0. -1.
<mgrwt>
<rscale>  1 0.30000000E+03</rscale>
<asrwt>0</asrwt>
<pdfrwt beam="1">  1       21 0.78948590E-02 0.30000000E+03</pdfrwt>
<pdfrwt beam="2">0</pdfrwt>
<totfact> 0.13074065E+04</totfact>
</mgrwt>
</event>
<event>
 6    1  0.1132867E-002  0.3000000E+03  0.7818608E-02  0.1093470E+00
         21   -1    0    0  501  502  0.00000000000E+00  0.00000000000E+00  0.14640643557E+00  0.14640643557E+00  0.00000000000E+00 0.  1.
         13   -1    0    0    0    0 -0.00000000000E+00 -0.00000000000E+00 -0.10000000000E+04  0.10000000000E+04  0.00000000000E+00 0.  1.
    9000005    2    1    2  501    0 -0.66894680511E+01  0.58248247891E+01 -0.43869530752E+03  0.43891802194E+03  0.10806459987E+02 0.  0.
         13    1    3    3    0    0 -0.65220328256E+00  0.76461958419E+01 -0.23876509004E+03  0.23888837958E+03  0.00000000000E+00 0.  1.
          1    1    3    3  501    0 -0.60372647685E+01 -0.18213710528E+01 -0.19993021748E+03  0.20002964235E+03  0.00000000000E+00 0.  1.
         -1    1    1    2    0  502  0.66894680511E+01 -0.58248247891E+01 -0.56115828605E+03  0.56122838450E+03  0.00000000000E+00 0. -1.
<mgrwt>
<rscale>  1 0.30000000E+03</rscale>
<asrwt>0</asrwt>
<pdfrwt beam="1">  1       21 0.53238816E-03 0.30000000E+03</pdfrwt>
<pdfrwt beam="2">0</pdfrwt>
<totfact> 0.10876331E+06</totfact>
</mgrwt>
</event>
<event>
 6    1  0.1132867E-002  0.3000000E+03  0.7818608E-02  0.1093470E+00
         21   -1    0    0  501  502  0.00000000000E+00  0.00000000000E+00  0.16302257019E+00  0.16302257019E+00  0.00000000000E+00 0. -1.
         13   -1    0    0    0    0 -0.00000000000E+00 -0.00000000000E+00 -0.10000000000E+04  0.10000000000E+04  0.00000000000E+00 0.  1.
    9000005    2    1    2  501    0  0.77943668415E+01  0.27261177403E+01 -0.67543628463E+03  0.67565725473E+03  0.15177858954E+02 0.  0.
         13    1    3    3    0    0 -0.74816929273E+00  0.11048453322E+01 -0.53273813848E+01  0.54919425450E+01  0.00000000000E+00 0.  1.
          3    1    3    3  501    0  0.85425361343E+01  0.16212724081E+01 -0.67010890325E+03  0.67016531219E+03  0.00000000000E+00 0.  1.
         -3    1    1    2    0  502 -0.77943668415E+01 -0.27261177403E+01 -0.32440069280E+03  0.32450576784E+03  0.00000000000E+00 0. -1.
<mgrwt>
<rscale>  1 0.30000000E+03</rscale>
<asrwt>0</asrwt>
<pdfrwt beam="1">  1       21 0.59281060E-03 0.30000000E+03</pdfrwt>
<pdfrwt beam="2">0</pdfrwt>
<totfact> 0.91997898E+05</totfact>
</mgrwt>
</event>
<event>
 6    1  0.3682586E-002  0.3000000E+03  0.7818608E-02  0.1093470E+00
         21   -1    0    0  501  502  0.00000000000E+00  0.00000000000E+00  0.71482208730E+01  0.71482208730E+01  0.00000000000E+00 0. -1.
         13   -1    0    0    0    0 -0.00000000000E+00 -0.00000000000E+00 -0.10000000000E+04  0.10000000000E+04  0.00000000000E+00 0.  1.
    9000005    2    1    2  501    0 -0.23348798467E+02  0.20218031297E+01 -0.93825442692E+03  0.94773336628E+03  0.13163551898E+03 0.  0.
         13    1    3    3    0    0  0.32847197884E+02  0.39264916522E+02 -0.20151364222E+03  0.20791445376E+03  0.00000000000E+00 0.  1.
          1    1    3    3  501    0 -0.56195996351E+02 -0.37243113392E+02 -0.73674078469E+03  0.73981891253E+03  0.00000000000E+00 0.  1.
         -1    1    1    2    0  502  0.23348798467E+02 -0.20218031297E+01 -0.54597352211E+02  0.59414854592E+02  0.00000000000E+00 0. -1.
<mgrwt>
<rscale>  1 0.30000000E+03</rscale>
<asrwt>0</asrwt>
<pdfrwt beam="1">  1       21 0.25993585E-01 0.30000000E+03</pdfrwt>
<pdfrwt beam="2">0</pdfrwt>
<totfact> 0.14447178E+03</totfact>
</mgrwt>
</event>
<event>
 6    1  0.1132867E-002  0.3000000E+03  0.7818608E-02  0.1093470E+00
         21   -1    0    0  501  502  0.00000000000E+00  0.00000000000E+00  0.74395121737E+00  0.74395121737E+00  0.00000000000E+00 0. -1.
         13   -1    0    0    0    0 -0.00000000000E+00 -0.00000000000E+00 -0.10000000000E+04  0.10000000000E+04  0.00000000000E+00 0.  1.
    9000005    2    1    2  501    0  0.20296652682E+02 -0.10372965749E+01 -0.82574334877E+03  0.82604510417E+03  0.92415361128E+01 0.  0.
         13    1    3    3    0    0 -0.34389031215E+00  0.88434294536E+00 -0.10343052625E+03  0.10343487847E+03  0.00000000000E+00 0.  1.
          1    1    3    3  501    0  0.20640542994E+02 -0.19216395202E+01 -0.72231282252E+03  0.72261022570E+03  0.00000000000E+00 0.  1.
         -3    1    1    2    0  502 -0.20296652682E+02  0.10372965749E+01 -0.17351270001E+03  0.17469884705E+03  0.00000000000E+00 0. -1.
<mgrwt>
<rscale>  1 0.30000000E+03</rscale>
<asrwt>0</asrwt>
<pdfrwt beam="1">  1       21 0.27052829E-02 0.30000000E+03</pdfrwt>
<pdfrwt beam="2">0</pdfrwt>
<totfact> 0.80746311E+04</totfact>
</mgrwt>
</event>
<event>
 6    1  0.1132867E-002  0.3000000E+03  0.7818608E-02  0.1093470E+00
         21   -1    0    0  501  502  0.00000000000E+00  0.00000000000E+00  0.81089410128E+00  0.81089410128E+00  0.00000000000E+00 0. -1.
         13   -1    0    0    0    0 -0.00000000000E+00 -0.00000000000E+00 -0.10000000000E+04  0.10000000000E+04  0.00000000000E+00 0.  1.
    9000005    2    1    2  501    0 -0.64257308188E+01 -0.14330276959E+02 -0.91654695914E+03  0.91668972391E+03  0.38826215419E+01 0.  0.
         13    1    3    3    0    0 -0.25958906621E+01 -0.98187551038E+01 -0.62758864777E+03  0.62767081931E+03  0.00000000000E+00 0.  1.
          1    1    3    3  501    0 -0.38298401567E+01 -0.45115218554E+01 -0.28895831138E+03  0.28901890460E+03  0.00000000000E+00 0.  1.
         -1    1    1    2    0  502  0.64257308188E+01  0.14330276959E+02 -0.82642146755E+02  0.84121170193E+02  0.00000000000E+00 0. -1.
<mgrwt>
<rscale>  1 0.30000000E+03</rscale>
<asrwt>0</asrwt>
<pdfrwt beam="1">  1       21 0.29487120E-02 0.30000000E+03</pdfrwt>
<pdfrwt beam="2">0</pdfrwt>
<totfact> 0.70005366E+04</totfact>
</mgrwt>
</event>
<event>
 6    1  0.1132867E-002  0.3000000E+03  0.7818608E-02  0.1093470E+00
         21   -1    0    0  501  502  0.00000000000E+00  0.00000000000E+00  0.24382512732E+00  0.24382512732E+00  0.00000000000E+00 0. -1.
         13   -1    0    0    0    0 -0.00000000000E+00 -0.00000000000E+00 -0.10000000000E+04  0.10000000000E+04  0.00000000000E+00 0.  1.
    9000005    2    1    2  501    0 -0.10194808448E+02 -0.44009322495E+01 -0.83980788161E+03  0.83991055084E+03  0.70109261178E+01 0.  0.
         13    1    3    3    0    0 -0.44334193720E+00 -0.62583293113E+00 -0.30226512937E+03  0.30226610238E+03  0.00000000000E+00 0.  1.
          3    1    3    3  501    0 -0.97514665112E+01 -0.37750993183E+01 -0.53754275224E+03  0.53764444846E+03  0.00000000000E+00 0.  1.
         -3    1    1    2    0  502  0.10194808448E+02  0.44009322495E+01 -0.15994829326E+03  0.16033327428E+03  0.00000000000E+00 0. -1.
<mgrwt>
<rscale>  1 0.30000000E+03</rscale>
<asrwt>0</asrwt>
<pdfrwt beam="1">  1       21 0.88663870E-03 0.30000000E+03</pdfrwt>
<pdfrwt beam="2">0</pdfrwt>
<totfact> 0.48891160E+05</totfact>
</mgrwt>
</event>
<event>
 6    1  0.1132867E-002  0.3000000E+03  0.7818608E-02  0.1093470E+00
         21   -1    0    0  501  502  0.00000000000E+00  0.00000000000E+00  0.19937356818E+00  0.19937356818E+00  0.00000000000E+00 0. -1.
         13   -1    0    0    0    0 -0.00000000000E+00 -0.00000000000E+00 -0.10000000000E+04  0.10000000000E+04  0.00000000000E+00 0.  1.
    9000005    2    1    2  501    0  0.96319100575E+01  0.39369366391E+01 -0.25771855208E+03  0.25804435052E+03  0.77305619192E+01 0.  0.
         13    1    3    3    0    0  0.12503750261E+01 -0.17923923271E+01 -0.22261252156E+02  0.22368268943E+02  0.00000000000E+00 0.  1.
          1    1    3    3  501    0  0.83815350314E+01  0.57293289661E+01 -0.23545729993E+03  0.23567608158E+03  0.00000000000E+00 0.  1.
         -1    1    1    2    0  502 -0.96319100575E+01 -0.39369366391E+01 -0.74208207435E+03  0.74215502305E+03  0.00000000000E+00 0. -1.
<mgrwt>
<rscale>  1 0.30000000E+03</rscale>
<asrwt>0</asrwt>
<pdfrwt beam="1">  1       21 0.72499632E-03 0.30000000E+03</pdfrwt>
<pdfrwt beam="2">0</pdfrwt>
<totfact> 0.67134454E+05</totfact>
</mgrwt>
</event>
<event>
 6    1  0.1132867E-002  0.3000000E+03  0.7818608E-02  0.1093470E+00
         21   -1    0    0  501  502  0.00000000000E+00  0.00000000000E+00  0.10670121862E+00  0.10670121862E+00  0.00000000000E+00 0. -1.
         13   -1    0    0    0    0 -0.00000000000E+00 -0.00000000000E+00 -0.10000000000E+04  0.10000000000E+04  0.00000000000E+00 0.  1.
    9000005    2    1    2  501    0  0.47097235944E+01 -0.72139276726E+01 -0.70638342172E+03  0.70647041228E+03  0.69772987634E+01 0.  0.
         13    1    3    3    0    0  0.27301914840E+01  0.61827273084E+00 -0.12821778665E+03  0.12824834119E+03  0.00000000000E+00 0.  1.
          3    1    3    3  501    0  0.19795321104E+01 -0.78322004034E+01 -0.57816563507E+03  0.57822207108E+03  0.00000000000E+00 0.  1.
         -1    1    1    2    0  502 -0.47097235944E+01  0.72139276726E+01 -0.29350987706E+03  0.29363628894E+03  0.00000000000E+00 0. -1.
<mgrwt>
<rscale>  1 0.30000000E+03</rscale>
<asrwt>0</asrwt>
<pdfrwt beam="1">  1       21 0.38800525E-03 0.30000000E+03</pdfrwt>
<pdfrwt beam="2">0</pdfrwt>
<totfact> 0.17749524E+06</totfact>
</mgrwt>
</event>
<event>
 6    1  0.1132867E-002  0.3000000E+03  0.7818608E-02  0.1093470E+00
         21   -1    0    0  501  502  0.00000000000E+00  0.00000000000E+00  0.22548941382E+01  0.22548941382E+01  0.00000000000E+00 0. -1.
         13   -1    0    0    0    0 -0.00000000000E+00 -0.00000000000E+00 -0.10000000000E+04  0.10000000000E+04  0.00000000000E+00 0.  1.
    9000005    2    1    2  501    0 -0.80408340549E+01 -0.61110704187E+01 -0.98843885136E+03  0.98852148353E+03  0.78332839561E+01 0.  0.
         13    1    3    3    0    0 -0.69414833445E+01 -0.62995067085E+01 -0.54073343259E+03  0.54081467537E+03  0.00000000000E+00 0.  1.
          3    1    3    3  501    0 -0.10993507104E+01  0.18843628980E+00 -0.44770541877E+03  0.44770680816E+03  0.00000000000E+00 0.  1.
         -3    1    1    2    0  502  0.80408340549E+01  0.61110704187E+01 -0.93062545021E+01  0.13733410604E+02  0.00000000000E+00 0. -1.
<mgrwt>
<rscale>  1 0.30000000E+03</rscale>
<asrwt>0</asrwt>
<pdfrwt beam="1">  1       21 0.81996323E-02 0.30000000E+03</pdfrwt>
<pdfrwt beam="2">0</pdfrwt>
<totfact> 0.12232267E+04</totfact>
</mgrwt>
</event>
<event>
 6    1  0.1132867E-002  0.3000000E+03  0.7818608E-02  0.1093470E+00
         21   -1    0    0  501  502  0.00000000000E+00  0.00000000000E+00  0.30300763566E+00  0.30300763566E+00  0.00000000000E+00 0. -1.
         13   -1    0    0    0    0 -0.00000000000E+00 -0.00000000000E+00 -0.10000000000E+04  0.10000000000E+04  0.00000000000E+00 0.  1.
    9000005    2    1    2  501    0 -0.13455093146E+02 -0.55204800779E+01 -0.60365210552E+03  0.60399117634E+03  0.14069874277E+02 0.  0.
         13    1    3    3    0    0 -0.29699996198E+01  0.46905508731E+01 -0.18525223085E+03  0.18533540191E+03  0.00000000000E+00 0.  1.
          3    1    3    3  501    0 -0.10485093527E+02 -0.10211030951E+02 -0.41839987467E+03  0.41865577443E+03  0.00000000000E+00 0.  1.
         -1    1    1    2    0  502  0.13455093146E+02  0.55204800779E+01 -0.39604488684E+03  0.39631183130E+03  0.00000000000E+00 0. -1.
<mgrwt>
<rscale>  1 0.30000000E+03</rscale>
<asrwt>0</asrwt>
<pdfrwt beam="1">  1       21 0.11018483E-02 0.30000000E+03</pdfrwt>
<pdfrwt beam="2">0</pdfrwt>
<totfact> 0.34632788E+05</totfact>
</mgrwt>
</event>
<event>
 6    1  0.1132867E-002  0.3000000E+03  0.7818608E-02  0.1093470E+00
         21   -1    0    0  501  502  0.00000000000E+00  0.00000000000E+00  0.63260111961E+00  0.63260111961E+00  0.00000000000E+00 0.  1.
         13   -1    0    0    0    0 -0.00000000000E+00 -0.00000000000E+00 -0.10000000000E+04  0.10000000000E+04  0.00000000000E+00 0.  1.
    9000005    2    1    2  501    0  0.97241086558E+01 -0.15414517025E+02 -0.53025653166E+03  0.53116782995E+03  0.25201360724E+02 0.  0.
         13    1    3    3    0    0  0.16133451080E+02 -0.16646912376E+02 -0.46711045115E+03  0.46768534455E+03  0.00000000000E+00 0.  1.
          1    1    3    3  501    0 -0.64093424240E+01  0.12323953514E+01 -0.63146080514E+02  0.63482485402E+02  0.00000000000E+00 0.  1.
         -3    1    1    2    0  502 -0.97241086558E+01  0.15414517025E+02 -0.46911086722E+03  0.46946477117E+03  0.00000000000E+00 0. -1.
<mgrwt>
<rscale>  1 0.30000000E+03</rscale>
<asrwt>0</asrwt>
<pdfrwt beam="1">  1       21 0.23003726E-02 0.30000000E+03</pdfrwt>
<pdfrwt beam="2">0</pdfrwt>
<totfact> 0.10544213E+05</totfact>
</mgrwt>
</event>
<event>
 6    1  0.1177819E-002  0.3000000E+03  0.7818608E-02  0.1093470E+00
         21   -1    0    0  501  502  0.00000000000E+00  0.00000000000E+00  0.11204767218E+01  0.11204767218E+01  0.00000000000E+00 0.  1.
         13   -1    0    0    0    0 -0.00000000000E+00 -0.00000000000E+00 -0.10000000000E+04  0.10000000000E+04  0.00000000000E+00 0.  1.
    9000005    2    1    2  501    0 -0.23487993728E+01  0.96074247906E+01 -0.94076373862E+03  0.94216910781E+03  0.50481643678E+02 0.  0.
         13    1    3    3    0    0  0.15295101414E+02  0.23648263508E+02 -0.59955108540E+03  0.60021219955E+03  0.00000000000E+00 0.  1.
          3    1    3    3  501    0 -0.17643900787E+02 -0.14040838718E+02 -0.34121265322E+03  0.34195690826E+03  0.00000000000E+00 0.  1.
         -3    1    1    2    0  502  0.23487993728E+01 -0.96074247906E+01 -0.58115784663E+02  0.58951368912E+02  0.00000000000E+00 0. -1.
<mgrwt>
<rscale>  1 0.30000000E+03</rscale>
<asrwt>0</asrwt>
<pdfrwt beam="1">  1       21 0.40744694E-02 0.30000000E+03</pdfrwt>
<pdfrwt beam="2">0</pdfrwt>
<totfact> 0.40760642E+04</totfact>
</mgrwt>
</event>
<event>
 6    1  0.1132867E-002  0.3000000E+03  0.7818608E-02  0.1093470E+00
         21   -1    0    0  501  502  0.00000000000E+00  0.00000000000E+00  0.51978258884E+00  0.51978258884E+00  0.00000000000E+00 0. -1.
         13   -1    0    0    0    0 -0.00000000000E+00 -0.00000000000E+00 -0.10000000000E+04  0.10000000000E+04  0.00000000000E+00 0.  1.
    9000005    2    1    2  501    0 -0.13683419024E+02 -0.10521140954E+02 -0.80935091837E+03  0.80960859717E+03  0.10919761273E+02 0.  0.
         13    1    3    3    0    0  0.17240145958E+01 -0.16214612492E+01 -0.14559741903E+03  0.14561665355E+03  0.00000000000E+00 0.  1.
          1    1    3    3  501    0 -0.15407433619E+02 -0.88996797051E+01 -0.66375349934E+03  0.66399194363E+03  0.00000000000E+00 0.  1.
         -1    1    1    2    0  502  0.13683419024E+02  0.10521140954E+02 -0.19012929904E+03  0.19091118542E+03  0.00000000000E+00 0. -1.
<mgrwt>
<rscale>  1 0.30000000E+03</rscale>
<asrwt>0</asrwt>
<pdfrwt beam="1">  1       21 0.18901225E-02 0.30000000E+03</pdfrwt>
<pdfrwt beam="2">0</pdfrwt>
<totfact> 0.14533451E+05</totfact>
</mgrwt>
</event>
<event>
 6    1  0.1132867E-002  0.3000000E+03  0.7818608E-02  0.1093470E+00
         21   -1    0    0  501  502  0.00000000000E+00  0.00000000000E+00  0.32362234808E+00  0.32362234808E+00  0.00000000000E+00 0. -1.
         13   -1    0    0    0    0 -0.00000000000E+00 -0.00000000000E+00 -0.10000000000E+04  0.10000000000E+04  0.00000000000E+00 0.  1.
    9000005    2    1    2  501    0  0.40904119451E+01 -0.11326523500E+02 -0.83828709676E+03  0.83848567380E+03  0.13709375026E+02 0.  0.
         13    1    3    3    0    0 -0.38820402358E+01 -0.92062746194E+01 -0.44793746248E+03  0.44804887682E+03  0.00000000000E+00 0.  1.
          1    1    3    3  501    0  0.79724521809E+01 -0.21202488809E+01 -0.39034963429E+03  0.39043679698E+03  0.00000000000E+00 0.  1.
         -3    1    1    2    0  502 -0.40904119451E+01  0.11326523500E+02 -0.16138928089E+03  0.16183794855E+03  0.00000000000E+00 0. -1.
<mgrwt>
<rscale>  1 0.30000000E+03</rscale>
<asrwt>0</asrwt>
<pdfrwt beam="1">  1       21 0.11768110E-02 0.30000000E+03</pdfrwt>
<pdfrwt beam="2">0</pdfrwt>
<totfact> 0.31183239E+05</totfact>
</mgrwt>
</event>
<event>
 6    1  0.1132867E-002  0.3000000E+03  0.7818608E-02  0.1093470E+00
         21   -1    0    0  501  502  0.00000000000E+00  0.00000000000E+00  0.12308809586E+00  0.12308809586E+00  0.00000000000E+00 0. -1.
         13   -1    0    0    0    0 -0.00000000000E+00 -0.00000000000E+00 -0.10000000000E+04  0.10000000000E+04  0.00000000000E+00 0.  1.
    9000005    2    1    2  501    0 -0.89296903144E+01  0.19129980372E+01 -0.63922546521E+03  0.63935603731E+03  0.91404671877E+01 0.  0.
         13    1    3    3    0    0 -0.64652882739E+01  0.78360392679E+00 -0.17278229634E+03  0.17290499101E+03  0.00000000000E+00 0.  1.
          3    1    3    3  501    0 -0.24644020406E+01  0.11293941104E+01 -0.46644316888E+03  0.46645104631E+03  0.00000000000E+00 0.  1.
         -3    1    1    2    0  502  0.89296903144E+01 -0.19129980372E+01 -0.36065144669E+03  0.36076705078E+03  0.00000000000E+00 0. -1.
<mgrwt>
<rscale>  1 0.30000000E+03</rscale>
<asrwt>0</asrwt>
<pdfrwt beam="1">  1       21 0.44759402E-03 0.30000000E+03</pdfrwt>
<pdfrwt beam="2">0</pdfrwt>
<totfact> 0.14235636E+06</totfact>
</mgrwt>
</event>
<event>
 6    1  0.1132867E-002  0.3000000E+03  0.7818608E-02  0.1093470E+00
         21   -1    0    0  501  502  0.00000000000E+00  0.00000000000E+00  0.63594986027E+01  0.63594986027E+01  0.00000000000E+00 0. -1.
         13   -1    0    0    0    0 -0.00000000000E+00 -0.00000000000E+00 -0.10000000000E+04  0.10000000000E+04  0.00000000000E+00 0.  1.
    9000005    2    1    2  501    0  0.44950191574E+01  0.15741806699E+02 -0.98757670260E+03  0.98890156828E+03  0.48482559223E+02 0.  0.
         13    1    3    3    0    0 -0.21234362499E+02  0.87809549619E+01 -0.57943410265E+03  0.57988954347E+03  0.00000000000E+00 0.  1.
          1    1    3    3  501    0  0.25729381656E+02  0.69608517367E+01 -0.40814259995E+03  0.40901202480E+03  0.00000000000E+00 0.  1.
         -3    1    1    2    0  502 -0.44950191574E+01 -0.15741806699E+02 -0.60637987969E+01  0.17457930324E+02  0.00000000000E+00 0. -1.
<mgrwt>
<rscale>  1 0.30000000E+03</rscale>
<asrwt>0</asrwt>
<pdfrwt beam="1">  1       21 0.23125498E-01 0.30000000E+03</pdfrwt>
<pdfrwt beam="2">0</pdfrwt>
<totfact> 0.18150597E+03</totfact>
</mgrwt>
</event>
<event>
 6    1  0.1132867E-002  0.3000000E+03  0.7818608E-02  0.1093470E+00
         21   -1    0    0  501  502  0.00000000000E+00  0.00000000000E+00  0.22384266883E+00  0.22384266883E+00  0.00000000000E+00 0. -1.
         13   -1    0    0    0    0 -0.00000000000E+00 -0.00000000000E+00 -0.10000000000E+04  0.10000000000E+04  0.00000000000E+00 0.  1.
    9000005    2    1    2  501    0  0.42607727771E+01  0.10817055972E+02 -0.80966003607E+03  0.80975257857E+03  0.38342672124E+01 0.  0.
         13    1    3    3    0    0  0.31127935468E+00  0.45395075225E+01 -0.39515255241E+03  0.39517874905E+03  0.00000000000E+00 0.  1.
          3    1    3    3  501    0  0.39494934224E+01  0.62775484491E+01 -0.41450748366E+03  0.41457382952E+03  0.00000000000E+00 0.  1.
         -3    1    1    2    0  502 -0.42607727771E+01 -0.10817055972E+02 -0.19011612126E+03  0.19047126410E+03  0.00000000000E+00 0. -1.
<mgrwt>
<rscale>  1 0.30000000E+03</rscale>
<asrwt>0</asrwt>
<pdfrwt beam="1">  1       21 0.81397506E-03 0.30000000E+03</pdfrwt>
<pdfrwt beam="2">0</pdfrwt>
<totfact> 0.55956269E+05</totfact>
</mgrwt>
</event>
<event>
 6    1  0.1132867E-002  0.3000000E+03  0.7818608E-02  0.1093470E+00
         21   -1    0    0  501  502  0.00000000000E+00  0.00000000000E+00  0.12734732813E+00  0.12734732813E+00  0.00000000000E+00 0. -1.
         13   -1    0    0    0    0 -0.00000000000E+00 -0.00000000000E+00 -0.10000000000E+04  0.10000000000E+04  0.00000000000E+00 0.  1.
    9000005    2    1    2  501    0  0.56617841748E+01 -0.86902476018E+01 -0.52853717133E+03  0.52867776129E+03  0.64076206224E+01 0.  0.
         13    1    3    3    0    0  0.28319287806E+01  0.11351055740E+00 -0.96382874338E+02  0.96424536146E+02  0.00000000000E+00 0.  1.
          3    1    3    3  501    0  0.28298553941E+01 -0.88037581592E+01 -0.43215429699E+03  0.43225322514E+03  0.00000000000E+00 0.  1.
         -1    1    1    2    0  502 -0.56617841748E+01  0.86902476018E+01 -0.47133548135E+03  0.47144958604E+03  0.00000000000E+00 0. -1.
<mgrwt>
<rscale>  1 0.30000000E+03</rscale>
<asrwt>0</asrwt>
<pdfrwt beam="1">  1       21 0.46308217E-03 0.30000000E+03</pdfrwt>
<pdfrwt beam="2">0</pdfrwt>
<totfact> 0.13505468E+06</totfact>
</mgrwt>
</event>
<event>
 6    1  0.1132867E-002  0.3000000E+03  0.7818608E-02  0.1093470E+00
         21   -1    0    0  501  502  0.00000000000E+00  0.00000000000E+00  0.41396867039E+00  0.41396867039E+00  0.00000000000E+00 0. -1.
         13   -1    0    0    0    0 -0.00000000000E+00 -0.00000000000E+00 -0.10000000000E+04  0.10000000000E+04  0.00000000000E+00 0.  1.
    9000005    2    1    2  501    0 -0.11589488522E+02 -0.17130725269E+01 -0.88993296223E+03  0.89013683403E+03  0.15021823148E+02 0.  0.
         13    1    3    3    0    0  0.36788916283E+01 -0.64643645340E+00 -0.18585608024E+03  0.18589361121E+03  0.00000000000E+00 0.  1.
          1    1    3    3  501    0 -0.15268380150E+02 -0.10666360735E+01 -0.70407688198E+03  0.70424322282E+03  0.00000000000E+00 0.  1.
         -3    1    1    2    0  502  0.11589488522E+02  0.17130725269E+01 -0.10965306910E+03  0.11027713464E+03  0.00000000000E+00 0. -1.
<mgrwt>
<rscale>  1 0.30000000E+03</rscale>
<asrwt>0</asrwt>
<pdfrwt beam="1">  1       21 0.15053438E-02 0.30000000E+03</pdfrwt>
<pdfrwt beam="2">0</pdfrwt>
<totfact> 0.21009626E+05</totfact>
</mgrwt>
</event>
<event>
 6    1  0.1132867E-002  0.3000000E+03  0.7818608E-02  0.1093470E+00
         21   -1    0    0  501  502  0.00000000000E+00  0.00000000000E+00  0.29319134317E+00  0.29319134317E+00  0.00000000000E+00 0. -1.
         13   -1    0    0    0    0 -0.00000000000E+00 -0.00000000000E+00 -0.10000000000E+04  0.10000000000E+04  0.00000000000E+00 0.  1.
    9000005    2    1    2  501    0 -0.47478902329E+01  0.86727423116E+01 -0.55844412507E+03  0.55891974986E+03  0.20825153948E+02 0.  0.
         13    1    3    3    0    0 -0.42727093610E+01  0.14132841804E+02 -0.50031767759E+03  0.50053548502E+03  0.00000000000E+00 0.  1.
          3    1    3    3  501    0 -0.47518087184E+00 -0.54600994922E+01 -0.58126447487E+02  0.58384264839E+02  0.00000000000E+00 0.  1.
         -1    1    1    2    0  502  0.47478902329E+01 -0.86727423116E+01 -0.44126268358E+03  0.44137344148E+03  0.00000000000E+00 0. -1.
<mgrwt>
<rscale>  1 0.30000000E+03</rscale>
<asrwt>0</asrwt>
<pdfrwt beam="1">  1       21 0.10661526E-02 0.30000000E+03</pdfrwt>
<pdfrwt beam="2">0</pdfrwt>
<totfact> 0.36496792E+05</totfact>
</mgrwt>
</event>
<event>
 6    1  0.1132867E-002  0.3000000E+03  0.7818608E-02  0.1093470E+00
         21   -1    0    0  501  502  0.00000000000E+00  0.00000000000E+00  0.17775669476E+01  0.17775669476E+01  0.00000000000E+00 0. -1.
         13   -1    0    0    0    0 -0.00000000000E+00 -0.00000000000E+00 -0.10000000000E+04  0.10000000000E+04  0.00000000000E+00 0.  1.
    9000005    2    1    2  501    0 -0.33978665845E+02 -0.31565987052E+01 -0.25695734032E+03  0.25972739914E+03  0.16331970758E+02 0.  0.
         13    1    3    3    0    0 -0.14207417758E+02 -0.92669597346E+01 -0.10343666626E+03  0.10481827698E+03  0.00000000000E+00 0.  1.
          3    1    3    3  501    0 -0.19771248087E+02  0.61103610293E+01 -0.15352067406E+03  0.15490912216E+03  0.00000000000E+00 0.  1.
         -3    1    1    2    0  502  0.33978665845E+02  0.31565987052E+01 -0.74126509273E+03  0.74205016781E+03  0.00000000000E+00 0. -1.
<mgrwt>
<rscale>  1 0.30000000E+03</rscale>
<asrwt>0</asrwt>
<pdfrwt beam="1">  1       21 0.64638934E-02 0.30000000E+03</pdfrwt>
<pdfrwt beam="2">0</pdfrwt>
<totfact> 0.18527848E+04</totfact>
</mgrwt>
</event>
<event>
 6    1  0.1132867E-002  0.3000000E+03  0.7818608E-02  0.1093470E+00
         21   -1    0    0  501  502  0.00000000000E+00  0.00000000000E+00  0.45777438207E+00  0.45777438207E+00  0.00000000000E+00 0. -1.
         13   -1    0    0    0    0 -0.00000000000E+00 -0.00000000000E+00 -0.10000000000E+04  0.10000000000E+04  0.00000000000E+00 0.  1.
    9000005    2    1    2  501    0  0.11131946470E+02 -0.74061550392E+01 -0.49910481847E+03  0.49984178398E+03  0.23609697928E+02 0.  0.
         13    1    3    3    0    0  0.70103908677E+01 -0.68693542278E+01 -0.66821212701E+02  0.67538197152E+02  0.00000000000E+00 0.  1.
          3    1    3    3  501    0  0.41215556025E+01 -0.53680081137E+00 -0.43228360576E+03  0.43230358683E+03  0.00000000000E+00 0.  1.
         -1    1    1    2    0  502 -0.11131946470E+02  0.74061550392E+01 -0.50043740715E+03  0.50061599040E+03  0.00000000000E+00 0. -1.
<mgrwt>
<rscale>  1 0.30000000E+03</rscale>
<asrwt>0</asrwt>
<pdfrwt beam="1">  1       21 0.16646376E-02 0.30000000E+03</pdfrwt>
<pdfrwt beam="2">0</pdfrwt>
<totfact> 0.17860203E+05</totfact>
</mgrwt>
</event>
<event>
 6    1  0.1132867E-002  0.3000000E+03  0.7818608E-02  0.1093470E+00
         21   -1    0    0  501  502  0.00000000000E+00  0.00000000000E+00  0.42233360596E+00  0.42233360596E+00  0.00000000000E+00 0. -1.
         13   -1    0    0    0    0 -0.00000000000E+00 -0.00000000000E+00 -0.10000000000E+04  0.10000000000E+04  0.00000000000E+00 0.  1.
    9000005    2    1    2  501    0  0.33268419096E+01  0.10739388946E+02 -0.91122771034E+03  0.91135989996E+03  0.10701626669E+02 0.  0.
         13    1    3    3    0    0 -0.37572174203E+00  0.58816644987E+01 -0.73969601522E+03  0.73971949418E+03  0.00000000000E+00 0.  1.
          1    1    3    3  501    0  0.37025636516E+01  0.48577244470E+01 -0.17153169512E+03  0.17164040578E+03  0.00000000000E+00 0.  1.
         -1    1    1    2    0  502 -0.33268419096E+01 -0.10739388946E+02 -0.88349956054E+02  0.89062433645E+02  0.00000000000E+00 0. -1.
<mgrwt>
<rscale>  1 0.30000000E+03</rscale>
<asrwt>0</asrwt>
<pdfrwt beam="1">  1       21 0.15357618E-02 0.30000000E+03</pdfrwt>
<pdfrwt beam="2">0</pdfrwt>
<totfact> 0.20343107E+05</totfact>
</mgrwt>
</event>
<event>
 6    1  0.1132867E-002  0.3000000E+03  0.7818608E-02  0.1093470E+00
         21   -1    0    0  501  502  0.00000000000E+00  0.00000000000E+00  0.12588719498E+01  0.12588719498E+01  0.00000000000E+00 0. -1.
         13   -1    0    0    0    0 -0.00000000000E+00 -0.00000000000E+00 -0.10000000000E+04  0.10000000000E+04  0.00000000000E+00 0.  1.
    9000005    2    1    2  501    0  0.18048745371E+01 -0.98697935068E+01 -0.97656732029E+03  0.97692066852E+03  0.24281497324E+02 0.  0.
         13    1    3    3    0    0  0.18740599427E+01 -0.14688462487E+02 -0.92729846294E+03  0.92741668219E+03  0.00000000000E+00 0.  1.
          1    1    3    3  501    0 -0.69185405539E-01  0.48186689805E+01 -0.49268857351E+02  0.49503986325E+02  0.00000000000E+00 0.  1.
         -1    1    1    2    0  502 -0.18048745371E+01  0.98697935068E+01 -0.22173807756E+02  0.24338203433E+02  0.00000000000E+00 0. -1.
<mgrwt>
<rscale>  1 0.30000000E+03</rscale>
<asrwt>0</asrwt>
<pdfrwt beam="1">  1       21 0.45777258E-02 0.30000000E+03</pdfrwt>
<pdfrwt beam="2">0</pdfrwt>
<totfact> 0.33470651E+04</totfact>
</mgrwt>
</event>
<event>
 6    1  0.1132867E-002  0.3000000E+03  0.7818608E-02  0.1093470E+00
         21   -1    0    0  501  502  0.00000000000E+00  0.00000000000E+00  0.44370960972E+00  0.44370960972E+00  0.00000000000E+00 0. -1.
         13   -1    0    0    0    0 -0.00000000000E+00 -0.00000000000E+00 -0.10000000000E+04  0.10000000000E+04  0.00000000000E+00 0.  1.
    9000005    2    1    2  501    0  0.11263498789E+02 -0.10998979220E+02 -0.80982167107E+03  0.81005707742E+03  0.11553605101E+02 0.  0.
         13    1    3    3    0    0 -0.31234628626E+00  0.11308961478E+01 -0.20413640794E+03  0.20413977939E+03  0.00000000000E+00 0.  1.
          3    1    3    3  501    0  0.11575845075E+02 -0.12129875368E+02 -0.60568526314E+03  0.60591729803E+03  0.00000000000E+00 0.  1.
         -1    1    1    2    0  502 -0.11263498789E+02  0.10998979220E+02 -0.18973461932E+03  0.19038663219E+03  0.00000000000E+00 0. -1.
<mgrwt>
<rscale>  1 0.30000000E+03</rscale>
<asrwt>0</asrwt>
<pdfrwt beam="1">  1       21 0.16134929E-02 0.30000000E+03</pdfrwt>
<pdfrwt beam="2">0</pdfrwt>
<totfact> 0.18784817E+05</totfact>
</mgrwt>
</event>
<event>
 6    1  0.1132867E-002  0.3000000E+03  0.7818608E-02  0.1093470E+00
         21   -1    0    0  501  502  0.00000000000E+00  0.00000000000E+00  0.17721137861E+00  0.17721137861E+00  0.00000000000E+00 0. -1.
         13   -1    0    0    0    0 -0.00000000000E+00 -0.00000000000E+00 -0.10000000000E+04  0.10000000000E+04  0.00000000000E+00 0.  1.
    9000005    2    1    2  501    0  0.12230707911E+02 -0.23258597767E+00 -0.53503385971E+03  0.53522732940E+03  0.75775186876E+01 0.  0.
         13    1    3    3    0    0 -0.23214831481E+00  0.17285016526E+01 -0.54595085244E+02  0.54622934227E+02  0.00000000000E+00 0.  1.
          3    1    3    3  501    0  0.12462856226E+02 -0.19610876303E+01 -0.48043877447E+03  0.48060439517E+03  0.00000000000E+00 0.  1.
         -1    1    1    2    0  502 -0.12230707911E+02  0.23258597767E+00 -0.46478892891E+03  0.46494988198E+03  0.00000000000E+00 0. -1.
<mgrwt>
<rscale>  1 0.30000000E+03</rscale>
<asrwt>0</asrwt>
<pdfrwt beam="1">  1       21 0.64440637E-03 0.30000000E+03</pdfrwt>
<pdfrwt beam="2">0</pdfrwt>
<totfact> 0.80748878E+05</totfact>
</mgrwt>
</event>
<event>
 6    1  0.1132867E-002  0.3000000E+03  0.7818608E-02  0.1093470E+00
         21   -1    0    0  501  502  0.00000000000E+00  0.00000000000E+00  0.54623178582E+00  0.54623178582E+00  0.00000000000E+00 0. -1.
         13   -1    0    0    0    0 -0.00000000000E+00 -0.00000000000E+00 -0.10000000000E+04  0.10000000000E+04  0.00000000000E+00 0.  1.
    9000005    2    1    2  501    0 -0.15499590149E+02 -0.14474920618E+02 -0.70069317338E+03  0.70103387203E+03  0.52731288893E+01 0.  0.
         13    1    3    3    0    0 -0.69774269592E+01 -0.50076793425E+01 -0.21031336637E+03  0.21048865388E+03  0.00000000000E+00 0.  1.
          3    1    3    3  501    0 -0.85221631900E+01 -0.94672412758E+01 -0.49037980701E+03  0.49054521815E+03  0.00000000000E+00 0.  1.
         -1    1    1    2    0  502  0.15499590149E+02  0.14474920618E+02 -0.29876059483E+03  0.29951235975E+03  0.00000000000E+00 0. -1.
<mgrwt>
<rscale>  1 0.30000000E+03</rscale>
<asrwt>0</asrwt>
<pdfrwt beam="1">  1       21 0.19863016E-02 0.30000000E+03</pdfrwt>
<pdfrwt beam="2">0</pdfrwt>
<totfact> 0.13405529E+05</totfact>
</mgrwt>
</event>
<event>
 6    1  0.1132867E-002  0.3000000E+03  0.7818608E-02  0.1093470E+00
         21   -1    0    0  501  502  0.00000000000E+00  0.00000000000E+00  0.25304913323E+00  0.25304913323E+00  0.00000000000E+00 0. -1.
         13   -1    0    0    0    0 -0.00000000000E+00 -0.00000000000E+00 -0.10000000000E+04  0.10000000000E+04  0.00000000000E+00 0.  1.
    9000005    2    1    2  501    0 -0.12675930200E+02 -0.80578457979E+00 -0.79111076262E+03  0.79123059211E+03  0.53181441591E+01 0.  0.
         13    1    3    3    0    0 -0.17399886325E+01 -0.14860174082E+01 -0.24006129544E+03  0.24007220034E+03  0.00000000000E+00 0.  1.
          3    1    3    3  501    0 -0.10935941567E+02  0.68023282846E+00 -0.55104946719E+03  0.55115839177E+03  0.00000000000E+00 0.  1.
         -1    1    1    2    0  502  0.12675930200E+02  0.80578457979E+00 -0.20863618824E+03  0.20902245702E+03  0.00000000000E+00 0. -1.
<mgrwt>
<rscale>  1 0.30000000E+03</rscale>
<asrwt>0</asrwt>
<pdfrwt beam="1">  1       21 0.92018061E-03 0.30000000E+03</pdfrwt>
<pdfrwt beam="2">0</pdfrwt>
<totfact> 0.46103362E+05</totfact>
</mgrwt>
</event>
<event>
 6    1  0.1132867E-002  0.3000000E+03  0.7818608E-02  0.1093470E+00
         21   -1    0    0  501  502  0.00000000000E+00  0.00000000000E+00  0.97740879259E+00  0.97740879259E+00  0.00000000000E+00 0. -1.
         13   -1    0    0    0    0 -0.00000000000E+00 -0.00000000000E+00 -0.10000000000E+04  0.10000000000E+04  0.00000000000E+00 0.  1.
    9000005    2    1    2  501    0  0.34448485477E+01 -0.10100311443E+02 -0.96921387340E+03  0.96931602964E+03  0.91733116168E+01 0.  0.
         13    1    3    3    0    0  0.33819152684E+01 -0.26103001414E+00 -0.12915388157E+03  0.12919841568E+03  0.00000000000E+00 0.  1.
          3    1    3    3  501    0  0.62933279340E-01 -0.98392814287E+01 -0.84005999183E+03  0.84011761396E+03  0.00000000000E+00 0.  1.
         -3    1    1    2    0  502 -0.34448485477E+01  0.10100311443E+02 -0.29808717808E+02  0.31661379157E+02  0.00000000000E+00 0. -1.
<mgrwt>
<rscale>  1 0.30000000E+03</rscale>
<asrwt>0</asrwt>
<pdfrwt beam="1">  1       21 0.35542213E-02 0.30000000E+03</pdfrwt>
<pdfrwt beam="2">0</pdfrwt>
<totfact> 0.51278897E+04</totfact>
</mgrwt>
</event>
<event>
 6    1  0.1132867E-002  0.3000000E+03  0.7818608E-02  0.1093470E+00
         21   -1    0    0  501  502  0.00000000000E+00  0.00000000000E+00  0.15294630919E+00  0.15294630919E+00  0.00000000000E+00 0. -1.
         13   -1    0    0    0    0 -0.00000000000E+00 -0.00000000000E+00 -0.10000000000E+04  0.10000000000E+04  0.00000000000E+00 0.  1.
    9000005    2    1    2  501    0  0.77815817507E+01  0.62369827435E+01 -0.71738900822E+03  0.71751890657E+03  0.93241193569E+01 0.  0.
         13    1    3    3    0    0  0.76274142432E+01  0.58255055503E+00 -0.33028979780E+03  0.33037836997E+03  0.00000000000E+00 0.  1.
          3    1    3    3  501    0  0.15416750755E+00  0.56544321885E+01 -0.38709921042E+03  0.38714053660E+03  0.00000000000E+00 0.  1.
         -3    1    1    2    0  502 -0.77815817507E+01 -0.62369827435E+01 -0.28245804547E+03  0.28263403974E+03  0.00000000000E+00 0. -1.
<mgrwt>
<rscale>  1 0.30000000E+03</rscale>
<asrwt>0</asrwt>
<pdfrwt beam="1">  1       21 0.55616957E-03 0.30000000E+03</pdfrwt>
<pdfrwt beam="2">0</pdfrwt>
<totfact> 0.10161463E+06</totfact>
</mgrwt>
</event>
<event>
 6    1  0.1132867E-002  0.3000000E+03  0.7818608E-02  0.1093470E+00
         21   -1    0    0  501  502  0.00000000000E+00  0.00000000000E+00  0.10089121197E+01  0.10089121197E+01  0.00000000000E+00 0. -1.
         13   -1    0    0    0    0 -0.00000000000E+00 -0.00000000000E+00 -0.10000000000E+04  0.10000000000E+04  0.00000000000E+00 0.  1.
    9000005    2    1    2  501    0  0.82033707719E+01 -0.80457969997E+01 -0.96235363753E+03  0.96261186914E+03  0.19106459678E+02 0.  0.
         13    1    3    3    0    0  0.67640724379E+01 -0.14046957425E+01 -0.86233030870E+03  0.86235798086E+03  0.00000000000E+00 0.  1.
          3    1    3    3  501    0  0.14392983341E+01 -0.66411012572E+01 -0.10002332883E+03  0.10025388828E+03  0.00000000000E+00 0.  1.
         -3    1    1    2    0  502 -0.82033707719E+01  0.80457969997E+01 -0.36637450351E+02  0.38397042980E+02  0.00000000000E+00 0. -1.
<mgrwt>
<rscale>  1 0.30000000E+03</rscale>
<asrwt>0</asrwt>
<pdfrwt beam="1">  1       21 0.36687791E-02 0.30000000E+03</pdfrwt>
<pdfrwt beam="2">0</pdfrwt>
<totfact> 0.48621998E+04</totfact>
</mgrwt>
</event>
<event>
 6    1  0.1132867E-002  0.3000000E+03  0.7818608E-02  0.1093470E+00
         21   -1    0    0  501  502  0.00000000000E+00  0.00000000000E+00  0.14154900442E+01  0.14154900442E+01  0.00000000000E+00 0. -1.
         13   -1    0    0    0    0 -0.00000000000E+00 -0.00000000000E+00 -0.10000000000E+04  0.10000000000E+04  0.00000000000E+00 0.  1.
    9000005    2    1    2  501    0 -0.16123472455E+02 -0.14848643130E+02 -0.90553693798E+03  0.90582103823E+03  0.58445435698E+01 0.  0.
         13    1    3    3    0    0 -0.10720277225E+02 -0.12317793727E+02 -0.73033928664E+03  0.73052181760E+03  0.00000000000E+00 0.  1.
          1    1    3    3  501    0 -0.54031952309E+01 -0.25308494022E+01 -0.17519765134E+03  0.17529922063E+03  0.00000000000E+00 0.  1.
         -1    1    1    2    0  502  0.16123472455E+02  0.14848643130E+02 -0.93047571978E+02  0.95594451815E+02  0.00000000000E+00 0. -1.
<mgrwt>
<rscale>  1 0.30000000E+03</rscale>
<asrwt>0</asrwt>
<pdfrwt beam="1">  1       21 0.51472474E-02 0.30000000E+03</pdfrwt>
<pdfrwt beam="2">0</pdfrwt>
<totfact> 0.27413121E+04</totfact>
</mgrwt>
</event>
<event>
 6    1  0.1132867E-002  0.3000000E+03  0.7818608E-02  0.1093470E+00
         21   -1    0    0  501  502  0.00000000000E+00  0.00000000000E+00  0.16679898448E+00  0.16679898448E+00  0.00000000000E+00 0. -1.
         13   -1    0    0    0    0 -0.00000000000E+00 -0.00000000000E+00 -0.10000000000E+04  0.10000000000E+04  0.00000000000E+00 0.  1.
    9000005    2    1    2  501    0 -0.91087154176E+01 -0.70130773309E+01 -0.48614903102E+03  0.48635401358E+03  0.81972071396E+01 0.  0.
         13    1    3    3    0    0 -0.76805900244E+01 -0.69582586833E+01 -0.47508880098E+03  0.47520182833E+03  0.00000000000E+00 0.  1.
          3    1    3    3  501    0 -0.14281253931E+01 -0.54818647659E-01 -0.11060230044E+02  0.11152185250E+02  0.00000000000E+00 0.  1.
         -3    1    1    2    0  502  0.91087154176E+01  0.70130773309E+01 -0.51368416999E+03  0.51381278541E+03  0.00000000000E+00 0. -1.
<mgrwt>
<rscale>  1 0.30000000E+03</rscale>
<asrwt>0</asrwt>
<pdfrwt beam="1">  1       21 0.60654304E-03 0.30000000E+03</pdfrwt>
<pdfrwt beam="2">0</pdfrwt>
<totfact> 0.88767619E+05</totfact>
</mgrwt>
</event>
<event>
 6    1  0.1132867E-002  0.3000000E+03  0.7818608E-02  0.1093470E+00
         21   -1    0    0  501  502  0.00000000000E+00  0.00000000000E+00  0.35436632950E+00  0.35436632950E+00  0.00000000000E+00 0. -1.
         13   -1    0    0    0    0 -0.00000000000E+00 -0.00000000000E+00 -0.10000000000E+04  0.10000000000E+04  0.00000000000E+00 0.  1.
    9000005    2    1    2  501    0 -0.27066018217E+00  0.15413275850E+02 -0.77768332129E+03  0.77785737658E+03  0.57539344051E+01 0.  0.
         13    1    3    3    0    0 -0.27194402343E+01  0.45911351133E+01 -0.23380663369E+03  0.23386751770E+03  0.00000000000E+00 0.  1.
          3    1    3    3  501    0  0.24487800522E+01  0.10822140737E+02 -0.54387668759E+03  0.54398985888E+03  0.00000000000E+00 0.  1.
         -1    1    1    2    0  502  0.27066018217E+00 -0.15413275850E+02 -0.22196231239E+03  0.22249698975E+03  0.00000000000E+00 0. -1.
<mgrwt>
<rscale>  1 0.30000000E+03</rscale>
<asrwt>0</asrwt>
<pdfrwt beam="1">  1       21 0.12886076E-02 0.30000000E+03</pdfrwt>
<pdfrwt beam="2">0</pdfrwt>
<totfact> 0.26971293E+05</totfact>
</mgrwt>
</event>
<event>
 6    1  0.1132867E-002  0.3000000E+03  0.7818608E-02  0.1093470E+00
         21   -1    0    0  501  502  0.00000000000E+00  0.00000000000E+00  0.35579858018E+00  0.35579858018E+00  0.00000000000E+00 0. -1.
         13   -1    0    0    0    0 -0.00000000000E+00 -0.00000000000E+00 -0.10000000000E+04  0.10000000000E+04  0.00000000000E+00 0.  1.
    9000005    2    1    2  501    0  0.10248944402E+02  0.97783714406E+00 -0.91795675248E+03  0.91802210960E+03  0.37412916865E+01 0.  0.
         13    1    3    3    0    0  0.36723694964E+00  0.98656342195E+00 -0.10603394674E+03  0.10603917215E+03  0.00000000000E+00 0.  1.
          1    1    3    3  501    0  0.98817074522E+01 -0.87262778857E-02 -0.81192280574E+03  0.81198293745E+03  0.00000000000E+00 0.  1.
         -1    1    1    2    0  502 -0.10248944402E+02 -0.97783714406E+00 -0.81687448939E+02  0.82333688980E+02  0.00000000000E+00 0. -1.
<mgrwt>
<rscale>  1 0.30000000E+03</rscale>
<asrwt>0</asrwt>
<pdfrwt beam="1">  1       21 0.12938157E-02 0.30000000E+03</pdfrwt>
<pdfrwt beam="2">0</pdfrwt>
<totfact> 0.26797506E+05</totfact>
</mgrwt>
</event>
<event>
 6    1  0.1132867E-002  0.3000000E+03  0.7818608E-02  0.1093470E+00
         21   -1    0    0  501  502  0.00000000000E+00  0.00000000000E+00  0.22071160871E+00  0.22071160871E+00  0.00000000000E+00 0. -1.
         13   -1    0    0    0    0 -0.00000000000E+00 -0.00000000000E+00 -0.10000000000E+04  0.10000000000E+04  0.00000000000E+00 0.  1.
    9000005    2    1    2  501    0  0.85431068710E+01  0.56462181985E+01 -0.83859415357E+03  0.83871061241E+03  0.95117042071E+01 0.  0.
         13    1    3    3    0    0  0.93722675895E+01  0.62870727314E+01 -0.82461852339E+03  0.82469574741E+03  0.00000000000E+00 0.  1.
          1    1    3    3  501    0 -0.82916071856E+00 -0.64085453292E+00 -0.13975630184E+02  0.14014865003E+02  0.00000000000E+00 0.  1.
         -3    1    1    2    0  502 -0.85431068710E+01 -0.56462181985E+01 -0.16118513482E+03  0.16151009920E+03  0.00000000000E+00 0. -1.
<mgrwt>
<rscale>  1 0.30000000E+03</rscale>
<asrwt>0</asrwt>
<pdfrwt beam="1">  1       21 0.80258936E-03 0.30000000E+03</pdfrwt>
<pdfrwt beam="2">0</pdfrwt>
<totfact> 0.57213074E+05</totfact>
</mgrwt>
</event>
<event>
 6    1  0.1132867E-002  0.3000000E+03  0.7818608E-02  0.1093470E+00
         21   -1    0    0  501  502  0.00000000000E+00  0.00000000000E+00  0.57358902645E+00  0.57358902645E+00  0.00000000000E+00 0. -1.
         13   -1    0    0    0    0 -0.00000000000E+00 -0.00000000000E+00 -0.10000000000E+04  0.10000000000E+04  0.00000000000E+00 0.  1.
    9000005    2    1    2  501    0  0.55374022874E+01  0.82685144462E+01 -0.95447382759E+03  0.95453267344E+03  0.36477326919E+01 0.  0.
         13    1    3    3    0    0  0.10079307778E+01  0.30608558717E+01 -0.18656060846E+03  0.18658843853E+03  0.00000000000E+00 0.  1.
          1    1    3    3  501    0  0.45294715096E+01  0.52076585746E+01 -0.76791321913E+03  0.76794423491E+03  0.00000000000E+00 0.  1.
         -1    1    1    2    0  502 -0.55374022874E+01 -0.82685144462E+01 -0.44952583383E+02  0.46040915587E+02  0.00000000000E+00 0. -1.
<mgrwt>
<rscale>  1 0.30000000E+03</rscale>
<asrwt>0</asrwt>
<pdfrwt beam="1">  1       21 0.20857827E-02 0.30000000E+03</pdfrwt>
<pdfrwt beam="2">0</pdfrwt>
<totfact> 0.12378180E+05</totfact>
</mgrwt>
</event>
<event>
 6    1  0.1132867E-002  0.3000000E+03  0.7818608E-02  0.1093470E+00
         21   -1    0    0  501  502  0.00000000000E+00  0.00000000000E+00  0.66146080074E-01  0.66146080074E-01  0.00000000000E+00 0. -1.
         13   -1    0    0    0    0 -0.00000000000E+00 -0.00000000000E+00 -0.10000000000E+04  0.10000000000E+04  0.00000000000E+00 0.  1.
    9000005    2    1    2  501    0  0.62233809141E+01 -0.42919250229E+01 -0.53982266519E+03  0.53989285581E+03  0.43168047630E+01 0.  0.
         13    1    3    3    0    0  0.23850048321E+01  0.38068135872E+00 -0.10285943820E+03  0.10288778933E+03  0.00000000000E+00 0.  1.
          1    1    3    3  501    0  0.38383760819E+01 -0.46726063816E+01 -0.43696322699E+03  0.43700506647E+03  0.00000000000E+00 0.  1.
         -3    1    1    2    0  502 -0.62233809141E+01  0.42919250229E+01 -0.46011118873E+03  0.46017329027E+03  0.00000000000E+00 0. -1.
<mgrwt>
<rscale>  1 0.30000000E+03</rscale>
<asrwt>0</asrwt>
<pdfrwt beam="1">  1       21 0.24053171E-03 0.30000000E+03</pdfrwt>
<pdfrwt beam="2">0</pdfrwt>
<totfact> 0.36918899E+06</totfact>
</mgrwt>
</event>
<event>
 6    1  0.1132867E-002  0.3000000E+03  0.7818608E-02  0.1093470E+00
         21   -1    0    0  501  502  0.00000000000E+00  0.00000000000E+00  0.21115550115E+00  0.21115550115E+00  0.00000000000E+00 0. -1.
         13   -1    0    0    0    0 -0.00000000000E+00 -0.00000000000E+00 -0.10000000000E+04  0.10000000000E+04  0.00000000000E+00 0.  1.
    9000005    2    1    2  501    0  0.76114053596E+01 -0.63361809111E+01 -0.84523438951E+03  0.84533972419E+03  0.89440147482E+01 0.  0.
         13    1    3    3    0    0  0.59110475765E+01 -0.95338194687E+00 -0.22501452308E+03  0.22509416922E+03  0.00000000000E+00 0.  1.
          1    1    3    3  501    0  0.17003577831E+01 -0.53827989643E+01 -0.62021986643E+03  0.62024555497E+03  0.00000000000E+00 0.  1.
         -1    1    1    2    0  502 -0.76114053596E+01  0.63361809111E+01 -0.15455445499E+03  0.15487143132E+03  0.00000000000E+00 0. -1.
<mgrwt>
<rscale>  1 0.30000000E+03</rscale>
<asrwt>0</asrwt>
<pdfrwt beam="1">  1       21 0.76783981E-03 0.30000000E+03</pdfrwt>
<pdfrwt beam="2">0</pdfrwt>
<totfact> 0.61343144E+05</totfact>
</mgrwt>
</event>
<event>
 6    1  0.1132867E-002  0.3000000E+03  0.7818608E-02  0.1093470E+00
         21   -1    0    0  501  502  0.00000000000E+00  0.00000000000E+00  0.40947917224E+00  0.40947917224E+00  0.00000000000E+00 0. -1.
         13   -1    0    0    0    0 -0.00000000000E+00 -0.00000000000E+00 -0.10000000000E+04  0.10000000000E+04  0.00000000000E+00 0.  1.
    9000005    2    1    2  501    0 -0.18080996914E+02 -0.53748292538E+01 -0.35209906422E+03  0.35264331949E+03  0.52676866979E+01 0.  0.
         13    1    3    3    0    0 -0.16441685570E+02 -0.46308686805E+01 -0.27919954112E+03  0.27972157180E+03  0.00000000000E+00 0.  1.
          3    1    3    3  501    0 -0.16393113439E+01 -0.74396057332E+00 -0.72899523101E+02  0.72921747698E+02  0.00000000000E+00 0.  1.
         -3    1    1    2    0  502  0.18080996914E+02  0.53748292538E+01 -0.64749145661E+03  0.64776615968E+03  0.00000000000E+00 0. -1.
<mgrwt>
<rscale>  1 0.30000000E+03</rscale>
<asrwt>0</asrwt>
<pdfrwt beam="1">  1       21 0.14890183E-02 0.30000000E+03</pdfrwt>
<pdfrwt beam="2">0</pdfrwt>
<totfact> 0.21381841E+05</totfact>
</mgrwt>
</event>
<event>
 6    1  0.1132867E-002  0.3000000E+03  0.7818608E-02  0.1093470E+00
         21   -1    0    0  501  502  0.00000000000E+00  0.00000000000E+00  0.20223950889E+00  0.20223950889E+00  0.00000000000E+00 0. -1.
         13   -1    0    0    0    0 -0.00000000000E+00 -0.00000000000E+00 -0.10000000000E+04  0.10000000000E+04  0.00000000000E+00 0.  1.
    9000005    2    1    2  501    0  0.13587247814E+02  0.26155562392E+01 -0.52924220442E+03  0.52944329293E+03  0.46298000315E+01 0.  0.
         13    1    3    3    0    0  0.64282968990E+01 -0.84220053038E+00 -0.27686401609E+03  0.27693991354E+03  0.00000000000E+00 0.  1.
          1    1    3    3  501    0  0.71589509149E+01  0.34577567696E+01 -0.25237818833E+03  0.25250337939E+03  0.00000000000E+00 0.  1.
         -3    1    1    2    0  502 -0.13587247814E+02 -0.26155562392E+01 -0.47055555607E+03  0.47075894658E+03  0.00000000000E+00 0. -1.
<mgrwt>
<rscale>  1 0.30000000E+03</rscale>
<asrwt>0</asrwt>
<pdfrwt beam="1">  1       21 0.73541795E-03 0.30000000E+03</pdfrwt>
<pdfrwt beam="2">0</pdfrwt>
<totfact> 0.65646876E+05</totfact>
</mgrwt>
</event>
<event>
 6    1  0.1132867E-002  0.3000000E+03  0.7818608E-02  0.1093470E+00
         21   -1    0    0  501  502  0.00000000000E+00  0.00000000000E+00  0.31741244786E+00  0.31741244786E+00  0.00000000000E+00 0. -1.
         13   -1    0    0    0    0 -0.00000000000E+00 -0.00000000000E+00 -0.10000000000E+04  0.10000000000E+04  0.00000000000E+00 0.  1.
    9000005    2    1    2  501    0 -0.70577239856E+01  0.64442067150E+01 -0.15566902850E+03  0.15624974506E+03  0.94761346927E+01 0.  0.
         13    1    3    3    0    0 -0.76831296598E+01  0.38118813100E+01 -0.14462646211E+03  0.14488055239E+03  0.00000000000E+00 0.  1.
          1    1    3    3  501    0  0.62540567422E+00  0.26323254050E+01 -0.11042566393E+02  0.11369192665E+02  0.00000000000E+00 0.  1.
         -3    1    1    2    0  502  0.70577239856E+01 -0.64442067150E+01 -0.84401355905E+03  0.84406766739E+03  0.00000000000E+00 0. -1.
<mgrwt>
<rscale>  1 0.30000000E+03</rscale>
<asrwt>0</asrwt>
<pdfrwt beam="1">  1       21 0.11542295E-02 0.30000000E+03</pdfrwt>
<pdfrwt beam="2">0</pdfrwt>
<totfact> 0.32162118E+05</totfact>
</mgrwt>
</event>
<event>
 6    1  0.1132867E-002  0.3000000E+03  0.7818608E-02  0.1093470E+00
         21   -1    0    0  501  502  0.00000000000E+00  0.00000000000E+00  0.21143189947E+00  0.21143189947E+00  0.00000000000E+00 0. -1.
         13   -1    0    0    0    0 -0.00000000000E+00 -0.00000000000E+00 -0.10000000000E+04  0.10000000000E+04  0.00000000000E+00 0.  1.
    9000005    2    1    2  501    0  0.95789869539E+00 -0.95506396750E+01 -0.86363955194E+03  0.86372448421E+03  0.73876018125E+01 0.  0.
         13    1    3    3    0    0 -0.26187827188E+01 -0.17347837001E+01 -0.33870360129E+03  0.33871816754E+03  0.00000000000E+00 0.  1.
          1    1    3    3  501    0  0.35766814142E+01 -0.78158559749E+01 -0.52493595066E+03  0.52500631667E+03  0.00000000000E+00 0.  1.
         -3    1    1    2    0  502 -0.95789869539E+00  0.95506396750E+01 -0.13614901616E+03  0.13648694769E+03  0.00000000000E+00 0. -1.
<mgrwt>
<rscale>  1 0.30000000E+03</rscale>
<asrwt>0</asrwt>
<pdfrwt beam="1">  1       21 0.76884489E-03 0.30000000E+03</pdfrwt>
<pdfrwt beam="2">0</pdfrwt>
<totfact> 0.61217037E+05</totfact>
</mgrwt>
</event>
<event>
 6    1  0.1132867E-002  0.3000000E+03  0.7818608E-02  0.1093470E+00
         21   -1    0    0  501  502  0.00000000000E+00  0.00000000000E+00  0.36936445937E+00  0.36936445937E+00  0.00000000000E+00 0. -1.
         13   -1    0    0    0    0 -0.00000000000E+00 -0.00000000000E+00 -0.10000000000E+04  0.10000000000E+04  0.00000000000E+00 0.  1.
    9000005    2    1    2  501    0 -0.12173013344E+02  0.27243677384E+01 -0.86750469868E+03  0.86765588502E+03  0.10330931495E+02 0.  0.
         13    1    3    3    0    0 -0.13215443303E+02  0.44520508371E+01 -0.69888796070E+03  0.69902707409E+03  0.00000000000E+00 0.  1.
          3    1    3    3  501    0  0.10424299592E+01 -0.17276830987E+01 -0.16861673798E+03  0.16862881093E+03  0.00000000000E+00 0.  1.
         -1    1    1    2    0  502  0.12173013344E+02 -0.27243677384E+01 -0.13212593686E+03  0.13271347944E+03  0.00000000000E+00 0. -1.
<mgrwt>
<rscale>  1 0.30000000E+03</rscale>
<asrwt>0</asrwt>
<pdfrwt beam="1">  1       21 0.13431463E-02 0.30000000E+03</pdfrwt>
<pdfrwt beam="2">0</pdfrwt>
<totfact> 0.25236158E+05</totfact>
</mgrwt>
</event>
<event>
 6    1  0.1132867E-002  0.3000000E+03  0.7818608E-02  0.1093470E+00
         21   -1    0    0  501  502  0.00000000000E+00  0.00000000000E+00  0.60964006900E+00  0.60964006900E+00  0.00000000000E+00 0. -1.
         13   -1    0    0    0    0 -0.00000000000E+00 -0.00000000000E+00 -0.10000000000E+04  0.10000000000E+04  0.00000000000E+00 0.  1.
    9000005    2    1    2  501    0  0.97687362581E+01 -0.18744446355E+02 -0.75090906256E+03  0.75123093685E+03  0.60595185364E+01 0.  0.
         13    1    3    3    0    0  0.32075191442E+01 -0.44584185527E+01 -0.11943330619E+03  0.11955952619E+03  0.00000000000E+00 0.  1.
          3    1    3    3  501    0  0.65612171139E+01 -0.14286027802E+02 -0.63147575637E+03  0.63167141065E+03  0.00000000000E+00 0.  1.
         -3    1    1    2    0  502 -0.97687362581E+01  0.18744446355E+02 -0.24848129737E+03  0.24937870322E+03  0.00000000000E+00 0. -1.
<mgrwt>
<rscale>  1 0.30000000E+03</rscale>
<asrwt>0</asrwt>
<pdfrwt beam="1">  1       21 0.22168777E-02 0.30000000E+03</pdfrwt>
<pdfrwt beam="2">0</pdfrwt>
<totfact> 0.11203016E+05</totfact>
</mgrwt>
</event>
<event>
 6    1  0.1132867E-002  0.3000000E+03  0.7818608E-02  0.1093470E+00
         21   -1    0    0  501  502  0.00000000000E+00  0.00000000000E+00  0.30533320762E+00  0.30533320762E+00  0.00000000000E+00 0. -1.
         13   -1    0    0    0    0 -0.00000000000E+00 -0.00000000000E+00 -0.10000000000E+04  0.10000000000E+04  0.00000000000E+00 0.  1.
    9000005    2    1    2  501    0 -0.94528552141E+01  0.92076865333E-01 -0.87431654727E+03  0.87457133699E+03  0.18874154411E+02 0.  0.
         13    1    3    3    0    0 -0.74454347698E+01  0.90206838402E+01 -0.55729550867E+03  0.55741823725E+03  0.00000000000E+00 0.  1.
          3    1    3    3  501    0 -0.20074204443E+01 -0.89286069749E+01 -0.31702103860E+03  0.31715309974E+03  0.00000000000E+00 0.  1.
         -3    1    1    2    0  502  0.94528552141E+01 -0.92076865333E-01 -0.12537811952E+03  0.12573399622E+03  0.00000000000E+00 0. -1.
<mgrwt>
<rscale>  1 0.30000000E+03</rscale>
<asrwt>0</asrwt>
<pdfrwt beam="1">  1       21 0.11103049E-02 0.30000000E+03</pdfrwt>
<pdfrwt beam="2">0</pdfrwt>
<totfact> 0.34213624E+05</totfact>
</mgrwt>
</event>
<event>
 6    1  0.1132867E-002  0.3000000E+03  0.7818608E-02  0.1093470E+00
         21   -1    0    0  501  502  0.00000000000E+00  0.00000000000E+00  0.19338378793E+00  0.19338378793E+00  0.00000000000E+00 0. -1.
         13   -1    0    0    0    0 -0.00000000000E+00 -0.00000000000E+00 -0.10000000000E+04  0.10000000000E+04  0.00000000000E+00 0.  1.
    9000005    2    1    2  501    0 -0.68478451841E+01  0.61899931847E+01 -0.85082128895E+03  0.85092236604E+03  0.93165606296E+01 0.  0.
         13    1    3    3    0    0 -0.40628535530E+01 -0.19434290823E+01 -0.31171688922E+03  0.31174942297E+03  0.00000000000E+00 0.  1.
          1    1    3    3  501    0 -0.27849916311E+01  0.81334222670E+01 -0.53910439973E+03  0.53917294307E+03  0.00000000000E+00 0.  1.
         -3    1    1    2    0  502  0.68478451841E+01 -0.61899931847E+01 -0.14898532726E+03  0.14927101774E+03  0.00000000000E+00 0. -1.
<mgrwt>
<rscale>  1 0.30000000E+03</rscale>
<asrwt>0</asrwt>
<pdfrwt beam="1">  1       21 0.70321526E-03 0.30000000E+03</pdfrwt>
<pdfrwt beam="2">0</pdfrwt>
<totfact> 0.70425229E+05</totfact>
</mgrwt>
</event>
<event>
 6    1  0.1132867E-002  0.3000000E+03  0.7818608E-02  0.1093470E+00
         21   -1    0    0  501  502  0.00000000000E+00  0.00000000000E+00  0.61963559088E+00  0.61963559088E+00  0.00000000000E+00 0. -1.
         13   -1    0    0    0    0 -0.00000000000E+00 -0.00000000000E+00 -0.10000000000E+04  0.10000000000E+04  0.00000000000E+00 0.  1.
    9000005    2    1    2  501    0  0.39249324551E+01  0.23189482267E+02 -0.59112183480E+03  0.59168420771E+03  0.10583991979E+02 0.  0.
         13    1    3    3    0    0  0.66039043936E+01  0.20951896831E+02 -0.53761590407E+03  0.53806454431E+03  0.00000000000E+00 0.  1.
          1    1    3    3  501    0 -0.26789719386E+01  0.22375854357E+01 -0.53505930732E+02  0.53619663397E+02  0.00000000000E+00 0.  1.
         -1    1    1    2    0  502 -0.39249324551E+01 -0.23189482267E+02 -0.40825852960E+03  0.40893542788E+03  0.00000000000E+00 0. -1.
<mgrwt>
<rscale>  1 0.30000000E+03</rscale>
<asrwt>0</asrwt>
<pdfrwt beam="1">  1       21 0.22532251E-02 0.30000000E+03</pdfrwt>
<pdfrwt beam="2">0</pdfrwt>
<totfact> 0.10908386E+05</totfact>
</mgrwt>
</event>
<event>
 6    1  0.1132867E-002  0.3000000E+03  0.7818608E-02  0.1093470E+00
         21   -1    0    0  501  502  0.00000000000E+00  0.00000000000E+00  0.29411329140E+00  0.29411329140E+00  0.00000000000E+00 0. -1.
         13   -1    0    0    0    0 -0.00000000000E+00 -0.00000000000E+00 -0.10000000000E+04  0.10000000000E+04  0.00000000000E+00 0.  1.
    9000005    2    1    2  501    0  0.13095177858E+02 -0.52547197854E+01 -0.77801192209E+03  0.77815156961E+03  0.42683270090E+01 0.  0.
         13    1    3    3    0    0  0.10148308111E+02 -0.27768777086E+01 -0.63788049773E+03  0.63796726295E+03  0.00000000000E+00 0.  1.
          1    1    3    3  501    0  0.29468697465E+01 -0.24778420768E+01 -0.14013142436E+03  0.14018430666E+03  0.00000000000E+00 0.  1.
         -1    1    1    2    0  502 -0.13095177858E+02  0.52547197854E+01 -0.22169396462E+03  0.22214254368E+03  0.00000000000E+00 0. -1.
<mgrwt>
<rscale>  1 0.30000000E+03</rscale>
<asrwt>0</asrwt>
<pdfrwt beam="1">  1       21 0.10695051E-02 0.30000000E+03</pdfrwt>
<pdfrwt beam="2">0</pdfrwt>
<totfact> 0.36314909E+05</totfact>
</mgrwt>
</event>
<event>
 6    1  0.1132867E-002  0.3000000E+03  0.7818608E-02  0.1093470E+00
         21   -1    0    0  501  502  0.00000000000E+00  0.00000000000E+00  0.17668216881E+00  0.17668216881E+00  0.00000000000E+00 0. -1.
         13   -1    0    0    0    0 -0.00000000000E+00 -0.00000000000E+00 -0.10000000000E+04  0.10000000000E+04  0.00000000000E+00 0.  1.
    9000005    2    1    2  501    0 -0.43694592387E+01  0.88599047876E+01 -0.78621513277E+03  0.78634018666E+03  0.99530935444E+01 0.  0.
         13    1    3    3    0    0  0.19442442586E+01  0.67866176143E+01 -0.32119625797E+03  0.32127383086E+03  0.00000000000E+00 0.  1.
          1    1    3    3  501    0 -0.63137034973E+01  0.20732871733E+01 -0.46501887481E+03  0.46506635580E+03  0.00000000000E+00 0.  1.
         -1    1    1    2    0  502  0.43694592387E+01 -0.88599047876E+01 -0.21360818506E+03  0.21383649551E+03  0.00000000000E+00 0. -1.
<mgrwt>
<rscale>  1 0.30000000E+03</rscale>
<asrwt>0</asrwt>
<pdfrwt beam="1">  1       21 0.64248197E-03 0.30000000E+03</pdfrwt>
<pdfrwt beam="2">0</pdfrwt>
<totfact> 0.81127669E+05</totfact>
</mgrwt>
</event>
<event>
 6    1  0.1132867E-002  0.3000000E+03  0.7818608E-02  0.1093470E+00
         21   -1    0    0  501  502  0.00000000000E+00  0.00000000000E+00  0.57994409454E+00  0.57994409454E+00  0.00000000000E+00 0. -1.
         13   -1    0    0    0    0 -0.00000000000E+00 -0.00000000000E+00 -0.10000000000E+04  0.10000000000E+04  0.00000000000E+00 0.  1.
    9000005    2    1    2  501    0 -0.47414029500E+01  0.11575622099E+02 -0.91581983888E+03  0.91604904906E+03  0.16229820264E+02 0.  0.
         13    1    3    3    0    0 -0.46204338605E+01  0.53735871168E+01 -0.81901674252E+03  0.81904740301E+03  0.00000000000E+00 0.  1.
          1    1    3    3  501    0 -0.12096908947E+00  0.62020349819E+01 -0.96803096359E+02  0.97001646049E+02  0.00000000000E+00 0.  1.
         -1    1    1    2    0  502  0.47414029500E+01 -0.11575622099E+02 -0.83600217029E+02  0.84530895039E+02  0.00000000000E+00 0. -1.
<mgrwt>
<rscale>  1 0.30000000E+03</rscale>
<asrwt>0</asrwt>
<pdfrwt beam="1">  1       21 0.21088921E-02 0.30000000E+03</pdfrwt>
<pdfrwt beam="2">0</pdfrwt>
<totfact> 0.12157284E+05</totfact>
</mgrwt>
</event>
<event>
 6    1  0.1132867E-002  0.3000000E+03  0.7818608E-02  0.1093470E+00
         21   -1    0    0  501  502  0.00000000000E+00  0.00000000000E+00  0.53426515884E+00  0.53426515884E+00  0.00000000000E+00 0. -1.
         13   -1    0    0    0    0 -0.00000000000E+00 -0.00000000000E+00 -0.10000000000E+04  0.10000000000E+04  0.00000000000E+00 0.  1.
    9000005    2    1    2  501    0 -0.10761267149E+02 -0.16282342901E+01 -0.92680246123E+03  0.92706041029E+03  0.18966975660E+02 0.  0.
         13    1    3    3    0    0 -0.13353713160E+02  0.24184348076E+01 -0.38930722093E+03  0.38954368529E+03  0.00000000000E+00 0.  1.
          1    1    3    3  501    0  0.25924460118E+01 -0.40466690977E+01 -0.53749524030E+03  0.53751672500E+03  0.00000000000E+00 0.  1.
         -1    1    1    2    0  502  0.10761267149E+02  0.16282342901E+01 -0.72663273614E+02  0.73473854873E+02  0.00000000000E+00 0. -1.
<mgrwt>
<rscale>  1 0.30000000E+03</rscale>
<asrwt>0</asrwt>
<pdfrwt beam="1">  1       21 0.19427865E-02 0.30000000E+03</pdfrwt>
<pdfrwt beam="2">0</pdfrwt>
<totfact> 0.13897980E+05</totfact>
</mgrwt>
</event>
<event>
 6    1  0.1132867E-002  0.3000000E+03  0.7818608E-02  0.1093470E+00
         21   -1    0    0  501  502  0.00000000000E+00  0.00000000000E+00  0.13980487077E+00  0.13980487077E+00  0.00000000000E+00 0. -1.
         13   -1    0    0    0    0 -0.00000000000E+00 -0.00000000000E+00 -0.10000000000E+04  0.10000000000E+04  0.00000000000E+00 0.  1.
    9000005    2    1    2  501    0 -0.33502029222E+01  0.87279026939E+01 -0.76957999303E+03  0.76966991177E+03  0.71419376575E+01 0.  0.
         13    1    3    3    0    0  0.12746089414E+01  0.41991447283E+01 -0.46739693173E+03  0.46741753201E+03  0.00000000000E+00 0.  1.
          3    1    3    3  501    0 -0.46248118636E+01  0.45287579655E+01 -0.30218306130E+03  0.30225237976E+03  0.00000000000E+00 0.  1.
         -1    1    1    2    0  502  0.33502029222E+01 -0.87279026939E+01 -0.23028020210E+03  0.23046989310E+03  0.00000000000E+00 0. -1.
<mgrwt>
<rscale>  1 0.30000000E+03</rscale>
<asrwt>0</asrwt>
<pdfrwt beam="1">  1       21 0.50838242E-03 0.30000000E+03</pdfrwt>
<pdfrwt beam="2">0</pdfrwt>
<totfact> 0.11684867E+06</totfact>
</mgrwt>
</event>
<event>
 6    1  0.1132867E-002  0.3000000E+03  0.7818608E-02  0.1093470E+00
         21   -1    0    0  501  502  0.00000000000E+00  0.00000000000E+00  0.75288539024E-01  0.75288539024E-01  0.00000000000E+00 0. -1.
         13   -1    0    0    0    0 -0.00000000000E+00 -0.00000000000E+00 -0.10000000000E+04  0.10000000000E+04  0.00000000000E+00 0.  1.
    9000005    2    1    2  501    0 -0.38840771438E+01 -0.68296434082E+01 -0.54630251363E+03  0.54638505451E+03  0.53349146075E+01 0.  0.
         13    1    3    3    0    0 -0.38796170280E+01 -0.15177873322E+01 -0.22306252961E+03  0.22310142811E+03  0.00000000000E+00 0.  1.
          1    1    3    3  501    0 -0.44601158728E-02 -0.53118560760E+01 -0.32323998401E+03  0.32328362640E+03  0.00000000000E+00 0.  1.
         -3    1    1    2    0  502  0.38840771438E+01  0.68296434082E+01 -0.45362219784E+03  0.45369023403E+03  0.00000000000E+00 0. -1.
<mgrwt>
<rscale>  1 0.30000000E+03</rscale>
<asrwt>0</asrwt>
<pdfrwt beam="1">  1       21 0.27377708E-03 0.30000000E+03</pdfrwt>
<pdfrwt beam="2">0</pdfrwt>
<totfact> 0.30306224E+06</totfact>
</mgrwt>
</event>
<event>
 6    1  0.1132867E-002  0.3000000E+03  0.7818608E-02  0.1093470E+00
         21   -1    0    0  501  502  0.00000000000E+00  0.00000000000E+00  0.49167793059E+00  0.49167793059E+00  0.00000000000E+00 0. -1.
         13   -1    0    0    0    0 -0.00000000000E+00 -0.00000000000E+00 -0.10000000000E+04  0.10000000000E+04  0.00000000000E+00 0.  1.
    9000005    2    1    2  501    0  0.78359149657E+01  0.12960271786E+02 -0.85667830937E+03  0.85686096139E+03  0.91439154528E+01 0.  0.
         13    1    3    3    0    0 -0.46996288463E+00  0.17102142011E+01 -0.30595291297E+03  0.30595805375E+03  0.00000000000E+00 0.  1.
          3    1    3    3  501    0  0.83058778503E+01  0.11250057585E+02 -0.55072539640E+03  0.55090290764E+03  0.00000000000E+00 0.  1.
         -3    1    1    2    0  502 -0.78359149657E+01 -0.12960271786E+02 -0.14283001270E+03  0.14363071654E+03  0.00000000000E+00 0. -1.
<mgrwt>
<rscale>  1 0.30000000E+03</rscale>
<asrwt>0</asrwt>
<pdfrwt beam="1">  1       21 0.17879235E-02 0.30000000E+03</pdfrwt>
<pdfrwt beam="2">0</pdfrwt>
<totfact> 0.15906778E+05</totfact>
</mgrwt>
</event>
<event>
 6    1  0.1132867E-002  0.3000000E+03  0.7818608E-02  0.1093470E+00
         21   -1    0    0  501  502  0.00000000000E+00  0.00000000000E+00  0.43730314903E+00  0.43730314903E+00  0.00000000000E+00 0. -1.
         13   -1    0    0    0    0 -0.00000000000E+00 -0.00000000000E+00 -0.10000000000E+04  0.10000000000E+04  0.00000000000E+00 0.  1.
    9000005    2    1    2  501    0  0.17050780801E+02  0.30433019853E+00 -0.77946649668E+03  0.77968142197E+03  0.66542155915E+01 0.  0.
         13    1    3    3    0    0  0.80245635137E+01 -0.31368310379E+01 -0.38979336709E+03  0.38988857684E+03  0.00000000000E+00 0.  1.
          1    1    3    3  501    0  0.90262172869E+01  0.34411612365E+01 -0.38967312959E+03  0.38979284513E+03  0.00000000000E+00 0.  1.
         -1    1    1    2    0  502 -0.17050780801E+02 -0.30433019853E+00 -0.22009620017E+03  0.22075588117E+03  0.00000000000E+00 0. -1.
<mgrwt>
<rscale>  1 0.30000000E+03</rscale>
<asrwt>0</asrwt>
<pdfrwt beam="1">  1       21 0.15901966E-02 0.30000000E+03</pdfrwt>
<pdfrwt beam="2">0</pdfrwt>
<totfact> 0.19231375E+05</totfact>
</mgrwt>
</event>
<event>
 6    1  0.1132867E-002  0.3000000E+03  0.7818608E-02  0.1093470E+00
         21   -1    0    0  501  502  0.00000000000E+00  0.00000000000E+00  0.28658315274E+00  0.28658315274E+00  0.00000000000E+00 0. -1.
         13   -1    0    0    0    0 -0.00000000000E+00 -0.00000000000E+00 -0.10000000000E+04  0.10000000000E+04  0.00000000000E+00 0.  1.
    9000005    2    1    2  501    0 -0.31222458513E+00  0.11514533299E+02 -0.85241832524E+03  0.85254178300E+03  0.88209177817E+01 0.  0.
         13    1    3    3    0    0  0.14209852844E+01  0.40180700703E+00 -0.23077533352E+02  0.23124731212E+02  0.00000000000E+00 0.  1.
          3    1    3    3  501    0 -0.17332098695E+01  0.11112726292E+02 -0.82934079189E+03  0.82941705179E+03  0.00000000000E+00 0.  1.
         -1    1    1    2    0  502  0.31222458513E+00 -0.11514533299E+02 -0.14729509161E+03  0.14774480015E+03  0.00000000000E+00 0. -1.
<mgrwt>
<rscale>  1 0.30000000E+03</rscale>
<asrwt>0</asrwt>
<pdfrwt beam="1">  1       21 0.10421228E-02 0.30000000E+03</pdfrwt>
<pdfrwt beam="2">0</pdfrwt>
<totfact> 0.37844688E+05</totfact>
</mgrwt>
</event>
<event>
 6    1  0.1132867E-002  0.3000000E+03  0.7818608E-02  0.1093470E+00
         21   -1    0    0  501  502  0.00000000000E+00  0.00000000000E+00  0.40501741403E+00  0.40501741403E+00  0.00000000000E+00 0. -1.
         13   -1    0    0    0    0 -0.00000000000E+00 -0.00000000000E+00 -0.10000000000E+04  0.10000000000E+04  0.00000000000E+00 0.  1.
    9000005    2    1    2  501    0 -0.14532089140E+02 -0.62817378742E+01 -0.79451491064E+03  0.79471477030E+03  0.81841963367E+01 0.  0.
         13    1    3    3    0    0 -0.75896620986E+01 -0.35574357614E+01 -0.59744317448E+03  0.59750197076E+03  0.00000000000E+00 0.  1.
          3    1    3    3  501    0 -0.69424270416E+01 -0.27243021128E+01 -0.19707173615E+03  0.19721279955E+03  0.00000000000E+00 0.  1.
         -3    1    1    2    0  502  0.14532089140E+02  0.62817378742E+01 -0.20508007195E+03  0.20569024711E+03  0.00000000000E+00 0. -1.
<mgrwt>
<rscale>  1 0.30000000E+03</rscale>
<asrwt>0</asrwt>
<pdfrwt beam="1">  1       21 0.14727937E-02 0.30000000E+03</pdfrwt>
<pdfrwt beam="2">0</pdfrwt>
<totfact> 0.21762305E+05</totfact>
</mgrwt>
</event>
<event>
 6    1  0.1132867E-002  0.3000000E+03  0.7818608E-02  0.1093470E+00
         21   -1    0    0  501  502  0.00000000000E+00  0.00000000000E+00  0.11618479397E+00  0.11618479397E+00  0.00000000000E+00 0. -1.
         13   -1    0    0    0    0 -0.00000000000E+00 -0.00000000000E+00 -0.10000000000E+04  0.10000000000E+04  0.00000000000E+00 0.  1.
    9000005    2    1    2  501    0  0.89523928474E+01 -0.35720529204E+01 -0.59152704541E+03  0.59164567626E+03  0.68888236801E+01 0.  0.
         13    1    3    3    0    0  0.39729842107E+01  0.17699762768E+01 -0.17146738675E+03  0.17152254120E+03  0.00000000000E+00 0.  1.
          3    1    3    3  501    0  0.49794086367E+01 -0.53420291972E+01 -0.42005965866E+03  0.42012313506E+03  0.00000000000E+00 0.  1.
         -1    1    1    2    0  502 -0.89523928474E+01  0.35720529204E+01 -0.40835676980E+03  0.40847050853E+03  0.00000000000E+00 0. -1.
<mgrwt>
<rscale>  1 0.30000000E+03</rscale>
<asrwt>0</asrwt>
<pdfrwt beam="1">  1       21 0.42249105E-03 0.30000000E+03</pdfrwt>
<pdfrwt beam="2">0</pdfrwt>
<totfact> 0.15563997E+06</totfact>
</mgrwt>
</event>
<event>
 6    1  0.1132867E-002  0.3000000E+03  0.7818608E-02  0.1093470E+00
         21   -1    0    0  501  502  0.00000000000E+00  0.00000000000E+00  0.16883635259E+00  0.16883635259E+00  0.00000000000E+00 0. -1.
         13   -1    0    0    0    0 -0.00000000000E+00 -0.00000000000E+00 -0.10000000000E+04  0.10000000000E+04  0.00000000000E+00 0.  1.
    9000005    2    1    2  501    0  0.11982142146E+02 -0.15494303386E+01 -0.50739740219E+03  0.50758688187E+03  0.68078209732E+01 0.  0.
         13    1    3    3    0    0  0.64609647036E+01 -0.37938810585E+01 -0.21961668623E+03  0.21974445720E+03  0.00000000000E+00 0.  1.
          1    1    3    3  501    0  0.55211774422E+01  0.22444507199E+01 -0.28778071596E+03  0.28784242467E+03  0.00000000000E+00 0.  1.
         -1    1    1    2    0  502 -0.11982142146E+02  0.15494303386E+01 -0.49243376145E+03  0.49258195448E+03  0.00000000000E+00 0. -1.
<mgrwt>
<rscale>  1 0.30000000E+03</rscale>
<asrwt>0</asrwt>
<pdfrwt beam="1">  1       21 0.61395167E-03 0.30000000E+03</pdfrwt>
<pdfrwt beam="2">0</pdfrwt>
<totfact> 0.87100150E+05</totfact>
</mgrwt>
</event>
<event>
 6    1  0.1132867E-002  0.3000000E+03  0.7818608E-02  0.1093470E+00
         21   -1    0    0  501  502  0.00000000000E+00  0.00000000000E+00  0.13754073396E+00  0.13754073396E+00  0.00000000000E+00 0. -1.
         13   -1    0    0    0    0 -0.00000000000E+00 -0.00000000000E+00 -0.10000000000E+04  0.10000000000E+04  0.00000000000E+00 0.  1.
    9000005    2    1    2  501    0  0.10637293040E+02  0.58472468014E-01 -0.66612900655E+03  0.66623460142E+03  0.52474123826E+01 0.  0.
         13    1    3    3    0    0 -0.44743658072E+00  0.59381946992E+00 -0.33348218625E+02  0.33356506209E+02  0.00000000000E+00 0.  1.
          1    1    3    3  501    0  0.11084729621E+02 -0.53534700191E+00 -0.63278078793E+03  0.63287809521E+03  0.00000000000E+00 0.  1.
         -3    1    1    2    0  502 -0.10637293040E+02 -0.58472468014E-01 -0.33373345271E+03  0.33390293931E+03  0.00000000000E+00 0. -1.
<mgrwt>
<rscale>  1 0.30000000E+03</rscale>
<asrwt>0</asrwt>
<pdfrwt beam="1">  1       21 0.50014918E-03 0.30000000E+03</pdfrwt>
<pdfrwt beam="2">0</pdfrwt>
<totfact> 0.11984989E+06</totfact>
</mgrwt>
</event>
<event>
 6    1  0.1132867E-002  0.3000000E+03  0.7818608E-02  0.1093470E+00
         21   -1    0    0  501  502  0.00000000000E+00  0.00000000000E+00  0.85890733257E-01  0.85890733257E-01  0.00000000000E+00 0. -1.
         13   -1    0    0    0    0 -0.00000000000E+00 -0.00000000000E+00 -0.10000000000E+04  0.10000000000E+04  0.00000000000E+00 0.  1.
    9000005    2    1    2  501    0 -0.12182764929E+01 -0.84828104302E+01 -0.32792592633E+03  0.32804306451E+03  0.18430257337E+01 0.  0.
         13    1    3    3    0    0 -0.14587019060E+01 -0.37396601392E+01 -0.15408999313E+03  0.15414226822E+03  0.00000000000E+00 0.  1.
          3    1    3    3  501    0  0.24042541309E+00 -0.47431502910E+01 -0.17383593320E+03  0.17390079629E+03  0.00000000000E+00 0.  1.
         -3    1    1    2    0  502  0.12182764929E+01  0.84828104302E+01 -0.67198818294E+03  0.67204282623E+03  0.00000000000E+00 0. -1.
<mgrwt>
<rscale>  1 0.30000000E+03</rscale>
<asrwt>0</asrwt>
<pdfrwt beam="1">  1       21 0.31233060E-03 0.30000000E+03</pdfrwt>
<pdfrwt beam="2">0</pdfrwt>
<totfact> 0.24773266E+06</totfact>
</mgrwt>
</event>
<event>
 6    1  0.1132867E-002  0.3000000E+03  0.7818608E-02  0.1093470E+00
         21   -1    0    0  501  502  0.00000000000E+00  0.00000000000E+00  0.44018346184E+00  0.44018346184E+00  0.00000000000E+00 0. -1.
         13   -1    0    0    0    0 -0.00000000000E+00 -0.00000000000E+00 -0.10000000000E+04  0.10000000000E+04  0.00000000000E+00 0.  1.
    9000005    2    1    2  501    0  0.58753573681E+00 -0.14016506272E+02 -0.86626314499E+03  0.86640731327E+03  0.72793180739E+01 0.  0.
         13    1    3    3    0    0 -0.86598340151E+00  0.63423319407E+00 -0.51966416277E+02  0.51977500899E+02  0.00000000000E+00 0.  1.
          3    1    3    3  501    0  0.14535191383E+01 -0.14650739466E+02 -0.81429672872E+03  0.81442981237E+03  0.00000000000E+00 0.  1.
         -1    1    1    2    0  502 -0.58753573681E+00  0.14016506272E+02 -0.13329667154E+03  0.13403287019E+03  0.00000000000E+00 0. -1.
<mgrwt>
<rscale>  1 0.30000000E+03</rscale>
<asrwt>0</asrwt>
<pdfrwt beam="1">  1       21 0.16006705E-02 0.30000000E+03</pdfrwt>
<pdfrwt beam="2">0</pdfrwt>
<totfact> 0.19028543E+05</totfact>
</mgrwt>
</event>
<event>
 6    1  0.1132867E-002  0.3000000E+03  0.7818608E-02  0.1093470E+00
         21   -1    0    0  501  502  0.00000000000E+00  0.00000000000E+00  0.32513100154E+00  0.32513100154E+00  0.00000000000E+00 0. -1.
         13   -1    0    0    0    0 -0.00000000000E+00 -0.00000000000E+00 -0.10000000000E+04  0.10000000000E+04  0.00000000000E+00 0.  1.
    9000005    2    1    2  501    0 -0.13807650406E+02 -0.97175980166E+01 -0.62984735681E+03  0.63011239258E+03  0.69893831260E+01 0.  0.
         13    1    3    3    0    0 -0.29271710869E+00 -0.11432808543E+01 -0.13726743975E+03  0.13727251287E+03  0.00000000000E+00 0.  1.
          3    1    3    3  501    0 -0.13514933298E+02 -0.85743171623E+01 -0.49257991707E+03  0.49283987971E+03  0.00000000000E+00 0.  1.
         -1    1    1    2    0  502  0.13807650406E+02  0.97175980166E+01 -0.36982751218E+03  0.37021273842E+03  0.00000000000E+00 0. -1.
<mgrwt>
<rscale>  1 0.30000000E+03</rscale>
<asrwt>0</asrwt>
<pdfrwt beam="1">  1       21 0.11822970E-02 0.30000000E+03</pdfrwt>
<pdfrwt beam="2">0</pdfrwt>
<totfact> 0.30952632E+05</totfact>
</mgrwt>
</event>
<event>
 6    1  0.1132867E-002  0.3000000E+03  0.7818608E-02  0.1093470E+00
         21   -1    0    0  501  502  0.00000000000E+00  0.00000000000E+00  0.32204369188E+00  0.32204369188E+00  0.00000000000E+00 0. -1.
         13   -1    0    0    0    0 -0.00000000000E+00 -0.00000000000E+00 -0.10000000000E+04  0.10000000000E+04  0.00000000000E+00 0.  1.
    9000005    2    1    2  501    0  0.12587291381E+02  0.18323046155E+01 -0.83716169143E+03  0.83730875099E+03  0.91896494844E+01 0.  0.
         13    1    3    3    0    0  0.39671469013E+01 -0.30505299368E+01 -0.41820402343E+03  0.41823396466E+03  0.00000000000E+00 0.  1.
          3    1    3    3  501    0  0.86201444801E+01  0.48828345523E+01 -0.41895766800E+03  0.41907478633E+03  0.00000000000E+00 0.  1.
         -1    1    1    2    0  502 -0.12587291381E+02 -0.18323046155E+01 -0.16251626488E+03  0.16301329270E+03  0.00000000000E+00 0. -1.
<mgrwt>
<rscale>  1 0.30000000E+03</rscale>
<asrwt>0</asrwt>
<pdfrwt beam="1">  1       21 0.11710704E-02 0.30000000E+03</pdfrwt>
<pdfrwt beam="2">0</pdfrwt>
<totfact> 0.31427510E+05</totfact>
</mgrwt>
</event>
<event>
 6    1  0.1132867E-002  0.3000000E+03  0.7818608E-02  0.1093470E+00
         21   -1    0    0  501  502  0.00000000000E+00  0.00000000000E+00  0.98057077964E-01  0.98057077964E-01  0.00000000000E+00 0. -1.
         13   -1    0    0    0    0 -0.00000000000E+00 -0.00000000000E+00 -0.10000000000E+04  0.10000000000E+04  0.00000000000E+00 0.  1.
    9000005    2    1    2  501    0 -0.72460579484E+01  0.48938083106E+01 -0.52879396129E+03  0.52890893892E+03  0.67199296371E+01 0.  0.
         13    1    3    3    0    0 -0.74096171575E+01  0.15762873153E+01 -0.40264500930E+03  0.40271626565E+03  0.00000000000E+00 0.  1.
          3    1    3    3  501    0  0.16355920909E+00  0.33175209952E+01 -0.12614895199E+03  0.12619267327E+03  0.00000000000E+00 0.  1.
         -3    1    1    2    0  502  0.72460579484E+01 -0.48938083106E+01 -0.47110798163E+03  0.47118911816E+03  0.00000000000E+00 0. -1.
<mgrwt>
<rscale>  1 0.30000000E+03</rscale>
<asrwt>0</asrwt>
<pdfrwt beam="1">  1       21 0.35657194E-03 0.30000000E+03</pdfrwt>
<pdfrwt beam="2">0</pdfrwt>
<totfact> 0.20215528E+06</totfact>
</mgrwt>
</event>
<event>
 6    1  0.1132867E-002  0.3000000E+03  0.7818608E-02  0.1093470E+00
         21   -1    0    0  501  502  0.00000000000E+00  0.00000000000E+00  0.17508829079E+00  0.17508829079E+00  0.00000000000E+00 0. -1.
         13   -1    0    0    0    0 -0.00000000000E+00 -0.00000000000E+00 -0.10000000000E+04  0.10000000000E+04  0.00000000000E+00 0.  1.
    9000005    2    1    2  501    0  0.66224618831E+01 -0.89411075689E+01 -0.30243351605E+03  0.30269493865E+03  0.58646267499E+01 0.  0.
         13    1    3    3    0    0  0.33045696497E+01 -0.24903416174E+01 -0.17943198382E+03  0.17947968910E+03  0.00000000000E+00 0.  1.
          1    1    3    3  501    0  0.33178922334E+01 -0.64507659515E+01 -0.12300153223E+03  0.12321524955E+03  0.00000000000E+00 0.  1.
         -3    1    1    2    0  502 -0.66224618831E+01  0.89411075689E+01 -0.69739139566E+03  0.69748014964E+03  0.00000000000E+00 0. -1.
<mgrwt>
<rscale>  1 0.30000000E+03</rscale>
<asrwt>0</asrwt>
<pdfrwt beam="1">  1       21 0.63668604E-03 0.30000000E+03</pdfrwt>
<pdfrwt beam="2">0</pdfrwt>
<totfact> 0.82286171E+05</totfact>
</mgrwt>
</event>
<event>
 6    1  0.1132867E-002  0.3000000E+03  0.7818608E-02  0.1093470E+00
         21   -1    0    0  501  502  0.00000000000E+00  0.00000000000E+00  0.14386245983E+00  0.14386245983E+00  0.00000000000E+00 0. -1.
         13   -1    0    0    0    0 -0.00000000000E+00 -0.00000000000E+00 -0.10000000000E+04  0.10000000000E+04  0.00000000000E+00 0.  1.
    9000005    2    1    2  501    0  0.92912943516E+01 -0.11575891657E+01 -0.79810850518E+03  0.79817907511E+03  0.49981747618E+01 0.  0.
         13    1    3    3    0    0  0.47522730900E+01  0.20069433196E-01 -0.21886288590E+03  0.21891447492E+03  0.00000000000E+00 0.  1.
          3    1    3    3  501    0  0.45390212616E+01 -0.11776585989E+01 -0.57924561927E+03  0.57926460020E+03  0.00000000000E+00 0.  1.
         -3    1    1    2    0  502 -0.92912943516E+01  0.11575891657E+01 -0.20174763236E+03  0.20196478735E+03  0.00000000000E+00 0. -1.
<mgrwt>
<rscale>  1 0.30000000E+03</rscale>
<asrwt>0</asrwt>
<pdfrwt beam="1">  1       21 0.52313732E-03 0.30000000E+03</pdfrwt>
<pdfrwt beam="2">0</pdfrwt>
<totfact> 0.11176786E+06</totfact>
</mgrwt>
</event>
<event>
 6    1  0.1132867E-002  0.3000000E+03  0.7818608E-02  0.1093470E+00
         21   -1    0    0  501  502  0.00000000000E+00  0.00000000000E+00  0.23217387018E+00  0.23217387018E+00  0.00000000000E+00 0. -1.
         13   -1    0    0    0    0 -0.00000000000E+00 -0.00000000000E+00 -0.10000000000E+04  0.10000000000E+04  0.00000000000E+00 0.  1.
    9000005    2    1    2  501    0 -0.11474619799E+02  0.40041918003E+01 -0.78783169076E+03  0.78794786939E+03  0.59473914499E+01 0.  0.
         13    1    3    3    0    0 -0.40155120972E+01 -0.12453192900E+01 -0.31659424659E+03  0.31662215989E+03  0.00000000000E+00 0.  1.
          1    1    3    3  501    0 -0.74591077017E+01  0.52495110903E+01 -0.47123744416E+03  0.47132570950E+03  0.00000000000E+00 0.  1.
         -1    1    1    2    0  502  0.11474619799E+02 -0.40041918003E+01 -0.21193613537E+03  0.21228430448E+03  0.00000000000E+00 0. -1.
<mgrwt>
<rscale>  1 0.30000000E+03</rscale>
<asrwt>0</asrwt>
<pdfrwt beam="1">  1       21 0.84427040E-03 0.30000000E+03</pdfrwt>
<pdfrwt beam="2">0</pdfrwt>
<totfact> 0.52821587E+05</totfact>
</mgrwt>
</event>
<event>
 6    1  0.1132867E-002  0.3000000E+03  0.7818608E-02  0.1093470E+00
         21   -1    0    0  501  502  0.00000000000E+00  0.00000000000E+00  0.23686584175E+00  0.23686584175E+00  0.00000000000E+00 0. -1.
         13   -1    0    0    0    0 -0.00000000000E+00 -0.00000000000E+00 -0.10000000000E+04  0.10000000000E+04  0.00000000000E+00 0.  1.
    9000005    2    1    2  501    0 -0.16984777322E+01 -0.96022599391E+01 -0.83853958119E+03  0.83871868651E+03  0.14328909876E+02 0.  0.
         13    1    3    3    0    0  0.24179608799E+01  0.31272740259E+01 -0.19427477534E+03  0.19431498838E+03  0.00000000000E+00 0.  1.
          1    1    3    3  501    0 -0.41164386121E+01 -0.12729533965E+02 -0.64426480585E+03  0.64440369812E+03  0.00000000000E+00 0.  1.
         -3    1    1    2    0  502  0.16984777322E+01  0.96022599391E+01 -0.16122355297E+03  0.16151817933E+03  0.00000000000E+00 0. -1.
<mgrwt>
<rscale>  1 0.30000000E+03</rscale>
<asrwt>0</asrwt>
<pdfrwt beam="1">  1       21 0.86133215E-03 0.30000000E+03</pdfrwt>
<pdfrwt beam="2">0</pdfrwt>
<totfact> 0.51179381E+05</totfact>
</mgrwt>
</event>
<event>
 6    1  0.1132867E-002  0.3000000E+03  0.7818608E-02  0.1093470E+00
         21   -1    0    0  501  502  0.00000000000E+00  0.00000000000E+00  0.19565449843E+00  0.19565449843E+00  0.00000000000E+00 0. -1.
         13   -1    0    0    0    0 -0.00000000000E+00 -0.00000000000E+00 -0.10000000000E+04  0.10000000000E+04  0.00000000000E+00 0.  1.
    9000005    2    1    2  501    0  0.87192850597E+01 -0.21638659509E+00 -0.62076377242E+03  0.62105474561E+03  0.16889734554E+02 0.  0.
         13    1    3    3    0    0  0.31138114105E+01  0.25905573900E+01 -0.54971867491E+03  0.54973359762E+03  0.00000000000E+00 0.  1.
          3    1    3    3  501    0  0.56054736492E+01 -0.28069439851E+01 -0.71045097512E+02  0.71321147985E+02  0.00000000000E+00 0.  1.
         -3    1    1    2    0  502 -0.87192850597E+01  0.21638659509E+00 -0.37904057308E+03  0.37914090889E+03  0.00000000000E+00 0. -1.
<mgrwt>
<rscale>  1 0.30000000E+03</rscale>
<asrwt>0</asrwt>
<pdfrwt beam="1">  1       21 0.71147240E-03 0.30000000E+03</pdfrwt>
<pdfrwt beam="2">0</pdfrwt>
<totfact> 0.69147604E+05</totfact>
</mgrwt>
</event>
<event>
 6    1  0.1132867E-002  0.3000000E+03  0.7818608E-02  0.1093470E+00
         21   -1    0    0  501  502  0.00000000000E+00  0.00000000000E+00  0.15198395524E+00  0.15198395524E+00  0.00000000000E+00 0. -1.
         13   -1    0    0    0    0 -0.00000000000E+00 -0.00000000000E+00 -0.10000000000E+04  0.10000000000E+04  0.00000000000E+00 0.  1.
    9000005    2    1    2  501    0  0.88521584476E+01 -0.28391592693E+01 -0.80097761207E+03  0.80106441751E+03  0.72556484643E+01 0.  0.
         13    1    3    3    0    0  0.90394433618E+00  0.21933282861E+01 -0.17684814992E+03  0.17686406061E+03  0.00000000000E+00 0.  1.
          3    1    3    3  501    0  0.79482141115E+01 -0.50324875554E+01 -0.62412946215E+03  0.62420035691E+03  0.00000000000E+00 0.  1.
         -1    1    1    2    0  502 -0.88521584476E+01  0.28391592693E+01 -0.19887040397E+03  0.19908756644E+03  0.00000000000E+00 0. -1.
<mgrwt>
<rscale>  1 0.30000000E+03</rscale>
<asrwt>0</asrwt>
<pdfrwt beam="1">  1       21 0.55267009E-03 0.30000000E+03</pdfrwt>
<pdfrwt beam="2">0</pdfrwt>
<totfact> 0.10261789E+06</totfact>
</mgrwt>
</event>
<event>
 6    1  0.1132867E-002  0.3000000E+03  0.7818608E-02  0.1093470E+00
         21   -1    0    0  501  502  0.00000000000E+00  0.00000000000E+00  0.11681435783E+02  0.11681435783E+02  0.00000000000E+00 0. -1.
         13   -1    0    0    0    0 -0.00000000000E+00 -0.00000000000E+00 -0.10000000000E+04  0.10000000000E+04  0.00000000000E+00 0.  1.
    9000005    2    1    2  501    0  0.12720754470E+02 -0.42565750255E+01 -0.99607693557E+03  0.99618536043E+03  0.60062240441E+01 0.  0.
         13    1    3    3    0    0  0.33265563292E+01 -0.26730268966E+01 -0.49129987884E+03  0.49131841203E+03  0.00000000000E+00 0.  1.
          3    1    3    3  501    0  0.93941981411E+01 -0.15835481289E+01 -0.50477705674E+03  0.50486694840E+03  0.00000000000E+00 0.  1.
         -1    1    1    2    0  502 -0.12720754470E+02  0.42565750255E+01  0.77583713571E+01  0.15496075353E+02  0.00000000000E+00 0. -1.
<mgrwt>
<rscale>  1 0.30000000E+03</rscale>
<asrwt>0</asrwt>
<pdfrwt beam="1">  1       21 0.42478038E-01 0.30000000E+03</pdfrwt>
<pdfrwt beam="2">0</pdfrwt>
<totfact> 0.53237004E+02</totfact>
</mgrwt>
</event>
<event>
 6    1  0.1132867E-002  0.3000000E+03  0.7818608E-02  0.1093470E+00
         21   -1    0    0  501  502  0.00000000000E+00  0.00000000000E+00  0.32292513722E+00  0.32292513722E+00  0.00000000000E+00 0. -1.
         13   -1    0    0    0    0 -0.00000000000E+00 -0.00000000000E+00 -0.10000000000E+04  0.10000000000E+04  0.00000000000E+00 0.  1.
    9000005    2    1    2  501    0  0.11047807551E+02  0.93645861461E+01 -0.78425550384E+03  0.78441506797E+03  0.63682043745E+01 0.  0.
         13    1    3    3    0    0  0.16083993369E+01  0.22365954727E+00 -0.29114943825E+02  0.29160194203E+02  0.00000000000E+00 0.  1.
          3    1    3    3  501    0  0.94394082140E+01  0.91409265988E+01 -0.75514056001E+03  0.75525487377E+03  0.00000000000E+00 0.  1.
         -3    1    1    2    0  502 -0.11047807551E+02 -0.93645861461E+01 -0.21542157102E+03  0.21590785717E+03  0.00000000000E+00 0. -1.
<mgrwt>
<rscale>  1 0.30000000E+03</rscale>
<asrwt>0</asrwt>
<pdfrwt beam="1">  1       21 0.11742757E-02 0.30000000E+03</pdfrwt>
<pdfrwt beam="2">0</pdfrwt>
<totfact> 0.31290744E+05</totfact>
</mgrwt>
</event>
<event>
 6    1  0.1132867E-002  0.3000000E+03  0.7818608E-02  0.1093470E+00
         21   -1    0    0  501  502  0.00000000000E+00  0.00000000000E+00  0.35440809986E+00  0.35440809986E+00  0.00000000000E+00 0. -1.
         13   -1    0    0    0    0 -0.00000000000E+00 -0.00000000000E+00 -0.10000000000E+04  0.10000000000E+04  0.00000000000E+00 0.  1.
    9000005    2    1    2  501    0 -0.10318673387E+02  0.94306120679E+01 -0.81479661054E+03  0.81497760973E+03  0.99787948806E+01 0.  0.
         13    1    3    3    0    0 -0.79413661357E+01  0.11418067278E+02 -0.61705531709E+03  0.61721203966E+03  0.00000000000E+00 0.  1.
          3    1    3    3  501    0 -0.23773072511E+01 -0.19874552098E+01 -0.19774129346E+03  0.19776557007E+03  0.00000000000E+00 0.  1.
         -3    1    1    2    0  502  0.10318673387E+02 -0.94306120679E+01 -0.18484898136E+03  0.18537679837E+03  0.00000000000E+00 0. -1.
<mgrwt>
<rscale>  1 0.30000000E+03</rscale>
<asrwt>0</asrwt>
<pdfrwt beam="1">  1       21 0.12887594E-02 0.30000000E+03</pdfrwt>
<pdfrwt beam="2">0</pdfrwt>
<totfact> 0.26966199E+05</totfact>
</mgrwt>
</event>
<event>
 6    1  0.1132867E-002  0.3000000E+03  0.7818608E-02  0.1093470E+00
         21   -1    0    0  501  502  0.00000000000E+00  0.00000000000E+00  0.48337162474E+00  0.48337162474E+00  0.00000000000E+00 0. -1.
         13   -1    0    0    0    0 -0.00000000000E+00 -0.00000000000E+00 -0.10000000000E+04  0.10000000000E+04  0.00000000000E+00 0.  1.
    9000005    2    1    2  501    0 -0.10239523550E+00  0.13353506787E+02 -0.89184886082E+03  0.89199063086E+03  0.86352977972E+01 0.  0.
         13    1    3    3    0    0 -0.22881578917E+00  0.13717542980E+02 -0.66530081745E+03  0.66544225974E+03  0.00000000000E+00 0.  1.
          3    1    3    3  501    0  0.12642055367E+00 -0.36403619379E+00 -0.22654804337E+03  0.22654837112E+03  0.00000000000E+00 0.  1.
         -3    1    1    2    0  502  0.10239523550E+00 -0.13353506787E+02 -0.10766776756E+03  0.10849274077E+03  0.00000000000E+00 0. -1.
<mgrwt>
<rscale>  1 0.30000000E+03</rscale>
<asrwt>0</asrwt>
<pdfrwt beam="1">  1       21 0.17577187E-02 0.30000000E+03</pdfrwt>
<pdfrwt beam="2">0</pdfrwt>
<totfact> 0.16352632E+05</totfact>
</mgrwt>
</event>
<event>
 6    1  0.1132867E-002  0.3000000E+03  0.7818608E-02  0.1093470E+00
         21   -1    0    0  501  502  0.00000000000E+00  0.00000000000E+00  0.12478405658E+00  0.12478405658E+00  0.00000000000E+00 0. -1.
         13   -1    0    0    0    0 -0.00000000000E+00 -0.00000000000E+00 -0.10000000000E+04  0.10000000000E+04  0.00000000000E+00 0.  1.
    9000005    2    1    2  501    0  0.88938248786E-01 -0.77919253512E+01 -0.71836359709E+03  0.71850533593E+03  0.11955673660E+02 0.  0.
         13    1    3    3    0    0  0.27598826734E+01  0.21331435792E+01 -0.11104472628E+03  0.11109949815E+03  0.00000000000E+00 0.  1.
          3    1    3    3  501    0 -0.26709444247E+01 -0.99250689304E+01 -0.60731887081E+03  0.60740583778E+03  0.00000000000E+00 0.  1.
         -1    1    1    2    0  502 -0.88938248786E-01  0.77919253512E+01 -0.28151161885E+03  0.28161944812E+03  0.00000000000E+00 0. -1.
<mgrwt>
<rscale>  1 0.30000000E+03</rscale>
<asrwt>0</asrwt>
<pdfrwt beam="1">  1       21 0.45376116E-03 0.30000000E+03</pdfrwt>
<pdfrwt beam="2">0</pdfrwt>
<totfact> 0.13937385E+06</totfact>
</mgrwt>
</event>
<event>
 6    1  0.1132867E-002  0.3000000E+03  0.7818608E-02  0.1093470E+00
         21   -1    0    0  501  502  0.00000000000E+00  0.00000000000E+00  0.23293503831E+00  0.23293503831E+00  0.00000000000E+00 0. -1.
         13   -1    0    0    0    0 -0.00000000000E+00 -0.00000000000E+00 -0.10000000000E+04  0.10000000000E+04  0.00000000000E+00 0.  1.
    9000005    2    1    2  501    0 -0.23591178873E+01  0.99635608508E+01 -0.82665025977E+03  0.82681359868E+03  0.12854454784E+02 0.  0.
         13    1    3    3    0    0  0.21650621881E+01 -0.38026458420E+00 -0.28909275510E+02  0.28992728501E+02  0.00000000000E+00 0.  1.
          3    1    3    3  501    0 -0.45241800754E+01  0.10343825435E+02 -0.79774098426E+03  0.79782087018E+03  0.00000000000E+00 0.  1.
         -3    1    1    2    0  502  0.23591178873E+01 -0.99635608508E+01 -0.17311680519E+03  0.17341933636E+03  0.00000000000E+00 0. -1.
<mgrwt>
<rscale>  1 0.30000000E+03</rscale>
<asrwt>0</asrwt>
<pdfrwt beam="1">  1       21 0.84703829E-03 0.30000000E+03</pdfrwt>
<pdfrwt beam="2">0</pdfrwt>
<totfact> 0.52549425E+05</totfact>
</mgrwt>
</event>
<event>
 6    1  0.1132867E-002  0.3000000E+03  0.7818608E-02  0.1093470E+00
         21   -1    0    0  501  502  0.00000000000E+00  0.00000000000E+00  0.22159537967E+00  0.22159537967E+00  0.00000000000E+00 0. -1.
         13   -1    0    0    0    0 -0.00000000000E+00 -0.00000000000E+00 -0.10000000000E+04  0.10000000000E+04  0.00000000000E+00 0.  1.
    9000005    2    1    2  501    0 -0.43583732785E+01  0.84729692977E+01 -0.88112665269E+03  0.88118788224E+03  0.41375245507E+01 0.  0.
         13    1    3    3    0    0 -0.45127605560E+00  0.32892247092E+00 -0.20657036627E+03  0.20657112107E+03  0.00000000000E+00 0.  1.
          3    1    3    3  501    0 -0.39070972229E+01  0.81440468268E+01 -0.67455628642E+03  0.67461676117E+03  0.00000000000E+00 0.  1.
         -3    1    1    2    0  502  0.43583732785E+01 -0.84729692977E+01 -0.11865175193E+03  0.11903371314E+03  0.00000000000E+00 0. -1.
<mgrwt>
<rscale>  1 0.30000000E+03</rscale>
<asrwt>0</asrwt>
<pdfrwt beam="1">  1       21 0.80580308E-03 0.30000000E+03</pdfrwt>
<pdfrwt beam="2">0</pdfrwt>
<totfact> 0.56853737E+05</totfact>
</mgrwt>
</event>
<event>
 6    1  0.1132867E-002  0.3000000E+03  0.7818608E-02  0.1093470E+00
         21   -1    0    0  501  502  0.00000000000E+00  0.00000000000E+00  0.81957826337E-01  0.81957826337E-01  0.00000000000E+00 0. -1.
         13   -1    0    0    0    0 -0.00000000000E+00 -0.00000000000E+00 -0.10000000000E+04  0.10000000000E+04  0.00000000000E+00 0.  1.
    9000005    2    1    2  501    0  0.79850583504E+01 -0.21304578229E+01 -0.60382581869E+03  0.60390352642E+03  0.50546907331E+01 0.  0.
         13    1    3    3    0    0  0.69952886129E+00 -0.18829932857E+01 -0.72915475396E+02  0.72943139201E+02  0.00000000000E+00 0.  1.
          1    1    3    3  501    0  0.72855294891E+01 -0.24746453716E+00 -0.53091034329E+03  0.53096038722E+03  0.00000000000E+00 0.  1.
         -1    1    1    2    0  502 -0.79850583504E+01  0.21304578229E+01 -0.39609222349E+03  0.39617843141E+03  0.00000000000E+00 0. -1.
<mgrwt>
<rscale>  1 0.30000000E+03</rscale>
<asrwt>0</asrwt>
<pdfrwt beam="1">  1       21 0.29802909E-03 0.30000000E+03</pdfrwt>
<pdfrwt beam="2">0</pdfrwt>
<totfact> 0.26617681E+06</totfact>
</mgrwt>
</event>
<event>
 6    1  0.1132867E-002  0.3000000E+03  0.7818608E-02  0.1093470E+00
         21   -1    0    0  501  502  0.00000000000E+00  0.00000000000E+00  0.92054274804E+00  0.92054274804E+00  0.00000000000E+00 0. -1.
         13   -1    0    0    0    0 -0.00000000000E+00 -0.00000000000E+00 -0.10000000000E+04  0.10000000000E+04  0.00000000000E+00 0.  1.
    9000005    2    1    2  501    0 -0.20577100455E+02 -0.11291053220E+02 -0.80520189612E+03  0.80562739475E+03  0.11597443873E+02 0.  0.
         13    1    3    3    0    0 -0.16208904562E+02 -0.32276986952E+01 -0.58752784573E+03  0.58776025396E+03  0.00000000000E+00 0.  1.
          3    1    3    3  501    0 -0.43681958931E+01 -0.80633545250E+01 -0.21767405039E+03  0.21786714078E+03  0.00000000000E+00 0.  1.
         -1    1    1    2    0  502  0.20577100455E+02  0.11291053220E+02 -0.19387756113E+03  0.19529314800E+03  0.00000000000E+00 0. -1.
<mgrwt>
<rscale>  1 0.30000000E+03</rscale>
<asrwt>0</asrwt>
<pdfrwt beam="1">  1       21 0.33474352E-02 0.30000000E+03</pdfrwt>
<pdfrwt beam="2">0</pdfrwt>
<totfact> 0.56687246E+04</totfact>
</mgrwt>
</event>
<event>
 6    1  0.1132867E-002  0.3000000E+03  0.7818608E-02  0.1093470E+00
         21   -1    0    0  501  502  0.00000000000E+00  0.00000000000E+00  0.11399632107E+00  0.11399632107E+00  0.00000000000E+00 0. -1.
         13   -1    0    0    0    0 -0.00000000000E+00 -0.00000000000E+00 -0.10000000000E+04  0.10000000000E+04  0.00000000000E+00 0.  1.
    9000005    2    1    2  501    0 -0.58884448357E+01  0.73848086739E+01 -0.72230755555E+03  0.72237490284E+03  0.28436363185E+01 0.  0.
         13    1    3    3    0    0 -0.49919669526E+01  0.54540367053E+01 -0.46758418190E+03  0.46764263430E+03  0.00000000000E+00 0.  1.
          3    1    3    3  501    0 -0.89647788309E+00  0.19307719686E+01 -0.25472337365E+03  0.25473226854E+03  0.00000000000E+00 0.  1.
         -3    1    1    2    0  502  0.58884448357E+01 -0.73848086739E+01 -0.27757844813E+03  0.27773909348E+03  0.00000000000E+00 0. -1.
<mgrwt>
<rscale>  1 0.30000000E+03</rscale>
<asrwt>0</asrwt>
<pdfrwt beam="1">  1       21 0.41453295E-03 0.30000000E+03</pdfrwt>
<pdfrwt beam="2">0</pdfrwt>
<totfact> 0.16027778E+06</totfact>
</mgrwt>
</event>
<event>
 6    1  0.1132867E-002  0.3000000E+03  0.7818608E-02  0.1093470E+00
         21   -1    0    0  501  502  0.00000000000E+00  0.00000000000E+00  0.45857197506E+00  0.45857197506E+00  0.00000000000E+00 0. -1.
         13   -1    0    0    0    0 -0.00000000000E+00 -0.00000000000E+00 -0.10000000000E+04  0.10000000000E+04  0.00000000000E+00 0.  1.
    9000005    2    1    2  501    0  0.40555379601E+01 -0.17875859545E+02 -0.34168841339E+03  0.34235023544E+03  0.10803616221E+02 0.  0.
         13    1    3    3    0    0  0.73711869059E+00 -0.24520158935E+01 -0.11346728676E+02  0.11632023794E+02  0.00000000000E+00 0.  1.
          1    1    3    3  501    0  0.33184192695E+01 -0.15423843652E+02 -0.33034168471E+03  0.33071821165E+03  0.00000000000E+00 0.  1.
         -3    1    1    2    0  502 -0.40555379601E+01  0.17875859545E+02 -0.65785301464E+03  0.65810833653E+03  0.00000000000E+00 0. -1.
<mgrwt>
<rscale>  1 0.30000000E+03</rscale>
<asrwt>0</asrwt>
<pdfrwt beam="1">  1       21 0.16675380E-02 0.30000000E+03</pdfrwt>
<pdfrwt beam="2">0</pdfrwt>
<totfact> 0.17809937E+05</totfact>
</mgrwt>
</event>
<event>
 6    1  0.1132867E-002  0.3000000E+03  0.7818608E-02  0.1093470E+00
         21   -1    0    0  501  502  0.00000000000E+00  0.00000000000E+00  0.36110836655E+00  0.36110836655E+00  0.00000000000E+00 0. -1.
         13   -1    0    0    0    0 -0.00000000000E+00 -0.00000000000E+00 -0.10000000000E+04  0.10000000000E+04  0.00000000000E+00 0.  1.
    9000005    2    1    2  501    0  0.85265919451E+01  0.45291599844E+01 -0.92824681195E+03  0.92831914073E+03  0.64083599874E+01 0.  0.
         13    1    3    3    0    0  0.51124659659E+01 -0.86483418752E+00 -0.38957933101E+03  0.38961383496E+03  0.00000000000E+00 0.  1.
          3    1    3    3  501    0  0.34141259793E+01  0.53939941719E+01 -0.53866748095E+03  0.53870530576E+03  0.00000000000E+00 0.  1.
         -1    1    1    2    0  502 -0.85265919451E+01 -0.45291599844E+01 -0.71392079679E+02  0.72041967639E+02  0.00000000000E+00 0. -1.
<mgrwt>
<rscale>  1 0.30000000E+03</rscale>
<asrwt>0</asrwt>
<pdfrwt beam="1">  1       21 0.13131241E-02 0.30000000E+03</pdfrwt>
<pdfrwt beam="2">0</pdfrwt>
<totfact> 0.26168496E+05</totfact>
</mgrwt>
</event>
<event>
 6    1  0.1132867E-002  0.3000000E+03  0.7818608E-02  0.1093470E+00
         21   -1    0    0  501  502  0.00000000000E+00  0.00000000000E+00  0.63344740902E+00  0.63344740902E+00  0.00000000000E+00 0. -1.
         13   -1    0    0    0    0 -0.00000000000E+00 -0.00000000000E+00 -0.10000000000E+04  0.10000000000E+04  0.00000000000E+00 0.  1.
    9000005    2    1    2  501    0  0.22713405096E+01 -0.14083211538E+02 -0.91083889190E+03  0.91096381742E+03  0.49085452051E+01 0.  0.
         13    1    3    3    0    0  0.23584029780E+01 -0.10844652457E+02 -0.55995769729E+03  0.56006766673E+03  0.00000000000E+00 0.  1.
          3    1    3    3  501    0 -0.87062468395E-01 -0.32385590815E+01 -0.35088119460E+03  0.35089615069E+03  0.00000000000E+00 0.  1.
         -3    1    1    2    0  502 -0.22713405096E+01  0.14083211538E+02 -0.88527660696E+02  0.89669629994E+02  0.00000000000E+00 0. -1.
<mgrwt>
<rscale>  1 0.30000000E+03</rscale>
<asrwt>0</asrwt>
<pdfrwt beam="1">  1       21 0.23034500E-02 0.30000000E+03</pdfrwt>
<pdfrwt beam="2">0</pdfrwt>
<totfact> 0.10521117E+05</totfact>
</mgrwt>
</event>
<event>
 6    1  0.1132867E-002  0.3000000E+03  0.7818608E-02  0.1093470E+00
         21   -1    0    0  501  502  0.00000000000E+00  0.00000000000E+00  0.52898163571E+00  0.52898163571E+00  0.00000000000E+00 0. -1.
         13   -1    0    0    0    0 -0.00000000000E+00 -0.00000000000E+00 -0.10000000000E+04  0.10000000000E+04  0.00000000000E+00 0.  1.
    9000005    2    1    2  501    0  0.11115928948E+02  0.14995123960E+01 -0.93161702528E+03  0.93175415491E+03  0.11389073046E+02 0.  0.
         13    1    3    3    0    0  0.65265895104E+01  0.18341477012E+01 -0.83508530839E+03  0.83511282636E+03  0.00000000000E+00 0.  1.
          1    1    3    3  501    0  0.45893394378E+01 -0.33463530521E+00 -0.96531716887E+02  0.96641328542E+02  0.00000000000E+00 0.  1.
         -3    1    1    2    0  502 -0.11115928948E+02 -0.14995123960E+01 -0.67853993087E+02  0.68774826729E+02  0.00000000000E+00 0. -1.
<mgrwt>
<rscale>  1 0.30000000E+03</rscale>
<asrwt>0</asrwt>
<pdfrwt beam="1">  1       21 0.19235736E-02 0.30000000E+03</pdfrwt>
<pdfrwt beam="2">0</pdfrwt>
<totfact> 0.14124605E+05</totfact>
</mgrwt>
</event>
<event>
 6    1  0.1132867E-002  0.3000000E+03  0.7818608E-02  0.1093470E+00
         21   -1    0    0  501  502  0.00000000000E+00  0.00000000000E+00  0.22718902844E+00  0.22718902844E+00  0.00000000000E+00 0. -1.
         13   -1    0    0    0    0 -0.00000000000E+00 -0.00000000000E+00 -0.10000000000E+04  0.10000000000E+04  0.00000000000E+00 0.  1.
    9000005    2    1    2  501    0  0.77826545259E+01  0.65359161195E+01 -0.50919072401E+03  0.50953984258E+03  0.15886152899E+02 0.  0.
         13    1    3    3    0    0  0.53496514487E+01  0.11430028977E+02 -0.41403293682E+03  0.41422522510E+03  0.00000000000E+00 0.  1.
          1    1    3    3  501    0  0.24330030772E+01 -0.48941128572E+01 -0.95157787185E+02  0.95314617486E+02  0.00000000000E+00 0.  1.
         -1    1    1    2    0  502 -0.77826545259E+01 -0.65359161195E+01 -0.49058208696E+03  0.49068734644E+03  0.00000000000E+00 0. -1.
<mgrwt>
<rscale>  1 0.30000000E+03</rscale>
<asrwt>0</asrwt>
<pdfrwt beam="1">  1       21 0.82614366E-03 0.30000000E+03</pdfrwt>
<pdfrwt beam="2">0</pdfrwt>
<totfact> 0.54661826E+05</totfact>
</mgrwt>
</event>
<event>
 6    1  0.1132867E-002  0.3000000E+03  0.7818608E-02  0.1093470E+00
         21   -1    0    0  501  502  0.00000000000E+00  0.00000000000E+00  0.41286604497E+00  0.41286604497E+00  0.00000000000E+00 0. -1.
         13   -1    0    0    0    0 -0.00000000000E+00 -0.00000000000E+00 -0.10000000000E+04  0.10000000000E+04  0.00000000000E+00 0.  1.
    9000005    2    1    2  501    0  0.13543154280E+02  0.39229286517E+01 -0.85156329085E+03  0.85171900429E+03  0.81496958558E+01 0.  0.
         13    1    3    3    0    0  0.12703884951E+02  0.59218298906E+01 -0.76618264849E+03  0.76631084268E+03  0.00000000000E+00 0.  1.
          3    1    3    3  501    0  0.83926932878E+00 -0.19989012389E+01 -0.85380642361E+02  0.85408161607E+02  0.00000000000E+00 0.  1.
         -1    1    1    2    0  502 -0.13543154280E+02 -0.39229286517E+01 -0.14802384310E+03  0.14869386176E+03  0.00000000000E+00 0. -1.
<mgrwt>
<rscale>  1 0.30000000E+03</rscale>
<asrwt>0</asrwt>
<pdfrwt beam="1">  1       21 0.15013342E-02 0.30000000E+03</pdfrwt>
<pdfrwt beam="2">0</pdfrwt>
<totfact> 0.21100078E+05</totfact>
</mgrwt>
</event>
<event>
 6    1  0.1132867E-002  0.3000000E+03  0.7818608E-02  0.1093470E+00
         21   -1    0    0  501  502  0.00000000000E+00  0.00000000000E+00  0.15051141456E+00  0.15051141456E+00  0.00000000000E+00 0. -1.
         13   -1    0    0    0    0 -0.00000000000E+00 -0.00000000000E+00 -0.10000000000E+04  0.10000000000E+04  0.00000000000E+00 0.  1.
    9000005    2    1    2  501    0 -0.24970373128E+01 -0.98193295476E+01 -0.73794170098E+03  0.73804682270E+03  0.72459663163E+01 0.  0.
         13    1    3    3    0    0 -0.15337416132E+01  0.15604243213E+00 -0.35292196271E+02  0.35325852151E+02  0.00000000000E+00 0.  1.
          3    1    3    3  501    0 -0.96329569953E+00 -0.99753719797E+01 -0.70264950471E+03  0.70272097055E+03  0.00000000000E+00 0.  1.
         -1    1    1    2    0  502  0.24970373128E+01  0.98193295476E+01 -0.26190778761E+03  0.26210368872E+03  0.00000000000E+00 0. -1.
<mgrwt>
<rscale>  1 0.30000000E+03</rscale>
<asrwt>0</asrwt>
<pdfrwt beam="1">  1       21 0.54731539E-03 0.30000000E+03</pdfrwt>
<pdfrwt beam="2">0</pdfrwt>
<totfact> 0.10418448E+06</totfact>
</mgrwt>
</event>
<event>
 6    1  0.1579413E-002  0.3000000E+03  0.7818608E-02  0.1093470E+00
         21   -1    0    0  501  502  0.00000000000E+00  0.00000000000E+00  0.19412336292E+01  0.19412336292E+01  0.00000000000E+00 0. -1.
         13   -1    0    0    0    0 -0.00000000000E+00 -0.00000000000E+00 -0.10000000000E+04  0.10000000000E+04  0.00000000000E+00 0.  1.
    9000005    2    1    2  501    0  0.14124249523E+02  0.23272988981E+01 -0.94162116154E+03  0.94371654828E+03  0.61201314499E+02 0.  0.
         13    1    3    3    0    0 -0.22975882064E+02  0.15867326209E+01 -0.50361943216E+03  0.50414575405E+03  0.00000000000E+00 0.  1.
          3    1    3    3  501    0  0.37100131587E+02  0.74056627727E+00 -0.43800172938E+03  0.43957079423E+03  0.00000000000E+00 0.  1.
         -1    1    1    2    0  502 -0.14124249523E+02 -0.23272988981E+01 -0.56437604832E+02  0.58224685348E+02  0.00000000000E+00 0. -1.
<mgrwt>
<rscale>  1 0.30000000E+03</rscale>
<asrwt>0</asrwt>
<pdfrwt beam="1">  1       21 0.70590463E-02 0.30000000E+03</pdfrwt>
<pdfrwt beam="2">0</pdfrwt>
<totfact> 0.15901050E+04</totfact>
</mgrwt>
</event>
<event>
 6    1  0.1132867E-002  0.3000000E+03  0.7818608E-02  0.1093470E+00
         21   -1    0    0  501  502  0.00000000000E+00  0.00000000000E+00  0.18063068238E+00  0.18063068238E+00  0.00000000000E+00 0. -1.
         13   -1    0    0    0    0 -0.00000000000E+00 -0.00000000000E+00 -0.10000000000E+04  0.10000000000E+04  0.00000000000E+00 0.  1.
    9000005    2    1    2  501    0  0.10940956164E+02  0.17055228856E+01 -0.34313951638E+03  0.34340742586E+03  0.78306511941E+01 0.  0.
         13    1    3    3    0    0  0.89913656454E-01  0.26659571968E+01 -0.69355409952E+02  0.69406687732E+02  0.00000000000E+00 0.  1.
          3    1    3    3  501    0  0.10851042508E+02 -0.96043431123E+00 -0.27378410643E+03  0.27400073812E+03  0.00000000000E+00 0.  1.
         -3    1    1    2    0  502 -0.10940956164E+02 -0.17055228856E+01 -0.65667985293E+03  0.65677320483E+03  0.00000000000E+00 0. -1.
<mgrwt>
<rscale>  1 0.30000000E+03</rscale>
<asrwt>0</asrwt>
<pdfrwt beam="1">  1       21 0.65684023E-03 0.30000000E+03</pdfrwt>
<pdfrwt beam="2">0</pdfrwt>
<totfact> 0.78369315E+05</totfact>
</mgrwt>
</event>
<event>
 6    1  0.1132867E-002  0.3000000E+03  0.7818608E-02  0.1093470E+00
         21   -1    0    0  501  502  0.00000000000E+00  0.00000000000E+00  0.10633758818E+01  0.10633758818E+01  0.00000000000E+00 0. -1.
         13   -1    0    0    0    0 -0.00000000000E+00 -0.00000000000E+00 -0.10000000000E+04  0.10000000000E+04  0.00000000000E+00 0.  1.
    9000005    2    1    2  501    0  0.17187418867E+02 -0.32280614406E+00 -0.92119099918E+03  0.92143992602E+03  0.12773751203E+02 0.  0.
         13    1    3    3    0    0  0.72230942114E+01  0.25560495312E+01 -0.65804232456E+03  0.65808692997E+03  0.00000000000E+00 0.  1.
          1    1    3    3  501    0  0.99643246552E+01 -0.28788556752E+01 -0.26314867462E+03  0.26335299605E+03  0.00000000000E+00 0.  1.
         -1    1    1    2    0  502 -0.17187418867E+02  0.32280614406E+00 -0.77745624938E+02  0.79623449863E+02  0.00000000000E+00 0. -1.
<mgrwt>
<rscale>  1 0.30000000E+03</rscale>
<asrwt>0</asrwt>
<pdfrwt beam="1">  1       21 0.38668295E-02 0.30000000E+03</pdfrwt>
<pdfrwt beam="2">0</pdfrwt>
<totfact> 0.44512486E+04</totfact>
</mgrwt>
</event>
<event>
 6    1  0.1132867E-002  0.3000000E+03  0.7818608E-02  0.1093470E+00
         21   -1    0    0  501  502  0.00000000000E+00  0.00000000000E+00  0.12357438367E+01  0.12357438367E+01  0.00000000000E+00 0. -1.
         13   -1    0    0    0    0 -0.00000000000E+00 -0.00000000000E+00 -0.10000000000E+04  0.10000000000E+04  0.00000000000E+00 0.  1.
    9000005    2    1    2  501    0 -0.22748192788E+02  0.74976182637E+01 -0.79748136373E+03  0.79853276571E+03  0.33231880211E+02 0.  0.
         13    1    3    3    0    0 -0.68665125023E+01  0.19624631208E+02 -0.36812350379E+03  0.36871016962E+03  0.00000000000E+00 0.  1.
          3    1    3    3  501    0 -0.15881680286E+02 -0.12127012945E+02 -0.42935785995E+03  0.42982259609E+03  0.00000000000E+00 0.  1.
         -3    1    1    2    0  502  0.22748192788E+02 -0.74976182637E+01 -0.20128289243E+03  0.20270297813E+03  0.00000000000E+00 0. -1.
<mgrwt>
<rscale>  1 0.30000000E+03</rscale>
<asrwt>0</asrwt>
<pdfrwt beam="1">  1       21 0.44936234E-02 0.30000000E+03</pdfrwt>
<pdfrwt beam="2">0</pdfrwt>
<totfact> 0.34541199E+04</totfact>
</mgrwt>
</event>
<event>
 6    1  0.1132867E-002  0.3000000E+03  0.7818608E-02  0.1093470E+00
         21   -1    0    0  501  502  0.00000000000E+00  0.00000000000E+00  0.73538902159E+00  0.73538902159E+00  0.00000000000E+00 0. -1.
         13   -1    0    0    0    0 -0.00000000000E+00 -0.00000000000E+00 -0.10000000000E+04  0.10000000000E+04  0.00000000000E+00 0.  1.
    9000005    2    1    2  501    0 -0.10177528270E+02  0.80136567825E+01 -0.92926345126E+03  0.92954576100E+03  0.18893362815E+02 0.  0.
         13    1    3    3    0    0 -0.87254744768E+01  0.86871868216E+01 -0.92296424120E+03  0.92304636484E+03  0.00000000000E+00 0.  1.
          1    1    3    3  501    0 -0.14520537928E+01 -0.67353003908E+00 -0.62992100679E+01  0.64993961574E+01  0.00000000000E+00 0.  1.
         -1    1    1    2    0  502  0.10177528270E+02 -0.80136567825E+01 -0.70001159715E+02  0.71189628024E+02  0.00000000000E+00 0. -1.
<mgrwt>
<rscale>  1 0.30000000E+03</rscale>
<asrwt>0</asrwt>
<pdfrwt beam="1">  1       21 0.26741475E-02 0.30000000E+03</pdfrwt>
<pdfrwt beam="2">0</pdfrwt>
<totfact> 0.82305747E+04</totfact>
</mgrwt>
</event>
<event>
 6    1  0.1132867E-002  0.3000000E+03  0.7818608E-02  0.1093470E+00
         21   -1    0    0  501  502  0.00000000000E+00  0.00000000000E+00  0.15399041358E+00  0.15399041358E+00  0.00000000000E+00 0. -1.
         13   -1    0    0    0    0 -0.00000000000E+00 -0.00000000000E+00 -0.10000000000E+04  0.10000000000E+04  0.00000000000E+00 0.  1.
    9000005    2    1    2  501    0 -0.51994129664E+01  0.70136795790E+01 -0.79331158153E+03  0.79343510988E+03  0.10944523944E+02 0.  0.
         13    1    3    3    0    0  0.22891570426E+01  0.19483095966E+01 -0.67148973604E+02  0.67216224279E+02  0.00000000000E+00 0.  1.
          1    1    3    3  501    0 -0.74885700090E+01  0.50653699824E+01 -0.72616260792E+03  0.72621888560E+03  0.00000000000E+00 0.  1.
         -3    1    1    2    0  502  0.51994129664E+01 -0.70136795790E+01 -0.20653442806E+03  0.20671888054E+03  0.00000000000E+00 0. -1.
<mgrwt>
<rscale>  1 0.30000000E+03</rscale>
<asrwt>0</asrwt>
<pdfrwt beam="1">  1       21 0.55996632E-03 0.30000000E+03</pdfrwt>
<pdfrwt beam="2">0</pdfrwt>
<totfact> 0.10054403E+06</totfact>
</mgrwt>
</event>
<event>
 6    1  0.1132867E-002  0.3000000E+03  0.7818608E-02  0.1093470E+00
         21   -1    0    0  501  502  0.00000000000E+00  0.00000000000E+00  0.15465754297E+01  0.15465754297E+01  0.00000000000E+00 0. -1.
         13   -1    0    0    0    0 -0.00000000000E+00 -0.00000000000E+00 -0.10000000000E+04  0.10000000000E+04  0.00000000000E+00 0.  1.
    9000005    2    1    2  501    0 -0.97956633794E+00 -0.16630020301E+02 -0.94566458387E+03  0.94619155012E+03  0.26822139950E+02 0.  0.
         13    1    3    3    0    0  0.98346262567E+01  0.10036711445E+01 -0.20507290708E+03  0.20531104317E+03  0.00000000000E+00 0.  1.
          3    1    3    3  501    0 -0.10814192595E+02 -0.17633691446E+02 -0.74059167679E+03  0.74088050694E+03  0.00000000000E+00 0.  1.
         -1    1    1    2    0  502  0.97956633794E+00  0.16630020301E+02 -0.52788840696E+02  0.55355025313E+02  0.00000000000E+00 0. -1.
<mgrwt>
<rscale>  1 0.30000000E+03</rscale>
<asrwt>0</asrwt>
<pdfrwt beam="1">  1       21 0.56239225E-02 0.30000000E+03</pdfrwt>
<pdfrwt beam="2">0</pdfrwt>
<totfact> 0.23555984E+04</totfact>
</mgrwt>
</event>
<event>
 6    1  0.1132867E-002  0.3000000E+03  0.7818608E-02  0.1093470E+00
         21   -1    0    0  501  502  0.00000000000E+00  0.00000000000E+00  0.26870199645E+00  0.26870199645E+00  0.00000000000E+00 0. -1.
         13   -1    0    0    0    0 -0.00000000000E+00 -0.00000000000E+00 -0.10000000000E+04  0.10000000000E+04  0.00000000000E+00 0.  1.
    9000005    2    1    2  501    0  0.13491475514E+02 -0.81562587104E+00 -0.70159629893E+03  0.70182748026E+03  0.11906310221E+02 0.  0.
         13    1    3    3    0    0  0.15361418552E+02  0.71926579657E+00 -0.63770613465E+03  0.63789153050E+03  0.00000000000E+00 0.  1.
          3    1    3    3  501    0 -0.18699430386E+01 -0.15348916676E+01 -0.63890164282E+02  0.63935949758E+02  0.00000000000E+00 0.  1.
         -1    1    1    2    0  502 -0.13491475514E+02  0.81562587104E+00 -0.29813499907E+03  0.29844122173E+03  0.00000000000E+00 0. -1.
<mgrwt>
<rscale>  1 0.30000000E+03</rscale>
<asrwt>0</asrwt>
<pdfrwt beam="1">  1       21 0.97710023E-03 0.30000000E+03</pdfrwt>
<pdfrwt beam="2">0</pdfrwt>
<totfact> 0.41922436E+05</totfact>
</mgrwt>
</event>
<event>
 6    1  0.1132867E-002  0.3000000E+03  0.7818608E-02  0.1093470E+00
         21   -1    0    0  501  502  0.00000000000E+00  0.00000000000E+00  0.29657915245E+00  0.29657915245E+00  0.00000000000E+00 0. -1.
         13   -1    0    0    0    0 -0.00000000000E+00 -0.00000000000E+00 -0.10000000000E+04  0.10000000000E+04  0.00000000000E+00 0.  1.
    9000005    2    1    2  501    0  0.56119977518E+01  0.82858223779E+01 -0.90326651128E+03  0.90334181187E+03  0.59907684857E+01 0.  0.
         13    1    3    3    0    0  0.64900191529E+01  0.81148625094E+01 -0.74119866815E+03  0.74127150020E+03  0.00000000000E+00 0.  1.
          1    1    3    3  501    0 -0.87802140111E+00  0.17095986851E+00 -0.16206784314E+03  0.16207031168E+03  0.00000000000E+00 0.  1.
         -3    1    1    2    0  502 -0.56119977518E+01 -0.82858223779E+01 -0.96436909566E+02  0.96954767278E+02  0.00000000000E+00 0. -1.
<mgrwt>
<rscale>  1 0.30000000E+03</rscale>
<asrwt>0</asrwt>
<pdfrwt beam="1">  1       21 0.10784719E-02 0.30000000E+03</pdfrwt>
<pdfrwt beam="2">0</pdfrwt>
<totfact> 0.35835565E+05</totfact>
</mgrwt>
</event>
<event>
 6    1  0.1132867E-002  0.3000000E+03  0.7818608E-02  0.1093470E+00
         21   -1    0    0  501  502  0.00000000000E+00  0.00000000000E+00  0.81056012705E+00  0.81056012705E+00  0.00000000000E+00 0. -1.
         13   -1    0    0    0    0 -0.00000000000E+00 -0.00000000000E+00 -0.10000000000E+04  0.10000000000E+04  0.00000000000E+00 0.  1.
    9000005    2    1    2  501    0 -0.11793541878E+02 -0.13169718990E+02 -0.88148054432E+03  0.88178151653E+03  0.14770367077E+02 0.  0.
         13    1    3    3    0    0 -0.58918845372E+01  0.58577055436E+00 -0.45474538703E+03  0.45478393161E+03  0.00000000000E+00 0.  1.
          1    1    3    3  501    0 -0.59016573409E+01 -0.13755489545E+02 -0.42673515730E+03  0.42699758492E+03  0.00000000000E+00 0.  1.
         -1    1    1    2    0  502  0.11793541878E+02  0.13169718990E+02 -0.11770889555E+03  0.11902904360E+03  0.00000000000E+00 0. -1.
<mgrwt>
<rscale>  1 0.30000000E+03</rscale>
<asrwt>0</asrwt>
<pdfrwt beam="1">  1       21 0.29474976E-02 0.30000000E+03</pdfrwt>
<pdfrwt beam="2">0</pdfrwt>
<totfact> 0.70053231E+04</totfact>
</mgrwt>
</event>
<event>
 6    1  0.1132867E-002  0.3000000E+03  0.7818608E-02  0.1093470E+00
         21   -1    0    0  501  502  0.00000000000E+00  0.00000000000E+00  0.39041347260E+00  0.39041347260E+00  0.00000000000E+00 0. -1.
         13   -1    0    0    0    0 -0.00000000000E+00 -0.00000000000E+00 -0.10000000000E+04  0.10000000000E+04  0.00000000000E+00 0.  1.
    9000005    2    1    2  501    0  0.11716252478E+02 -0.77895477896E+01 -0.82684019336E+03  0.82704910033E+03  0.12147484208E+02 0.  0.
         13    1    3    3    0    0  0.29150818174E+01  0.14605777017E+01 -0.41100216222E+03  0.41101509503E+03  0.00000000000E+00 0.  1.
          3    1    3    3  501    0  0.88011706607E+01 -0.92501254913E+01 -0.41583803114E+03  0.41603400530E+03  0.00000000000E+00 0.  1.
         -1    1    1    2    0  502 -0.11716252478E+02  0.77895477896E+01 -0.17276939317E+03  0.17334131314E+03  0.00000000000E+00 0. -1.
<mgrwt>
<rscale>  1 0.30000000E+03</rscale>
<asrwt>0</asrwt>
<pdfrwt beam="1">  1       21 0.14196883E-02 0.30000000E+03</pdfrwt>
<pdfrwt beam="2">0</pdfrwt>
<totfact> 0.23086539E+05</totfact>
</mgrwt>
</event>
<event>
 6    1  0.1132867E-002  0.3000000E+03  0.7818608E-02  0.1093470E+00
         21   -1    0    0  501  502  0.00000000000E+00  0.00000000000E+00  0.10814806924E+01  0.10814806924E+01  0.00000000000E+00 0. -1.
         13   -1    0    0    0    0 -0.00000000000E+00 -0.00000000000E+00 -0.10000000000E+04  0.10000000000E+04  0.00000000000E+00 0.  1.
    9000005    2    1    2  501    0  0.10533749167E+02  0.18763436057E+02 -0.86672637600E+03  0.86714944884E+03  0.16447776847E+02 0.  0.
         13    1    3    3    0    0  0.12524707869E+02  0.63111420987E+01 -0.37712073054E+03  0.37738143069E+03  0.00000000000E+00 0.  1.
          3    1    3    3  501    0 -0.19909587022E+01  0.12452293959E+02 -0.48960564546E+03  0.48976801815E+03  0.00000000000E+00 0.  1.
         -3    1    1    2    0  502 -0.10533749167E+02 -0.18763436057E+02 -0.13219214331E+03  0.13393203185E+03  0.00000000000E+00 0. -1.
<mgrwt>
<rscale>  1 0.30000000E+03</rscale>
<asrwt>0</asrwt>
<pdfrwt beam="1">  1       21 0.39326654E-02 0.30000000E+03</pdfrwt>
<pdfrwt beam="2">0</pdfrwt>
<totfact> 0.43266278E+04</totfact>
</mgrwt>
</event>
<event>
 6    1  0.1132867E-002  0.3000000E+03  0.7818608E-02  0.1093470E+00
         21   -1    0    0  501  502  0.00000000000E+00  0.00000000000E+00  0.34226095438E+00  0.34226095438E+00  0.00000000000E+00 0. -1.
         13   -1    0    0    0    0 -0.00000000000E+00 -0.00000000000E+00 -0.10000000000E+04  0.10000000000E+04  0.00000000000E+00 0.  1.
    9000005    2    1    2  501    0 -0.75777524865E+01 -0.90909390700E+01 -0.87241932144E+03  0.87255461515E+03  0.97988003628E+01 0.  0.
         13    1    3    3    0    0 -0.25879072399E+01 -0.57494362042E+01 -0.70404659934E+03  0.70407483077E+03  0.00000000000E+00 0.  1.
          3    1    3    3  501    0 -0.49898452466E+01 -0.33415028657E+01 -0.16837272211E+03  0.16847978438E+03  0.00000000000E+00 0.  1.
         -3    1    1    2    0  502  0.75777524865E+01  0.90909390700E+01 -0.12723841760E+03  0.12778764580E+03  0.00000000000E+00 0. -1.
<mgrwt>
<rscale>  1 0.30000000E+03</rscale>
<asrwt>0</asrwt>
<pdfrwt beam="1">  1       21 0.12445879E-02 0.30000000E+03</pdfrwt>
<pdfrwt beam="2">0</pdfrwt>
<totfact> 0.28514695E+05</totfact>
</mgrwt>
</event>
<event>
 6    1  0.1132867E-002  0.3000000E+03  0.7818608E-02  0.1093470E+00
         21   -1    0    0  501  502  0.00000000000E+00  0.00000000000E+00  0.17480145356E+00  0.17480145356E+00  0.00000000000E+00 0. -1.
         13   -1    0    0    0    0 -0.00000000000E+00 -0.00000000000E+00 -0.10000000000E+04  0.10000000000E+04  0.00000000000E+00 0.  1.
    9000005    2    1    2  501    0  0.93906772468E+00  0.10668488496E+02 -0.72952204959E+03  0.72965956930E+03  0.92718783536E+01 0.  0.
         13    1    3    3    0    0  0.65051553289E+00 -0.10886073286E+01 -0.21247543363E+03  0.21247921812E+03  0.00000000000E+00 0.  1.
          3    1    3    3  501    0  0.28855219180E+00  0.11757095825E+02 -0.51704661596E+03  0.51718035117E+03  0.00000000000E+00 0.  1.
         -1    1    1    2    0  502 -0.93906772468E+00 -0.10668488496E+02 -0.27030314895E+03  0.27051523216E+03  0.00000000000E+00 0. -1.
<mgrwt>
<rscale>  1 0.30000000E+03</rscale>
<asrwt>0</asrwt>
<pdfrwt beam="1">  1       21 0.63564299E-03 0.30000000E+03</pdfrwt>
<pdfrwt beam="2">0</pdfrwt>
<totfact> 0.82497518E+05</totfact>
</mgrwt>
</event>
<event>
 6    1  0.1132867E-002  0.3000000E+03  0.7818608E-02  0.1093470E+00
         21   -1    0    0  501  502  0.00000000000E+00  0.00000000000E+00  0.22547035654E+00  0.22547035654E+00  0.00000000000E+00 0.  1.
         13   -1    0    0    0    0 -0.00000000000E+00 -0.00000000000E+00 -0.10000000000E+04  0.10000000000E+04  0.00000000000E+00 0.  1.
    9000005    2    1    2  501    0 -0.94420135571E+01 -0.26398777180E+01 -0.59214078633E+03  0.59247384343E+03  0.17274945370E+02 0.  0.
         13    1    3    3    0    0 -0.13844065696E+02 -0.42841492896E+01 -0.50357908511E+03  0.50378756143E+03  0.00000000000E+00 0.  1.
          3    1    3    3  501    0  0.44020521384E+01  0.16442715716E+01 -0.88561701216E+02  0.88686281996E+02  0.00000000000E+00 0.  1.
         -3    1    1    2    0  502  0.94420135571E+01  0.26398777180E+01 -0.40763374332E+03  0.40775162693E+03  0.00000000000E+00 0. -1.
<mgrwt>
<rscale>  1 0.30000000E+03</rscale>
<asrwt>0</asrwt>
<pdfrwt beam="1">  1       21 0.81989393E-03 0.30000000E+03</pdfrwt>
<pdfrwt beam="2">0</pdfrwt>
<totfact> 0.55320505E+05</totfact>
</mgrwt>
</event>
<event>
 6    1  0.1132867E-002  0.3000000E+03  0.7818608E-02  0.1093470E+00
         21   -1    0    0  501  502  0.00000000000E+00  0.00000000000E+00  0.21311341279E+00  0.21311341279E+00  0.00000000000E+00 0. -1.
         13   -1    0    0    0    0 -0.00000000000E+00 -0.00000000000E+00 -0.10000000000E+04  0.10000000000E+04  0.00000000000E+00 0.  1.
    9000005    2    1    2  501    0 -0.69462951212E+01 -0.75042557417E+01 -0.80814523847E+03  0.80829884567E+03  0.11988852309E+02 0.  0.
         13    1    3    3    0    0 -0.29531974037E+00 -0.67283219514E+00 -0.27294388515E+01  0.28266151764E+01  0.00000000000E+00 0.  1.
          1    1    3    3  501    0 -0.66509753809E+01 -0.68314235466E+01 -0.80541579962E+03  0.80547223049E+03  0.00000000000E+00 0.  1.
         -1    1    1    2    0  502  0.69462951212E+01  0.75042557417E+01 -0.19164164812E+03  0.19191426774E+03  0.00000000000E+00 0. -1.
<mgrwt>
<rscale>  1 0.30000000E+03</rscale>
<asrwt>0</asrwt>
<pdfrwt beam="1">  1       21 0.77495950E-03 0.30000000E+03</pdfrwt>
<pdfrwt beam="2">0</pdfrwt>
<totfact> 0.60458744E+05</totfact>
</mgrwt>
</event>
<event>
 6    1  0.1132867E-002  0.3000000E+03  0.7818608E-02  0.1093470E+00
         21   -1    0    0  501  502  0.00000000000E+00  0.00000000000E+00  0.14487663959E+00  0.14487663959E+00  0.00000000000E+00 0. -1.
         13   -1    0    0    0    0 -0.00000000000E+00 -0.00000000000E+00 -0.10000000000E+04  0.10000000000E+04  0.00000000000E+00 0.  1.
    9000005    2    1    2  501    0 -0.56955236385E+01 -0.76437916160E+01 -0.78286175236E+03  0.78294223025E+03  0.59284115513E+01 0.  0.
         13    1    3    3    0    0 -0.13630794955E+01 -0.54586373569E+01 -0.55670306046E+03  0.55673149025E+03  0.00000000000E+00 0.  1.
          1    1    3    3  501    0 -0.43324441430E+01 -0.21851542591E+01 -0.22615869190E+03  0.22621074001E+03  0.00000000000E+00 0.  1.
         -1    1    1    2    0  502  0.56955236385E+01  0.76437916160E+01 -0.21699337100E+03  0.21720264639E+03  0.00000000000E+00 0. -1.
<mgrwt>
<rscale>  1 0.30000000E+03</rscale>
<asrwt>0</asrwt>
<pdfrwt beam="1">  1       21 0.52682525E-03 0.30000000E+03</pdfrwt>
<pdfrwt beam="2">0</pdfrwt>
<totfact> 0.11055405E+06</totfact>
</mgrwt>
</event>
<event>
 6    1  0.1132867E-002  0.3000000E+03  0.7818608E-02  0.1093470E+00
         21   -1    0    0  501  502  0.00000000000E+00  0.00000000000E+00  0.19402676927E+00  0.19402676927E+00  0.00000000000E+00 0. -1.
         13   -1    0    0    0    0 -0.00000000000E+00 -0.00000000000E+00 -0.10000000000E+04  0.10000000000E+04  0.00000000000E+00 0.  1.
    9000005    2    1    2  501    0 -0.61546949813E+00 -0.78731320803E+01 -0.75274605980E+03  0.75300793121E+03  0.18219465286E+02 0.  0.
         13    1    3    3    0    0  0.62273237112E+01 -0.62110041036E+00 -0.10573142698E+03  0.10591647642E+03  0.00000000000E+00 0.  1.
          1    1    3    3  501    0 -0.68427932093E+01 -0.72520316699E+01 -0.64701463282E+03  0.64709145479E+03  0.00000000000E+00 0.  1.
         -3    1    1    2    0  502  0.61546949813E+00  0.78731320803E+01 -0.24705991343E+03  0.24718609556E+03  0.00000000000E+00 0. -1.
<mgrwt>
<rscale>  1 0.30000000E+03</rscale>
<asrwt>0</asrwt>
<pdfrwt beam="1">  1       21 0.70555338E-03 0.30000000E+03</pdfrwt>
<pdfrwt beam="2">0</pdfrwt>
<totfact> 0.70059599E+05</totfact>
</mgrwt>
</event>
<event>
 6    1  0.1132867E-002  0.3000000E+03  0.7818608E-02  0.1093470E+00
         21   -1    0    0  501  502  0.00000000000E+00  0.00000000000E+00  0.47020462348E+00  0.47020462348E+00  0.00000000000E+00 0. -1.
         13   -1    0    0    0    0 -0.00000000000E+00 -0.00000000000E+00 -0.10000000000E+04  0.10000000000E+04  0.00000000000E+00 0.  1.
    9000005    2    1    2  501    0 -0.17211619792E+02 -0.46223583199E+01 -0.78213604490E+03  0.78234719163E+03  0.35678372899E+01 0.  0.
         13    1    3    3    0    0 -0.94761642464E+01 -0.70149023183E+00 -0.40563097291E+03  0.40574225311E+03  0.00000000000E+00 0.  1.
          1    1    3    3  501    0 -0.77354555457E+01 -0.39208680881E+01 -0.37650507200E+03  0.37660493852E+03  0.00000000000E+00 0.  1.
         -1    1    1    2    0  502  0.17211619792E+02  0.46223583199E+01 -0.21739375048E+03  0.21812301300E+03  0.00000000000E+00 0. -1.
<mgrwt>
<rscale>  1 0.30000000E+03</rscale>
<asrwt>0</asrwt>
<pdfrwt beam="1">  1       21 0.17098386E-02 0.30000000E+03</pdfrwt>
<pdfrwt beam="2">0</pdfrwt>
<totfact> 0.17101567E+05</totfact>
</mgrwt>
</event>
<event>
 6    1  0.1132867E-002  0.3000000E+03  0.7818608E-02  0.1093470E+00
         21   -1    0    0  501  502  0.00000000000E+00  0.00000000000E+00  0.11149279922E+00  0.11149279922E+00  0.00000000000E+00 0. -1.
         13   -1    0    0    0    0 -0.00000000000E+00 -0.00000000000E+00 -0.10000000000E+04  0.10000000000E+04  0.00000000000E+00 0.  1.
    9000005    2    1    2  501    0 -0.31712377120E+01  0.84870844338E+01 -0.74994686139E+03  0.75000568787E+03  0.24798329495E+01 0.  0.
         13    1    3    3    0    0 -0.12145349959E+01  0.39479333696E+01 -0.44032983730E+03  0.44034921016E+03  0.00000000000E+00 0.  1.
          1    1    3    3  501    0 -0.19567027161E+01  0.45391510642E+01 -0.30961702409E+03  0.30965647770E+03  0.00000000000E+00 0.  1.
         -3    1    1    2    0  502  0.31712377120E+01 -0.84870844338E+01 -0.24994164581E+03  0.25010580493E+03  0.00000000000E+00 0. -1.
<mgrwt>
<rscale>  1 0.30000000E+03</rscale>
<asrwt>0</asrwt>
<pdfrwt beam="1">  1       21 0.40542922E-03 0.30000000E+03</pdfrwt>
<pdfrwt beam="2">0</pdfrwt>
<totfact> 0.16586643E+06</totfact>
</mgrwt>
</event>
<event>
 6    1  0.1132867E-002  0.3000000E+03  0.7818608E-02  0.1093470E+00
         21   -1    0    0  501  502  0.00000000000E+00  0.00000000000E+00  0.17212889421E+00  0.17212889421E+00  0.00000000000E+00 0. -1.
         13   -1    0    0    0    0 -0.00000000000E+00 -0.00000000000E+00 -0.10000000000E+04  0.10000000000E+04  0.00000000000E+00 0.  1.
    9000005    2    1    2  501    0 -0.99776735915E+01  0.95742627244E-01 -0.80708225091E+03  0.80716840551E+03  0.62858552820E+01 0.  0.
         13    1    3    3    0    0 -0.34890055257E+01 -0.10572583746E+01 -0.12200547505E+03  0.12205993158E+03  0.00000000000E+00 0.  1.
          1    1    3    3  501    0 -0.64886680659E+01  0.11530010018E+01 -0.68507677587E+03  0.68510847393E+03  0.00000000000E+00 0.  1.
         -3    1    1    2    0  502  0.99776735915E+01 -0.95742627244E-01 -0.19274562019E+03  0.19300372338E+03  0.00000000000E+00 0. -1.
<mgrwt>
<rscale>  1 0.30000000E+03</rscale>
<asrwt>0</asrwt>
<pdfrwt beam="1">  1       21 0.62592457E-03 0.30000000E+03</pdfrwt>
<pdfrwt beam="2">0</pdfrwt>
<totfact> 0.84509927E+05</totfact>
</mgrwt>
</event>
<event>
 6    1  0.1132867E-002  0.3000000E+03  0.7818608E-02  0.1093470E+00
         21   -1    0    0  501  502  0.00000000000E+00  0.00000000000E+00  0.16135191153E+00  0.16135191153E+00  0.00000000000E+00 0. -1.
         13   -1    0    0    0    0 -0.00000000000E+00 -0.00000000000E+00 -0.10000000000E+04  0.10000000000E+04  0.00000000000E+00 0.  1.
    9000005    2    1    2  501    0  0.10415239301E+02  0.16442872339E+00 -0.77603958940E+03  0.77612000993E+03  0.40399570573E+01 0.  0.
         13    1    3    3    0    0  0.73516233638E+01  0.79816261238E+00 -0.64805803071E+03  0.64810021956E+03  0.00000000000E+00 0.  1.
          3    1    3    3  501    0  0.30636159367E+01 -0.63373388899E+00 -0.12798155869E+03  0.12801979037E+03  0.00000000000E+00 0.  1.
         -3    1    1    2    0  502 -0.10415239301E+02 -0.16442872339E+00 -0.22379905869E+03  0.22404134198E+03  0.00000000000E+00 0. -1.
<mgrwt>
<rscale>  1 0.30000000E+03</rscale>
<asrwt>0</asrwt>
<pdfrwt beam="1">  1       21 0.58673546E-03 0.30000000E+03</pdfrwt>
<pdfrwt beam="2">0</pdfrwt>
<totfact> 0.93487970E+05</totfact>
</mgrwt>
</event>
<event>
 6    1  0.1132867E-002  0.3000000E+03  0.7818608E-02  0.1093470E+00
         21   -1    0    0  501  502  0.00000000000E+00  0.00000000000E+00  0.66409760842E+00  0.66409760842E+00  0.00000000000E+00 0. -1.
         13   -1    0    0    0    0 -0.00000000000E+00 -0.00000000000E+00 -0.10000000000E+04  0.10000000000E+04  0.00000000000E+00 0.  1.
    9000005    2    1    2  501    0 -0.38320518961E+01 -0.16056599882E+02 -0.84180856214E+03  0.84227419279E+03  0.22619936498E+02 0.  0.
         13    1    3    3    0    0  0.65537966963E+01 -0.15925803296E+02 -0.45387193163E+03  0.45419854005E+03  0.00000000000E+00 0.  1.
          1    1    3    3  501    0 -0.10385848592E+02 -0.13079658627E+00 -0.38793663051E+03  0.38807565274E+03  0.00000000000E+00 0.  1.
         -1    1    1    2    0  502  0.38320518961E+01  0.16056599882E+02 -0.15752734025E+03  0.15838990482E+03  0.00000000000E+00 0. -1.
<mgrwt>
<rscale>  1 0.30000000E+03</rscale>
<asrwt>0</asrwt>
<pdfrwt beam="1">  1       21 0.24149055E-02 0.30000000E+03</pdfrwt>
<pdfrwt beam="2">0</pdfrwt>
<totfact> 0.97358512E+04</totfact>
</mgrwt>
</event>
<event>
 6    1  0.1132867E-002  0.3000000E+03  0.7818608E-02  0.1093470E+00
         21   -1    0    0  501  502  0.00000000000E+00  0.00000000000E+00  0.19670312250E+00  0.19670312250E+00  0.00000000000E+00 0. -1.
         13   -1    0    0    0    0 -0.00000000000E+00 -0.00000000000E+00 -0.10000000000E+04  0.10000000000E+04  0.00000000000E+00 0.  1.
    9000005    2    1    2  501    0 -0.12721564637E+02  0.24661195032E+01 -0.51834694815E+03  0.51856599845E+03  0.76952024664E+01 0.  0.
         13    1    3    3    0    0 -0.41476157891E+01  0.44520315569E+01 -0.17315419253E+03  0.17326106802E+03  0.00000000000E+00 0.  1.
          1    1    3    3  501    0 -0.85739488476E+01 -0.19859120537E+01 -0.34519275562E+03  0.34530493043E+03  0.00000000000E+00 0.  1.
         -1    1    1    2    0  502  0.12721564637E+02 -0.24661195032E+01 -0.48145634872E+03  0.48163070467E+03  0.00000000000E+00 0. -1.
<mgrwt>
<rscale>  1 0.30000000E+03</rscale>
<asrwt>0</asrwt>
<pdfrwt beam="1">  1       21 0.71528559E-03 0.30000000E+03</pdfrwt>
<pdfrwt beam="2">0</pdfrwt>
<totfact> 0.68570199E+05</totfact>
</mgrwt>
</event>
<event>
 6    1  0.1132867E-002  0.3000000E+03  0.7818608E-02  0.1093470E+00
         21   -1    0    0  501  502  0.00000000000E+00  0.00000000000E+00  0.65235773648E+00  0.65235773648E+00  0.00000000000E+00 0. -1.
         13   -1    0    0    0    0 -0.00000000000E+00 -0.00000000000E+00 -0.10000000000E+04  0.10000000000E+04  0.00000000000E+00 0.  1.
    9000005    2    1    2  501    0 -0.10076807219E+02 -0.16386936334E+00 -0.92830737928E+03  0.92890078729E+03  0.31630891604E+02 0.  0.
         13    1    3    3    0    0 -0.43010952484E+01  0.13986432624E+02 -0.25466240998E+03  0.25508246269E+03  0.00000000000E+00 0.  1.
          1    1    3    3  501    0 -0.57757119706E+01 -0.14150301988E+02 -0.67364496931E+03  0.67381832460E+03  0.00000000000E+00 0.  1.
         -1    1    1    2    0  502  0.10076807219E+02  0.16386936334E+00 -0.71040262979E+02  0.71751570443E+02  0.00000000000E+00 0. -1.
<mgrwt>
<rscale>  1 0.30000000E+03</rscale>
<asrwt>0</asrwt>
<pdfrwt beam="1">  1       21 0.23722150E-02 0.30000000E+03</pdfrwt>
<pdfrwt beam="2">0</pdfrwt>
<totfact> 0.10025288E+05</totfact>
</mgrwt>
</event>
<event>
 6    1  0.1132867E-002  0.3000000E+03  0.7818608E-02  0.1093470E+00
         21   -1    0    0  501  502  0.00000000000E+00  0.00000000000E+00  0.39049040267E+00  0.39049040267E+00  0.00000000000E+00 0. -1.
         13   -1    0    0    0    0 -0.00000000000E+00 -0.00000000000E+00 -0.10000000000E+04  0.10000000000E+04  0.00000000000E+00 0.  1.
    9000005    2    1    2  501    0  0.93675996586E+01 -0.22692763274E+01 -0.90034556787E+03  0.90065969443E+03  0.21744931508E+02 0.  0.
         13    1    3    3    0    0  0.13426463550E+02 -0.87309085969E+01 -0.65345443958E+03  0.65365067375E+03  0.00000000000E+00 0.  1.
          3    1    3    3  501    0 -0.40588638914E+01  0.64616322695E+01 -0.24689112829E+03  0.24700902068E+03  0.00000000000E+00 0.  1.
         -1    1    1    2    0  502 -0.93675996586E+01  0.22692763274E+01 -0.99263941726E+02  0.99730795973E+02  0.00000000000E+00 0. -1.
<mgrwt>
<rscale>  1 0.30000000E+03</rscale>
<asrwt>0</asrwt>
<pdfrwt beam="1">  1       21 0.14199681E-02 0.30000000E+03</pdfrwt>
<pdfrwt beam="2">0</pdfrwt>
<totfact> 0.23079228E+05</totfact>
</mgrwt>
</event>
<event>
 6    1  0.1132867E-002  0.3000000E+03  0.7818608E-02  0.1093470E+00
         21   -1    0    0  501  502  0.00000000000E+00  0.00000000000E+00  0.30344551851E+00  0.30344551851E+00  0.00000000000E+00 0. -1.
         13   -1    0    0    0    0 -0.00000000000E+00 -0.00000000000E+00 -0.10000000000E+04  0.10000000000E+04  0.00000000000E+00 0.  1.
    9000005    2    1    2  501    0  0.86231083615E+01 -0.94522459823E+01 -0.82980951005E+03  0.82993528295E+03  0.67117777777E+01 0.  0.
         13    1    3    3    0    0 -0.69228759064E+00 -0.15136913749E+01 -0.45781410800E+02  0.45811658981E+02  0.00000000000E+00 0.  1.
          1    1    3    3  501    0  0.93153959522E+01 -0.79385546074E+01 -0.78402809925E+03  0.78412362397E+03  0.00000000000E+00 0.  1.
         -1    1    1    2    0  502 -0.86231083615E+01  0.94522459823E+01 -0.16988704443E+03  0.17036816257E+03  0.00000000000E+00 0. -1.
<mgrwt>
<rscale>  1 0.30000000E+03</rscale>
<asrwt>0</asrwt>
<pdfrwt beam="1">  1       21 0.11034406E-02 0.30000000E+03</pdfrwt>
<pdfrwt beam="2">0</pdfrwt>
<totfact> 0.34553234E+05</totfact>
</mgrwt>
</event>
<event>
 6    1  0.1132867E-002  0.3000000E+03  0.7818608E-02  0.1093470E+00
         21   -1    0    0  501  502  0.00000000000E+00  0.00000000000E+00  0.18570262734E+00  0.18570262734E+00  0.00000000000E+00 0. -1.
         13   -1    0    0    0    0 -0.00000000000E+00 -0.00000000000E+00 -0.10000000000E+04  0.10000000000E+04  0.00000000000E+00 0.  1.
    9000005    2    1    2  501    0 -0.38662949723E+01  0.69378141635E+01 -0.67255329273E+03  0.67282833421E+03  0.17520109641E+02 0.  0.
         13    1    3    3    0    0  0.51354797334E+01 -0.85448508103E+00 -0.37613927810E+03  0.37617530465E+03  0.00000000000E+00 0.  1.
          3    1    3    3  501    0 -0.90017747057E+01  0.77922992445E+01 -0.29641401463E+03  0.29665302956E+03  0.00000000000E+00 0.  1.
         -1    1    1    2    0  502  0.38662949723E+01 -0.69378141635E+01 -0.32726100464E+03  0.32735736842E+03  0.00000000000E+00 0. -1.
<mgrwt>
<rscale>  1 0.30000000E+03</rscale>
<asrwt>0</asrwt>
<pdfrwt beam="1">  1       21 0.67528371E-03 0.30000000E+03</pdfrwt>
<pdfrwt beam="2">0</pdfrwt>
<totfact> 0.75043645E+05</totfact>
</mgrwt>
</event>
<event>
 6    1  0.1132867E-002  0.3000000E+03  0.7818608E-02  0.1093470E+00
         21   -1    0    0  501  502  0.00000000000E+00  0.00000000000E+00  0.16258673852E+01  0.16258673852E+01  0.00000000000E+00 0. -1.
         13   -1    0    0    0    0 -0.00000000000E+00 -0.00000000000E+00 -0.10000000000E+04  0.10000000000E+04  0.00000000000E+00 0.  1.
    9000005    2    1    2  501    0  0.38233225230E+00  0.10128304411E+02 -0.98214853072E+03  0.98249477005E+03  0.24031397456E+02 0.  0.
         13    1    3    3    0    0  0.84769349773E+01  0.19902762633E+01 -0.76001677068E+03  0.76006664927E+03  0.00000000000E+00 0.  1.
          1    1    3    3  501    0 -0.80946027250E+01  0.81380281476E+01 -0.22213176004E+03  0.22242812078E+03  0.00000000000E+00 0.  1.
         -3    1    1    2    0  502 -0.38233225230E+00 -0.10128304411E+02 -0.16225601898E+02  0.19131097332E+02  0.00000000000E+00 0. -1.
<mgrwt>
<rscale>  1 0.30000000E+03</rscale>
<asrwt>0</asrwt>
<pdfrwt beam="1">  1       21 0.59122575E-02 0.30000000E+03</pdfrwt>
<pdfrwt beam="2">0</pdfrwt>
<totfact> 0.21613735E+04</totfact>
</mgrwt>
</event>
<event>
 6    1  0.1132867E-002  0.3000000E+03  0.7818608E-02  0.1093470E+00
         21   -1    0    0  501  502  0.00000000000E+00  0.00000000000E+00  0.18054613357E+00  0.18054613357E+00  0.00000000000E+00 0. -1.
         13   -1    0    0    0    0 -0.00000000000E+00 -0.00000000000E+00 -0.10000000000E+04  0.10000000000E+04  0.00000000000E+00 0.  1.
    9000005    2    1    2  501    0  0.44603904601E+01 -0.10521466820E+02 -0.73016547074E+03  0.73028451622E+03  0.65775088558E+01 0.  0.
         13    1    3    3    0    0  0.24529289003E+01 -0.69237555561E+01 -0.26788379431E+03  0.26798448184E+03  0.00000000000E+00 0.  1.
          3    1    3    3  501    0  0.20074615598E+01 -0.35977112642E+01 -0.46228167643E+03  0.46230003438E+03  0.00000000000E+00 0.  1.
         -1    1    1    2    0  502 -0.44603904601E+01  0.10521466820E+02 -0.26965398313E+03  0.26989602992E+03  0.00000000000E+00 0. -1.
<mgrwt>
<rscale>  1 0.30000000E+03</rscale>
<asrwt>0</asrwt>
<pdfrwt beam="1">  1       21 0.65653278E-03 0.30000000E+03</pdfrwt>
<pdfrwt beam="2">0</pdfrwt>
<totfact> 0.78426773E+05</totfact>
</mgrwt>
</event>
<event>
 6    1  0.1132867E-002  0.3000000E+03  0.7818608E-02  0.1093470E+00
         21   -1    0    0  501  502  0.00000000000E+00  0.00000000000E+00  0.25666509723E+00  0.25666509723E+00  0.00000000000E+00 0. -1.
         13   -1    0    0    0    0 -0.00000000000E+00 -0.00000000000E+00 -0.10000000000E+04  0.10000000000E+04  0.00000000000E+00 0.  1.
    9000005    2    1    2  501    0  0.74201632517E+01  0.90362120081E+01 -0.82310217669E+03  0.82322895335E+03  0.84855417691E+01 0.  0.
         13    1    3    3    0    0  0.82869380773E+01  0.47038451911E+01 -0.45169734162E+03  0.45179783967E+03  0.00000000000E+00 0.  1.
          3    1    3    3  501    0 -0.86677482564E+00  0.43323668170E+01 -0.37140483507E+03  0.37143111368E+03  0.00000000000E+00 0.  1.
         -1    1    1    2    0  502 -0.74201632517E+01 -0.90362120081E+01 -0.17664115821E+03  0.17702771174E+03  0.00000000000E+00 0. -1.
<mgrwt>
<rscale>  1 0.30000000E+03</rscale>
<asrwt>0</asrwt>
<pdfrwt beam="1">  1       21 0.93332959E-03 0.30000000E+03</pdfrwt>
<pdfrwt beam="2">0</pdfrwt>
<totfact> 0.45079737E+05</totfact>
</mgrwt>
</event>
<event>
 6    1  0.1132867E-002  0.3000000E+03  0.7818608E-02  0.1093470E+00
         21   -1    0    0  501  502  0.00000000000E+00  0.00000000000E+00  0.12238885309E+00  0.12238885309E+00  0.00000000000E+00 0. -1.
         13   -1    0    0    0    0 -0.00000000000E+00 -0.00000000000E+00 -0.10000000000E+04  0.10000000000E+04  0.00000000000E+00 0.  1.
    9000005    2    1    2  501    0 -0.65000529073E+01 -0.56034234699E+01 -0.63776348819E+03  0.63790658703E+03  0.10435414275E+02 0.  0.
         13    1    3    3    0    0 -0.78485746160E+01 -0.72338487726E+01 -0.58964859059E+03  0.58974518996E+03  0.00000000000E+00 0.  1.
          3    1    3    3  501    0  0.13485217088E+01  0.16304253026E+01 -0.48114897597E+02  0.48161397076E+02  0.00000000000E+00 0.  1.
         -3    1    1    2    0  502  0.65000529073E+01  0.56034234699E+01 -0.36211412296E+03  0.36221580182E+03  0.00000000000E+00 0. -1.
<mgrwt>
<rscale>  1 0.30000000E+03</rscale>
<asrwt>0</asrwt>
<pdfrwt beam="1">  1       21 0.44505131E-03 0.30000000E+03</pdfrwt>
<pdfrwt beam="2">0</pdfrwt>
<totfact> 0.14361637E+06</totfact>
</mgrwt>
</event>
<event>
 6    1  0.1132867E-002  0.3000000E+03  0.7818608E-02  0.1093470E+00
         21   -1    0    0  501  502  0.00000000000E+00  0.00000000000E+00  0.12549656729E+01  0.12549656729E+01  0.00000000000E+00 0.  1.
         13   -1    0    0    0    0 -0.00000000000E+00 -0.00000000000E+00 -0.10000000000E+04  0.10000000000E+04  0.00000000000E+00 0.  1.
    9000005    2    1    2  501    0 -0.10312796609E+02  0.24836246150E+01 -0.95874190037E+03  0.95986930522E+03  0.45282771605E+02 0.  0.
         13    1    3    3    0    0  0.52299751566E+01  0.20419003823E+02 -0.32473643560E+03  0.32541979190E+03  0.00000000000E+00 0.  1.
          1    1    3    3  501    0 -0.15542771765E+02 -0.17935379208E+02 -0.63400546477E+03  0.63444951332E+03  0.00000000000E+00 0.  1.
         -1    1    1    2    0  502  0.10312796609E+02 -0.24836246150E+01 -0.40003133954E+02  0.41385660454E+02  0.00000000000E+00 0. -1.
<mgrwt>
<rscale>  1 0.30000000E+03</rscale>
<asrwt>0</asrwt>
<pdfrwt beam="1">  1       21 0.45635212E-02 0.30000000E+03</pdfrwt>
<pdfrwt beam="2">0</pdfrwt>
<totfact> 0.33647810E+04</totfact>
</mgrwt>
</event>
<event>
 6    1  0.1132867E-002  0.3000000E+03  0.7818608E-02  0.1093470E+00
         21   -1    0    0  501  502  0.00000000000E+00  0.00000000000E+00  0.24964085444E+00  0.24964085444E+00  0.00000000000E+00 0. -1.
         13   -1    0    0    0    0 -0.00000000000E+00 -0.00000000000E+00 -0.10000000000E+04  0.10000000000E+04  0.00000000000E+00 0.  1.
    9000005    2    1    2  501    0  0.14057102113E+01 -0.10546883653E+02 -0.73509886729E+03  0.73538434506E+03  0.17509354335E+02 0.  0.
         13    1    3    3    0    0  0.64766748064E+01 -0.11912609869E+02 -0.37117457193E+03  0.37142215933E+03  0.00000000000E+00 0.  1.
          3    1    3    3  501    0 -0.50709645951E+01  0.13657262152E+01 -0.36392429536E+03  0.36396218573E+03  0.00000000000E+00 0.  1.
         -1    1    1    2    0  502 -0.14057102113E+01  0.10546883653E+02 -0.26465149185E+03  0.26486529580E+03  0.00000000000E+00 0. -1.
<mgrwt>
<rscale>  1 0.30000000E+03</rscale>
<asrwt>0</asrwt>
<pdfrwt beam="1">  1       21 0.90778684E-03 0.30000000E+03</pdfrwt>
<pdfrwt beam="2">0</pdfrwt>
<totfact> 0.47102901E+05</totfact>
</mgrwt>
</event>
<event>
 6    1  0.1132867E-002  0.3000000E+03  0.7818608E-02  0.1093470E+00
         21   -1    0    0  501  502  0.00000000000E+00  0.00000000000E+00  0.29754048541E+00  0.29754048541E+00  0.00000000000E+00 0. -1.
         13   -1    0    0    0    0 -0.00000000000E+00 -0.00000000000E+00 -0.10000000000E+04  0.10000000000E+04  0.00000000000E+00 0.  1.
    9000005    2    1    2  501    0  0.11677996217E+02 -0.49579400749E+01 -0.82215495447E+03  0.82229733455E+03  0.85545592119E+01 0.  0.
         13    1    3    3    0    0  0.78449178028E+01 -0.64036725879E+01 -0.70099426619E+03  0.70106740830E+03  0.00000000000E+00 0.  1.
          1    1    3    3  501    0  0.38330784143E+01  0.14457325130E+01 -0.12116068828E+03  0.12122992625E+03  0.00000000000E+00 0.  1.
         -1    1    1    2    0  502 -0.11677996217E+02  0.49579400749E+01 -0.17754750504E+03  0.17800020594E+03  0.00000000000E+00 0. -1.
<mgrwt>
<rscale>  1 0.30000000E+03</rscale>
<asrwt>0</asrwt>
<pdfrwt beam="1">  1       21 0.10819677E-02 0.30000000E+03</pdfrwt>
<pdfrwt beam="2">0</pdfrwt>
<totfact> 0.35651450E+05</totfact>
</mgrwt>
</event>
<event>
 6    1  0.1132867E-002  0.3000000E+03  0.7818608E-02  0.1093470E+00
         21   -1    0    0  501  502  0.00000000000E+00  0.00000000000E+00  0.14757686280E+00  0.14757686280E+00  0.00000000000E+00 0. -1.
         13   -1    0    0    0    0 -0.00000000000E+00 -0.00000000000E+00 -0.10000000000E+04  0.10000000000E+04  0.00000000000E+00 0.  1.
    9000005    2    1    2  501    0 -0.37840310398E+01 -0.70386888023E+01 -0.65727904495E+03  0.65748100208E+03  0.14200814569E+02 0.  0.
         13    1    3    3    0    0 -0.36645024524E+01 -0.83783940138E+01 -0.65077937746E+03  0.65084362499E+03  0.00000000000E+00 0.  1.
          1    1    3    3  501    0 -0.11952858747E+00  0.13397052115E+01 -0.64996674973E+01  0.66373770958E+01  0.00000000000E+00 0.  1.
         -1    1    1    2    0  502  0.37840310398E+01  0.70386888023E+01 -0.34257337818E+03  0.34266657478E+03  0.00000000000E+00 0. -1.
<mgrwt>
<rscale>  1 0.30000000E+03</rscale>
<asrwt>0</asrwt>
<pdfrwt beam="1">  1       21 0.53664427E-03 0.30000000E+03</pdfrwt>
<pdfrwt beam="2">0</pdfrwt>
<totfact> 0.10742490E+06</totfact>
</mgrwt>
</event>
<event>
 6    1  0.1132867E-002  0.3000000E+03  0.7818608E-02  0.1093470E+00
         21   -1    0    0  501  502  0.00000000000E+00  0.00000000000E+00  0.26161006432E+00  0.26161006432E+00  0.00000000000E+00 0. -1.
         13   -1    0    0    0    0 -0.00000000000E+00 -0.00000000000E+00 -0.10000000000E+04  0.10000000000E+04  0.00000000000E+00 0.  1.
    9000005    2    1    2  501    0  0.14593113960E+01  0.10685129909E+02 -0.76841801893E+03  0.76868998911E+03  0.17370836049E+02 0.  0.
         13    1    3    3    0    0 -0.29772700171E+01 -0.33054517617E+01 -0.86759323570E+02  0.86873300699E+02  0.00000000000E+00 0.  1.
          3    1    3    3  501    0  0.44365814131E+01  0.13990581670E+02 -0.68165869536E+03  0.68181668841E+03  0.00000000000E+00 0.  1.
         -3    1    1    2    0  502 -0.14593113960E+01 -0.10685129909E+02 -0.23132037101E+03  0.23157162096E+03  0.00000000000E+00 0. -1.
<mgrwt>
<rscale>  1 0.30000000E+03</rscale>
<asrwt>0</asrwt>
<pdfrwt beam="1">  1       21 0.95131133E-03 0.30000000E+03</pdfrwt>
<pdfrwt beam="2">0</pdfrwt>
<totfact> 0.43737918E+05</totfact>
</mgrwt>
</event>
<event>
 6    1  0.1132867E-002  0.3000000E+03  0.7818608E-02  0.1093470E+00
         21   -1    0    0  501  502  0.00000000000E+00  0.00000000000E+00  0.14003851476E+01  0.14003851476E+01  0.00000000000E+00 0. -1.
         13   -1    0    0    0    0 -0.00000000000E+00 -0.00000000000E+00 -0.10000000000E+04  0.10000000000E+04  0.00000000000E+00 0.  1.
    9000005    2    1    2  501    0  0.72212720136E+01  0.23870778866E+02 -0.86653423067E+03  0.86700088161E+03  0.13674608904E+02 0.  0.
         13    1    3    3    0    0  0.75310847885E+01  0.75080216263E+01 -0.21689336489E+03  0.21715390708E+03  0.00000000000E+00 0.  1.
          3    1    3    3  501    0 -0.30981277493E+00  0.16362757239E+02 -0.64964086578E+03  0.64984697452E+03  0.00000000000E+00 0.  1.
         -1    1    1    2    0  502 -0.72212720136E+01 -0.23870778866E+02 -0.13206538418E+03  0.13439950354E+03  0.00000000000E+00 0. -1.
<mgrwt>
<rscale>  1 0.30000000E+03</rscale>
<asrwt>0</asrwt>
<pdfrwt beam="1">  1       21 0.50923204E-02 0.30000000E+03</pdfrwt>
<pdfrwt beam="2">0</pdfrwt>
<totfact> 0.27919726E+04</totfact>
</mgrwt>
</event>
<event>
 6    1  0.1132867E-002  0.3000000E+03  0.7818608E-02  0.1093470E+00
         21   -1    0    0  501  502  0.00000000000E+00  0.00000000000E+00  0.91789598600E-01  0.91789598600E-01  0.00000000000E+00 0. -1.
         13   -1    0    0    0    0 -0.00000000000E+00 -0.00000000000E+00 -0.10000000000E+04  0.10000000000E+04  0.00000000000E+00 0.  1.
    9000005    2    1    2  501    0 -0.18518085190E+01 -0.76799616114E+01 -0.52752405086E+03  0.52764157508E+03  0.78483451013E+01 0.  0.
         13    1    3    3    0    0 -0.68298135549E+00 -0.56429917792E+01 -0.14642398308E+03  0.14653427121E+03  0.00000000000E+00 0.  1.
          3    1    3    3  501    0 -0.11688271635E+01 -0.20369698322E+01 -0.38110006778E+03  0.38110730387E+03  0.00000000000E+00 0.  1.
         -3    1    1    2    0  502  0.18518085190E+01  0.76799616114E+01 -0.47238415955E+03  0.47245021451E+03  0.00000000000E+00 0. -1.
<mgrwt>
<rscale>  1 0.30000000E+03</rscale>
<asrwt>0</asrwt>
<pdfrwt beam="1">  1       21 0.33378106E-03 0.30000000E+03</pdfrwt>
<pdfrwt beam="2">0</pdfrwt>
<totfact> 0.22374071E+06</totfact>
</mgrwt>
</event>
<event>
 6    1  0.1132867E-002  0.3000000E+03  0.7818608E-02  0.1093470E+00
         21   -1    0    0  501  502  0.00000000000E+00  0.00000000000E+00  0.10797798116E+00  0.10797798116E+00  0.00000000000E+00 0. -1.
         13   -1    0    0    0    0 -0.00000000000E+00 -0.00000000000E+00 -0.10000000000E+04  0.10000000000E+04  0.00000000000E+00 0.  1.
    9000005    2    1    2  501    0 -0.49647494624E+00  0.87924353966E+01 -0.59186995316E+03  0.59199088438E+03  0.81001442310E+01 0.  0.
         13    1    3    3    0    0  0.24516308085E+01  0.23197902029E+01 -0.79558043222E+02  0.79629606061E+02  0.00000000000E+00 0.  1.
          1    1    3    3  501    0 -0.29481057548E+01  0.64726451937E+01 -0.51231190993E+03  0.51236127832E+03  0.00000000000E+00 0.  1.
         -1    1    1    2    0  502  0.49647494624E+00 -0.87924353966E+01 -0.40802206886E+03  0.40811709360E+03  0.00000000000E+00 0. -1.
<mgrwt>
<rscale>  1 0.30000000E+03</rscale>
<asrwt>0</asrwt>
<pdfrwt beam="1">  1       21 0.39264803E-03 0.30000000E+03</pdfrwt>
<pdfrwt beam="2">0</pdfrwt>
<totfact> 0.17426897E+06</totfact>
</mgrwt>
</event>
<event>
 6    1  0.1132867E-002  0.3000000E+03  0.7818608E-02  0.1093470E+00
         21   -1    0    0  501  502  0.00000000000E+00  0.00000000000E+00  0.48073266917E+00  0.48073266917E+00  0.00000000000E+00 0. -1.
         13   -1    0    0    0    0 -0.00000000000E+00 -0.00000000000E+00 -0.10000000000E+04  0.10000000000E+04  0.00000000000E+00 0.  1.
    9000005    2    1    2  501    0 -0.18568088080E+02  0.10083187351E+02 -0.56417178814E+03  0.56462080999E+03  0.77722568120E+01 0.  0.
         13    1    3    3    0    0 -0.17056418748E+01  0.40793390777E+01 -0.85153488324E+02  0.85268205067E+02  0.00000000000E+00 0.  1.
          1    1    3    3  501    0 -0.16862446205E+02  0.60038482735E+01 -0.47901829982E+03  0.47935260492E+03  0.00000000000E+00 0.  1.
         -3    1    1    2    0  502  0.18568088080E+02 -0.10083187351E+02 -0.43534747919E+03  0.43585992268E+03  0.00000000000E+00 0. -1.
<mgrwt>
<rscale>  1 0.30000000E+03</rscale>
<asrwt>0</asrwt>
<pdfrwt beam="1">  1       21 0.17481225E-02 0.30000000E+03</pdfrwt>
<pdfrwt beam="2">0</pdfrwt>
<totfact> 0.16498476E+05</totfact>
</mgrwt>
</event>
<event>
 6    1  0.1132867E-002  0.3000000E+03  0.7818608E-02  0.1093470E+00
         21   -1    0    0  501  502  0.00000000000E+00  0.00000000000E+00  0.18183958412E+00  0.18183958412E+00  0.00000000000E+00 0. -1.
         13   -1    0    0    0    0 -0.00000000000E+00 -0.00000000000E+00 -0.10000000000E+04  0.10000000000E+04  0.00000000000E+00 0.  1.
    9000005    2    1    2  501    0 -0.73755740803E+01 -0.49105480220E+01 -0.73742427711E+03  0.73763839067E+03  0.15405139865E+02 0.  0.
         13    1    3    3    0    0 -0.67154519514E+01 -0.40433461770E+00 -0.11450586298E+03  0.11470332793E+03  0.00000000000E+00 0.  1.
          1    1    3    3  501    0 -0.66012212891E+00 -0.45062134043E+01 -0.62291841413E+03  0.62293506274E+03  0.00000000000E+00 0.  1.
         -1    1    1    2    0  502  0.73755740803E+01  0.49105480220E+01 -0.26239388330E+03  0.26254344892E+03  0.00000000000E+00 0. -1.
<mgrwt>
<rscale>  1 0.30000000E+03</rscale>
<asrwt>0</asrwt>
<pdfrwt beam="1">  1       21 0.66123625E-03 0.30000000E+03</pdfrwt>
<pdfrwt beam="2">0</pdfrwt>
<totfact> 0.77555190E+05</totfact>
</mgrwt>
</event>
<event>
 6    1  0.1132867E-002  0.3000000E+03  0.7818608E-02  0.1093470E+00
         21   -1    0    0  501  502  0.00000000000E+00  0.00000000000E+00  0.91649146501E+00  0.91649146501E+00  0.00000000000E+00 0. -1.
         13   -1    0    0    0    0 -0.00000000000E+00 -0.00000000000E+00 -0.10000000000E+04  0.10000000000E+04  0.00000000000E+00 0.  1.
    9000005    2    1    2  501    0 -0.90599961953E+00  0.16645018183E+02 -0.91212934385E+03  0.91237890498E+03  0.13320993335E+02 0.  0.
         13    1    3    3    0    0 -0.85138110704E+00  0.18341935394E+02 -0.69371263498E+03  0.69395559755E+03  0.00000000000E+00 0.  1.
          3    1    3    3  501    0 -0.54618512490E-01 -0.16969172114E+01 -0.21841670887E+03  0.21842330743E+03  0.00000000000E+00 0.  1.
         -1    1    1    2    0  502  0.90599961953E+00 -0.16645018183E+02 -0.86954164684E+02  0.88537586490E+02  0.00000000000E+00 0. -1.
<mgrwt>
<rscale>  1 0.30000000E+03</rscale>
<asrwt>0</asrwt>
<pdfrwt beam="1">  1       21 0.33327033E-02 0.30000000E+03</pdfrwt>
<pdfrwt beam="2">0</pdfrwt>
<totfact> 0.57106142E+04</totfact>
</mgrwt>
</event>
<event>
 6    1  0.1132867E-002  0.3000000E+03  0.7818608E-02  0.1093470E+00
         21   -1    0    0  501  502  0.00000000000E+00  0.00000000000E+00  0.31899628026E+00  0.31899628026E+00  0.00000000000E+00 0. -1.
         13   -1    0    0    0    0 -0.00000000000E+00 -0.00000000000E+00 -0.10000000000E+04  0.10000000000E+04  0.00000000000E+00 0.  1.
    9000005    2    1    2  501    0 -0.15621961887E+02  0.39149652470E+01 -0.65360825253E+03  0.65387171059E+03  0.92246131929E+01 0.  0.
         13    1    3    3    0    0 -0.15745365402E+02  0.39125462039E+01 -0.49951888162E+03  0.49978229024E+03  0.00000000000E+00 0.  1.
          1    1    3    3  501    0  0.12340351506E+00  0.24190430812E-02 -0.15408937092E+03  0.15408942035E+03  0.00000000000E+00 0.  1.
         -1    1    1    2    0  502  0.15621961887E+02 -0.39149652470E+01 -0.34607275119E+03  0.34644728569E+03  0.00000000000E+00 0. -1.
<mgrwt>
<rscale>  1 0.30000000E+03</rscale>
<asrwt>0</asrwt>
<pdfrwt beam="1">  1       21 0.11599889E-02 0.30000000E+03</pdfrwt>
<pdfrwt beam="2">0</pdfrwt>
<totfact> 0.31907817E+05</totfact>
</mgrwt>
</event>
<event>
 6    1  0.1132867E-002  0.3000000E+03  0.7818608E-02  0.1093470E+00
         21   -1    0    0  501  502  0.00000000000E+00  0.00000000000E+00  0.33647441912E+00  0.33647441912E+00  0.00000000000E+00 0. -1.
         13   -1    0    0    0    0 -0.00000000000E+00 -0.00000000000E+00 -0.10000000000E+04  0.10000000000E+04  0.00000000000E+00 0.  1.
    9000005    2    1    2  501    0  0.11900902496E+02 -0.16299225897E+01 -0.86443521819E+03  0.86457571703E+03  0.99315606906E+01 0.  0.
         13    1    3    3    0    0  0.68439880457E+01  0.17196320399E+01 -0.22257313227E+03  0.22268497146E+03  0.00000000000E+00 0.  1.
          1    1    3    3  501    0  0.50569144503E+01 -0.33495546296E+01 -0.64186208592E+03  0.64189074557E+03  0.00000000000E+00 0.  1.
         -1    1    1    2    0  502 -0.11900902496E+02  0.16299225897E+01 -0.13522830739E+03  0.13576075739E+03  0.00000000000E+00 0. -1.
<mgrwt>
<rscale>  1 0.30000000E+03</rscale>
<asrwt>0</asrwt>
<pdfrwt beam="1">  1       21 0.12235459E-02 0.30000000E+03</pdfrwt>
<pdfrwt beam="2">0</pdfrwt>
<totfact> 0.29302827E+05</totfact>
</mgrwt>
</event>
<event>
 6    1  0.1132867E-002  0.3000000E+03  0.7818608E-02  0.1093470E+00
         21   -1    0    0  501  502  0.00000000000E+00  0.00000000000E+00  0.11928728467E+00  0.11928728467E+00  0.00000000000E+00 0. -1.
         13   -1    0    0    0    0 -0.00000000000E+00 -0.00000000000E+00 -0.10000000000E+04  0.10000000000E+04  0.00000000000E+00 0.  1.
    9000005    2    1    2  501    0  0.82895949556E+01 -0.35448040374E+01 -0.72198901347E+03  0.72208137705E+03  0.72177895295E+01 0.  0.
         13    1    3    3    0    0  0.67880838790E+00 -0.76780969776E+00 -0.11347763207E+02  0.11393947620E+02  0.00000000000E+00 0.  1.
          3    1    3    3  501    0  0.76107865677E+01 -0.27769943396E+01 -0.71064125027E+03  0.71068742943E+03  0.00000000000E+00 0.  1.
         -3    1    1    2    0  502 -0.82895949556E+01  0.35448040374E+01 -0.27789169924E+03  0.27803791023E+03  0.00000000000E+00 0. -1.
<mgrwt>
<rscale>  1 0.30000000E+03</rscale>
<asrwt>0</asrwt>
<pdfrwt beam="1">  1       21 0.43377286E-03 0.30000000E+03</pdfrwt>
<pdfrwt beam="2">0</pdfrwt>
<totfact> 0.14943046E+06</totfact>
</mgrwt>
</event>
<event>
 6    1  0.1132867E-002  0.3000000E+03  0.7818608E-02  0.1093470E+00
         21   -1    0    0  501  502  0.00000000000E+00  0.00000000000E+00  0.27894816958E+00  0.27894816958E+00  0.00000000000E+00 0. -1.
         13   -1    0    0    0    0 -0.00000000000E+00 -0.00000000000E+00 -0.10000000000E+04  0.10000000000E+04  0.00000000000E+00 0.  1.
    9000005    2    1    2  501    0 -0.74903295032E+01 -0.13955256663E+02 -0.53631697572E+03  0.53660428638E+03  0.75767735580E+01 0.  0.
         13    1    3    3    0    0 -0.88491888496E+01 -0.11041851197E+02 -0.46433786630E+03  0.46455342502E+03  0.00000000000E+00 0.  1.
          1    1    3    3  501    0  0.13588593464E+01 -0.29134054653E+01 -0.71979109420E+02  0.72050861362E+02  0.00000000000E+00 0.  1.
         -1    1    1    2    0  502  0.74903295032E+01  0.13955256663E+02 -0.46340407611E+03  0.46367466179E+03  0.00000000000E+00 0. -1.
<mgrwt>
<rscale>  1 0.30000000E+03</rscale>
<asrwt>0</asrwt>
<pdfrwt beam="1">  1       21 0.10143591E-02 0.30000000E+03</pdfrwt>
<pdfrwt beam="2">0</pdfrwt>
<totfact> 0.39504708E+05</totfact>
</mgrwt>
</event>
<event>
 6    1  0.1132867E-002  0.3000000E+03  0.7818608E-02  0.1093470E+00
         21   -1    0    0  501  502  0.00000000000E+00  0.00000000000E+00  0.19513212799E+00  0.19513212799E+00  0.00000000000E+00 0. -1.
         13   -1    0    0    0    0 -0.00000000000E+00 -0.00000000000E+00 -0.10000000000E+04  0.10000000000E+04  0.00000000000E+00 0.  1.
    9000005    2    1    2  501    0 -0.10202098984E+02  0.61674256046E+01 -0.29589655522E+03  0.29618587610E+03  0.54020221854E+01 0.  0.
         13    1    3    3    0    0 -0.43713525798E+01  0.16556594932E+00 -0.71789952889E+02  0.71923108048E+02  0.00000000000E+00 0.  1.
          1    1    3    3  501    0 -0.58307464038E+01  0.60018596553E+01 -0.22410660233E+03  0.22426276805E+03  0.00000000000E+00 0.  1.
         -1    1    1    2    0  502  0.10202098984E+02 -0.61674256046E+01 -0.70390831265E+03  0.70400925603E+03  0.00000000000E+00 0. -1.
<mgrwt>
<rscale>  1 0.30000000E+03</rscale>
<asrwt>0</asrwt>
<pdfrwt beam="1">  1       21 0.70957287E-03 0.30000000E+03</pdfrwt>
<pdfrwt beam="2">0</pdfrwt>
<totfact> 0.69438178E+05</totfact>
</mgrwt>
</event>
<event>
 6    1  0.1132867E-002  0.3000000E+03  0.7818608E-02  0.1093470E+00
         21   -1    0    0  501  502  0.00000000000E+00  0.00000000000E+00  0.93591999790E-01  0.93591999790E-01  0.00000000000E+00 0. -1.
         13   -1    0    0    0    0 -0.00000000000E+00 -0.00000000000E+00 -0.10000000000E+04  0.10000000000E+04  0.00000000000E+00 0.  1.
    9000005    2    1    2  501    0  0.63879557521E+01 -0.46547728912E+01 -0.64258380983E+03  0.64268358647E+03  0.81096716055E+01 0.  0.
         13    1    3    3    0    0  0.33770341167E+01 -0.30882659204E+01 -0.11787122783E+03  0.11796002754E+03  0.00000000000E+00 0.  1.
          3    1    3    3  501    0  0.30109216353E+01 -0.15665069708E+01 -0.52471258199E+03  0.52472355893E+03  0.00000000000E+00 0.  1.
         -1    1    1    2    0  502 -0.63879557521E+01  0.46547728912E+01 -0.35732259817E+03  0.35741000553E+03  0.00000000000E+00 0. -1.
<mgrwt>
<rscale>  1 0.30000000E+03</rscale>
<asrwt>0</asrwt>
<pdfrwt beam="1">  1       21 0.34033526E-03 0.30000000E+03</pdfrwt>
<pdfrwt beam="2">0</pdfrwt>
<totfact> 0.21716095E+06</totfact>
</mgrwt>
</event>
<event>
 6    1  0.1132867E-002  0.3000000E+03  0.7818608E-02  0.1093470E+00
         21   -1    0    0  501  502  0.00000000000E+00  0.00000000000E+00  0.14065343163E+00  0.14065343163E+00  0.00000000000E+00 0. -1.
         13   -1    0    0    0    0 -0.00000000000E+00 -0.00000000000E+00 -0.10000000000E+04  0.10000000000E+04  0.00000000000E+00 0.  1.
    9000005    2    1    2  501    0 -0.67132151891E+01 -0.61233417490E+01 -0.66827753682E+03  0.66843436900E+03  0.11272837979E+02 0.  0.
         13    1    3    3    0    0 -0.44396771506E+01 -0.80246272998E+01 -0.61891332488E+03  0.61898126715E+03  0.00000000000E+00 0.  1.
          1    1    3    3  501    0 -0.22735380385E+01  0.19012855509E+01 -0.49364211942E+02  0.49453101850E+02  0.00000000000E+00 0.  1.
         -3    1    1    2    0  502  0.67132151891E+01  0.61233417490E+01 -0.33158180975E+03  0.33170628443E+03  0.00000000000E+00 0. -1.
<mgrwt>
<rscale>  1 0.30000000E+03</rscale>
<asrwt>0</asrwt>
<pdfrwt beam="1">  1       21 0.51146810E-03 0.30000000E+03</pdfrwt>
<pdfrwt beam="2">0</pdfrwt>
<totfact> 0.11575535E+06</totfact>
</mgrwt>
</event>
<event>
 6    1  0.1132867E-002  0.3000000E+03  0.7818608E-02  0.1093470E+00
         21   -1    0    0  501  502  0.00000000000E+00  0.00000000000E+00  0.33512865426E+00  0.33512865426E+00  0.00000000000E+00 0. -1.
         13   -1    0    0    0    0 -0.00000000000E+00 -0.00000000000E+00 -0.10000000000E+04  0.10000000000E+04  0.00000000000E+00 0.  1.
    9000005    2    1    2  501    0  0.76080931624E+01  0.89592201412E+01 -0.86195353221E+03  0.86212310445E+03  0.12417923988E+02 0.  0.
         13    1    3    3    0    0  0.38761004073E+01  0.95440484382E+01 -0.34025442034E+03  0.34041031650E+03  0.00000000000E+00 0.  1.
          1    1    3    3  501    0  0.37319927551E+01 -0.58482829698E+00 -0.52169911187E+03  0.52171278796E+03  0.00000000000E+00 0.  1.
         -3    1    1    2    0  502 -0.76080931624E+01 -0.89592201412E+01 -0.13771133914E+03  0.13821202420E+03  0.00000000000E+00 0. -1.
<mgrwt>
<rscale>  1 0.30000000E+03</rscale>
<asrwt>0</asrwt>
<pdfrwt beam="1">  1       21 0.12186522E-02 0.30000000E+03</pdfrwt>
<pdfrwt beam="2">0</pdfrwt>
<totfact> 0.29491114E+05</totfact>
</mgrwt>
</event>
<event>
 6    1  0.1132867E-002  0.3000000E+03  0.7818608E-02  0.1093470E+00
         21   -1    0    0  501  502  0.00000000000E+00  0.00000000000E+00  0.14082215290E+00  0.14082215290E+00  0.00000000000E+00 0. -1.
         13   -1    0    0    0    0 -0.00000000000E+00 -0.00000000000E+00 -0.10000000000E+04  0.10000000000E+04  0.00000000000E+00 0.  1.
    9000005    2    1    2  501    0  0.19386633838E+01  0.10073920331E+02 -0.68204109947E+03  0.68215721686E+03  0.72914245912E+01 0.  0.
         13    1    3    3    0    0  0.44086137303E+01  0.55282356417E+01 -0.46907588672E+03  0.46912917705E+03  0.00000000000E+00 0.  1.
          1    1    3    3  501    0 -0.24699503465E+01  0.45456846892E+01 -0.21296521275E+03  0.21302803981E+03  0.00000000000E+00 0.  1.
         -1    1    1    2    0  502 -0.19386633838E+01 -0.10073920331E+02 -0.31781807838E+03  0.31798360529E+03  0.00000000000E+00 0. -1.
<mgrwt>
<rscale>  1 0.30000000E+03</rscale>
<asrwt>0</asrwt>
<pdfrwt beam="1">  1       21 0.51208164E-03 0.30000000E+03</pdfrwt>
<pdfrwt beam="2">0</pdfrwt>
<totfact> 0.11553996E+06</totfact>
</mgrwt>
</event>
<event>
 6    1  0.1269402E-002  0.3000000E+03  0.7818608E-02  0.1093470E+00
         21   -1    0    0  501  502  0.00000000000E+00  0.00000000000E+00  0.23253654063E+01  0.23253654063E+01  0.00000000000E+00 0. -1.
         13   -1    0    0    0    0 -0.00000000000E+00 -0.00000000000E+00 -0.10000000000E+04  0.10000000000E+04  0.00000000000E+00 0.  1.
    9000005    2    1    2  501    0 -0.23081384839E+02  0.16178302523E+02 -0.84954500433E+03  0.85153784882E+03  0.50946106610E+02 0.  0.
         13    1    3    3    0    0 -0.23675546872E+02 -0.10387763200E+02 -0.23486453489E+03  0.23628327679E+03  0.00000000000E+00 0.  1.
          1    1    3    3  501    0  0.59416203338E+00  0.26566065723E+02 -0.61468046944E+03  0.61525457202E+03  0.00000000000E+00 0.  1.
         -3    1    1    2    0  502  0.23081384839E+02 -0.16178302523E+02 -0.14812963026E+03  0.15078751659E+03  0.00000000000E+00 0. -1.
<mgrwt>
<rscale>  1 0.30000000E+03</rscale>
<asrwt>0</asrwt>
<pdfrwt beam="1">  1       21 0.84558920E-02 0.30000000E+03</pdfrwt>
<pdfrwt beam="2">0</pdfrwt>
<totfact> 0.11587058E+04</totfact>
</mgrwt>
</event>
<event>
 6    1  0.1132867E-002  0.3000000E+03  0.7818608E-02  0.1093470E+00
         21   -1    0    0  501  502  0.00000000000E+00  0.00000000000E+00  0.27928762293E+00  0.27928762293E+00  0.00000000000E+00 0. -1.
         13   -1    0    0    0    0 -0.00000000000E+00 -0.00000000000E+00 -0.10000000000E+04  0.10000000000E+04  0.00000000000E+00 0.  1.
    9000005    2    1    2  501    0  0.54307668184E+01  0.15158219111E+02 -0.58326000601E+03  0.58350742583E+03  0.54237028592E+01 0.  0.
         13    1    3    3    0    0  0.37952791245E+01  0.39041664385E+01 -0.22990287805E+03  0.22996734550E+03  0.00000000000E+00 0.  1.
          3    1    3    3  501    0  0.16354876940E+01  0.11254052673E+02 -0.35335712795E+03  0.35354008033E+03  0.00000000000E+00 0.  1.
         -1    1    1    2    0  502 -0.54307668184E+01 -0.15158219111E+02 -0.41646070637E+03  0.41677186180E+03  0.00000000000E+00 0. -1.
<mgrwt>
<rscale>  1 0.30000000E+03</rscale>
<asrwt>0</asrwt>
<pdfrwt beam="1">  1       21 0.10155935E-02 0.30000000E+03</pdfrwt>
<pdfrwt beam="2">0</pdfrwt>
<totfact> 0.39428448E+05</totfact>
</mgrwt>
</event>
<event>
 6    1  0.1132867E-002  0.3000000E+03  0.7818608E-02  0.1093470E+00
         21   -1    0    0  501  502  0.00000000000E+00  0.00000000000E+00  0.16264025142E+00  0.16264025142E+00  0.00000000000E+00 0. -1.
         13   -1    0    0    0    0 -0.00000000000E+00 -0.00000000000E+00 -0.10000000000E+04  0.10000000000E+04  0.00000000000E+00 0.  1.
    9000005    2    1    2  501    0  0.83197888887E+01  0.44572841725E+01 -0.78814095380E+03  0.78825592832E+03  0.95999587538E+01 0.  0.
         13    1    3    3    0    0  0.19289974058E+01  0.59893149132E+01 -0.50244296569E+03  0.50248236456E+03  0.00000000000E+00 0.  1.
          1    1    3    3  501    0  0.63907914829E+01 -0.15320307407E+01 -0.28569798811E+03  0.28577356376E+03  0.00000000000E+00 0.  1.
         -3    1    1    2    0  502 -0.83197888887E+01 -0.44572841725E+01 -0.21169640595E+03  0.21190671193E+03  0.00000000000E+00 0. -1.
<mgrwt>
<rscale>  1 0.30000000E+03</rscale>
<asrwt>0</asrwt>
<pdfrwt beam="1">  1       21 0.59142034E-03 0.30000000E+03</pdfrwt>
<pdfrwt beam="2">0</pdfrwt>
<totfact> 0.92335488E+05</totfact>
</mgrwt>
</event>
<event>
 6    1  0.1132867E-002  0.3000000E+03  0.7818608E-02  0.1093470E+00
         21   -1    0    0  501  502  0.00000000000E+00  0.00000000000E+00  0.12319418125E+01  0.12319418125E+01  0.00000000000E+00 0. -1.
         13   -1    0    0    0    0 -0.00000000000E+00 -0.00000000000E+00 -0.10000000000E+04  0.10000000000E+04  0.00000000000E+00 0.  1.
    9000005    2    1    2  501    0  0.24779161487E+01 -0.11247272686E+02 -0.96805470992E+03  0.96843025019E+03  0.24384152217E+02 0.  0.
         13    1    3    3    0    0  0.93298321863E+01 -0.11799884214E+02 -0.33431223141E+03  0.33465049097E+03  0.00000000000E+00 0.  1.
          1    1    3    3  501    0 -0.68519160377E+01  0.55261152791E+00 -0.63374247850E+03  0.63377975922E+03  0.00000000000E+00 0.  1.
         -1    1    1    2    0  502 -0.24779161487E+01  0.11247272686E+02 -0.30713348272E+02  0.32801691624E+02  0.00000000000E+00 0. -1.
<mgrwt>
<rscale>  1 0.30000000E+03</rscale>
<asrwt>0</asrwt>
<pdfrwt beam="1">  1       21 0.44797979E-02 0.30000000E+03</pdfrwt>
<pdfrwt beam="2">0</pdfrwt>
<totfact> 0.34722242E+04</totfact>
</mgrwt>
</event>
<event>
 6    1  0.1132867E-002  0.3000000E+03  0.7818608E-02  0.1093470E+00
         21   -1    0    0  501  502  0.00000000000E+00  0.00000000000E+00  0.72447930756E-01  0.72447930756E-01  0.00000000000E+00 0. -1.
         13   -1    0    0    0    0 -0.00000000000E+00 -0.00000000000E+00 -0.10000000000E+04  0.10000000000E+04  0.00000000000E+00 0.  1.
    9000005    2    1    2  501    0  0.60840657183E+00 -0.80557136961E+01 -0.53369815936E+03  0.53377306845E+03  0.38338769468E+01 0.  0.
         13    1    3    3    0    0 -0.10217296698E+01 -0.50198688342E+01 -0.23981810828E+03  0.23987281645E+03  0.00000000000E+00 0.  1.
          1    1    3    3  501    0  0.16301362417E+01 -0.30358448619E+01 -0.29388005109E+03  0.29390025200E+03  0.00000000000E+00 0.  1.
         -1    1    1    2    0  502 -0.60840657183E+00  0.80557136961E+01 -0.46622939271E+03  0.46629937948E+03  0.00000000000E+00 0. -1.
<mgrwt>
<rscale>  1 0.30000000E+03</rscale>
<asrwt>0</asrwt>
<pdfrwt beam="1">  1       21 0.26344758E-03 0.30000000E+03</pdfrwt>
<pdfrwt beam="2">0</pdfrwt>
<totfact> 0.32138205E+06</totfact>
</mgrwt>
</event>
<event>
 6    1  0.1132867E-002  0.3000000E+03  0.7818608E-02  0.1093470E+00
         21   -1    0    0  501  502  0.00000000000E+00  0.00000000000E+00  0.23338987630E+00  0.23338987630E+00  0.00000000000E+00 0. -1.
         13   -1    0    0    0    0 -0.00000000000E+00 -0.00000000000E+00 -0.10000000000E+04  0.10000000000E+04  0.00000000000E+00 0.  1.
    9000005    2    1    2  501    0 -0.10087410348E+02 -0.59250310835E+01 -0.22180977236E+03  0.22218859472E+03  0.55977379359E+01 0.  0.
         13    1    3    3    0    0 -0.57289778559E+01 -0.41523202563E+01 -0.83643505053E+02  0.83942235426E+02  0.00000000000E+00 0.  1.
          1    1    3    3  501    0 -0.43584324919E+01 -0.17727108272E+01 -0.13816626731E+03  0.13824635930E+03  0.00000000000E+00 0.  1.
         -1    1    1    2    0  502  0.10087410348E+02  0.59250310835E+01 -0.77795683776E+03  0.77804479515E+03  0.00000000000E+00 0. -1.
<mgrwt>
<rscale>  1 0.30000000E+03</rscale>
<asrwt>0</asrwt>
<pdfrwt beam="1">  1       21 0.84869225E-03 0.30000000E+03</pdfrwt>
<pdfrwt beam="2">0</pdfrwt>
<totfact> 0.52387876E+05</totfact>
</mgrwt>
</event>
<event>
 6    1  0.1132867E-002  0.3000000E+03  0.7818608E-02  0.1093470E+00
         21   -1    0    0  501  502  0.00000000000E+00  0.00000000000E+00  0.13335913175E+01  0.13335913175E+01  0.00000000000E+00 0. -1.
         13   -1    0    0    0    0 -0.00000000000E+00 -0.00000000000E+00 -0.10000000000E+04  0.10000000000E+04  0.00000000000E+00 0.  1.
    9000005    2    1    2  501    0 -0.76097677228E+00 -0.33831764817E+02 -0.64766464813E+03  0.64870431955E+03  0.14234829446E+02 0.  0.
         13    1    3    3    0    0 -0.66668299569E+01 -0.17361828806E+02 -0.39260446844E+03  0.39304471548E+03  0.00000000000E+00 0.  1.
          3    1    3    3  501    0  0.59058531846E+01 -0.16469936012E+02 -0.25506017968E+03  0.25565960407E+03  0.00000000000E+00 0.  1.
         -3    1    1    2    0  502  0.76097677228E+00  0.33831764817E+02 -0.35100176056E+03  0.35262927177E+03  0.00000000000E+00 0. -1.
<mgrwt>
<rscale>  1 0.30000000E+03</rscale>
<asrwt>0</asrwt>
<pdfrwt beam="1">  1       21 0.48494332E-02 0.30000000E+03</pdfrwt>
<pdfrwt beam="2">0</pdfrwt>
<totfact> 0.30344744E+04</totfact>
</mgrwt>
</event>
<event>
 6    1  0.1132867E-002  0.3000000E+03  0.7818608E-02  0.1093470E+00
         21   -1    0    0  501  502  0.00000000000E+00  0.00000000000E+00  0.10455787869E+01  0.10455787869E+01  0.00000000000E+00 0. -1.
         13   -1    0    0    0    0 -0.00000000000E+00 -0.00000000000E+00 -0.10000000000E+04  0.10000000000E+04  0.00000000000E+00 0.  1.
    9000005    2    1    2  501    0  0.86281588538E+01  0.10704166092E+02 -0.94909797089E+03  0.94932817421E+03  0.15748006610E+02 0.  0.
         13    1    3    3    0    0  0.13187480641E+02  0.89129843740E+01 -0.68629638717E+03  0.68648094073E+03  0.00000000000E+00 0.  1.
          1    1    3    3  501    0 -0.45593217877E+01  0.17911817179E+01 -0.26280158371E+03  0.26284723348E+03  0.00000000000E+00 0.  1.
         -1    1    1    2    0  502 -0.86281588538E+01 -0.10704166092E+02 -0.49856450324E+02  0.51717404574E+02  0.00000000000E+00 0. -1.
<mgrwt>
<rscale>  1 0.30000000E+03</rscale>
<asrwt>0</asrwt>
<pdfrwt beam="1">  1       21 0.38021127E-02 0.30000000E+03</pdfrwt>
<pdfrwt beam="2">0</pdfrwt>
<totfact> 0.45793296E+04</totfact>
</mgrwt>
</event>
<event>
 6    1  0.1132867E-002  0.3000000E+03  0.7818608E-02  0.1093470E+00
         21   -1    0    0  501  502  0.00000000000E+00  0.00000000000E+00  0.17020994942E+00  0.17020994942E+00  0.00000000000E+00 0. -1.
         13   -1    0    0    0    0 -0.00000000000E+00 -0.00000000000E+00 -0.10000000000E+04  0.10000000000E+04  0.00000000000E+00 0.  1.
    9000005    2    1    2  501    0 -0.29274780048E+01 -0.80542087564E+01 -0.72303682993E+03  0.72324461854E+03  0.15069187205E+02 0.  0.
         13    1    3    3    0    0 -0.85276522548E+01 -0.48845005043E+01 -0.55071867157E+03  0.55080634928E+03  0.00000000000E+00 0.  1.
          3    1    3    3  501    0  0.56001742500E+01 -0.31697082521E+01 -0.17231815836E+03  0.17243826926E+03  0.00000000000E+00 0.  1.
         -1    1    1    2    0  502  0.29274780048E+01  0.80542087564E+01 -0.27679296012E+03  0.27692559141E+03  0.00000000000E+00 0. -1.
<mgrwt>
<rscale>  1 0.30000000E+03</rscale>
<asrwt>0</asrwt>
<pdfrwt beam="1">  1       21 0.61894658E-03 0.30000000E+03</pdfrwt>
<pdfrwt beam="2">0</pdfrwt>
<totfact> 0.86004222E+05</totfact>
</mgrwt>
</event>
<event>
 6    1  0.1132867E-002  0.3000000E+03  0.7818608E-02  0.1093470E+00
         21   -1    0    0  501  502  0.00000000000E+00  0.00000000000E+00  0.18756395704E+00  0.18756395704E+00  0.00000000000E+00 0. -1.
         13   -1    0    0    0    0 -0.00000000000E+00 -0.00000000000E+00 -0.10000000000E+04  0.10000000000E+04  0.00000000000E+00 0.  1.
    9000005    2    1    2  501    0 -0.17192065823E+01  0.10087303352E+02 -0.81792680722E+03  0.81801431858E+03  0.62011343131E+01 0.  0.
         13    1    3    3    0    0 -0.15002390934E+01  0.57980318194E+01 -0.25177062197E+03  0.25184184319E+03  0.00000000000E+00 0.  1.
          3    1    3    3  501    0 -0.21896748888E+00  0.42892715323E+01 -0.56615618525E+03  0.56617247539E+03  0.00000000000E+00 0.  1.
         -1    1    1    2    0  502  0.17192065823E+01 -0.10087303352E+02 -0.18188562882E+03  0.18217324538E+03  0.00000000000E+00 0. -1.
<mgrwt>
<rscale>  1 0.30000000E+03</rscale>
<asrwt>0</asrwt>
<pdfrwt beam="1">  1       21 0.68205219E-03 0.30000000E+03</pdfrwt>
<pdfrwt beam="2">0</pdfrwt>
<totfact> 0.73880294E+05</totfact>
</mgrwt>
</event>
<event>
 6    1  0.1132867E-002  0.3000000E+03  0.7818608E-02  0.1093470E+00
         21   -1    0    0  501  502  0.00000000000E+00  0.00000000000E+00  0.11077496033E+01  0.11077496033E+01  0.00000000000E+00 0.  1.
         13   -1    0    0    0    0 -0.00000000000E+00 -0.00000000000E+00 -0.10000000000E+04  0.10000000000E+04  0.00000000000E+00 0.  1.
    9000005    2    1    2  501    0  0.40174317642E+01 -0.10840982577E+02 -0.93348236680E+03  0.93468396220E+03  0.45946854094E+02 0.  0.
         13    1    3    3    0    0 -0.10320346749E+02  0.10417371642E+02 -0.61371666826E+03  0.61389183094E+03  0.00000000000E+00 0.  1.
          1    1    3    3  501    0  0.14337778514E+02 -0.21258354220E+02 -0.31976569854E+03  0.32079213126E+03  0.00000000000E+00 0.  1.
         -1    1    1    2    0  502 -0.40174317642E+01  0.10840982577E+02 -0.65409883593E+02  0.66423787402E+02  0.00000000000E+00 0. -1.
<mgrwt>
<rscale>  1 0.30000000E+03</rscale>
<asrwt>0</asrwt>
<pdfrwt beam="1">  1       21 0.40281889E-02 0.30000000E+03</pdfrwt>
<pdfrwt beam="2">0</pdfrwt>
<totfact> 0.41552908E+04</totfact>
</mgrwt>
</event>
<event>
 6    1  0.1132867E-002  0.3000000E+03  0.7818608E-02  0.1093470E+00
         21   -1    0    0  501  502  0.00000000000E+00  0.00000000000E+00  0.29051345209E+00  0.29051345209E+00  0.00000000000E+00 0. -1.
         13   -1    0    0    0    0 -0.00000000000E+00 -0.00000000000E+00 -0.10000000000E+04  0.10000000000E+04  0.00000000000E+00 0.  1.
    9000005    2    1    2  501    0 -0.13891753512E+02 -0.37217287665E+01 -0.67290266094E+03  0.67316739696E+03  0.12227883991E+02 0.  0.
         13    1    3    3    0    0 -0.19634205574E+01 -0.57707815369E+01 -0.31801703876E+03  0.31807545312E+03  0.00000000000E+00 0.  1.
          3    1    3    3  501    0 -0.11928332955E+02  0.20490527704E+01 -0.35488562218E+03  0.35509194383E+03  0.00000000000E+00 0.  1.
         -1    1    1    2    0  502  0.13891753512E+02  0.37217287665E+01 -0.32680682561E+03  0.32712311650E+03  0.00000000000E+00 0. -1.
<mgrwt>
<rscale>  1 0.30000000E+03</rscale>
<asrwt>0</asrwt>
<pdfrwt beam="1">  1       21 0.10564148E-02 0.30000000E+03</pdfrwt>
<pdfrwt beam="2">0</pdfrwt>
<totfact> 0.37033517E+05</totfact>
</mgrwt>
</event>
<event>
 6    1  0.1132867E-002  0.3000000E+03  0.7818608E-02  0.1093470E+00
         21   -1    0    0  501  502  0.00000000000E+00  0.00000000000E+00  0.27836011662E+00  0.27836011662E+00  0.00000000000E+00 0. -1.
         13   -1    0    0    0    0 -0.00000000000E+00 -0.00000000000E+00 -0.10000000000E+04  0.10000000000E+04  0.00000000000E+00 0.  1.
    9000005    2    1    2  501    0  0.61926732661E+01  0.10875432962E+02 -0.51544137407E+03  0.51583641303E+03  0.15835739847E+02 0.  0.
         13    1    3    3    0    0  0.48656492779E+01  0.27229726328E+01 -0.42035220582E+03  0.42038918404E+03  0.00000000000E+00 0.  1.
          1    1    3    3  501    0  0.13270239881E+01  0.81524603287E+01 -0.95089168254E+02  0.95447228987E+02  0.00000000000E+00 0.  1.
         -1    1    1    2    0  502 -0.61926732661E+01 -0.10875432962E+02 -0.48428026581E+03  0.48444194709E+03  0.00000000000E+00 0. -1.
<mgrwt>
<rscale>  1 0.30000000E+03</rscale>
<asrwt>0</asrwt>
<pdfrwt beam="1">  1       21 0.10122207E-02 0.30000000E+03</pdfrwt>
<pdfrwt beam="2">0</pdfrwt>
<totfact> 0.39637376E+05</totfact>
</mgrwt>
</event>
<event>
 6    1  0.1132867E-002  0.3000000E+03  0.7818608E-02  0.1093470E+00
         21   -1    0    0  501  502  0.00000000000E+00  0.00000000000E+00  0.52323117034E+00  0.52323117034E+00  0.00000000000E+00 0. -1.
         13   -1    0    0    0    0 -0.00000000000E+00 -0.00000000000E+00 -0.10000000000E+04  0.10000000000E+04  0.00000000000E+00 0.  1.
    9000005    2    1    2  501    0 -0.88377326185E+01  0.95947156573E+01 -0.89674210187E+03  0.89696370297E+03  0.15077237404E+02 0.  0.
         13    1    3    3    0    0 -0.68318681813E+01  0.10890681768E+02 -0.87436898496E+03  0.87446349452E+03  0.00000000000E+00 0.  1.
          3    1    3    3  501    0 -0.20058644371E+01 -0.12959661107E+01 -0.22373116905E+02  0.22500208451E+02  0.00000000000E+00 0.  1.
         -1    1    1    2    0  502  0.88377326185E+01 -0.95947156573E+01 -0.10273466696E+03  0.10355952820E+03  0.00000000000E+00 0. -1.
<mgrwt>
<rscale>  1 0.30000000E+03</rscale>
<asrwt>0</asrwt>
<pdfrwt beam="1">  1       21 0.19026628E-02 0.30000000E+03</pdfrwt>
<pdfrwt beam="2">0</pdfrwt>
<totfact> 0.14378002E+05</totfact>
</mgrwt>
</event>
<event>
 6    1  0.1132867E-002  0.3000000E+03  0.7818608E-02  0.1093470E+00
         21   -1    0    0  501  502  0.00000000000E+00  0.00000000000E+00  0.59094927039E+00  0.59094927039E+00  0.00000000000E+00 0. -1.
         13   -1    0    0    0    0 -0.00000000000E+00 -0.00000000000E+00 -0.10000000000E+04  0.10000000000E+04  0.00000000000E+00 0.  1.
    9000005    2    1    2  501    0  0.81807690803E+01  0.11370393433E+02 -0.90663972139E+03  0.90677005983E+03  0.63361004970E+01 0.  0.
         13    1    3    3    0    0  0.60062478379E+01  0.90342557899E+01 -0.49934108366E+03  0.49945891785E+03  0.00000000000E+00 0.  1.
          1    1    3    3  501    0  0.21745212425E+01  0.23361376431E+01 -0.40729863773E+03  0.40731114197E+03  0.00000000000E+00 0.  1.
         -3    1    1    2    0  502 -0.81807690803E+01 -0.11370393433E+02 -0.92769329341E+02  0.93820889443E+02  0.00000000000E+00 0. -1.
<mgrwt>
<rscale>  1 0.30000000E+03</rscale>
<asrwt>0</asrwt>
<pdfrwt beam="1">  1       21 0.21489110E-02 0.30000000E+03</pdfrwt>
<pdfrwt beam="2">0</pdfrwt>
<totfact> 0.11789151E+05</totfact>
</mgrwt>
</event>
<event>
 6    1  0.1132867E-002  0.3000000E+03  0.7818608E-02  0.1093470E+00
         21   -1    0    0  501  502  0.00000000000E+00  0.00000000000E+00  0.33015407336E+01  0.33015407336E+01  0.00000000000E+00 0. -1.
         13   -1    0    0    0    0 -0.00000000000E+00 -0.00000000000E+00 -0.10000000000E+04  0.10000000000E+04  0.00000000000E+00 0.  1.
    9000005    2    1    2  501    0 -0.91270468276E+01  0.15404778296E+02 -0.97494746373E+03  0.97512857523E+03  0.57071034458E+01 0.  0.
         13    1    3    3    0    0  0.78274154333E-01  0.39266188775E+01 -0.15924134723E+03  0.15928977095E+03  0.00000000000E+00 0.  1.
          1    1    3    3  501    0 -0.92053209819E+01  0.11478159418E+02 -0.81570611650E+03  0.81583880428E+03  0.00000000000E+00 0.  1.
         -3    1    1    2    0  502  0.91270468276E+01 -0.15404778296E+02 -0.21750995538E+02  0.28172965499E+02  0.00000000000E+00 0. -1.
<mgrwt>
<rscale>  1 0.30000000E+03</rscale>
<asrwt>0</asrwt>
<pdfrwt beam="1">  1       21 0.12005628E-01 0.30000000E+03</pdfrwt>
<pdfrwt beam="2">0</pdfrwt>
<totfact> 0.61918483E+03</totfact>
</mgrwt>
</event>
<event>
 6    1  0.1132867E-002  0.3000000E+03  0.7818608E-02  0.1093470E+00
         21   -1    0    0  501  502  0.00000000000E+00  0.00000000000E+00  0.29595603393E+01  0.29595603393E+01  0.00000000000E+00 0. -1.
         13   -1    0    0    0    0 -0.00000000000E+00 -0.00000000000E+00 -0.10000000000E+04  0.10000000000E+04  0.00000000000E+00 0.  1.
    9000005    2    1    2  501    0 -0.26278273390E+02  0.31847043647E+02 -0.81603900991E+03  0.81730854522E+03  0.19204441162E+02 0.  0.
         13    1    3    3    0    0 -0.24830003823E+02  0.30133606893E+02 -0.60552037248E+03  0.60677795349E+03  0.00000000000E+00 0.  1.
          3    1    3    3  501    0 -0.14482695665E+01  0.17134367543E+01 -0.21051863743E+03  0.21053059173E+03  0.00000000000E+00 0.  1.
         -3    1    1    2    0  502  0.26278273390E+02 -0.31847043647E+02 -0.18100142975E+03  0.18565101512E+03  0.00000000000E+00 0. -1.
<mgrwt>
<rscale>  1 0.30000000E+03</rscale>
<asrwt>0</asrwt>
<pdfrwt beam="1">  1       21 0.10762060E-01 0.30000000E+03</pdfrwt>
<pdfrwt beam="2">0</pdfrwt>
<totfact> 0.75427623E+03</totfact>
</mgrwt>
</event>
<event>
 6    1  0.1132867E-002  0.3000000E+03  0.7818608E-02  0.1093470E+00
         21   -1    0    0  501  502  0.00000000000E+00  0.00000000000E+00  0.19068535904E+01  0.19068535904E+01  0.00000000000E+00 0. -1.
         13   -1    0    0    0    0 -0.00000000000E+00 -0.00000000000E+00 -0.10000000000E+04  0.10000000000E+04  0.00000000000E+00 0.  1.
    9000005    2    1    2  501    0 -0.16694051399E+02  0.12871225172E+02 -0.92302241046E+03  0.92393265795E+03  0.35168543163E+02 0.  0.
         13    1    3    3    0    0 -0.19702693799E+02  0.21683713460E+02 -0.80911019813E+03  0.80964047101E+03  0.00000000000E+00 0.  1.
          3    1    3    3  501    0  0.30086423996E+01 -0.88124882883E+01 -0.11391221233E+03  0.11429218694E+03  0.00000000000E+00 0.  1.
         -1    1    1    2    0  502  0.16694051399E+02 -0.12871225172E+02 -0.75070735947E+02  0.77974195637E+02  0.00000000000E+00 0. -1.
<mgrwt>
<rscale>  1 0.30000000E+03</rscale>
<asrwt>0</asrwt>
<pdfrwt beam="1">  1       21 0.69340277E-02 0.30000000E+03</pdfrwt>
<pdfrwt beam="2">0</pdfrwt>
<totfact> 0.16403293E+04</totfact>
</mgrwt>
</event>
<event>
 6    1  0.1132867E-002  0.3000000E+03  0.7818608E-02  0.1093470E+00
         21   -1    0    0  501  502  0.00000000000E+00  0.00000000000E+00  0.13652392452E+00  0.13652392452E+00  0.00000000000E+00 0. -1.
         13   -1    0    0    0    0 -0.00000000000E+00 -0.00000000000E+00 -0.10000000000E+04  0.10000000000E+04  0.00000000000E+00 0.  1.
    9000005    2    1    2  501    0 -0.85414750625E+01 -0.26922164852E+01 -0.78976598589E+03  0.78984824511E+03  0.70521630569E+01 0.  0.
         13    1    3    3    0    0 -0.81758950651E+01 -0.46511198274E+01 -0.65225234650E+03  0.65232016808E+03  0.00000000000E+00 0.  1.
          3    1    3    3  501    0 -0.36557999742E+00  0.19589033423E+01 -0.13751363940E+03  0.13752807703E+03  0.00000000000E+00 0.  1.
         -3    1    1    2    0  502  0.85414750625E+01  0.26922164852E+01 -0.21009749018E+03  0.21028827881E+03  0.00000000000E+00 0. -1.
<mgrwt>
<rscale>  1 0.30000000E+03</rscale>
<asrwt>0</asrwt>
<pdfrwt beam="1">  1       21 0.49645168E-03 0.30000000E+03</pdfrwt>
<pdfrwt beam="2">0</pdfrwt>
<totfact> 0.12123893E+06</totfact>
</mgrwt>
</event>
<event>
 6    1  0.1132867E-002  0.3000000E+03  0.7818608E-02  0.1093470E+00
         21   -1    0    0  501  502  0.00000000000E+00  0.00000000000E+00  0.22481439118E+00  0.22481439118E+00  0.00000000000E+00 0. -1.
         13   -1    0    0    0    0 -0.00000000000E+00 -0.00000000000E+00 -0.10000000000E+04  0.10000000000E+04  0.00000000000E+00 0.  1.
    9000005    2    1    2  501    0  0.11006636243E+02 -0.21803482896E+01 -0.82271775492E+03  0.82281220570E+03  0.54333811127E+01 0.  0.
         13    1    3    3    0    0  0.10790038945E+02 -0.22415747145E+01 -0.64384359498E+03  0.64393790415E+03  0.00000000000E+00 0.  1.
          3    1    3    3  501    0  0.21659729721E+00  0.61226424879E-01 -0.17887415993E+03  0.17887430155E+03  0.00000000000E+00 0.  1.
         -1    1    1    2    0  502 -0.11006636243E+02  0.21803482896E+01 -0.17705743069E+03  0.17741260869E+03  0.00000000000E+00 0. -1.
<mgrwt>
<rscale>  1 0.30000000E+03</rscale>
<asrwt>0</asrwt>
<pdfrwt beam="1">  1       21 0.81750860E-03 0.30000000E+03</pdfrwt>
<pdfrwt beam="2">0</pdfrwt>
<totfact> 0.55575304E+05</totfact>
</mgrwt>
</event>
<event>
 6    1  0.1519414E-002  0.3000000E+03  0.7818608E-02  0.1093470E+00
         21   -1    0    0  501  502  0.00000000000E+00  0.00000000000E+00  0.23284709967E+01  0.23284709967E+01  0.00000000000E+00 0. -1.
         13   -1    0    0    0    0 -0.00000000000E+00 -0.00000000000E+00 -0.10000000000E+04  0.10000000000E+04  0.00000000000E+00 0.  1.
    9000005    2    1    2  501    0  0.16827819380E+02  0.21236827422E+02 -0.46511400457E+03  0.46908209719E+03  0.54523374034E+02 0.  0.
         13    1    3    3    0    0 -0.12064082703E+02 -0.77614322947E+01 -0.22877397526E+03  0.22922328345E+03  0.00000000000E+00 0.  1.
          3    1    3    3  501    0  0.28891902083E+02  0.28998259716E+02 -0.23634002931E+03  0.23985881374E+03  0.00000000000E+00 0.  1.
         -1    1    1    2    0  502 -0.16827819380E+02 -0.21236827422E+02 -0.53255752444E+03  0.53324637381E+03  0.00000000000E+00 0. -1.
<mgrwt>
<rscale>  1 0.30000000E+03</rscale>
<asrwt>0</asrwt>
<pdfrwt beam="1">  1       21 0.84671851E-02 0.30000000E+03</pdfrwt>
<pdfrwt beam="2">0</pdfrwt>
<totfact> 0.11559830E+04</totfact>
</mgrwt>
</event>
<event>
 6    1  0.1132867E-002  0.3000000E+03  0.7818608E-02  0.1093470E+00
         21   -1    0    0  501  502  0.00000000000E+00  0.00000000000E+00  0.14225657192E+00  0.14225657192E+00  0.00000000000E+00 0. -1.
         13   -1    0    0    0    0 -0.00000000000E+00 -0.00000000000E+00 -0.10000000000E+04  0.10000000000E+04  0.00000000000E+00 0.  1.
    9000005    2    1    2  501    0 -0.60267954556E+01 -0.57869355568E+01 -0.74099536851E+03  0.74114507505E+03  0.12331878819E+02 0.  0.
         13    1    3    3    0    0 -0.14677806996E+01 -0.26475007908E+01 -0.35735981947E+02  0.35863965848E+02  0.00000000000E+00 0.  1.
          1    1    3    3  501    0 -0.45590147560E+01 -0.31394347659E+01 -0.70525938656E+03  0.70528110921E+03  0.00000000000E+00 0.  1.
         -3    1    1    2    0  502  0.60267954556E+01  0.57869355568E+01 -0.25886237492E+03  0.25899718152E+03  0.00000000000E+00 0. -1.
<mgrwt>
<rscale>  1 0.30000000E+03</rscale>
<asrwt>0</asrwt>
<pdfrwt beam="1">  1       21 0.51729772E-03 0.30000000E+03</pdfrwt>
<pdfrwt beam="2">0</pdfrwt>
<totfact> 0.11373482E+06</totfact>
</mgrwt>
</event>
<event>
 6    1  0.1132867E-002  0.3000000E+03  0.7818608E-02  0.1093470E+00
         21   -1    0    0  501  502  0.00000000000E+00  0.00000000000E+00  0.10928039680E+00  0.10928039680E+00  0.00000000000E+00 0. -1.
         13   -1    0    0    0    0 -0.00000000000E+00 -0.00000000000E+00 -0.10000000000E+04  0.10000000000E+04  0.00000000000E+00 0.  1.
    9000005    2    1    2  501    0 -0.84944830748E+01 -0.13956963655E+01 -0.75367696554E+03  0.75374508474E+03  0.53460429422E+01 0.  0.
         13    1    3    3    0    0 -0.88748220354E+00 -0.61999379618E+00 -0.31239659175E+03  0.31239846759E+03  0.00000000000E+00 0.  1.
          1    1    3    3  501    0 -0.76070008713E+01 -0.77570256935E+00 -0.44128037379E+03  0.44134661715E+03  0.00000000000E+00 0.  1.
         -3    1    1    2    0  502  0.84944830748E+01  0.13956963655E+01 -0.24621375406E+03  0.24636419566E+03  0.00000000000E+00 0. -1.
<mgrwt>
<rscale>  1 0.30000000E+03</rscale>
<asrwt>0</asrwt>
<pdfrwt beam="1">  1       21 0.39738410E-03 0.30000000E+03</pdfrwt>
<pdfrwt beam="2">0</pdfrwt>
<totfact> 0.17107573E+06</totfact>
</mgrwt>
</event>
<event>
 6    1  0.1132867E-002  0.3000000E+03  0.7818608E-02  0.1093470E+00
         21   -1    0    0  501  502  0.00000000000E+00  0.00000000000E+00  0.19807916121E+00  0.19807916121E+00  0.00000000000E+00 0. -1.
         13   -1    0    0    0    0 -0.00000000000E+00 -0.00000000000E+00 -0.10000000000E+04  0.10000000000E+04  0.00000000000E+00 0.  1.
    9000005    2    1    2  501    0  0.11274539769E+02  0.74978598779E+01 -0.56051596345E+03  0.56070349955E+03  0.51899878798E+01 0.  0.
         13    1    3    3    0    0  0.11612089390E+02  0.70379444266E+01 -0.49844411765E+03  0.49862903215E+03  0.00000000000E+00 0.  1.
          3    1    3    3  501    0 -0.33754962154E+00  0.45991545130E+00 -0.62071845798E+02  0.62074467398E+02  0.00000000000E+00 0.  1.
         -3    1    1    2    0  502 -0.11274539769E+02 -0.74978598779E+01 -0.43928595739E+03  0.43949457961E+03  0.00000000000E+00 0. -1.
<mgrwt>
<rscale>  1 0.30000000E+03</rscale>
<asrwt>0</asrwt>
<pdfrwt beam="1">  1       21 0.72028938E-03 0.30000000E+03</pdfrwt>
<pdfrwt beam="2">0</pdfrwt>
<totfact> 0.67824252E+05</totfact>
</mgrwt>
</event>
<event>
 6    1  0.1132867E-002  0.3000000E+03  0.7818608E-02  0.1093470E+00
         21   -1    0    0  501  502  0.00000000000E+00  0.00000000000E+00  0.73466624589E+00  0.73466624589E+00  0.00000000000E+00 0. -1.
         13   -1    0    0    0    0 -0.00000000000E+00 -0.00000000000E+00 -0.10000000000E+04  0.10000000000E+04  0.00000000000E+00 0.  1.
    9000005    2    1    2  501    0 -0.17094512396E+02  0.12466359317E+02 -0.78228844832E+03  0.78272870009E+03  0.15536057881E+02 0.  0.
         13    1    3    3    0    0 -0.49569790535E+00  0.87391230812E+01 -0.34131615163E+03  0.34142837221E+03  0.00000000000E+00 0.  1.
          1    1    3    3  501    0 -0.16598814491E+02  0.37272362358E+01 -0.44097229669E+03  0.44130032787E+03  0.00000000000E+00 0.  1.
         -3    1    1    2    0  502  0.17094512396E+02 -0.12466359317E+02 -0.21697688543E+03  0.21800596616E+03  0.00000000000E+00 0. -1.
<mgrwt>
<rscale>  1 0.30000000E+03</rscale>
<asrwt>0</asrwt>
<pdfrwt beam="1">  1       21 0.26715193E-02 0.30000000E+03</pdfrwt>
<pdfrwt beam="2">0</pdfrwt>
<totfact> 0.82439541E+04</totfact>
</mgrwt>
</event>
<event>
 6    1  0.1132867E-002  0.3000000E+03  0.7818608E-02  0.1093470E+00
         21   -1    0    0  501  502  0.00000000000E+00  0.00000000000E+00  0.51046562219E+00  0.51046562219E+00  0.00000000000E+00 0. -1.
         13   -1    0    0    0    0 -0.00000000000E+00 -0.00000000000E+00 -0.10000000000E+04  0.10000000000E+04  0.00000000000E+00 0.  1.
    9000005    2    1    2  501    0  0.14771768950E+02 -0.31924037175E+01 -0.46637403652E+03  0.46718080148E+03  0.22907700250E+02 0.  0.
         13    1    3    3    0    0  0.43694509121E+01  0.96230551543E+01 -0.22070297903E+03  0.22095587850E+03  0.00000000000E+00 0.  1.
          3    1    3    3  501    0  0.10402318038E+02 -0.12815458872E+02 -0.24567105749E+03  0.24622492298E+03  0.00000000000E+00 0.  1.
         -1    1    1    2    0  502 -0.14771768950E+02  0.31924037175E+01 -0.53311549786E+03  0.53332966415E+03  0.00000000000E+00 0. -1.
<mgrwt>
<rscale>  1 0.30000000E+03</rscale>
<asrwt>0</asrwt>
<pdfrwt beam="1">  1       21 0.18562425E-02 0.30000000E+03</pdfrwt>
<pdfrwt beam="2">0</pdfrwt>
<totfact> 0.14967069E+05</totfact>
</mgrwt>
</event>
<event>
 6    1  0.1132867E-002  0.3000000E+03  0.7818608E-02  0.1093470E+00
         21   -1    0    0  501  502  0.00000000000E+00  0.00000000000E+00  0.28035214083E+00  0.28035214083E+00  0.00000000000E+00 0. -1.
         13   -1    0    0    0    0 -0.00000000000E+00 -0.00000000000E+00 -0.10000000000E+04  0.10000000000E+04  0.00000000000E+00 0.  1.
    9000005    2    1    2  501    0  0.12222287943E+02  0.47228377190E+01 -0.44900942191E+03  0.44941426816E+03  0.13857631128E+02 0.  0.
         13    1    3    3    0    0  0.51301147504E+01  0.85910743333E+01 -0.17504373498E+03  0.17532950063E+03  0.00000000000E+00 0.  1.
          3    1    3    3  501    0  0.70921731923E+01 -0.38682366143E+01 -0.27396568693E+03  0.27408476753E+03  0.00000000000E+00 0.  1.
         -3    1    1    2    0  502 -0.12222287943E+02 -0.47228377190E+01 -0.55071022595E+03  0.55086608398E+03  0.00000000000E+00 0. -1.
<mgrwt>
<rscale>  1 0.30000000E+03</rscale>
<asrwt>0</asrwt>
<pdfrwt beam="1">  1       21 0.10194645E-02 0.30000000E+03</pdfrwt>
<pdfrwt beam="2">0</pdfrwt>
<totfact> 0.39190816E+05</totfact>
</mgrwt>
</event>
<event>
 6    1  0.1132867E-002  0.3000000E+03  0.7818608E-02  0.1093470E+00
         21   -1    0    0  501  502  0.00000000000E+00  0.00000000000E+00  0.16154696120E+00  0.16154696120E+00  0.00000000000E+00 0. -1.
         13   -1    0    0    0    0 -0.00000000000E+00 -0.00000000000E+00 -0.10000000000E+04  0.10000000000E+04  0.00000000000E+00 0.  1.
    9000005    2    1    2  501    0 -0.30008095810E+01 -0.10088177035E+02 -0.76804261292E+03  0.76812687785E+03  0.43207681820E+01 0.  0.
         13    1    3    3    0    0 -0.32858381844E+01 -0.70447194265E+01 -0.64265663787E+03  0.64270364789E+03  0.00000000000E+00 0.  1.
          3    1    3    3  501    0  0.28502860342E+00 -0.30434576087E+01 -0.12538597505E+03  0.12542322996E+03  0.00000000000E+00 0.  1.
         -3    1    1    2    0  502  0.30008095810E+01  0.10088177035E+02 -0.23179584011E+03  0.23203466911E+03  0.00000000000E+00 0. -1.
<mgrwt>
<rscale>  1 0.30000000E+03</rscale>
<asrwt>0</asrwt>
<pdfrwt beam="1">  1       21 0.58744473E-03 0.30000000E+03</pdfrwt>
<pdfrwt beam="2">0</pdfrwt>
<totfact> 0.93312000E+05</totfact>
</mgrwt>
</event>
<event>
 6    1  0.1132867E-002  0.3000000E+03  0.7818608E-02  0.1093470E+00
         21   -1    0    0  501  502  0.00000000000E+00  0.00000000000E+00  0.82492458138E+00  0.82492458138E+00  0.00000000000E+00 0. -1.
         13   -1    0    0    0    0 -0.00000000000E+00 -0.00000000000E+00 -0.10000000000E+04  0.10000000000E+04  0.00000000000E+00 0.  1.
    9000005    2    1    2  501    0 -0.20598742469E+02  0.19553768144E+01 -0.81427925646E+03  0.81477494323E+03  0.19477395524E+02 0.  0.
         13    1    3    3    0    0 -0.39808076543E+01 -0.75874191651E+01 -0.17648990241E+03  0.17669776856E+03  0.00000000000E+00 0.  1.
          3    1    3    3  501    0 -0.16617934815E+02  0.95427959794E+01 -0.63778935404E+03  0.63807717468E+03  0.00000000000E+00 0.  1.
         -1    1    1    2    0  502  0.20598742469E+02 -0.19553768144E+01 -0.18489581896E+03  0.18604998135E+03  0.00000000000E+00 0. -1.
<mgrwt>
<rscale>  1 0.30000000E+03</rscale>
<asrwt>0</asrwt>
<pdfrwt beam="1">  1       21 0.29997321E-02 0.30000000E+03</pdfrwt>
<pdfrwt beam="2">0</pdfrwt>
<totfact> 0.68040285E+04</totfact>
</mgrwt>
</event>
<event>
 6    1  0.1132867E-002  0.3000000E+03  0.7818608E-02  0.1093470E+00
         21   -1    0    0  501  502  0.00000000000E+00  0.00000000000E+00  0.79393028580E+00  0.79393028580E+00  0.00000000000E+00 0. -1.
         13   -1    0    0    0    0 -0.00000000000E+00 -0.00000000000E+00 -0.10000000000E+04  0.10000000000E+04  0.00000000000E+00 0.  1.
    9000005    2    1    2  501    0 -0.69747980009E+01 -0.24343862755E+02 -0.69638147458E+03  0.69691236309E+03  0.99202940261E+01 0.  0.
         13    1    3    3    0    0 -0.60717971203E+01 -0.58940837197E+01 -0.26624463733E+03  0.26637907923E+03  0.00000000000E+00 0.  1.
          1    1    3    3  501    0 -0.90300088069E+00 -0.18449779035E+02 -0.43013683725E+03  0.43053328386E+03  0.00000000000E+00 0.  1.
         -1    1    1    2    0  502  0.69747980009E+01  0.24343862755E+02 -0.30282459514E+03  0.30388156720E+03  0.00000000000E+00 0. -1.
<mgrwt>
<rscale>  1 0.30000000E+03</rscale>
<asrwt>0</asrwt>
<pdfrwt beam="1">  1       21 0.28870253E-02 0.30000000E+03</pdfrwt>
<pdfrwt beam="2">0</pdfrwt>
<totfact> 0.72503681E+04</totfact>
</mgrwt>
</event>
<event>
 6    1  0.1132867E-002  0.3000000E+03  0.7818608E-02  0.1093470E+00
         21   -1    0    0  501  502  0.00000000000E+00  0.00000000000E+00  0.37863899120E+00  0.37863899120E+00  0.00000000000E+00 0. -1.
         13   -1    0    0    0    0 -0.00000000000E+00 -0.00000000000E+00 -0.10000000000E+04  0.10000000000E+04  0.00000000000E+00 0.  1.
    9000005    2    1    2  501    0  0.66857748666E+01  0.73731192399E+01 -0.91338381929E+03  0.91356863914E+03  0.15446507756E+02 0.  0.
         13    1    3    3    0    0  0.56026736504E+01  0.67861592987E+01 -0.90811798851E+03  0.90816062619E+03  0.00000000000E+00 0.  1.
          3    1    3    3  501    0  0.10831012162E+01  0.58695994126E+00 -0.52658307885E+01  0.54080129539E+01  0.00000000000E+00 0.  1.
         -1    1    1    2    0  502 -0.66857748666E+01 -0.73731192399E+01 -0.86237541714E+02  0.86809999849E+02  0.00000000000E+00 0. -1.
<mgrwt>
<rscale>  1 0.30000000E+03</rscale>
<asrwt>0</asrwt>
<pdfrwt beam="1">  1       21 0.13768720E-02 0.30000000E+03</pdfrwt>
<pdfrwt beam="2">0</pdfrwt>
<totfact> 0.24250979E+05</totfact>
</mgrwt>
</event>
<event>
 6    1  0.1132867E-002  0.3000000E+03  0.7818608E-02  0.1093470E+00
         21   -1    0    0  501  502  0.00000000000E+00  0.00000000000E+00  0.36100460881E+00  0.36100460881E+00  0.00000000000E+00 0. -1.
         13   -1    0    0    0    0 -0.00000000000E+00 -0.00000000000E+00 -0.10000000000E+04  0.10000000000E+04  0.00000000000E+00 0.  1.
    9000005    2    1    2  501    0 -0.17892447700E+01 -0.94207799174E+01 -0.90299388229E+03  0.90324133422E+03  0.18841546906E+02 0.  0.
         13    1    3    3    0    0  0.68103201783E+01 -0.52682308088E+01 -0.20325061419E+03  0.20343290512E+03  0.00000000000E+00 0.  1.
          1    1    3    3  501    0 -0.85995649483E+01 -0.41525491086E+01 -0.69974326810E+03  0.69980842910E+03  0.00000000000E+00 0.  1.
         -1    1    1    2    0  502  0.17892447700E+01  0.94207799174E+01 -0.96645113097E+02  0.97119670390E+02  0.00000000000E+00 0. -1.
<mgrwt>
<rscale>  1 0.30000000E+03</rscale>
<asrwt>0</asrwt>
<pdfrwt beam="1">  1       21 0.13127468E-02 0.30000000E+03</pdfrwt>
<pdfrwt beam="2">0</pdfrwt>
<totfact> 0.26180562E+05</totfact>
</mgrwt>
</event>
<event>
 6    1  0.1132867E-002  0.3000000E+03  0.7818608E-02  0.1093470E+00
         21   -1    0    0  501  502  0.00000000000E+00  0.00000000000E+00  0.50096111430E+00  0.50096111430E+00  0.00000000000E+00 0. -1.
         13   -1    0    0    0    0 -0.00000000000E+00 -0.00000000000E+00 -0.10000000000E+04  0.10000000000E+04  0.00000000000E+00 0.  1.
    9000005    2    1    2  501    0  0.70551003425E+01  0.18106349315E+02 -0.71252481286E+03  0.71286956378E+03  0.10667319440E+02 0.  0.
         13    1    3    3    0    0 -0.97594592883E+00  0.40139739725E+01 -0.59445614569E+02  0.59588971706E+02  0.00000000000E+00 0.  1.
          3    1    3    3  501    0  0.80310462713E+01  0.14092375342E+02 -0.65307919829E+03  0.65328059208E+03  0.00000000000E+00 0.  1.
         -3    1    1    2    0  502 -0.70551003425E+01 -0.18106349315E+02 -0.28697422603E+03  0.28763139733E+03  0.00000000000E+00 0. -1.
<mgrwt>
<rscale>  1 0.30000000E+03</rscale>
<asrwt>0</asrwt>
<pdfrwt beam="1">  1       21 0.18216806E-02 0.30000000E+03</pdfrwt>
<pdfrwt beam="2">0</pdfrwt>
<totfact> 0.15431047E+05</totfact>
</mgrwt>
</event>
<event>
 6    1  0.1132867E-002  0.3000000E+03  0.7818608E-02  0.1093470E+00
         21   -1    0    0  501  502  0.00000000000E+00  0.00000000000E+00  0.51669362240E+00  0.51669362240E+00  0.00000000000E+00 0. -1.
         13   -1    0    0    0    0 -0.00000000000E+00 -0.00000000000E+00 -0.10000000000E+04  0.10000000000E+04  0.00000000000E+00 0.  1.
    9000005    2    1    2  501    0  0.12386285883E+02 -0.12054394096E+02 -0.81221851330E+03  0.81245598209E+03  0.93317198096E+01 0.  0.
         13    1    3    3    0    0  0.61331921211E+01 -0.26590185490E+01 -0.47847985530E+03  0.47852654927E+03  0.00000000000E+00 0.  1.
          1    1    3    3  501    0  0.62530937614E+01 -0.93953755467E+01 -0.33373865799E+03  0.33392943282E+03  0.00000000000E+00 0.  1.
         -3    1    1    2    0  502 -0.12386285883E+02  0.12054394096E+02 -0.18726479308E+03  0.18806071153E+03  0.00000000000E+00 0. -1.
<mgrwt>
<rscale>  1 0.30000000E+03</rscale>
<asrwt>0</asrwt>
<pdfrwt beam="1">  1       21 0.18788899E-02 0.30000000E+03</pdfrwt>
<pdfrwt beam="2">0</pdfrwt>
<totfact> 0.14674973E+05</totfact>
</mgrwt>
</event>
<event>
 6    1  0.1132867E-002  0.3000000E+03  0.7818608E-02  0.1093470E+00
         21   -1    0    0  501  502  0.00000000000E+00  0.00000000000E+00  0.12526262533E+00  0.12526262533E+00  0.00000000000E+00 0. -1.
         13   -1    0    0    0    0 -0.00000000000E+00 -0.00000000000E+00 -0.10000000000E+04  0.10000000000E+04  0.00000000000E+00 0.  1.
    9000005    2    1    2  501    0 -0.36784716020E+01  0.83927536960E+01 -0.41232628251E+03  0.41250535462E+03  0.79834125171E+01 0.  0.
         13    1    3    3    0    0 -0.39174127397E+01  0.32620190606E+01 -0.31685675466E+03  0.31689775933E+03  0.00000000000E+00 0.  1.
          3    1    3    3  501    0  0.23894113770E+00  0.51307346355E+01 -0.95469527847E+02  0.95607595295E+02  0.00000000000E+00 0.  1.
         -1    1    1    2    0  502  0.36784716020E+01 -0.83927536960E+01 -0.58754845486E+03  0.58761990800E+03  0.00000000000E+00 0. -1.
<mgrwt>
<rscale>  1 0.30000000E+03</rscale>
<asrwt>0</asrwt>
<pdfrwt beam="1">  1       21 0.45550142E-03 0.30000000E+03</pdfrwt>
<pdfrwt beam="2">0</pdfrwt>
<totfact> 0.13855057E+06</totfact>
</mgrwt>
</event>
<event>
 6    1  0.1132867E-002  0.3000000E+03  0.7818608E-02  0.1093470E+00
         21   -1    0    0  501  502  0.00000000000E+00  0.00000000000E+00  0.30672072494E+00  0.30672072494E+00  0.00000000000E+00 0. -1.
         13   -1    0    0    0    0 -0.00000000000E+00 -0.00000000000E+00 -0.10000000000E+04  0.10000000000E+04  0.00000000000E+00 0.  1.
    9000005    2    1    2  501    0 -0.30405988614E+01 -0.97555298510E+01 -0.89854981473E+03  0.89864839089E+03  0.85290854468E+01 0.  0.
         13    1    3    3    0    0  0.21255073514E+01 -0.72361489389E+01 -0.53452211648E+03  0.53457531990E+03  0.00000000000E+00 0.  1.
          3    1    3    3  501    0 -0.51661062128E+01 -0.25193809121E+01 -0.36402769824E+03  0.36407307099E+03  0.00000000000E+00 0.  1.
         -1    1    1    2    0  502  0.30405988614E+01  0.97555298510E+01 -0.10114346455E+03  0.10165832984E+03  0.00000000000E+00 0. -1.
<mgrwt>
<rscale>  1 0.30000000E+03</rscale>
<asrwt>0</asrwt>
<pdfrwt beam="1">  1       21 0.11153504E-02 0.30000000E+03</pdfrwt>
<pdfrwt beam="2">0</pdfrwt>
<totfact> 0.33967414E+05</totfact>
</mgrwt>
</event>
<event>
 6    1  0.1132867E-002  0.3000000E+03  0.7818608E-02  0.1093470E+00
         21   -1    0    0  501  502  0.00000000000E+00  0.00000000000E+00  0.26876343359E+01  0.26876343359E+01  0.00000000000E+00 0. -1.
         13   -1    0    0    0    0 -0.00000000000E+00 -0.00000000000E+00 -0.10000000000E+04  0.10000000000E+04  0.00000000000E+00 0.  1.
    9000005    2    1    2  501    0 -0.94348979528E+00  0.24298916552E+02 -0.93822999699E+03  0.93879668187E+03  0.21733732413E+02 0.  0.
         13    1    3    3    0    0  0.43469727131E-01 -0.27985329543E+01 -0.27292524568E+03  0.27293959663E+03  0.00000000000E+00 0.  1.
          1    1    3    3  501    0 -0.98695952241E+00  0.27097449506E+02 -0.66530475130E+03  0.66585708524E+03  0.00000000000E+00 0.  1.
         -3    1    1    2    0  502  0.94348979528E+00 -0.24298916552E+02 -0.59082368679E+02  0.63890952468E+02  0.00000000000E+00 0. -1.
<mgrwt>
<rscale>  1 0.30000000E+03</rscale>
<asrwt>0</asrwt>
<pdfrwt beam="1">  1       21 0.97732364E-02 0.30000000E+03</pdfrwt>
<pdfrwt beam="2">0</pdfrwt>
<totfact> 0.89628858E+03</totfact>
</mgrwt>
</event>
<event>
 6    1  0.1132867E-002  0.3000000E+03  0.7818608E-02  0.1093470E+00
         21   -1    0    0  501  502  0.00000000000E+00  0.00000000000E+00  0.16168499223E+00  0.16168499223E+00  0.00000000000E+00 0. -1.
         13   -1    0    0    0    0 -0.00000000000E+00 -0.00000000000E+00 -0.10000000000E+04  0.10000000000E+04  0.00000000000E+00 0.  1.
    9000005    2    1    2  501    0  0.60295721496E+01  0.78401712952E+01 -0.78449392766E+03  0.78459028339E+03  0.73052193326E+01 0.  0.
         13    1    3    3    0    0  0.25585261695E+01  0.48528739002E+01 -0.64062192105E+03  0.64064541064E+03  0.00000000000E+00 0.  1.
          1    1    3    3  501    0  0.34710459801E+01  0.29872973951E+01 -0.14387200660E+03  0.14394487274E+03  0.00000000000E+00 0.  1.
         -1    1    1    2    0  502 -0.60295721496E+01 -0.78401712952E+01 -0.21534438735E+03  0.21557140161E+03  0.00000000000E+00 0. -1.
<mgrwt>
<rscale>  1 0.30000000E+03</rscale>
<asrwt>0</asrwt>
<pdfrwt beam="1">  1       21 0.58794667E-03 0.30000000E+03</pdfrwt>
<pdfrwt beam="2">0</pdfrwt>
<totfact> 0.93187794E+05</totfact>
</mgrwt>
</event>
<event>
 6    1  0.1132867E-002  0.3000000E+03  0.7818608E-02  0.1093470E+00
         21   -1    0    0  501  502  0.00000000000E+00  0.00000000000E+00  0.12503205833E+00  0.12503205833E+00  0.00000000000E+00 0. -1.
         13   -1    0    0    0    0 -0.00000000000E+00 -0.00000000000E+00 -0.10000000000E+04  0.10000000000E+04  0.00000000000E+00 0.  1.
    9000005    2    1    2  501    0 -0.61491580432E+01  0.76245098869E+01 -0.37183468700E+03  0.37200837109E+03  0.57661435972E+01 0.  0.
         13    1    3    3    0    0 -0.17529642572E+01  0.23559165174E+00 -0.14501801825E+03  0.14502880406E+03  0.00000000000E+00 0.  1.
          1    1    3    3  501    0 -0.43961937860E+01  0.73889182351E+01 -0.22681666874E+03  0.22697956704E+03  0.00000000000E+00 0.  1.
         -3    1    1    2    0  502  0.61491580432E+01 -0.76245098869E+01 -0.62804028094E+03  0.62811666097E+03  0.00000000000E+00 0. -1.
<mgrwt>
<rscale>  1 0.30000000E+03</rscale>
<asrwt>0</asrwt>
<pdfrwt beam="1">  1       21 0.45466299E-03 0.30000000E+03</pdfrwt>
<pdfrwt beam="2">0</pdfrwt>
<totfact> 0.13894622E+06</totfact>
</mgrwt>
</event>
<event>
 6    1  0.1132867E-002  0.3000000E+03  0.7818608E-02  0.1093470E+00
         21   -1    0    0  501  502  0.00000000000E+00  0.00000000000E+00  0.12694442427E+00  0.12694442427E+00  0.00000000000E+00 0. -1.
         13   -1    0    0    0    0 -0.00000000000E+00 -0.00000000000E+00 -0.10000000000E+04  0.10000000000E+04  0.00000000000E+00 0.  1.
    9000005    2    1    2  501    0 -0.62793438310E+01 -0.61267305639E+01 -0.77431100541E+03  0.77439434718E+03  0.72183689133E+01 0.  0.
         13    1    3    3    0    0 -0.18266802680E+01 -0.65919393434E+01 -0.50058235531E+03  0.50062908912E+03  0.00000000000E+00 0.  1.
          3    1    3    3  501    0 -0.44526635631E+01  0.46520877947E+00 -0.27372865010E+03  0.27376525805E+03  0.00000000000E+00 0.  1.
         -1    1    1    2    0  502  0.62793438310E+01  0.61267305639E+01 -0.22556205016E+03  0.22573259724E+03  0.00000000000E+00 0. -1.
<mgrwt>
<rscale>  1 0.30000000E+03</rscale>
<asrwt>0</asrwt>
<pdfrwt beam="1">  1       21 0.46161706E-03 0.30000000E+03</pdfrwt>
<pdfrwt beam="2">0</pdfrwt>
<totfact> 0.13571908E+06</totfact>
</mgrwt>
</event>
<event>
 6    1  0.1132867E-002  0.3000000E+03  0.7818608E-02  0.1093470E+00
         21   -1    0    0  501  502  0.00000000000E+00  0.00000000000E+00  0.16149221098E+00  0.16149221098E+00  0.00000000000E+00 0. -1.
         13   -1    0    0    0    0 -0.00000000000E+00 -0.00000000000E+00 -0.10000000000E+04  0.10000000000E+04  0.00000000000E+00 0.  1.
    9000005    2    1    2  501    0  0.10953901511E+02 -0.49347985316E+00 -0.64246149972E+03  0.64261630992E+03  0.88719601234E+01 0.  0.
         13    1    3    3    0    0  0.40400721250E+01  0.41330982886E+01 -0.25419507179E+03  0.25426077009E+03  0.00000000000E+00 0.  1.
          1    1    3    3  501    0  0.69138293863E+01 -0.46265781418E+01 -0.38826642793E+03  0.38835553983E+03  0.00000000000E+00 0.  1.
         -1    1    1    2    0  502 -0.10953901511E+02  0.49347985316E+00 -0.35737700807E+03  0.35754518229E+03  0.00000000000E+00 0. -1.
<mgrwt>
<rscale>  1 0.30000000E+03</rscale>
<asrwt>0</asrwt>
<pdfrwt beam="1">  1       21 0.58724564E-03 0.30000000E+03</pdfrwt>
<pdfrwt beam="2">0</pdfrwt>
<totfact> 0.93361340E+05</totfact>
</mgrwt>
</event>
<event>
 6    1  0.1132867E-002  0.3000000E+03  0.7818608E-02  0.1093470E+00
         21   -1    0    0  501  502  0.00000000000E+00  0.00000000000E+00  0.11023680674E+01  0.11023680674E+01  0.00000000000E+00 0. -1.
         13   -1    0    0    0    0 -0.00000000000E+00 -0.00000000000E+00 -0.10000000000E+04  0.10000000000E+04  0.00000000000E+00 0.  1.
    9000005    2    1    2  501    0 -0.16102309993E+02 -0.11957537376E+02 -0.88513905012E+03  0.88558924318E+03  0.19872153541E+02 0.  0.
         13    1    3    3    0    0 -0.20390605574E+02 -0.71302704599E+01 -0.63682506910E+03  0.63719132620E+03  0.00000000000E+00 0.  1.
          1    1    3    3  501    0  0.42882955809E+01 -0.48272669162E+01 -0.24831398103E+03  0.24839791698E+03  0.00000000000E+00 0.  1.
         -1    1    1    2    0  502  0.16102309993E+02  0.11957537376E+02 -0.11375858181E+03  0.11551312489E+03  0.00000000000E+00 0. -1.
<mgrwt>
<rscale>  1 0.30000000E+03</rscale>
<asrwt>0</asrwt>
<pdfrwt beam="1">  1       21 0.40086196E-02 0.30000000E+03</pdfrwt>
<pdfrwt beam="2">0</pdfrwt>
<totfact> 0.41895169E+04</totfact>
</mgrwt>
</event>
<event>
 6    1  0.1132867E-002  0.3000000E+03  0.7818608E-02  0.1093470E+00
         21   -1    0    0  501  502  0.00000000000E+00  0.00000000000E+00  0.14232005265E+00  0.14232005265E+00  0.00000000000E+00 0. -1.
         13   -1    0    0    0    0 -0.00000000000E+00 -0.00000000000E+00 -0.10000000000E+04  0.10000000000E+04  0.00000000000E+00 0.  1.
    9000005    2    1    2  501    0 -0.72931988600E+01  0.53494954880E+01 -0.78715778375E+03  0.78725020255E+03  0.79810430526E+01 0.  0.
         13    1    3    3    0    0 -0.57852216066E+01 -0.40359571602E+00 -0.47834646251E+03  0.47838161532E+03  0.00000000000E+00 0.  1.
          3    1    3    3  501    0 -0.15079772533E+01  0.57530912040E+01 -0.30881132124E+03  0.30886858723E+03  0.00000000000E+00 0.  1.
         -1    1    1    2    0  502  0.72931988600E+01 -0.53494954880E+01 -0.21269989619E+03  0.21289211750E+03  0.00000000000E+00 0. -1.
<mgrwt>
<rscale>  1 0.30000000E+03</rscale>
<asrwt>0</asrwt>
<pdfrwt beam="1">  1       21 0.51752856E-03 0.30000000E+03</pdfrwt>
<pdfrwt beam="2">0</pdfrwt>
<totfact> 0.11365600E+06</totfact>
</mgrwt>
</event>
<event>
 6    1  0.1132867E-002  0.3000000E+03  0.7818608E-02  0.1093470E+00
         21   -1    0    0  501  502  0.00000000000E+00  0.00000000000E+00  0.34906589788E+00  0.34906589788E+00  0.00000000000E+00 0. -1.
         13   -1    0    0    0    0 -0.00000000000E+00 -0.00000000000E+00 -0.10000000000E+04  0.10000000000E+04  0.00000000000E+00 0.  1.
    9000005    2    1    2  501    0  0.71363802861E+01  0.14378925901E+02 -0.44588169382E+03  0.44634721309E+03  0.12556604412E+02 0.  0.
         13    1    3    3    0    0  0.50085355697E+01  0.40377074988E+01 -0.64640330054E+02  0.64959685805E+02  0.00000000000E+00 0.  1.
          1    1    3    3  501    0  0.21278447164E+01  0.10341218403E+02 -0.38124136377E+03  0.38138752729E+03  0.00000000000E+00 0.  1.
         -1    1    1    2    0  502 -0.71363802861E+01 -0.14378925901E+02 -0.55376924028E+03  0.55400185281E+03  0.00000000000E+00 0. -1.
<mgrwt>
<rscale>  1 0.30000000E+03</rscale>
<asrwt>0</asrwt>
<pdfrwt beam="1">  1       21 0.12693332E-02 0.30000000E+03</pdfrwt>
<pdfrwt beam="2">0</pdfrwt>
<totfact> 0.27630294E+05</totfact>
</mgrwt>
</event>
<event>
 6    1  0.1132867E-002  0.3000000E+03  0.7818608E-02  0.1093470E+00
         21   -1    0    0  501  502  0.00000000000E+00  0.00000000000E+00  0.46627835996E+00  0.46627835996E+00  0.00000000000E+00 0. -1.
         13   -1    0    0    0    0 -0.00000000000E+00 -0.00000000000E+00 -0.10000000000E+04  0.10000000000E+04  0.00000000000E+00 0.  1.
    9000005    2    1    2  501    0  0.77322059497E+01 -0.16546439591E+02 -0.58262072924E+03  0.58315342820E+03  0.16953908571E+02 0.  0.
         13    1    3    3    0    0 -0.53825249435E+01 -0.55668509132E+01 -0.20280480628E+03  0.20295258277E+03  0.00000000000E+00 0.  1.
          3    1    3    3  501    0  0.13114730893E+02 -0.10979588678E+02 -0.37981592296E+03  0.38020084543E+03  0.00000000000E+00 0.  1.
         -1    1    1    2    0  502 -0.77322059497E+01  0.16546439591E+02 -0.41691299240E+03  0.41731285016E+03  0.00000000000E+00 0. -1.
<mgrwt>
<rscale>  1 0.30000000E+03</rscale>
<asrwt>0</asrwt>
<pdfrwt beam="1">  1       21 0.16955612E-02 0.30000000E+03</pdfrwt>
<pdfrwt beam="2">0</pdfrwt>
<totfact> 0.17335567E+05</totfact>
</mgrwt>
</event>
<event>
 6    1  0.1132867E-002  0.3000000E+03  0.7818608E-02  0.1093470E+00
         21   -1    0    0  501  502  0.00000000000E+00  0.00000000000E+00  0.88202759323E+00  0.88202759323E+00  0.00000000000E+00 0. -1.
         13   -1    0    0    0    0 -0.00000000000E+00 -0.00000000000E+00 -0.10000000000E+04  0.10000000000E+04  0.00000000000E+00 0.  1.
    9000005    2    1    2  501    0 -0.16908907645E+02  0.37509072060E+01 -0.90357690944E+03  0.90378375174E+03  0.85940768471E+01 0.  0.
         13    1    3    3    0    0 -0.80076540990E+01  0.26501072454E+01 -0.24376853802E+03  0.24391442295E+03  0.00000000000E+00 0.  1.
          1    1    3    3  501    0 -0.89012535462E+01  0.11007999606E+01 -0.65980837143E+03  0.65986932879E+03  0.00000000000E+00 0.  1.
         -3    1    1    2    0  502  0.16908907645E+02 -0.37509072060E+01 -0.95541062962E+02  0.97098275857E+02  0.00000000000E+00 0. -1.
<mgrwt>
<rscale>  1 0.30000000E+03</rscale>
<asrwt>0</asrwt>
<pdfrwt beam="1">  1       21 0.32073798E-02 0.30000000E+03</pdfrwt>
<pdfrwt beam="2">0</pdfrwt>
<totfact> 0.60874377E+04</totfact>
</mgrwt>
</event>
<event>
 6    1  0.1132867E-002  0.3000000E+03  0.7818608E-02  0.1093470E+00
         21   -1    0    0  501  502  0.00000000000E+00  0.00000000000E+00  0.17767036779E+00  0.17767036779E+00  0.00000000000E+00 0. -1.
         13   -1    0    0    0    0 -0.00000000000E+00 -0.00000000000E+00 -0.10000000000E+04  0.10000000000E+04  0.00000000000E+00 0.  1.
    9000005    2    1    2  501    0 -0.40464691781E+01 -0.85065068693E+01 -0.82034302242E+03  0.82045133315E+03  0.94329774958E+01 0.  0.
         13    1    3    3    0    0 -0.63553789336E+01 -0.89390978049E+01 -0.68935319320E+03  0.68944044216E+03  0.00000000000E+00 0.  1.
          1    1    3    3  501    0  0.23089097555E+01  0.43259093564E+00 -0.13098982922E+03  0.13101089099E+03  0.00000000000E+00 0.  1.
         -1    1    1    2    0  502  0.40464691781E+01  0.85065068693E+01 -0.17947930721E+03  0.17972633722E+03  0.00000000000E+00 0. -1.
<mgrwt>
<rscale>  1 0.30000000E+03</rscale>
<asrwt>0</asrwt>
<pdfrwt beam="1">  1       21 0.64607543E-03 0.30000000E+03</pdfrwt>
<pdfrwt beam="2">0</pdfrwt>
<totfact> 0.80422673E+05</totfact>
</mgrwt>
</event>
<event>
 6    1  0.1132867E-002  0.3000000E+03  0.7818608E-02  0.1093470E+00
         21   -1    0    0  501  502  0.00000000000E+00  0.00000000000E+00  0.14238799593E+00  0.14238799593E+00  0.00000000000E+00 0. -1.
         13   -1    0    0    0    0 -0.00000000000E+00 -0.00000000000E+00 -0.10000000000E+04  0.10000000000E+04  0.00000000000E+00 0.  1.
    9000005    2    1    2  501    0 -0.84198258930E+01 -0.64200944395E+01 -0.64942228314E+03  0.64954713589E+03  0.70759330153E+01 0.  0.
         13    1    3    3    0    0 -0.21874702610E+01 -0.43333888519E+01 -0.14332572128E+03  0.14340789959E+03  0.00000000000E+00 0.  1.
          1    1    3    3  501    0 -0.62323556320E+01 -0.20867055876E+01 -0.50609656186E+03  0.50613923630E+03  0.00000000000E+00 0.  1.
         -3    1    1    2    0  502  0.84198258930E+01  0.64200944395E+01 -0.35043532887E+03  0.35059525210E+03  0.00000000000E+00 0. -1.
<mgrwt>
<rscale>  1 0.30000000E+03</rscale>
<asrwt>0</asrwt>
<pdfrwt beam="1">  1       21 0.51777562E-03 0.30000000E+03</pdfrwt>
<pdfrwt beam="2">0</pdfrwt>
<totfact> 0.11357173E+06</totfact>
</mgrwt>
</event>
<event>
 6    1  0.1132867E-002  0.3000000E+03  0.7818608E-02  0.1093470E+00
         21   -1    0    0  501  502  0.00000000000E+00  0.00000000000E+00  0.18439347775E+00  0.18439347775E+00  0.00000000000E+00 0. -1.
         13   -1    0    0    0    0 -0.00000000000E+00 -0.00000000000E+00 -0.10000000000E+04  0.10000000000E+04  0.00000000000E+00 0.  1.
    9000005    2    1    2  501    0 -0.97423440329E+01 -0.31722839527E+01 -0.76462782665E+03  0.76477354315E+03  0.10857364123E+02 0.  0.
         13    1    3    3    0    0 -0.58596057754E+01 -0.51445373026E+01 -0.23797836270E+03  0.23810607375E+03  0.00000000000E+00 0.  1.
          3    1    3    3  501    0 -0.38827382575E+01  0.19722533499E+01 -0.52664946395E+03  0.52666746940E+03  0.00000000000E+00 0.  1.
         -1    1    1    2    0  502  0.97423440329E+01  0.31722839527E+01 -0.23518777987E+03  0.23541085033E+03  0.00000000000E+00 0. -1.
<mgrwt>
<rscale>  1 0.30000000E+03</rscale>
<asrwt>0</asrwt>
<pdfrwt beam="1">  1       21 0.67052315E-03 0.30000000E+03</pdfrwt>
<pdfrwt beam="2">0</pdfrwt>
<totfact> 0.75879802E+05</totfact>
</mgrwt>
</event>
<event>
 6    1  0.1132867E-002  0.3000000E+03  0.7818608E-02  0.1093470E+00
         21   -1    0    0  501  502  0.00000000000E+00  0.00000000000E+00  0.18164057143E+00  0.18164057143E+00  0.00000000000E+00 0. -1.
         13   -1    0    0    0    0 -0.00000000000E+00 -0.00000000000E+00 -0.10000000000E+04  0.10000000000E+04  0.00000000000E+00 0.  1.
    9000005    2    1    2  501    0 -0.71168713517E+01  0.86868551156E+01 -0.74147218694E+03  0.74159150899E+03  0.71309814935E+01 0.  0.
         13    1    3    3    0    0 -0.37119971111E+01  0.26100282830E+01 -0.12913296198E+03  0.12921266594E+03  0.00000000000E+00 0.  1.
          3    1    3    3  501    0 -0.34048742407E+01  0.60768268326E+01 -0.61233922496E+03  0.61237884306E+03  0.00000000000E+00 0.  1.
         -1    1    1    2    0  502  0.71168713517E+01 -0.86868551156E+01 -0.25834617249E+03  0.25859013158E+03  0.00000000000E+00 0. -1.
<mgrwt>
<rscale>  1 0.30000000E+03</rscale>
<asrwt>0</asrwt>
<pdfrwt beam="1">  1       21 0.66051256E-03 0.30000000E+03</pdfrwt>
<pdfrwt beam="2">0</pdfrwt>
<totfact> 0.77688266E+05</totfact>
</mgrwt>
</event>
<event>
 6    1  0.1132867E-002  0.3000000E+03  0.7818608E-02  0.1093470E+00
         21   -1    0    0  501  502  0.00000000000E+00  0.00000000000E+00  0.22445878660E+00  0.22445878660E+00  0.00000000000E+00 0. -1.
         13   -1    0    0    0    0 -0.00000000000E+00 -0.00000000000E+00 -0.10000000000E+04  0.10000000000E+04  0.00000000000E+00 0.  1.
    9000005    2    1    2  501    0 -0.12792806343E+02  0.59632869990E+01 -0.63560921124E+03  0.63578470716E+03  0.48895549782E+01 0.  0.
         13    1    3    3    0    0 -0.65050638980E+01  0.22028032039E+01 -0.40749737338E+03  0.40755524473E+03  0.00000000000E+00 0.  1.
          1    1    3    3  501    0 -0.62877424454E+01  0.37604837951E+01 -0.22811183787E+03  0.22822946242E+03  0.00000000000E+00 0.  1.
         -1    1    1    2    0  502  0.12792806343E+02 -0.59632869990E+01 -0.36416632997E+03  0.36443975163E+03  0.00000000000E+00 0. -1.
<mgrwt>
<rscale>  1 0.30000000E+03</rscale>
<asrwt>0</asrwt>
<pdfrwt beam="1">  1       21 0.81621549E-03 0.30000000E+03</pdfrwt>
<pdfrwt beam="2">0</pdfrwt>
<totfact> 0.55714230E+05</totfact>
</mgrwt>
</event>
<event>
 6    1  0.1132867E-002  0.3000000E+03  0.7818608E-02  0.1093470E+00
         21   -1    0    0  501  502  0.00000000000E+00  0.00000000000E+00  0.37215855295E+00  0.37215855295E+00  0.00000000000E+00 0. -1.
         13   -1    0    0    0    0 -0.00000000000E+00 -0.00000000000E+00 -0.10000000000E+04  0.10000000000E+04  0.00000000000E+00 0.  1.
    9000005    2    1    2  501    0  0.11597827338E+02 -0.61243710245E+01 -0.84546248090E+03  0.84564990446E+03  0.12038969307E+02 0.  0.
         13    1    3    3    0    0 -0.40822850615E+00 -0.56329333318E+01 -0.32201318558E+03  0.32206270861E+03  0.00000000000E+00 0.  1.
          1    1    3    3  501    0  0.12006055844E+02 -0.49143769272E+00 -0.52344929532E+03  0.52358719585E+03  0.00000000000E+00 0.  1.
         -3    1    1    2    0  502 -0.11597827338E+02  0.61243710245E+01 -0.15416536054E+03  0.15472225409E+03  0.00000000000E+00 0. -1.
<mgrwt>
<rscale>  1 0.30000000E+03</rscale>
<asrwt>0</asrwt>
<pdfrwt beam="1">  1       21 0.13533067E-02 0.30000000E+03</pdfrwt>
<pdfrwt beam="2">0</pdfrwt>
<totfact> 0.24932679E+05</totfact>
</mgrwt>
</event>
<event>
 6    1  0.1132867E-002  0.3000000E+03  0.7818608E-02  0.1093470E+00
         21   -1    0    0  501  502  0.00000000000E+00  0.00000000000E+00  0.14156863788E+00  0.14156863788E+00  0.00000000000E+00 0. -1.
         13   -1    0    0    0    0 -0.00000000000E+00 -0.00000000000E+00 -0.10000000000E+04  0.10000000000E+04  0.00000000000E+00 0.  1.
    9000005    2    1    2  501    0 -0.86304689830E+01  0.16056572899E+01 -0.77882033114E+03  0.77892921618E+03  0.96204205406E+01 0.  0.
         13    1    3    3    0    0 -0.61029545383E+01  0.55400086776E+01 -0.44772114338E+03  0.44779700756E+03  0.00000000000E+00 0.  1.
          1    1    3    3  501    0 -0.25275144447E+01 -0.39343513877E+01 -0.33109918776E+03  0.33113220862E+03  0.00000000000E+00 0.  1.
         -1    1    1    2    0  502  0.86304689830E+01 -0.16056572899E+01 -0.22103810022E+03  0.22121235245E+03  0.00000000000E+00 0. -1.
<mgrwt>
<rscale>  1 0.30000000E+03</rscale>
<asrwt>0</asrwt>
<pdfrwt beam="1">  1       21 0.51479613E-03 0.30000000E+03</pdfrwt>
<pdfrwt beam="2">0</pdfrwt>
<totfact> 0.11459476E+06</totfact>
</mgrwt>
</event>
<event>
 6    1  0.2088196E-002  0.3000000E+03  0.7818608E-02  0.1093470E+00
         21   -1    0    0  501  502  0.00000000000E+00  0.00000000000E+00  0.78198362927E+01  0.78198362927E+01  0.00000000000E+00 0.  1.
         13   -1    0    0    0    0 -0.00000000000E+00 -0.00000000000E+00 -0.10000000000E+04  0.10000000000E+04  0.00000000000E+00 0.  1.
    9000005    2    1    2  501    0  0.15995247974E+02 -0.10595430670E+02 -0.97610961486E+03  0.98279237839E+03  0.11279524675E+03 0.  0.
         13    1    3    3    0    0  0.61150651313E+02 -0.13110518022E+02 -0.72080280417E+03  0.72351086400E+03  0.00000000000E+00 0.  1.
          1    1    3    3  501    0 -0.45155403340E+02  0.25150873525E+01 -0.25530681069E+03  0.25928151439E+03  0.00000000000E+00 0.  1.
         -1    1    1    2    0  502 -0.15995247974E+02  0.10595430670E+02 -0.16070548846E+02  0.25027457902E+02  0.00000000000E+00 0. -1.
<mgrwt>
<rscale>  1 0.30000000E+03</rscale>
<asrwt>0</asrwt>
<pdfrwt beam="1">  1       21 0.28435828E-01 0.30000000E+03</pdfrwt>
<pdfrwt beam="2">0</pdfrwt>
<totfact> 0.12097440E+03</totfact>
</mgrwt>
</event>
<event>
 6    1  0.1132867E-002  0.3000000E+03  0.7818608E-02  0.1093470E+00
         21   -1    0    0  501  502  0.00000000000E+00  0.00000000000E+00  0.24416033176E+00  0.24416033176E+00  0.00000000000E+00 0. -1.
         13   -1    0    0    0    0 -0.00000000000E+00 -0.00000000000E+00 -0.10000000000E+04  0.10000000000E+04  0.00000000000E+00 0.  1.
    9000005    2    1    2  501    0 -0.13667934570E+02 -0.33657095662E+01 -0.37990266961E+03  0.38023118235E+03  0.71814495133E+01 0.  0.
         13    1    3    3    0    0 -0.49386281317E+01 -0.36814887197E+01 -0.98123773289E+02  0.98316927797E+02  0.00000000000E+00 0.  1.
          1    1    3    3  501    0 -0.87293064386E+01  0.31577915348E+00 -0.28177889632E+03  0.28191425455E+03  0.00000000000E+00 0.  1.
         -3    1    1    2    0  502  0.13667934570E+02  0.33657095662E+01 -0.61985317006E+03  0.62001297798E+03  0.00000000000E+00 0. -1.
<mgrwt>
<rscale>  1 0.30000000E+03</rscale>
<asrwt>0</asrwt>
<pdfrwt beam="1">  1       21 0.88785762E-03 0.30000000E+03</pdfrwt>
<pdfrwt beam="2">0</pdfrwt>
<totfact> 0.48785134E+05</totfact>
</mgrwt>
</event>
<event>
 6    1  0.1132867E-002  0.3000000E+03  0.7818608E-02  0.1093470E+00
         21   -1    0    0  501  502  0.00000000000E+00  0.00000000000E+00  0.47154403056E+00  0.47154403056E+00  0.00000000000E+00 0. -1.
         13   -1    0    0    0    0 -0.00000000000E+00 -0.00000000000E+00 -0.10000000000E+04  0.10000000000E+04  0.00000000000E+00 0.  1.
    9000005    2    1    2  501    0 -0.19026046502E+01 -0.15872315783E+02 -0.77914042880E+03  0.77950450388E+03  0.17661072094E+02 0.  0.
         13    1    3    3    0    0  0.34904035546E+00 -0.19520911246E+02 -0.62994917969E+03  0.63025166148E+03  0.00000000000E+00 0.  1.
          3    1    3    3  501    0 -0.22516450056E+01  0.36485954626E+01 -0.14919124911E+03  0.14925284240E+03  0.00000000000E+00 0.  1.
         -3    1    1    2    0  502  0.19026046502E+01  0.15872315783E+02 -0.22038802717E+03  0.22096704015E+03  0.00000000000E+00 0. -1.
<mgrwt>
<rscale>  1 0.30000000E+03</rscale>
<asrwt>0</asrwt>
<pdfrwt beam="1">  1       21 0.17147092E-02 0.30000000E+03</pdfrwt>
<pdfrwt beam="2">0</pdfrwt>
<totfact> 0.17022896E+05</totfact>
</mgrwt>
</event>
<event>
 6    1  0.1132867E-002  0.3000000E+03  0.7818608E-02  0.1093470E+00
         21   -1    0    0  501  502  0.00000000000E+00  0.00000000000E+00  0.14073136293E+00  0.14073136293E+00  0.00000000000E+00 0. -1.
         13   -1    0    0    0    0 -0.00000000000E+00 -0.00000000000E+00 -0.10000000000E+04  0.10000000000E+04  0.00000000000E+00 0.  1.
    9000005    2    1    2  501    0  0.82236146066E+01  0.65254146794E+01 -0.49569652690E+03  0.49586870256E+03  0.77791083724E+01 0.  0.
         13    1    3    3    0    0 -0.67196021902E+00 -0.11066412130E+01 -0.37709938931E+02  0.37732157101E+02  0.00000000000E+00 0.  1.
          1    1    3    3  501    0  0.88955748257E+01  0.76320558924E+01 -0.45798658797E+03  0.45813654546E+03  0.00000000000E+00 0.  1.
         -1    1    1    2    0  502 -0.82236146066E+01 -0.65254146794E+01 -0.50416274174E+03  0.50427202880E+03  0.00000000000E+00 0. -1.
<mgrwt>
<rscale>  1 0.30000000E+03</rscale>
<asrwt>0</asrwt>
<pdfrwt beam="1">  1       21 0.51175149E-03 0.30000000E+03</pdfrwt>
<pdfrwt beam="2">0</pdfrwt>
<totfact> 0.11565578E+06</totfact>
</mgrwt>
</event>
<event>
 6    1  0.1132867E-002  0.3000000E+03  0.7818608E-02  0.1093470E+00
         21   -1    0    0  501  502  0.00000000000E+00  0.00000000000E+00  0.69754041064E+00  0.69754041064E+00  0.00000000000E+00 0. -1.
         13   -1    0    0    0    0 -0.00000000000E+00 -0.00000000000E+00 -0.10000000000E+04  0.10000000000E+04  0.00000000000E+00 0.  1.
    9000005    2    1    2  501    0  0.10639298916E+02 -0.12499941599E+02 -0.88986206320E+03  0.89003298609E+03  0.58975912103E+01 0.  0.
         13    1    3    3    0    0 -0.44475101348E+00  0.20702742479E+00 -0.13919102809E+02  0.13927745217E+02  0.00000000000E+00 0.  1.
          1    1    3    3  501    0  0.11084049929E+02 -0.12706969024E+02 -0.87594296039E+03  0.87610524087E+03  0.00000000000E+00 0.  1.
         -3    1    1    2    0  502 -0.10639298916E+02  0.12499941599E+02 -0.10944039639E+03  0.11066455432E+03  0.00000000000E+00 0. -1.
<mgrwt>
<rscale>  1 0.30000000E+03</rscale>
<asrwt>0</asrwt>
<pdfrwt beam="1">  1       21 0.25365159E-02 0.30000000E+03</pdfrwt>
<pdfrwt beam="2">0</pdfrwt>
<totfact> 0.89800022E+04</totfact>
</mgrwt>
</event>
<event>
 6    1  0.1132867E-002  0.3000000E+03  0.7818608E-02  0.1093470E+00
         21   -1    0    0  501  502  0.00000000000E+00  0.00000000000E+00  0.25361263520E+01  0.25361263520E+01  0.00000000000E+00 0. -1.
         13   -1    0    0    0    0 -0.00000000000E+00 -0.00000000000E+00 -0.10000000000E+04  0.10000000000E+04  0.00000000000E+00 0.  1.
    9000005    2    1    2  501    0 -0.18451111238E+02  0.12167373814E+02 -0.94837373253E+03  0.94869998193E+03  0.11420624558E+02 0.  0.
         13    1    3    3    0    0 -0.12204504766E+02  0.67642711729E+01 -0.36316115018E+03  0.36342912142E+03  0.00000000000E+00 0.  1.
          3    1    3    3  501    0 -0.62466064721E+01  0.54031026412E+01 -0.58521258236E+03  0.58527086051E+03  0.00000000000E+00 0.  1.
         -3    1    1    2    0  502  0.18451111238E+02 -0.12167373814E+02 -0.49090141115E+02  0.53836144421E+02  0.00000000000E+00 0. -1.
<mgrwt>
<rscale>  1 0.30000000E+03</rscale>
<asrwt>0</asrwt>
<pdfrwt beam="1">  1       21 0.92222971E-02 0.30000000E+03</pdfrwt>
<pdfrwt beam="2">0</pdfrwt>
<totfact> 0.99385329E+03</totfact>
</mgrwt>
</event>
<event>
 6    1  0.1132867E-002  0.3000000E+03  0.7818608E-02  0.1093470E+00
         21   -1    0    0  501  502  0.00000000000E+00  0.00000000000E+00  0.11727615606E+00  0.11727615606E+00  0.00000000000E+00 0. -1.
         13   -1    0    0    0    0 -0.00000000000E+00 -0.00000000000E+00 -0.10000000000E+04  0.10000000000E+04  0.00000000000E+00 0.  1.
    9000005    2    1    2  501    0  0.65478022518E+00 -0.91109239852E+01 -0.68119702929E+03  0.68130069945E+03  0.76034647676E+01 0.  0.
         13    1    3    3    0    0 -0.33659123437E+01 -0.53042163850E+01 -0.39760407138E+03  0.39765369564E+03  0.00000000000E+00 0.  1.
          1    1    3    3  501    0  0.40206925689E+01 -0.38067076003E+01 -0.28359295792E+03  0.28364700381E+03  0.00000000000E+00 0.  1.
         -1    1    1    2    0  502 -0.65478022518E+00  0.91109239852E+01 -0.31868569455E+03  0.31881657671E+03  0.00000000000E+00 0. -1.
<mgrwt>
<rscale>  1 0.30000000E+03</rscale>
<asrwt>0</asrwt>
<pdfrwt beam="1">  1       21 0.42645965E-03 0.30000000E+03</pdfrwt>
<pdfrwt beam="2">0</pdfrwt>
<totfact> 0.15340843E+06</totfact>
</mgrwt>
</event>
<event>
 6    1  0.1132867E-002  0.3000000E+03  0.7818608E-02  0.1093470E+00
         21   -1    0    0  501  502  0.00000000000E+00  0.00000000000E+00  0.63860546246E+00  0.63860546246E+00  0.00000000000E+00 0. -1.
         13   -1    0    0    0    0 -0.00000000000E+00 -0.00000000000E+00 -0.10000000000E+04  0.10000000000E+04  0.00000000000E+00 0.  1.
    9000005    2    1    2  501    0  0.58768546072E+01  0.12840412216E+02 -0.90311427879E+03  0.90336105977E+03  0.15696819780E+02 0.  0.
         13    1    3    3    0    0  0.26474243473E+01 -0.29609754784E+01 -0.90986987622E+02  0.91073641346E+02  0.00000000000E+00 0.  1.
          3    1    3    3  501    0  0.32294302600E+01  0.15801387694E+02 -0.81212729116E+03  0.81228741842E+03  0.00000000000E+00 0.  1.
         -3    1    1    2    0  502 -0.58768546072E+01 -0.12840412216E+02 -0.96247115752E+02  0.97277545695E+02  0.00000000000E+00 0. -1.
<mgrwt>
<rscale>  1 0.30000000E+03</rscale>
<asrwt>0</asrwt>
<pdfrwt beam="1">  1       21 0.23222066E-02 0.30000000E+03</pdfrwt>
<pdfrwt beam="2">0</pdfrwt>
<totfact> 0.10382072E+05</totfact>
</mgrwt>
</event>
<event>
 6    1  0.1132867E-002  0.3000000E+03  0.7818608E-02  0.1093470E+00
         21   -1    0    0  501  502  0.00000000000E+00  0.00000000000E+00  0.23600620405E+00  0.23600620405E+00  0.00000000000E+00 0. -1.
         13   -1    0    0    0    0 -0.00000000000E+00 -0.00000000000E+00 -0.10000000000E+04  0.10000000000E+04  0.00000000000E+00 0.  1.
    9000005    2    1    2  501    0 -0.11251311468E+02 -0.52052992827E+01 -0.50884379370E+03  0.50915930139E+03  0.12942204330E+02 0.  0.
         13    1    3    3    0    0 -0.11478474745E+02  0.86968953294E+00 -0.28369508600E+03  0.28392853601E+03  0.00000000000E+00 0.  1.
          3    1    3    3  501    0  0.22716327661E+00 -0.60749888157E+01 -0.22514870770E+03  0.22523076538E+03  0.00000000000E+00 0.  1.
         -3    1    1    2    0  502  0.11251311468E+02  0.52052992827E+01 -0.49092020009E+03  0.49107670481E+03  0.00000000000E+00 0. -1.
<mgrwt>
<rscale>  1 0.30000000E+03</rscale>
<asrwt>0</asrwt>
<pdfrwt beam="1">  1       21 0.85820619E-03 0.30000000E+03</pdfrwt>
<pdfrwt beam="2">0</pdfrwt>
<totfact> 0.51474024E+05</totfact>
</mgrwt>
</event>
<event>
 6    1  0.1132867E-002  0.3000000E+03  0.7818608E-02  0.1093470E+00
         21   -1    0    0  501  502  0.00000000000E+00  0.00000000000E+00  0.71988967934E+00  0.71988967934E+00  0.00000000000E+00 0. -1.
         13   -1    0    0    0    0 -0.00000000000E+00 -0.00000000000E+00 -0.10000000000E+04  0.10000000000E+04  0.00000000000E+00 0.  1.
    9000005    2    1    2  501    0 -0.21151665501E+02  0.43156321200E+01 -0.28334157130E+03  0.28445596536E+03  0.12912496468E+02 0.  0.
         13    1    3    3    0    0 -0.29036070366E+01  0.53606374669E+01 -0.10594132286E+03  0.10611659275E+03  0.00000000000E+00 0.  1.
          1    1    3    3  501    0 -0.18248058464E+02 -0.10450053469E+01 -0.17740024845E+03  0.17833937261E+03  0.00000000000E+00 0.  1.
         -3    1    1    2    0  502  0.21151665501E+02 -0.43156321200E+01 -0.71593853902E+03  0.71626392432E+03  0.00000000000E+00 0. -1.
<mgrwt>
<rscale>  1 0.30000000E+03</rscale>
<asrwt>0</asrwt>
<pdfrwt beam="1">  1       21 0.26177862E-02 0.30000000E+03</pdfrwt>
<pdfrwt beam="2">0</pdfrwt>
<totfact> 0.85251403E+04</totfact>
</mgrwt>
</event>
<event>
 6    1  0.1132867E-002  0.3000000E+03  0.7818608E-02  0.1093470E+00
         21   -1    0    0  501  502  0.00000000000E+00  0.00000000000E+00  0.15943866985E+00  0.15943866985E+00  0.00000000000E+00 0. -1.
         13   -1    0    0    0    0 -0.00000000000E+00 -0.00000000000E+00 -0.10000000000E+04  0.10000000000E+04  0.00000000000E+00 0.  1.
    9000005    2    1    2  501    0  0.61668191447E+01 -0.91781532474E+01 -0.49982259434E+03  0.50001922286E+03  0.86214420666E+01 0.  0.
         13    1    3    3    0    0  0.17704597914E+01 -0.61686030507E+01 -0.13005263011E+03  0.13021087815E+03  0.00000000000E+00 0.  1.
          1    1    3    3  501    0  0.43963593533E+01 -0.30095501966E+01 -0.36976996423E+03  0.36980834470E+03  0.00000000000E+00 0.  1.
         -3    1    1    2    0  502 -0.61668191447E+01  0.91781532474E+01 -0.50001796699E+03  0.50014021581E+03  0.00000000000E+00 0. -1.
<mgrwt>
<rscale>  1 0.30000000E+03</rscale>
<asrwt>0</asrwt>
<pdfrwt beam="1">  1       21 0.57977820E-03 0.30000000E+03</pdfrwt>
<pdfrwt beam="2">0</pdfrwt>
<totfact> 0.95242912E+05</totfact>
</mgrwt>
</event>
<event>
 6    1  0.1132867E-002  0.3000000E+03  0.7818608E-02  0.1093470E+00
         21   -1    0    0  501  502  0.00000000000E+00  0.00000000000E+00  0.31576476517E+00  0.31576476517E+00  0.00000000000E+00 0. -1.
         13   -1    0    0    0    0 -0.00000000000E+00 -0.00000000000E+00 -0.10000000000E+04  0.10000000000E+04  0.00000000000E+00 0.  1.
    9000005    2    1    2  501    0  0.62093417239E-01  0.13391599213E+02 -0.64202001901E+03  0.64240092804E+03  0.17604225158E+02 0.  0.
         13    1    3    3    0    0  0.47114427758E+01  0.14643659019E+02 -0.34604277328E+03  0.34638451955E+03  0.00000000000E+00 0.  1.
          1    1    3    3  501    0 -0.46493493585E+01 -0.12520598067E+01 -0.29597724573E+03  0.29601640849E+03  0.00000000000E+00 0.  1.
         -1    1    1    2    0  502 -0.62093417239E-01 -0.13391599213E+02 -0.35766421622E+03  0.35791483673E+03  0.00000000000E+00 0. -1.
<mgrwt>
<rscale>  1 0.30000000E+03</rscale>
<asrwt>0</asrwt>
<pdfrwt beam="1">  1       21 0.11482379E-02 0.30000000E+03</pdfrwt>
<pdfrwt beam="2">0</pdfrwt>
<totfact> 0.32430143E+05</totfact>
</mgrwt>
</event>
<event>
 6    1  0.1132867E-002  0.3000000E+03  0.7818608E-02  0.1093470E+00
         21   -1    0    0  501  502  0.00000000000E+00  0.00000000000E+00  0.27600672684E+00  0.27600672684E+00  0.00000000000E+00 0. -1.
         13   -1    0    0    0    0 -0.00000000000E+00 -0.00000000000E+00 -0.10000000000E+04  0.10000000000E+04  0.00000000000E+00 0.  1.
    9000005    2    1    2  501    0  0.89521497617E+01 -0.80052796796E+01 -0.77092829190E+03  0.77116533815E+03  0.14876895734E+02 0.  0.
         13    1    3    3    0    0 -0.37787090532E+01 -0.30016937030E+01 -0.12676043044E+03  0.12685225868E+03  0.00000000000E+00 0.  1.
          1    1    3    3  501    0  0.12730858815E+02 -0.50035859766E+01 -0.64416786146E+03  0.64431307947E+03  0.00000000000E+00 0.  1.
         -1    1    1    2    0  502 -0.89521497617E+01  0.80052796796E+01 -0.22879570137E+03  0.22911066857E+03  0.00000000000E+00 0. -1.
<mgrwt>
<rscale>  1 0.30000000E+03</rscale>
<asrwt>0</asrwt>
<pdfrwt beam="1">  1       21 0.10036629E-02 0.30000000E+03</pdfrwt>
<pdfrwt beam="2">0</pdfrwt>
<totfact> 0.40175503E+05</totfact>
</mgrwt>
</event>
<event>
 6    1  0.1132867E-002  0.3000000E+03  0.7818608E-02  0.1093470E+00
         21   -1    0    0  501  502  0.00000000000E+00  0.00000000000E+00  0.74848196390E+00  0.74848196390E+00  0.00000000000E+00 0. -1.
         13   -1    0    0    0    0 -0.00000000000E+00 -0.00000000000E+00 -0.10000000000E+04  0.10000000000E+04  0.00000000000E+00 0.  1.
    9000005    2    1    2  501    0 -0.55188652718E+01 -0.13901763558E+02 -0.89149440884E+03  0.89195826417E+03  0.24567196344E+02 0.  0.
         13    1    3    3    0    0  0.54801064590E+01 -0.12553193280E+02 -0.25516019979E+03  0.25552757539E+03  0.00000000000E+00 0.  1.
          3    1    3    3  501    0 -0.10998971731E+02 -0.13485702775E+01 -0.63633420905E+03  0.63643068878E+03  0.00000000000E+00 0.  1.
         -1    1    1    2    0  502  0.55188652718E+01  0.13901763558E+02 -0.10775710920E+03  0.10879021779E+03  0.00000000000E+00 0. -1.
<mgrwt>
<rscale>  1 0.30000000E+03</rscale>
<asrwt>0</asrwt>
<pdfrwt beam="1">  1       21 0.27217583E-02 0.30000000E+03</pdfrwt>
<pdfrwt beam="2">0</pdfrwt>
<totfact> 0.79939747E+04</totfact>
</mgrwt>
</event>
<event>
 6    1  0.1132867E-002  0.3000000E+03  0.7818608E-02  0.1093470E+00
         21   -1    0    0  501  502  0.00000000000E+00  0.00000000000E+00  0.60434680041E+00  0.60434680041E+00  0.00000000000E+00 0. -1.
         13   -1    0    0    0    0 -0.00000000000E+00 -0.00000000000E+00 -0.10000000000E+04  0.10000000000E+04  0.00000000000E+00 0.  1.
    9000005    2    1    2  501    0  0.32292718845E+01 -0.96598680339E+01 -0.93814069340E+03  0.93850836185E+03  0.24212463642E+02 0.  0.
         13    1    3    3    0    0  0.56660986724E+01  0.69554404215E+01 -0.24479847052E+03  0.24496280125E+03  0.00000000000E+00 0.  1.
          1    1    3    3  501    0 -0.24368267879E+01 -0.16615308455E+02 -0.69334222288E+03  0.69354556060E+03  0.00000000000E+00 0.  1.
         -3    1    1    2    0  502 -0.32292718845E+01  0.96598680339E+01 -0.61254959799E+02  0.62095984953E+02  0.00000000000E+00 0. -1.
<mgrwt>
<rscale>  1 0.30000000E+03</rscale>
<asrwt>0</asrwt>
<pdfrwt beam="1">  1       21 0.21976294E-02 0.30000000E+03</pdfrwt>
<pdfrwt beam="2">0</pdfrwt>
<totfact> 0.11364214E+05</totfact>
</mgrwt>
</event>
<event>
 6    1  0.1132867E-002  0.3000000E+03  0.7818608E-02  0.1093470E+00
         21   -1    0    0  501  502  0.00000000000E+00  0.00000000000E+00  0.35944998824E+00  0.35944998824E+00  0.00000000000E+00 0.  1.
         13   -1    0    0    0    0 -0.00000000000E+00 -0.00000000000E+00 -0.10000000000E+04  0.10000000000E+04  0.00000000000E+00 0.  1.
    9000005    2    1    2  501    0 -0.32876358548E-01  0.91149043357E+01 -0.66624983577E+03  0.66684415662E+03  0.26630865639E+02 0.  0.
         13    1    3    3    0    0 -0.14542953190E+01  0.19155393750E+01 -0.62088188301E+03  0.62088654110E+03  0.00000000000E+00 0.  1.
          3    1    3    3  501    0  0.14214189605E+01  0.71993649607E+01 -0.45367952757E+02  0.45957615528E+02  0.00000000000E+00 0.  1.
         -3    1    1    2    0  502  0.32876358548E-01 -0.91149043357E+01 -0.33339071425E+03  0.33351529336E+03  0.00000000000E+00 0. -1.
<mgrwt>
<rscale>  1 0.30000000E+03</rscale>
<asrwt>0</asrwt>
<pdfrwt beam="1">  1       21 0.13070936E-02 0.30000000E+03</pdfrwt>
<pdfrwt beam="2">0</pdfrwt>
<totfact> 0.26362412E+05</totfact>
</mgrwt>
</event>
<event>
 6    1  0.1132867E-002  0.3000000E+03  0.7818608E-02  0.1093470E+00
         21   -1    0    0  501  502  0.00000000000E+00  0.00000000000E+00  0.59225449066E+00  0.59225449066E+00  0.00000000000E+00 0. -1.
         13   -1    0    0    0    0 -0.00000000000E+00 -0.00000000000E+00 -0.10000000000E+04  0.10000000000E+04  0.00000000000E+00 0.  1.
    9000005    2    1    2  501    0  0.90763228446E+01 -0.35445558400E+01 -0.92919225633E+03  0.92970390261E+03  0.29260105628E+02 0.  0.
         13    1    3    3    0    0  0.20245964085E+01  0.61311415287E+01 -0.48228506918E+02  0.48658799477E+02  0.00000000000E+00 0.  1.
          1    1    3    3  501    0  0.70517264361E+01 -0.96756973687E+01 -0.88096374941E+03  0.88104510313E+03  0.00000000000E+00 0.  1.
         -1    1    1    2    0  502 -0.90763228446E+01  0.35445558400E+01 -0.70215489177E+02  0.70888351885E+02  0.00000000000E+00 0. -1.
<mgrwt>
<rscale>  1 0.30000000E+03</rscale>
<asrwt>0</asrwt>
<pdfrwt beam="1">  1       21 0.21536572E-02 0.30000000E+03</pdfrwt>
<pdfrwt beam="2">0</pdfrwt>
<totfact> 0.11746655E+05</totfact>
</mgrwt>
</event>
<event>
 6    1  0.1132867E-002  0.3000000E+03  0.7818608E-02  0.1093470E+00
         21   -1    0    0  501  502  0.00000000000E+00  0.00000000000E+00  0.46792562951E+00  0.46792562951E+00  0.00000000000E+00 0. -1.
         13   -1    0    0    0    0 -0.00000000000E+00 -0.00000000000E+00 -0.10000000000E+04  0.10000000000E+04  0.00000000000E+00 0.  1.
    9000005    2    1    2  501    0  0.10514455141E+02  0.98913660743E-01 -0.93410841195E+03  0.93420466918E+03  0.83231659034E+01 0.  0.
         13    1    3    3    0    0  0.27571762983E+01 -0.37740257646E+01 -0.37278338052E+03  0.37281267962E+03  0.00000000000E+00 0.  1.
          3    1    3    3  501    0  0.77572788427E+01  0.38729394254E+01 -0.56132503142E+03  0.56139198956E+03  0.00000000000E+00 0.  1.
         -1    1    1    2    0  502 -0.10514455141E+02 -0.98913660743E-01 -0.65423662424E+02  0.66263256453E+02  0.00000000000E+00 0. -1.
<mgrwt>
<rscale>  1 0.30000000E+03</rscale>
<asrwt>0</asrwt>
<pdfrwt beam="1">  1       21 0.17015513E-02 0.30000000E+03</pdfrwt>
<pdfrwt beam="2">0</pdfrwt>
<totfact> 0.17236771E+05</totfact>
</mgrwt>
</event>
<event>
 6    1  0.1132867E-002  0.3000000E+03  0.7818608E-02  0.1093470E+00
         21   -1    0    0  501  502  0.00000000000E+00  0.00000000000E+00  0.22225978551E+00  0.22225978551E+00  0.00000000000E+00 0. -1.
         13   -1    0    0    0    0 -0.00000000000E+00 -0.00000000000E+00 -0.10000000000E+04  0.10000000000E+04  0.00000000000E+00 0.  1.
    9000005    2    1    2  501    0  0.62964879944E+01  0.94381900856E+01 -0.81015043851E+03  0.81025584501E+03  0.64866133155E+01 0.  0.
         13    1    3    3    0    0  0.31016676780E+01  0.90824670317E+00 -0.11394936299E+03  0.11399518665E+03  0.00000000000E+00 0.  1.
          3    1    3    3  501    0  0.31948203164E+01  0.85299433824E+01 -0.69620107553E+03  0.69626065836E+03  0.00000000000E+00 0.  1.
         -1    1    1    2    0  502 -0.62964879944E+01 -0.94381900856E+01 -0.18962730170E+03  0.18996641478E+03  0.00000000000E+00 0. -1.
<mgrwt>
<rscale>  1 0.30000000E+03</rscale>
<asrwt>0</asrwt>
<pdfrwt beam="1">  1       21 0.80821911E-03 0.30000000E+03</pdfrwt>
<pdfrwt beam="2">0</pdfrwt>
<totfact> 0.56585983E+05</totfact>
</mgrwt>
</event>
<event>
 6    1  0.1132867E-002  0.3000000E+03  0.7818608E-02  0.1093470E+00
         21   -1    0    0  501  502  0.00000000000E+00  0.00000000000E+00  0.10832255523E+00  0.10832255523E+00  0.00000000000E+00 0. -1.
         13   -1    0    0    0    0 -0.00000000000E+00 -0.00000000000E+00 -0.10000000000E+04  0.10000000000E+04  0.00000000000E+00 0.  1.
    9000005    2    1    2  501    0  0.65260956697E+01  0.50848663041E+01 -0.68554257463E+03  0.68565036952E+03  0.89085237394E+01 0.  0.
         13    1    3    3    0    0  0.60622894294E+01  0.29335396778E+01 -0.65242168913E+03  0.65245644870E+03  0.00000000000E+00 0.  1.
          1    1    3    3  501    0  0.46380624029E+00  0.21513266262E+01 -0.33120885506E+02  0.33193920817E+02  0.00000000000E+00 0.  1.
         -3    1    1    2    0  502 -0.65260956697E+01 -0.50848663041E+01 -0.31434910281E+03  0.31445795304E+03  0.00000000000E+00 0. -1.
<mgrwt>
<rscale>  1 0.30000000E+03</rscale>
<asrwt>0</asrwt>
<pdfrwt beam="1">  1       21 0.39390103E-03 0.30000000E+03</pdfrwt>
<pdfrwt beam="2">0</pdfrwt>
<totfact> 0.17341470E+06</totfact>
</mgrwt>
</event>
<event>
 6    1  0.1132867E-002  0.3000000E+03  0.7818608E-02  0.1093470E+00
         21   -1    0    0  501  502  0.00000000000E+00  0.00000000000E+00  0.26738545962E+00  0.26738545962E+00  0.00000000000E+00 0. -1.
         13   -1    0    0    0    0 -0.00000000000E+00 -0.00000000000E+00 -0.10000000000E+04  0.10000000000E+04  0.00000000000E+00 0.  1.
    9000005    2    1    2  501    0 -0.20116113229E+01 -0.11026439683E+02 -0.82147443530E+03  0.82165717461E+03  0.13214983584E+02 0.  0.
         13    1    3    3    0    0  0.28309831194E+01 -0.72328455995E+01 -0.68514091914E+03  0.68518494409E+03  0.00000000000E+00 0.  1.
          3    1    3    3  501    0 -0.48425944422E+01 -0.37935940837E+01 -0.13633351616E+03  0.13647223053E+03  0.00000000000E+00 0.  1.
         -1    1    1    2    0  502  0.20116113229E+01  0.11026439683E+02 -0.17825817924E+03  0.17861021085E+03  0.00000000000E+00 0. -1.
<mgrwt>
<rscale>  1 0.30000000E+03</rscale>
<asrwt>0</asrwt>
<pdfrwt beam="1">  1       21 0.97231281E-03 0.30000000E+03</pdfrwt>
<pdfrwt beam="2">0</pdfrwt>
<totfact> 0.42250222E+05</totfact>
</mgrwt>
</event>
<event>
 6    1  0.1132867E-002  0.3000000E+03  0.7818608E-02  0.1093470E+00
         21   -1    0    0  501  502  0.00000000000E+00  0.00000000000E+00  0.32683085349E+00  0.32683085349E+00  0.00000000000E+00 0.  1.
         13   -1    0    0    0    0 -0.00000000000E+00 -0.00000000000E+00 -0.10000000000E+04  0.10000000000E+04  0.00000000000E+00 0.  1.
    9000005    2    1    2  501    0 -0.96893204715E-01 -0.94743464940E+01 -0.83849545993E+03  0.83887087222E+03  0.23236421996E+02 0.  0.
         13    1    3    3    0    0  0.10074680028E+02 -0.47632848225E+00 -0.22608989032E+03  0.22631474669E+03  0.00000000000E+00 0.  1.
          1    1    3    3  501    0 -0.10171573233E+02 -0.89980180117E+01 -0.61240556961E+03  0.61255612553E+03  0.00000000000E+00 0.  1.
         -3    1    1    2    0  502  0.96893204715E-01  0.94743464940E+01 -0.16117770922E+03  0.16145595864E+03  0.00000000000E+00 0. -1.
<mgrwt>
<rscale>  1 0.30000000E+03</rscale>
<asrwt>0</asrwt>
<pdfrwt beam="1">  1       21 0.11884783E-02 0.30000000E+03</pdfrwt>
<pdfrwt beam="2">0</pdfrwt>
<totfact> 0.30696057E+05</totfact>
</mgrwt>
</event>
<event>
 6    1  0.1132867E-002  0.3000000E+03  0.7818608E-02  0.1093470E+00
         21   -1    0    0  501  502  0.00000000000E+00  0.00000000000E+00  0.16146347779E+00  0.16146347779E+00  0.00000000000E+00 0. -1.
         13   -1    0    0    0    0 -0.00000000000E+00 -0.00000000000E+00 -0.10000000000E+04  0.10000000000E+04  0.00000000000E+00 0.  1.
    9000005    2    1    2  501    0 -0.75152704277E+01  0.90462941306E+01 -0.60414553395E+03  0.60429372419E+03  0.63846826228E+01 0.  0.
         13    1    3    3    0    0 -0.77933123953E+01  0.69149225038E+01 -0.39580989247E+03  0.39594699500E+03  0.00000000000E+00 0.  1.
          3    1    3    3  501    0  0.27804196761E+00  0.21313716268E+01 -0.20833564148E+03  0.20834672919E+03  0.00000000000E+00 0.  1.
         -3    1    1    2    0  502  0.75152704277E+01 -0.90462941306E+01 -0.39569300257E+03  0.39586773929E+03  0.00000000000E+00 0. -1.
<mgrwt>
<rscale>  1 0.30000000E+03</rscale>
<asrwt>0</asrwt>
<pdfrwt beam="1">  1       21 0.58714116E-03 0.30000000E+03</pdfrwt>
<pdfrwt beam="2">0</pdfrwt>
<totfact> 0.93387251E+05</totfact>
</mgrwt>
</event>
<event>
 6    1  0.1132867E-002  0.3000000E+03  0.7818608E-02  0.1093470E+00
         21   -1    0    0  501  502  0.00000000000E+00  0.00000000000E+00  0.70374301978E+00  0.70374301978E+00  0.00000000000E+00 0. -1.
         13   -1    0    0    0    0 -0.00000000000E+00 -0.00000000000E+00 -0.10000000000E+04  0.10000000000E+04  0.00000000000E+00 0.  1.
    9000005    2    1    2  501    0 -0.32471077491E+01 -0.12553791280E+02 -0.85337645883E+03  0.85420893465E+03  0.35403138040E+02 0.  0.
         13    1    3    3    0    0  0.12208392391E+02 -0.89886595847E+01 -0.17746329336E+03  0.17810968905E+03  0.00000000000E+00 0.  1.
          3    1    3    3  501    0 -0.15455500140E+02 -0.35651316958E+01 -0.67591316547E+03  0.67609924560E+03  0.00000000000E+00 0.  1.
         -1    1    1    2    0  502  0.32471077491E+01  0.12553791280E+02 -0.14591979816E+03  0.14649480836E+03  0.00000000000E+00 0. -1.
<mgrwt>
<rscale>  1 0.30000000E+03</rscale>
<asrwt>0</asrwt>
<pdfrwt beam="1">  1       21 0.25590709E-02 0.30000000E+03</pdfrwt>
<pdfrwt beam="2">0</pdfrwt>
<totfact> 0.88500031E+04</totfact>
</mgrwt>
</event>
<event>
 6    1  0.1132867E-002  0.3000000E+03  0.7818608E-02  0.1093470E+00
         21   -1    0    0  501  502  0.00000000000E+00  0.00000000000E+00  0.21116167433E+00  0.21116167433E+00  0.00000000000E+00 0.  1.
         13   -1    0    0    0    0 -0.00000000000E+00 -0.00000000000E+00 -0.10000000000E+04  0.10000000000E+04  0.00000000000E+00 0.  1.
    9000005    2    1    2  501    0  0.87888852028E+01 -0.94338406979E+00 -0.83291405943E+03  0.83310243567E+03  0.15352636256E+02 0.  0.
         13    1    3    3    0    0 -0.37558341436E+01 -0.32420301922E+01 -0.23098196734E+03  0.23103524901E+03  0.00000000000E+00 0.  1.
          3    1    3    3  501    0  0.12544719346E+02  0.22986461224E+01 -0.60193209209E+03  0.60206718665E+03  0.00000000000E+00 0.  1.
         -1    1    1    2    0  502 -0.87888852028E+01  0.94338406979E+00 -0.16687477889E+03  0.16710872601E+03  0.00000000000E+00 0. -1.
<mgrwt>
<rscale>  1 0.30000000E+03</rscale>
<asrwt>0</asrwt>
<pdfrwt beam="1">  1       21 0.76786225E-03 0.30000000E+03</pdfrwt>
<pdfrwt beam="2">0</pdfrwt>
<totfact> 0.61340323E+05</totfact>
</mgrwt>
</event>
<event>
 6    1  0.1132867E-002  0.3000000E+03  0.7818608E-02  0.1093470E+00
         21   -1    0    0  501  502  0.00000000000E+00  0.00000000000E+00  0.30458952673E+00  0.30458952673E+00  0.00000000000E+00 0. -1.
         13   -1    0    0    0    0 -0.00000000000E+00 -0.00000000000E+00 -0.10000000000E+04  0.10000000000E+04  0.00000000000E+00 0.  1.
    9000005    2    1    2  501    0  0.46048717123E+01 -0.93548461313E+01 -0.85068355134E+03  0.85092837940E+03  0.17546633790E+02 0.  0.
         13    1    3    3    0    0 -0.61669008904E+00 -0.98696131293E+01 -0.21911442334E+03  0.21933745710E+03  0.00000000000E+00 0.  1.
          1    1    3    3  501    0  0.52215618013E+01  0.51476699807E+00 -0.63156912800E+03  0.63159092230E+03  0.00000000000E+00 0.  1.
         -3    1    1    2    0  502 -0.46048717123E+01  0.93548461313E+01 -0.14901185913E+03  0.14937621012E+03  0.00000000000E+00 0. -1.
<mgrwt>
<rscale>  1 0.30000000E+03</rscale>
<asrwt>0</asrwt>
<pdfrwt beam="1">  1       21 0.11076006E-02 0.30000000E+03</pdfrwt>
<pdfrwt beam="2">0</pdfrwt>
<totfact> 0.34346774E+05</totfact>
</mgrwt>
</event>
<event>
 6    1  0.1132867E-002  0.3000000E+03  0.7818608E-02  0.1093470E+00
         21   -1    0    0  501  502  0.00000000000E+00  0.00000000000E+00  0.94014896181E+00  0.94014896181E+00  0.00000000000E+00 0. -1.
         13   -1    0    0    0    0 -0.00000000000E+00 -0.00000000000E+00 -0.10000000000E+04  0.10000000000E+04  0.00000000000E+00 0.  1.
    9000005    2    1    2  501    0 -0.15320576701E+02 -0.20856203371E+01 -0.77772296438E+03  0.77906386073E+03  0.42993254048E+02 0.  0.
         13    1    3    3    0    0 -0.16655848091E+02  0.72398456830E+01 -0.73857885920E+03  0.73880211417E+03  0.00000000000E+00 0.  1.
          3    1    3    3  501    0  0.13352713900E+01 -0.93254660201E+01 -0.39144105184E+02  0.40261746569E+02  0.00000000000E+00 0.  1.
         -1    1    1    2    0  502  0.15320576701E+02  0.20856203371E+01 -0.22133688666E+03  0.22187628823E+03  0.00000000000E+00 0. -1.
<mgrwt>
<rscale>  1 0.30000000E+03</rscale>
<asrwt>0</asrwt>
<pdfrwt beam="1">  1       21 0.34187307E-02 0.30000000E+03</pdfrwt>
<pdfrwt beam="2">0</pdfrwt>
<totfact> 0.54726177E+04</totfact>
</mgrwt>
</event>
<event>
 6    1  0.1132867E-002  0.3000000E+03  0.7818608E-02  0.1093470E+00
         21   -1    0    0  501  502  0.00000000000E+00  0.00000000000E+00  0.34911322804E+00  0.34911322804E+00  0.00000000000E+00 0. -1.
         13   -1    0    0    0    0 -0.00000000000E+00 -0.00000000000E+00 -0.10000000000E+04  0.10000000000E+04  0.00000000000E+00 0.  1.
    9000005    2    1    2  501    0  0.67930933131E+01 -0.88532508146E+01 -0.89869360245E+03  0.89877697421E+03  0.50331025556E+01 0.  0.
         13    1    3    3    0    0  0.72444967380E+01 -0.69620903664E+01 -0.80842075666E+03  0.80848319292E+03  0.00000000000E+00 0.  1.
          3    1    3    3  501    0 -0.45140342492E+00 -0.18911604483E+01 -0.90272845786E+02  0.90293781288E+02  0.00000000000E+00 0.  1.
         -1    1    1    2    0  502 -0.67930933131E+01  0.88532508146E+01 -0.10095728432E+03  0.10157213902E+03  0.00000000000E+00 0. -1.
<mgrwt>
<rscale>  1 0.30000000E+03</rscale>
<asrwt>0</asrwt>
<pdfrwt beam="1">  1       21 0.12695053E-02 0.30000000E+03</pdfrwt>
<pdfrwt beam="2">0</pdfrwt>
<totfact> 0.27624297E+05</totfact>
</mgrwt>
</event>
<event>
 6    1  0.1132867E-002  0.3000000E+03  0.7818608E-02  0.1093470E+00
         21   -1    0    0  501  502  0.00000000000E+00  0.00000000000E+00  0.57004112553E+00  0.57004112553E+00  0.00000000000E+00 0. -1.
         13   -1    0    0    0    0 -0.00000000000E+00 -0.00000000000E+00 -0.10000000000E+04  0.10000000000E+04  0.00000000000E+00 0.  1.
    9000005    2    1    2  501    0  0.68987623036E+01 -0.16782400143E+02 -0.81848558800E+03  0.81871815847E+03  0.71779775247E+01 0.  0.
         13    1    3    3    0    0  0.69568792285E+01 -0.17022706682E+02 -0.81731000225E+03  0.81751685640E+03  0.00000000000E+00 0.  1.
          1    1    3    3  501    0 -0.58116924926E-01  0.24030653909E+00 -0.11755857502E+01  0.12013020710E+01  0.00000000000E+00 0.  1.
         -3    1    1    2    0  502 -0.68987623036E+01  0.16782400143E+02 -0.18094437087E+03  0.18185188266E+03  0.00000000000E+00 0. -1.
<mgrwt>
<rscale>  1 0.30000000E+03</rscale>
<asrwt>0</asrwt>
<pdfrwt beam="1">  1       21 0.20728812E-02 0.30000000E+03</pdfrwt>
<pdfrwt beam="2">0</pdfrwt>
<totfact> 0.12504267E+05</totfact>
</mgrwt>
</event>
<event>
 6    1  0.1132867E-002  0.3000000E+03  0.7818608E-02  0.1093470E+00
         21   -1    0    0  501  502  0.00000000000E+00  0.00000000000E+00  0.63353399658E-01  0.63353399658E-01  0.00000000000E+00 0. -1.
         13   -1    0    0    0    0 -0.00000000000E+00 -0.00000000000E+00 -0.10000000000E+04  0.10000000000E+04  0.00000000000E+00 0.  1.
    9000005    2    1    2  501    0 -0.76495995262E+01  0.65580671723E-01 -0.53618434706E+03  0.53624796340E+03  0.31150509242E+01 0.  0.
         13    1    3    3    0    0 -0.40616651712E+01  0.10922217618E+01 -0.35688081098E+03  0.35690559441E+03  0.00000000000E+00 0.  1.
          3    1    3    3  501    0 -0.35879343550E+01 -0.10266410901E+01 -0.17930353608E+03  0.17934236899E+03  0.00000000000E+00 0.  1.
         -1    1    1    2    0  502  0.76495995262E+01 -0.65580671723E-01 -0.46375229954E+03  0.46381539000E+03  0.00000000000E+00 0. -1.
<mgrwt>
<rscale>  1 0.30000000E+03</rscale>
<asrwt>0</asrwt>
<pdfrwt beam="1">  1       21 0.23037648E-03 0.30000000E+03</pdfrwt>
<pdfrwt beam="2">0</pdfrwt>
<totfact> 0.39424429E+06</totfact>
</mgrwt>
</event>
<event>
 6    1  0.1132867E-002  0.3000000E+03  0.7818608E-02  0.1093470E+00
         21   -1    0    0  501  502  0.00000000000E+00  0.00000000000E+00  0.17519471436E+00  0.17519471436E+00  0.00000000000E+00 0. -1.
         13   -1    0    0    0    0 -0.00000000000E+00 -0.00000000000E+00 -0.10000000000E+04  0.10000000000E+04  0.00000000000E+00 0.  1.
    9000005    2    1    2  501    0 -0.18782849499E+01 -0.98013540712E+01 -0.79496829936E+03  0.79507574928E+03  0.84413041293E+01 0.  0.
         13    1    3    3    0    0 -0.28790882168E+01 -0.76183543166E+01 -0.74937061427E+03  0.74941486908E+03  0.00000000000E+00 0.  1.
          3    1    3    3  501    0  0.10008032669E+01 -0.21829997546E+01 -0.45597685089E+02  0.45660880200E+02  0.00000000000E+00 0.  1.
         -1    1    1    2    0  502  0.18782849499E+01  0.98013540712E+01 -0.20485650593E+03  0.20509944543E+03  0.00000000000E+00 0. -1.
<mgrwt>
<rscale>  1 0.30000000E+03</rscale>
<asrwt>0</asrwt>
<pdfrwt beam="1">  1       21 0.63707303E-03 0.30000000E+03</pdfrwt>
<pdfrwt beam="2">0</pdfrwt>
<totfact> 0.82207980E+05</totfact>
</mgrwt>
</event>
<event>
 6    1  0.1132867E-002  0.3000000E+03  0.7818608E-02  0.1093470E+00
         21   -1    0    0  501  502  0.00000000000E+00  0.00000000000E+00  0.39343282478E+00  0.39343282478E+00  0.00000000000E+00 0. -1.
         13   -1    0    0    0    0 -0.00000000000E+00 -0.00000000000E+00 -0.10000000000E+04  0.10000000000E+04  0.00000000000E+00 0.  1.
    9000005    2    1    2  501    0  0.11015204481E+02  0.27412312873E+01 -0.90583167940E+03  0.90593403066E+03  0.75224621871E+01 0.  0.
         13    1    3    3    0    0  0.62552633616E+01  0.26297978845E+01 -0.74745324009E+03  0.74748404015E+03  0.00000000000E+00 0.  1.
          1    1    3    3  501    0  0.47599411198E+01  0.11143340281E+00 -0.15837843930E+03  0.15844999051E+03  0.00000000000E+00 0.  1.
         -1    1    1    2    0  502 -0.11015204481E+02 -0.27412312873E+01 -0.93774887779E+02  0.94459402162E+02  0.00000000000E+00 0. -1.
<mgrwt>
<rscale>  1 0.30000000E+03</rscale>
<asrwt>0</asrwt>
<pdfrwt beam="1">  1       21 0.14306678E-02 0.30000000E+03</pdfrwt>
<pdfrwt beam="2">0</pdfrwt>
<totfact> 0.22802351E+05</totfact>
</mgrwt>
</event>
<event>
 6    1  0.1132867E-002  0.3000000E+03  0.7818608E-02  0.1093470E+00
         21   -1    0    0  501  502  0.00000000000E+00  0.00000000000E+00  0.74648209527E+00  0.74648209527E+00  0.00000000000E+00 0.  1.
         13   -1    0    0    0    0 -0.00000000000E+00 -0.00000000000E+00 -0.10000000000E+04  0.10000000000E+04  0.00000000000E+00 0.  1.
    9000005    2    1    2  501    0  0.87538776664E+01  0.47932343889E+01 -0.95177464610E+03  0.95223000306E+03  0.27701918691E+02 0.  0.
         13    1    3    3    0    0  0.63209729068E+01  0.15019772280E+02 -0.75410229892E+03  0.75427834749E+03  0.00000000000E+00 0.  1.
          3    1    3    3  501    0  0.24329047596E+01 -0.10226537891E+02 -0.19767234718E+03  0.19795165557E+03  0.00000000000E+00 0.  1.
         -1    1    1    2    0  502 -0.87538776664E+01 -0.47932343889E+01 -0.47478871802E+02  0.48516479033E+02  0.00000000000E+00 0. -1.
<mgrwt>
<rscale>  1 0.30000000E+03</rscale>
<asrwt>0</asrwt>
<pdfrwt beam="1">  1       21 0.27144861E-02 0.30000000E+03</pdfrwt>
<pdfrwt beam="2">0</pdfrwt>
<totfact> 0.80294203E+04</totfact>
</mgrwt>
</event>
<event>
 6    1  0.1132867E-002  0.3000000E+03  0.7818608E-02  0.1093470E+00
         21   -1    0    0  501  502  0.00000000000E+00  0.00000000000E+00  0.51215588574E+00  0.51215588574E+00  0.00000000000E+00 0. -1.
         13   -1    0    0    0    0 -0.00000000000E+00 -0.00000000000E+00 -0.10000000000E+04  0.10000000000E+04  0.00000000000E+00 0.  1.
    9000005    2    1    2  501    0 -0.12963374920E+02  0.13802185963E+02 -0.76796276186E+03  0.76821404323E+03  0.52405341718E+01 0.  0.
         13    1    3    3    0    0 -0.26232483324E+01  0.10498342786E+01 -0.17975574152E+03  0.17977794690E+03  0.00000000000E+00 0.  1.
          3    1    3    3  501    0 -0.10340126588E+02  0.12752351684E+02 -0.58820702034E+03  0.58843609633E+03  0.00000000000E+00 0.  1.
         -3    1    1    2    0  502  0.12963374920E+02 -0.13802185963E+02 -0.23152508226E+03  0.23229811265E+03  0.00000000000E+00 0. -1.
<mgrwt>
<rscale>  1 0.30000000E+03</rscale>
<asrwt>0</asrwt>
<pdfrwt beam="1">  1       21 0.18623890E-02 0.30000000E+03</pdfrwt>
<pdfrwt beam="2">0</pdfrwt>
<totfact> 0.14886886E+05</totfact>
</mgrwt>
</event>
<event>
 6    1  0.1132867E-002  0.3000000E+03  0.7818608E-02  0.1093470E+00
         21   -1    0    0  501  502  0.00000000000E+00  0.00000000000E+00  0.82361385139E+00  0.82361385139E+00  0.00000000000E+00 0. -1.
         13   -1    0    0    0    0 -0.00000000000E+00 -0.00000000000E+00 -0.10000000000E+04  0.10000000000E+04  0.00000000000E+00 0.  1.
    9000005    2    1    2  501    0 -0.91240311532E+01  0.25419166930E+02 -0.43327840021E+03  0.43428154791E+03  0.11870500183E+02 0.  0.
         13    1    3    3    0    0 -0.50339071964E+01  0.21928498208E+02 -0.27757701995E+03  0.27848734488E+03  0.00000000000E+00 0.  1.
          1    1    3    3  501    0 -0.40901239568E+01  0.34906687216E+01 -0.15570138026E+03  0.15579420303E+03  0.00000000000E+00 0.  1.
         -3    1    1    2    0  502  0.91240311532E+01 -0.25419166930E+02 -0.56589798594E+03  0.56654206595E+03  0.00000000000E+00 0. -1.
<mgrwt>
<rscale>  1 0.30000000E+03</rscale>
<asrwt>0</asrwt>
<pdfrwt beam="1">  1       21 0.29949658E-02 0.30000000E+03</pdfrwt>
<pdfrwt beam="2">0</pdfrwt>
<totfact> 0.68220152E+04</totfact>
</mgrwt>
</event>
<event>
 6    1  0.1132867E-002  0.3000000E+03  0.7818608E-02  0.1093470E+00
         21   -1    0    0  501  502  0.00000000000E+00  0.00000000000E+00  0.11565846122E+00  0.11565846122E+00  0.00000000000E+00 0. -1.
         13   -1    0    0    0    0 -0.00000000000E+00 -0.00000000000E+00 -0.10000000000E+04  0.10000000000E+04  0.00000000000E+00 0.  1.
    9000005    2    1    2  501    0 -0.69724159262E+01  0.40822872222E+01 -0.57610805852E+03  0.57626236108E+03  0.10608206800E+02 0.  0.
         13    1    3    3    0    0 -0.85605881444E+01  0.43736061050E+01 -0.55790903974E+03  0.55799185363E+03  0.00000000000E+00 0.  1.
          1    1    3    3  501    0  0.15881722181E+01 -0.29131888276E+00 -0.18199018787E+02  0.18270507450E+02  0.00000000000E+00 0.  1.
         -3    1    1    2    0  502  0.69724159262E+01 -0.40822872222E+01 -0.42377628302E+03  0.42385329738E+03  0.00000000000E+00 0. -1.
<mgrwt>
<rscale>  1 0.30000000E+03</rscale>
<asrwt>0</asrwt>
<pdfrwt beam="1">  1       21 0.42057711E-03 0.30000000E+03</pdfrwt>
<pdfrwt beam="2">0</pdfrwt>
<totfact> 0.15673519E+06</totfact>
</mgrwt>
</event>
<event>
 6    1  0.1132867E-002  0.3000000E+03  0.7818608E-02  0.1093470E+00
         21   -1    0    0  501  502  0.00000000000E+00  0.00000000000E+00  0.68847884082E+00  0.68847884082E+00  0.00000000000E+00 0. -1.
         13   -1    0    0    0    0 -0.00000000000E+00 -0.00000000000E+00 -0.10000000000E+04  0.10000000000E+04  0.00000000000E+00 0.  1.
    9000005    2    1    2  501    0  0.76503170592E+01  0.86605930873E+01 -0.91116474941E+03  0.91178748563E+03  0.31649410165E+02 0.  0.
         13    1    3    3    0    0  0.21765043646E+01  0.13534847815E+02 -0.15978559961E+03  0.16037258843E+03  0.00000000000E+00 0.  1.
          3    1    3    3  501    0  0.54738126945E+01 -0.48742547277E+01 -0.75137914980E+03  0.75141489720E+03  0.00000000000E+00 0.  1.
         -1    1    1    2    0  502 -0.76503170592E+01 -0.86605930873E+01 -0.88146771747E+02  0.88900993207E+02  0.00000000000E+00 0. -1.
<mgrwt>
<rscale>  1 0.30000000E+03</rscale>
<asrwt>0</asrwt>
<pdfrwt beam="1">  1       21 0.25035647E-02 0.30000000E+03</pdfrwt>
<pdfrwt beam="2">0</pdfrwt>
<totfact> 0.91754050E+04</totfact>
</mgrwt>
</event>
<event>
 6    1  0.1132867E-002  0.3000000E+03  0.7818608E-02  0.1093470E+00
         21   -1    0    0  501  502  0.00000000000E+00  0.00000000000E+00  0.10798953486E+00  0.10798953486E+00  0.00000000000E+00 0. -1.
         13   -1    0    0    0    0 -0.00000000000E+00 -0.00000000000E+00 -0.10000000000E+04  0.10000000000E+04  0.00000000000E+00 0.  1.
    9000005    2    1    2  501    0  0.75600666726E+01  0.41188712678E+01 -0.66087311851E+03  0.66097980019E+03  0.81791060665E+01 0.  0.
         13    1    3    3    0    0  0.14946324963E+01  0.14964992437E+01 -0.31021474854E+02  0.31093493506E+02  0.00000000000E+00 0.  1.
          1    1    3    3  501    0  0.60654341763E+01  0.26223720241E+01 -0.62985164366E+03  0.62988630668E+03  0.00000000000E+00 0.  1.
         -1    1    1    2    0  502 -0.75600666726E+01 -0.41188712678E+01 -0.33901889195E+03  0.33912818935E+03  0.00000000000E+00 0. -1.
<mgrwt>
<rscale>  1 0.30000000E+03</rscale>
<asrwt>0</asrwt>
<pdfrwt beam="1">  1       21 0.39269005E-03 0.30000000E+03</pdfrwt>
<pdfrwt beam="2">0</pdfrwt>
<totfact> 0.17424021E+06</totfact>
</mgrwt>
</event>
<event>
 6    1  0.1132867E-002  0.3000000E+03  0.7818608E-02  0.1093470E+00
         21   -1    0    0  501  502  0.00000000000E+00  0.00000000000E+00  0.39063022378E+00  0.39063022378E+00  0.00000000000E+00 0. -1.
         13   -1    0    0    0    0 -0.00000000000E+00 -0.00000000000E+00 -0.10000000000E+04  0.10000000000E+04  0.00000000000E+00 0.  1.
    9000005    2    1    2  501    0  0.17606782449E+02 -0.37030689853E+01 -0.70186902610E+03  0.70210716812E+03  0.32610164597E+01 0.  0.
         13    1    3    3    0    0  0.11914245315E+02 -0.11051027868E+01 -0.43258471422E+03  0.43275016519E+03  0.00000000000E+00 0.  1.
          1    1    3    3  501    0  0.56925371342E+01 -0.25979661985E+01 -0.26928431188E+03  0.26935700294E+03  0.00000000000E+00 0.  1.
         -1    1    1    2    0  502 -0.17606782449E+02  0.37030689853E+01 -0.29774034368E+03  0.29828346210E+03  0.00000000000E+00 0. -1.
<mgrwt>
<rscale>  1 0.30000000E+03</rscale>
<asrwt>0</asrwt>
<pdfrwt beam="1">  1       21 0.14204765E-02 0.30000000E+03</pdfrwt>
<pdfrwt beam="2">0</pdfrwt>
<totfact> 0.23065949E+05</totfact>
</mgrwt>
</event>
<event>
 6    1  0.1132867E-002  0.3000000E+03  0.7818608E-02  0.1093470E+00
         21   -1    0    0  501  502  0.00000000000E+00  0.00000000000E+00  0.19662893976E+00  0.19662893976E+00  0.00000000000E+00 0. -1.
         13   -1    0    0    0    0 -0.00000000000E+00 -0.00000000000E+00 -0.10000000000E+04  0.10000000000E+04  0.00000000000E+00 0.  1.
    9000005    2    1    2  501    0 -0.98242108284E+00 -0.12163126563E+02 -0.59014819228E+03  0.59035974394E+03  0.10041495058E+02 0.  0.
         13    1    3    3    0    0  0.11278457056E+01 -0.10834146670E+02 -0.29502902945E+03  0.29523004419E+03  0.00000000000E+00 0.  1.
          1    1    3    3  501    0 -0.21102667884E+01 -0.13289798932E+01 -0.29511916282E+03  0.29512969976E+03  0.00000000000E+00 0.  1.
         -1    1    1    2    0  502  0.98242108284E+00  0.12163126563E+02 -0.40965517878E+03  0.40983688500E+03  0.00000000000E+00 0. -1.
<mgrwt>
<rscale>  1 0.30000000E+03</rscale>
<asrwt>0</asrwt>
<pdfrwt beam="1">  1       21 0.71501583E-03 0.30000000E+03</pdfrwt>
<pdfrwt beam="2">0</pdfrwt>
<totfact> 0.68610789E+05</totfact>
</mgrwt>
</event>
<event>
 6    1  0.1132867E-002  0.3000000E+03  0.7818608E-02  0.1093470E+00
         21   -1    0    0  501  502  0.00000000000E+00  0.00000000000E+00  0.16207484801E+01  0.16207484801E+01  0.00000000000E+00 0. -1.
         13   -1    0    0    0    0 -0.00000000000E+00 -0.00000000000E+00 -0.10000000000E+04  0.10000000000E+04  0.00000000000E+00 0.  1.
    9000005    2    1    2  501    0  0.24203484368E+02  0.24423185359E+02 -0.73992093112E+03  0.74088524260E+03  0.15673473319E+02 0.  0.
         13    1    3    3    0    0  0.14338414819E+02  0.79186077698E+01 -0.22001890201E+03  0.22062776736E+03  0.00000000000E+00 0.  1.
          3    1    3    3  501    0  0.98650695488E+01  0.16504577589E+02 -0.51990202910E+03  0.52025747524E+03  0.00000000000E+00 0.  1.
         -1    1    1    2    0  502 -0.24203484368E+02 -0.24423185359E+02 -0.25845832040E+03  0.26073550588E+03  0.00000000000E+00 0. -1.
<mgrwt>
<rscale>  1 0.30000000E+03</rscale>
<asrwt>0</asrwt>
<pdfrwt beam="1">  1       21 0.58936433E-02 0.30000000E+03</pdfrwt>
<pdfrwt beam="2">0</pdfrwt>
<totfact> 0.21731528E+04</totfact>
</mgrwt>
</event>
<event>
 6    1  0.1132867E-002  0.3000000E+03  0.7818608E-02  0.1093470E+00
         21   -1    0    0  501  502  0.00000000000E+00  0.00000000000E+00  0.24508387835E+00  0.24508387835E+00  0.00000000000E+00 0. -1.
         13   -1    0    0    0    0 -0.00000000000E+00 -0.00000000000E+00 -0.10000000000E+04  0.10000000000E+04  0.00000000000E+00 0.  1.
    9000005    2    1    2  501    0 -0.14686536397E+01  0.97199528897E+01 -0.88529050078E+03  0.88535932842E+03  0.50234670888E+01 0.  0.
         13    1    3    3    0    0  0.54079873520E+00  0.80834827977E+01 -0.56130886383E+03  0.56136732695E+03  0.00000000000E+00 0.  1.
          3    1    3    3  501    0 -0.20094523749E+01  0.16364700921E+01 -0.32398163696E+03  0.32399200147E+03  0.00000000000E+00 0.  1.
         -3    1    1    2    0  502  0.14686536397E+01 -0.97199528897E+01 -0.11446441534E+03  0.11488575545E+03  0.00000000000E+00 0. -1.
<mgrwt>
<rscale>  1 0.30000000E+03</rscale>
<asrwt>0</asrwt>
<pdfrwt beam="1">  1       21 0.89121598E-03 0.30000000E+03</pdfrwt>
<pdfrwt beam="2">0</pdfrwt>
<totfact> 0.48494924E+05</totfact>
</mgrwt>
</event>
<event>
 6    1  0.1132867E-002  0.3000000E+03  0.7818608E-02  0.1093470E+00
         21   -1    0    0  501  502  0.00000000000E+00  0.00000000000E+00  0.14633088684E+00  0.14633088684E+00  0.00000000000E+00 0. -1.
         13   -1    0    0    0    0 -0.00000000000E+00 -0.00000000000E+00 -0.10000000000E+04  0.10000000000E+04  0.00000000000E+00 0.  1.
    9000005    2    1    2  501    0 -0.78839145457E+01  0.64731824165E+01 -0.72174126337E+03  0.72184690863E+03  0.69606071157E+01 0.  0.
         13    1    3    3    0    0  0.14058322851E+00  0.17415632895E+01 -0.36001968902E+02  0.36044341735E+02  0.00000000000E+00 0.  1.
          1    1    3    3  501    0 -0.80244977743E+01  0.47316191270E+01 -0.68573929446E+03  0.68580256689E+03  0.00000000000E+00 0.  1.
         -3    1    1    2    0  502  0.78839145457E+01 -0.64731824165E+01 -0.27811240575E+03  0.27829942226E+03  0.00000000000E+00 0. -1.
<mgrwt>
<rscale>  1 0.30000000E+03</rscale>
<asrwt>0</asrwt>
<pdfrwt beam="1">  1       21 0.53211344E-03 0.30000000E+03</pdfrwt>
<pdfrwt beam="2">0</pdfrwt>
<totfact> 0.10885063E+06</totfact>
</mgrwt>
</event>
<event>
 6    1  0.1132867E-002  0.3000000E+03  0.7818608E-02  0.1093470E+00
         21   -1    0    0  501  502  0.00000000000E+00  0.00000000000E+00  0.17398841656E+00  0.17398841656E+00  0.00000000000E+00 0. -1.
         13   -1    0    0    0    0 -0.00000000000E+00 -0.00000000000E+00 -0.10000000000E+04  0.10000000000E+04  0.00000000000E+00 0.  1.
    9000005    2    1    2  501    0 -0.95384023563E+01  0.14258453948E+01 -0.80051951973E+03  0.80063428849E+03  0.95261887199E+01 0.  0.
         13    1    3    3    0    0 -0.11505139955E+02  0.12293975067E+01 -0.69351138103E+03  0.69360789736E+03  0.00000000000E+00 0.  1.
          1    1    3    3  501    0  0.19667375988E+01  0.19644788816E+00 -0.10700813871E+03  0.10702639113E+03  0.00000000000E+00 0.  1.
         -1    1    1    2    0  502  0.95384023563E+01 -0.14258453948E+01 -0.19930649185E+03  0.19953969993E+03  0.00000000000E+00 0. -1.
<mgrwt>
<rscale>  1 0.30000000E+03</rscale>
<asrwt>0</asrwt>
<pdfrwt beam="1">  1       21 0.63268649E-03 0.30000000E+03</pdfrwt>
<pdfrwt beam="2">0</pdfrwt>
<totfact> 0.83101409E+05</totfact>
</mgrwt>
</event>
<event>
 6    1  0.1132867E-002  0.3000000E+03  0.7818608E-02  0.1093470E+00
         21   -1    0    0  501  502  0.00000000000E+00  0.00000000000E+00  0.14729166157E+00  0.14729166157E+00  0.00000000000E+00 0. -1.
         13   -1    0    0    0    0 -0.00000000000E+00 -0.00000000000E+00 -0.10000000000E+04  0.10000000000E+04  0.00000000000E+00 0.  1.
    9000005    2    1    2  501    0  0.79649724961E+01  0.36038661517E+01 -0.51358178814E+03  0.51379779134E+03  0.12061866882E+02 0.  0.
         13    1    3    3    0    0  0.16494458161E+01 -0.12135856739E+01 -0.13636039876E+02  0.13788946485E+02  0.00000000000E+00 0.  1.
          1    1    3    3  501    0  0.63155266799E+01  0.48174518257E+01 -0.49994574827E+03  0.50000884485E+03  0.00000000000E+00 0.  1.
         -1    1    1    2    0  502 -0.79649724961E+01 -0.36038661517E+01 -0.48627092020E+03  0.48634950033E+03  0.00000000000E+00 0. -1.
<mgrwt>
<rscale>  1 0.30000000E+03</rscale>
<asrwt>0</asrwt>
<pdfrwt beam="1">  1       21 0.53560717E-03 0.30000000E+03</pdfrwt>
<pdfrwt beam="2">0</pdfrwt>
<totfact> 0.10774855E+06</totfact>
</mgrwt>
</event>
<event>
 6    1  0.1132867E-002  0.3000000E+03  0.7818608E-02  0.1093470E+00
         21   -1    0    0  501  502  0.00000000000E+00  0.00000000000E+00  0.18081720962E+00  0.18081720962E+00  0.00000000000E+00 0. -1.
         13   -1    0    0    0    0 -0.00000000000E+00 -0.00000000000E+00 -0.10000000000E+04  0.10000000000E+04  0.00000000000E+00 0.  1.
    9000005    2    1    2  501    0  0.98648544971E+01  0.39110824925E+01 -0.76096742818E+03  0.76109344280E+03  0.88988766320E+01 0.  0.
         13    1    3    3    0    0  0.91387611984E+01  0.63852234766E+01 -0.65349178026E+03  0.65358686868E+03  0.00000000000E+00 0.  1.
          3    1    3    3  501    0  0.72609329876E+00 -0.24741409841E+01 -0.10747564791E+03  0.10750657412E+03  0.00000000000E+00 0.  1.
         -1    1    1    2    0  502 -0.98648544971E+01 -0.39110824925E+01 -0.23885175461E+03  0.23908737441E+03  0.00000000000E+00 0. -1.
<mgrwt>
<rscale>  1 0.30000000E+03</rscale>
<asrwt>0</asrwt>
<pdfrwt beam="1">  1       21 0.65751851E-03 0.30000000E+03</pdfrwt>
<pdfrwt beam="2">0</pdfrwt>
<totfact> 0.78242795E+05</totfact>
</mgrwt>
</event>
<event>
 6    1  0.1132867E-002  0.3000000E+03  0.7818608E-02  0.1093470E+00
         21   -1    0    0  501  502  0.00000000000E+00  0.00000000000E+00  0.84052662783E+00  0.84052662783E+00  0.00000000000E+00 0.  1.
         13   -1    0    0    0    0 -0.00000000000E+00 -0.00000000000E+00 -0.10000000000E+04  0.10000000000E+04  0.00000000000E+00 0.  1.
    9000005    2    1    2  501    0 -0.13876869892E+02  0.11432808735E+01 -0.88823679253E+03  0.88904734377E+03  0.35308713435E+02 0.  0.
         13    1    3    3    0    0 -0.98074732988E+01 -0.15791327650E+02 -0.59768879810E+03  0.59797780221E+03  0.00000000000E+00 0.  1.
          1    1    3    3  501    0 -0.40693965927E+01  0.16934608524E+02 -0.29054799443E+03  0.29106954155E+03  0.00000000000E+00 0.  1.
         -3    1    1    2    0  502  0.13876869892E+02 -0.11432808735E+01 -0.11092268084E+03  0.11179318286E+03  0.00000000000E+00 0. -1.
<mgrwt>
<rscale>  1 0.30000000E+03</rscale>
<asrwt>0</asrwt>
<pdfrwt beam="1">  1       21 0.30564669E-02 0.30000000E+03</pdfrwt>
<pdfrwt beam="2">0</pdfrwt>
<totfact> 0.65955475E+04</totfact>
</mgrwt>
</event>
<event>
 6    1  0.1132867E-002  0.3000000E+03  0.7818608E-02  0.1093470E+00
         21   -1    0    0  501  502  0.00000000000E+00  0.00000000000E+00  0.21295828562E+02  0.21295828562E+02  0.00000000000E+00 0. -1.
         13   -1    0    0    0    0 -0.00000000000E+00 -0.00000000000E+00 -0.10000000000E+04  0.10000000000E+04  0.00000000000E+00 0.  1.
    9000005    2    1    2  501    0 -0.15921675915E+02 -0.10181956727E+02 -0.99503354509E+03  0.99631943069E+03  0.46941240945E+02 0.  0.
         13    1    3    3    0    0  0.14658960052E+02 -0.79581200985E+01 -0.19980788486E+03  0.20050288686E+03  0.00000000000E+00 0.  1.
          3    1    3    3  501    0 -0.30580635967E+02 -0.22238366286E+01 -0.79522566023E+03  0.79581654383E+03  0.00000000000E+00 0.  1.
         -1    1    1    2    0  502  0.15921675915E+02  0.10181956727E+02  0.16329373655E+02  0.24976397873E+02  0.00000000000E+00 0. -1.
<mgrwt>
<rscale>  1 0.30000000E+03</rscale>
<asrwt>0</asrwt>
<pdfrwt beam="1">  1       21 0.77439540E-01 0.30000000E+03</pdfrwt>
<pdfrwt beam="2">0</pdfrwt>
<totfact> 0.13910668E+02</totfact>
</mgrwt>
</event>
<event>
 6    1  0.1132867E-002  0.3000000E+03  0.7818608E-02  0.1093470E+00
         21   -1    0    0  501  502  0.00000000000E+00  0.00000000000E+00  0.85783806636E+00  0.85783806636E+00  0.00000000000E+00 0. -1.
         13   -1    0    0    0    0 -0.00000000000E+00 -0.00000000000E+00 -0.10000000000E+04  0.10000000000E+04  0.00000000000E+00 0.  1.
    9000005    2    1    2  501    0 -0.87497362826E+01  0.48449266905E+01 -0.96588920322E+03  0.96613334436E+03  0.19278355633E+02 0.  0.
         13    1    3    3    0    0 -0.11588565408E+02  0.22327305172E+01 -0.92183779422E+03  0.92191333583E+03  0.00000000000E+00 0.  1.
          1    1    3    3  501    0  0.28388291250E+01  0.26121961734E+01 -0.44051409000E+02  0.44220008531E+02  0.00000000000E+00 0.  1.
         -3    1    1    2    0  502  0.87497362826E+01 -0.48449266905E+01 -0.33252958713E+02  0.34724493702E+02  0.00000000000E+00 0. -1.
<mgrwt>
<rscale>  1 0.30000000E+03</rscale>
<asrwt>0</asrwt>
<pdfrwt beam="1">  1       21 0.31194177E-02 0.30000000E+03</pdfrwt>
<pdfrwt beam="2">0</pdfrwt>
<totfact> 0.63757750E+04</totfact>
</mgrwt>
</event>
<event>
 6    1  0.1132867E-002  0.3000000E+03  0.7818608E-02  0.1093470E+00
         21   -1    0    0  501  502  0.00000000000E+00  0.00000000000E+00  0.18416849042E+00  0.18416849042E+00  0.00000000000E+00 0. -1.
         13   -1    0    0    0    0 -0.00000000000E+00 -0.00000000000E+00 -0.10000000000E+04  0.10000000000E+04  0.00000000000E+00 0.  1.
    9000005    2    1    2  501    0 -0.10167594787E+02 -0.13758931839E-01 -0.81277901972E+03  0.81287119741E+03  0.68167806081E+01 0.  0.
         13    1    3    3    0    0 -0.50741961086E+01 -0.25793685070E+01 -0.25757730253E+03  0.25764018977E+03  0.00000000000E+00 0.  1.
          1    1    3    3  501    0 -0.50933986784E+01  0.25656095752E+01 -0.55520171719E+03  0.55523100763E+03  0.00000000000E+00 0.  1.
         -1    1    1    2    0  502  0.10167594787E+02  0.13758931839E-01 -0.18703681179E+03  0.18731297108E+03  0.00000000000E+00 0. -1.
<mgrwt>
<rscale>  1 0.30000000E+03</rscale>
<asrwt>0</asrwt>
<pdfrwt beam="1">  1       21 0.66970501E-03 0.30000000E+03</pdfrwt>
<pdfrwt beam="2">0</pdfrwt>
<totfact> 0.76025025E+05</totfact>
</mgrwt>
</event>
<event>
 6    1  0.1132867E-002  0.3000000E+03  0.7818608E-02  0.1093470E+00
         21   -1    0    0  501  502  0.00000000000E+00  0.00000000000E+00  0.85188543153E-01  0.85188543153E-01  0.00000000000E+00 0. -1.
         13   -1    0    0    0    0 -0.00000000000E+00 -0.00000000000E+00 -0.10000000000E+04  0.10000000000E+04  0.00000000000E+00 0.  1.
    9000005    2    1    2  501    0 -0.39871503292E+01 -0.62540346856E+01 -0.62174499907E+03  0.62184265086E+03  0.81503517541E+01 0.  0.
         13    1    3    3    0    0  0.21830883653E+01 -0.29864006552E+01 -0.14810063321E+03  0.14814682589E+03  0.00000000000E+00 0.  1.
          3    1    3    3  501    0 -0.61702386945E+01 -0.32676340304E+01 -0.47364436586E+03  0.47369582497E+03  0.00000000000E+00 0.  1.
         -3    1    1    2    0  502  0.39871503292E+01  0.62540346856E+01 -0.37816981238E+03  0.37824253769E+03  0.00000000000E+00 0. -1.
<mgrwt>
<rscale>  1 0.30000000E+03</rscale>
<asrwt>0</asrwt>
<pdfrwt beam="1">  1       21 0.30977717E-03 0.30000000E+03</pdfrwt>
<pdfrwt beam="2">0</pdfrwt>
<totfact> 0.25086891E+06</totfact>
</mgrwt>
</event>
<event>
 6    1  0.1132867E-002  0.3000000E+03  0.7818608E-02  0.1093470E+00
         21   -1    0    0  501  502  0.00000000000E+00  0.00000000000E+00  0.31921340827E+00  0.31921340827E+00  0.00000000000E+00 0. -1.
         13   -1    0    0    0    0 -0.00000000000E+00 -0.00000000000E+00 -0.10000000000E+04  0.10000000000E+04  0.00000000000E+00 0.  1.
    9000005    2    1    2  501    0 -0.13668766455E+02 -0.19552462731E+01 -0.74573211495E+03  0.74599543160E+03  0.14217543272E+02 0.  0.
         13    1    3    3    0    0 -0.93055124469E+01 -0.43578917642E+01 -0.22010690497E+03  0.22034662102E+03  0.00000000000E+00 0.  1.
          1    1    3    3  501    0 -0.43632540080E+01  0.24026454911E+01 -0.52562520999E+03  0.52564881058E+03  0.00000000000E+00 0.  1.
         -3    1    1    2    0  502  0.13668766455E+02  0.19552462731E+01 -0.25394867164E+03  0.25432378180E+03  0.00000000000E+00 0. -1.
<mgrwt>
<rscale>  1 0.30000000E+03</rscale>
<asrwt>0</asrwt>
<pdfrwt beam="1">  1       21 0.11607785E-02 0.30000000E+03</pdfrwt>
<pdfrwt beam="2">0</pdfrwt>
<totfact> 0.31873207E+05</totfact>
</mgrwt>
</event>
<event>
 6    1  0.1132867E-002  0.3000000E+03  0.7818608E-02  0.1093470E+00
         21   -1    0    0  501  502  0.00000000000E+00  0.00000000000E+00  0.26812087543E+00  0.26812087543E+00  0.00000000000E+00 0. -1.
         13   -1    0    0    0    0 -0.00000000000E+00 -0.00000000000E+00 -0.10000000000E+04  0.10000000000E+04  0.00000000000E+00 0.  1.
    9000005    2    1    2  501    0 -0.87711243193E+01  0.13083671727E+02 -0.56995321507E+03  0.57020089920E+03  0.58551674671E+01 0.  0.
         13    1    3    3    0    0 -0.56468222616E+01  0.43315789429E+01 -0.30986150817E+03  0.30994322613E+03  0.00000000000E+00 0.  1.
          3    1    3    3  501    0 -0.31243020577E+01  0.87520927844E+01 -0.26009170691E+03  0.26025767307E+03  0.00000000000E+00 0.  1.
         -3    1    1    2    0  502  0.87711243193E+01 -0.13083671727E+02 -0.42977866405E+03  0.43006722168E+03  0.00000000000E+00 0. -1.
<mgrwt>
<rscale>  1 0.30000000E+03</rscale>
<asrwt>0</asrwt>
<pdfrwt beam="1">  1       21 0.97498706E-03 0.30000000E+03</pdfrwt>
<pdfrwt beam="2">0</pdfrwt>
<totfact> 0.42066617E+05</totfact>
</mgrwt>
</event>
<event>
 6    1  0.1132867E-002  0.3000000E+03  0.7818608E-02  0.1093470E+00
         21   -1    0    0  501  502  0.00000000000E+00  0.00000000000E+00  0.44401444980E+00  0.44401444980E+00  0.00000000000E+00 0. -1.
         13   -1    0    0    0    0 -0.00000000000E+00 -0.00000000000E+00 -0.10000000000E+04  0.10000000000E+04  0.00000000000E+00 0.  1.
    9000005    2    1    2  501    0  0.15013361555E+02  0.13190011257E+00 -0.24028575867E+03  0.24102535794E+03  0.11426238640E+02 0.  0.
         13    1    3    3    0    0  0.12364791926E+01 -0.37211132300E+01 -0.30265810929E+02  0.30518762682E+02  0.00000000000E+00 0.  1.
          1    1    3    3  501    0  0.13776882362E+02  0.38530133426E+01 -0.21001994774E+03  0.21050659526E+03  0.00000000000E+00 0.  1.
         -1    1    1    2    0  502 -0.15013361555E+02 -0.13190011257E+00 -0.75927022688E+03  0.75941865651E+03  0.00000000000E+00 0. -1.
<mgrwt>
<rscale>  1 0.30000000E+03</rscale>
<asrwt>0</asrwt>
<pdfrwt beam="1">  1       21 0.16146014E-02 0.30000000E+03</pdfrwt>
<pdfrwt beam="2">0</pdfrwt>
<totfact> 0.18763979E+05</totfact>
</mgrwt>
</event>
<event>
 6    1  0.1132867E-002  0.3000000E+03  0.7818608E-02  0.1093470E+00
         21   -1    0    0  501  502  0.00000000000E+00  0.00000000000E+00  0.44374430496E+00  0.44374430496E+00  0.00000000000E+00 0. -1.
         13   -1    0    0    0    0 -0.00000000000E+00 -0.00000000000E+00 -0.10000000000E+04  0.10000000000E+04  0.00000000000E+00 0.  1.
    9000005    2    1    2  501    0 -0.12665408751E+02 -0.91419226059E+01 -0.82227787237E+03  0.82247854399E+03  0.92773170530E+01 0.  0.
         13    1    3    3    0    0 -0.50446821624E+01  0.23391597765E+00 -0.13490384767E+03  0.13499833944E+03  0.00000000000E+00 0.  1.
          3    1    3    3  501    0 -0.76207265881E+01 -0.93758385836E+01 -0.68737402470E+03  0.68748020455E+03  0.00000000000E+00 0.  1.
         -3    1    1    2    0  502  0.12665408751E+02  0.91419226059E+01 -0.17727838333E+03  0.17796520032E+03  0.00000000000E+00 0. -1.
<mgrwt>
<rscale>  1 0.30000000E+03</rscale>
<asrwt>0</asrwt>
<pdfrwt beam="1">  1       21 0.16136191E-02 0.30000000E+03</pdfrwt>
<pdfrwt beam="2">0</pdfrwt>
<totfact> 0.18782443E+05</totfact>
</mgrwt>
</event>
<event>
 6    1  0.1132867E-002  0.3000000E+03  0.7818608E-02  0.1093470E+00
         21   -1    0    0  501  502  0.00000000000E+00  0.00000000000E+00  0.26574330945E+00  0.26574330945E+00  0.00000000000E+00 0. -1.
         13   -1    0    0    0    0 -0.00000000000E+00 -0.00000000000E+00 -0.10000000000E+04  0.10000000000E+04  0.00000000000E+00 0.  1.
    9000005    2    1    2  501    0 -0.11854212066E+02 -0.25837369923E+01 -0.82430414700E+03  0.82441659936E+03  0.61809791963E+01 0.  0.
         13    1    3    3    0    0 -0.91532813304E+01  0.73349361443E+00 -0.61694123453E+03  0.61700956835E+03  0.00000000000E+00 0.  1.
          3    1    3    3  501    0 -0.27009307357E+01 -0.33172306067E+01 -0.20736291246E+03  0.20740703101E+03  0.00000000000E+00 0.  1.
         -3    1    1    2    0  502  0.11854212066E+02  0.25837369923E+01 -0.17543010969E+03  0.17584914395E+03  0.00000000000E+00 0. -1.
<mgrwt>
<rscale>  1 0.30000000E+03</rscale>
<asrwt>0</asrwt>
<pdfrwt beam="1">  1       21 0.96634134E-03 0.30000000E+03</pdfrwt>
<pdfrwt beam="2">0</pdfrwt>
<totfact> 0.42664871E+05</totfact>
</mgrwt>
</event>
<event>
 6    1  0.1132867E-002  0.3000000E+03  0.7818608E-02  0.1093470E+00
         21   -1    0    0  501  502  0.00000000000E+00  0.00000000000E+00  0.16196519634E+00  0.16196519634E+00  0.00000000000E+00 0. -1.
         13   -1    0    0    0    0 -0.00000000000E+00 -0.00000000000E+00 -0.10000000000E+04  0.10000000000E+04  0.00000000000E+00 0.  1.
    9000005    2    1    2  501    0  0.53949599324E+01  0.78847690531E+01 -0.60348617806E+03  0.60369498105E+03  0.12680215186E+02 0.  0.
         13    1    3    3    0    0  0.45877509586E+01  0.88929228360E+01 -0.59687299739E+03  0.59695687160E+03  0.00000000000E+00 0.  1.
          3    1    3    3  501    0  0.80720897381E+00 -0.10081537830E+01 -0.66131806769E+01  0.67381094562E+01  0.00000000000E+00 0.  1.
         -3    1    1    2    0  502 -0.53949599324E+01 -0.78847690531E+01 -0.39635185674E+03  0.39646698414E+03  0.00000000000E+00 0. -1.
<mgrwt>
<rscale>  1 0.30000000E+03</rscale>
<asrwt>0</asrwt>
<pdfrwt beam="1">  1       21 0.58896559E-03 0.30000000E+03</pdfrwt>
<pdfrwt beam="2">0</pdfrwt>
<totfact> 0.92936475E+05</totfact>
</mgrwt>
</event>
<event>
 6    1  0.1132867E-002  0.3000000E+03  0.7818608E-02  0.1093470E+00
         21   -1    0    0  501  502  0.00000000000E+00  0.00000000000E+00  0.24266976617E+00  0.24266976617E+00  0.00000000000E+00 0. -1.
         13   -1    0    0    0    0 -0.00000000000E+00 -0.00000000000E+00 -0.10000000000E+04  0.10000000000E+04  0.00000000000E+00 0.  1.
    9000005    2    1    2  501    0 -0.11160090194E+02 -0.70450658693E+01 -0.74087440341E+03  0.74102355325E+03  0.68442879663E+01 0.  0.
         13    1    3    3    0    0 -0.14385630494E+01 -0.20152693677E+01 -0.48952368261E+02  0.49014948053E+02  0.00000000000E+00 0.  1.
          3    1    3    3  501    0 -0.97215271446E+01 -0.50297965017E+01 -0.69192203515E+03  0.69200860520E+03  0.00000000000E+00 0.  1.
         -1    1    1    2    0  502  0.11160090194E+02  0.70450658693E+01 -0.25888292682E+03  0.25921911651E+03  0.00000000000E+00 0. -1.
<mgrwt>
<rscale>  1 0.30000000E+03</rscale>
<asrwt>0</asrwt>
<pdfrwt beam="1">  1       21 0.88243737E-03 0.30000000E+03</pdfrwt>
<pdfrwt beam="2">0</pdfrwt>
<totfact> 0.49259472E+05</totfact>
</mgrwt>
</event>
<event>
 6    1  0.1132867E-002  0.3000000E+03  0.7818608E-02  0.1093470E+00
         21   -1    0    0  501  502  0.00000000000E+00  0.00000000000E+00  0.28093862237E+01  0.28093862237E+01  0.00000000000E+00 0. -1.
         13   -1    0    0    0    0 -0.00000000000E+00 -0.00000000000E+00 -0.10000000000E+04  0.10000000000E+04  0.00000000000E+00 0.  1.
    9000005    2    1    2  501    0  0.11559114785E+02 -0.12627380487E+02 -0.97300765681E+03  0.97318035856E+03  0.65609607654E+01 0.  0.
         13    1    3    3    0    0  0.11125293374E+02 -0.92977364210E+01 -0.68693275816E+03  0.68708575468E+03  0.00000000000E+00 0.  1.
          1    1    3    3  501    0  0.43382141087E+00 -0.33296440662E+01 -0.28607489865E+03  0.28609460388E+03  0.00000000000E+00 0.  1.
         -3    1    1    2    0  502 -0.11559114785E+02  0.12627380487E+02 -0.24182956966E+02  0.29629027662E+02  0.00000000000E+00 0. -1.
<mgrwt>
<rscale>  1 0.30000000E+03</rscale>
<asrwt>0</asrwt>
<pdfrwt beam="1">  1       21 0.10215971E-01 0.30000000E+03</pdfrwt>
<pdfrwt beam="2">0</pdfrwt>
<totfact> 0.82807144E+03</totfact>
</mgrwt>
</event>
<event>
 6    1  0.1132867E-002  0.3000000E+03  0.7818608E-02  0.1093470E+00
         21   -1    0    0  501  502  0.00000000000E+00  0.00000000000E+00  0.32325381603E+00  0.32325381603E+00  0.00000000000E+00 0. -1.
         13   -1    0    0    0    0 -0.00000000000E+00 -0.00000000000E+00 -0.10000000000E+04  0.10000000000E+04  0.00000000000E+00 0.  1.
    9000005    2    1    2  501    0  0.78894861217E+01 -0.10045079281E+02 -0.82728376267E+03  0.82745773275E+03  0.11168164541E+02 0.  0.
         13    1    3    3    0    0  0.75245165974E+01 -0.28304231337E+01 -0.61201090593E+03  0.61206370471E+03  0.00000000000E+00 0.  1.
          3    1    3    3  501    0  0.36496952434E+00 -0.72146561471E+01 -0.21527285674E+03  0.21539402804E+03  0.00000000000E+00 0.  1.
         -1    1    1    2    0  502 -0.78894861217E+01  0.10045079281E+02 -0.17239298351E+03  0.17286552107E+03  0.00000000000E+00 0. -1.
<mgrwt>
<rscale>  1 0.30000000E+03</rscale>
<asrwt>0</asrwt>
<pdfrwt beam="1">  1       21 0.11754709E-02 0.30000000E+03</pdfrwt>
<pdfrwt beam="2">0</pdfrwt>
<totfact> 0.31239990E+05</totfact>
</mgrwt>
</event>
<event>
 6    1  0.1132867E-002  0.3000000E+03  0.7818608E-02  0.1093470E+00
         21   -1    0    0  501  502  0.00000000000E+00  0.00000000000E+00  0.18872917792E+00  0.18872917792E+00  0.00000000000E+00 0. -1.
         13   -1    0    0    0    0 -0.00000000000E+00 -0.00000000000E+00 -0.10000000000E+04  0.10000000000E+04  0.00000000000E+00 0.  1.
    9000005    2    1    2  501    0  0.24496745259E-01 -0.10539117876E+02 -0.81007666604E+03  0.81016164201E+03  0.51582667831E+01 0.  0.
         13    1    3    3    0    0 -0.52084668937E+00 -0.59495102812E-01 -0.15535627614E+03  0.15535716062E+03  0.00000000000E+00 0.  1.
          1    1    3    3  501    0  0.54534343463E+00 -0.10479622774E+02 -0.65472038991E+03  0.65480448139E+03  0.00000000000E+00 0.  1.
         -1    1    1    2    0  502 -0.24496745259E-01  0.10539117876E+02 -0.18973460478E+03  0.19002708717E+03  0.00000000000E+00 0. -1.
<mgrwt>
<rscale>  1 0.30000000E+03</rscale>
<asrwt>0</asrwt>
<pdfrwt beam="1">  1       21 0.68628937E-03 0.30000000E+03</pdfrwt>
<pdfrwt beam="2">0</pdfrwt>
<totfact> 0.73166830E+05</totfact>
</mgrwt>
</event>
<event>
 6    1  0.1132867E-002  0.3000000E+03  0.7818608E-02  0.1093470E+00
         21   -1    0    0  501  502  0.00000000000E+00  0.00000000000E+00  0.15559538779E+00  0.15559538779E+00  0.00000000000E+00 0.  1.
         13   -1    0    0    0    0 -0.00000000000E+00 -0.00000000000E+00 -0.10000000000E+04  0.10000000000E+04  0.00000000000E+00 0.  1.
    9000005    2    1    2  501    0 -0.79405549076E+01 -0.15105335169E+01 -0.73713629128E+03  0.73732316410E+03  0.14498354362E+02 0.  0.
         13    1    3    3    0    0 -0.10555359457E+02 -0.53692552768E+01 -0.56271978973E+03  0.56284438904E+03  0.00000000000E+00 0.  1.
          3    1    3    3  501    0  0.26148045497E+01  0.38587217598E+01 -0.17441650155E+03  0.17447877507E+03  0.00000000000E+00 0.  1.
         -3    1    1    2    0  502  0.79405549076E+01  0.15105335169E+01 -0.26270811333E+03  0.26283243128E+03  0.00000000000E+00 0. -1.
<mgrwt>
<rscale>  1 0.30000000E+03</rscale>
<asrwt>0</asrwt>
<pdfrwt beam="1">  1       21 0.56580260E-03 0.30000000E+03</pdfrwt>
<pdfrwt beam="2">0</pdfrwt>
<totfact> 0.98933642E+05</totfact>
</mgrwt>
</event>
<event>
 6    1  0.1132867E-002  0.3000000E+03  0.7818608E-02  0.1093470E+00
         21   -1    0    0  501  502  0.00000000000E+00  0.00000000000E+00  0.28807647666E+01  0.28807647666E+01  0.00000000000E+00 0. -1.
         13   -1    0    0    0    0 -0.00000000000E+00 -0.00000000000E+00 -0.10000000000E+04  0.10000000000E+04  0.00000000000E+00 0.  1.
    9000005    2    1    2  501    0 -0.62098021904E+01  0.11687149394E+02 -0.98356997393E+03  0.98394050114E+03  0.23534338167E+02 0.  0.
         13    1    3    3    0    0  0.63355860817E+01  0.69007189862E+01 -0.16869972383E+03  0.16895962948E+03  0.00000000000E+00 0.  1.
          1    1    3    3  501    0 -0.12545388272E+02  0.47864304083E+01 -0.81487025010E+03  0.81498087166E+03  0.00000000000E+00 0.  1.
         -1    1    1    2    0  502  0.62098021904E+01 -0.11687149394E+02 -0.13549261306E+02  0.18940263624E+02  0.00000000000E+00 0. -1.
<mgrwt>
<rscale>  1 0.30000000E+03</rscale>
<asrwt>0</asrwt>
<pdfrwt beam="1">  1       21 0.10475530E-01 0.30000000E+03</pdfrwt>
<pdfrwt beam="2">0</pdfrwt>
<totfact> 0.79169081E+03</totfact>
</mgrwt>
</event>
<event>
 6    1  0.1132867E-002  0.3000000E+03  0.7818608E-02  0.1093470E+00
         21   -1    0    0  501  502  0.00000000000E+00  0.00000000000E+00  0.18148481606E+01  0.18148481606E+01  0.00000000000E+00 0. -1.
         13   -1    0    0    0    0 -0.00000000000E+00 -0.00000000000E+00 -0.10000000000E+04  0.10000000000E+04  0.00000000000E+00 0.  1.
    9000005    2    1    2  501    0  0.16146643024E+02 -0.33149837926E+02 -0.74686440750E+03  0.74780354453E+03  0.66386888651E+01 0.  0.
         13    1    3    3    0    0  0.43332389048E+00 -0.75542812112E+00 -0.57990302119E+01  0.58640593993E+01  0.00000000000E+00 0.  1.
          3    1    3    3  501    0  0.15713319134E+02 -0.32394409805E+02 -0.74106537729E+03  0.74193948513E+03  0.00000000000E+00 0.  1.
         -3    1    1    2    0  502 -0.16146643024E+02  0.33149837926E+02 -0.25132074434E+03  0.25401130363E+03  0.00000000000E+00 0. -1.
<mgrwt>
<rscale>  1 0.30000000E+03</rscale>
<asrwt>0</asrwt>
<pdfrwt beam="1">  1       21 0.65994618E-02 0.30000000E+03</pdfrwt>
<pdfrwt beam="2">0</pdfrwt>
<totfact> 0.17873644E+04</totfact>
</mgrwt>
</event>
<event>
 6    1  0.1132867E-002  0.3000000E+03  0.7818608E-02  0.1093470E+00
         21   -1    0    0  501  502  0.00000000000E+00  0.00000000000E+00  0.93982703060E+00  0.93982703060E+00  0.00000000000E+00 0. -1.
         13   -1    0    0    0    0 -0.00000000000E+00 -0.00000000000E+00 -0.10000000000E+04  0.10000000000E+04  0.00000000000E+00 0.  1.
    9000005    2    1    2  501    0  0.23818776976E+02 -0.43937126331E+01 -0.80084054293E+03  0.80124590980E+03  0.79242613520E+01 0.  0.
         13    1    3    3    0    0  0.19921157627E+02 -0.66169508842E+01 -0.65334268275E+03  0.65367981280E+03  0.00000000000E+00 0.  1.
          1    1    3    3  501    0  0.38976193482E+01  0.22232382511E+01 -0.14749786018E+03  0.14756609699E+03  0.00000000000E+00 0.  1.
         -1    1    1    2    0  502 -0.23818776976E+02  0.43937126331E+01 -0.19821963004E+03  0.19969391723E+03  0.00000000000E+00 0. -1.
<mgrwt>
<rscale>  1 0.30000000E+03</rscale>
<asrwt>0</asrwt>
<pdfrwt beam="1">  1       21 0.34175600E-02 0.30000000E+03</pdfrwt>
<pdfrwt beam="2">0</pdfrwt>
<totfact> 0.54757519E+04</totfact>
</mgrwt>
</event>
<event>
 6    1  0.1132867E-002  0.3000000E+03  0.7818608E-02  0.1093470E+00
         21   -1    0    0  501  502  0.00000000000E+00  0.00000000000E+00  0.12551269928E+00  0.12551269928E+00  0.00000000000E+00 0. -1.
         13   -1    0    0    0    0 -0.00000000000E+00 -0.00000000000E+00 -0.10000000000E+04  0.10000000000E+04  0.00000000000E+00 0.  1.
    9000005    2    1    2  501    0  0.42824629956E+00  0.89449937218E+01 -0.77241811929E+03  0.77249292352E+03  0.59472324880E+01 0.  0.
         13    1    3    3    0    0  0.16786701832E+01  0.32531930831E+00 -0.70343287315E+02  0.70364066373E+02  0.00000000000E+00 0.  1.
          1    1    3    3  501    0 -0.12504238837E+01  0.86196744135E+01 -0.70207483198E+03  0.70212885715E+03  0.00000000000E+00 0.  1.
         -3    1    1    2    0  502 -0.42824629956E+00 -0.89449937218E+01 -0.22745636801E+03  0.22763258918E+03  0.00000000000E+00 0. -1.
<mgrwt>
<rscale>  1 0.30000000E+03</rscale>
<asrwt>0</asrwt>
<pdfrwt beam="1">  1       21 0.45641078E-03 0.30000000E+03</pdfrwt>
<pdfrwt beam="2">0</pdfrwt>
<totfact> 0.13812350E+06</totfact>
</mgrwt>
</event>
<event>
 6    1  0.1132867E-002  0.3000000E+03  0.7818608E-02  0.1093470E+00
         21   -1    0    0  501  502  0.00000000000E+00  0.00000000000E+00  0.35193085216E+00  0.35193085216E+00  0.00000000000E+00 0. -1.
         13   -1    0    0    0    0 -0.00000000000E+00 -0.00000000000E+00 -0.10000000000E+04  0.10000000000E+04  0.00000000000E+00 0.  1.
    9000005    2    1    2  501    0  0.10656523438E+02  0.43267417509E+01 -0.86432345919E+03  0.86453944157E+03  0.15528094876E+02 0.  0.
         13    1    3    3    0    0  0.75292917858E+01  0.73234204649E+01 -0.27563916768E+03  0.27583921672E+03  0.00000000000E+00 0.  1.
          3    1    3    3  501    0  0.31272316519E+01 -0.29966787140E+01 -0.58868429152E+03  0.58870022485E+03  0.00000000000E+00 0.  1.
         -1    1    1    2    0  502 -0.10656523438E+02 -0.43267417509E+01 -0.13532460995E+03  0.13581248928E+03  0.00000000000E+00 0. -1.
<mgrwt>
<rscale>  1 0.30000000E+03</rscale>
<asrwt>0</asrwt>
<pdfrwt beam="1">  1       21 0.12797513E-02 0.30000000E+03</pdfrwt>
<pdfrwt beam="2">0</pdfrwt>
<totfact> 0.27270954E+05</totfact>
</mgrwt>
</event>
<event>
 6    1  0.1132867E-002  0.3000000E+03  0.7818608E-02  0.1093470E+00
         21   -1    0    0  501  502  0.00000000000E+00  0.00000000000E+00  0.22743798561E+00  0.22743798561E+00  0.00000000000E+00 0. -1.
         13   -1    0    0    0    0 -0.00000000000E+00 -0.00000000000E+00 -0.10000000000E+04  0.10000000000E+04  0.00000000000E+00 0.  1.
    9000005    2    1    2  501    0  0.10317554383E+02  0.90317602655E+00 -0.82490905884E+03  0.82505748509E+03  0.11731610705E+02 0.  0.
         13    1    3    3    0    0  0.84721694313E+01  0.20520939741E+01 -0.80157266828E+03  0.80162006667E+03  0.00000000000E+00 0.  1.
          1    1    3    3  501    0  0.18453849514E+01 -0.11489179475E+01 -0.23336390556E+02  0.23437418421E+02  0.00000000000E+00 0.  1.
         -1    1    1    2    0  502 -0.10317554383E+02 -0.90317602655E+00 -0.17486350317E+03  0.17516995290E+03  0.00000000000E+00 0. -1.
<mgrwt>
<rscale>  1 0.30000000E+03</rscale>
<asrwt>0</asrwt>
<pdfrwt beam="1">  1       21 0.82704896E-03 0.30000000E+03</pdfrwt>
<pdfrwt beam="2">0</pdfrwt>
<totfact> 0.54567468E+05</totfact>
</mgrwt>
</event>
<event>
 6    1  0.1132867E-002  0.3000000E+03  0.7818608E-02  0.1093470E+00
         21   -1    0    0  501  502  0.00000000000E+00  0.00000000000E+00  0.15699313867E+01  0.15699313867E+01  0.00000000000E+00 0. -1.
         13   -1    0    0    0    0 -0.00000000000E+00 -0.00000000000E+00 -0.10000000000E+04  0.10000000000E+04  0.00000000000E+00 0.  1.
    9000005    2    1    2  501    0  0.25852235914E+02  0.25681983099E+02 -0.68979732634E+03  0.69079336863E+03  0.68719979139E+01 0.  0.
         13    1    3    3    0    0  0.25087917778E+02  0.26066738187E+02 -0.67837791972E+03  0.67934194660E+03  0.00000000000E+00 0.  1.
          1    1    3    3  501    0  0.76431813573E+00 -0.38475508754E+00 -0.11419406628E+02  0.11451422026E+02  0.00000000000E+00 0.  1.
         -1    1    1    2    0  502 -0.25852235914E+02 -0.25681983099E+02 -0.30863274227E+03  0.31077656276E+03  0.00000000000E+00 0. -1.
<mgrwt>
<rscale>  1 0.30000000E+03</rscale>
<asrwt>0</asrwt>
<pdfrwt beam="1">  1       21 0.57088534E-02 0.30000000E+03</pdfrwt>
<pdfrwt beam="2">0</pdfrwt>
<totfact> 0.22956908E+04</totfact>
</mgrwt>
</event>
<event>
 6    1  0.1132867E-002  0.3000000E+03  0.7818608E-02  0.1093470E+00
         21   -1    0    0  501  502  0.00000000000E+00  0.00000000000E+00  0.21478440178E+00  0.21478440178E+00  0.00000000000E+00 0. -1.
         13   -1    0    0    0    0 -0.00000000000E+00 -0.00000000000E+00 -0.10000000000E+04  0.10000000000E+04  0.00000000000E+00 0.  1.
    9000005    2    1    2  501    0 -0.10692297616E+02  0.85572091366E+00 -0.80540070000E+03  0.80553454043E+03  0.10027501525E+02 0.  0.
         13    1    3    3    0    0  0.18491884808E+01 -0.50448509716E+00 -0.15189886004E+03  0.15191095314E+03  0.00000000000E+00 0.  1.
          1    1    3    3  501    0 -0.12541486097E+02  0.13602060108E+01 -0.65350183996E+03  0.65362358729E+03  0.00000000000E+00 0.  1.
         -3    1    1    2    0  502  0.10692297616E+02 -0.85572091366E+00 -0.19438451560E+03  0.19468024397E+03  0.00000000000E+00 0. -1.
<mgrwt>
<rscale>  1 0.30000000E+03</rscale>
<asrwt>0</asrwt>
<pdfrwt beam="1">  1       21 0.78103584E-03 0.30000000E+03</pdfrwt>
<pdfrwt beam="2">0</pdfrwt>
<totfact> 0.59720033E+05</totfact>
</mgrwt>
</event>
<event>
 6    1  0.1132867E-002  0.3000000E+03  0.7818608E-02  0.1093470E+00
         21   -1    0    0  501  502  0.00000000000E+00  0.00000000000E+00  0.25327540227E+00  0.25327540227E+00  0.00000000000E+00 0. -1.
         13   -1    0    0    0    0 -0.00000000000E+00 -0.00000000000E+00 -0.10000000000E+04  0.10000000000E+04  0.00000000000E+00 0.  1.
    9000005    2    1    2  501    0 -0.87874857655E+01  0.71026940972E+01 -0.84382080987E+03  0.84391850942E+03  0.61010827559E+01 0.  0.
         13    1    3    3    0    0 -0.13848637416E+01 -0.11164314031E+01 -0.12028266616E+03  0.12029581890E+03  0.00000000000E+00 0.  1.
          3    1    3    3  501    0 -0.74026220239E+01  0.82191255003E+01 -0.72353814371E+03  0.72362269052E+03  0.00000000000E+00 0.  1.
         -1    1    1    2    0  502  0.87874857655E+01 -0.71026940972E+01 -0.15592591473E+03  0.15633476598E+03  0.00000000000E+00 0. -1.
<mgrwt>
<rscale>  1 0.30000000E+03</rscale>
<asrwt>0</asrwt>
<pdfrwt beam="1">  1       21 0.92100340E-03 0.30000000E+03</pdfrwt>
<pdfrwt beam="2">0</pdfrwt>
<totfact> 0.46038216E+05</totfact>
</mgrwt>
</event>
<event>
 6    1  0.1132867E-002  0.3000000E+03  0.7818608E-02  0.1093470E+00
         21   -1    0    0  501  502  0.00000000000E+00  0.00000000000E+00  0.10609355250E+01  0.10609355250E+01  0.00000000000E+00 0. -1.
         13   -1    0    0    0    0 -0.00000000000E+00 -0.00000000000E+00 -0.10000000000E+04  0.10000000000E+04  0.00000000000E+00 0.  1.
    9000005    2    1    2  501    0  0.95070182483E+00  0.10329004702E+02 -0.96942593989E+03  0.96977808568E+03  0.23985211016E+02 0.  0.
         13    1    3    3    0    0  0.43179629659E+01 -0.71027430550E+01 -0.27796673594E+03  0.27809099240E+03  0.00000000000E+00 0.  1.
          1    1    3    3  501    0 -0.33672611411E+01  0.17431747757E+02 -0.69145920395E+03  0.69168709328E+03  0.00000000000E+00 0.  1.
         -3    1    1    2    0  502 -0.95070182483E+00 -0.10329004702E+02 -0.29513124581E+02  0.31282849849E+02  0.00000000000E+00 0. -1.
<mgrwt>
<rscale>  1 0.30000000E+03</rscale>
<asrwt>0</asrwt>
<pdfrwt beam="1">  1       21 0.38579555E-02 0.30000000E+03</pdfrwt>
<pdfrwt beam="2">0</pdfrwt>
<totfact> 0.44684762E+04</totfact>
</mgrwt>
</event>
<event>
 6    1  0.1132867E-002  0.3000000E+03  0.7818608E-02  0.1093470E+00
         21   -1    0    0  501  502  0.00000000000E+00  0.00000000000E+00  0.11087166641E+01  0.11087166641E+01  0.00000000000E+00 0. -1.
         13   -1    0    0    0    0 -0.00000000000E+00 -0.00000000000E+00 -0.10000000000E+04  0.10000000000E+04  0.00000000000E+00 0.  1.
    9000005    2    1    2  501    0  0.31863274138E+02  0.60185658417E+01 -0.60016267682E+03  0.60106372791E+03  0.55565265174E+01 0.  0.
         13    1    3    3    0    0  0.15619149785E+02  0.31061604225E+01 -0.34555683918E+03  0.34592359731E+03  0.00000000000E+00 0.  1.
          3    1    3    3  501    0  0.16244124353E+02  0.29124054191E+01 -0.25460583764E+03  0.25514013060E+03  0.00000000000E+00 0.  1.
         -1    1    1    2    0  502 -0.31863274138E+02 -0.60185658417E+01 -0.39872860652E+03  0.40004498876E+03  0.00000000000E+00 0. -1.
<mgrwt>
<rscale>  1 0.30000000E+03</rscale>
<asrwt>0</asrwt>
<pdfrwt beam="1">  1       21 0.40317055E-02 0.30000000E+03</pdfrwt>
<pdfrwt beam="2">0</pdfrwt>
<totfact> 0.41491867E+04</totfact>
</mgrwt>
</event>
<event>
 6    1  0.1132867E-002  0.3000000E+03  0.7818608E-02  0.1093470E+00
         21   -1    0    0  501  502  0.00000000000E+00  0.00000000000E+00  0.23091151179E+00  0.23091151179E+00  0.00000000000E+00 0.  1.
         13   -1    0    0    0    0 -0.00000000000E+00 -0.00000000000E+00 -0.10000000000E+04  0.10000000000E+04  0.00000000000E+00 0.  1.
    9000005    2    1    2  501    0  0.80352248869E+01 -0.55214268332E+01 -0.84610056150E+03  0.84625342232E+03  0.12792326312E+02 0.  0.
         13    1    3    3    0    0  0.77891808776E+01 -0.76514523405E+01 -0.40359424931E+03  0.40374191526E+03  0.00000000000E+00 0.  1.
          3    1    3    3  501    0  0.24604400925E+00  0.21300255074E+01 -0.44250631219E+03  0.44251150705E+03  0.00000000000E+00 0.  1.
         -1    1    1    2    0  502 -0.80352248869E+01  0.55214268332E+01 -0.15366852699E+03  0.15397748920E+03  0.00000000000E+00 0. -1.
<mgrwt>
<rscale>  1 0.30000000E+03</rscale>
<asrwt>0</asrwt>
<pdfrwt beam="1">  1       21 0.83968000E-03 0.30000000E+03</pdfrwt>
<pdfrwt beam="2">0</pdfrwt>
<totfact> 0.53278015E+05</totfact>
</mgrwt>
</event>
<event>
 6    1  0.1132867E-002  0.3000000E+03  0.7818608E-02  0.1093470E+00
         21   -1    0    0  501  502  0.00000000000E+00  0.00000000000E+00  0.23253427705E+00  0.23253427705E+00  0.00000000000E+00 0. -1.
         13   -1    0    0    0    0 -0.00000000000E+00 -0.00000000000E+00 -0.10000000000E+04  0.10000000000E+04  0.00000000000E+00 0.  1.
    9000005    2    1    2  501    0 -0.64767347318E+01  0.77288882070E+01 -0.85957589280E+03  0.85967876903E+03  0.86710228495E+01 0.  0.
         13    1    3    3    0    0 -0.35542197948E+01  0.48920167083E+01 -0.20252126934E+03  0.20261152198E+03  0.00000000000E+00 0.  1.
          3    1    3    3  501    0 -0.29225149369E+01  0.28368714987E+01 -0.65705462346E+03  0.65706724705E+03  0.00000000000E+00 0.  1.
         -1    1    1    2    0  502  0.64767347318E+01 -0.77288882070E+01 -0.14019157292E+03  0.14055376524E+03  0.00000000000E+00 0. -1.
<mgrwt>
<rscale>  1 0.30000000E+03</rscale>
<asrwt>0</asrwt>
<pdfrwt beam="1">  1       21 0.84558097E-03 0.30000000E+03</pdfrwt>
<pdfrwt beam="2">0</pdfrwt>
<totfact> 0.52692437E+05</totfact>
</mgrwt>
</event>
<event>
 6    1  0.1132867E-002  0.3000000E+03  0.7818608E-02  0.1093470E+00
         21   -1    0    0  501  502  0.00000000000E+00  0.00000000000E+00  0.16689426173E+01  0.16689426173E+01  0.00000000000E+00 0. -1.
         13   -1    0    0    0    0 -0.00000000000E+00 -0.00000000000E+00 -0.10000000000E+04  0.10000000000E+04  0.00000000000E+00 0.  1.
    9000005    2    1    2  501    0 -0.16149796423E+02  0.25275071231E+02 -0.82874342724E+03  0.82944928797E+03  0.16456243995E+02 0.  0.
         13    1    3    3    0    0 -0.10630224707E+02  0.26945537234E+01 -0.26455483033E+03  0.26478202459E+03  0.00000000000E+00 0.  1.
          1    1    3    3  501    0 -0.55195717151E+01  0.22580517507E+02 -0.56418859691E+03  0.56466726337E+03  0.00000000000E+00 0.  1.
         -3    1    1    2    0  502  0.16149796423E+02 -0.25275071231E+02 -0.16958763014E+03  0.17221965465E+03  0.00000000000E+00 0. -1.
<mgrwt>
<rscale>  1 0.30000000E+03</rscale>
<asrwt>0</asrwt>
<pdfrwt beam="1">  1       21 0.60688950E-02 0.30000000E+03</pdfrwt>
<pdfrwt beam="2">0</pdfrwt>
<totfact> 0.20660721E+04</totfact>
</mgrwt>
</event>
<event>
 6    1  0.1132867E-002  0.3000000E+03  0.7818608E-02  0.1093470E+00
         21   -1    0    0  501  502  0.00000000000E+00  0.00000000000E+00  0.20428640132E+00  0.20428640132E+00  0.00000000000E+00 0.  1.
         13   -1    0    0    0    0 -0.00000000000E+00 -0.00000000000E+00 -0.10000000000E+04  0.10000000000E+04  0.00000000000E+00 0.  1.
    9000005    2    1    2  501    0  0.77562495289E+01  0.29578075828E+01 -0.60210536526E+03  0.60242731222E+03  0.17857424035E+02 0.  0.
         13    1    3    3    0    0 -0.87765079926E+00 -0.66361733090E+01 -0.23405651130E+03  0.23415221449E+03  0.00000000000E+00 0.  1.
          3    1    3    3  501    0  0.86339003282E+01  0.95939808917E+01 -0.36804885396E+03  0.36827509773E+03  0.00000000000E+00 0.  1.
         -3    1    1    2    0  502 -0.77562495289E+01 -0.29578075828E+01 -0.39769034834E+03  0.39777697419E+03  0.00000000000E+00 0. -1.
<mgrwt>
<rscale>  1 0.30000000E+03</rscale>
<asrwt>0</asrwt>
<pdfrwt beam="1">  1       21 0.74286121E-03 0.30000000E+03</pdfrwt>
<pdfrwt beam="2">0</pdfrwt>
<totfact> 0.64616701E+05</totfact>
</mgrwt>
</event>
<event>
 6    1  0.1132867E-002  0.3000000E+03  0.7818608E-02  0.1093470E+00
         21   -1    0    0  501  502  0.00000000000E+00  0.00000000000E+00  0.35028555241E+00  0.35028555241E+00  0.00000000000E+00 0. -1.
         13   -1    0    0    0    0 -0.00000000000E+00 -0.00000000000E+00 -0.10000000000E+04  0.10000000000E+04  0.00000000000E+00 0.  1.
    9000005    2    1    2  501    0 -0.84584524890E+01  0.57725390900E+01 -0.90293298758E+03  0.90309293169E+03  0.13564496535E+02 0.  0.
         13    1    3    3    0    0 -0.99785191942E+01  0.54591896760E+01 -0.41063729104E+03  0.41079478866E+03  0.00000000000E+00 0.  1.
          3    1    3    3  501    0  0.15200667052E+01  0.31334941400E+00 -0.49229569655E+03  0.49229814303E+03  0.00000000000E+00 0.  1.
         -3    1    1    2    0  502  0.84584524890E+01 -0.57725390900E+01 -0.96716726863E+02  0.97257353867E+02  0.00000000000E+00 0. -1.
<mgrwt>
<rscale>  1 0.30000000E+03</rscale>
<asrwt>0</asrwt>
<pdfrwt beam="1">  1       21 0.12737683E-02 0.30000000E+03</pdfrwt>
<pdfrwt beam="2">0</pdfrwt>
<totfact> 0.27476402E+05</totfact>
</mgrwt>
</event>
<event>
 6    1  0.1132867E-002  0.3000000E+03  0.7818608E-02  0.1093470E+00
         21   -1    0    0  501  502  0.00000000000E+00  0.00000000000E+00  0.49050989136E+00  0.49050989136E+00  0.00000000000E+00 0. -1.
         13   -1    0    0    0    0 -0.00000000000E+00 -0.00000000000E+00 -0.10000000000E+04  0.10000000000E+04  0.00000000000E+00 0.  1.
    9000005    2    1    2  501    0 -0.10460359646E+02 -0.22494720048E+01 -0.92544868159E+03  0.92566081922E+03  0.16679650042E+02 0.  0.
         13    1    3    3    0    0 -0.12213347704E+02  0.14442751952E+00 -0.89124268231E+03  0.89132637429E+03  0.00000000000E+00 0.  1.
          1    1    3    3  501    0  0.17529880581E+01 -0.23938995244E+01 -0.34205999277E+02  0.34334444929E+02  0.00000000000E+00 0.  1.
         -3    1    1    2    0  502  0.10460359646E+02  0.22494720048E+01 -0.74060808519E+02  0.74829690676E+02  0.00000000000E+00 0. -1.
<mgrwt>
<rscale>  1 0.30000000E+03</rscale>
<asrwt>0</asrwt>
<pdfrwt beam="1">  1       21 0.17836761E-02 0.30000000E+03</pdfrwt>
<pdfrwt beam="2">0</pdfrwt>
<totfact> 0.15968292E+05</totfact>
</mgrwt>
</event>
<event>
 6    1  0.1132867E-002  0.3000000E+03  0.7818608E-02  0.1093470E+00
         21   -1    0    0  501  502  0.00000000000E+00  0.00000000000E+00  0.56217720597E+01  0.56217720597E+01  0.00000000000E+00 0. -1.
         13   -1    0    0    0    0 -0.00000000000E+00 -0.00000000000E+00 -0.10000000000E+04  0.10000000000E+04  0.00000000000E+00 0.  1.
    9000005    2    1    2  501    0 -0.19753045685E+02 -0.15670947157E+02 -0.97054623232E+03  0.97092702586E+03  0.10175415270E+02 0.  0.
         13    1    3    3    0    0 -0.12892245308E+02 -0.49504724392E+01 -0.60972663051E+03  0.60988300609E+03  0.00000000000E+00 0.  1.
          1    1    3    3  501    0 -0.68608003767E+01 -0.10720474717E+02 -0.36081960181E+03  0.36104401977E+03  0.00000000000E+00 0.  1.
         -1    1    1    2    0  502  0.19753045685E+02  0.15670947157E+02 -0.23831995620E+02  0.34694746200E+02  0.00000000000E+00 0. -1.
<mgrwt>
<rscale>  1 0.30000000E+03</rscale>
<asrwt>0</asrwt>
<pdfrwt beam="1">  1       21 0.20442851E-01 0.30000000E+03</pdfrwt>
<pdfrwt beam="2">0</pdfrwt>
<totfact> 0.23008850E+03</totfact>
</mgrwt>
</event>
<event>
 6    1  0.1132867E-002  0.3000000E+03  0.7818608E-02  0.1093470E+00
         21   -1    0    0  501  502  0.00000000000E+00  0.00000000000E+00  0.31824925790E+00  0.31824925790E+00  0.00000000000E+00 0. -1.
         13   -1    0    0    0    0 -0.00000000000E+00 -0.00000000000E+00 -0.10000000000E+04  0.10000000000E+04  0.00000000000E+00 0.  1.
    9000005    2    1    2  501    0 -0.98298734186E+01  0.28034207640E+01 -0.71816938290E+03  0.71862036353E+03  0.23312630818E+02 0.  0.
         13    1    3    3    0    0 -0.16869223167E+02  0.51296159127E+01 -0.55970078945E+03  0.55997844366E+03  0.00000000000E+00 0.  1.
          3    1    3    3  501    0  0.70393497480E+01 -0.23261951487E+01 -0.15846859345E+03  0.15864191987E+03  0.00000000000E+00 0.  1.
         -1    1    1    2    0  502  0.98298734186E+01 -0.28034207640E+01 -0.28151236784E+03  0.28169788573E+03  0.00000000000E+00 0. -1.
<mgrwt>
<rscale>  1 0.30000000E+03</rscale>
<asrwt>0</asrwt>
<pdfrwt beam="1">  1       21 0.11572725E-02 0.30000000E+03</pdfrwt>
<pdfrwt beam="2">0</pdfrwt>
<totfact> 0.32027356E+05</totfact>
</mgrwt>
</event>
<event>
 6    1  0.1132867E-002  0.3000000E+03  0.7818608E-02  0.1093470E+00
         21   -1    0    0  501  502  0.00000000000E+00  0.00000000000E+00  0.29542747403E+00  0.29542747403E+00  0.00000000000E+00 0. -1.
         13   -1    0    0    0    0 -0.00000000000E+00 -0.00000000000E+00 -0.10000000000E+04  0.10000000000E+04  0.00000000000E+00 0.  1.
    9000005    2    1    2  501    0  0.15851507141E+02 -0.54921794420E+01 -0.57928516176E+03  0.57954144323E+03  0.39435345685E+01 0.  0.
         13    1    3    3    0    0  0.95831232474E+01 -0.15471299620E+01 -0.29427078215E+03  0.29443084602E+03  0.00000000000E+00 0.  1.
          1    1    3    3  501    0  0.62683838939E+01 -0.39450494799E+01 -0.28501437961E+03  0.28511059720E+03  0.00000000000E+00 0.  1.
         -3    1    1    2    0  502 -0.15851507141E+02  0.54921794420E+01 -0.42041941076E+03  0.42075398425E+03  0.00000000000E+00 0. -1.
<mgrwt>
<rscale>  1 0.30000000E+03</rscale>
<asrwt>0</asrwt>
<pdfrwt beam="1">  1       21 0.10742840E-02 0.30000000E+03</pdfrwt>
<pdfrwt beam="2">0</pdfrwt>
<totfact> 0.36058163E+05</totfact>
</mgrwt>
</event>
<event>
 6    1  0.1132867E-002  0.3000000E+03  0.7818608E-02  0.1093470E+00
         21   -1    0    0  501  502  0.00000000000E+00  0.00000000000E+00  0.23601544982E+00  0.23601544982E+00  0.00000000000E+00 0. -1.
         13   -1    0    0    0    0 -0.00000000000E+00 -0.00000000000E+00 -0.10000000000E+04  0.10000000000E+04  0.00000000000E+00 0.  1.
    9000005    2    1    2  501    0  0.92484793460E+01  0.62442098705E+01 -0.82572393115E+03  0.82583858222E+03  0.80516392141E+01 0.  0.
         13    1    3    3    0    0  0.10060923050E+02  0.31990832183E+01 -0.60409803276E+03  0.60419027590E+03  0.00000000000E+00 0.  1.
          3    1    3    3  501    0 -0.81244370354E+00  0.30451266522E+01 -0.22162589838E+03  0.22164830632E+03  0.00000000000E+00 0.  1.
         -3    1    1    2    0  502 -0.92484793460E+01 -0.62442098705E+01 -0.17404005340E+03  0.17439743323E+03  0.00000000000E+00 0. -1.
<mgrwt>
<rscale>  1 0.30000000E+03</rscale>
<asrwt>0</asrwt>
<pdfrwt beam="1">  1       21 0.85823981E-03 0.30000000E+03</pdfrwt>
<pdfrwt beam="2">0</pdfrwt>
<totfact> 0.51470841E+05</totfact>
</mgrwt>
</event>
<event>
 6    1  0.1132867E-002  0.3000000E+03  0.7818608E-02  0.1093470E+00
         21   -1    0    0  501  502  0.00000000000E+00  0.00000000000E+00  0.17739712844E+00  0.17739712844E+00  0.00000000000E+00 0. -1.
         13   -1    0    0    0    0 -0.00000000000E+00 -0.00000000000E+00 -0.10000000000E+04  0.10000000000E+04  0.00000000000E+00 0.  1.
    9000005    2    1    2  501    0  0.93521242312E+01 -0.18945370685E+00 -0.81489395202E+03  0.81501232476E+03  0.10268317661E+02 0.  0.
         13    1    3    3    0    0  0.69237684078E+01 -0.39020871587E+01 -0.67784397334E+03  0.67789056421E+03  0.00000000000E+00 0.  1.
          3    1    3    3  501    0  0.24283558233E+01  0.37126334519E+01 -0.13704997868E+03  0.13712176055E+03  0.00000000000E+00 0.  1.
         -3    1    1    2    0  502 -0.93521242312E+01  0.18945370685E+00 -0.18492865085E+03  0.18516507237E+03  0.00000000000E+00 0. -1.
<mgrwt>
<rscale>  1 0.30000000E+03</rscale>
<asrwt>0</asrwt>
<pdfrwt beam="1">  1       21 0.64508183E-03 0.30000000E+03</pdfrwt>
<pdfrwt beam="2">0</pdfrwt>
<totfact> 0.80616606E+05</totfact>
</mgrwt>
</event>
<event>
 6    1  0.1132867E-002  0.3000000E+03  0.7818608E-02  0.1093470E+00
         21   -1    0    0  501  502  0.00000000000E+00  0.00000000000E+00  0.16157467279E+00  0.16157467279E+00  0.00000000000E+00 0. -1.
         13   -1    0    0    0    0 -0.00000000000E+00 -0.00000000000E+00 -0.10000000000E+04  0.10000000000E+04  0.00000000000E+00 0.  1.
    9000005    2    1    2  501    0 -0.10006476186E+01 -0.91552252056E+01 -0.79741076430E+03  0.79752451638E+03  0.98289248116E+01 0.  0.
         13    1    3    3    0    0  0.17804495436E+01 -0.70380419832E+01 -0.71818038258E+03  0.71821707439E+03  0.00000000000E+00 0.  1.
          3    1    3    3  501    0 -0.27810971622E+01 -0.21171832224E+01 -0.79230381727E+02  0.79307441989E+02  0.00000000000E+00 0.  1.
         -3    1    1    2    0  502  0.10006476186E+01  0.91552252056E+01 -0.20242766103E+03  0.20263705829E+03  0.00000000000E+00 0. -1.
<mgrwt>
<rscale>  1 0.30000000E+03</rscale>
<asrwt>0</asrwt>
<pdfrwt beam="1">  1       21 0.58754550E-03 0.30000000E+03</pdfrwt>
<pdfrwt beam="2">0</pdfrwt>
<totfact> 0.93287042E+05</totfact>
</mgrwt>
</event>
<event>
 6    1  0.1132867E-002  0.3000000E+03  0.7818608E-02  0.1093470E+00
         21   -1    0    0  501  502  0.00000000000E+00  0.00000000000E+00  0.93917960047E-01  0.93917960047E-01  0.00000000000E+00 0. -1.
         13   -1    0    0    0    0 -0.00000000000E+00 -0.00000000000E+00 -0.10000000000E+04  0.10000000000E+04  0.00000000000E+00 0.  1.
    9000005    2    1    2  501    0 -0.77187986701E+01  0.23858613962E+01 -0.68892880733E+03  0.68901171408E+03  0.69977408418E+01 0.  0.
         13    1    3    3    0    0 -0.15821255513E+01 -0.20948754250E+01 -0.10221380921E+03  0.10224751546E+03  0.00000000000E+00 0.  1.
          1    1    3    3  501    0 -0.61366731188E+01  0.44807368212E+01 -0.58671499812E+03  0.58676419862E+03  0.00000000000E+00 0.  1.
         -3    1    1    2    0  502  0.77187986701E+01 -0.23858613962E+01 -0.31097727471E+03  0.31108220388E+03  0.00000000000E+00 0. -1.
<mgrwt>
<rscale>  1 0.30000000E+03</rscale>
<asrwt>0</asrwt>
<pdfrwt beam="1">  1       21 0.34152057E-03 0.30000000E+03</pdfrwt>
<pdfrwt beam="2">0</pdfrwt>
<totfact> 0.21600477E+06</totfact>
</mgrwt>
</event>
<event>
 6    1  0.1132867E-002  0.3000000E+03  0.7818608E-02  0.1093470E+00
         21   -1    0    0  501  502  0.00000000000E+00  0.00000000000E+00  0.17312618906E+00  0.17312618906E+00  0.00000000000E+00 0. -1.
         13   -1    0    0    0    0 -0.00000000000E+00 -0.00000000000E+00 -0.10000000000E+04  0.10000000000E+04  0.00000000000E+00 0.  1.
    9000005    2    1    2  501    0  0.68043173132E+01 -0.10615881631E+02 -0.60052719626E+03  0.60067440507E+03  0.42227705706E+01 0.  0.
         13    1    3    3    0    0  0.29399221394E+01 -0.73523487900E+01 -0.42736757522E+03  0.42744092519E+03  0.00000000000E+00 0.  1.
          3    1    3    3  501    0  0.38643951738E+01 -0.32635328410E+01 -0.17315962103E+03  0.17323347988E+03  0.00000000000E+00 0.  1.
         -1    1    1    2    0  502 -0.68043173132E+01  0.10615881631E+02 -0.39929967756E+03  0.39949872111E+03  0.00000000000E+00 0. -1.
<mgrwt>
<rscale>  1 0.30000000E+03</rscale>
<asrwt>0</asrwt>
<pdfrwt beam="1">  1       21 0.62955111E-03 0.30000000E+03</pdfrwt>
<pdfrwt beam="2">0</pdfrwt>
<totfact> 0.83749745E+05</totfact>
</mgrwt>
</event>
<event>
 6    1  0.1132867E-002  0.3000000E+03  0.7818608E-02  0.1093470E+00
         21   -1    0    0  501  502  0.00000000000E+00  0.00000000000E+00  0.25625897035E+00  0.25625897035E+00  0.00000000000E+00 0. -1.
         13   -1    0    0    0    0 -0.00000000000E+00 -0.00000000000E+00 -0.10000000000E+04  0.10000000000E+04  0.00000000000E+00 0.  1.
    9000005    2    1    2  501    0  0.39749235875E+01  0.10118812930E+02 -0.85017896788E+03  0.85029689194E+03  0.90739531513E+01 0.  0.
         13    1    3    3    0    0  0.45506775757E+01  0.13107706457E+01 -0.19041326468E+03  0.19047214534E+03  0.00000000000E+00 0.  1.
          3    1    3    3  501    0 -0.57575398817E+00  0.88080422846E+01 -0.65976570320E+03  0.65982474659E+03  0.00000000000E+00 0.  1.
         -1    1    1    2    0  502 -0.39749235875E+01 -0.10118812930E+02 -0.14956477315E+03  0.14995936703E+03  0.00000000000E+00 0. -1.
<mgrwt>
<rscale>  1 0.30000000E+03</rscale>
<asrwt>0</asrwt>
<pdfrwt beam="1">  1       21 0.93185277E-03 0.30000000E+03</pdfrwt>
<pdfrwt beam="2">0</pdfrwt>
<totfact> 0.45192873E+05</totfact>
</mgrwt>
</event>
<event>
 6    1  0.1132867E-002  0.3000000E+03  0.7818608E-02  0.1093470E+00
         21   -1    0    0  501  502  0.00000000000E+00  0.00000000000E+00  0.94305629826E+00  0.94305629826E+00  0.00000000000E+00 0. -1.
         13   -1    0    0    0    0 -0.00000000000E+00 -0.00000000000E+00 -0.10000000000E+04  0.10000000000E+04  0.00000000000E+00 0.  1.
    9000005    2    1    2  501    0  0.15195691209E+02  0.10208976689E+02 -0.89959439744E+03  0.89980982563E+03  0.72463894540E+01 0.  0.
         13    1    3    3    0    0  0.53714298825E+01  0.79714452578E+01 -0.43601207477E+03  0.43611801791E+03  0.00000000000E+00 0.  1.
          1    1    3    3  501    0  0.98242613269E+01  0.22375314311E+01 -0.46358232266E+03  0.46369180771E+03  0.00000000000E+00 0.  1.
         -1    1    1    2    0  502 -0.15195691209E+02 -0.10208976689E+02 -0.99462546266E+02  0.10113323067E+03  0.00000000000E+00 0. -1.
<mgrwt>
<rscale>  1 0.30000000E+03</rscale>
<asrwt>0</asrwt>
<pdfrwt beam="1">  1       21 0.34293029E-02 0.30000000E+03</pdfrwt>
<pdfrwt beam="2">0</pdfrwt>
<totfact> 0.54444397E+04</totfact>
</mgrwt>
</event>
<event>
 6    1  0.1132867E-002  0.3000000E+03  0.7818608E-02  0.1093470E+00
         21   -1    0    0  501  502  0.00000000000E+00  0.00000000000E+00  0.62227623960E+00  0.62227623960E+00  0.00000000000E+00 0. -1.
         13   -1    0    0    0    0 -0.00000000000E+00 -0.00000000000E+00 -0.10000000000E+04  0.10000000000E+04  0.00000000000E+00 0.  1.
    9000005    2    1    2  501    0 -0.78354491405E+01 -0.84347927548E+01 -0.32390503295E+03  0.32505148349E+03  0.24727647555E+02 0.  0.
         13    1    3    3    0    0 -0.77828052157E+01 -0.17001571620E+02 -0.22638415036E+03  0.22715503303E+03  0.00000000000E+00 0.  1.
          1    1    3    3  501    0 -0.52643924883E-01  0.85667788650E+01 -0.97520882586E+02  0.97896450455E+02  0.00000000000E+00 0.  1.
         -1    1    1    2    0  502  0.78354491405E+01  0.84347927548E+01 -0.67547269081E+03  0.67557079275E+03  0.00000000000E+00 0. -1.
<mgrwt>
<rscale>  1 0.30000000E+03</rscale>
<asrwt>0</asrwt>
<pdfrwt beam="1">  1       21 0.22628275E-02 0.30000000E+03</pdfrwt>
<pdfrwt beam="2">0</pdfrwt>
<totfact> 0.10832609E+05</totfact>
</mgrwt>
</event>
<event>
 6    1  0.1132867E-002  0.3000000E+03  0.7818608E-02  0.1093470E+00
         21   -1    0    0  501  502  0.00000000000E+00  0.00000000000E+00  0.49625098737E+00  0.49625098737E+00  0.00000000000E+00 0. -1.
         13   -1    0    0    0    0 -0.00000000000E+00 -0.00000000000E+00 -0.10000000000E+04  0.10000000000E+04  0.00000000000E+00 0.  1.
    9000005    2    1    2  501    0  0.79068604789E+01  0.62605021628E+01 -0.94467050668E+03  0.94474325291E+03  0.59779090867E+01 0.  0.
         13    1    3    3    0    0 -0.34866581813E+00  0.25959037521E+01 -0.25939043711E+03  0.25940366063E+03  0.00000000000E+00 0.  1.
          3    1    3    3  501    0  0.82555262971E+01  0.36645984107E+01 -0.68528006957E+03  0.68533959228E+03  0.00000000000E+00 0.  1.
         -1    1    1    2    0  502 -0.79068604789E+01 -0.62605021628E+01 -0.54833242334E+02  0.55752998079E+02  0.00000000000E+00 0. -1.
<mgrwt>
<rscale>  1 0.30000000E+03</rscale>
<asrwt>0</asrwt>
<pdfrwt beam="1">  1       21 0.18045529E-02 0.30000000E+03</pdfrwt>
<pdfrwt beam="2">0</pdfrwt>
<totfact> 0.15669542E+05</totfact>
</mgrwt>
</event>
<event>
 6    1  0.1132867E-002  0.3000000E+03  0.7818608E-02  0.1093470E+00
         21   -1    0    0  501  502  0.00000000000E+00  0.00000000000E+00  0.13863018689E+00  0.13863018689E+00  0.00000000000E+00 0. -1.
         13   -1    0    0    0    0 -0.00000000000E+00 -0.00000000000E+00 -0.10000000000E+04  0.10000000000E+04  0.00000000000E+00 0.  1.
    9000005    2    1    2  501    0  0.20860799032E+01  0.88701157635E+01 -0.72772854198E+03  0.72785328965E+03  0.99272236404E+01 0.  0.
         13    1    3    3    0    0  0.22233281665E+01  0.73787883335E+01 -0.71428733735E+03  0.71432890884E+03  0.00000000000E+00 0.  1.
          3    1    3    3  501    0 -0.13724826338E+00  0.14913274300E+01 -0.13441204627E+02  0.13524380815E+02  0.00000000000E+00 0.  1.
         -1    1    1    2    0  502 -0.20860799032E+01 -0.88701157635E+01 -0.27213282784E+03  0.27228534053E+03  0.00000000000E+00 0. -1.
<mgrwt>
<rscale>  1 0.30000000E+03</rscale>
<asrwt>0</asrwt>
<pdfrwt beam="1">  1       21 0.50411083E-03 0.30000000E+03</pdfrwt>
<pdfrwt beam="2">0</pdfrwt>
<totfact> 0.11839025E+06</totfact>
</mgrwt>
</event>
<event>
 6    1  0.1132867E-002  0.3000000E+03  0.7818608E-02  0.1093470E+00
         21   -1    0    0  501  502  0.00000000000E+00  0.00000000000E+00  0.97668809974E-01  0.97668809974E-01  0.00000000000E+00 0. -1.
         13   -1    0    0    0    0 -0.00000000000E+00 -0.00000000000E+00 -0.10000000000E+04  0.10000000000E+04  0.00000000000E+00 0.  1.
    9000005    2    1    2  501    0  0.56500804048E+01 -0.67110700450E+01 -0.57936885409E+03  0.57947269662E+03  0.65859825654E+01 0.  0.
         13    1    3    3    0    0 -0.46618206765E+00  0.19755751023E+00 -0.16642009970E+03  0.16642086990E+03  0.00000000000E+00 0.  1.
          3    1    3    3  501    0  0.61162624725E+01 -0.69086275552E+01 -0.41294875439E+03  0.41305182672E+03  0.00000000000E+00 0.  1.
         -1    1    1    2    0  502 -0.56500804048E+01  0.67110700450E+01 -0.42053347710E+03  0.42062497219E+03  0.00000000000E+00 0. -1.
<mgrwt>
<rscale>  1 0.30000000E+03</rscale>
<asrwt>0</asrwt>
<pdfrwt beam="1">  1       21 0.35516006E-03 0.30000000E+03</pdfrwt>
<pdfrwt beam="2">0</pdfrwt>
<totfact> 0.20339210E+06</totfact>
</mgrwt>
</event>
<event>
 6    1  0.1132867E-002  0.3000000E+03  0.7818608E-02  0.1093470E+00
         21   -1    0    0  501  502  0.00000000000E+00  0.00000000000E+00  0.49775191443E+00  0.49775191443E+00  0.00000000000E+00 0.  1.
         13   -1    0    0    0    0 -0.00000000000E+00 -0.00000000000E+00 -0.10000000000E+04  0.10000000000E+04  0.00000000000E+00 0.  1.
    9000005    2    1    2  501    0  0.51484793978E+01 -0.13647304722E+02 -0.75272107362E+03  0.75328589168E+03  0.25255973104E+02 0.  0.
         13    1    3    3    0    0 -0.64786459693E+01 -0.13284904203E+02 -0.57193132874E+03  0.57212228267E+03  0.00000000000E+00 0.  1.
          3    1    3    3  501    0  0.11627125367E+02 -0.36240051921E+00 -0.18078974488E+03  0.18116360902E+03  0.00000000000E+00 0.  1.
         -3    1    1    2    0  502 -0.51484793978E+01  0.13647304722E+02 -0.24678117447E+03  0.24721186023E+03  0.00000000000E+00 0. -1.
<mgrwt>
<rscale>  1 0.30000000E+03</rscale>
<asrwt>0</asrwt>
<pdfrwt beam="1">  1       21 0.18100108E-02 0.30000000E+03</pdfrwt>
<pdfrwt beam="2">0</pdfrwt>
<totfact> 0.15592908E+05</totfact>
</mgrwt>
</event>
<event>
 6    1  0.1132867E-002  0.3000000E+03  0.7818608E-02  0.1093470E+00
         21   -1    0    0  501  502  0.00000000000E+00  0.00000000000E+00  0.38688244953E+00  0.38688244953E+00  0.00000000000E+00 0. -1.
         13   -1    0    0    0    0 -0.00000000000E+00 -0.00000000000E+00 -0.10000000000E+04  0.10000000000E+04  0.00000000000E+00 0.  1.
    9000005    2    1    2  501    0  0.99576321705E+00 -0.14400919272E+02 -0.81482945451E+03  0.81504023385E+03  0.11626041359E+02 0.  0.
         13    1    3    3    0    0  0.13376543015E+01 -0.12533564826E+02 -0.38442025985E+03  0.38462685261E+03  0.00000000000E+00 0.  1.
          1    1    3    3  501    0 -0.34189108442E+00 -0.18673544460E+01 -0.43040919466E+03  0.43041338124E+03  0.00000000000E+00 0.  1.
         -1    1    1    2    0  502 -0.99576321705E+00  0.14400919272E+02 -0.18478366304E+03  0.18534664860E+03  0.00000000000E+00 0. -1.
<mgrwt>
<rscale>  1 0.30000000E+03</rscale>
<asrwt>0</asrwt>
<pdfrwt beam="1">  1       21 0.14068482E-02 0.30000000E+03</pdfrwt>
<pdfrwt beam="2">0</pdfrwt>
<totfact> 0.23426158E+05</totfact>
</mgrwt>
</event>
<event>
 6    1  0.1132867E-002  0.3000000E+03  0.7818608E-02  0.1093470E+00
         21   -1    0    0  501  502  0.00000000000E+00  0.00000000000E+00  0.23685351519E+00  0.23685351519E+00  0.00000000000E+00 0. -1.
         13   -1    0    0    0    0 -0.00000000000E+00 -0.00000000000E+00 -0.10000000000E+04  0.10000000000E+04  0.00000000000E+00 0.  1.
    9000005    2    1    2  501    0  0.21062338845E+01 -0.95363269143E+01 -0.86558644713E+03  0.86570520519E+03  0.10498908527E+02 0.  0.
         13    1    3    3    0    0  0.37277648439E+01 -0.50595790970E+01 -0.19377223678E+03  0.19387412236E+03  0.00000000000E+00 0.  1.
          1    1    3    3  501    0 -0.16215309595E+01 -0.44767478173E+01 -0.67181421034E+03  0.67183108283E+03  0.00000000000E+00 0.  1.
         -3    1    1    2    0  502 -0.21062338845E+01  0.95363269143E+01 -0.13417669936E+03  0.13453164833E+03  0.00000000000E+00 0. -1.
<mgrwt>
<rscale>  1 0.30000000E+03</rscale>
<asrwt>0</asrwt>
<pdfrwt beam="1">  1       21 0.86128733E-03 0.30000000E+03</pdfrwt>
<pdfrwt beam="2">0</pdfrwt>
<totfact> 0.51183587E+05</totfact>
</mgrwt>
</event>
<event>
 6    1  0.1132867E-002  0.3000000E+03  0.7818608E-02  0.1093470E+00
         21   -1    0    0  501  502  0.00000000000E+00  0.00000000000E+00  0.14573017228E+00  0.14573017228E+00  0.00000000000E+00 0. -1.
         13   -1    0    0    0    0 -0.00000000000E+00 -0.00000000000E+00 -0.10000000000E+04  0.10000000000E+04  0.00000000000E+00 0.  1.
    9000005    2    1    2  501    0 -0.87262539396E+01  0.37629296024E+01 -0.66303488820E+03  0.66319231649E+03  0.10884784973E+02 0.  0.
         13    1    3    3    0    0  0.89978248674E+00  0.38897782514E+01 -0.31167426019E+03  0.31169983068E+03  0.00000000000E+00 0.  1.
          1    1    3    3  501    0 -0.96260364264E+01 -0.12684864903E+00 -0.35136062801E+03  0.35149248581E+03  0.00000000000E+00 0.  1.
         -3    1    1    2    0  502  0.87262539396E+01 -0.37629296024E+01 -0.33681938163E+03  0.33695341368E+03  0.00000000000E+00 0. -1.
<mgrwt>
<rscale>  1 0.30000000E+03</rscale>
<asrwt>0</asrwt>
<pdfrwt beam="1">  1       21 0.52992902E-03 0.30000000E+03</pdfrwt>
<pdfrwt beam="2">0</pdfrwt>
<totfact> 0.10954906E+06</totfact>
</mgrwt>
</event>
<event>
 6    1  0.1132867E-002  0.3000000E+03  0.7818608E-02  0.1093470E+00
         21   -1    0    0  501  502  0.00000000000E+00  0.00000000000E+00  0.49846830638E+00  0.49846830638E+00  0.00000000000E+00 0. -1.
         13   -1    0    0    0    0 -0.00000000000E+00 -0.00000000000E+00 -0.10000000000E+04  0.10000000000E+04  0.00000000000E+00 0.  1.
    9000005    2    1    2  501    0  0.57660749388E+01 -0.10775741225E+02 -0.91532354350E+03  0.91543791391E+03  0.77473031271E+01 0.  0.
         13    1    3    3    0    0 -0.85449087968E+00 -0.62502339895E+00 -0.17167289658E+02  0.17199902416E+02  0.00000000000E+00 0.  1.
          3    1    3    3  501    0  0.66205658185E+01 -0.10150717826E+02 -0.89815625385E+03  0.89823801149E+03  0.00000000000E+00 0.  1.
         -3    1    1    2    0  502 -0.57660749388E+01  0.10775741225E+02 -0.84177988189E+02  0.85060554399E+02  0.00000000000E+00 0. -1.
<mgrwt>
<rscale>  1 0.30000000E+03</rscale>
<asrwt>0</asrwt>
<pdfrwt beam="1">  1       21 0.18126158E-02 0.30000000E+03</pdfrwt>
<pdfrwt beam="2">0</pdfrwt>
<totfact> 0.15556542E+05</totfact>
</mgrwt>
</event>
<event>
 6    1  0.1132867E-002  0.3000000E+03  0.7818608E-02  0.1093470E+00
         21   -1    0    0  501  502  0.00000000000E+00  0.00000000000E+00  0.17566326690E+00  0.17566326690E+00  0.00000000000E+00 0. -1.
         13   -1    0    0    0    0 -0.00000000000E+00 -0.00000000000E+00 -0.10000000000E+04  0.10000000000E+04  0.00000000000E+00 0.  1.
    9000005    2    1    2  501    0 -0.77073833774E+01  0.93110698509E+01 -0.56594395844E+03  0.56612695350E+03  0.78143206423E+01 0.  0.
         13    1    3    3    0    0 -0.49548290884E+01  0.63103115668E+01 -0.20070478231E+03  0.20086507911E+03  0.00000000000E+00 0.  1.
          3    1    3    3  501    0 -0.27525542890E+01  0.30007582841E+01 -0.36523917613E+03  0.36526187440E+03  0.00000000000E+00 0.  1.
         -3    1    1    2    0  502  0.77073833774E+01 -0.93110698509E+01 -0.43388037829E+03  0.43404870976E+03  0.00000000000E+00 0. -1.
<mgrwt>
<rscale>  1 0.30000000E+03</rscale>
<asrwt>0</asrwt>
<pdfrwt beam="1">  1       21 0.63877686E-03 0.30000000E+03</pdfrwt>
<pdfrwt beam="2">0</pdfrwt>
<totfact> 0.81865164E+05</totfact>
</mgrwt>
</event>
<event>
 6    1  0.1132867E-002  0.3000000E+03  0.7818608E-02  0.1093470E+00
         21   -1    0    0  501  502  0.00000000000E+00  0.00000000000E+00  0.12891034026E+00  0.12891034026E+00  0.00000000000E+00 0. -1.
         13   -1    0    0    0    0 -0.00000000000E+00 -0.00000000000E+00 -0.10000000000E+04  0.10000000000E+04  0.00000000000E+00 0.  1.
    9000005    2    1    2  501    0 -0.18288804642E+01 -0.10015205177E+02 -0.67251076422E+03  0.67261031268E+03  0.55005089809E+01 0.  0.
         13    1    3    3    0    0 -0.34324054926E+01 -0.73079493371E+01 -0.54950186827E+03  0.54956118018E+03  0.00000000000E+00 0.  1.
          1    1    3    3  501    0  0.16035250284E+01 -0.27072558401E+01 -0.12300889595E+03  0.12304913250E+03  0.00000000000E+00 0.  1.
         -3    1    1    2    0  502  0.18288804642E+01  0.10015205177E+02 -0.32736032544E+03  0.32751859766E+03  0.00000000000E+00 0. -1.
<mgrwt>
<rscale>  1 0.30000000E+03</rscale>
<asrwt>0</asrwt>
<pdfrwt beam="1">  1       21 0.46876586E-03 0.30000000E+03</pdfrwt>
<pdfrwt beam="2">0</pdfrwt>
<totfact> 0.13252644E+06</totfact>
</mgrwt>
</event>
<event>
 6    1  0.1132867E-002  0.3000000E+03  0.7818608E-02  0.1093470E+00
         21   -1    0    0  501  502  0.00000000000E+00  0.00000000000E+00  0.76091843365E-01  0.76091843365E-01  0.00000000000E+00 0. -1.
         13   -1    0    0    0    0 -0.00000000000E+00 -0.00000000000E+00 -0.10000000000E+04  0.10000000000E+04  0.00000000000E+00 0.  1.
    9000005    2    1    2  501    0  0.57176187366E+01 -0.47627530020E+01 -0.56034851565E+03  0.56043771695E+03  0.66783688506E+01 0.  0.
         13    1    3    3    0    0  0.32245194787E+00  0.16102160233E+01 -0.84795331340E+02  0.84811231497E+02  0.00000000000E+00 0.  1.
          3    1    3    3  501    0  0.53951667888E+01 -0.63729690253E+01 -0.47555318431E+03  0.47562648545E+03  0.00000000000E+00 0.  1.
         -1    1    1    2    0  502 -0.57176187366E+01  0.47627530020E+01 -0.43957539251E+03  0.43963837489E+03  0.00000000000E+00 0. -1.
<mgrwt>
<rscale>  1 0.30000000E+03</rscale>
<asrwt>0</asrwt>
<pdfrwt beam="1">  1       21 0.27669820E-03 0.30000000E+03</pdfrwt>
<pdfrwt beam="2">0</pdfrwt>
<totfact> 0.29818995E+06</totfact>
</mgrwt>
</event>
<event>
 6    1  0.1132867E-002  0.3000000E+03  0.7818608E-02  0.1093470E+00
         21   -1    0    0  501  502  0.00000000000E+00  0.00000000000E+00  0.18374485291E+00  0.18374485291E+00  0.00000000000E+00 0. -1.
         13   -1    0    0    0    0 -0.00000000000E+00 -0.00000000000E+00 -0.10000000000E+04  0.10000000000E+04  0.00000000000E+00 0.  1.
    9000005    2    1    2  501    0  0.95469112075E+01 -0.27516884763E+01 -0.77836080105E+03  0.77850552433E+03  0.11251644516E+02 0.  0.
         13    1    3    3    0    0 -0.13136709332E+01 -0.20144844296E+01 -0.34377734656E+03  0.34378575870E+03  0.00000000000E+00 0.  1.
          3    1    3    3  501    0  0.10860582141E+02 -0.73720404670E+00 -0.43458345449E+03  0.43471976563E+03  0.00000000000E+00 0.  1.
         -1    1    1    2    0  502 -0.95469112075E+01  0.27516884763E+01 -0.22145545410E+03  0.22167822052E+03  0.00000000000E+00 0. -1.
<mgrwt>
<rscale>  1 0.30000000E+03</rscale>
<asrwt>0</asrwt>
<pdfrwt beam="1">  1       21 0.66816451E-03 0.30000000E+03</pdfrwt>
<pdfrwt beam="2">0</pdfrwt>
<totfact> 0.76299700E+05</totfact>
</mgrwt>
</event>
<event>
 6    1  0.1132867E-002  0.3000000E+03  0.7818608E-02  0.1093470E+00
         21   -1    0    0  501  502  0.00000000000E+00  0.00000000000E+00  0.20715873282E+00  0.20715873282E+00  0.00000000000E+00 0. -1.
         13   -1    0    0    0    0 -0.00000000000E+00 -0.00000000000E+00 -0.10000000000E+04  0.10000000000E+04  0.00000000000E+00 0.  1.
    9000005    2    1    2  501    0 -0.34512450853E+01 -0.10410722592E+02 -0.61258163725E+03  0.61284065172E+03  0.14039511007E+02 0.  0.
         13    1    3    3    0    0 -0.78106658693E+01 -0.15906628642E+01 -0.28222820651E+03  0.28234074672E+03  0.00000000000E+00 0.  1.
          1    1    3    3  501    0  0.43594207839E+01 -0.88200597277E+01 -0.33035343074E+03  0.33049990500E+03  0.00000000000E+00 0.  1.
         -1    1    1    2    0  502  0.34512450853E+01  0.10410722592E+02 -0.38721120401E+03  0.38736650701E+03  0.00000000000E+00 0. -1.
<mgrwt>
<rscale>  1 0.30000000E+03</rscale>
<asrwt>0</asrwt>
<pdfrwt beam="1">  1       21 0.75330607E-03 0.30000000E+03</pdfrwt>
<pdfrwt beam="2">0</pdfrwt>
<totfact> 0.63214418E+05</totfact>
</mgrwt>
</event>
<event>
 6    1  0.1132867E-002  0.3000000E+03  0.7818608E-02  0.1093470E+00
         21   -1    0    0  501  502  0.00000000000E+00  0.00000000000E+00  0.16666776242E+01  0.16666776242E+01  0.00000000000E+00 0. -1.
         13   -1    0    0    0    0 -0.00000000000E+00 -0.00000000000E+00 -0.10000000000E+04  0.10000000000E+04  0.00000000000E+00 0.  1.
    9000005    2    1    2  501    0 -0.31296387819E+02 -0.69346532222E+01 -0.19792613475E+03  0.20061785308E+03  0.67241988528E+01 0.  0.
         13    1    3    3    0    0 -0.96145879102E+01 -0.29918591738E+01 -0.45056289169E+02  0.46167745404E+02  0.00000000000E+00 0.  1.
          3    1    3    3  501    0 -0.21681799909E+02 -0.39427940483E+01 -0.15286984558E+03  0.15445010767E+03  0.00000000000E+00 0.  1.
         -3    1    1    2    0  502  0.31296387819E+02  0.69346532222E+01 -0.80040718763E+03  0.80104882455E+03  0.00000000000E+00 0. -1.
<mgrwt>
<rscale>  1 0.30000000E+03</rscale>
<asrwt>0</asrwt>
<pdfrwt beam="1">  1       21 0.60606587E-02 0.30000000E+03</pdfrwt>
<pdfrwt beam="2">0</pdfrwt>
<totfact> 0.20709190E+04</totfact>
</mgrwt>
</event>
<event>
 6    1  0.1132867E-002  0.3000000E+03  0.7818608E-02  0.1093470E+00
         21   -1    0    0  501  502  0.00000000000E+00  0.00000000000E+00  0.27317911526E+00  0.27317911526E+00  0.00000000000E+00 0. -1.
         13   -1    0    0    0    0 -0.00000000000E+00 -0.00000000000E+00 -0.10000000000E+04  0.10000000000E+04  0.00000000000E+00 0.  1.
    9000005    2    1    2  501    0 -0.26153048722E+01 -0.95100840622E+01 -0.84566656162E+03  0.84589751716E+03  0.17128764756E+02 0.  0.
         13    1    3    3    0    0  0.94039698347E+00 -0.13936952643E+02 -0.64116282287E+03  0.64131496819E+03  0.00000000000E+00 0.  1.
          1    1    3    3  501    0 -0.35557018556E+01  0.44268685805E+01 -0.20450373875E+03  0.20458254897E+03  0.00000000000E+00 0.  1.
         -3    1    1    2    0  502  0.26153048722E+01  0.95100840622E+01 -0.15406025926E+03  0.15437566195E+03  0.00000000000E+00 0. -1.
<mgrwt>
<rscale>  1 0.30000000E+03</rscale>
<asrwt>0</asrwt>
<pdfrwt beam="1">  1       21 0.99338070E-03 0.30000000E+03</pdfrwt>
<pdfrwt beam="2">0</pdfrwt>
<totfact> 0.40837667E+05</totfact>
</mgrwt>
</event>
<event>
 6    1  0.1132867E-002  0.3000000E+03  0.7818608E-02  0.1093470E+00
         21   -1    0    0  501  502  0.00000000000E+00  0.00000000000E+00  0.39535052440E+00  0.39535052440E+00  0.00000000000E+00 0. -1.
         13   -1    0    0    0    0 -0.00000000000E+00 -0.00000000000E+00 -0.10000000000E+04  0.10000000000E+04  0.00000000000E+00 0.  1.
    9000005    2    1    2  501    0 -0.13629481129E+02 -0.86311652051E+01 -0.77948797767E+03  0.77968828454E+03  0.72148422193E+01 0.  0.
         13    1    3    3    0    0 -0.11429924413E+02 -0.99059398459E+01 -0.66067869122E+03  0.66085180173E+03  0.00000000000E+00 0.  1.
          3    1    3    3  501    0 -0.21995567160E+01  0.12747746407E+01 -0.11880928645E+03  0.11883648282E+03  0.00000000000E+00 0.  1.
         -3    1    1    2    0  502  0.13629481129E+02  0.86311652051E+01 -0.22011667180E+03  0.22070706598E+03  0.00000000000E+00 0. -1.
<mgrwt>
<rscale>  1 0.30000000E+03</rscale>
<asrwt>0</asrwt>
<pdfrwt beam="1">  1       21 0.14376413E-02 0.30000000E+03</pdfrwt>
<pdfrwt beam="2">0</pdfrwt>
<totfact> 0.22624752E+05</totfact>
</mgrwt>
</event>
<event>
 6    1  0.1132867E-002  0.3000000E+03  0.7818608E-02  0.1093470E+00
         21   -1    0    0  501  502  0.00000000000E+00  0.00000000000E+00  0.68304843962E-01  0.68304843962E-01  0.00000000000E+00 0. -1.
         13   -1    0    0    0    0 -0.00000000000E+00 -0.00000000000E+00 -0.10000000000E+04  0.10000000000E+04  0.00000000000E+00 0.  1.
    9000005    2    1    2  501    0  0.51718500632E+01 -0.55513596132E+01 -0.46577963763E+03  0.46586236498E+03  0.44166330388E+01 0.  0.
         13    1    3    3    0    0  0.14557334288E+01 -0.43120031789E+01 -0.31036180663E+03  0.31039517320E+03  0.00000000000E+00 0.  1.
          1    1    3    3  501    0  0.37161166344E+01 -0.12393564343E+01 -0.15541783100E+03  0.15546719178E+03  0.00000000000E+00 0.  1.
         -1    1    1    2    0  502 -0.51718500632E+01  0.55513596132E+01 -0.53415205753E+03  0.53420593987E+03  0.00000000000E+00 0. -1.
<mgrwt>
<rscale>  1 0.30000000E+03</rscale>
<asrwt>0</asrwt>
<pdfrwt beam="1">  1       21 0.24838177E-03 0.30000000E+03</pdfrwt>
<pdfrwt beam="2">0</pdfrwt>
<totfact> 0.35156519E+06</totfact>
</mgrwt>
</event>
<event>
 6    1  0.1132867E-002  0.3000000E+03  0.7818608E-02  0.1093470E+00
         21   -1    0    0  501  502  0.00000000000E+00  0.00000000000E+00  0.12961826283E+00  0.12961826283E+00  0.00000000000E+00 0. -1.
         13   -1    0    0    0    0 -0.00000000000E+00 -0.00000000000E+00 -0.10000000000E+04  0.10000000000E+04  0.00000000000E+00 0.  1.
    9000005    2    1    2  501    0  0.60206144378E+01  0.50056846707E+01 -0.60121233410E+03  0.60139468924E+03  0.12569681557E+02 0.  0.
         13    1    3    3    0    0  0.19877275066E+01  0.10166028961E+01 -0.16015924591E+02  0.16170787939E+02  0.00000000000E+00 0.  1.
          3    1    3    3  501    0  0.40328869312E+01  0.39890817746E+01 -0.58519640951E+03  0.58522390130E+03  0.00000000000E+00 0.  1.
         -1    1    1    2    0  502 -0.60206144378E+01 -0.50056846707E+01 -0.39865804764E+03  0.39873492903E+03  0.00000000000E+00 0. -1.
<mgrwt>
<rscale>  1 0.30000000E+03</rscale>
<asrwt>0</asrwt>
<pdfrwt beam="1">  1       21 0.47134013E-03 0.30000000E+03</pdfrwt>
<pdfrwt beam="2">0</pdfrwt>
<totfact> 0.13140648E+06</totfact>
</mgrwt>
</event>
<event>
 6    1  0.1132867E-002  0.3000000E+03  0.7818608E-02  0.1093470E+00
         21   -1    0    0  501  502  0.00000000000E+00  0.00000000000E+00  0.34601438243E+00  0.34601438243E+00  0.00000000000E+00 0. -1.
         13   -1    0    0    0    0 -0.00000000000E+00 -0.00000000000E+00 -0.10000000000E+04  0.10000000000E+04  0.00000000000E+00 0.  1.
    9000005    2    1    2  501    0  0.55482715913E+01  0.99916864269E+01 -0.54710336661E+03  0.54765110622E+03  0.21656945047E+02 0.  0.
         13    1    3    3    0    0 -0.62654418955E+01  0.10283834195E+02 -0.33761668084E+03  0.33783137241E+03  0.00000000000E+00 0.  1.
          3    1    3    3  501    0  0.11813713487E+02 -0.29214776776E+00 -0.20948668578E+03  0.20981973381E+03  0.00000000000E+00 0.  1.
         -3    1    1    2    0  502 -0.55482715913E+01 -0.99916864269E+01 -0.45255061901E+03  0.45269490816E+03  0.00000000000E+00 0. -1.
<mgrwt>
<rscale>  1 0.30000000E+03</rscale>
<asrwt>0</asrwt>
<pdfrwt beam="1">  1       21 0.12582368E-02 0.30000000E+03</pdfrwt>
<pdfrwt beam="2">0</pdfrwt>
<totfact> 0.28021397E+05</totfact>
</mgrwt>
</event>
<event>
 6    1  0.1132867E-002  0.3000000E+03  0.7818608E-02  0.1093470E+00
         21   -1    0    0  501  502  0.00000000000E+00  0.00000000000E+00  0.23075121422E+00  0.23075121422E+00  0.00000000000E+00 0. -1.
         13   -1    0    0    0    0 -0.00000000000E+00 -0.00000000000E+00 -0.10000000000E+04  0.10000000000E+04  0.00000000000E+00 0.  1.
    9000005    2    1    2  501    0  0.54910799717E+01  0.96134359292E+01 -0.74530696199E+03  0.74552773688E+03  0.14372500025E+02 0.  0.
         13    1    3    3    0    0  0.92222360001E+01  0.59408460536E+01 -0.63686111436E+03  0.63695558894E+03  0.00000000000E+00 0.  1.
          1    1    3    3  501    0 -0.37311560284E+01  0.36725898756E+01 -0.10844584762E+03  0.10857214794E+03  0.00000000000E+00 0.  1.
         -3    1    1    2    0  502 -0.54910799717E+01 -0.96134359292E+01 -0.25446228680E+03  0.25470301434E+03  0.00000000000E+00 0. -1.
<mgrwt>
<rscale>  1 0.30000000E+03</rscale>
<asrwt>0</asrwt>
<pdfrwt beam="1">  1       21 0.83909709E-03 0.30000000E+03</pdfrwt>
<pdfrwt beam="2">0</pdfrwt>
<totfact> 0.53336430E+05</totfact>
</mgrwt>
</event>
<event>
 6    1  0.1132867E-002  0.3000000E+03  0.7818608E-02  0.1093470E+00
         21   -1    0    0  501  502  0.00000000000E+00  0.00000000000E+00  0.71615650013E+00  0.71615650013E+00  0.00000000000E+00 0. -1.
         13   -1    0    0    0    0 -0.00000000000E+00 -0.00000000000E+00 -0.10000000000E+04  0.10000000000E+04  0.00000000000E+00 0.  1.
    9000005    2    1    2  501    0 -0.92514378512E+01  0.12255747752E+02 -0.90571193800E+03  0.90589266809E+03  0.95717819291E+01 0.  0.
         13    1    3    3    0    0 -0.33566179248E+01  0.11553652029E+02 -0.65470017430E+03  0.65481071463E+03  0.00000000000E+00 0.  1.
          1    1    3    3  501    0 -0.58948199263E+01  0.70209572267E+00 -0.25101176370E+03  0.25108195346E+03  0.00000000000E+00 0.  1.
         -1    1    1    2    0  502  0.92514378512E+01 -0.12255747752E+02 -0.93571905499E+02  0.94823488409E+02  0.00000000000E+00 0. -1.
<mgrwt>
<rscale>  1 0.30000000E+03</rscale>
<asrwt>0</asrwt>
<pdfrwt beam="1">  1       21 0.26042109E-02 0.30000000E+03</pdfrwt>
<pdfrwt beam="2">0</pdfrwt>
<totfact> 0.85985647E+04</totfact>
</mgrwt>
</event>
<event>
 6    1  0.1132867E-002  0.3000000E+03  0.7818608E-02  0.1093470E+00
         21   -1    0    0  501  502  0.00000000000E+00  0.00000000000E+00  0.19652155425E+01  0.19652155425E+01  0.00000000000E+00 0. -1.
         13   -1    0    0    0    0 -0.00000000000E+00 -0.00000000000E+00 -0.10000000000E+04  0.10000000000E+04  0.00000000000E+00 0.  1.
    9000005    2    1    2  501    0 -0.10130280802E+02 -0.64262505228E+01 -0.98005335969E+03  0.98034922790E+03  0.20883044030E+02 0.  0.
         13    1    3    3    0    0 -0.89962295840E+00  0.68945617632E+01 -0.43313434643E+03  0.43319015035E+03  0.00000000000E+00 0.  1.
          1    1    3    3  501    0 -0.92306578436E+01 -0.13320812286E+02 -0.54691901326E+03  0.54715907755E+03  0.00000000000E+00 0.  1.
         -1    1    1    2    0  502  0.10130280802E+02  0.64262505228E+01 -0.17981424768E+02  0.21615987638E+02  0.00000000000E+00 0. -1.
<mgrwt>
<rscale>  1 0.30000000E+03</rscale>
<asrwt>0</asrwt>
<pdfrwt beam="1">  1       21 0.71462534E-02 0.30000000E+03</pdfrwt>
<pdfrwt beam="2">0</pdfrwt>
<totfact> 0.15564473E+04</totfact>
</mgrwt>
</event>
<event>
 6    1  0.1132867E-002  0.3000000E+03  0.7818608E-02  0.1093470E+00
         21   -1    0    0  501  502  0.00000000000E+00  0.00000000000E+00  0.38079844806E+00  0.38079844806E+00  0.00000000000E+00 0. -1.
         13   -1    0    0    0    0 -0.00000000000E+00 -0.00000000000E+00 -0.10000000000E+04  0.10000000000E+04  0.00000000000E+00 0.  1.
    9000005    2    1    2  501    0 -0.52303642186E+01 -0.10692428219E+02 -0.87153538970E+03  0.87174508183E+03  0.14962201235E+02 0.  0.
         13    1    3    3    0    0  0.30555217366E+01 -0.11859371613E+01 -0.47060995511E+03  0.47062136852E+03  0.00000000000E+00 0.  1.
          3    1    3    3  501    0 -0.82858859552E+01 -0.95064910577E+01 -0.40092543459E+03  0.40112371331E+03  0.00000000000E+00 0.  1.
         -1    1    1    2    0  502  0.52303642186E+01  0.10692428219E+02 -0.12808381185E+03  0.12863571661E+03  0.00000000000E+00 0. -1.
<mgrwt>
<rscale>  1 0.30000000E+03</rscale>
<asrwt>0</asrwt>
<pdfrwt beam="1">  1       21 0.13847245E-02 0.30000000E+03</pdfrwt>
<pdfrwt beam="2">0</pdfrwt>
<totfact> 0.24030451E+05</totfact>
</mgrwt>
</event>
<event>
 6    1  0.1132867E-002  0.3000000E+03  0.7818608E-02  0.1093470E+00
         21   -1    0    0  501  502  0.00000000000E+00  0.00000000000E+00  0.17736937128E+00  0.17736937128E+00  0.00000000000E+00 0. -1.
         13   -1    0    0    0    0 -0.00000000000E+00 -0.00000000000E+00 -0.10000000000E+04  0.10000000000E+04  0.00000000000E+00 0.  1.
    9000005    2    1    2  501    0 -0.33138350411E+01  0.87255356520E+01 -0.84109134437E+03  0.84117190496E+03  0.69575603403E+01 0.  0.
         13    1    3    3    0    0  0.97748063427E+00  0.48119606803E+01 -0.22702007384E+03  0.22707316961E+03  0.00000000000E+00 0.  1.
          3    1    3    3  501    0 -0.42913156754E+01  0.39135749717E+01 -0.61407127054E+03  0.61409873535E+03  0.00000000000E+00 0.  1.
         -1    1    1    2    0  502  0.33138350411E+01 -0.87255356520E+01 -0.15873128626E+03  0.15900546441E+03  0.00000000000E+00 0. -1.
<mgrwt>
<rscale>  1 0.30000000E+03</rscale>
<asrwt>0</asrwt>
<pdfrwt beam="1">  1       21 0.64498089E-03 0.30000000E+03</pdfrwt>
<pdfrwt beam="2">0</pdfrwt>
<totfact> 0.80636349E+05</totfact>
</mgrwt>
</event>
<event>
 6    1  0.1132867E-002  0.3000000E+03  0.7818608E-02  0.1093470E+00
         21   -1    0    0  501  502  0.00000000000E+00  0.00000000000E+00  0.39379336825E+00  0.39379336825E+00  0.00000000000E+00 0. -1.
         13   -1    0    0    0    0 -0.00000000000E+00 -0.00000000000E+00 -0.10000000000E+04  0.10000000000E+04  0.00000000000E+00 0.  1.
    9000005    2    1    2  501    0  0.37153314461E+01 -0.19131303061E+02 -0.49333068043E+03  0.49374330351E+03  0.52420474174E+01 0.  0.
         13    1    3    3    0    0  0.27997392468E+01 -0.62222905369E+01 -0.12586388643E+03  0.12604869434E+03  0.00000000000E+00 0.  1.
          1    1    3    3  501    0  0.91559219933E+00 -0.12909012524E+02 -0.36746679401E+03  0.36769460917E+03  0.00000000000E+00 0.  1.
         -1    1    1    2    0  502 -0.37153314461E+01  0.19131303061E+02 -0.50627552620E+03  0.50665048986E+03  0.00000000000E+00 0. -1.
<mgrwt>
<rscale>  1 0.30000000E+03</rscale>
<asrwt>0</asrwt>
<pdfrwt beam="1">  1       21 0.14319789E-02 0.30000000E+03</pdfrwt>
<pdfrwt beam="2">0</pdfrwt>
<totfact> 0.22768790E+05</totfact>
</mgrwt>
</event>
<event>
 6    1  0.1132867E-002  0.3000000E+03  0.7818608E-02  0.1093470E+00
         21   -1    0    0  501  502  0.00000000000E+00  0.00000000000E+00  0.31009807256E+00  0.31009807256E+00  0.00000000000E+00 0. -1.
         13   -1    0    0    0    0 -0.00000000000E+00 -0.00000000000E+00 -0.10000000000E+04  0.10000000000E+04  0.00000000000E+00 0.  1.
    9000005    2    1    2  501    0 -0.41602069466E+01  0.10876862485E+02 -0.86369892243E+03  0.86382141735E+03  0.87177413930E+01 0.  0.
         13    1    3    3    0    0  0.65155470884E+00  0.21214789399E+01 -0.43669331527E+03  0.43669895443E+03  0.00000000000E+00 0.  1.
          1    1    3    3  501    0 -0.48117616555E+01  0.87553835456E+01 -0.42700560715E+03  0.42712246292E+03  0.00000000000E+00 0.  1.
         -3    1    1    2    0  502  0.41602069466E+01 -0.10876862485E+02 -0.13599097950E+03  0.13648868072E+03  0.00000000000E+00 0. -1.
<mgrwt>
<rscale>  1 0.30000000E+03</rscale>
<asrwt>0</asrwt>
<pdfrwt beam="1">  1       21 0.11276317E-02 0.30000000E+03</pdfrwt>
<pdfrwt beam="2">0</pdfrwt>
<totfact> 0.33379892E+05</totfact>
</mgrwt>
</event>
<event>
 6    1  0.1132867E-002  0.3000000E+03  0.7818608E-02  0.1093470E+00
         21   -1    0    0  501  502  0.00000000000E+00  0.00000000000E+00  0.47917016301E+00  0.47917016301E+00  0.00000000000E+00 0. -1.
         13   -1    0    0    0    0 -0.00000000000E+00 -0.00000000000E+00 -0.10000000000E+04  0.10000000000E+04  0.00000000000E+00 0.  1.
    9000005    2    1    2  501    0  0.83331794699E+01  0.14225179721E+02 -0.72371963352E+03  0.72418567131E+03  0.20074385950E+02 0.  0.
         13    1    3    3    0    0  0.67016459857E+01  0.40635179486E+01 -0.79830964211E+02  0.80214756024E+02  0.00000000000E+00 0.  1.
          1    1    3    3  501    0  0.16315334842E+01  0.10161661772E+02 -0.64388866930E+03  0.64397091528E+03  0.00000000000E+00 0.  1.
         -3    1    1    2    0  502 -0.83331794699E+01 -0.14225179721E+02 -0.27580119632E+03  0.27629349886E+03  0.00000000000E+00 0. -1.
<mgrwt>
<rscale>  1 0.30000000E+03</rscale>
<asrwt>0</asrwt>
<pdfrwt beam="1">  1       21 0.17424406E-02 0.30000000E+03</pdfrwt>
<pdfrwt beam="2">0</pdfrwt>
<totfact> 0.16585813E+05</totfact>
</mgrwt>
</event>
<event>
 6    1  0.1132867E-002  0.3000000E+03  0.7818608E-02  0.1093470E+00
         21   -1    0    0  501  502  0.00000000000E+00  0.00000000000E+00  0.84345383907E+00  0.84345383907E+00  0.00000000000E+00 0. -1.
         13   -1    0    0    0    0 -0.00000000000E+00 -0.00000000000E+00 -0.10000000000E+04  0.10000000000E+04  0.00000000000E+00 0.  1.
    9000005    2    1    2  501    0  0.12249467746E+02 -0.75077896294E+01 -0.93124106415E+03  0.93142494721E+03  0.11666034875E+02 0.  0.
         13    1    3    3    0    0  0.85519557417E-01  0.12655172352E+01 -0.13070291838E+02  0.13131693577E+02  0.00000000000E+00 0.  1.
          3    1    3    3  501    0  0.12163948188E+02 -0.87733068646E+01 -0.91817077231E+03  0.91829325364E+03  0.00000000000E+00 0.  1.
         -3    1    1    2    0  502 -0.12249467746E+02  0.75077896294E+01 -0.67915482013E+02  0.69418506626E+02  0.00000000000E+00 0. -1.
<mgrwt>
<rscale>  1 0.30000000E+03</rscale>
<asrwt>0</asrwt>
<pdfrwt beam="1">  1       21 0.30671113E-02 0.30000000E+03</pdfrwt>
<pdfrwt beam="2">0</pdfrwt>
<totfact> 0.65575553E+04</totfact>
</mgrwt>
</event>
<event>
 6    1  0.1132867E-002  0.3000000E+03  0.7818608E-02  0.1093470E+00
         21   -1    0    0  501  502  0.00000000000E+00  0.00000000000E+00  0.23506692553E+00  0.23506692553E+00  0.00000000000E+00 0. -1.
         13   -1    0    0    0    0 -0.00000000000E+00 -0.00000000000E+00 -0.10000000000E+04  0.10000000000E+04  0.00000000000E+00 0.  1.
    9000005    2    1    2  501    0 -0.12783563563E+02  0.45729425077E+01 -0.71085555080E+03  0.71100684827E+03  0.55491335194E+01 0.  0.
         13    1    3    3    0    0 -0.89933663707E+01  0.33771159862E+01 -0.35783676839E+03  0.35796569439E+03  0.00000000000E+00 0.  1.
          1    1    3    3  501    0 -0.37901971927E+01  0.11958265215E+01 -0.35301878241E+03  0.35304115388E+03  0.00000000000E+00 0.  1.
         -3    1    1    2    0  502  0.12783563563E+02 -0.45729425077E+01 -0.28890938227E+03  0.28922821866E+03  0.00000000000E+00 0. -1.
<mgrwt>
<rscale>  1 0.30000000E+03</rscale>
<asrwt>0</asrwt>
<pdfrwt beam="1">  1       21 0.85479062E-03 0.30000000E+03</pdfrwt>
<pdfrwt beam="2">0</pdfrwt>
<totfact> 0.51799114E+05</totfact>
</mgrwt>
</event>
<event>
 6    1  0.1132867E-002  0.3000000E+03  0.7818608E-02  0.1093470E+00
         21   -1    0    0  501  502  0.00000000000E+00  0.00000000000E+00  0.63416175830E+00  0.63416175830E+00  0.00000000000E+00 0. -1.
         13   -1    0    0    0    0 -0.00000000000E+00 -0.00000000000E+00 -0.10000000000E+04  0.10000000000E+04  0.00000000000E+00 0.  1.
    9000005    2    1    2  501    0  0.12249676144E+02 -0.42255277376E+01 -0.92354872100E+03  0.92371768162E+03  0.12008564572E+02 0.  0.
         13    1    3    3    0    0  0.12109532477E+02  0.20883028584E+00 -0.50398066492E+03  0.50412616972E+03  0.00000000000E+00 0.  1.
          1    1    3    3  501    0  0.14014366776E+00 -0.44343580234E+01 -0.41956805608E+03  0.41959151190E+03  0.00000000000E+00 0.  1.
         -1    1    1    2    0  502 -0.12249676144E+02  0.42255277376E+01 -0.75817117244E+02  0.76916480142E+02  0.00000000000E+00 0. -1.
<mgrwt>
<rscale>  1 0.30000000E+03</rscale>
<asrwt>0</asrwt>
<pdfrwt beam="1">  1       21 0.23060476E-02 0.30000000E+03</pdfrwt>
<pdfrwt beam="2">0</pdfrwt>
<totfact> 0.10501684E+05</totfact>
</mgrwt>
</event>
<event>
 6    1  0.1132867E-002  0.3000000E+03  0.7818608E-02  0.1093470E+00
         21   -1    0    0  501  502  0.00000000000E+00  0.00000000000E+00  0.30441298031E+00  0.30441298031E+00  0.00000000000E+00 0. -1.
         13   -1    0    0    0    0 -0.00000000000E+00 -0.00000000000E+00 -0.10000000000E+04  0.10000000000E+04  0.00000000000E+00 0.  1.
    9000005    2    1    2  501    0 -0.12389846560E+02 -0.35971631928E+01 -0.68038870231E+03  0.68073699520E+03  0.17539171255E+02 0.  0.
         13    1    3    3    0    0  0.45041266775E+01 -0.13762960582E+01 -0.13456120923E+03  0.13464360504E+03  0.00000000000E+00 0.  1.
          3    1    3    3  501    0 -0.16893973238E+02 -0.22208671346E+01 -0.54582749308E+03  0.54609339016E+03  0.00000000000E+00 0.  1.
         -1    1    1    2    0  502  0.12389846560E+02  0.35971631928E+01 -0.31930688471E+03  0.31956741778E+03  0.00000000000E+00 0. -1.
<mgrwt>
<rscale>  1 0.30000000E+03</rscale>
<asrwt>0</asrwt>
<pdfrwt beam="1">  1       21 0.11069586E-02 0.30000000E+03</pdfrwt>
<pdfrwt beam="2">0</pdfrwt>
<totfact> 0.34378505E+05</totfact>
</mgrwt>
</event>
<event>
 6    1  0.1132867E-002  0.3000000E+03  0.7818608E-02  0.1093470E+00
         21   -1    0    0  501  502  0.00000000000E+00  0.00000000000E+00  0.36930309394E+00  0.36930309394E+00  0.00000000000E+00 0. -1.
         13   -1    0    0    0    0 -0.00000000000E+00 -0.00000000000E+00 -0.10000000000E+04  0.10000000000E+04  0.00000000000E+00 0.  1.
    9000005    2    1    2  501    0 -0.83982321587E+01  0.62601120009E+01 -0.91422415749E+03  0.91432282565E+03  0.84083326997E+01 0.  0.
         13    1    3    3    0    0 -0.51926920506E+01  0.67337993100E+01 -0.40956204135E+03  0.40965030675E+03  0.00000000000E+00 0.  1.
          1    1    3    3  501    0 -0.32055401080E+01 -0.47368730905E+00 -0.50466211614E+03  0.50467251890E+03  0.00000000000E+00 0.  1.
         -3    1    1    2    0  502  0.83982321587E+01 -0.62601120009E+01 -0.85406539414E+02  0.86046477443E+02  0.00000000000E+00 0. -1.
<mgrwt>
<rscale>  1 0.30000000E+03</rscale>
<asrwt>0</asrwt>
<pdfrwt beam="1">  1       21 0.13429232E-02 0.30000000E+03</pdfrwt>
<pdfrwt beam="2">0</pdfrwt>
<totfact> 0.25242890E+05</totfact>
</mgrwt>
</event>
<event>
 6    1  0.1132867E-002  0.3000000E+03  0.7818608E-02  0.1093470E+00
         21   -1    0    0  501  502  0.00000000000E+00  0.00000000000E+00  0.19380189865E+00  0.19380189865E+00  0.00000000000E+00 0. -1.
         13   -1    0    0    0    0 -0.00000000000E+00 -0.00000000000E+00 -0.10000000000E+04  0.10000000000E+04  0.00000000000E+00 0.  1.
    9000005    2    1    2  501    0  0.10579153929E+02 -0.12862488189E+01 -0.65373008118E+03  0.65395363722E+03  0.13370402342E+02 0.  0.
         13    1    3    3    0    0  0.13442235830E+01  0.54444273689E+01 -0.18972774767E+03  0.18981060813E+03  0.00000000000E+00 0.  1.
          1    1    3    3  501    0  0.92349303457E+01 -0.67306761878E+01 -0.46400233352E+03  0.46414302909E+03  0.00000000000E+00 0.  1.
         -1    1    1    2    0  502 -0.10579153929E+02  0.12862488189E+01 -0.34607611692E+03  0.34624016468E+03  0.00000000000E+00 0. -1.
<mgrwt>
<rscale>  1 0.30000000E+03</rscale>
<asrwt>0</asrwt>
<pdfrwt beam="1">  1       21 0.70473566E-03 0.30000000E+03</pdfrwt>
<pdfrwt beam="2">0</pdfrwt>
<totfact> 0.70187121E+05</totfact>
</mgrwt>
</event>
<event>
 6    1  0.1132867E-002  0.3000000E+03  0.7818608E-02  0.1093470E+00
         21   -1    0    0  501  502  0.00000000000E+00  0.00000000000E+00  0.27539527550E+00  0.27539527550E+00  0.00000000000E+00 0. -1.
         13   -1    0    0    0    0 -0.00000000000E+00 -0.00000000000E+00 -0.10000000000E+04  0.10000000000E+04  0.00000000000E+00 0.  1.
    9000005    2    1    2  501    0  0.49678665385E+01 -0.10768973008E+02 -0.84076329463E+03  0.84087229435E+03  0.65304924309E+01 0.  0.
         13    1    3    3    0    0  0.34774939827E+00 -0.47868294122E+01 -0.17406434187E+03  0.17413049640E+03  0.00000000000E+00 0.  1.
          3    1    3    3  501    0  0.46201171402E+01 -0.59821435955E+01 -0.66669895276E+03  0.66674179795E+03  0.00000000000E+00 0.  1.
         -3    1    1    2    0  502 -0.49678665385E+01  0.10768973008E+02 -0.15896131010E+03  0.15940310093E+03  0.00000000000E+00 0. -1.
<mgrwt>
<rscale>  1 0.30000000E+03</rscale>
<asrwt>0</asrwt>
<pdfrwt beam="1">  1       21 0.10014395E-02 0.30000000E+03</pdfrwt>
<pdfrwt beam="2">0</pdfrwt>
<totfact> 0.40317230E+05</totfact>
</mgrwt>
</event>
<event>
 6    1  0.1132867E-002  0.3000000E+03  0.7818608E-02  0.1093470E+00
         21   -1    0    0  501  502  0.00000000000E+00  0.00000000000E+00  0.20763227105E+00  0.20763227105E+00  0.00000000000E+00 0. -1.
         13   -1    0    0    0    0 -0.00000000000E+00 -0.00000000000E+00 -0.10000000000E+04  0.10000000000E+04  0.00000000000E+00 0.  1.
    9000005    2    1    2  501    0 -0.13313817662E+02 -0.14007283935E+01 -0.61740487036E+03  0.61758586351E+03  0.66562069078E+01 0.  0.
         13    1    3    3    0    0 -0.46417677045E+00 -0.11767611234E+01 -0.14708481750E+03  0.14709025720E+03  0.00000000000E+00 0.  1.
          3    1    3    3  501    0 -0.12849640892E+02 -0.22396727010E+00 -0.47032005286E+03  0.47049560631E+03  0.00000000000E+00 0.  1.
         -1    1    1    2    0  502  0.13313817662E+02  0.14007283935E+01 -0.38238749737E+03  0.38262176876E+03  0.00000000000E+00 0. -1.
<mgrwt>
<rscale>  1 0.30000000E+03</rscale>
<asrwt>0</asrwt>
<pdfrwt beam="1">  1       21 0.75502803E-03 0.30000000E+03</pdfrwt>
<pdfrwt beam="2">0</pdfrwt>
<totfact> 0.62987943E+05</totfact>
</mgrwt>
</event>
<event>
 6    1  0.1132867E-002  0.3000000E+03  0.7818608E-02  0.1093470E+00
         21   -1    0    0  501  502  0.00000000000E+00  0.00000000000E+00  0.15857986992E+00  0.15857986992E+00  0.00000000000E+00 0. -1.
         13   -1    0    0    0    0 -0.00000000000E+00 -0.00000000000E+00 -0.10000000000E+04  0.10000000000E+04  0.00000000000E+00 0.  1.
    9000005    2    1    2  501    0  0.23314852644E+01  0.96952577404E+01 -0.22479308705E+03  0.22504610258E+03  0.37924204779E+01 0.  0.
         13    1    3    3    0    0 -0.78198214076E+00  0.69828790304E+00 -0.33297790566E+02  0.33314290607E+02  0.00000000000E+00 0.  1.
          1    1    3    3  501    0  0.31134674052E+01  0.89969698374E+01 -0.19149529649E+03  0.19173181197E+03  0.00000000000E+00 0.  1.
         -3    1    1    2    0  502 -0.23314852644E+01 -0.96952577404E+01 -0.77504833308E+03  0.77511247729E+03  0.00000000000E+00 0. -1.
<mgrwt>
<rscale>  1 0.30000000E+03</rscale>
<asrwt>0</asrwt>
<pdfrwt beam="1">  1       21 0.57665529E-03 0.30000000E+03</pdfrwt>
<pdfrwt beam="2">0</pdfrwt>
<totfact> 0.96048059E+05</totfact>
</mgrwt>
</event>
<event>
 6    1  0.1132867E-002  0.3000000E+03  0.7818608E-02  0.1093470E+00
         21   -1    0    0  501  502  0.00000000000E+00  0.00000000000E+00  0.10085244460E+01  0.10085244460E+01  0.00000000000E+00 0. -1.
         13   -1    0    0    0    0 -0.00000000000E+00 -0.00000000000E+00 -0.10000000000E+04  0.10000000000E+04  0.00000000000E+00 0.  1.
    9000005    2    1    2  501    0 -0.11296991219E+01 -0.14354538517E+02 -0.94444163001E+03  0.94459031244E+03  0.85753646676E+01 0.  0.
         13    1    3    3    0    0 -0.45689681792E+01 -0.63506616971E+01 -0.37066525719E+03  0.37074781087E+03  0.00000000000E+00 0.  1.
          1    1    3    3  501    0  0.34392690573E+01 -0.80038768203E+01 -0.57377637281E+03  0.57384250158E+03  0.00000000000E+00 0.  1.
         -1    1    1    2    0  502  0.11296991219E+01  0.14354538517E+02 -0.54549845548E+02  0.56418212002E+02  0.00000000000E+00 0. -1.
<mgrwt>
<rscale>  1 0.30000000E+03</rscale>
<asrwt>0</asrwt>
<pdfrwt beam="1">  1       21 0.36673694E-02 0.30000000E+03</pdfrwt>
<pdfrwt beam="2">0</pdfrwt>
<totfact> 0.48653363E+04</totfact>
</mgrwt>
</event>
<event>
 6    1  0.1132867E-002  0.3000000E+03  0.7818608E-02  0.1093470E+00
         21   -1    0    0  501  502  0.00000000000E+00  0.00000000000E+00  0.26684125780E+00  0.26684125780E+00  0.00000000000E+00 0. -1.
         13   -1    0    0    0    0 -0.00000000000E+00 -0.00000000000E+00 -0.10000000000E+04  0.10000000000E+04  0.00000000000E+00 0.  1.
    9000005    2    1    2  501    0  0.10601276952E+02  0.70628387594E+01 -0.43679958652E+03  0.43718915790E+03  0.13349540595E+02 0.  0.
         13    1    3    3    0    0  0.49228647710E+01  0.48043275100E+01 -0.37991350000E+03  0.37997576718E+03  0.00000000000E+00 0.  1.
          3    1    3    3  501    0  0.56784121812E+01  0.22585112494E+01 -0.56886086523E+02  0.57213390722E+02  0.00000000000E+00 0.  1.
         -3    1    1    2    0  502 -0.10601276952E+02 -0.70628387594E+01 -0.56293357222E+03  0.56307768336E+03  0.00000000000E+00 0. -1.
<mgrwt>
<rscale>  1 0.30000000E+03</rscale>
<asrwt>0</asrwt>
<pdfrwt beam="1">  1       21 0.97033389E-03 0.30000000E+03</pdfrwt>
<pdfrwt beam="2">0</pdfrwt>
<totfact> 0.42386917E+05</totfact>
</mgrwt>
</event>
<event>
 6    1  0.1132867E-002  0.3000000E+03  0.7818608E-02  0.1093470E+00
         21   -1    0    0  501  502  0.00000000000E+00  0.00000000000E+00  0.21917556204E+00  0.21917556204E+00  0.00000000000E+00 0. -1.
         13   -1    0    0    0    0 -0.00000000000E+00 -0.00000000000E+00 -0.10000000000E+04  0.10000000000E+04  0.00000000000E+00 0.  1.
    9000005    2    1    2  501    0  0.13353128351E+02  0.27980809337E+01 -0.66854380109E+03  0.66870130134E+03  0.49478420997E+01 0.  0.
         13    1    3    3    0    0  0.13656772751E+01  0.15418247518E+01 -0.16695370211E+03  0.16696640664E+03  0.00000000000E+00 0.  1.
          1    1    3    3  501    0  0.11987451076E+02  0.12562561820E+01 -0.50159009898E+03  0.50173489470E+03  0.00000000000E+00 0.  1.
         -1    1    1    2    0  502 -0.13353128351E+02 -0.27980809337E+01 -0.33123702334E+03  0.33151787422E+03  0.00000000000E+00 0. -1.
<mgrwt>
<rscale>  1 0.30000000E+03</rscale>
<asrwt>0</asrwt>
<pdfrwt beam="1">  1       21 0.79700372E-03 0.30000000E+03</pdfrwt>
<pdfrwt beam="2">0</pdfrwt>
<totfact> 0.57846340E+05</totfact>
</mgrwt>
</event>
<event>
 6    1  0.1132867E-002  0.3000000E+03  0.7818608E-02  0.1093470E+00
         21   -1    0    0  501  502  0.00000000000E+00  0.00000000000E+00  0.11310427393E+00  0.11310427393E+00  0.00000000000E+00 0. -1.
         13   -1    0    0    0    0 -0.00000000000E+00 -0.00000000000E+00 -0.10000000000E+04  0.10000000000E+04  0.00000000000E+00 0.  1.
    9000005    2    1    2  501    0  0.74195414517E+01 -0.24283327981E+01 -0.69091203059E+03  0.69103962808E+03  0.10741842444E+02 0.  0.
         13    1    3    3    0    0 -0.12165391609E+01 -0.15658941136E+01 -0.27729422245E+02  0.27800231113E+02  0.00000000000E+00 0.  1.
          3    1    3    3  501    0  0.86360806126E+01 -0.86243868447E+00 -0.66318260834E+03  0.66323939697E+03  0.00000000000E+00 0.  1.
         -1    1    1    2    0  502 -0.74195414517E+01  0.24283327981E+01 -0.30897486514E+03  0.30907347619E+03  0.00000000000E+00 0. -1.
<mgrwt>
<rscale>  1 0.30000000E+03</rscale>
<asrwt>0</asrwt>
<pdfrwt beam="1">  1       21 0.41128914E-03 0.30000000E+03</pdfrwt>
<pdfrwt beam="2">0</pdfrwt>
<totfact> 0.16223333E+06</totfact>
</mgrwt>
</event>
<event>
 6    1  0.1132867E-002  0.3000000E+03  0.7818608E-02  0.1093470E+00
         21   -1    0    0  501  502  0.00000000000E+00  0.00000000000E+00  0.13338554862E+00  0.13338554862E+00  0.00000000000E+00 0. -1.
         13   -1    0    0    0    0 -0.00000000000E+00 -0.00000000000E+00 -0.10000000000E+04  0.10000000000E+04  0.00000000000E+00 0.  1.
    9000005    2    1    2  501    0 -0.90588750732E+01  0.23325345681E+01 -0.75161882121E+03  0.75170941170E+03  0.69773419993E+01 0.  0.
         13    1    3    3    0    0 -0.30960214698E+00  0.16545072127E+01 -0.38706266001E+02  0.38742848054E+02  0.00000000000E+00 0.  1.
          1    1    3    3  501    0 -0.87492729262E+01  0.67802735547E+00 -0.71291255521E+03  0.71296656365E+03  0.00000000000E+00 0.  1.
         -1    1    1    2    0  502  0.90588750732E+01 -0.23325345681E+01 -0.24824779324E+03  0.24842397385E+03  0.00000000000E+00 0. -1.
<mgrwt>
<rscale>  1 0.30000000E+03</rscale>
<asrwt>0</asrwt>
<pdfrwt beam="1">  1       21 0.48503938E-03 0.30000000E+03</pdfrwt>
<pdfrwt beam="2">0</pdfrwt>
<totfact> 0.12569602E+06</totfact>
</mgrwt>
</event>
<event>
 6    1  0.1132867E-002  0.3000000E+03  0.7818608E-02  0.1093470E+00
         21   -1    0    0  501  502  0.00000000000E+00  0.00000000000E+00  0.29404312967E+00  0.29404312967E+00  0.00000000000E+00 0. -1.
         13   -1    0    0    0    0 -0.00000000000E+00 -0.00000000000E+00 -0.10000000000E+04  0.10000000000E+04  0.00000000000E+00 0.  1.
    9000005    2    1    2  501    0  0.96172606211E+01  0.73457542875E+01 -0.70924134029E+03  0.70957743664E+03  0.18177128324E+02 0.  0.
         13    1    3    3    0    0  0.12768769948E+01  0.90366053710E+01 -0.57183341561E+03  0.57190623869E+03  0.00000000000E+00 0.  1.
          1    1    3    3  501    0  0.83403836263E+01 -0.16908510835E+01 -0.13740792469E+03  0.13767119794E+03  0.00000000000E+00 0.  1.
         -1    1    1    2    0  502 -0.96172606211E+01 -0.73457542875E+01 -0.29046461658E+03  0.29071660649E+03  0.00000000000E+00 0. -1.
<mgrwt>
<rscale>  1 0.30000000E+03</rscale>
<asrwt>0</asrwt>
<pdfrwt beam="1">  1       21 0.10692500E-02 0.30000000E+03</pdfrwt>
<pdfrwt beam="2">0</pdfrwt>
<totfact> 0.36328699E+05</totfact>
</mgrwt>
</event>
<event>
 6    1  0.1132867E-002  0.3000000E+03  0.7818608E-02  0.1093470E+00
         21   -1    0    0  501  502  0.00000000000E+00  0.00000000000E+00  0.17425819248E+00  0.17425819248E+00  0.00000000000E+00 0. -1.
         13   -1    0    0    0    0 -0.00000000000E+00 -0.00000000000E+00 -0.10000000000E+04  0.10000000000E+04  0.00000000000E+00 0.  1.
    9000005    2    1    2  501    0 -0.10014436055E+02 -0.65607150239E+01 -0.58143954278E+03  0.58161680282E+03  0.79266325336E+01 0.  0.
         13    1    3    3    0    0  0.49622946687E+00  0.10715903378E+00 -0.14225651963E+03  0.14225742548E+03  0.00000000000E+00 0.  1.
          3    1    3    3  501    0 -0.10510665522E+02 -0.66678740577E+01 -0.43918302315E+03  0.43935937734E+03  0.00000000000E+00 0.  1.
         -3    1    1    2    0  502  0.10014436055E+02  0.65607150239E+01 -0.41838619903E+03  0.41855745538E+03  0.00000000000E+00 0. -1.
<mgrwt>
<rscale>  1 0.30000000E+03</rscale>
<asrwt>0</asrwt>
<pdfrwt beam="1">  1       21 0.63366749E-03 0.30000000E+03</pdfrwt>
<pdfrwt beam="2">0</pdfrwt>
<totfact> 0.82900234E+05</totfact>
</mgrwt>
</event>
<event>
 6    1  0.1132867E-002  0.3000000E+03  0.7818608E-02  0.1093470E+00
         21   -1    0    0  501  502  0.00000000000E+00  0.00000000000E+00  0.25342539303E+00  0.25342539303E+00  0.00000000000E+00 0. -1.
         13   -1    0    0    0    0 -0.00000000000E+00 -0.00000000000E+00 -0.10000000000E+04  0.10000000000E+04  0.00000000000E+00 0.  1.
    9000005    2    1    2  501    0  0.33223935483E+01 -0.12554016751E+02 -0.77070601814E+03  0.77084501634E+03  0.67550862673E+01 0.  0.
         13    1    3    3    0    0  0.48793540582E+01 -0.59534951692E+01 -0.35268658837E+03  0.35277057958E+03  0.00000000000E+00 0.  1.
          1    1    3    3  501    0 -0.15569605099E+01 -0.66005215819E+01 -0.41801942977E+03  0.41807443676E+03  0.00000000000E+00 0.  1.
         -3    1    1    2    0  502 -0.33223935483E+01  0.12554016751E+02 -0.22904055647E+03  0.22940840905E+03  0.00000000000E+00 0. -1.
<mgrwt>
<rscale>  1 0.30000000E+03</rscale>
<asrwt>0</asrwt>
<pdfrwt beam="1">  1       21 0.92154883E-03 0.30000000E+03</pdfrwt>
<pdfrwt beam="2">0</pdfrwt>
<totfact> 0.45995113E+05</totfact>
</mgrwt>
</event>
<event>
 6    1  0.1132867E-002  0.3000000E+03  0.7818608E-02  0.1093470E+00
         21   -1    0    0  501  502  0.00000000000E+00  0.00000000000E+00  0.11425624161E+00  0.11425624161E+00  0.00000000000E+00 0. -1.
         13   -1    0    0    0    0 -0.00000000000E+00 -0.00000000000E+00 -0.10000000000E+04  0.10000000000E+04  0.00000000000E+00 0.  1.
    9000005    2    1    2  501    0  0.87763526227E+01 -0.39068609418E+01 -0.68678857194E+03  0.68686974004E+03  0.43828428786E+01 0.  0.
         13    1    3    3    0    0  0.25729874734E+01  0.87628615745E+00 -0.16559718698E+03  0.16561949305E+03  0.00000000000E+00 0.  1.
          3    1    3    3  501    0  0.62033651493E+01 -0.47831470993E+01 -0.52119138496E+03  0.52125024699E+03  0.00000000000E+00 0.  1.
         -3    1    1    2    0  502 -0.87763526227E+01  0.39068609418E+01 -0.31309717182E+03  0.31324451620E+03  0.00000000000E+00 0. -1.
<mgrwt>
<rscale>  1 0.30000000E+03</rscale>
<asrwt>0</asrwt>
<pdfrwt beam="1">  1       21 0.41547812E-03 0.30000000E+03</pdfrwt>
<pdfrwt beam="2">0</pdfrwt>
<totfact> 0.15971522E+06</totfact>
</mgrwt>
</event>
<event>
 6    1  0.1132867E-002  0.3000000E+03  0.7818608E-02  0.1093470E+00
         21   -1    0    0  501  502  0.00000000000E+00  0.00000000000E+00  0.84968090916E+00  0.84968090916E+00  0.00000000000E+00 0. -1.
         13   -1    0    0    0    0 -0.00000000000E+00 -0.00000000000E+00 -0.10000000000E+04  0.10000000000E+04  0.00000000000E+00 0.  1.
    9000005    2    1    2  501    0  0.12647144809E+02 -0.70028662444E+01 -0.93357746920E+03  0.93370216383E+03  0.48835776236E+01 0.  0.
         13    1    3    3    0    0  0.26545742970E+01  0.51738453338E-01 -0.10119247470E+03  0.10122730055E+03  0.00000000000E+00 0.  1.
          3    1    3    3  501    0  0.99925705117E+01 -0.70546046978E+01 -0.83238499451E+03  0.83247486328E+03  0.00000000000E+00 0.  1.
         -1    1    1    2    0  502 -0.12647144809E+02  0.70028662444E+01 -0.65572849889E+02  0.67147517080E+02  0.00000000000E+00 0. -1.
<mgrwt>
<rscale>  1 0.30000000E+03</rscale>
<asrwt>0</asrwt>
<pdfrwt beam="1">  1       21 0.30897553E-02 0.30000000E+03</pdfrwt>
<pdfrwt beam="2">0</pdfrwt>
<totfact> 0.64778720E+04</totfact>
</mgrwt>
</event>
<event>
 6    1  0.1132867E-002  0.3000000E+03  0.7818608E-02  0.1093470E+00
         21   -1    0    0  501  502  0.00000000000E+00  0.00000000000E+00  0.19832271963E+00  0.19832271963E+00  0.00000000000E+00 0. -1.
         13   -1    0    0    0    0 -0.00000000000E+00 -0.00000000000E+00 -0.10000000000E+04  0.10000000000E+04  0.00000000000E+00 0.  1.
    9000005    2    1    2  501    0 -0.30320038975E+01  0.88394202506E+01 -0.25046757363E+03  0.25080595067E+03  0.90714415390E+01 0.  0.
         13    1    3    3    0    0  0.25842886505E+01  0.58709187951E+01 -0.15059454738E+03  0.15073109811E+03  0.00000000000E+00 0.  1.
          1    1    3    3  501    0 -0.56162925480E+01  0.29685014556E+01 -0.99873026246E+02  0.10007485256E+03  0.00000000000E+00 0.  1.
         -1    1    1    2    0  502  0.30320038975E+01 -0.88394202506E+01 -0.74933410365E+03  0.74939237205E+03  0.00000000000E+00 0. -1.
<mgrwt>
<rscale>  1 0.30000000E+03</rscale>
<asrwt>0</asrwt>
<pdfrwt beam="1">  1       21 0.72117505E-03 0.30000000E+03</pdfrwt>
<pdfrwt beam="2">0</pdfrwt>
<totfact> 0.67693586E+05</totfact>
</mgrwt>
</event>
<event>
 6    1  0.1132867E-002  0.3000000E+03  0.7818608E-02  0.1093470E+00
         21   -1    0    0  501  502  0.00000000000E+00  0.00000000000E+00  0.40371297962E+00  0.40371297962E+00  0.00000000000E+00 0. -1.
         13   -1    0    0    0    0 -0.00000000000E+00 -0.00000000000E+00 -0.10000000000E+04  0.10000000000E+04  0.00000000000E+00 0.  1.
    9000005    2    1    2  501    0 -0.15675196520E+02 -0.39221135549E+01 -0.78819974264E+03  0.78839052061E+03  0.62995188065E+01 0.  0.
         13    1    3    3    0    0 -0.13137144795E+02 -0.20663788813E+01 -0.51125751902E+03  0.51143045006E+03  0.00000000000E+00 0.  1.
          3    1    3    3  501    0 -0.25380517248E+01 -0.18557346736E+01 -0.27694222362E+03  0.27696007055E+03  0.00000000000E+00 0.  1.
         -1    1    1    2    0  502  0.15675196520E+02  0.39221135549E+01 -0.21139654438E+03  0.21201319237E+03  0.00000000000E+00 0. -1.
<mgrwt>
<rscale>  1 0.30000000E+03</rscale>
<asrwt>0</asrwt>
<pdfrwt beam="1">  1       21 0.14680503E-02 0.30000000E+03</pdfrwt>
<pdfrwt beam="2">0</pdfrwt>
<totfact> 0.21875584E+05</totfact>
</mgrwt>
</event>
<event>
 6    1  0.1132867E-002  0.3000000E+03  0.7818608E-02  0.1093470E+00
         21   -1    0    0  501  502  0.00000000000E+00  0.00000000000E+00  0.11736382305E+00  0.11736382305E+00  0.00000000000E+00 0. -1.
         13   -1    0    0    0    0 -0.00000000000E+00 -0.00000000000E+00 -0.10000000000E+04  0.10000000000E+04  0.00000000000E+00 0.  1.
    9000005    2    1    2  501    0  0.18141201325E+01  0.77702294823E+01 -0.68212459603E+03  0.68225915711E+03  0.10951047922E+02 0.  0.
         13    1    3    3    0    0  0.41919297109E+01 -0.85461608163E+00 -0.15666312600E+03  0.15672152913E+03  0.00000000000E+00 0.  1.
          3    1    3    3  501    0 -0.23778095784E+01  0.86248455639E+01 -0.52546147003E+03  0.52553762798E+03  0.00000000000E+00 0.  1.
         -1    1    1    2    0  502 -0.18141201325E+01 -0.77702294823E+01 -0.31775804014E+03  0.31785820671E+03  0.00000000000E+00 0. -1.
<mgrwt>
<rscale>  1 0.30000000E+03</rscale>
<asrwt>0</asrwt>
<pdfrwt beam="1">  1       21 0.42677844E-03 0.30000000E+03</pdfrwt>
<pdfrwt beam="2">0</pdfrwt>
<totfact> 0.15323144E+06</totfact>
</mgrwt>
</event>
<event>
 6    1  0.1132867E-002  0.3000000E+03  0.7818608E-02  0.1093470E+00
         21   -1    0    0  501  502  0.00000000000E+00  0.00000000000E+00  0.94998289416E+00  0.94998289416E+00  0.00000000000E+00 0. -1.
         13   -1    0    0    0    0 -0.00000000000E+00 -0.00000000000E+00 -0.10000000000E+04  0.10000000000E+04  0.00000000000E+00 0.  1.
    9000005    2    1    2  501    0 -0.59047427969E+00  0.17194117344E+02 -0.91411135232E+03  0.91428647784E+03  0.49206509992E+01 0.  0.
         13    1    3    3    0    0 -0.29674049183E+00  0.56254875042E+01 -0.19273171928E+03  0.19281402901E+03  0.00000000000E+00 0.  1.
          1    1    3    3  501    0 -0.29373378786E+00  0.11568629840E+02 -0.72137963303E+03  0.72147244884E+03  0.00000000000E+00 0.  1.
         -3    1    1    2    0  502  0.59047427969E+00 -0.17194117344E+02 -0.84938664790E+02  0.86663505049E+02  0.00000000000E+00 0. -1.
<mgrwt>
<rscale>  1 0.30000000E+03</rscale>
<asrwt>0</asrwt>
<pdfrwt beam="1">  1       21 0.34544905E-02 0.30000000E+03</pdfrwt>
<pdfrwt beam="2">0</pdfrwt>
<totfact> 0.53782100E+04</totfact>
</mgrwt>
</event>
<event>
 6    1  0.1132867E-002  0.3000000E+03  0.7818608E-02  0.1093470E+00
         21   -1    0    0  501  502  0.00000000000E+00  0.00000000000E+00  0.78035012039E-01  0.78035012039E-01  0.00000000000E+00 0. -1.
         13   -1    0    0    0    0 -0.00000000000E+00 -0.00000000000E+00 -0.10000000000E+04  0.10000000000E+04  0.00000000000E+00 0.  1.
    9000005    2    1    2  501    0 -0.48963316472E+01  0.67552326958E+01 -0.55647885904E+03  0.55655645104E+03  0.40933370643E+01 0.  0.
         13    1    3    3    0    0 -0.31250218929E+01  0.10890853529E+01 -0.17310363377E+03  0.17313526473E+03  0.00000000000E+00 0.  1.
          3    1    3    3  501    0 -0.17713097542E+01  0.56661473429E+01 -0.38337522527E+03  0.38342118631E+03  0.00000000000E+00 0.  1.
         -3    1    1    2    0  502  0.48963316472E+01 -0.67552326958E+01 -0.44344310595E+03  0.44352158397E+03  0.00000000000E+00 0. -1.
<mgrwt>
<rscale>  1 0.30000000E+03</rscale>
<asrwt>0</asrwt>
<pdfrwt beam="1">  1       21 0.28376428E-03 0.30000000E+03</pdfrwt>
<pdfrwt beam="2">0</pdfrwt>
<totfact> 0.28691925E+06</totfact>
</mgrwt>
</event>
<event>
 6    1  0.1132867E-002  0.3000000E+03  0.7818608E-02  0.1093470E+00
         21   -1    0    0  501  502  0.00000000000E+00  0.00000000000E+00  0.12613039502E+00  0.12613039502E+00  0.00000000000E+00 0. -1.
         13   -1    0    0    0    0 -0.00000000000E+00 -0.00000000000E+00 -0.10000000000E+04  0.10000000000E+04  0.00000000000E+00 0.  1.
    9000005    2    1    2  501    0  0.63585943293E+01  0.52416599400E+01 -0.70983067256E+03  0.70996589385E+03  0.11139120255E+02 0.  0.
         13    1    3    3    0    0  0.76244895985E+01  0.26517688147E+01 -0.66154329426E+03  0.66159254447E+03  0.00000000000E+00 0.  1.
          3    1    3    3  501    0 -0.12658952692E+01  0.25898911253E+01 -0.48287378301E+02  0.48373349378E+02  0.00000000000E+00 0.  1.
         -3    1    1    2    0  502 -0.63585943293E+01 -0.52416599400E+01 -0.29004319705E+03  0.29016023655E+03  0.00000000000E+00 0. -1.
<mgrwt>
<rscale>  1 0.30000000E+03</rscale>
<asrwt>0</asrwt>
<pdfrwt beam="1">  1       21 0.45865695E-03 0.30000000E+03</pdfrwt>
<pdfrwt beam="2">0</pdfrwt>
<totfact> 0.13707774E+06</totfact>
</mgrwt>
</event>
<event>
 6    1  0.1132867E-002  0.3000000E+03  0.7818608E-02  0.1093470E+00
         21   -1    0    0  501  502  0.00000000000E+00  0.00000000000E+00  0.60396365867E+00  0.60396365867E+00  0.00000000000E+00 0. -1.
         13   -1    0    0    0    0 -0.00000000000E+00 -0.00000000000E+00 -0.10000000000E+04  0.10000000000E+04  0.00000000000E+00 0.  1.
    9000005    2    1    2  501    0  0.21958128483E+02  0.75850441901E+01 -0.64522201243E+03  0.64566885478E+03  0.60936364863E+01 0.  0.
         13    1    3    3    0    0  0.11416281026E+02  0.30774590863E+01 -0.40617102469E+03  0.40634308598E+03  0.00000000000E+00 0.  1.
          1    1    3    3  501    0  0.10541847457E+02  0.45075851039E+01 -0.23905098774E+03  0.23932576880E+03  0.00000000000E+00 0.  1.
         -1    1    1    2    0  502 -0.21958128483E+02 -0.75850441901E+01 -0.35417402391E+03  0.35493510888E+03  0.00000000000E+00 0. -1.
<mgrwt>
<rscale>  1 0.30000000E+03</rscale>
<asrwt>0</asrwt>
<pdfrwt beam="1">  1       21 0.21962361E-02 0.30000000E+03</pdfrwt>
<pdfrwt beam="2">0</pdfrwt>
<totfact> 0.11376026E+05</totfact>
</mgrwt>
</event>
<event>
 6    1  0.1132867E-002  0.3000000E+03  0.7818608E-02  0.1093470E+00
         21   -1    0    0  501  502  0.00000000000E+00  0.00000000000E+00  0.16385703108E+00  0.16385703108E+00  0.00000000000E+00 0. -1.
         13   -1    0    0    0    0 -0.00000000000E+00 -0.00000000000E+00 -0.10000000000E+04  0.10000000000E+04  0.00000000000E+00 0.  1.
    9000005    2    1    2  501    0  0.51486814098E+01 -0.10518151876E+02 -0.56555204039E+03  0.56572189061E+03  0.74166489457E+01 0.  0.
         13    1    3    3    0    0  0.64868872347E+01 -0.95213323711E+01 -0.41282135192E+03  0.41298208688E+03  0.00000000000E+00 0.  1.
          3    1    3    3  501    0 -0.13382058248E+01 -0.99681950466E+00 -0.15273068847E+03  0.15273980373E+03  0.00000000000E+00 0.  1.
         -3    1    1    2    0  502 -0.51486814098E+01  0.10518151876E+02 -0.43428410258E+03  0.43444196642E+03  0.00000000000E+00 0. -1.
<mgrwt>
<rscale>  1 0.30000000E+03</rscale>
<asrwt>0</asrwt>
<pdfrwt beam="1">  1       21 0.59584501E-03 0.30000000E+03</pdfrwt>
<pdfrwt beam="2">0</pdfrwt>
<totfact> 0.91267953E+05</totfact>
</mgrwt>
</event>
<event>
 6    1  0.1132867E-002  0.3000000E+03  0.7818608E-02  0.1093470E+00
         21   -1    0    0  501  502  0.00000000000E+00  0.00000000000E+00  0.32028268907E+00  0.32028268907E+00  0.00000000000E+00 0. -1.
         13   -1    0    0    0    0 -0.00000000000E+00 -0.00000000000E+00 -0.10000000000E+04  0.10000000000E+04  0.00000000000E+00 0.  1.
    9000005    2    1    2  501    0 -0.93462289998E+01  0.65631713802E+01 -0.17769397077E+03  0.17825520331E+03  0.83272471228E+01 0.  0.
         13    1    3    3    0    0  0.10956451845E+01  0.20434869408E+01 -0.50546202624E+02  0.50599356487E+02  0.00000000000E+00 0.  1.
          3    1    3    3  501    0 -0.10441874184E+02  0.45196844394E+01 -0.12714776815E+03  0.12765584683E+03  0.00000000000E+00 0.  1.
         -3    1    1    2    0  502  0.93462289998E+01 -0.65631713802E+01 -0.82198574654E+03  0.82206507938E+03  0.00000000000E+00 0. -1.
<mgrwt>
<rscale>  1 0.30000000E+03</rscale>
<asrwt>0</asrwt>
<pdfrwt beam="1">  1       21 0.11646668E-02 0.30000000E+03</pdfrwt>
<pdfrwt beam="2">0</pdfrwt>
<totfact> 0.31703637E+05</totfact>
</mgrwt>
</event>
<event>
 6    1  0.1132867E-002  0.3000000E+03  0.7818608E-02  0.1093470E+00
         21   -1    0    0  501  502  0.00000000000E+00  0.00000000000E+00  0.15924374459E+00  0.15924374459E+00  0.00000000000E+00 0. -1.
         13   -1    0    0    0    0 -0.00000000000E+00 -0.00000000000E+00 -0.10000000000E+04  0.10000000000E+04  0.00000000000E+00 0.  1.
    9000005    2    1    2  501    0 -0.47058812410E+01 -0.80256382939E+01 -0.57013383632E+03  0.57035162024E+03  0.12720974695E+02 0.  0.
         13    1    3    3    0    0 -0.66893733336E+01 -0.73002086152E+01 -0.55292775871E+03  0.55301640763E+03  0.00000000000E+00 0.  1.
          1    1    3    3  501    0  0.19834920926E+01 -0.72542967866E+00 -0.17206077617E+02  0.17335212605E+02  0.00000000000E+00 0.  1.
         -1    1    1    2    0  502  0.47058812410E+01  0.80256382939E+01 -0.42970691993E+03  0.42980762351E+03  0.00000000000E+00 0. -1.
<mgrwt>
<rscale>  1 0.30000000E+03</rscale>
<asrwt>0</asrwt>
<pdfrwt beam="1">  1       21 0.57906938E-03 0.30000000E+03</pdfrwt>
<pdfrwt beam="2">0</pdfrwt>
<totfact> 0.95424699E+05</totfact>
</mgrwt>
</event>
<event>
 6    1  0.1132867E-002  0.3000000E+03  0.7818608E-02  0.1093470E+00
         21   -1    0    0  501  502  0.00000000000E+00  0.00000000000E+00  0.55904289751E+00  0.55904289751E+00  0.00000000000E+00 0. -1.
         13   -1    0    0    0    0 -0.00000000000E+00 -0.00000000000E+00 -0.10000000000E+04  0.10000000000E+04  0.00000000000E+00 0.  1.
    9000005    2    1    2  501    0  0.17078957367E+01 -0.11314120371E+02 -0.88299562110E+03  0.88355287852E+03  0.29214654137E+02 0.  0.
         13    1    3    3    0    0  0.60709967084E+01 -0.12901800561E+02 -0.18736983747E+03  0.18791160010E+03  0.00000000000E+00 0.  1.
          3    1    3    3  501    0 -0.43631009717E+01  0.15876801897E+01 -0.69562578363E+03  0.69564127841E+03  0.00000000000E+00 0.  1.
         -1    1    1    2    0  502 -0.17078957367E+01  0.11314120371E+02 -0.11644533600E+03  0.11700616438E+03  0.00000000000E+00 0. -1.
<mgrwt>
<rscale>  1 0.30000000E+03</rscale>
<asrwt>0</asrwt>
<pdfrwt beam="1">  1       21 0.20328876E-02 0.30000000E+03</pdfrwt>
<pdfrwt beam="2">0</pdfrwt>
<totfact> 0.12908289E+05</totfact>
</mgrwt>
</event>
<event>
 6    1  0.1132867E-002  0.3000000E+03  0.7818608E-02  0.1093470E+00
         21   -1    0    0  501  502  0.00000000000E+00  0.00000000000E+00  0.62805808239E+00  0.62805808239E+00  0.00000000000E+00 0. -1.
         13   -1    0    0    0    0 -0.00000000000E+00 -0.00000000000E+00 -0.10000000000E+04  0.10000000000E+04  0.00000000000E+00 0.  1.
    9000005    2    1    2  501    0 -0.58867811512E+01 -0.97426065990E+01 -0.92060471780E+03  0.92104258094E+03  0.26015704995E+02 0.  0.
         13    1    3    3    0    0 -0.10889276838E+02 -0.16617921075E+02 -0.62612663866E+03  0.62644177646E+03  0.00000000000E+00 0.  1.
          3    1    3    3  501    0  0.50024956868E+01  0.68753144755E+01 -0.29447807913E+03  0.29460080448E+03  0.00000000000E+00 0.  1.
         -3    1    1    2    0  502  0.58867811512E+01  0.97426065990E+01 -0.78767224120E+02  0.79585477137E+02  0.00000000000E+00 0. -1.
<mgrwt>
<rscale>  1 0.30000000E+03</rscale>
<asrwt>0</asrwt>
<pdfrwt beam="1">  1       21 0.22838524E-02 0.30000000E+03</pdfrwt>
<pdfrwt beam="2">0</pdfrwt>
<totfact> 0.10669586E+05</totfact>
</mgrwt>
</event>
<event>
 6    1  0.1132867E-002  0.3000000E+03  0.7818608E-02  0.1093470E+00
         21   -1    0    0  501  502  0.00000000000E+00  0.00000000000E+00  0.11259542078E+00  0.11259542078E+00  0.00000000000E+00 0. -1.
         13   -1    0    0    0    0 -0.00000000000E+00 -0.00000000000E+00 -0.10000000000E+04  0.10000000000E+04  0.00000000000E+00 0.  1.
    9000005    2    1    2  501    0 -0.58491109308E+01 -0.74555067918E+01 -0.62722340664E+03  0.62732813753E+03  0.64493121678E+01 0.  0.
         13    1    3    3    0    0 -0.48301185403E+01 -0.86171638069E+01 -0.52313700540E+03  0.52323026668E+03  0.00000000000E+00 0.  1.
          3    1    3    3  501    0 -0.10189923905E+01  0.11616570150E+01 -0.10408640124E+03  0.10409787085E+03  0.00000000000E+00 0.  1.
         -3    1    1    2    0  502  0.58491109308E+01  0.74555067918E+01 -0.37266399794E+03  0.37278445789E+03  0.00000000000E+00 0. -1.
<mgrwt>
<rscale>  1 0.30000000E+03</rscale>
<asrwt>0</asrwt>
<pdfrwt beam="1">  1       21 0.40943876E-03 0.30000000E+03</pdfrwt>
<pdfrwt beam="2">0</pdfrwt>
<totfact> 0.16336638E+06</totfact>
</mgrwt>
</event>
<event>
 6    1  0.1132867E-002  0.3000000E+03  0.7818608E-02  0.1093470E+00
         21   -1    0    0  501  502  0.00000000000E+00  0.00000000000E+00  0.10198791686E+00  0.10198791686E+00  0.00000000000E+00 0. -1.
         13   -1    0    0    0    0 -0.00000000000E+00 -0.00000000000E+00 -0.10000000000E+04  0.10000000000E+04  0.00000000000E+00 0.  1.
    9000005    2    1    2  501    0 -0.34229497792E+01  0.84571374435E+01 -0.68928755252E+03  0.68935756343E+03  0.36442340475E+01 0.  0.
         13    1    3    3    0    0 -0.28801384478E+01  0.24194891461E+01 -0.25932172761E+03  0.25934900720E+03  0.00000000000E+00 0.  1.
          3    1    3    3  501    0 -0.54281133145E+00  0.60376482975E+01 -0.42996582491E+03  0.43000855623E+03  0.00000000000E+00 0.  1.
         -3    1    1    2    0  502  0.34229497792E+01 -0.84571374435E+01 -0.31061045956E+03  0.31074442449E+03  0.00000000000E+00 0. -1.
<mgrwt>
<rscale>  1 0.30000000E+03</rscale>
<asrwt>0</asrwt>
<pdfrwt beam="1">  1       21 0.37086593E-03 0.30000000E+03</pdfrwt>
<pdfrwt beam="2">0</pdfrwt>
<totfact> 0.19029294E+06</totfact>
</mgrwt>
</event>
<event>
 6    1  0.1132867E-002  0.3000000E+03  0.7818608E-02  0.1093470E+00
         21   -1    0    0  501  502  0.00000000000E+00  0.00000000000E+00  0.29968829886E+00  0.29968829886E+00  0.00000000000E+00 0. -1.
         13   -1    0    0    0    0 -0.00000000000E+00 -0.00000000000E+00 -0.10000000000E+04  0.10000000000E+04  0.00000000000E+00 0.  1.
    9000005    2    1    2  501    0  0.75955775715E+01  0.86631904671E+00 -0.78891386019E+03  0.78937465079E+03  0.25861500403E+02 0.  0.
         13    1    3    3    0    0 -0.72396028753E+01 -0.57855584398E+01 -0.17468325211E+03  0.17492890872E+03  0.00000000000E+00 0.  1.
          3    1    3    3  501    0  0.14835180447E+02  0.66518774865E+01 -0.61423060808E+03  0.61444574207E+03  0.00000000000E+00 0.  1.
         -3    1    1    2    0  502 -0.75955775715E+01 -0.86631904671E+00 -0.21078645151E+03  0.21092503751E+03  0.00000000000E+00 0. -1.
<mgrwt>
<rscale>  1 0.30000000E+03</rscale>
<asrwt>0</asrwt>
<pdfrwt beam="1">  1       21 0.10897779E-02 0.30000000E+03</pdfrwt>
<pdfrwt beam="2">0</pdfrwt>
<totfact> 0.35245570E+05</totfact>
</mgrwt>
</event>
<event>
 6    1  0.1132867E-002  0.3000000E+03  0.7818608E-02  0.1093470E+00
         21   -1    0    0  501  502  0.00000000000E+00  0.00000000000E+00  0.84106008096E+00  0.84106008096E+00  0.00000000000E+00 0. -1.
         13   -1    0    0    0    0 -0.00000000000E+00 -0.00000000000E+00 -0.10000000000E+04  0.10000000000E+04  0.00000000000E+00 0.  1.
    9000005    2    1    2  501    0 -0.20060625242E+01 -0.15145525508E+02 -0.92265340148E+03  0.92282498071E+03  0.91232952223E+01 0.  0.
         13    1    3    3    0    0 -0.24734906010E+01 -0.12122806301E+00 -0.19951448375E+03  0.19952985260E+03  0.00000000000E+00 0.  1.
          3    1    3    3  501    0  0.46742807684E+00 -0.15024297445E+02 -0.72313891773E+03  0.72329512811E+03  0.00000000000E+00 0.  1.
         -3    1    1    2    0  502  0.20060625242E+01  0.15145525508E+02 -0.76505538435E+02  0.78016079374E+02  0.00000000000E+00 0. -1.
<mgrwt>
<rscale>  1 0.30000000E+03</rscale>
<asrwt>0</asrwt>
<pdfrwt beam="1">  1       21 0.30584067E-02 0.30000000E+03</pdfrwt>
<pdfrwt beam="2">0</pdfrwt>
<totfact> 0.65885981E+04</totfact>
</mgrwt>
</event>
<event>
 6    1  0.1132867E-002  0.3000000E+03  0.7818608E-02  0.1093470E+00
         21   -1    0    0  501  502  0.00000000000E+00  0.00000000000E+00  0.74498881480E+00  0.74498881480E+00  0.00000000000E+00 0. -1.
         13   -1    0    0    0    0 -0.00000000000E+00 -0.00000000000E+00 -0.10000000000E+04  0.10000000000E+04  0.00000000000E+00 0.  1.
    9000005    2    1    2  501    0 -0.23392511986E+01  0.97628952020E+01 -0.96421526978E+03  0.96429543880E+03  0.73362514251E+01 0.  0.
         13    1    3    3    0    0 -0.29471854249E+01  0.52723996062E+00 -0.17143795357E+03  0.17146409481E+03  0.00000000000E+00 0.  1.
          3    1    3    3  501    0  0.60793422631E+00  0.92356552413E+01 -0.79277731621E+03  0.79283134399E+03  0.00000000000E+00 0.  1.
         -1    1    1    2    0  502  0.23392511986E+01 -0.97628952020E+01 -0.35039741402E+02  0.36449550016E+02  0.00000000000E+00 0. -1.
<mgrwt>
<rscale>  1 0.30000000E+03</rscale>
<asrwt>0</asrwt>
<pdfrwt beam="1">  1       21 0.27090559E-02 0.30000000E+03</pdfrwt>
<pdfrwt beam="2">0</pdfrwt>
<totfact> 0.80560477E+04</totfact>
</mgrwt>
</event>
<event>
 6    1  0.1132867E-002  0.3000000E+03  0.7818608E-02  0.1093470E+00
         21   -1    0    0  501  502  0.00000000000E+00  0.00000000000E+00  0.94439633987E-01  0.94439633987E-01  0.00000000000E+00 0. -1.
         13   -1    0    0    0    0 -0.00000000000E+00 -0.00000000000E+00 -0.10000000000E+04  0.10000000000E+04  0.00000000000E+00 0.  1.
    9000005    2    1    2  501    0  0.16332327483E+01  0.87655980576E+01 -0.64967880397E+03  0.64975419922E+03  0.42974313280E+01 0.  0.
         13    1    3    3    0    0  0.12064435973E+01  0.90721883689E+01 -0.56820993339E+03  0.56828363386E+03  0.00000000000E+00 0.  1.
          1    1    3    3  501    0  0.42678915102E+00 -0.30659031133E+00 -0.81468870586E+02  0.81470565367E+02  0.00000000000E+00 0.  1.
         -3    1    1    2    0  502 -0.16332327483E+01 -0.87655980576E+01 -0.35022675639E+03  0.35034024041E+03  0.00000000000E+00 0. -1.
<mgrwt>
<rscale>  1 0.30000000E+03</rscale>
<asrwt>0</asrwt>
<pdfrwt beam="1">  1       21 0.34341758E-03 0.30000000E+03</pdfrwt>
<pdfrwt beam="2">0</pdfrwt>
<totfact> 0.21417521E+06</totfact>
</mgrwt>
</event>
<event>
 6    1  0.1132867E-002  0.3000000E+03  0.7818608E-02  0.1093470E+00
         21   -1    0    0  501  502  0.00000000000E+00  0.00000000000E+00  0.10260498399E+00  0.10260498399E+00  0.00000000000E+00 0. -1.
         13   -1    0    0    0    0 -0.00000000000E+00 -0.00000000000E+00 -0.10000000000E+04  0.10000000000E+04  0.00000000000E+00 0.  1.
    9000005    2    1    2  501    0  0.47241810808E+01  0.75854973138E+01 -0.46222761342E+03  0.46235856578E+03  0.64202092746E+01 0.  0.
         13    1    3    3    0    0  0.60282774332E+01  0.64593433906E+01 -0.42411818165E+03  0.42421020173E+03  0.00000000000E+00 0.  1.
          1    1    3    3  501    0 -0.13040963524E+01  0.11261539232E+01 -0.38109431771E+02  0.38148364053E+02  0.00000000000E+00 0.  1.
         -1    1    1    2    0  502 -0.47241810808E+01 -0.75854973138E+01 -0.53766978160E+03  0.53774403920E+03  0.00000000000E+00 0. -1.
<mgrwt>
<rscale>  1 0.30000000E+03</rscale>
<asrwt>0</asrwt>
<pdfrwt beam="1">  1       21 0.37310982E-03 0.30000000E+03</pdfrwt>
<pdfrwt beam="2">0</pdfrwt>
<totfact> 0.18853358E+06</totfact>
</mgrwt>
</event>
<event>
 6    1  0.1132867E-002  0.3000000E+03  0.7818608E-02  0.1093470E+00
         21   -1    0    0  501  502  0.00000000000E+00  0.00000000000E+00  0.43942477687E+00  0.43942477687E+00  0.00000000000E+00 0. -1.
         13   -1    0    0    0    0 -0.00000000000E+00 -0.00000000000E+00 -0.10000000000E+04  0.10000000000E+04  0.00000000000E+00 0.  1.
    9000005    2    1    2  501    0  0.69738161641E+01 -0.70125292325E+01 -0.93844634720E+03  0.93853014804E+03  0.77124928206E+01 0.  0.
         13    1    3    3    0    0  0.44059236550E+01 -0.61669676810E+01 -0.86631560640E+03  0.86634875976E+03  0.00000000000E+00 0.  1.
          3    1    3    3  501    0  0.25678925090E+01 -0.84556155147E+00 -0.72130740800E+02  0.72181388284E+02  0.00000000000E+00 0.  1.
         -1    1    1    2    0  502 -0.69738161641E+01  0.70125292325E+01 -0.61114228027E+02  0.61909276732E+02  0.00000000000E+00 0. -1.
<mgrwt>
<rscale>  1 0.30000000E+03</rscale>
<asrwt>0</asrwt>
<pdfrwt beam="1">  1       21 0.15979116E-02 0.30000000E+03</pdfrwt>
<pdfrwt beam="2">0</pdfrwt>
<totfact> 0.19081639E+05</totfact>
</mgrwt>
</event>
<event>
 6    1  0.1132867E-002  0.3000000E+03  0.7818608E-02  0.1093470E+00
         21   -1    0    0  501  502  0.00000000000E+00  0.00000000000E+00  0.16240899174E+00  0.16240899174E+00  0.00000000000E+00 0. -1.
         13   -1    0    0    0    0 -0.00000000000E+00 -0.00000000000E+00 -0.10000000000E+04  0.10000000000E+04  0.00000000000E+00 0.  1.
    9000005    2    1    2  501    0 -0.12157518337E+02  0.89830862988E+00 -0.49852970717E+03  0.49870632257E+03  0.52454771274E+01 0.  0.
         13    1    3    3    0    0 -0.53125142254E+01  0.36941042465E+00 -0.12480699321E+03  0.12492055406E+03  0.00000000000E+00 0.  1.
          1    1    3    3  501    0 -0.68450041112E+01  0.52889820523E+00 -0.37372271396E+03  0.37378576851E+03  0.00000000000E+00 0.  1.
         -1    1    1    2    0  502  0.12157518337E+02 -0.89830862988E+00 -0.50130788384E+03  0.50145608643E+03  0.00000000000E+00 0. -1.
<mgrwt>
<rscale>  1 0.30000000E+03</rscale>
<asrwt>0</asrwt>
<pdfrwt beam="1">  1       21 0.59057940E-03 0.30000000E+03</pdfrwt>
<pdfrwt beam="2">0</pdfrwt>
<totfact> 0.92540664E+05</totfact>
</mgrwt>
</event>
<event>
 6    1  0.1132867E-002  0.3000000E+03  0.7818608E-02  0.1093470E+00
         21   -1    0    0  501  502  0.00000000000E+00  0.00000000000E+00  0.12829899107E+00  0.12829899107E+00  0.00000000000E+00 0. -1.
         13   -1    0    0    0    0 -0.00000000000E+00 -0.00000000000E+00 -0.10000000000E+04  0.10000000000E+04  0.00000000000E+00 0.  1.
    9000005    2    1    2  501    0  0.93379770945E+01 -0.61004558718E+00 -0.77348156911E+03  0.77354484462E+03  0.32123074585E+01 0.  0.
         13    1    3    3    0    0 -0.10691399556E+00  0.85484688014E-01 -0.18118603775E+01  0.18170240124E+01  0.00000000000E+00 0.  1.
          1    1    3    3  501    0  0.94448910901E+01 -0.69553027519E+00 -0.77166970873E+03  0.77172782061E+03  0.00000000000E+00 0.  1.
         -3    1    1    2    0  502 -0.93379770945E+01  0.61004558718E+00 -0.22639013190E+03  0.22658345437E+03  0.00000000000E+00 0. -1.
<mgrwt>
<rscale>  1 0.30000000E+03</rscale>
<asrwt>0</asrwt>
<pdfrwt beam="1">  1       21 0.46654277E-03 0.30000000E+03</pdfrwt>
<pdfrwt beam="2">0</pdfrwt>
<totfact> 0.13350612E+06</totfact>
</mgrwt>
</event>
<event>
 6    1  0.1132867E-002  0.3000000E+03  0.7818608E-02  0.1093470E+00
         21   -1    0    0  501  502  0.00000000000E+00  0.00000000000E+00  0.36243197936E+00  0.36243197936E+00  0.00000000000E+00 0. -1.
         13   -1    0    0    0    0 -0.00000000000E+00 -0.00000000000E+00 -0.10000000000E+04  0.10000000000E+04  0.00000000000E+00 0.  1.
    9000005    2    1    2  501    0  0.11409400221E+02  0.90181665890E+01 -0.79847271468E+03  0.79867257115E+03  0.10377768357E+02 0.  0.
         13    1    3    3    0    0 -0.14603321026E+01 -0.81263923466E+00 -0.74129472229E+02  0.74148308176E+02  0.00000000000E+00 0.  1.
          1    1    3    3  501    0  0.12869732323E+02  0.98308058237E+01 -0.72434324245E+03  0.72452426297E+03  0.00000000000E+00 0.  1.
         -3    1    1    2    0  502 -0.11409400221E+02 -0.90181665890E+01 -0.20116485334E+03  0.20168986083E+03  0.00000000000E+00 0. -1.
<mgrwt>
<rscale>  1 0.30000000E+03</rscale>
<asrwt>0</asrwt>
<pdfrwt beam="1">  1       21 0.13179372E-02 0.30000000E+03</pdfrwt>
<pdfrwt beam="2">0</pdfrwt>
<totfact> 0.26015343E+05</totfact>
</mgrwt>
</event>
<event>
 6    1  0.1132867E-002  0.3000000E+03  0.7818608E-02  0.1093470E+00
         21   -1    0    0  501  502  0.00000000000E+00  0.00000000000E+00  0.10387068167E+01  0.10387068167E+01  0.00000000000E+00 0. -1.
         13   -1    0    0    0    0 -0.00000000000E+00 -0.00000000000E+00 -0.10000000000E+04  0.10000000000E+04  0.00000000000E+00 0.  1.
    9000005    2    1    2  501    0  0.42330434686E+00 -0.27924588034E+02 -0.69922201153E+03  0.70000116967E+03  0.17614037931E+02 0.  0.
         13    1    3    3    0    0 -0.35604807694E+01 -0.12322945587E+02 -0.48710556774E+03  0.48727442590E+03  0.00000000000E+00 0.  1.
          3    1    3    3  501    0  0.39837851163E+01 -0.15601642447E+02 -0.21211644378E+03  0.21272674377E+03  0.00000000000E+00 0.  1.
         -3    1    1    2    0  502 -0.42330434686E+00  0.27924588034E+02 -0.29973928166E+03  0.30103753715E+03  0.00000000000E+00 0. -1.
<mgrwt>
<rscale>  1 0.30000000E+03</rscale>
<asrwt>0</asrwt>
<pdfrwt beam="1">  1       21 0.37771237E-02 0.30000000E+03</pdfrwt>
<pdfrwt beam="2">0</pdfrwt>
<totfact> 0.46303406E+04</totfact>
</mgrwt>
</event>
<event>
 6    1  0.1132867E-002  0.3000000E+03  0.7818608E-02  0.1093470E+00
         21   -1    0    0  501  502  0.00000000000E+00  0.00000000000E+00  0.34274337832E+01  0.34274337832E+01  0.00000000000E+00 0. -1.
         13   -1    0    0    0    0 -0.00000000000E+00 -0.00000000000E+00 -0.10000000000E+04  0.10000000000E+04  0.00000000000E+00 0.  1.
    9000005    2    1    2  501    0 -0.79511901772E+01  0.67742342442E+01 -0.99189530934E+03  0.99198241711E+03  0.79811955255E+01 0.  0.
         13    1    3    3    0    0 -0.40655466045E+01  0.54787131730E+01 -0.85160679305E+03  0.85163412035E+03  0.00000000000E+00 0.  1.
          3    1    3    3  501    0 -0.38856435728E+01  0.12955210712E+01 -0.14028851629E+03  0.14034829676E+03  0.00000000000E+00 0.  1.
         -3    1    1    2    0  502  0.79511901772E+01 -0.67742342442E+01 -0.46772568753E+01  0.11445016676E+02  0.00000000000E+00 0. -1.
<mgrwt>
<rscale>  1 0.30000000E+03</rscale>
<asrwt>0</asrwt>
<pdfrwt beam="1">  1       21 0.12463422E-01 0.30000000E+03</pdfrwt>
<pdfrwt beam="2">0</pdfrwt>
<totfact> 0.57844845E+03</totfact>
</mgrwt>
</event>
<event>
 6    1  0.1877560E-002  0.3000000E+03  0.7818608E-02  0.1093470E+00
         21   -1    0    0  501  502  0.00000000000E+00  0.00000000000E+00  0.29359221288E+01  0.29359221288E+01  0.00000000000E+00 0. -1.
         13   -1    0    0    0    0 -0.00000000000E+00 -0.00000000000E+00 -0.10000000000E+04  0.10000000000E+04  0.00000000000E+00 0.  1.
    9000005    2    1    2  501    0  0.44210352769E+01 -0.19882939349E+02 -0.93551309804E+03  0.93810228928E+03  0.66605343027E+02 0.  0.
         13    1    3    3    0    0  0.14723694903E+02  0.16829337652E+02 -0.14931532856E+03  0.15098039985E+03  0.00000000000E+00 0.  1.
          1    1    3    3  501    0 -0.10302659626E+02 -0.36712277001E+02 -0.78619776948E+03  0.78712188943E+03  0.00000000000E+00 0.  1.
         -3    1    1    2    0  502 -0.44210352769E+01  0.19882939349E+02 -0.61550979832E+02  0.64833632848E+02  0.00000000000E+00 0. -1.
<mgrwt>
<rscale>  1 0.30000000E+03</rscale>
<asrwt>0</asrwt>
<pdfrwt beam="1">  1       21 0.10676103E-01 0.30000000E+03</pdfrwt>
<pdfrwt beam="2">0</pdfrwt>
<totfact> 0.76521412E+03</totfact>
</mgrwt>
</event>
<event>
 6    1  0.1132867E-002  0.3000000E+03  0.7818608E-02  0.1093470E+00
         21   -1    0    0  501  502  0.00000000000E+00  0.00000000000E+00  0.10018887613E+00  0.10018887613E+00  0.00000000000E+00 0. -1.
         13   -1    0    0    0    0 -0.00000000000E+00 -0.00000000000E+00 -0.10000000000E+04  0.10000000000E+04  0.00000000000E+00 0.  1.
    9000005    2    1    2  501    0 -0.54315052236E+01 -0.80555195294E+01 -0.53417849568E+03  0.53427754419E+03  0.33817650075E+01 0.  0.
         13    1    3    3    0    0 -0.30429931036E+01 -0.22312790519E+01 -0.25616470600E+03  0.25619249601E+03  0.00000000000E+00 0.  1.
          1    1    3    3  501    0 -0.23885121200E+01 -0.58242404774E+01 -0.27801378968E+03  0.27808504818E+03  0.00000000000E+00 0.  1.
         -3    1    1    2    0  502  0.54315052236E+01  0.80555195294E+01 -0.46572131545E+03  0.46582264469E+03  0.00000000000E+00 0. -1.
<mgrwt>
<rscale>  1 0.30000000E+03</rscale>
<asrwt>0</asrwt>
<pdfrwt beam="1">  1       21 0.36432395E-03 0.30000000E+03</pdfrwt>
<pdfrwt beam="2">0</pdfrwt>
<totfact> 0.19557752E+06</totfact>
</mgrwt>
</event>
<event>
 6    1  0.1132867E-002  0.3000000E+03  0.7818608E-02  0.1093470E+00
         21   -1    0    0  501  502  0.00000000000E+00  0.00000000000E+00  0.24533978647E+00  0.24533978647E+00  0.00000000000E+00 0. -1.
         13   -1    0    0    0    0 -0.00000000000E+00 -0.00000000000E+00 -0.10000000000E+04  0.10000000000E+04  0.00000000000E+00 0.  1.
    9000005    2    1    2  501    0 -0.70974902446E+01  0.13078883649E+02 -0.61497478668E+03  0.61517783578E+03  0.53244546744E+01 0.  0.
         13    1    3    3    0    0 -0.32412990753E+01  0.10053026629E+02 -0.35599085891E+03  0.35614752701E+03  0.00000000000E+00 0.  1.
          3    1    3    3  501    0 -0.38561911694E+01  0.30258570199E+01 -0.25898392777E+03  0.25903030877E+03  0.00000000000E+00 0.  1.
         -1    1    1    2    0  502  0.70974902446E+01 -0.13078883649E+02 -0.38477987353E+03  0.38506750400E+03  0.00000000000E+00 0. -1.
<mgrwt>
<rscale>  1 0.30000000E+03</rscale>
<asrwt>0</asrwt>
<pdfrwt beam="1">  1       21 0.89214656E-03 0.30000000E+03</pdfrwt>
<pdfrwt beam="2">0</pdfrwt>
<totfact> 0.48415002E+05</totfact>
</mgrwt>
</event>
<event>
 6    1  0.1132867E-002  0.3000000E+03  0.7818608E-02  0.1093470E+00
         21   -1    0    0  501  502  0.00000000000E+00  0.00000000000E+00  0.91318271070E-01  0.91318271070E-01  0.00000000000E+00 0. -1.
         13   -1    0    0    0    0 -0.00000000000E+00 -0.00000000000E+00 -0.10000000000E+04  0.10000000000E+04  0.00000000000E+00 0.  1.
    9000005    2    1    2  501    0  0.65808069183E+00  0.82117932347E+01 -0.65920696392E+03  0.65929001672E+03  0.64527709381E+01 0.  0.
         13    1    3    3    0    0 -0.28547608116E+01  0.28422456809E+01 -0.27411094053E+03  0.27414054012E+03  0.00000000000E+00 0.  1.
          3    1    3    3  501    0  0.35128415034E+01  0.53695475538E+01 -0.38509602339E+03  0.38514947660E+03  0.00000000000E+00 0.  1.
         -1    1    1    2    0  502 -0.65808069183E+00 -0.82117932347E+01 -0.34070171781E+03  0.34080130155E+03  0.00000000000E+00 0. -1.
<mgrwt>
<rscale>  1 0.30000000E+03</rscale>
<asrwt>0</asrwt>
<pdfrwt beam="1">  1       21 0.33206714E-03 0.30000000E+03</pdfrwt>
<pdfrwt beam="2">0</pdfrwt>
<totfact> 0.22551522E+06</totfact>
</mgrwt>
</event>
<event>
 6    1  0.1132867E-002  0.3000000E+03  0.7818608E-02  0.1093470E+00
         21   -1    0    0  501  502  0.00000000000E+00  0.00000000000E+00  0.41504664873E+00  0.41504664873E+00  0.00000000000E+00 0.  1.
         13   -1    0    0    0    0 -0.00000000000E+00 -0.00000000000E+00 -0.10000000000E+04  0.10000000000E+04  0.00000000000E+00 0.  1.
    9000005    2    1    2  501    0 -0.70514913474E+01  0.67852304492E+01 -0.84487723447E+03  0.84539814059E+03  0.28012709713E+02 0.  0.
         13    1    3    3    0    0 -0.90838644483E+01  0.14558273552E+02 -0.74522918829E+03  0.74542672544E+03  0.00000000000E+00 0.  1.
          1    1    3    3  501    0  0.20323731009E+01 -0.77730431025E+01 -0.99648046175E+02  0.99971415145E+02  0.00000000000E+00 0.  1.
         -1    1    1    2    0  502  0.70514913474E+01 -0.67852304492E+01 -0.15470771889E+03  0.15501690606E+03  0.00000000000E+00 0. -1.
<mgrwt>
<rscale>  1 0.30000000E+03</rscale>
<asrwt>0</asrwt>
<pdfrwt beam="1">  1       21 0.15092637E-02 0.30000000E+03</pdfrwt>
<pdfrwt beam="2">0</pdfrwt>
<totfact> 0.20921791E+05</totfact>
</mgrwt>
</event>
<event>
 6    1  0.1132867E-002  0.3000000E+03  0.7818608E-02  0.1093470E+00
         21   -1    0    0  501  502  0.00000000000E+00  0.00000000000E+00  0.19146994924E+00  0.19146994924E+00  0.00000000000E+00 0.  1.
         13   -1    0    0    0    0 -0.00000000000E+00 -0.00000000000E+00 -0.10000000000E+04  0.10000000000E+04  0.00000000000E+00 0.  1.
    9000005    2    1    2  501    0  0.10936542062E+02 -0.28539987517E+00 -0.55897098458E+03  0.55921819309E+03  0.12519443981E+02 0.  0.
         13    1    3    3    0    0  0.11947574697E+02 -0.38149673469E+01 -0.37253289736E+03  0.37274395788E+03  0.00000000000E+00 0.  1.
          1    1    3    3  501    0 -0.10110326350E+01  0.35295674717E+01 -0.18643808722E+03  0.18647423521E+03  0.00000000000E+00 0.  1.
         -3    1    1    2    0  502 -0.10936542062E+02  0.28539987517E+00 -0.44083754547E+03  0.44097327686E+03  0.00000000000E+00 0. -1.
<mgrwt>
<rscale>  1 0.30000000E+03</rscale>
<asrwt>0</asrwt>
<pdfrwt beam="1">  1       21 0.69625583E-03 0.30000000E+03</pdfrwt>
<pdfrwt beam="2">0</pdfrwt>
<totfact> 0.71532013E+05</totfact>
</mgrwt>
</event>
<event>
 6    1  0.1132867E-002  0.3000000E+03  0.7818608E-02  0.1093470E+00
         21   -1    0    0  501  502  0.00000000000E+00  0.00000000000E+00  0.26103533261E+00  0.26103533261E+00  0.00000000000E+00 0. -1.
         13   -1    0    0    0    0 -0.00000000000E+00 -0.00000000000E+00 -0.10000000000E+04  0.10000000000E+04  0.00000000000E+00 0.  1.
    9000005    2    1    2  501    0  0.16870196996E+01 -0.12030443334E+02 -0.79794289255E+03  0.79809963366E+03  0.10128567646E+02 0.  0.
         13    1    3    3    0    0 -0.15238569736E+01 -0.72861388425E+01 -0.65458680986E+03  0.65462913287E+03  0.00000000000E+00 0.  1.
          1    1    3    3  501    0  0.32108766732E+01 -0.47443044917E+01 -0.14335608269E+03  0.14347050080E+03  0.00000000000E+00 0.  1.
         -3    1    1    2    0  502 -0.16870196996E+01  0.12030443334E+02 -0.20179607212E+03  0.20216140167E+03  0.00000000000E+00 0. -1.
<mgrwt>
<rscale>  1 0.30000000E+03</rscale>
<asrwt>0</asrwt>
<pdfrwt beam="1">  1       21 0.94922139E-03 0.30000000E+03</pdfrwt>
<pdfrwt beam="2">0</pdfrwt>
<totfact> 0.43890554E+05</totfact>
</mgrwt>
</event>
<event>
 6    1  0.1132867E-002  0.3000000E+03  0.7818608E-02  0.1093470E+00
         21   -1    0    0  501  502  0.00000000000E+00  0.00000000000E+00  0.75291417839E-01  0.75291417839E-01  0.00000000000E+00 0. -1.
         13   -1    0    0    0    0 -0.00000000000E+00 -0.00000000000E+00 -0.10000000000E+04  0.10000000000E+04  0.00000000000E+00 0.  1.
    9000005    2    1    2  501    0  0.50060023575E+01 -0.63140206050E+01 -0.44785990016E+03  0.44795168242E+03  0.41584486057E+01 0.  0.
         13    1    3    3    0    0  0.22992500239E+01 -0.57737735955E+01 -0.27884993655E+03  0.27891918207E+03  0.00000000000E+00 0.  1.
          3    1    3    3  501    0  0.27067523336E+01 -0.54024700944E+00 -0.16900996361E+03  0.16903250035E+03  0.00000000000E+00 0.  1.
         -3    1    1    2    0  502 -0.50060023575E+01  0.63140206050E+01 -0.55206480842E+03  0.55212360900E+03  0.00000000000E+00 0. -1.
<mgrwt>
<rscale>  1 0.30000000E+03</rscale>
<asrwt>0</asrwt>
<pdfrwt beam="1">  1       21 0.27378755E-03 0.30000000E+03</pdfrwt>
<pdfrwt beam="2">0</pdfrwt>
<totfact> 0.30304454E+06</totfact>
</mgrwt>
</event>
<event>
 6    1  0.1132867E-002  0.3000000E+03  0.7818608E-02  0.1093470E+00
         21   -1    0    0  501  502  0.00000000000E+00  0.00000000000E+00  0.97539605630E-01  0.97539605630E-01  0.00000000000E+00 0. -1.
         13   -1    0    0    0    0 -0.00000000000E+00 -0.00000000000E+00 -0.10000000000E+04  0.10000000000E+04  0.00000000000E+00 0.  1.
    9000005    2    1    2  501    0 -0.67901753416E+01 -0.50966744793E+01 -0.35240220918E+03  0.35254162859E+03  0.51186209301E+01 0.  0.
         13    1    3    3    0    0 -0.12190428253E+01  0.61557490063E+00 -0.10924742841E+03  0.10925596374E+03  0.00000000000E+00 0.  1.
          1    1    3    3  501    0 -0.55711325162E+01 -0.57122493800E+01 -0.24315478077E+03  0.24328566485E+03  0.00000000000E+00 0.  1.
         -3    1    1    2    0  502  0.67901753416E+01  0.50966744793E+01 -0.64750025121E+03  0.64755591102E+03  0.00000000000E+00 0. -1.
<mgrwt>
<rscale>  1 0.30000000E+03</rscale>
<asrwt>0</asrwt>
<pdfrwt beam="1">  1       21 0.35469022E-03 0.30000000E+03</pdfrwt>
<pdfrwt beam="2">0</pdfrwt>
<totfact> 0.20380641E+06</totfact>
</mgrwt>
</event>
<event>
 6    1  0.1132867E-002  0.3000000E+03  0.7818608E-02  0.1093470E+00
         21   -1    0    0  501  502  0.00000000000E+00  0.00000000000E+00  0.28109915512E+01  0.28109915512E+01  0.00000000000E+00 0. -1.
         13   -1    0    0    0    0 -0.00000000000E+00 -0.00000000000E+00 -0.10000000000E+04  0.10000000000E+04  0.00000000000E+00 0.  1.
    9000005    2    1    2  501    0  0.11670730950E+02  0.40106416245E+01 -0.98308145528E+03  0.98406761236E+03  0.42280335485E+02 0.  0.
         13    1    3    3    0    0  0.27488325088E+02  0.14946313969E+01 -0.68986147024E+03  0.69041052285E+03  0.00000000000E+00 0.  1.
          3    1    3    3  501    0 -0.15817594137E+02  0.25160102276E+01 -0.29321998504E+03  0.29365708951E+03  0.00000000000E+00 0.  1.
         -1    1    1    2    0  502 -0.11670730950E+02 -0.40106416245E+01 -0.14107553166E+02  0.18743379191E+02  0.00000000000E+00 0. -1.
<mgrwt>
<rscale>  1 0.30000000E+03</rscale>
<asrwt>0</asrwt>
<pdfrwt beam="1">  1       21 0.10221809E-01 0.30000000E+03</pdfrwt>
<pdfrwt beam="2">0</pdfrwt>
<totfact> 0.82722549E+03</totfact>
</mgrwt>
</event>
<event>
 6    1  0.1132867E-002  0.3000000E+03  0.7818608E-02  0.1093470E+00
         21   -1    0    0  501  502  0.00000000000E+00  0.00000000000E+00  0.95780244259E-01  0.95780244259E-01  0.00000000000E+00 0. -1.
         13   -1    0    0    0    0 -0.00000000000E+00 -0.00000000000E+00 -0.10000000000E+04  0.10000000000E+04  0.00000000000E+00 0.  1.
    9000005    2    1    2  501    0  0.42070206503E+01 -0.63055244141E+01 -0.58445330065E+03  0.58457571473E+03  0.92545636365E+01 0.  0.
         13    1    3    3    0    0  0.21549537775E+01  0.22741268141E+01 -0.14391571460E+03  0.14394981204E+03  0.00000000000E+00 0.  1.
          3    1    3    3  501    0  0.20520668729E+01 -0.85796512282E+01 -0.44053758605E+03  0.44062590268E+03  0.00000000000E+00 0.  1.
         -1    1    1    2    0  502 -0.42070206503E+01  0.63055244141E+01 -0.41545091911E+03  0.41552006552E+03  0.00000000000E+00 0. -1.
<mgrwt>
<rscale>  1 0.30000000E+03</rscale>
<asrwt>0</asrwt>
<pdfrwt beam="1">  1       21 0.34829253E-03 0.30000000E+03</pdfrwt>
<pdfrwt beam="2">0</pdfrwt>
<totfact> 0.20958786E+06</totfact>
</mgrwt>
</event>
<event>
 6    1  0.1132867E-002  0.3000000E+03  0.7818608E-02  0.1093470E+00
         21   -1    0    0  501  502  0.00000000000E+00  0.00000000000E+00  0.10996863385E+00  0.10996863385E+00  0.00000000000E+00 0. -1.
         13   -1    0    0    0    0 -0.00000000000E+00 -0.00000000000E+00 -0.10000000000E+04  0.10000000000E+04  0.00000000000E+00 0.  1.
    9000005    2    1    2  501    0  0.88618585211E+00  0.78343822872E+01 -0.66331080924E+03  0.66343841409E+03  0.10350689151E+02 0.  0.
         13    1    3    3    0    0  0.13000212851E+01  0.29211845024E+01 -0.47332797146E+02  0.47440668839E+02  0.00000000000E+00 0.  1.
          1    1    3    3  501    0 -0.41383543297E+00  0.49131977848E+01 -0.61597801209E+03  0.61599774525E+03  0.00000000000E+00 0.  1.
         -3    1    1    2    0  502 -0.88618585211E+00 -0.78343822872E+01 -0.33657922213E+03  0.33667155454E+03  0.00000000000E+00 0. -1.
<mgrwt>
<rscale>  1 0.30000000E+03</rscale>
<asrwt>0</asrwt>
<pdfrwt beam="1">  1       21 0.39988678E-03 0.30000000E+03</pdfrwt>
<pdfrwt beam="2">0</pdfrwt>
<totfact> 0.16942683E+06</totfact>
</mgrwt>
</event>
<event>
 6    1  0.1132867E-002  0.3000000E+03  0.7818608E-02  0.1093470E+00
         21   -1    0    0  501  502  0.00000000000E+00  0.00000000000E+00  0.22540238345E+00  0.22540238345E+00  0.00000000000E+00 0. -1.
         13   -1    0    0    0    0 -0.00000000000E+00 -0.00000000000E+00 -0.10000000000E+04  0.10000000000E+04  0.00000000000E+00 0.  1.
    9000005    2    1    2  501    0  0.27214682932E+01 -0.13501680202E+02 -0.68813096997E+03  0.68827756635E+03  0.34748727283E+01 0.  0.
         13    1    3    3    0    0  0.34906675061E+01 -0.11171594954E+02 -0.54620846307E+03  0.54633384887E+03  0.00000000000E+00 0.  1.
          3    1    3    3  501    0 -0.76919921283E+00 -0.23300852489E+01 -0.14192250691E+03  0.14194371748E+03  0.00000000000E+00 0.  1.
         -1    1    1    2    0  502 -0.27214682932E+01  0.13501680202E+02 -0.31164362764E+03  0.31194783604E+03  0.00000000000E+00 0. -1.
<mgrwt>
<rscale>  1 0.30000000E+03</rscale>
<asrwt>0</asrwt>
<pdfrwt beam="1">  1       21 0.81964676E-03 0.30000000E+03</pdfrwt>
<pdfrwt beam="2">0</pdfrwt>
<totfact> 0.55346820E+05</totfact>
</mgrwt>
</event>
<event>
 6    1  0.1132867E-002  0.3000000E+03  0.7818608E-02  0.1093470E+00
         21   -1    0    0  501  502  0.00000000000E+00  0.00000000000E+00  0.11072884183E+01  0.11072884183E+01  0.00000000000E+00 0. -1.
         13   -1    0    0    0    0 -0.00000000000E+00 -0.00000000000E+00 -0.10000000000E+04  0.10000000000E+04  0.00000000000E+00 0.  1.
    9000005    2    1    2  501    0  0.23782670849E+02 -0.31367060175E+01 -0.76180486614E+03  0.76280894429E+03  0.30909174357E+02 0.  0.
         13    1    3    3    0    0  0.24142281673E+02 -0.12559349764E+02 -0.66213939220E+03  0.66269839424E+03  0.00000000000E+00 0.  1.
          3    1    3    3  501    0 -0.35961082466E+00  0.94226437465E+01 -0.99665473941E+02  0.10011055005E+03  0.00000000000E+00 0.  1.
         -1    1    1    2    0  502 -0.23782670849E+02  0.31367060175E+01 -0.23708784544E+03  0.23829834413E+03  0.00000000000E+00 0. -1.
<mgrwt>
<rscale>  1 0.30000000E+03</rscale>
<asrwt>0</asrwt>
<pdfrwt beam="1">  1       21 0.40265118E-02 0.30000000E+03</pdfrwt>
<pdfrwt beam="2">0</pdfrwt>
<totfact> 0.41582067E+04</totfact>
</mgrwt>
</event>
<event>
 6    1  0.1132867E-002  0.3000000E+03  0.7818608E-02  0.1093470E+00
         21   -1    0    0  501  502  0.00000000000E+00  0.00000000000E+00  0.44651479836E+00  0.44651479836E+00  0.00000000000E+00 0. -1.
         13   -1    0    0    0    0 -0.00000000000E+00 -0.00000000000E+00 -0.10000000000E+04  0.10000000000E+04  0.00000000000E+00 0.  1.
    9000005    2    1    2  501    0 -0.12812730115E+02 -0.85379500035E+01 -0.69917124921E+03  0.69966993601E+03  0.21459753093E+02 0.  0.
         13    1    3    3    0    0  0.25776263666E+01 -0.17287580258E+01 -0.16387796335E+02  0.16679107611E+02  0.00000000000E+00 0.  1.
          1    1    3    3  501    0 -0.15390356482E+02 -0.68091919777E+01 -0.68278345287E+03  0.68299082840E+03  0.00000000000E+00 0.  1.
         -3    1    1    2    0  502  0.12812730115E+02  0.85379500035E+01 -0.30038223600E+03  0.30077657878E+03  0.00000000000E+00 0. -1.
<mgrwt>
<rscale>  1 0.30000000E+03</rscale>
<asrwt>0</asrwt>
<pdfrwt beam="1">  1       21 0.16236936E-02 0.30000000E+03</pdfrwt>
<pdfrwt beam="2">0</pdfrwt>
<totfact> 0.18594439E+05</totfact>
</mgrwt>
</event>
<event>
 6    1  0.1132867E-002  0.3000000E+03  0.7818608E-02  0.1093470E+00
         21   -1    0    0  501  502  0.00000000000E+00  0.00000000000E+00  0.34850324763E+00  0.34850324763E+00  0.00000000000E+00 0. -1.
         13   -1    0    0    0    0 -0.00000000000E+00 -0.00000000000E+00 -0.10000000000E+04  0.10000000000E+04  0.00000000000E+00 0.  1.
    9000005    2    1    2  501    0 -0.37586470284E+01 -0.89621073046E+01 -0.92422967043E+03  0.92430313074E+03  0.64301623671E+01 0.  0.
         13    1    3    3    0    0  0.69912399966E+00  0.63960497974E+00 -0.46713952182E+02  0.46723561480E+02  0.00000000000E+00 0.  1.
          3    1    3    3  501    0 -0.44577710281E+01 -0.96017122844E+01 -0.87751571825E+03  0.87757956926E+03  0.00000000000E+00 0.  1.
         -3    1    1    2    0  502  0.37586470284E+01  0.89621073046E+01 -0.75421826322E+02  0.76045372513E+02  0.00000000000E+00 0. -1.
<mgrwt>
<rscale>  1 0.30000000E+03</rscale>
<asrwt>0</asrwt>
<pdfrwt beam="1">  1       21 0.12672872E-02 0.30000000E+03</pdfrwt>
<pdfrwt beam="2">0</pdfrwt>
<totfact> 0.27701751E+05</totfact>
</mgrwt>
</event>
<event>
 6    1  0.1132867E-002  0.3000000E+03  0.7818608E-02  0.1093470E+00
         21   -1    0    0  501  502  0.00000000000E+00  0.00000000000E+00  0.10503710045E+00  0.10503710045E+00  0.00000000000E+00 0. -1.
         13   -1    0    0    0    0 -0.00000000000E+00 -0.00000000000E+00 -0.10000000000E+04  0.10000000000E+04  0.00000000000E+00 0.  1.
    9000005    2    1    2  501    0  0.74964919391E+01  0.96006302724E+00 -0.63470241287E+03  0.63483429134E+03  0.10502639852E+02 0.  0.
         13    1    3    3    0    0  0.51927530122E+01 -0.88650327367E+00 -0.59460218970E+03  0.59462552466E+03  0.00000000000E+00 0.  1.
          3    1    3    3  501    0  0.23037389269E+01  0.18465663009E+01 -0.40100223166E+02  0.40208766682E+02  0.00000000000E+00 0.  1.
         -1    1    1    2    0  502 -0.74964919391E+01 -0.96006302724E+00 -0.36519255003E+03  0.36527074576E+03  0.00000000000E+00 0. -1.
<mgrwt>
<rscale>  1 0.30000000E+03</rscale>
<asrwt>0</asrwt>
<pdfrwt beam="1">  1       21 0.38195390E-03 0.30000000E+03</pdfrwt>
<pdfrwt beam="2">0</pdfrwt>
<totfact> 0.18184968E+06</totfact>
</mgrwt>
</event>
<event>
 6    1  0.1132867E-002  0.3000000E+03  0.7818608E-02  0.1093470E+00
         21   -1    0    0  501  502  0.00000000000E+00  0.00000000000E+00  0.10933448860E+00  0.10933448860E+00  0.00000000000E+00 0. -1.
         13   -1    0    0    0    0 -0.00000000000E+00 -0.00000000000E+00 -0.10000000000E+04  0.10000000000E+04  0.00000000000E+00 0.  1.
    9000005    2    1    2  501    0 -0.49429849125E+01 -0.65087384700E+01 -0.71721469325E+03  0.71731523612E+03  0.87997150306E+01 0.  0.
         13    1    3    3    0    0 -0.31016261826E+01 -0.85523589974E+01 -0.59532401162E+03  0.59539351839E+03  0.00000000000E+00 0.  1.
          3    1    3    3  501    0 -0.18413587299E+01  0.20436205274E+01 -0.12189068162E+03  0.12192171773E+03  0.00000000000E+00 0.  1.
         -1    1    1    2    0  502  0.49429849125E+01  0.65087384700E+01 -0.28267597227E+03  0.28279409837E+03  0.00000000000E+00 0. -1.
<mgrwt>
<rscale>  1 0.30000000E+03</rscale>
<asrwt>0</asrwt>
<pdfrwt beam="1">  1       21 0.39758080E-03 0.30000000E+03</pdfrwt>
<pdfrwt beam="2">0</pdfrwt>
<totfact> 0.17094519E+06</totfact>
</mgrwt>
</event>
<event>
 6    1  0.1132867E-002  0.3000000E+03  0.7818608E-02  0.1093470E+00
         21   -1    0    0  501  502  0.00000000000E+00  0.00000000000E+00  0.28965923676E+00  0.28965923676E+00  0.00000000000E+00 0.  1.
         13   -1    0    0    0    0 -0.00000000000E+00 -0.00000000000E+00 -0.10000000000E+04  0.10000000000E+04  0.00000000000E+00 0.  1.
    9000005    2    1    2  501    0 -0.99826439134E+01  0.38205856538E+00 -0.54239953071E+03  0.54286974697E+03  0.20261098456E+02 0.  0.
         13    1    3    3    0    0 -0.14286973415E+02  0.15695972125E+01 -0.50501765990E+03  0.50522214723E+03  0.00000000000E+00 0.  1.
          1    1    3    3  501    0  0.43043295019E+01 -0.11875386471E+01 -0.37381870817E+02  0.37647599742E+02  0.00000000000E+00 0.  1.
         -3    1    1    2    0  502  0.99826439134E+01 -0.38205856538E+00 -0.45731081005E+03  0.45741991227E+03  0.00000000000E+00 0. -1.
<mgrwt>
<rscale>  1 0.30000000E+03</rscale>
<asrwt>0</asrwt>
<pdfrwt beam="1">  1       21 0.10533085E-02 0.30000000E+03</pdfrwt>
<pdfrwt beam="2">0</pdfrwt>
<totfact> 0.37207413E+05</totfact>
</mgrwt>
</event>
<event>
 6    1  0.1132867E-002  0.3000000E+03  0.7818608E-02  0.1093470E+00
         21   -1    0    0  501  502  0.00000000000E+00  0.00000000000E+00  0.99616789179E+00  0.99616789179E+00  0.00000000000E+00 0. -1.
         13   -1    0    0    0    0 -0.00000000000E+00 -0.00000000000E+00 -0.10000000000E+04  0.10000000000E+04  0.00000000000E+00 0.  1.
    9000005    2    1    2  501    0 -0.13897080772E+02 -0.26088748248E+01 -0.90065494736E+03  0.90163602390E+03  0.39601140357E+02 0.  0.
         13    1    3    3    0    0 -0.11117514926E+02  0.11323778698E+02 -0.77787188469E+03  0.77803373712E+03  0.00000000000E+00 0.  1.
          3    1    3    3  501    0 -0.27795658458E+01 -0.13932653522E+02 -0.12278306267E+03  0.12360228678E+03  0.00000000000E+00 0.  1.
         -1    1    1    2    0  502  0.13897080772E+02  0.26088748248E+01 -0.98348884749E+02  0.99360143987E+02  0.00000000000E+00 0. -1.
<mgrwt>
<rscale>  1 0.30000000E+03</rscale>
<asrwt>0</asrwt>
<pdfrwt beam="1">  1       21 0.36224363E-02 0.30000000E+03</pdfrwt>
<pdfrwt beam="2">0</pdfrwt>
<totfact> 0.49670050E+04</totfact>
</mgrwt>
</event>
<event>
 6    1  0.1132867E-002  0.3000000E+03  0.7818608E-02  0.1093470E+00
         21   -1    0    0  501  502  0.00000000000E+00  0.00000000000E+00  0.31951251712E+00  0.31951251712E+00  0.00000000000E+00 0. -1.
         13   -1    0    0    0    0 -0.00000000000E+00 -0.00000000000E+00 -0.10000000000E+04  0.10000000000E+04  0.00000000000E+00 0.  1.
    9000005    2    1    2  501    0  0.15872757056E+02 -0.51964929830E+01 -0.38667337213E+03  0.38708491513E+03  0.62838565466E+01 0.  0.
         13    1    3    3    0    0  0.13227015661E+02 -0.15225379979E+01 -0.29157218806E+03  0.29187602319E+03  0.00000000000E+00 0.  1.
          1    1    3    3  501    0  0.26457413948E+01 -0.36739549851E+01 -0.95101184072E+02  0.95208891941E+02  0.00000000000E+00 0.  1.
         -1    1    1    2    0  502 -0.15872757056E+02  0.51964929830E+01 -0.61300711535E+03  0.61323459739E+03  0.00000000000E+00 0. -1.
<mgrwt>
<rscale>  1 0.30000000E+03</rscale>
<asrwt>0</asrwt>
<pdfrwt beam="1">  1       21 0.11618661E-02 0.30000000E+03</pdfrwt>
<pdfrwt beam="2">0</pdfrwt>
<totfact> 0.31825627E+05</totfact>
</mgrwt>
</event>
<event>
 6    1  0.1132867E-002  0.3000000E+03  0.7818608E-02  0.1093470E+00
         21   -1    0    0  501  502  0.00000000000E+00  0.00000000000E+00  0.13906426916E+00  0.13906426916E+00  0.00000000000E+00 0. -1.
         13   -1    0    0    0    0 -0.00000000000E+00 -0.00000000000E+00 -0.10000000000E+04  0.10000000000E+04  0.00000000000E+00 0.  1.
    9000005    2    1    2  501    0 -0.98977455511E+01 -0.20276646482E+01 -0.66196835421E+03  0.66209546732E+03  0.81381251167E+01 0.  0.
         13    1    3    3    0    0 -0.93165425494E+01  0.33945107765E+00 -0.37175414563E+03  0.37187102332E+03  0.00000000000E+00 0.  1.
          1    1    3    3  501    0 -0.58120300174E+00 -0.23671157259E+01 -0.29021420857E+03  0.29022444400E+03  0.00000000000E+00 0.  1.
         -1    1    1    2    0  502  0.98977455511E+01  0.20276646482E+01 -0.33789258152E+03  0.33804359695E+03  0.00000000000E+00 0. -1.
<mgrwt>
<rscale>  1 0.30000000E+03</rscale>
<asrwt>0</asrwt>
<pdfrwt beam="1">  1       21 0.50568932E-03 0.30000000E+03</pdfrwt>
<pdfrwt beam="2">0</pdfrwt>
<totfact> 0.11781674E+06</totfact>
</mgrwt>
</event>
<event>
 6    1  0.1132867E-002  0.3000000E+03  0.7818608E-02  0.1093470E+00
         21   -1    0    0  501  502  0.00000000000E+00  0.00000000000E+00  0.44357019234E+00  0.44357019234E+00  0.00000000000E+00 0. -1.
         13   -1    0    0    0    0 -0.00000000000E+00 -0.00000000000E+00 -0.10000000000E+04  0.10000000000E+04  0.00000000000E+00 0.  1.
    9000005    2    1    2  501    0  0.92831739303E+01  0.35891185026E+01 -0.91625045007E+03  0.91654514739E+03  0.21001448711E+02 0.  0.
         13    1    3    3    0    0  0.39039354481E+01 -0.60877947305E+01 -0.67703458088E+03  0.67707320554E+03  0.00000000000E+00 0.  1.
          1    1    3    3  501    0  0.53792384822E+01  0.96769132332E+01 -0.23921586919E+03  0.23947194184E+03  0.00000000000E+00 0.  1.
         -1    1    1    2    0  502 -0.92831739303E+01 -0.35891185026E+01 -0.83305979735E+02  0.83898422807E+02  0.00000000000E+00 0. -1.
<mgrwt>
<rscale>  1 0.30000000E+03</rscale>
<asrwt>0</asrwt>
<pdfrwt beam="1">  1       21 0.16129859E-02 0.30000000E+03</pdfrwt>
<pdfrwt beam="2">0</pdfrwt>
<totfact> 0.18794359E+05</totfact>
</mgrwt>
</event>
<event>
 6    1  0.1132867E-002  0.3000000E+03  0.7818608E-02  0.1093470E+00
         21   -1    0    0  501  502  0.00000000000E+00  0.00000000000E+00  0.45589606071E+00  0.45589606071E+00  0.00000000000E+00 0. -1.
         13   -1    0    0    0    0 -0.00000000000E+00 -0.00000000000E+00 -0.10000000000E+04  0.10000000000E+04  0.00000000000E+00 0.  1.
    9000005    2    1    2  501    0 -0.13520989530E+01  0.10775086597E+02 -0.90699456212E+03  0.90727141047E+03  0.19604741487E+02 0.  0.
         13    1    3    3    0    0 -0.45299529442E+01 -0.31731670511E+01 -0.49060518767E+03  0.49063636191E+03  0.00000000000E+00 0.  1.
          3    1    3    3  501    0  0.31778539912E+01  0.13948253648E+02 -0.41638937445E+03  0.41663504856E+03  0.00000000000E+00 0.  1.
         -1    1    1    2    0  502  0.13520989530E+01 -0.10775086597E+02 -0.92549541821E+02  0.93184485586E+02  0.00000000000E+00 0. -1.
<mgrwt>
<rscale>  1 0.30000000E+03</rscale>
<asrwt>0</asrwt>
<pdfrwt beam="1">  1       21 0.16578074E-02 0.30000000E+03</pdfrwt>
<pdfrwt beam="2">0</pdfrwt>
<totfact> 0.17979467E+05</totfact>
</mgrwt>
</event>
<event>
 6    1  0.1132867E-002  0.3000000E+03  0.7818608E-02  0.1093470E+00
         21   -1    0    0  501  502  0.00000000000E+00  0.00000000000E+00  0.65894315312E+00  0.65894315312E+00  0.00000000000E+00 0. -1.
         13   -1    0    0    0    0 -0.00000000000E+00 -0.00000000000E+00 -0.10000000000E+04  0.10000000000E+04  0.00000000000E+00 0.  1.
    9000005    2    1    2  501    0 -0.13729717884E+02 -0.10796818637E+02 -0.86196549500E+03  0.86217745906E+03  0.77704493152E+01 0.  0.
         13    1    3    3    0    0 -0.41393393990E+01 -0.50854920322E+00 -0.32891332775E+03  0.32893976641E+03  0.00000000000E+00 0.  1.
          3    1    3    3  501    0 -0.95903784847E+01 -0.10288269433E+02 -0.53305216725E+03  0.53323769265E+03  0.00000000000E+00 0.  1.
         -1    1    1    2    0  502  0.13729717884E+02  0.10796818637E+02 -0.13737556184E+03  0.13848148410E+03  0.00000000000E+00 0. -1.
<mgrwt>
<rscale>  1 0.30000000E+03</rscale>
<asrwt>0</asrwt>
<pdfrwt beam="1">  1       21 0.23961620E-02 0.30000000E+03</pdfrwt>
<pdfrwt beam="2">0</pdfrwt>
<totfact> 0.98612775E+04</totfact>
</mgrwt>
</event>
<event>
 6    1  0.1132867E-002  0.3000000E+03  0.7818608E-02  0.1093470E+00
         21   -1    0    0  501  502  0.00000000000E+00  0.00000000000E+00  0.22666109166E+00  0.22666109166E+00  0.00000000000E+00 0. -1.
         13   -1    0    0    0    0 -0.00000000000E+00 -0.00000000000E+00 -0.10000000000E+04  0.10000000000E+04  0.00000000000E+00 0.  1.
    9000005    2    1    2  501    0 -0.96520908255E+01  0.90813059009E+01 -0.67113168941E+03  0.67131790967E+03  0.86231284639E+01 0.  0.
         13    1    3    3    0    0 -0.11072530656E+01 -0.98559799203E+00 -0.18789905302E+03  0.18790490025E+03  0.00000000000E+00 0.  1.
          1    1    3    3  501    0 -0.85448377599E+01  0.10066903893E+02 -0.48323263639E+03  0.48341300942E+03  0.00000000000E+00 0.  1.
         -3    1    1    2    0  502  0.96520908255E+01 -0.90813059009E+01 -0.32864164950E+03  0.32890875142E+03  0.00000000000E+00 0. -1.
<mgrwt>
<rscale>  1 0.30000000E+03</rscale>
<asrwt>0</asrwt>
<pdfrwt beam="1">  1       21 0.82422389E-03 0.30000000E+03</pdfrwt>
<pdfrwt beam="2">0</pdfrwt>
<totfact> 0.54862798E+05</totfact>
</mgrwt>
</event>
<event>
 6    1  0.1132867E-002  0.3000000E+03  0.7818608E-02  0.1093470E+00
         21   -1    0    0  501  502  0.00000000000E+00  0.00000000000E+00  0.41383758642E+01  0.41383758642E+01  0.00000000000E+00 0. -1.
         13   -1    0    0    0    0 -0.00000000000E+00 -0.00000000000E+00 -0.10000000000E+04  0.10000000000E+04  0.00000000000E+00 0.  1.
    9000005    2    1    2  501    0 -0.11226960044E+02 -0.28597851151E+02 -0.93866443540E+03  0.93921226308E+03  0.92125517269E+01 0.  0.
         13    1    3    3    0    0 -0.13654835796E+01 -0.13740753380E+02 -0.48760798705E+03  0.48780346645E+03  0.00000000000E+00 0.  1.
          1    1    3    3  501    0 -0.98614764644E+01 -0.14857097771E+02 -0.45105644835E+03  0.45140879662E+03  0.00000000000E+00 0.  1.
         -3    1    1    2    0  502  0.11226960044E+02  0.28597851151E+02 -0.57197188739E+02  0.64926112789E+02  0.00000000000E+00 0. -1.
<mgrwt>
<rscale>  1 0.30000000E+03</rscale>
<asrwt>0</asrwt>
<pdfrwt beam="1">  1       21 0.15048671E-01 0.30000000E+03</pdfrwt>
<pdfrwt beam="2">0</pdfrwt>
<totfact> 0.40934136E+03</totfact>
</mgrwt>
</event>
<event>
 6    1  0.1132867E-002  0.3000000E+03  0.7818608E-02  0.1093470E+00
         21   -1    0    0  501  502  0.00000000000E+00  0.00000000000E+00  0.52834949554E+00  0.52834949554E+00  0.00000000000E+00 0. -1.
         13   -1    0    0    0    0 -0.00000000000E+00 -0.00000000000E+00 -0.10000000000E+04  0.10000000000E+04  0.00000000000E+00 0.  1.
    9000005    2    1    2  501    0  0.16053030387E+02 -0.13233080875E+02 -0.30012112547E+03  0.30086845277E+03  0.40400132839E+01 0.  0.
         13    1    3    3    0    0  0.10181027359E+02 -0.58499570838E+01 -0.16035327280E+03  0.16078260918E+03  0.00000000000E+00 0.  1.
          1    1    3    3  501    0  0.58720030282E+01 -0.73831237911E+01 -0.13976785267E+03  0.14008584360E+03  0.00000000000E+00 0.  1.
         -3    1    1    2    0  502 -0.16053030387E+02  0.13233080875E+02 -0.69935052504E+03  0.69965989672E+03  0.00000000000E+00 0. -1.
<mgrwt>
<rscale>  1 0.30000000E+03</rscale>
<asrwt>0</asrwt>
<pdfrwt beam="1">  1       21 0.19212749E-02 0.30000000E+03</pdfrwt>
<pdfrwt beam="2">0</pdfrwt>
<totfact> 0.14152112E+05</totfact>
</mgrwt>
</event>
<event>
 6    1  0.1132867E-002  0.3000000E+03  0.7818608E-02  0.1093470E+00
         21   -1    0    0  501  502  0.00000000000E+00  0.00000000000E+00  0.49171980997E+00  0.49171980997E+00  0.00000000000E+00 0. -1.
         13   -1    0    0    0    0 -0.00000000000E+00 -0.00000000000E+00 -0.10000000000E+04  0.10000000000E+04  0.00000000000E+00 0.  1.
    9000005    2    1    2  501    0 -0.15141948182E+02  0.51403605800E+01 -0.84224619294E+03  0.84241874303E+03  0.59149966957E+01 0.  0.
         13    1    3    3    0    0 -0.26340652125E+01 -0.13320117925E+01 -0.13319895357E+03  0.13323165459E+03  0.00000000000E+00 0.  1.
          1    1    3    3  501    0 -0.12507882969E+02  0.64723723725E+01 -0.70904723937E+03  0.70918708843E+03  0.00000000000E+00 0.  1.
         -3    1    1    2    0  502  0.15141948182E+02 -0.51403605800E+01 -0.15726208725E+03  0.15807297678E+03  0.00000000000E+00 0. -1.
<mgrwt>
<rscale>  1 0.30000000E+03</rscale>
<asrwt>0</asrwt>
<pdfrwt beam="1">  1       21 0.17880758E-02 0.30000000E+03</pdfrwt>
<pdfrwt beam="2">0</pdfrwt>
<totfact> 0.15904579E+05</totfact>
</mgrwt>
</event>
<event>
 6    1  0.1132867E-002  0.3000000E+03  0.7818608E-02  0.1093470E+00
         21   -1    0    0  501  502  0.00000000000E+00  0.00000000000E+00  0.69289860211E+00  0.69289860211E+00  0.00000000000E+00 0.  1.
         13   -1    0    0    0    0 -0.00000000000E+00 -0.00000000000E+00 -0.10000000000E+04  0.10000000000E+04  0.00000000000E+00 0.  1.
    9000005    2    1    2  501    0  0.15426424571E+02  0.96690963626E+01 -0.40652523995E+03  0.40763151791E+03  0.23858283314E+02 0.  0.
         13    1    3    3    0    0  0.18853225462E+02 -0.38406871927E+00 -0.22127616922E+03  0.22207821749E+03  0.00000000000E+00 0.  1.
          1    1    3    3  501    0 -0.34268008910E+01  0.10053165082E+02 -0.18524907072E+03  0.18555330042E+03  0.00000000000E+00 0.  1.
         -1    1    1    2    0  502 -0.15426424571E+02 -0.96690963626E+01 -0.59278186145E+03  0.59306138069E+03  0.00000000000E+00 0. -1.
<mgrwt>
<rscale>  1 0.30000000E+03</rscale>
<asrwt>0</asrwt>
<pdfrwt beam="1">  1       21 0.25196366E-02 0.30000000E+03</pdfrwt>
<pdfrwt beam="2">0</pdfrwt>
<totfact> 0.90792688E+04</totfact>
</mgrwt>
</event>
<event>
 6    1  0.1132867E-002  0.3000000E+03  0.7818608E-02  0.1093470E+00
         21   -1    0    0  501  502  0.00000000000E+00  0.00000000000E+00  0.78088982573E+01  0.78088982573E+01  0.00000000000E+00 0. -1.
         13   -1    0    0    0    0 -0.00000000000E+00 -0.00000000000E+00 -0.10000000000E+04  0.10000000000E+04  0.00000000000E+00 0.  1.
    9000005    2    1    2  501    0 -0.11781496817E+01 -0.10825436431E+02 -0.99606892110E+03  0.99624967711E+03  0.15541732142E+02 0.  0.
         13    1    3    3    0    0 -0.19379081966E+01 -0.38773883530E+01 -0.85224315977E+03  0.85225418333E+03  0.00000000000E+00 0.  1.
          3    1    3    3  501    0  0.75975851494E+00 -0.69480480776E+01 -0.14382576133E+03  0.14399549378E+03  0.00000000000E+00 0.  1.
         -3    1    1    2    0  502  0.11781496817E+01  0.10825436431E+02  0.38778193611E+01  0.11559221149E+02  0.00000000000E+00 0. -1.
<mgrwt>
<rscale>  1 0.30000000E+03</rscale>
<asrwt>0</asrwt>
<pdfrwt beam="1">  1       21 0.28396054E-01 0.30000000E+03</pdfrwt>
<pdfrwt beam="2">0</pdfrwt>
<totfact> 0.12131120E+03</totfact>
</mgrwt>
</event>
<event>
 6    1  0.1132867E-002  0.3000000E+03  0.7818608E-02  0.1093470E+00
         21   -1    0    0  501  502  0.00000000000E+00  0.00000000000E+00  0.90755989470E-01  0.90755989470E-01  0.00000000000E+00 0. -1.
         13   -1    0    0    0    0 -0.00000000000E+00 -0.00000000000E+00 -0.10000000000E+04  0.10000000000E+04  0.00000000000E+00 0.  1.
    9000005    2    1    2  501    0  0.86924694828E+01 -0.88818242927E+00 -0.41263768586E+03  0.41275419923E+03  0.44521114329E+01 0.  0.
         13    1    3    3    0    0  0.92054402945E+00  0.83565752283E+00 -0.21783757183E+02  0.21819207176E+02  0.00000000000E+00 0.  1.
          3    1    3    3  501    0  0.77719254534E+01 -0.17238399521E+01 -0.39085392868E+03  0.39093499206E+03  0.00000000000E+00 0.  1.
         -1    1    1    2    0  502 -0.86924694828E+01  0.88818242927E+00 -0.58727155815E+03  0.58733655676E+03  0.00000000000E+00 0. -1.
<mgrwt>
<rscale>  1 0.30000000E+03</rscale>
<asrwt>0</asrwt>
<pdfrwt beam="1">  1       21 0.33002248E-03 0.30000000E+03</pdfrwt>
<pdfrwt beam="2">0</pdfrwt>
<totfact> 0.22766249E+06</totfact>
</mgrwt>
</event>
<event>
 6    1  0.1132867E-002  0.3000000E+03  0.7818608E-02  0.1093470E+00
         21   -1    0    0  501  502  0.00000000000E+00  0.00000000000E+00  0.10814767455E+00  0.10814767455E+00  0.00000000000E+00 0. -1.
         13   -1    0    0    0    0 -0.00000000000E+00 -0.00000000000E+00 -0.10000000000E+04  0.10000000000E+04  0.00000000000E+00 0.  1.
    9000005    2    1    2  501    0  0.78686460997E+01 -0.10350616940E+01 -0.63108734687E+03  0.63121825870E+03  0.10112556128E+02 0.  0.
         13    1    3    3    0    0  0.77027413598E+00 -0.47643393800E+01 -0.22495233089E+03  0.22500409646E+03  0.00000000000E+00 0.  1.
          1    1    3    3  501    0  0.70983719637E+01  0.37292776859E+01 -0.40613501599E+03  0.40621416224E+03  0.00000000000E+00 0.  1.
         -3    1    1    2    0  502 -0.78686460997E+01  0.10350616940E+01 -0.36880450545E+03  0.36888988897E+03  0.00000000000E+00 0. -1.
<mgrwt>
<rscale>  1 0.30000000E+03</rscale>
<asrwt>0</asrwt>
<pdfrwt beam="1">  1       21 0.39326510E-03 0.30000000E+03</pdfrwt>
<pdfrwt beam="2">0</pdfrwt>
<totfact> 0.17384741E+06</totfact>
</mgrwt>
</event>
<event>
 6    1  0.1132867E-002  0.3000000E+03  0.7818608E-02  0.1093470E+00
         21   -1    0    0  501  502  0.00000000000E+00  0.00000000000E+00  0.28772219398E+00  0.28772219398E+00  0.00000000000E+00 0. -1.
         13   -1    0    0    0    0 -0.00000000000E+00 -0.00000000000E+00 -0.10000000000E+04  0.10000000000E+04  0.00000000000E+00 0.  1.
    9000005    2    1    2  501    0  0.98347842711E+01 -0.51883853262E+01 -0.84708019308E+03  0.84725113960E+03  0.12884010349E+02 0.  0.
         13    1    3    3    0    0  0.11219840353E+02 -0.13622277482E+01 -0.42153159772E+03  0.42168308996E+03  0.00000000000E+00 0.  1.
          3    1    3    3  501    0 -0.13850560821E+01 -0.38261575780E+01 -0.42554859535E+03  0.42556804963E+03  0.00000000000E+00 0.  1.
         -3    1    1    2    0  502 -0.98347842711E+01  0.51883853262E+01 -0.15263208473E+03  0.15303658260E+03  0.00000000000E+00 0. -1.
<mgrwt>
<rscale>  1 0.30000000E+03</rscale>
<asrwt>0</asrwt>
<pdfrwt beam="1">  1       21 0.10462647E-02 0.30000000E+03</pdfrwt>
<pdfrwt beam="2">0</pdfrwt>
<totfact> 0.37606669E+05</totfact>
</mgrwt>
</event>
<event>
 6    1  0.1132867E-002  0.3000000E+03  0.7818608E-02  0.1093470E+00
         21   -1    0    0  501  502  0.00000000000E+00  0.00000000000E+00  0.48558838209E+01  0.48558838209E+01  0.00000000000E+00 0. -1.
         13   -1    0    0    0    0 -0.00000000000E+00 -0.00000000000E+00 -0.10000000000E+04  0.10000000000E+04  0.00000000000E+00 0.  1.
    9000005    2    1    2  501    0  0.16775126011E+02  0.35796046096E+01 -0.98439792627E+03  0.98461486064E+03  0.11529446155E+02 0.  0.
         13    1    3    3    0    0  0.45137848409E+01 -0.35588256629E+01 -0.17980842673E+03  0.17990027742E+03  0.00000000000E+00 0.  1.
          1    1    3    3  501    0  0.12261341171E+02  0.71384302725E+01 -0.80458949954E+03  0.80471458322E+03  0.00000000000E+00 0.  1.
         -1    1    1    2    0  502 -0.16775126011E+02 -0.35796046096E+01 -0.10746189912E+02  0.20241023183E+02  0.00000000000E+00 0. -1.
<mgrwt>
<rscale>  1 0.30000000E+03</rscale>
<asrwt>0</asrwt>
<pdfrwt beam="1">  1       21 0.17657797E-01 0.30000000E+03</pdfrwt>
<pdfrwt beam="2">0</pdfrwt>
<totfact> 0.30372852E+03</totfact>
</mgrwt>
</event>
<event>
 6    1  0.1132867E-002  0.3000000E+03  0.7818608E-02  0.1093470E+00
         21   -1    0    0  501  502  0.00000000000E+00  0.00000000000E+00  0.11748339955E+01  0.11748339955E+01  0.00000000000E+00 0. -1.
         13   -1    0    0    0    0 -0.00000000000E+00 -0.00000000000E+00 -0.10000000000E+04  0.10000000000E+04  0.00000000000E+00 0.  1.
    9000005    2    1    2  501    0  0.42280426757E+00  0.21178217684E+02 -0.89177526363E+03  0.89204932246E+03  0.63385507578E+01 0.  0.
         13    1    3    3    0    0  0.35234302650E-01  0.11725746736E+02 -0.36272410246E+03  0.36291358321E+03  0.00000000000E+00 0.  1.
          3    1    3    3  501    0  0.38756996492E+00  0.94524709481E+01 -0.52905116117E+03  0.52913573925E+03  0.00000000000E+00 0.  1.
         -3    1    1    2    0  502 -0.42280426757E+00 -0.21178217684E+02 -0.10704990238E+03  0.10912551153E+03  0.00000000000E+00 0. -1.
<mgrwt>
<rscale>  1 0.30000000E+03</rscale>
<asrwt>0</asrwt>
<pdfrwt beam="1">  1       21 0.42721326E-02 0.30000000E+03</pdfrwt>
<pdfrwt beam="2">0</pdfrwt>
<totfact> 0.37628149E+04</totfact>
</mgrwt>
</event>
<event>
 6    1  0.1132867E-002  0.3000000E+03  0.7818608E-02  0.1093470E+00
         21   -1    0    0  501  502  0.00000000000E+00  0.00000000000E+00  0.87277910995E+00  0.87277910995E+00  0.00000000000E+00 0. -1.
         13   -1    0    0    0    0 -0.00000000000E+00 -0.00000000000E+00 -0.10000000000E+04  0.10000000000E+04  0.00000000000E+00 0.  1.
    9000005    2    1    2  501    0 -0.29790883778E+01 -0.22699128283E+02 -0.79076188773E+03  0.79125351126E+03  0.15925784047E+02 0.  0.
         13    1    3    3    0    0  0.16955811548E+01 -0.23080366815E+02 -0.67517460128E+03  0.67557110695E+03  0.00000000000E+00 0.  1.
          1    1    3    3  501    0 -0.46746695326E+01  0.38123853187E+00 -0.11558728645E+03  0.11568240431E+03  0.00000000000E+00 0.  1.
         -1    1    1    2    0  502  0.29790883778E+01  0.22699128283E+02 -0.20836533316E+03  0.20961926785E+03  0.00000000000E+00 0. -1.
<mgrwt>
<rscale>  1 0.30000000E+03</rscale>
<asrwt>0</asrwt>
<pdfrwt beam="1">  1       21 0.31737489E-02 0.30000000E+03</pdfrwt>
<pdfrwt beam="2">0</pdfrwt>
<totfact> 0.61952136E+04</totfact>
</mgrwt>
</event>
<event>
 6    1  0.1132867E-002  0.3000000E+03  0.7818608E-02  0.1093470E+00
         21   -1    0    0  501  502  0.00000000000E+00  0.00000000000E+00  0.11574589669E+01  0.11574589669E+01  0.00000000000E+00 0. -1.
         13   -1    0    0    0    0 -0.00000000000E+00 -0.00000000000E+00 -0.10000000000E+04  0.10000000000E+04  0.00000000000E+00 0.  1.
    9000005    2    1    2  501    0  0.68507360861E+01 -0.31052247660E+02 -0.64660016051E+03  0.64748265168E+03  0.11438618413E+02 0.  0.
         13    1    3    3    0    0  0.94069968084E+01 -0.28553018908E+02 -0.55623727033E+03  0.55704907090E+03  0.00000000000E+00 0.  1.
          3    1    3    3  501    0 -0.25562607223E+01 -0.24992287516E+01 -0.90362890175E+02  0.90433580787E+02  0.00000000000E+00 0.  1.
         -3    1    1    2    0  502 -0.68507360861E+01  0.31052247660E+02 -0.35224238052E+03  0.35367480728E+03  0.00000000000E+00 0. -1.
<mgrwt>
<rscale>  1 0.30000000E+03</rscale>
<asrwt>0</asrwt>
<pdfrwt beam="1">  1       21 0.42089506E-02 0.30000000E+03</pdfrwt>
<pdfrwt beam="2">0</pdfrwt>
<totfact> 0.38587485E+04</totfact>
</mgrwt>
</event>
<event>
 6    1  0.1132867E-002  0.3000000E+03  0.7818608E-02  0.1093470E+00
         21   -1    0    0  501  502  0.00000000000E+00  0.00000000000E+00  0.10352765676E+00  0.10352765676E+00  0.00000000000E+00 0. -1.
         13   -1    0    0    0    0 -0.00000000000E+00 -0.00000000000E+00 -0.10000000000E+04  0.10000000000E+04  0.00000000000E+00 0.  1.
    9000005    2    1    2  501    0  0.38304538273E+01  0.84057955382E+01 -0.48829838050E+03  0.48842204728E+03  0.59546706465E+01 0.  0.
         13    1    3    3    0    0  0.10330229591E+01  0.44985062663E+01 -0.36627451938E+03  0.36630359982E+03  0.00000000000E+00 0.  1.
          1    1    3    3  501    0  0.27974308682E+01  0.39072892719E+01 -0.12202386112E+03  0.12211844746E+03  0.00000000000E+00 0.  1.
         -3    1    1    2    0  502 -0.38304538273E+01 -0.84057955382E+01 -0.51159809185E+03  0.51168148037E+03  0.00000000000E+00 0. -1.
<mgrwt>
<rscale>  1 0.30000000E+03</rscale>
<asrwt>0</asrwt>
<pdfrwt beam="1">  1       21 0.37646500E-03 0.30000000E+03</pdfrwt>
<pdfrwt beam="2">0</pdfrwt>
<totfact> 0.18595169E+06</totfact>
</mgrwt>
</event>
<event>
 6    1  0.1132867E-002  0.3000000E+03  0.7818608E-02  0.1093470E+00
         21   -1    0    0  501  502  0.00000000000E+00  0.00000000000E+00  0.50056823084E+00  0.50056823084E+00  0.00000000000E+00 0. -1.
         13   -1    0    0    0    0 -0.00000000000E+00 -0.00000000000E+00 -0.10000000000E+04  0.10000000000E+04  0.00000000000E+00 0.  1.
    9000005    2    1    2  501    0 -0.22028933130E+01  0.10370563278E+02 -0.93963024659E+03  0.93969990494E+03  0.43022936411E+01 0.  0.
         13    1    3    3    0    0 -0.11220777737E+01  0.93463916768E+01 -0.88268672888E+03  0.88273692311E+03  0.00000000000E+00 0.  1.
          1    1    3    3  501    0 -0.10808155393E+01  0.10241716007E+01 -0.56943517712E+02  0.56962981831E+02  0.00000000000E+00 0.  1.
         -1    1    1    2    0  502  0.22028933130E+01 -0.10370563278E+02 -0.59869185182E+02  0.60800663286E+02  0.00000000000E+00 0. -1.
<mgrwt>
<rscale>  1 0.30000000E+03</rscale>
<asrwt>0</asrwt>
<pdfrwt beam="1">  1       21 0.18202520E-02 0.30000000E+03</pdfrwt>
<pdfrwt beam="2">0</pdfrwt>
<totfact> 0.15450719E+05</totfact>
</mgrwt>
</event>
<event>
 6    1  0.1132867E-002  0.3000000E+03  0.7818608E-02  0.1093470E+00
         21   -1    0    0  501  502  0.00000000000E+00  0.00000000000E+00  0.12881451983E+00  0.12881451983E+00  0.00000000000E+00 0. -1.
         13   -1    0    0    0    0 -0.00000000000E+00 -0.00000000000E+00 -0.10000000000E+04  0.10000000000E+04  0.00000000000E+00 0.  1.
    9000005    2    1    2  501    0 -0.49761515035E+01 -0.89970120278E+01 -0.61557083472E+03  0.61569095491E+03  0.64954666774E+01 0.  0.
         13    1    3    3    0    0 -0.61017702055E+01 -0.51775083804E+01 -0.35865465180E+03  0.35874391626E+03  0.00000000000E+00 0.  1.
          3    1    3    3  501    0  0.11256187020E+01 -0.38195036474E+01 -0.25691618292E+03  0.25694703865E+03  0.00000000000E+00 0.  1.
         -3    1    1    2    0  502  0.49761515035E+01  0.89970120278E+01 -0.38430035076E+03  0.38443785961E+03  0.00000000000E+00 0. -1.
<mgrwt>
<rscale>  1 0.30000000E+03</rscale>
<asrwt>0</asrwt>
<pdfrwt beam="1">  1       21 0.46841742E-03 0.30000000E+03</pdfrwt>
<pdfrwt beam="2">0</pdfrwt>
<totfact> 0.13267922E+06</totfact>
</mgrwt>
</event>
<event>
 6    1  0.1132867E-002  0.3000000E+03  0.7818608E-02  0.1093470E+00
         21   -1    0    0  501  502  0.00000000000E+00  0.00000000000E+00  0.63763969121E+00  0.63763969121E+00  0.00000000000E+00 0. -1.
         13   -1    0    0    0    0 -0.00000000000E+00 -0.00000000000E+00 -0.10000000000E+04  0.10000000000E+04  0.00000000000E+00 0.  1.
    9000005    2    1    2  501    0  0.22290183231E+02 -0.43800204347E+01 -0.65420704478E+03  0.65473558898E+03  0.13258853324E+02 0.  0.
         13    1    3    3    0    0  0.42233668553E+01  0.43538576732E+01 -0.18555047346E+03  0.18564959225E+03  0.00000000000E+00 0.  1.
          1    1    3    3  501    0  0.18066816376E+02 -0.87338781079E+01 -0.46865657132E+03  0.46908599673E+03  0.00000000000E+00 0.  1.
         -1    1    1    2    0  502 -0.22290183231E+02  0.43800204347E+01 -0.34515531553E+03  0.34590205071E+03  0.00000000000E+00 0. -1.
<mgrwt>
<rscale>  1 0.30000000E+03</rscale>
<asrwt>0</asrwt>
<pdfrwt beam="1">  1       21 0.23186947E-02 0.30000000E+03</pdfrwt>
<pdfrwt beam="2">0</pdfrwt>
<totfact> 0.10407883E+05</totfact>
</mgrwt>
</event>
<event>
 6    1  0.1132867E-002  0.3000000E+03  0.7818608E-02  0.1093470E+00
         21   -1    0    0  501  502  0.00000000000E+00  0.00000000000E+00  0.15934904470E+00  0.15934904470E+00  0.00000000000E+00 0. -1.
         13   -1    0    0    0    0 -0.00000000000E+00 -0.00000000000E+00 -0.10000000000E+04  0.10000000000E+04  0.00000000000E+00 0.  1.
    9000005    2    1    2  501    0 -0.85989065188E+01 -0.23598188695E+01 -0.31870349609E+03  0.31896383110E+03  0.93003864233E+01 0.  0.
         13    1    3    3    0    0 -0.82758064278E+01  0.14731262525E+01 -0.16683398760E+03  0.16704561799E+03  0.00000000000E+00 0.  1.
          1    1    3    3  501    0 -0.32310009099E+00 -0.38329451220E+01 -0.15186950850E+03  0.15191821311E+03  0.00000000000E+00 0.  1.
         -1    1    1    2    0  502  0.85989065188E+01  0.23598188695E+01 -0.68113715486E+03  0.68119551795E+03  0.00000000000E+00 0. -1.
<mgrwt>
<rscale>  1 0.30000000E+03</rscale>
<asrwt>0</asrwt>
<pdfrwt beam="1">  1       21 0.57945229E-03 0.30000000E+03</pdfrwt>
<pdfrwt beam="2">0</pdfrwt>
<totfact> 0.95326426E+05</totfact>
</mgrwt>
</event>
<event>
 6    1  0.1132867E-002  0.3000000E+03  0.7818608E-02  0.1093470E+00
         21   -1    0    0  501  502  0.00000000000E+00  0.00000000000E+00  0.80069771697E+00  0.80069771697E+00  0.00000000000E+00 0. -1.
         13   -1    0    0    0    0 -0.00000000000E+00 -0.00000000000E+00 -0.10000000000E+04  0.10000000000E+04  0.00000000000E+00 0.  1.
    9000005    2    1    2  501    0  0.12078064672E+02  0.53153527177E+01 -0.91873632899E+03  0.91926283724E+03  0.28170713436E+02 0.  0.
         13    1    3    3    0    0  0.37067548422E+01  0.11353973157E+02 -0.15595893983E+03  0.15641561192E+03  0.00000000000E+00 0.  1.
          1    1    3    3  501    0  0.83713098300E+01 -0.60386204395E+01 -0.76277738916E+03  0.76284722532E+03  0.00000000000E+00 0.  1.
         -3    1    1    2    0  502 -0.12078064672E+02 -0.53153527177E+01 -0.80462973292E+02  0.81537860480E+02  0.00000000000E+00 0. -1.
<mgrwt>
<rscale>  1 0.30000000E+03</rscale>
<asrwt>0</asrwt>
<pdfrwt beam="1">  1       21 0.29116342E-02 0.30000000E+03</pdfrwt>
<pdfrwt beam="2">0</pdfrwt>
<totfact> 0.71490362E+04</totfact>
</mgrwt>
</event>
<event>
 6    1  0.1132867E-002  0.3000000E+03  0.7818608E-02  0.1093470E+00
         21   -1    0    0  501  502  0.00000000000E+00  0.00000000000E+00  0.26106615064E+00  0.26106615064E+00  0.00000000000E+00 0. -1.
         13   -1    0    0    0    0 -0.00000000000E+00 -0.00000000000E+00 -0.10000000000E+04  0.10000000000E+04  0.00000000000E+00 0.  1.
    9000005    2    1    2  501    0  0.10036446202E+02 -0.10226649186E+02 -0.67298139315E+03  0.67318950668E+03  0.86511144784E+01 0.  0.
         13    1    3    3    0    0 -0.14758659703E+01 -0.29044117997E+00 -0.72298528535E+02  0.72314174024E+02  0.00000000000E+00 0.  1.
          1    1    3    3  501    0  0.11512312173E+02 -0.99362080057E+01 -0.60068286461E+03  0.60087533266E+03  0.00000000000E+00 0.  1.
         -1    1    1    2    0  502 -0.10036446202E+02  0.10226649186E+02 -0.32675754070E+03  0.32707155947E+03  0.00000000000E+00 0. -1.
<mgrwt>
<rscale>  1 0.30000000E+03</rscale>
<asrwt>0</asrwt>
<pdfrwt beam="1">  1       21 0.94933346E-03 0.30000000E+03</pdfrwt>
<pdfrwt beam="2">0</pdfrwt>
<totfact> 0.43882348E+05</totfact>
</mgrwt>
</event>
<event>
 6    1  0.1132867E-002  0.3000000E+03  0.7818608E-02  0.1093470E+00
         21   -1    0    0  501  502  0.00000000000E+00  0.00000000000E+00  0.80693496961E+00  0.80693496961E+00  0.00000000000E+00 0. -1.
         13   -1    0    0    0    0 -0.00000000000E+00 -0.00000000000E+00 -0.10000000000E+04  0.10000000000E+04  0.00000000000E+00 0.  1.
    9000005    2    1    2  501    0 -0.15134512783E+02  0.79608578007E+00 -0.92170679256E+03  0.92185245662E+03  0.62332254545E+01 0.  0.
         13    1    3    3    0    0 -0.85185407611E+01 -0.28174941583E+00 -0.33907564191E+03  0.33918274699E+03  0.00000000000E+00 0.  1.
          3    1    3    3  501    0 -0.66159720220E+01  0.10778351959E+01 -0.58263115065E+03  0.58266970963E+03  0.00000000000E+00 0.  1.
         -3    1    1    2    0  502  0.15134512783E+02 -0.79608578007E+00 -0.77486272474E+02  0.78954478351E+02  0.00000000000E+00 0. -1.
<mgrwt>
<rscale>  1 0.30000000E+03</rscale>
<asrwt>0</asrwt>
<pdfrwt beam="1">  1       21 0.29343152E-02 0.30000000E+03</pdfrwt>
<pdfrwt beam="2">0</pdfrwt>
<totfact> 0.70576128E+04</totfact>
</mgrwt>
</event>
<event>
 6    1  0.1132867E-002  0.3000000E+03  0.7818608E-02  0.1093470E+00
         21   -1    0    0  501  502  0.00000000000E+00  0.00000000000E+00  0.21068583868E+00  0.21068583868E+00  0.00000000000E+00 0. -1.
         13   -1    0    0    0    0 -0.00000000000E+00 -0.00000000000E+00 -0.10000000000E+04  0.10000000000E+04  0.00000000000E+00 0.  1.
    9000005    2    1    2  501    0  0.54271080706E+01  0.85638753738E+01 -0.81925714726E+03  0.81939404736E+03  0.11024429895E+02 0.  0.
         13    1    3    3    0    0  0.63872789101E+01  0.10367683384E+02 -0.57807908415E+03  0.57820732763E+03  0.00000000000E+00 0.  1.
          3    1    3    3  501    0 -0.96017083948E+00 -0.18038080102E+01 -0.24117806310E+03  0.24118671973E+03  0.00000000000E+00 0.  1.
         -3    1    1    2    0  502 -0.54271080706E+01 -0.85638753738E+01 -0.18053216690E+03  0.18081663848E+03  0.00000000000E+00 0. -1.
<mgrwt>
<rscale>  1 0.30000000E+03</rscale>
<asrwt>0</asrwt>
<pdfrwt beam="1">  1       21 0.76613194E-03 0.30000000E+03</pdfrwt>
<pdfrwt beam="2">0</pdfrwt>
<totfact> 0.61558388E+05</totfact>
</mgrwt>
</event>
<event>
 6    1  0.1132867E-002  0.3000000E+03  0.7818608E-02  0.1093470E+00
         21   -1    0    0  501  502  0.00000000000E+00  0.00000000000E+00  0.11767927208E+01  0.11767927208E+01  0.00000000000E+00 0. -1.
         13   -1    0    0    0    0 -0.00000000000E+00 -0.00000000000E+00 -0.10000000000E+04  0.10000000000E+04  0.00000000000E+00 0.  1.
    9000005    2    1    2  501    0  0.22157381796E+02 -0.11378449757E+02 -0.83881297283E+03  0.83923947826E+03  0.97611368212E+01 0.  0.
         13    1    3    3    0    0  0.87198498130E+01 -0.33680902810E+01 -0.18167931560E+03  0.18191963481E+03  0.00000000000E+00 0.  1.
          1    1    3    3  501    0  0.13437531983E+02 -0.80103594758E+01 -0.65713365723E+03  0.65731984345E+03  0.00000000000E+00 0.  1.
         -3    1    1    2    0  502 -0.22157381796E+02  0.11378449757E+02 -0.16001023445E+03  0.16193731446E+03  0.00000000000E+00 0. -1.
<mgrwt>
<rscale>  1 0.30000000E+03</rscale>
<asrwt>0</asrwt>
<pdfrwt beam="1">  1       21 0.42792553E-02 0.30000000E+03</pdfrwt>
<pdfrwt beam="2">0</pdfrwt>
<totfact> 0.37522328E+04</totfact>
</mgrwt>
</event>
<event>
 6    1  0.1132867E-002  0.3000000E+03  0.7818608E-02  0.1093470E+00
         21   -1    0    0  501  502  0.00000000000E+00  0.00000000000E+00  0.10183284661E+00  0.10183284661E+00  0.00000000000E+00 0. -1.
         13   -1    0    0    0    0 -0.00000000000E+00 -0.00000000000E+00 -0.10000000000E+04  0.10000000000E+04  0.00000000000E+00 0.  1.
    9000005    2    1    2  501    0  0.62832110315E+01 -0.64322618013E+01 -0.42437181138E+03  0.42450523894E+03  0.56930533673E+01 0.  0.
         13    1    3    3    0    0  0.54441413376E+01 -0.15608491845E+01 -0.20911562157E+03  0.20919229936E+03  0.00000000000E+00 0.  1.
          1    1    3    3  501    0  0.83906969385E+00 -0.48714126167E+01 -0.21525618981E+03  0.21531293958E+03  0.00000000000E+00 0.  1.
         -1    1    1    2    0  502 -0.62832110315E+01  0.64322618013E+01 -0.57552635577E+03  0.57559659391E+03  0.00000000000E+00 0. -1.
<mgrwt>
<rscale>  1 0.30000000E+03</rscale>
<asrwt>0</asrwt>
<pdfrwt beam="1">  1       21 0.37030204E-03 0.30000000E+03</pdfrwt>
<pdfrwt beam="2">0</pdfrwt>
<totfact> 0.19073926E+06</totfact>
</mgrwt>
</event>
<event>
 6    1  0.1132867E-002  0.3000000E+03  0.7818608E-02  0.1093470E+00
         21   -1    0    0  501  502  0.00000000000E+00  0.00000000000E+00  0.91064828451E+00  0.91064828451E+00  0.00000000000E+00 0. -1.
         13   -1    0    0    0    0 -0.00000000000E+00 -0.00000000000E+00 -0.10000000000E+04  0.10000000000E+04  0.00000000000E+00 0.  1.
    9000005    2    1    2  501    0 -0.10798240907E+02  0.87785946170E+01 -0.94106277184E+03  0.94123863054E+03  0.11719784128E+02 0.  0.
         13    1    3    3    0    0 -0.10110545532E+02  0.25104192658E+01 -0.38771284349E+03  0.38785277406E+03  0.00000000000E+00 0.  1.
          1    1    3    3  501    0 -0.68769537460E+00  0.62681753512E+01 -0.55334992835E+03  0.55338585648E+03  0.00000000000E+00 0.  1.
         -3    1    1    2    0  502  0.10798240907E+02 -0.87785946170E+01 -0.58026579874E+02  0.59672017747E+02  0.00000000000E+00 0. -1.
<mgrwt>
<rscale>  1 0.30000000E+03</rscale>
<asrwt>0</asrwt>
<pdfrwt beam="1">  1       21 0.33114553E-02 0.30000000E+03</pdfrwt>
<pdfrwt beam="2">0</pdfrwt>
<totfact> 0.57718892E+04</totfact>
</mgrwt>
</event>
<event>
 6    1  0.1132867E-002  0.3000000E+03  0.7818608E-02  0.1093470E+00
         21   -1    0    0  501  502  0.00000000000E+00  0.00000000000E+00  0.21055024231E+00  0.21055024231E+00  0.00000000000E+00 0. -1.
         13   -1    0    0    0    0 -0.00000000000E+00 -0.00000000000E+00 -0.10000000000E+04  0.10000000000E+04  0.00000000000E+00 0.  1.
    9000005    2    1    2  501    0 -0.95690930412E+01 -0.35978204888E+00 -0.86632132243E+03  0.86639934744E+03  0.65953431847E+01 0.  0.
         13    1    3    3    0    0 -0.97982899879E+01  0.42987425455E+00 -0.62777741521E+03  0.62785402310E+03  0.00000000000E+00 0.  1.
          1    1    3    3  501    0  0.22919694675E+00 -0.78965630342E+00 -0.23854390723E+03  0.23854532434E+03  0.00000000000E+00 0.  1.
         -3    1    1    2    0  502  0.95690930412E+01  0.35978204888E+00 -0.13346812732E+03  0.13381120281E+03  0.00000000000E+00 0. -1.
<mgrwt>
<rscale>  1 0.30000000E+03</rscale>
<asrwt>0</asrwt>
<pdfrwt beam="1">  1       21 0.76563886E-03 0.30000000E+03</pdfrwt>
<pdfrwt beam="2">0</pdfrwt>
<totfact> 0.61620757E+05</totfact>
</mgrwt>
</event>
<event>
 6    1  0.1132867E-002  0.3000000E+03  0.7818608E-02  0.1093470E+00
         21   -1    0    0  501  502  0.00000000000E+00  0.00000000000E+00  0.37028235287E+00  0.37028235287E+00  0.00000000000E+00 0. -1.
         13   -1    0    0    0    0 -0.00000000000E+00 -0.00000000000E+00 -0.10000000000E+04  0.10000000000E+04  0.00000000000E+00 0.  1.
    9000005    2    1    2  501    0 -0.98115095365E+01 -0.92248146951E+01 -0.78571244067E+03  0.78602951555E+03  0.17804408504E+02 0.  0.
         13    1    3    3    0    0 -0.13782619150E+02 -0.10162857991E+02 -0.71061638265E+03  0.71082268363E+03  0.00000000000E+00 0.  1.
          1    1    3    3  501    0  0.39711096138E+01  0.93804329560E+00 -0.75096058018E+02  0.75206831914E+02  0.00000000000E+00 0.  1.
         -3    1    1    2    0  502  0.98115095365E+01  0.92248146951E+01 -0.21391727698E+03  0.21434076681E+03  0.00000000000E+00 0. -1.
<mgrwt>
<rscale>  1 0.30000000E+03</rscale>
<asrwt>0</asrwt>
<pdfrwt beam="1">  1       21 0.13464841E-02 0.30000000E+03</pdfrwt>
<pdfrwt beam="2">0</pdfrwt>
<totfact> 0.25135809E+05</totfact>
</mgrwt>
</event>
<event>
 6    1  0.1132867E-002  0.3000000E+03  0.7818608E-02  0.1093470E+00
         21   -1    0    0  501  502  0.00000000000E+00  0.00000000000E+00  0.53580439787E+00  0.53580439787E+00  0.00000000000E+00 0. -1.
         13   -1    0    0    0    0 -0.00000000000E+00 -0.00000000000E+00 -0.10000000000E+04  0.10000000000E+04  0.00000000000E+00 0.  1.
    9000005    2    1    2  501    0  0.47536300719E+01  0.19930220815E+02 -0.72296997042E+03  0.72328345137E+03  0.57932888440E+01 0.  0.
         13    1    3    3    0    0  0.31917459577E+01  0.18625038694E+02 -0.60241816685E+03  0.60271446561E+03  0.00000000000E+00 0.  1.
          3    1    3    3  501    0  0.15618841142E+01  0.13051821207E+01 -0.12055180357E+03  0.12056898576E+03  0.00000000000E+00 0.  1.
         -3    1    1    2    0  502 -0.47536300719E+01 -0.19930220815E+02 -0.27649422518E+03  0.27725235303E+03  0.00000000000E+00 0. -1.
<mgrwt>
<rscale>  1 0.30000000E+03</rscale>
<asrwt>0</asrwt>
<pdfrwt beam="1">  1       21 0.19483837E-02 0.30000000E+03</pdfrwt>
<pdfrwt beam="2">0</pdfrwt>
<totfact> 0.13833043E+05</totfact>
</mgrwt>
</event>
<event>
 6    1  0.1132867E-002  0.3000000E+03  0.7818608E-02  0.1093470E+00
         21   -1    0    0  501  502  0.00000000000E+00  0.00000000000E+00  0.15926177751E+00  0.15926177751E+00  0.00000000000E+00 0. -1.
         13   -1    0    0    0    0 -0.00000000000E+00 -0.00000000000E+00 -0.10000000000E+04  0.10000000000E+04  0.00000000000E+00 0.  1.
    9000005    2    1    2  501    0  0.90740509579E+01 -0.70808009211E+01 -0.53547442475E+03  0.53565032835E+03  0.74792086235E+01 0.  0.
         13    1    3    3    0    0 -0.67863479632E+00 -0.29677623854E+01 -0.14834282214E+03  0.14837405784E+03  0.00000000000E+00 0.  1.
          1    1    3    3  501    0  0.97526857542E+01 -0.41130385357E+01 -0.38713160260E+03  0.38727627051E+03  0.00000000000E+00 0.  1.
         -1    1    1    2    0  502 -0.90740509579E+01  0.70808009211E+01 -0.46436631348E+03  0.46450893343E+03  0.00000000000E+00 0. -1.
<mgrwt>
<rscale>  1 0.30000000E+03</rscale>
<asrwt>0</asrwt>
<pdfrwt beam="1">  1       21 0.57913496E-03 0.30000000E+03</pdfrwt>
<pdfrwt beam="2">0</pdfrwt>
<totfact> 0.95407858E+05</totfact>
</mgrwt>
</event>
<event>
 6    1  0.1132867E-002  0.3000000E+03  0.7818608E-02  0.1093470E+00
         21   -1    0    0  501  502  0.00000000000E+00  0.00000000000E+00  0.89398434804E+00  0.89398434804E+00  0.00000000000E+00 0.  1.
         13   -1    0    0    0    0 -0.00000000000E+00 -0.00000000000E+00 -0.10000000000E+04  0.10000000000E+04  0.00000000000E+00 0.  1.
    9000005    2    1    2  501    0  0.11470001379E+02 -0.12503151634E+02 -0.90482679951E+03  0.90510014150E+03  0.14381908375E+02 0.  0.
         13    1    3    3    0    0  0.77457046765E+01 -0.14752726860E+01 -0.59903502526E+03  0.59908691678E+03  0.00000000000E+00 0.  1.
          3    1    3    3  501    0  0.37242967021E+01 -0.11027878948E+02 -0.30579177425E+03  0.30601322471E+03  0.00000000000E+00 0.  1.
         -3    1    1    2    0  502 -0.11470001379E+02  0.12503151634E+02 -0.94279216140E+02  0.95793842852E+02  0.00000000000E+00 0. -1.
<mgrwt>
<rscale>  1 0.30000000E+03</rscale>
<asrwt>0</asrwt>
<pdfrwt beam="1">  1       21 0.32508590E-02 0.30000000E+03</pdfrwt>
<pdfrwt beam="2">0</pdfrwt>
<totfact> 0.59524027E+04</totfact>
</mgrwt>
</event>
<event>
 6    1  0.1132867E-002  0.3000000E+03  0.7818608E-02  0.1093470E+00
         21   -1    0    0  501  502  0.00000000000E+00  0.00000000000E+00  0.22992027266E+00  0.22992027266E+00  0.00000000000E+00 0. -1.
         13   -1    0    0    0    0 -0.00000000000E+00 -0.00000000000E+00 -0.10000000000E+04  0.10000000000E+04  0.00000000000E+00 0.  1.
    9000005    2    1    2  501    0  0.71919278307E+01 -0.69786677284E+01 -0.86335948653E+03  0.86345172184E+03  0.76712022068E+01 0.  0.
         13    1    3    3    0    0  0.45407275987E+01  0.39554361563E+00 -0.24298895249E+03  0.24303169689E+03  0.00000000000E+00 0.  1.
          3    1    3    3  501    0  0.26512002320E+01 -0.73742113440E+01 -0.62037053404E+03  0.62042002495E+03  0.00000000000E+00 0.  1.
         -1    1    1    2    0  502 -0.71919278307E+01  0.69786677284E+01 -0.13641059320E+03  0.13677819843E+03  0.00000000000E+00 0. -1.
<mgrwt>
<rscale>  1 0.30000000E+03</rscale>
<asrwt>0</asrwt>
<pdfrwt beam="1">  1       21 0.83607548E-03 0.30000000E+03</pdfrwt>
<pdfrwt beam="2">0</pdfrwt>
<totfact> 0.53640910E+05</totfact>
</mgrwt>
</event>
<event>
 6    1  0.1132867E-002  0.3000000E+03  0.7818608E-02  0.1093470E+00
         21   -1    0    0  501  502  0.00000000000E+00  0.00000000000E+00  0.52530480841E+00  0.52530480841E+00  0.00000000000E+00 0. -1.
         13   -1    0    0    0    0 -0.00000000000E+00 -0.00000000000E+00 -0.10000000000E+04  0.10000000000E+04  0.00000000000E+00 0.  1.
    9000005    2    1    2  501    0 -0.18244077447E+02 -0.98175884878E+01 -0.41280208163E+03  0.41348698672E+03  0.11691799680E+02 0.  0.
         13    1    3    3    0    0 -0.10397587809E+02 -0.53115885713E+01 -0.32715369709E+03  0.32736197751E+03  0.00000000000E+00 0.  1.
          3    1    3    3  501    0 -0.78464896388E+01 -0.45059999165E+01 -0.85648384547E+02  0.86125009204E+02  0.00000000000E+00 0.  1.
         -1    1    1    2    0  502  0.18244077447E+02  0.98175884878E+01 -0.58667261356E+03  0.58703831809E+03  0.00000000000E+00 0. -1.
<mgrwt>
<rscale>  1 0.30000000E+03</rscale>
<asrwt>0</asrwt>
<pdfrwt beam="1">  1       21 0.19102033E-02 0.30000000E+03</pdfrwt>
<pdfrwt beam="2">0</pdfrwt>
<totfact> 0.14285799E+05</totfact>
</mgrwt>
</event>
<event>
 6    1  0.1132867E-002  0.3000000E+03  0.7818608E-02  0.1093470E+00
         21   -1    0    0  501  502  0.00000000000E+00  0.00000000000E+00  0.11286832422E+00  0.11286832422E+00  0.00000000000E+00 0. -1.
         13   -1    0    0    0    0 -0.00000000000E+00 -0.00000000000E+00 -0.10000000000E+04  0.10000000000E+04  0.00000000000E+00 0.  1.
    9000005    2    1    2  501    0  0.51127377414E+01  0.63359702431E+01 -0.60287143281E+03  0.60301369966E+03  0.10260257104E+02 0.  0.
         13    1    3    3    0    0 -0.17399135161E+01  0.18157486828E+01 -0.38244596541E+02  0.38327188873E+02  0.00000000000E+00 0.  1.
          3    1    3    3  501    0  0.68526512574E+01  0.45202215603E+01 -0.56462683626E+03  0.56468651078E+03  0.00000000000E+00 0.  1.
         -3    1    1    2    0  502 -0.51127377414E+01 -0.63359702431E+01 -0.39701569887E+03  0.39709916867E+03  0.00000000000E+00 0. -1.
<mgrwt>
<rscale>  1 0.30000000E+03</rscale>
<asrwt>0</asrwt>
<pdfrwt beam="1">  1       21 0.41043114E-03 0.30000000E+03</pdfrwt>
<pdfrwt beam="2">0</pdfrwt>
<totfact> 0.16275711E+06</totfact>
</mgrwt>
</event>
<event>
 6    1  0.1132867E-002  0.3000000E+03  0.7818608E-02  0.1093470E+00
         21   -1    0    0  501  502  0.00000000000E+00  0.00000000000E+00  0.44430252361E+00  0.44430252361E+00  0.00000000000E+00 0. -1.
         13   -1    0    0    0    0 -0.00000000000E+00 -0.00000000000E+00 -0.10000000000E+04  0.10000000000E+04  0.00000000000E+00 0.  1.
    9000005    2    1    2  501    0  0.13440458172E+02 -0.83562885126E+01 -0.72180154347E+03  0.72223962331E+03  0.19548192669E+02 0.  0.
         13    1    3    3    0    0  0.81090570369E+01  0.43673059315E+01 -0.44423230981E+03  0.44432777906E+03  0.00000000000E+00 0.  1.
          1    1    3    3  501    0  0.53314011350E+01 -0.12723594444E+02 -0.27756923367E+03  0.27791184425E+03  0.00000000000E+00 0.  1.
         -3    1    1    2    0  502 -0.13440458172E+02  0.83562885126E+01 -0.27775415400E+03  0.27820467922E+03  0.00000000000E+00 0. -1.
<mgrwt>
<rscale>  1 0.30000000E+03</rscale>
<asrwt>0</asrwt>
<pdfrwt beam="1">  1       21 0.16156489E-02 0.30000000E+03</pdfrwt>
<pdfrwt beam="2">0</pdfrwt>
<totfact> 0.18744321E+05</totfact>
</mgrwt>
</event>
<event>
 6    1  0.1132867E-002  0.3000000E+03  0.7818608E-02  0.1093470E+00
         21   -1    0    0  501  502  0.00000000000E+00  0.00000000000E+00  0.77818376164E+00  0.77818376164E+00  0.00000000000E+00 0. -1.
         13   -1    0    0    0    0 -0.00000000000E+00 -0.00000000000E+00 -0.10000000000E+04  0.10000000000E+04  0.00000000000E+00 0.  1.
    9000005    2    1    2  501    0 -0.11381723821E+02  0.10996684841E+02 -0.90781302030E+03  0.90800944609E+03  0.10305515239E+02 0.  0.
         13    1    3    3    0    0 -0.29746773478E+01 -0.17530209449E+01 -0.12611777377E+03  0.12616502942E+03  0.00000000000E+00 0.  1.
          3    1    3    3  501    0 -0.84070464736E+01  0.12749705786E+02 -0.78169524653E+03  0.78184441667E+03  0.00000000000E+00 0.  1.
         -1    1    1    2    0  502  0.11381723821E+02 -0.10996684841E+02 -0.91408795936E+02  0.92768737671E+02  0.00000000000E+00 0. -1.
<mgrwt>
<rscale>  1 0.30000000E+03</rscale>
<asrwt>0</asrwt>
<pdfrwt beam="1">  1       21 0.28297651E-02 0.30000000E+03</pdfrwt>
<pdfrwt beam="2">0</pdfrwt>
<totfact> 0.74951480E+04</totfact>
</mgrwt>
</event>
<event>
 6    1  0.1132867E-002  0.3000000E+03  0.7818608E-02  0.1093470E+00
         21   -1    0    0  501  502  0.00000000000E+00  0.00000000000E+00  0.48804945446E+00  0.48804945446E+00  0.00000000000E+00 0. -1.
         13   -1    0    0    0    0 -0.00000000000E+00 -0.00000000000E+00 -0.10000000000E+04  0.10000000000E+04  0.00000000000E+00 0.  1.
    9000005    2    1    2  501    0  0.10377360869E+02 -0.10151473028E+02 -0.87485088348E+03  0.87498456876E+03  0.48151041602E+01 0.  0.
         13    1    3    3    0    0  0.14624023025E+01 -0.43627687711E+01 -0.22903535419E+03  0.22908157028E+03  0.00000000000E+00 0.  1.
          1    1    3    3  501    0  0.89149585661E+01 -0.57887042567E+01 -0.64581552929E+03  0.64590299848E+03  0.00000000000E+00 0.  1.
         -1    1    1    2    0  502 -0.10377360869E+02  0.10151473028E+02 -0.12466106707E+03  0.12550348069E+03  0.00000000000E+00 0. -1.
<mgrwt>
<rscale>  1 0.30000000E+03</rscale>
<asrwt>0</asrwt>
<pdfrwt beam="1">  1       21 0.17747290E-02 0.30000000E+03</pdfrwt>
<pdfrwt beam="2">0</pdfrwt>
<totfact> 0.16099122E+05</totfact>
</mgrwt>
</event>
<event>
 6    1  0.1132867E-002  0.3000000E+03  0.7818608E-02  0.1093470E+00
         21   -1    0    0  501  502  0.00000000000E+00  0.00000000000E+00  0.12309037351E+00  0.12309037351E+00  0.00000000000E+00 0. -1.
         13   -1    0    0    0    0 -0.00000000000E+00 -0.00000000000E+00 -0.10000000000E+04  0.10000000000E+04  0.00000000000E+00 0.  1.
    9000005    2    1    2  501    0  0.90158042932E+01  0.21619407935E+01 -0.60446300083E+03  0.60460050191E+03  0.89604030336E+01 0.  0.
         13    1    3    3    0    0  0.89558852008E+01  0.48514512234E+01 -0.49067860772E+03  0.49078431162E+03  0.00000000000E+00 0.  1.
          3    1    3    3  501    0  0.59919092471E-01 -0.26895104299E+01 -0.11378439312E+03  0.11381619030E+03  0.00000000000E+00 0.  1.
         -3    1    1    2    0  502 -0.90158042932E+01 -0.21619407935E+01 -0.39541390879E+03  0.39552258846E+03  0.00000000000E+00 0. -1.
<mgrwt>
<rscale>  1 0.30000000E+03</rscale>
<asrwt>0</asrwt>
<pdfrwt beam="1">  1       21 0.44760230E-03 0.30000000E+03</pdfrwt>
<pdfrwt beam="2">0</pdfrwt>
<totfact> 0.14235229E+06</totfact>
</mgrwt>
</event>
<event>
 6    1  0.1132867E-002  0.3000000E+03  0.7818608E-02  0.1093470E+00
         21   -1    0    0  501  502  0.00000000000E+00  0.00000000000E+00  0.81426730260E+00  0.81426730260E+00  0.00000000000E+00 0. -1.
         13   -1    0    0    0    0 -0.00000000000E+00 -0.00000000000E+00 -0.10000000000E+04  0.10000000000E+04  0.00000000000E+00 0.  1.
    9000005    2    1    2  501    0  0.67027050476E+01  0.13241312414E+02 -0.90654563026E+03  0.90699290945E+03  0.24308423284E+02 0.  0.
         13    1    3    3    0    0 -0.83769017892E+01  0.91915040110E+01 -0.48154944166E+03  0.48170999678E+03  0.00000000000E+00 0.  1.
          3    1    3    3  501    0  0.15079606837E+02  0.40498084029E+01 -0.42499618860E+03  0.42528291267E+03  0.00000000000E+00 0.  1.
         -3    1    1    2    0  502 -0.67027050476E+01 -0.13241312414E+02 -0.92640102439E+02  0.93821357853E+02  0.00000000000E+00 0. -1.
<mgrwt>
<rscale>  1 0.30000000E+03</rscale>
<asrwt>0</asrwt>
<pdfrwt beam="1">  1       21 0.29609783E-02 0.30000000E+03</pdfrwt>
<pdfrwt beam="2">0</pdfrwt>
<totfact> 0.69524809E+04</totfact>
</mgrwt>
</event>
<event>
 6    1  0.1132867E-002  0.3000000E+03  0.7818608E-02  0.1093470E+00
         21   -1    0    0  501  502  0.00000000000E+00  0.00000000000E+00  0.54975775004E+00  0.54975775004E+00  0.00000000000E+00 0. -1.
         13   -1    0    0    0    0 -0.00000000000E+00 -0.00000000000E+00 -0.10000000000E+04  0.10000000000E+04  0.00000000000E+00 0.  1.
    9000005    2    1    2  501    0 -0.11700435714E+02 -0.51397721115E+01 -0.78380239334E+03  0.78452357370E+03  0.31108333952E+02 0.  0.
         13    1    3    3    0    0 -0.29493899679E+00 -0.15899087052E+02 -0.25948940361E+03  0.25997618841E+03  0.00000000000E+00 0.  1.
          3    1    3    3  501    0 -0.11405496717E+02  0.10759314940E+02 -0.52431298973E+03  0.52454738529E+03  0.00000000000E+00 0.  1.
         -1    1    1    2    0  502  0.11700435714E+02  0.51397721115E+01 -0.21564784891E+03  0.21602618405E+03  0.00000000000E+00 0. -1.
<mgrwt>
<rscale>  1 0.30000000E+03</rscale>
<asrwt>0</asrwt>
<pdfrwt beam="1">  1       21 0.19991233E-02 0.30000000E+03</pdfrwt>
<pdfrwt beam="2">0</pdfrwt>
<totfact> 0.13265690E+05</totfact>
</mgrwt>
</event>
<event>
 6    1  0.1132867E-002  0.3000000E+03  0.7818608E-02  0.1093470E+00
         21   -1    0    0  501  502  0.00000000000E+00  0.00000000000E+00  0.20756192878E+00  0.20756192878E+00  0.00000000000E+00 0. -1.
         13   -1    0    0    0    0 -0.00000000000E+00 -0.00000000000E+00 -0.10000000000E+04  0.10000000000E+04  0.00000000000E+00 0.  1.
    9000005    2    1    2  501    0 -0.80741711885E+01  0.85974410756E+01 -0.61039212442E+03  0.61062867068E+03  0.12235998996E+02 0.  0.
         13    1    3    3    0    0 -0.24139618747E+01  0.98496730249E+01 -0.27589867780E+03  0.27608499359E+03  0.00000000000E+00 0.  1.
          3    1    3    3  501    0 -0.56602093138E+01 -0.12522319492E+01 -0.33449344661E+03  0.33454367709E+03  0.00000000000E+00 0.  1.
         -1    1    1    2    0  502  0.80741711885E+01 -0.85974410756E+01 -0.38940031365E+03  0.38957889125E+03  0.00000000000E+00 0. -1.
<mgrwt>
<rscale>  1 0.30000000E+03</rscale>
<asrwt>0</asrwt>
<pdfrwt beam="1">  1       21 0.75477224E-03 0.30000000E+03</pdfrwt>
<pdfrwt beam="2">0</pdfrwt>
<totfact> 0.63021502E+05</totfact>
</mgrwt>
</event>
<event>
 6    1  0.1132867E-002  0.3000000E+03  0.7818608E-02  0.1093470E+00
         21   -1    0    0  501  502  0.00000000000E+00  0.00000000000E+00  0.88957884758E+00  0.88957884758E+00  0.00000000000E+00 0. -1.
         13   -1    0    0    0    0 -0.00000000000E+00 -0.00000000000E+00 -0.10000000000E+04  0.10000000000E+04  0.00000000000E+00 0.  1.
    9000005    2    1    2  501    0  0.84076767080E+01  0.22014359850E+02 -0.79625643206E+03  0.79667140640E+03  0.10281201814E+02 0.  0.
         13    1    3    3    0    0  0.10825455463E+02  0.18354509025E+02 -0.67023910936E+03  0.67057776745E+03  0.00000000000E+00 0.  1.
          3    1    3    3  501    0 -0.24177787547E+01  0.36598508252E+01 -0.12601732270E+03  0.12609363895E+03  0.00000000000E+00 0.  1.
         -1    1    1    2    0  502 -0.84076767080E+01 -0.22014359850E+02 -0.20285398909E+03  0.20421817245E+03  0.00000000000E+00 0. -1.
<mgrwt>
<rscale>  1 0.30000000E+03</rscale>
<asrwt>0</asrwt>
<pdfrwt beam="1">  1       21 0.32348390E-02 0.30000000E+03</pdfrwt>
<pdfrwt beam="2">0</pdfrwt>
<totfact> 0.60016053E+04</totfact>
</mgrwt>
</event>
<event>
 6    1  0.1132867E-002  0.3000000E+03  0.7818608E-02  0.1093470E+00
         21   -1    0    0  501  502  0.00000000000E+00  0.00000000000E+00  0.36079943063E+00  0.36079943063E+00  0.00000000000E+00 0. -1.
         13   -1    0    0    0    0 -0.00000000000E+00 -0.00000000000E+00 -0.10000000000E+04  0.10000000000E+04  0.00000000000E+00 0.  1.
    9000005    2    1    2  501    0 -0.16119211632E+00 -0.17058913086E+02 -0.65158936227E+03  0.65189312168E+03  0.10242683644E+02 0.  0.
         13    1    3    3    0    0  0.12498647894E+01 -0.12663142494E+02 -0.29551422020E+03  0.29578805195E+03  0.00000000000E+00 0.  1.
          1    1    3    3  501    0 -0.14110569057E+01 -0.43957705913E+01 -0.35607514208E+03  0.35610506973E+03  0.00000000000E+00 0.  1.
         -3    1    1    2    0  502  0.16119211632E+00  0.17058913086E+02 -0.34804983830E+03  0.34846767775E+03  0.00000000000E+00 0. -1.
<mgrwt>
<rscale>  1 0.30000000E+03</rscale>
<asrwt>0</asrwt>
<pdfrwt beam="1">  1       21 0.13120007E-02 0.30000000E+03</pdfrwt>
<pdfrwt beam="2">0</pdfrwt>
<totfact> 0.26204448E+05</totfact>
</mgrwt>
</event>
<event>
 6    1  0.1132867E-002  0.3000000E+03  0.7818608E-02  0.1093470E+00
         21   -1    0    0  501  502  0.00000000000E+00  0.00000000000E+00  0.39274659624E+00  0.39274659624E+00  0.00000000000E+00 0. -1.
         13   -1    0    0    0    0 -0.00000000000E+00 -0.00000000000E+00 -0.10000000000E+04  0.10000000000E+04  0.00000000000E+00 0.  1.
    9000005    2    1    2  501    0 -0.15694514844E+02  0.98502930691E+00 -0.79446117931E+03  0.79464484310E+03  0.66763124939E+01 0.  0.
         13    1    3    3    0    0 -0.13751326988E+01 -0.14613113850E+01 -0.18356571952E+03  0.18357668644E+03  0.00000000000E+00 0.  1.
          1    1    3    3  501    0 -0.14319382145E+02  0.24463406919E+01 -0.61089545979E+03  0.61106815665E+03  0.00000000000E+00 0.  1.
         -3    1    1    2    0  502  0.15694514844E+02 -0.98502930691E+00 -0.20514607409E+03  0.20574790350E+03  0.00000000000E+00 0. -1.
<mgrwt>
<rscale>  1 0.30000000E+03</rscale>
<asrwt>0</asrwt>
<pdfrwt beam="1">  1       21 0.14281725E-02 0.30000000E+03</pdfrwt>
<pdfrwt beam="2">0</pdfrwt>
<totfact> 0.22866446E+05</totfact>
</mgrwt>
</event>
<event>
 6    1  0.1132867E-002  0.3000000E+03  0.7818608E-02  0.1093470E+00
         21   -1    0    0  501  502  0.00000000000E+00  0.00000000000E+00  0.22298534142E+00  0.22298534142E+00  0.00000000000E+00 0. -1.
         13   -1    0    0    0    0 -0.00000000000E+00 -0.00000000000E+00 -0.10000000000E+04  0.10000000000E+04  0.00000000000E+00 0.  1.
    9000005    2    1    2  501    0 -0.38971511153E+01 -0.90846477086E+01 -0.83884438617E+03  0.83898704170E+03  0.11900979582E+02 0.  0.
         13    1    3    3    0    0 -0.74178449101E+00  0.56486410158E+00 -0.53370790047E+01  0.54179080822E+01  0.00000000000E+00 0.  1.
          3    1    3    3  501    0 -0.31553666243E+01 -0.96495118102E+01 -0.83350730717E+03  0.83356913362E+03  0.00000000000E+00 0.  1.
         -1    1    1    2    0  502  0.38971511153E+01  0.90846477086E+01 -0.16093262849E+03  0.16123594364E+03  0.00000000000E+00 0. -1.
<mgrwt>
<rscale>  1 0.30000000E+03</rscale>
<asrwt>0</asrwt>
<pdfrwt beam="1">  1       21 0.81085750E-03 0.30000000E+03</pdfrwt>
<pdfrwt beam="2">0</pdfrwt>
<totfact> 0.56295917E+05</totfact>
</mgrwt>
</event>
<event>
 6    1  0.1132867E-002  0.3000000E+03  0.7818608E-02  0.1093470E+00
         21   -1    0    0  501  502  0.00000000000E+00  0.00000000000E+00  0.28953537161E+00  0.28953537161E+00  0.00000000000E+00 0. -1.
         13   -1    0    0    0    0 -0.00000000000E+00 -0.00000000000E+00 -0.10000000000E+04  0.10000000000E+04  0.00000000000E+00 0.  1.
    9000005    2    1    2  501    0  0.32047233876E+01  0.13273347474E+02 -0.79219727253E+03  0.79232757514E+03  0.44738943810E+01 0.  0.
         13    1    3    3    0    0  0.18515027044E+01  0.12336327279E+02 -0.64121434446E+03  0.64133567543E+03  0.00000000000E+00 0.  1.
          1    1    3    3  501    0  0.13532206833E+01  0.93702019509E+00 -0.15098292807E+03  0.15099189972E+03  0.00000000000E+00 0.  1.
         -1    1    1    2    0  502 -0.32047233876E+01 -0.13273347474E+02 -0.20751319210E+03  0.20796196023E+03  0.00000000000E+00 0. -1.
<mgrwt>
<rscale>  1 0.30000000E+03</rscale>
<asrwt>0</asrwt>
<pdfrwt beam="1">  1       21 0.10528581E-02 0.30000000E+03</pdfrwt>
<pdfrwt beam="2">0</pdfrwt>
<totfact> 0.37232738E+05</totfact>
</mgrwt>
</event>
<event>
 6    1  0.1132867E-002  0.3000000E+03  0.7818608E-02  0.1093470E+00
         21   -1    0    0  501  502  0.00000000000E+00  0.00000000000E+00  0.13510147630E+00  0.13510147630E+00  0.00000000000E+00 0. -1.
         13   -1    0    0    0    0 -0.00000000000E+00 -0.00000000000E+00 -0.10000000000E+04  0.10000000000E+04  0.00000000000E+00 0.  1.
    9000005    2    1    2  501    0  0.62411006559E+01 -0.63419115315E+01 -0.74370509519E+03  0.74382080998E+03  0.96414508422E+01 0.  0.
         13    1    3    3    0    0  0.41826507690E+01 -0.87403515627E+01 -0.61815265589E+03  0.61822859389E+03  0.00000000000E+00 0.  1.
          3    1    3    3  501    0  0.20584498869E+01  0.23984400311E+01 -0.12555243929E+03  0.12559221609E+03  0.00000000000E+00 0.  1.
         -1    1    1    2    0  502 -0.62411006559E+01  0.63419115315E+01 -0.25615980334E+03  0.25631429150E+03  0.00000000000E+00 0. -1.
<mgrwt>
<rscale>  1 0.30000000E+03</rscale>
<asrwt>0</asrwt>
<pdfrwt beam="1">  1       21 0.49127913E-03 0.30000000E+03</pdfrwt>
<pdfrwt beam="2">0</pdfrwt>
<totfact> 0.12322674E+06</totfact>
</mgrwt>
</event>
<event>
 6    1  0.1132867E-002  0.3000000E+03  0.7818608E-02  0.1093470E+00
         21   -1    0    0  501  502  0.00000000000E+00  0.00000000000E+00  0.18342911173E+01  0.18342911173E+01  0.00000000000E+00 0.  1.
         13   -1    0    0    0    0 -0.00000000000E+00 -0.00000000000E+00 -0.10000000000E+04  0.10000000000E+04  0.00000000000E+00 0.  1.
    9000005    2    1    2  501    0  0.14520135167E+02  0.10601623699E+02 -0.43586287362E+03  0.43924411408E+03  0.51339248207E+02 0.  0.
         13    1    3    3    0    0 -0.15001881599E+02  0.17407387508E+02 -0.14528772037E+03  0.14709383156E+03  0.00000000000E+00 0.  1.
          1    1    3    3  501    0  0.29522016766E+02 -0.68057638093E+01 -0.29057515324E+03  0.29215028252E+03  0.00000000000E+00 0.  1.
         -1    1    1    2    0  502 -0.14520135167E+02 -0.10601623699E+02 -0.56230283527E+03  0.56259017704E+03  0.00000000000E+00 0. -1.
<mgrwt>
<rscale>  1 0.30000000E+03</rscale>
<asrwt>0</asrwt>
<pdfrwt beam="1">  1       21 0.66701636E-02 0.30000000E+03</pdfrwt>
<pdfrwt beam="2">0</pdfrwt>
<totfact> 0.17546485E+04</totfact>
</mgrwt>
</event>
<event>
 6    1  0.1132867E-002  0.3000000E+03  0.7818608E-02  0.1093470E+00
         21   -1    0    0  501  502  0.00000000000E+00  0.00000000000E+00  0.74938333823E+00  0.74938333823E+00  0.00000000000E+00 0. -1.
         13   -1    0    0    0    0 -0.00000000000E+00 -0.00000000000E+00 -0.10000000000E+04  0.10000000000E+04  0.00000000000E+00 0.  1.
    9000005    2    1    2  501    0 -0.11256373694E+02 -0.85957743283E+01 -0.92406005724E+03  0.92423655100E+03  0.11208012656E+02 0.  0.
         13    1    3    3    0    0 -0.98585049244E+01 -0.11312779016E+02 -0.76941898754E+03  0.76956529774E+03  0.00000000000E+00 0.  1.
          1    1    3    3  501    0 -0.13978687700E+01  0.27170046877E+01 -0.15464106969E+03  0.15467125327E+03  0.00000000000E+00 0.  1.
         -1    1    1    2    0  502  0.11256373694E+02  0.85957743283E+01 -0.75190559426E+02  0.76512832335E+02  0.00000000000E+00 0. -1.
<mgrwt>
<rscale>  1 0.30000000E+03</rscale>
<asrwt>0</asrwt>
<pdfrwt beam="1">  1       21 0.27250361E-02 0.30000000E+03</pdfrwt>
<pdfrwt beam="2">0</pdfrwt>
<totfact> 0.79780786E+04</totfact>
</mgrwt>
</event>
<event>
 6    1  0.1132867E-002  0.3000000E+03  0.7818608E-02  0.1093470E+00
         21   -1    0    0  501  502  0.00000000000E+00  0.00000000000E+00  0.17277036896E+00  0.17277036896E+00  0.00000000000E+00 0. -1.
         13   -1    0    0    0    0 -0.00000000000E+00 -0.00000000000E+00 -0.10000000000E+04  0.10000000000E+04  0.00000000000E+00 0.  1.
    9000005    2    1    2  501    0  0.88773678818E+01 -0.17840736164E+01 -0.75583888564E+03  0.75601646268E+03  0.13655776198E+02 0.  0.
         13    1    3    3    0    0  0.75177882439E+01 -0.29401231268E+01 -0.74400289406E+03  0.74404668390E+03  0.00000000000E+00 0.  1.
          3    1    3    3  501    0  0.13595796378E+01  0.11560495105E+01 -0.11835991583E+02  0.11969778779E+02  0.00000000000E+00 0.  1.
         -3    1    1    2    0  502 -0.88773678818E+01  0.17840736164E+01 -0.24398834399E+03  0.24415630769E+03  0.00000000000E+00 0. -1.
<mgrwt>
<rscale>  1 0.30000000E+03</rscale>
<asrwt>0</asrwt>
<pdfrwt beam="1">  1       21 0.62825721E-03 0.30000000E+03</pdfrwt>
<pdfrwt beam="2">0</pdfrwt>
<totfact> 0.84019700E+05</totfact>
</mgrwt>
</event>
<event>
 6    1  0.1132867E-002  0.3000000E+03  0.7818608E-02  0.1093470E+00
         21   -1    0    0  501  502  0.00000000000E+00  0.00000000000E+00  0.35512665057E+00  0.35512665057E+00  0.00000000000E+00 0. -1.
         13   -1    0    0    0    0 -0.00000000000E+00 -0.00000000000E+00 -0.10000000000E+04  0.10000000000E+04  0.00000000000E+00 0.  1.
    9000005    2    1    2  501    0  0.93166964388E+00  0.13656810298E+02 -0.81607100209E+03  0.81627160570E+03  0.11835427596E+02 0.  0.
         13    1    3    3    0    0 -0.52584089519E+01  0.57143536889E+01 -0.28840808208E+03  0.28851261066E+03  0.00000000000E+00 0.  1.
          1    1    3    3  501    0  0.61900785957E+01  0.79424566093E+01 -0.52766292002E+03  0.52775899504E+03  0.00000000000E+00 0.  1.
         -1    1    1    2    0  502 -0.93166964388E+00 -0.13656810298E+02 -0.18357387126E+03  0.18408352095E+03  0.00000000000E+00 0. -1.
<mgrwt>
<rscale>  1 0.30000000E+03</rscale>
<asrwt>0</asrwt>
<pdfrwt beam="1">  1       21 0.12913724E-02 0.30000000E+03</pdfrwt>
<pdfrwt beam="2">0</pdfrwt>
<totfact> 0.26878815E+05</totfact>
</mgrwt>
</event>
<event>
 6    1  0.1132867E-002  0.3000000E+03  0.7818608E-02  0.1093470E+00
         21   -1    0    0  501  502  0.00000000000E+00  0.00000000000E+00  0.19696166017E+00  0.19696166017E+00  0.00000000000E+00 0. -1.
         13   -1    0    0    0    0 -0.00000000000E+00 -0.00000000000E+00 -0.10000000000E+04  0.10000000000E+04  0.00000000000E+00 0.  1.
    9000005    2    1    2  501    0  0.44318721614E+01 -0.83778172700E+01 -0.85501523306E+03  0.85509927777E+03  0.73414414106E+01 0.  0.
         13    1    3    3    0    0  0.61377390943E+01 -0.65330737922E+01 -0.75192763847E+03  0.75198106784E+03  0.00000000000E+00 0.  1.
          1    1    3    3  501    0 -0.17058669329E+01 -0.18447434778E+01 -0.10308759458E+03  0.10311820992E+03  0.00000000000E+00 0.  1.
         -3    1    1    2    0  502 -0.44318721614E+01  0.83778172700E+01 -0.14478780528E+03  0.14509768389E+03  0.00000000000E+00 0. -1.
<mgrwt>
<rscale>  1 0.30000000E+03</rscale>
<asrwt>0</asrwt>
<pdfrwt beam="1">  1       21 0.71622573E-03 0.30000000E+03</pdfrwt>
<pdfrwt beam="2">0</pdfrwt>
<totfact> 0.68429037E+05</totfact>
</mgrwt>
</event>
<event>
 6    1  0.1132867E-002  0.3000000E+03  0.7818608E-02  0.1093470E+00
         21   -1    0    0  501  502  0.00000000000E+00  0.00000000000E+00  0.13919065466E+00  0.13919065466E+00  0.00000000000E+00 0. -1.
         13   -1    0    0    0    0 -0.00000000000E+00 -0.00000000000E+00 -0.10000000000E+04  0.10000000000E+04  0.00000000000E+00 0.  1.
    9000005    2    1    2  501    0  0.79965073254E+01 -0.25350771007E+01 -0.68182338028E+03  0.68199114802E+03  0.12587030502E+02 0.  0.
         13    1    3    3    0    0  0.98189194905E+01  0.10988918684E+01 -0.33980862950E+03  0.33995223697E+03  0.00000000000E+00 0.  1.
          1    1    3    3  501    0 -0.18224121651E+01 -0.36339689691E+01 -0.34201475078E+03  0.34203891104E+03  0.00000000000E+00 0.  1.
         -1    1    1    2    0  502 -0.79965073254E+01  0.25350771007E+01 -0.31803742907E+03  0.31814804264E+03  0.00000000000E+00 0. -1.
<mgrwt>
<rscale>  1 0.30000000E+03</rscale>
<asrwt>0</asrwt>
<pdfrwt beam="1">  1       21 0.50614890E-03 0.30000000E+03</pdfrwt>
<pdfrwt beam="2">0</pdfrwt>
<totfact> 0.11765061E+06</totfact>
</mgrwt>
</event>
<event>
 6    1  0.1132867E-002  0.3000000E+03  0.7818608E-02  0.1093470E+00
         21   -1    0    0  501  502  0.00000000000E+00  0.00000000000E+00  0.15100041107E+00  0.15100041107E+00  0.00000000000E+00 0. -1.
         13   -1    0    0    0    0 -0.00000000000E+00 -0.00000000000E+00 -0.10000000000E+04  0.10000000000E+04  0.00000000000E+00 0.  1.
    9000005    2    1    2  501    0  0.59500392876E+01 -0.79055017984E+01 -0.38384328255E+03  0.38406582501E+03  0.85435621646E+01 0.  0.
         13    1    3    3    0    0  0.59077859769E+01 -0.96512318167E+01 -0.33754500658E+03  0.33773462908E+03  0.00000000000E+00 0.  1.
          3    1    3    3  501    0  0.42253310760E-01  0.17457300183E+01 -0.46298275967E+02  0.46331195929E+02  0.00000000000E+00 0.  1.
         -3    1    1    2    0  502 -0.59500392876E+01  0.79055017984E+01 -0.61600571704E+03  0.61608517540E+03  0.00000000000E+00 0. -1.
<mgrwt>
<rscale>  1 0.30000000E+03</rscale>
<asrwt>0</asrwt>
<pdfrwt beam="1">  1       21 0.54909356E-03 0.30000000E+03</pdfrwt>
<pdfrwt beam="2">0</pdfrwt>
<totfact> 0.10365997E+06</totfact>
</mgrwt>
</event>
<event>
 6    1  0.1132867E-002  0.3000000E+03  0.7818608E-02  0.1093470E+00
         21   -1    0    0  501  502  0.00000000000E+00  0.00000000000E+00  0.37424480979E+00  0.37424480979E+00  0.00000000000E+00 0. -1.
         13   -1    0    0    0    0 -0.00000000000E+00 -0.00000000000E+00 -0.10000000000E+04  0.10000000000E+04  0.00000000000E+00 0.  1.
    9000005    2    1    2  501    0 -0.81625450192E+01  0.76778977799E+01 -0.79119453214E+03  0.79164199527E+03  0.24138842810E+02 0.  0.
         13    1    3    3    0    0 -0.84345089138E+01  0.78420307091E+01 -0.79123761985E+03  0.79132143244E+03  0.00000000000E+00 0.  1.
          1    1    3    3  501    0  0.27196389457E+00 -0.16413292927E+00  0.43087701452E-01  0.32056283071E+00  0.00000000000E+00 0.  1.
         -1    1    1    2    0  502  0.81625450192E+01 -0.76778977799E+01 -0.20843122305E+03  0.20873224954E+03  0.00000000000E+00 0. -1.
<mgrwt>
<rscale>  1 0.30000000E+03</rscale>
<asrwt>0</asrwt>
<pdfrwt beam="1">  1       21 0.13608931E-02 0.30000000E+03</pdfrwt>
<pdfrwt beam="2">0</pdfrwt>
<totfact> 0.24709890E+05</totfact>
</mgrwt>
</event>
<event>
 6    1  0.1132867E-002  0.3000000E+03  0.7818608E-02  0.1093470E+00
         21   -1    0    0  501  502  0.00000000000E+00  0.00000000000E+00  0.49276237832E+01  0.49276237832E+01  0.00000000000E+00 0. -1.
         13   -1    0    0    0    0 -0.00000000000E+00 -0.00000000000E+00 -0.10000000000E+04  0.10000000000E+04  0.00000000000E+00 0.  1.
    9000005    2    1    2  501    0 -0.30275511405E+02  0.12404344727E+02 -0.94100378637E+03  0.94173041841E+03  0.17250525683E+02 0.  0.
         13    1    3    3    0    0 -0.25827553465E+02  0.98451075859E+01 -0.55097160278E+03  0.55166447750E+03  0.00000000000E+00 0.  1.
          3    1    3    3  501    0 -0.44479579406E+01  0.25592371411E+01 -0.39003218359E+03  0.39006594091E+03  0.00000000000E+00 0.  1.
         -3    1    1    2    0  502  0.30275511405E+02 -0.12404344727E+02 -0.54068589844E+02  0.63197205371E+02  0.00000000000E+00 0. -1.
<mgrwt>
<rscale>  1 0.30000000E+03</rscale>
<asrwt>0</asrwt>
<pdfrwt beam="1">  1       21 0.17918670E-01 0.30000000E+03</pdfrwt>
<pdfrwt beam="2">0</pdfrwt>
<totfact> 0.29546397E+03</totfact>
</mgrwt>
</event>
<event>
 6    1  0.1132867E-002  0.3000000E+03  0.7818608E-02  0.1093470E+00
         21   -1    0    0  501  502  0.00000000000E+00  0.00000000000E+00  0.21438704351E+00  0.21438704351E+00  0.00000000000E+00 0. -1.
         13   -1    0    0    0    0 -0.00000000000E+00 -0.00000000000E+00 -0.10000000000E+04  0.10000000000E+04  0.00000000000E+00 0.  1.
    9000005    2    1    2  501    0 -0.81012756060E+01 -0.66007229076E+01 -0.76728798731E+03  0.76748203832E+03  0.13734025995E+02 0.  0.
         13    1    3    3    0    0 -0.10189580103E+02 -0.53017858827E+01 -0.73846341957E+03  0.73855274593E+03  0.00000000000E+00 0.  1.
          3    1    3    3  501    0  0.20883044967E+01 -0.12989370249E+01 -0.28824567740E+02  0.28929292394E+02  0.00000000000E+00 0.  1.
         -1    1    1    2    0  502  0.81012756060E+01  0.66007229076E+01 -0.23249762565E+03  0.23273234872E+03  0.00000000000E+00 0. -1.
<mgrwt>
<rscale>  1 0.30000000E+03</rscale>
<asrwt>0</asrwt>
<pdfrwt beam="1">  1       21 0.77959089E-03 0.30000000E+03</pdfrwt>
<pdfrwt beam="2">0</pdfrwt>
<totfact> 0.59894379E+05</totfact>
</mgrwt>
</event>
<event>
 6    1  0.1132867E-002  0.3000000E+03  0.7818608E-02  0.1093470E+00
         21   -1    0    0  501  502  0.00000000000E+00  0.00000000000E+00  0.10020114999E+01  0.10020114999E+01  0.00000000000E+00 0.  1.
         13   -1    0    0    0    0 -0.00000000000E+00 -0.00000000000E+00 -0.10000000000E+04  0.10000000000E+04  0.00000000000E+00 0.  1.
    9000005    2    1    2  501    0  0.16489638867E+02  0.51760567864E+01 -0.90598957433E+03  0.90640145727E+03  0.21161124644E+02 0.  0.
         13    1    3    3    0    0  0.16649044565E+02  0.85146553017E+01 -0.87989553631E+03  0.88009422499E+03  0.00000000000E+00 0.  1.
          1    1    3    3  501    0 -0.15940569760E+00 -0.33385985153E+01 -0.26094038012E+02  0.26307232276E+02  0.00000000000E+00 0.  1.
         -3    1    1    2    0  502 -0.16489638867E+02 -0.51760567864E+01 -0.93008414175E+02  0.94600554233E+02  0.00000000000E+00 0. -1.
<mgrwt>
<rscale>  1 0.30000000E+03</rscale>
<asrwt>0</asrwt>
<pdfrwt beam="1">  1       21 0.36436859E-02 0.30000000E+03</pdfrwt>
<pdfrwt beam="2">0</pdfrwt>
<totfact> 0.49185110E+04</totfact>
</mgrwt>
</event>
<event>
 6    1  0.1132867E-002  0.3000000E+03  0.7818608E-02  0.1093470E+00
         21   -1    0    0  501  502  0.00000000000E+00  0.00000000000E+00  0.25831986687E+00  0.25831986687E+00  0.00000000000E+00 0. -1.
         13   -1    0    0    0    0 -0.00000000000E+00 -0.00000000000E+00 -0.10000000000E+04  0.10000000000E+04  0.00000000000E+00 0.  1.
    9000005    2    1    2  501    0  0.90861499499E+01 -0.60854253559E+01 -0.52352969937E+03  0.52392079128E+03  0.17031115204E+02 0.  0.
         13    1    3    3    0    0  0.12422503400E+02  0.42472412003E+00 -0.27059574817E+03  0.27088107706E+03  0.00000000000E+00 0.  1.
          3    1    3    3  501    0 -0.33363534504E+01 -0.65101494759E+01 -0.25293395120E+03  0.25303971422E+03  0.00000000000E+00 0.  1.
         -3    1    1    2    0  502 -0.90861499499E+01  0.60854253559E+01 -0.47621198076E+03  0.47633752859E+03  0.00000000000E+00 0. -1.
<mgrwt>
<rscale>  1 0.30000000E+03</rscale>
<asrwt>0</asrwt>
<pdfrwt beam="1">  1       21 0.93934695E-03 0.30000000E+03</pdfrwt>
<pdfrwt beam="2">0</pdfrwt>
<totfact> 0.44623433E+05</totfact>
</mgrwt>
</event>
<event>
 6    1  0.1132867E-002  0.3000000E+03  0.7818608E-02  0.1093470E+00
         21   -1    0    0  501  502  0.00000000000E+00  0.00000000000E+00  0.41651777862E+00  0.41651777862E+00  0.00000000000E+00 0. -1.
         13   -1    0    0    0    0 -0.00000000000E+00 -0.00000000000E+00 -0.10000000000E+04  0.10000000000E+04  0.00000000000E+00 0.  1.
    9000005    2    1    2  501    0 -0.13562538934E+02  0.57995136434E+00 -0.84912974871E+03  0.84935161539E+03  0.13876513135E+02 0.  0.
         13    1    3    3    0    0 -0.84474416568E+01 -0.21639000146E+01 -0.19372445974E+03  0.19392062303E+03  0.00000000000E+00 0.  1.
          1    1    3    3  501    0 -0.51150972771E+01  0.27438513789E+01 -0.65540528897E+03  0.65543099236E+03  0.00000000000E+00 0.  1.
         -3    1    1    2    0  502  0.13562538934E+02 -0.57995136434E+00 -0.15045373351E+03  0.15106490239E+03  0.00000000000E+00 0. -1.
<mgrwt>
<rscale>  1 0.30000000E+03</rscale>
<asrwt>0</asrwt>
<pdfrwt beam="1">  1       21 0.15146133E-02 0.30000000E+03</pdfrwt>
<pdfrwt beam="2">0</pdfrwt>
<totfact> 0.20802865E+05</totfact>
</mgrwt>
</event>
<event>
 6    1  0.1132867E-002  0.3000000E+03  0.7818608E-02  0.1093470E+00
         21   -1    0    0  501  502  0.00000000000E+00  0.00000000000E+00  0.14135043178E+00  0.14135043178E+00  0.00000000000E+00 0. -1.
         13   -1    0    0    0    0 -0.00000000000E+00 -0.00000000000E+00 -0.10000000000E+04  0.10000000000E+04  0.00000000000E+00 0.  1.
    9000005    2    1    2  501    0  0.94519970308E+01 -0.59012807207E+01 -0.45632735972E+03  0.45649585159E+03  0.54440730983E+01 0.  0.
         13    1    3    3    0    0  0.56578310444E+01 -0.23826650682E+01 -0.33755938191E+03  0.33761520176E+03  0.00000000000E+00 0.  1.
          3    1    3    3  501    0  0.37941659863E+01 -0.35186156524E+01 -0.11876797781E+03  0.11888064983E+03  0.00000000000E+00 0.  1.
         -1    1    1    2    0  502 -0.94519970308E+01  0.59012807207E+01 -0.54353128985E+03  0.54364549884E+03  0.00000000000E+00 0. -1.
<mgrwt>
<rscale>  1 0.30000000E+03</rscale>
<asrwt>0</asrwt>
<pdfrwt beam="1">  1       21 0.51400265E-03 0.30000000E+03</pdfrwt>
<pdfrwt beam="2">0</pdfrwt>
<totfact> 0.11486974E+06</totfact>
</mgrwt>
</event>
<event>
 6    1  0.1132867E-002  0.3000000E+03  0.7818608E-02  0.1093470E+00
         21   -1    0    0  501  502  0.00000000000E+00  0.00000000000E+00  0.40642581234E+00  0.40642581234E+00  0.00000000000E+00 0. -1.
         13   -1    0    0    0    0 -0.00000000000E+00 -0.00000000000E+00 -0.10000000000E+04  0.10000000000E+04  0.00000000000E+00 0.  1.
    9000005    2    1    2  501    0  0.49387339137E+01 -0.12614197387E+02 -0.77566158557E+03  0.77606506851E+03  0.21037732047E+02 0.  0.
         13    1    3    3    0    0 -0.82304429134E+00  0.45275860875E+01 -0.60455831492E+02  0.60630718280E+02  0.00000000000E+00 0.  1.
          3    1    3    3  501    0  0.57617782050E+01 -0.17141783474E+02 -0.71520575408E+03  0.71543435023E+03  0.00000000000E+00 0.  1.
         -1    1    1    2    0  502 -0.49387339137E+01  0.12614197387E+02 -0.22393198862E+03  0.22434135730E+03  0.00000000000E+00 0. -1.
<mgrwt>
<rscale>  1 0.30000000E+03</rscale>
<asrwt>0</asrwt>
<pdfrwt beam="1">  1       21 0.14779152E-02 0.30000000E+03</pdfrwt>
<pdfrwt beam="2">0</pdfrwt>
<totfact> 0.21641046E+05</totfact>
</mgrwt>
</event>
<event>
 6    1  0.1132867E-002  0.3000000E+03  0.7818608E-02  0.1093470E+00
         21   -1    0    0  501  502  0.00000000000E+00  0.00000000000E+00  0.11336106984E+00  0.11336106984E+00  0.00000000000E+00 0.  1.
         13   -1    0    0    0    0 -0.00000000000E+00 -0.00000000000E+00 -0.10000000000E+04  0.10000000000E+04  0.00000000000E+00 0.  1.
    9000005    2    1    2  501    0 -0.56478161764E+01  0.50374307613E+01 -0.68045113246E+03  0.68058821913E+03  0.11371315649E+02 0.  0.
         13    1    3    3    0    0 -0.33279803959E+01  0.71751277413E+01 -0.62323743975E+03  0.62328762559E+03  0.00000000000E+00 0.  1.
          1    1    3    3  501    0 -0.23198357805E+01 -0.21376969800E+01 -0.57213692708E+02  0.57300593537E+02  0.00000000000E+00 0.  1.
         -3    1    1    2    0  502  0.56478161764E+01 -0.50374307613E+01 -0.31943550647E+03  0.31952514194E+03  0.00000000000E+00 0. -1.
<mgrwt>
<rscale>  1 0.30000000E+03</rscale>
<asrwt>0</asrwt>
<pdfrwt beam="1">  1       21 0.41222294E-03 0.30000000E+03</pdfrwt>
<pdfrwt beam="2">0</pdfrwt>
<totfact> 0.16166640E+06</totfact>
</mgrwt>
</event>
<event>
 6    1  0.1132867E-002  0.3000000E+03  0.7818608E-02  0.1093470E+00
         21   -1    0    0  501  502  0.00000000000E+00  0.00000000000E+00  0.65490598556E+00  0.65490598556E+00  0.00000000000E+00 0. -1.
         13   -1    0    0    0    0 -0.00000000000E+00 -0.00000000000E+00 -0.10000000000E+04  0.10000000000E+04  0.00000000000E+00 0.  1.
    9000005    2    1    2  501    0  0.17354822095E+02 -0.93319823366E+01 -0.81447011302E+03  0.81473278696E+03  0.62986827910E+01 0.  0.
         13    1    3    3    0    0  0.15501573558E+02 -0.10274830161E+02 -0.73988467305E+03  0.74011836913E+03  0.00000000000E+00 0.  1.
          1    1    3    3  501    0  0.18532485363E+01  0.94284782440E+00 -0.74585439968E+02  0.74614417825E+02  0.00000000000E+00 0.  1.
         -1    1    1    2    0  502 -0.17354822095E+02  0.93319823366E+01 -0.18487498100E+03  0.18592211903E+03  0.00000000000E+00 0. -1.
<mgrwt>
<rscale>  1 0.30000000E+03</rscale>
<asrwt>0</asrwt>
<pdfrwt beam="1">  1       21 0.23814813E-02 0.30000000E+03</pdfrwt>
<pdfrwt beam="2">0</pdfrwt>
<totfact> 0.99613142E+04</totfact>
</mgrwt>
</event>
<event>
 6    1  0.1132867E-002  0.3000000E+03  0.7818608E-02  0.1093470E+00
         21   -1    0    0  501  502  0.00000000000E+00  0.00000000000E+00  0.18073729816E+00  0.18073729816E+00  0.00000000000E+00 0. -1.
         13   -1    0    0    0    0 -0.00000000000E+00 -0.00000000000E+00 -0.10000000000E+04  0.10000000000E+04  0.00000000000E+00 0.  1.
    9000005    2    1    2  501    0  0.82899134758E+01  0.41229015268E+01 -0.32770651563E+03  0.32800422345E+03  0.10463710490E+02 0.  0.
         13    1    3    3    0    0  0.10104641656E+01 -0.33561698436E+01 -0.92057685319E+02  0.92124385154E+02  0.00000000000E+00 0.  1.
          1    1    3    3  501    0  0.72794493102E+01  0.74790713704E+01 -0.23564883031E+03  0.23587983830E+03  0.00000000000E+00 0.  1.
         -1    1    1    2    0  502 -0.82899134758E+01 -0.41229015268E+01 -0.67211274708E+03  0.67217651384E+03  0.00000000000E+00 0. -1.
<mgrwt>
<rscale>  1 0.30000000E+03</rscale>
<asrwt>0</asrwt>
<pdfrwt beam="1">  1       21 0.65722792E-03 0.30000000E+03</pdfrwt>
<pdfrwt beam="2">0</pdfrwt>
<totfact> 0.78296958E+05</totfact>
</mgrwt>
</event>
<event>
 6    1  0.1132867E-002  0.3000000E+03  0.7818608E-02  0.1093470E+00
         21   -1    0    0  501  502  0.00000000000E+00  0.00000000000E+00  0.29122354350E+00  0.29122354350E+00  0.00000000000E+00 0. -1.
         13   -1    0    0    0    0 -0.00000000000E+00 -0.00000000000E+00 -0.10000000000E+04  0.10000000000E+04  0.00000000000E+00 0.  1.
    9000005    2    1    2  501    0 -0.15801682773E+02  0.28386781370E+01 -0.52321771199E+03  0.52352976768E+03  0.83001352092E+01 0.  0.
         13    1    3    3    0    0 -0.32516525879E+01  0.47818643630E+00 -0.37366794974E+02  0.37511055350E+02  0.00000000000E+00 0.  1.
          3    1    3    3  501    0 -0.12550030185E+02  0.23604917007E+01 -0.48585091701E+03  0.48601871233E+03  0.00000000000E+00 0.  1.
         -3    1    1    2    0  502  0.15801682773E+02 -0.28386781370E+01 -0.47649106447E+03  0.47676145586E+03  0.00000000000E+00 0. -1.
<mgrwt>
<rscale>  1 0.30000000E+03</rscale>
<asrwt>0</asrwt>
<pdfrwt beam="1">  1       21 0.10589969E-02 0.30000000E+03</pdfrwt>
<pdfrwt beam="2">0</pdfrwt>
<totfact> 0.36889959E+05</totfact>
</mgrwt>
</event>
<event>
 6    1  0.1132867E-002  0.3000000E+03  0.7818608E-02  0.1093470E+00
         21   -1    0    0  501  502  0.00000000000E+00  0.00000000000E+00  0.74443887164E+00  0.74443887164E+00  0.00000000000E+00 0. -1.
         13   -1    0    0    0    0 -0.00000000000E+00 -0.00000000000E+00 -0.10000000000E+04  0.10000000000E+04  0.00000000000E+00 0.  1.
    9000005    2    1    2  501    0 -0.22713098722E+01  0.23089774440E+02 -0.72317677402E+03  0.72369247042E+03  0.14416959702E+02 0.  0.
         13    1    3    3    0    0 -0.13243890221E+01  0.68461028619E+01 -0.43555786945E+03  0.43561368295E+03  0.00000000000E+00 0.  1.
          3    1    3    3  501    0 -0.94692085009E+00  0.16243671578E+02 -0.28761890457E+03  0.28807878748E+03  0.00000000000E+00 0.  1.
         -1    1    1    2    0  502  0.22713098722E+01 -0.23089774440E+02 -0.27607878711E+03  0.27705196845E+03  0.00000000000E+00 0. -1.
<mgrwt>
<rscale>  1 0.30000000E+03</rscale>
<asrwt>0</asrwt>
<pdfrwt beam="1">  1       21 0.27070562E-02 0.30000000E+03</pdfrwt>
<pdfrwt beam="2">0</pdfrwt>
<totfact> 0.80658889E+04</totfact>
</mgrwt>
</event>
<event>
 6    1  0.1132867E-002  0.3000000E+03  0.7818608E-02  0.1093470E+00
         21   -1    0    0  501  502  0.00000000000E+00  0.00000000000E+00  0.29527706916E+00  0.29527706916E+00  0.00000000000E+00 0. -1.
         13   -1    0    0    0    0 -0.00000000000E+00 -0.00000000000E+00 -0.10000000000E+04  0.10000000000E+04  0.00000000000E+00 0.  1.
    9000005    2    1    2  501    0  0.12205058461E+01  0.15093112852E+02 -0.68742936697E+03  0.68765300605E+03  0.88447985393E+01 0.  0.
         13    1    3    3    0    0 -0.11849238390E+01  0.63124797925E+01 -0.45511337384E+03  0.45515869155E+03  0.00000000000E+00 0.  1.
          1    1    3    3  501    0  0.24054296852E+01  0.87806330592E+01 -0.23231599313E+03  0.23249431449E+03  0.00000000000E+00 0.  1.
         -3    1    1    2    0  502 -0.12205058461E+01 -0.15093112852E+02 -0.31227535596E+03  0.31264227102E+03  0.00000000000E+00 0. -1.
<mgrwt>
<rscale>  1 0.30000000E+03</rscale>
<asrwt>0</asrwt>
<pdfrwt beam="1">  1       21 0.10737371E-02 0.30000000E+03</pdfrwt>
<pdfrwt beam="2">0</pdfrwt>
<totfact> 0.36087399E+05</totfact>
</mgrwt>
</event>
<event>
 6    1  0.1132867E-002  0.3000000E+03  0.7818608E-02  0.1093470E+00
         21   -1    0    0  501  502  0.00000000000E+00  0.00000000000E+00  0.10377665625E+00  0.10377665625E+00  0.00000000000E+00 0. -1.
         13   -1    0    0    0    0 -0.00000000000E+00 -0.00000000000E+00 -0.10000000000E+04  0.10000000000E+04  0.00000000000E+00 0.  1.
    9000005    2    1    2  501    0  0.32466315690E+01  0.65022829136E+01 -0.64182877826E+03  0.64196258170E+03  0.10906667404E+02 0.  0.
         13    1    3    3    0    0  0.19203368394E+01  0.16529166121E+01 -0.54307794822E+03  0.54308385878E+03  0.00000000000E+00 0.  1.
          1    1    3    3  501    0  0.13262947296E+01  0.48493663015E+01 -0.98750830045E+02  0.98878722917E+02  0.00000000000E+00 0.  1.
         -1    1    1    2    0  502 -0.32466315690E+01 -0.65022829136E+01 -0.35806744508E+03  0.35814119496E+03  0.00000000000E+00 0. -1.
<mgrwt>
<rscale>  1 0.30000000E+03</rscale>
<asrwt>0</asrwt>
<pdfrwt beam="1">  1       21 0.37737045E-03 0.30000000E+03</pdfrwt>
<pdfrwt beam="2">0</pdfrwt>
<totfact> 0.18526474E+06</totfact>
</mgrwt>
</event>
<event>
 6    1  0.1132867E-002  0.3000000E+03  0.7818608E-02  0.1093470E+00
         21   -1    0    0  501  502  0.00000000000E+00  0.00000000000E+00  0.41700148265E+00  0.41700148265E+00  0.00000000000E+00 0. -1.
         13   -1    0    0    0    0 -0.00000000000E+00 -0.00000000000E+00 -0.10000000000E+04  0.10000000000E+04  0.00000000000E+00 0.  1.
    9000005    2    1    2  501    0  0.44795418427E+01  0.13299534755E+02 -0.86275859057E+03  0.86287478058E+03  0.18861188439E+01 0.  0.
         13    1    3    3    0    0  0.24216454604E+01  0.92081566791E+01 -0.61810804925E+03  0.61818137716E+03  0.00000000000E+00 0.  1.
          1    1    3    3  501    0  0.20578963823E+01  0.40913780758E+01 -0.24465054132E+03  0.24469340343E+03  0.00000000000E+00 0.  1.
         -3    1    1    2    0  502 -0.44795418427E+01 -0.13299534755E+02 -0.13682440795E+03  0.13754222090E+03  0.00000000000E+00 0. -1.
<mgrwt>
<rscale>  1 0.30000000E+03</rscale>
<asrwt>0</asrwt>
<pdfrwt beam="1">  1       21 0.15163722E-02 0.30000000E+03</pdfrwt>
<pdfrwt beam="2">0</pdfrwt>
<totfact> 0.20763998E+05</totfact>
</mgrwt>
</event>
<event>
 6    1  0.1132867E-002  0.3000000E+03  0.7818608E-02  0.1093470E+00
         21   -1    0    0  501  502  0.00000000000E+00  0.00000000000E+00  0.35272897249E+00  0.35272897249E+00  0.00000000000E+00 0. -1.
         13   -1    0    0    0    0 -0.00000000000E+00 -0.00000000000E+00 -0.10000000000E+04  0.10000000000E+04  0.00000000000E+00 0.  1.
    9000005    2    1    2  501    0 -0.98806179112E+01 -0.94931348591E+00 -0.91412311669E+03  0.91425447823E+03  0.11901709266E+02 0.  0.
         13    1    3    3    0    0 -0.33174908995E+01 -0.94405239649E+00 -0.73953609955E+03  0.73954414305E+03  0.00000000000E+00 0.  1.
          3    1    3    3  501    0 -0.65631270117E+01 -0.52610894218E-02 -0.17458701714E+03  0.17471033518E+03  0.00000000000E+00 0.  1.
         -1    1    1    2    0  502  0.98806179112E+01  0.94931348591E+00 -0.85524154337E+02  0.86098250746E+02  0.00000000000E+00 0. -1.
<mgrwt>
<rscale>  1 0.30000000E+03</rscale>
<asrwt>0</asrwt>
<pdfrwt beam="1">  1       21 0.12826535E-02 0.30000000E+03</pdfrwt>
<pdfrwt beam="2">0</pdfrwt>
<totfact> 0.27172173E+05</totfact>
</mgrwt>
</event>
<event>
 6    1  0.1132867E-002  0.3000000E+03  0.7818608E-02  0.1093470E+00
         21   -1    0    0  501  502  0.00000000000E+00  0.00000000000E+00  0.24532627657E+00  0.24532627657E+00  0.00000000000E+00 0. -1.
         13   -1    0    0    0    0 -0.00000000000E+00 -0.00000000000E+00 -0.10000000000E+04  0.10000000000E+04  0.00000000000E+00 0.  1.
    9000005    2    1    2  501    0  0.10320925001E+02 -0.16724757524E+01 -0.86382262800E+03  0.86391176576E+03  0.66848866210E+01 0.  0.
         13    1    3    3    0    0  0.54083584306E+01  0.62242539219E+00 -0.22393363578E+03  0.22399980131E+03  0.00000000000E+00 0.  1.
          3    1    3    3  501    0  0.49125665708E+01 -0.22949011446E+01 -0.63988899222E+03  0.63991196445E+03  0.00000000000E+00 0.  1.
         -3    1    1    2    0  502 -0.10320925001E+02  0.16724757524E+01 -0.13593204572E+03  0.13633356051E+03  0.00000000000E+00 0. -1.
<mgrwt>
<rscale>  1 0.30000000E+03</rscale>
<asrwt>0</asrwt>
<pdfrwt beam="1">  1       21 0.89209743E-03 0.30000000E+03</pdfrwt>
<pdfrwt beam="2">0</pdfrwt>
<totfact> 0.48419216E+05</totfact>
</mgrwt>
</event>
<event>
 6    1  0.1132867E-002  0.3000000E+03  0.7818608E-02  0.1093470E+00
         21   -1    0    0  501  502  0.00000000000E+00  0.00000000000E+00  0.14656499366E+01  0.14656499366E+01  0.00000000000E+00 0. -1.
         13   -1    0    0    0    0 -0.00000000000E+00 -0.00000000000E+00 -0.10000000000E+04  0.10000000000E+04  0.00000000000E+00 0.  1.
    9000005    2    1    2  501    0  0.10493133777E+02 -0.69615971799E+01 -0.97192052371E+03  0.97202307116E+03  0.63856690706E+01 0.  0.
         13    1    3    3    0    0  0.10040175264E+02 -0.80349386483E+01 -0.91723851325E+03  0.91732865188E+03  0.00000000000E+00 0.  1.
          3    1    3    3  501    0  0.45295851304E+00  0.10733414684E+01 -0.54682010458E+02  0.54694419286E+02  0.00000000000E+00 0.  1.
         -1    1    1    2    0  502 -0.10493133777E+02  0.69615971799E+01 -0.26613826352E+02  0.29442578774E+02  0.00000000000E+00 0. -1.
<mgrwt>
<rscale>  1 0.30000000E+03</rscale>
<asrwt>0</asrwt>
<pdfrwt beam="1">  1       21 0.53296474E-02 0.30000000E+03</pdfrwt>
<pdfrwt beam="2">0</pdfrwt>
<totfact> 0.25829214E+04</totfact>
</mgrwt>
</event>
<event>
 6    1  0.1132867E-002  0.3000000E+03  0.7818608E-02  0.1093470E+00
         21   -1    0    0  501  502  0.00000000000E+00  0.00000000000E+00  0.46320372983E+00  0.46320372983E+00  0.00000000000E+00 0. -1.
         13   -1    0    0    0    0 -0.00000000000E+00 -0.00000000000E+00 -0.10000000000E+04  0.10000000000E+04  0.00000000000E+00 0.  1.
    9000005    2    1    2  501    0 -0.37288928169E+01  0.19835391152E+02 -0.66974253134E+03  0.67005193793E+03  0.26821371990E+01 0.  0.
         13    1    3    3    0    0 -0.30099702174E+01  0.10907250790E+02 -0.34252591456E+03  0.34271275171E+03  0.00000000000E+00 0.  1.
          3    1    3    3  501    0 -0.71892259943E+00  0.89281403622E+01 -0.32721661678E+03  0.32733918623E+03  0.00000000000E+00 0.  1.
         -3    1    1    2    0  502  0.37288928169E+01 -0.19835391152E+02 -0.32979426493E+03  0.33041126580E+03  0.00000000000E+00 0. -1.
<mgrwt>
<rscale>  1 0.30000000E+03</rscale>
<asrwt>0</asrwt>
<pdfrwt beam="1">  1       21 0.16843808E-02 0.30000000E+03</pdfrwt>
<pdfrwt beam="2">0</pdfrwt>
<totfact> 0.17522406E+05</totfact>
</mgrwt>
</event>
<event>
 6    1  0.1749121E-002  0.3000000E+03  0.7818608E-02  0.1093470E+00
         21   -1    0    0  501  502  0.00000000000E+00  0.00000000000E+00  0.42433298397E+01  0.42433298397E+01  0.00000000000E+00 0. -1.
         13   -1    0    0    0    0 -0.00000000000E+00 -0.00000000000E+00 -0.10000000000E+04  0.10000000000E+04  0.00000000000E+00 0.  1.
    9000005    2    1    2  501    0  0.24781983796E+02  0.19003610279E+02 -0.91253165198E+03  0.91535189282E+03  0.64651279163E+02 0.  0.
         13    1    3    3    0    0  0.31880487684E+01 -0.15874574573E+02 -0.58998155366E+03  0.59020369317E+03  0.00000000000E+00 0.  1.
          1    1    3    3  501    0  0.21593935028E+02  0.34878184852E+02 -0.32255009832E+03  0.32514819965E+03  0.00000000000E+00 0.  1.
         -3    1    1    2    0  502 -0.24781983796E+02 -0.19003610279E+02 -0.83225018180E+02  0.88891437021E+02  0.00000000000E+00 0. -1.
<mgrwt>
<rscale>  1 0.30000000E+03</rscale>
<asrwt>0</asrwt>
<pdfrwt beam="1">  1       21 0.15430323E-01 0.30000000E+03</pdfrwt>
<pdfrwt beam="2">0</pdfrwt>
<totfact> 0.39076392E+03</totfact>
</mgrwt>
</event>
<event>
 6    1  0.1132867E-002  0.3000000E+03  0.7818608E-02  0.1093470E+00
         21   -1    0    0  501  502  0.00000000000E+00  0.00000000000E+00  0.10257371784E+00  0.10257371784E+00  0.00000000000E+00 0. -1.
         13   -1    0    0    0    0 -0.00000000000E+00 -0.00000000000E+00 -0.10000000000E+04  0.10000000000E+04  0.00000000000E+00 0.  1.
    9000005    2    1    2  501    0  0.80695133579E+01 -0.47776392301E+01 -0.55803586176E+03  0.55814150633E+03  0.54749610412E+01 0.  0.
         13    1    3    3    0    0  0.67197142464E+01 -0.57551073031E+01 -0.40530622817E+03  0.40540278047E+03  0.00000000000E+00 0.  1.
          1    1    3    3  501    0  0.13497991115E+01  0.97746807305E+00 -0.15272963359E+03  0.15273872586E+03  0.00000000000E+00 0.  1.
         -1    1    1    2    0  502 -0.80695133579E+01  0.47776392301E+01 -0.44186156452E+03  0.44196106739E+03  0.00000000000E+00 0. -1.
<mgrwt>
<rscale>  1 0.30000000E+03</rscale>
<asrwt>0</asrwt>
<pdfrwt beam="1">  1       21 0.37299612E-03 0.30000000E+03</pdfrwt>
<pdfrwt beam="2">0</pdfrwt>
<totfact> 0.18862208E+06</totfact>
</mgrwt>
</event>
<event>
 6    1  0.1132867E-002  0.3000000E+03  0.7818608E-02  0.1093470E+00
         21   -1    0    0  501  502  0.00000000000E+00  0.00000000000E+00  0.27837554878E+00  0.27837554878E+00  0.00000000000E+00 0. -1.
         13   -1    0    0    0    0 -0.00000000000E+00 -0.00000000000E+00 -0.10000000000E+04  0.10000000000E+04  0.00000000000E+00 0.  1.
    9000005    2    1    2  501    0 -0.41989038400E+01 -0.11372680818E+02 -0.82864771209E+03  0.82877545384E+03  0.80469547757E+01 0.  0.
         13    1    3    3    0    0 -0.27168566375E+01 -0.11006094340E+02 -0.80431829994E+03  0.80439818688E+03  0.00000000000E+00 0.  1.
          3    1    3    3  501    0 -0.14820472025E+01 -0.36658647808E+00 -0.24329412142E+02  0.24377266966E+02  0.00000000000E+00 0.  1.
         -1    1    1    2    0  502  0.41989038400E+01  0.11372680818E+02 -0.17107391236E+03  0.17150292171E+03  0.00000000000E+00 0. -1.
<mgrwt>
<rscale>  1 0.30000000E+03</rscale>
<asrwt>0</asrwt>
<pdfrwt beam="1">  1       21 0.10122769E-02 0.30000000E+03</pdfrwt>
<pdfrwt beam="2">0</pdfrwt>
<totfact> 0.39633885E+05</totfact>
</mgrwt>
</event>
<event>
 6    1  0.1132867E-002  0.3000000E+03  0.7818608E-02  0.1093470E+00
         21   -1    0    0  501  502  0.00000000000E+00  0.00000000000E+00  0.31492678872E+00  0.31492678872E+00  0.00000000000E+00 0. -1.
         13   -1    0    0    0    0 -0.00000000000E+00 -0.00000000000E+00 -0.10000000000E+04  0.10000000000E+04  0.00000000000E+00 0.  1.
    9000005    2    1    2  501    0  0.11481805458E+02 -0.41401543416E+01 -0.84318369734E+03  0.84333832540E+03  0.10574066899E+02 0.  0.
         13    1    3    3    0    0  0.30036998969E+01 -0.11126422493E+01 -0.49478229438E+02  0.49581804870E+02  0.00000000000E+00 0.  1.
          1    1    3    3  501    0  0.84781055610E+01 -0.30275120923E+01 -0.79370546790E+03  0.79375652053E+03  0.00000000000E+00 0.  1.
         -3    1    1    2    0  502 -0.11481805458E+02  0.41401543416E+01 -0.15650137587E+03  0.15697660139E+03  0.00000000000E+00 0. -1.
<mgrwt>
<rscale>  1 0.30000000E+03</rscale>
<asrwt>0</asrwt>
<pdfrwt beam="1">  1       21 0.11451907E-02 0.30000000E+03</pdfrwt>
<pdfrwt beam="2">0</pdfrwt>
<totfact> 0.32567834E+05</totfact>
</mgrwt>
</event>
<event>
 6    1  0.1132867E-002  0.3000000E+03  0.7818608E-02  0.1093470E+00
         21   -1    0    0  501  502  0.00000000000E+00  0.00000000000E+00  0.15578647073E+00  0.15578647073E+00  0.00000000000E+00 0. -1.
         13   -1    0    0    0    0 -0.00000000000E+00 -0.00000000000E+00 -0.10000000000E+04  0.10000000000E+04  0.00000000000E+00 0.  1.
    9000005    2    1    2  501    0 -0.14566720252E+01  0.91603476526E+01 -0.79662802905E+03  0.79672803149E+03  0.85618707125E+01 0.  0.
         13    1    3    3    0    0  0.15204370044E+01  0.55644976350E+01 -0.20379739154E+03  0.20387901354E+03  0.00000000000E+00 0.  1.
          1    1    3    3  501    0 -0.29771090296E+01  0.35958500176E+01 -0.59283063750E+03  0.59284901795E+03  0.00000000000E+00 0.  1.
         -1    1    1    2    0  502  0.14566720252E+01 -0.91603476526E+01 -0.20321618448E+03  0.20342775499E+03  0.00000000000E+00 0. -1.
<mgrwt>
<rscale>  1 0.30000000E+03</rscale>
<asrwt>0</asrwt>
<pdfrwt beam="1">  1       21 0.56649745E-03 0.30000000E+03</pdfrwt>
<pdfrwt beam="2">0</pdfrwt>
<totfact> 0.98744703E+05</totfact>
</mgrwt>
</event>
<event>
 6    1  0.1132867E-002  0.3000000E+03  0.7818608E-02  0.1093470E+00
         21   -1    0    0  501  502  0.00000000000E+00  0.00000000000E+00  0.83056525143E-01  0.83056525143E-01  0.00000000000E+00 0. -1.
         13   -1    0    0    0    0 -0.00000000000E+00 -0.00000000000E+00 -0.10000000000E+04  0.10000000000E+04  0.00000000000E+00 0.  1.
    9000005    2    1    2  501    0  0.65681497804E+01  0.46774675916E+01 -0.60800967054E+03  0.60809283997E+03  0.60102628662E+01 0.  0.
         13    1    3    3    0    0  0.72367604151E+01  0.42874592647E+01 -0.43432174973E+03  0.43440319439E+03  0.00000000000E+00 0.  1.
          3    1    3    3  501    0 -0.66861063465E+00  0.39000832692E+00 -0.17368792081E+03  0.17368964558E+03  0.00000000000E+00 0.  1.
         -3    1    1    2    0  502 -0.65681497804E+01 -0.46774675916E+01 -0.39190727293E+03  0.39199021655E+03  0.00000000000E+00 0. -1.
<mgrwt>
<rscale>  1 0.30000000E+03</rscale>
<asrwt>0</asrwt>
<pdfrwt beam="1">  1       21 0.30202436E-03 0.30000000E+03</pdfrwt>
<pdfrwt beam="2">0</pdfrwt>
<totfact> 0.26080252E+06</totfact>
</mgrwt>
</event>
<event>
 6    1  0.1132867E-002  0.3000000E+03  0.7818608E-02  0.1093470E+00
         21   -1    0    0  501  502  0.00000000000E+00  0.00000000000E+00  0.14546644199E+00  0.14546644199E+00  0.00000000000E+00 0. -1.
         13   -1    0    0    0    0 -0.00000000000E+00 -0.00000000000E+00 -0.10000000000E+04  0.10000000000E+04  0.00000000000E+00 0.  1.
    9000005    2    1    2  501    0  0.73421398772E+01  0.72879356656E+01 -0.73900025904E+03  0.73908613687E+03  0.44624906026E+01 0.  0.
         13    1    3    3    0    0  0.10429533052E+01  0.35145635953E+01 -0.17740228076E+03  0.17744015647E+03  0.00000000000E+00 0.  1.
          1    1    3    3  501    0  0.62991865720E+01  0.37733720703E+01 -0.56159797828E+03  0.56164598040E+03  0.00000000000E+00 0.  1.
         -1    1    1    2    0  502 -0.73421398772E+01 -0.72879356656E+01 -0.26085427452E+03  0.26105932957E+03  0.00000000000E+00 0. -1.
<mgrwt>
<rscale>  1 0.30000000E+03</rscale>
<asrwt>0</asrwt>
<pdfrwt beam="1">  1       21 0.52897000E-03 0.30000000E+03</pdfrwt>
<pdfrwt beam="2">0</pdfrwt>
<totfact> 0.10985799E+06</totfact>
</mgrwt>
</event>
<event>
 6    1  0.1132867E-002  0.3000000E+03  0.7818608E-02  0.1093470E+00
         21   -1    0    0  501  502  0.00000000000E+00  0.00000000000E+00  0.52983556541E+00  0.52983556541E+00  0.00000000000E+00 0. -1.
         13   -1    0    0    0    0 -0.00000000000E+00 -0.00000000000E+00 -0.10000000000E+04  0.10000000000E+04  0.00000000000E+00 0.  1.
    9000005    2    1    2  501    0 -0.11833642111E+02 -0.58099723050E+00 -0.92711829568E+03  0.92721431500E+03  0.61383315654E+01 0.  0.
         13    1    3    3    0    0 -0.80616391250E+01 -0.10851656862E+00 -0.79625437371E+03  0.79629518990E+03  0.00000000000E+00 0.  1.
          3    1    3    3  501    0 -0.37720029857E+01 -0.47248066188E+00 -0.13086392197E+03  0.13091912510E+03  0.00000000000E+00 0.  1.
         -3    1    1    2    0  502  0.11833642111E+02  0.58099723050E+00 -0.72351868757E+02  0.73315520567E+02  0.00000000000E+00 0. -1.
<mgrwt>
<rscale>  1 0.30000000E+03</rscale>
<asrwt>0</asrwt>
<pdfrwt beam="1">  1       21 0.19266788E-02 0.30000000E+03</pdfrwt>
<pdfrwt beam="2">0</pdfrwt>
<totfact> 0.14087581E+05</totfact>
</mgrwt>
</event>
<event>
 6    1  0.1132867E-002  0.3000000E+03  0.7818608E-02  0.1093470E+00
         21   -1    0    0  501  502  0.00000000000E+00  0.00000000000E+00  0.23014159809E+01  0.23014159809E+01  0.00000000000E+00 0. -1.
         13   -1    0    0    0    0 -0.00000000000E+00 -0.00000000000E+00 -0.10000000000E+04  0.10000000000E+04  0.00000000000E+00 0.  1.
    9000005    2    1    2  501    0 -0.17491542942E+02 -0.35884132631E+02 -0.76440536070E+03  0.76561733731E+03  0.16147033012E+02 0.  0.
         13    1    3    3    0    0  0.20422477820E+01 -0.32888013390E+01 -0.14217395038E+03  0.14222664714E+03  0.00000000000E+00 0.  1.
          1    1    3    3  501    0 -0.19533790724E+02 -0.32595331292E+02 -0.62223141032E+03  0.62339069017E+03  0.00000000000E+00 0.  1.
         -1    1    1    2    0  502  0.17491542942E+02  0.35884132631E+02 -0.23329322332E+03  0.23668407867E+03  0.00000000000E+00 0. -1.
<mgrwt>
<rscale>  1 0.30000000E+03</rscale>
<asrwt>0</asrwt>
<pdfrwt beam="1">  1       21 0.83688030E-02 0.30000000E+03</pdfrwt>
<pdfrwt beam="2">0</pdfrwt>
<totfact> 0.11800369E+04</totfact>
</mgrwt>
</event>
<event>
 6    1  0.1132867E-002  0.3000000E+03  0.7818608E-02  0.1093470E+00
         21   -1    0    0  501  502  0.00000000000E+00  0.00000000000E+00  0.77585623122E-01  0.77585623122E-01  0.00000000000E+00 0. -1.
         13   -1    0    0    0    0 -0.00000000000E+00 -0.00000000000E+00 -0.10000000000E+04  0.10000000000E+04  0.00000000000E+00 0.  1.
    9000005    2    1    2  501    0  0.33708561369E+01  0.76169426707E+01 -0.45980416975E+03  0.45989511768E+03  0.37768063365E+01 0.  0.
         13    1    3    3    0    0  0.28442488014E+01  0.75058640428E+01 -0.45248485643E+03  0.45255604409E+03  0.00000000000E+00 0.  1.
          1    1    3    3  501    0  0.52660733547E+00  0.11107862793E+00 -0.73193133165E+01  0.73390735909E+01  0.00000000000E+00 0.  1.
         -3    1    1    2    0  502 -0.33708561369E+01 -0.76169426707E+01 -0.54011824463E+03  0.54018246794E+03  0.00000000000E+00 0. -1.
<mgrwt>
<rscale>  1 0.30000000E+03</rscale>
<asrwt>0</asrwt>
<pdfrwt beam="1">  1       21 0.28213013E-03 0.30000000E+03</pdfrwt>
<pdfrwt beam="2">0</pdfrwt>
<totfact> 0.28946323E+06</totfact>
</mgrwt>
</event>
<event>
 6    1  0.1132867E-002  0.3000000E+03  0.7818608E-02  0.1093470E+00
         21   -1    0    0  501  502  0.00000000000E+00  0.00000000000E+00  0.44047067063E+00  0.44047067063E+00  0.00000000000E+00 0. -1.
         13   -1    0    0    0    0 -0.00000000000E+00 -0.00000000000E+00 -0.10000000000E+04  0.10000000000E+04  0.00000000000E+00 0.  1.
    9000005    2    1    2  501    0  0.12859896376E+02  0.11005152868E+02 -0.78328688047E+03  0.78350649692E+03  0.75896817003E+01 0.  0.
         13    1    3    3    0    0  0.15844388822E+01  0.40092029204E+01 -0.32182470090E+03  0.32185357271E+03  0.00000000000E+00 0.  1.
          3    1    3    3  501    0  0.11275457494E+02  0.69959499473E+01 -0.46146217957E+03  0.46165292421E+03  0.00000000000E+00 0.  1.
         -3    1    1    2    0  502 -0.12859896376E+02 -0.11005152868E+02 -0.21627264886E+03  0.21693397375E+03  0.00000000000E+00 0. -1.
<mgrwt>
<rscale>  1 0.30000000E+03</rscale>
<asrwt>0</asrwt>
<pdfrwt beam="1">  1       21 0.16017149E-02 0.30000000E+03</pdfrwt>
<pdfrwt beam="2">0</pdfrwt>
<totfact> 0.19008504E+05</totfact>
</mgrwt>
</event>
<event>
 6    1  0.1132867E-002  0.3000000E+03  0.7818608E-02  0.1093470E+00
         21   -1    0    0  501  502  0.00000000000E+00  0.00000000000E+00  0.58598270945E+00  0.58598270945E+00  0.00000000000E+00 0. -1.
         13   -1    0    0    0    0 -0.00000000000E+00 -0.00000000000E+00 -0.10000000000E+04  0.10000000000E+04  0.00000000000E+00 0.  1.
    9000005    2    1    2  501    0  0.10816283988E+02 -0.90995821273E+01 -0.90427368989E+03  0.90440138783E+03  0.55829819602E+01 0.  0.
         13    1    3    3    0    0  0.62354597197E+01 -0.56678114461E+01 -0.36466979699E+03  0.36476713926E+03  0.00000000000E+00 0.  1.
          3    1    3    3  501    0  0.45808242688E+01 -0.34317706812E+01 -0.53960389290E+03  0.53963424858E+03  0.00000000000E+00 0.  1.
         -1    1    1    2    0  502 -0.10816283988E+02  0.90995821273E+01 -0.95140327398E+02  0.96184594877E+02  0.00000000000E+00 0. -1.
<mgrwt>
<rscale>  1 0.30000000E+03</rscale>
<asrwt>0</asrwt>
<pdfrwt beam="1">  1       21 0.21308507E-02 0.30000000E+03</pdfrwt>
<pdfrwt beam="2">0</pdfrwt>
<totfact> 0.11953084E+05</totfact>
</mgrwt>
</event>
<event>
 6    1  0.1132867E-002  0.3000000E+03  0.7818608E-02  0.1093470E+00
         21   -1    0    0  501  502  0.00000000000E+00  0.00000000000E+00  0.83939059160E-01  0.83939059160E-01  0.00000000000E+00 0. -1.
         13   -1    0    0    0    0 -0.00000000000E+00 -0.00000000000E+00 -0.10000000000E+04  0.10000000000E+04  0.00000000000E+00 0.  1.
    9000005    2    1    2  501    0 -0.17029092310E+01  0.80474338660E+01 -0.53569557371E+03  0.53579058151E+03  0.58428126457E+01 0.  0.
         13    1    3    3    0    0 -0.24495981669E+00  0.80488451523E+01 -0.36516885652E+03  0.36525763193E+03  0.00000000000E+00 0.  1.
          3    1    3    3  501    0 -0.14579494143E+01 -0.14112863374E-02 -0.17052671719E+03  0.17053294958E+03  0.00000000000E+00 0.  1.
         -1    1    1    2    0  502  0.17029092310E+01 -0.80474338660E+01 -0.46422048724E+03  0.46429335755E+03  0.00000000000E+00 0. -1.
<mgrwt>
<rscale>  1 0.30000000E+03</rscale>
<asrwt>0</asrwt>
<pdfrwt beam="1">  1       21 0.30523359E-03 0.30000000E+03</pdfrwt>
<pdfrwt beam="2">0</pdfrwt>
<totfact> 0.25661346E+06</totfact>
</mgrwt>
</event>
<event>
 6    1  0.1132867E-002  0.3000000E+03  0.7818608E-02  0.1093470E+00
         21   -1    0    0  501  502  0.00000000000E+00  0.00000000000E+00  0.40306813165E+00  0.40306813165E+00  0.00000000000E+00 0. -1.
         13   -1    0    0    0    0 -0.00000000000E+00 -0.00000000000E+00 -0.10000000000E+04  0.10000000000E+04  0.00000000000E+00 0.  1.
    9000005    2    1    2  501    0  0.11132437961E+02  0.11951663401E+02 -0.51762167490E+03  0.51815114044E+03  0.16781912274E+02 0.  0.
         13    1    3    3    0    0 -0.30121945675E+01  0.59086174164E+00 -0.19194441517E+03  0.19196895829E+03  0.00000000000E+00 0.  1.
          3    1    3    3  501    0  0.14144632528E+02  0.11360801659E+02 -0.32567725973E+03  0.32618218214E+03  0.00000000000E+00 0.  1.
         -3    1    1    2    0  502 -0.11132437961E+02 -0.11951663401E+02 -0.48197525697E+03  0.48225192769E+03  0.00000000000E+00 0. -1.
<mgrwt>
<rscale>  1 0.30000000E+03</rscale>
<asrwt>0</asrwt>
<pdfrwt beam="1">  1       21 0.14657054E-02 0.30000000E+03</pdfrwt>
<pdfrwt beam="2">0</pdfrwt>
<totfact> 0.21931932E+05</totfact>
</mgrwt>
</event>
<event>
 6    1  0.1132867E-002  0.3000000E+03  0.7818608E-02  0.1093470E+00
         21   -1    0    0  501  502  0.00000000000E+00  0.00000000000E+00  0.57037645305E+00  0.57037645305E+00  0.00000000000E+00 0. -1.
         13   -1    0    0    0    0 -0.00000000000E+00 -0.00000000000E+00 -0.10000000000E+04  0.10000000000E+04  0.00000000000E+00 0.  1.
    9000005    2    1    2  501    0 -0.73701529024E+01  0.67763250372E+01 -0.87185795100E+03  0.87260643867E+03  0.34719913065E+02 0.  0.
         13    1    3    3    0    0  0.10162741701E+02  0.35035273848E+01 -0.10659331093E+03  0.10713398134E+03  0.00000000000E+00 0.  1.
          1    1    3    3  501    0 -0.17532894603E+02  0.32727976524E+01 -0.76526464007E+03  0.76547245733E+03  0.00000000000E+00 0.  1.
         -1    1    1    2    0  502  0.73701529024E+01 -0.67763250372E+01 -0.12757167255E+03  0.12796393778E+03  0.00000000000E+00 0. -1.
<mgrwt>
<rscale>  1 0.30000000E+03</rscale>
<asrwt>0</asrwt>
<pdfrwt beam="1">  1       21 0.20741006E-02 0.30000000E+03</pdfrwt>
<pdfrwt beam="2">0</pdfrwt>
<totfact> 0.12492263E+05</totfact>
</mgrwt>
</event>
<event>
 6    1  0.1132867E-002  0.3000000E+03  0.7818608E-02  0.1093470E+00
         21   -1    0    0  501  502  0.00000000000E+00  0.00000000000E+00  0.48740139314E+00  0.48740139314E+00  0.00000000000E+00 0. -1.
         13   -1    0    0    0    0 -0.00000000000E+00 -0.00000000000E+00 -0.10000000000E+04  0.10000000000E+04  0.00000000000E+00 0.  1.
    9000005    2    1    2  501    0 -0.14976271787E+02  0.42438687815E+01 -0.85062845823E+03  0.85079175551E+03  0.59613894489E+01 0.  0.
         13    1    3    3    0    0 -0.18364011481E+01  0.13333248290E+00 -0.24459257866E+03  0.24459950876E+03  0.00000000000E+00 0.  1.
          3    1    3    3  501    0 -0.13139870639E+02  0.41105362986E+01 -0.60603587956E+03  0.60619224676E+03  0.00000000000E+00 0.  1.
         -3    1    1    2    0  502  0.14976271787E+02 -0.42438687815E+01 -0.14888414038E+03  0.14969564588E+03  0.00000000000E+00 0. -1.
<mgrwt>
<rscale>  1 0.30000000E+03</rscale>
<asrwt>0</asrwt>
<pdfrwt beam="1">  1       21 0.17723724E-02 0.30000000E+03</pdfrwt>
<pdfrwt beam="2">0</pdfrwt>
<totfact> 0.16133866E+05</totfact>
</mgrwt>
</event>
<event>
 6    1  0.1132867E-002  0.3000000E+03  0.7818608E-02  0.1093470E+00
         21   -1    0    0  501  502  0.00000000000E+00  0.00000000000E+00  0.12035979049E+00  0.12035979049E+00  0.00000000000E+00 0. -1.
         13   -1    0    0    0    0 -0.00000000000E+00 -0.00000000000E+00 -0.10000000000E+04  0.10000000000E+04  0.00000000000E+00 0.  1.
    9000005    2    1    2  501    0  0.79886387010E+01  0.31143208689E+01 -0.74031553881E+03  0.74041468007E+03  0.85606144422E+01 0.  0.
         13    1    3    3    0    0 -0.31650644111E+00  0.27750269944E+01 -0.34741719295E+03  0.34742841984E+03  0.00000000000E+00 0.  1.
          3    1    3    3  501    0  0.83051451421E+01  0.33929387449E+00 -0.39289834585E+03  0.39298626023E+03  0.00000000000E+00 0.  1.
         -1    1    1    2    0  502 -0.79886387010E+01 -0.31143208689E+01 -0.25956410140E+03  0.25970567972E+03  0.00000000000E+00 0. -1.
<mgrwt>
<rscale>  1 0.30000000E+03</rscale>
<asrwt>0</asrwt>
<pdfrwt beam="1">  1       21 0.43767289E-03 0.30000000E+03</pdfrwt>
<pdfrwt beam="2">0</pdfrwt>
<totfact> 0.14737729E+06</totfact>
</mgrwt>
</event>
<event>
 6    1  0.1132867E-002  0.3000000E+03  0.7818608E-02  0.1093470E+00
         21   -1    0    0  501  502  0.00000000000E+00  0.00000000000E+00  0.20776445791E+00  0.20776445791E+00  0.00000000000E+00 0. -1.
         13   -1    0    0    0    0 -0.00000000000E+00 -0.00000000000E+00 -0.10000000000E+04  0.10000000000E+04  0.00000000000E+00 0.  1.
    9000005    2    1    2  501    0 -0.88573679485E+01 -0.34230595002E+01 -0.84347659725E+03  0.84360396795E+03  0.11167557649E+02 0.  0.
         13    1    3    3    0    0 -0.73023319171E+01 -0.47272200220E+00 -0.78386221202E+03  0.78389636748E+03  0.00000000000E+00 0.  1.
          1    1    3    3  501    0 -0.15550360314E+01 -0.29503374980E+01 -0.59614385228E+02  0.59707600476E+02  0.00000000000E+00 0.  1.
         -3    1    1    2    0  502  0.88573679485E+01  0.34230595002E+01 -0.15631563830E+03  0.15660379650E+03  0.00000000000E+00 0. -1.
<mgrwt>
<rscale>  1 0.30000000E+03</rscale>
<asrwt>0</asrwt>
<pdfrwt beam="1">  1       21 0.75550871E-03 0.30000000E+03</pdfrwt>
<pdfrwt beam="2">0</pdfrwt>
<totfact> 0.62924956E+05</totfact>
</mgrwt>
</event>
<event>
 6    1  0.1132867E-002  0.3000000E+03  0.7818608E-02  0.1093470E+00
         21   -1    0    0  501  502  0.00000000000E+00  0.00000000000E+00  0.24966967807E+00  0.24966967807E+00  0.00000000000E+00 0. -1.
         13   -1    0    0    0    0 -0.00000000000E+00 -0.00000000000E+00 -0.10000000000E+04  0.10000000000E+04  0.00000000000E+00 0.  1.
    9000005    2    1    2  501    0  0.48827209301E+01 -0.65127041215E+01 -0.81350868600E+03  0.81383023303E+03  0.21377785793E+02 0.  0.
         13    1    3    3    0    0  0.40327574794E+01 -0.14360722612E+02 -0.50212077324E+03  0.50234227814E+03  0.00000000000E+00 0.  1.
          1    1    3    3  501    0  0.84996345064E+00  0.78480184905E+01 -0.31138791276E+03  0.31148795490E+03  0.00000000000E+00 0.  1.
         -3    1    1    2    0  502 -0.48827209301E+01  0.65127041215E+01 -0.18624164432E+03  0.18641943664E+03  0.00000000000E+00 0. -1.
<mgrwt>
<rscale>  1 0.30000000E+03</rscale>
<asrwt>0</asrwt>
<pdfrwt beam="1">  1       21 0.90789165E-03 0.30000000E+03</pdfrwt>
<pdfrwt beam="2">0</pdfrwt>
<totfact> 0.47094302E+05</totfact>
</mgrwt>
</event>
<event>
 6    1  0.1132867E-002  0.3000000E+03  0.7818608E-02  0.1093470E+00
         21   -1    0    0  501  502  0.00000000000E+00  0.00000000000E+00  0.30838779101E+00  0.30838779101E+00  0.00000000000E+00 0. -1.
         13   -1    0    0    0    0 -0.00000000000E+00 -0.00000000000E+00 -0.10000000000E+04  0.10000000000E+04  0.00000000000E+00 0.  1.
    9000005    2    1    2  501    0 -0.15448301790E+02  0.55695792592E+01 -0.50356858677E+03  0.50391365916E+03  0.88308587242E+01 0.  0.
         13    1    3    3    0    0 -0.58712619807E+01  0.41017664968E+01 -0.11409387782E+03  0.11431845503E+03  0.00000000000E+00 0.  1.
          3    1    3    3  501    0 -0.95770398089E+01  0.14678127624E+01 -0.38947470895E+03  0.38959520412E+03  0.00000000000E+00 0.  1.
         -3    1    1    2    0  502  0.15448301790E+02 -0.55695792592E+01 -0.49612302544E+03  0.49639472863E+03  0.00000000000E+00 0. -1.
<mgrwt>
<rscale>  1 0.30000000E+03</rscale>
<asrwt>0</asrwt>
<pdfrwt beam="1">  1       21 0.11214125E-02 0.30000000E+03</pdfrwt>
<pdfrwt beam="2">0</pdfrwt>
<totfact> 0.33675350E+05</totfact>
</mgrwt>
</event>
<event>
 6    1  0.1132867E-002  0.3000000E+03  0.7818608E-02  0.1093470E+00
         21   -1    0    0  501  502  0.00000000000E+00  0.00000000000E+00  0.14520130271E+00  0.14520130271E+00  0.00000000000E+00 0. -1.
         13   -1    0    0    0    0 -0.00000000000E+00 -0.00000000000E+00 -0.10000000000E+04  0.10000000000E+04  0.00000000000E+00 0.  1.
    9000005    2    1    2  501    0 -0.10632796913E+01 -0.11173154695E+02 -0.58525864418E+03  0.58539715575E+03  0.60149333212E+01 0.  0.
         13    1    3    3    0    0 -0.31561761368E+01 -0.74670518981E+01 -0.44538278216E+03  0.44545655339E+03  0.00000000000E+00 0.  1.
          3    1    3    3  501    0  0.20928964455E+01 -0.37061027968E+01 -0.13987586202E+03  0.13994060236E+03  0.00000000000E+00 0.  1.
         -3    1    1    2    0  502  0.10632796913E+01  0.11173154695E+02 -0.41459615451E+03  0.41474804555E+03  0.00000000000E+00 0. -1.
<mgrwt>
<rscale>  1 0.30000000E+03</rscale>
<asrwt>0</asrwt>
<pdfrwt beam="1">  1       21 0.52800585E-03 0.30000000E+03</pdfrwt>
<pdfrwt beam="2">0</pdfrwt>
<totfact> 0.11017001E+06</totfact>
</mgrwt>
</event>
<event>
 6    1  0.1132867E-002  0.3000000E+03  0.7818608E-02  0.1093470E+00
         21   -1    0    0  501  502  0.00000000000E+00  0.00000000000E+00  0.25674661225E+00  0.25674661225E+00  0.00000000000E+00 0. -1.
         13   -1    0    0    0    0 -0.00000000000E+00 -0.00000000000E+00 -0.10000000000E+04  0.10000000000E+04  0.00000000000E+00 0.  1.
    9000005    2    1    2  501    0 -0.96626186854E+01  0.15126105423E+00 -0.89028968434E+03  0.89037739069E+03  0.79238082199E+01 0.  0.
         13    1    3    3    0    0 -0.60391377766E+01 -0.37914181316E+01 -0.48939912590E+03  0.48945107055E+03  0.00000000000E+00 0.  1.
          1    1    3    3  501    0 -0.36234809088E+01  0.39426791859E+01 -0.40089055844E+03  0.40092632014E+03  0.00000000000E+00 0.  1.
         -3    1    1    2    0  502  0.96626186854E+01 -0.15126105423E+00 -0.10945356905E+03  0.10987935592E+03  0.00000000000E+00 0. -1.
<mgrwt>
<rscale>  1 0.30000000E+03</rscale>
<asrwt>0</asrwt>
<pdfrwt beam="1">  1       21 0.93362601E-03 0.30000000E+03</pdfrwt>
<pdfrwt beam="2">0</pdfrwt>
<totfact> 0.45057083E+05</totfact>
</mgrwt>
</event>
<event>
 6    1  0.1132867E-002  0.3000000E+03  0.7818608E-02  0.1093470E+00
         21   -1    0    0  501  502  0.00000000000E+00  0.00000000000E+00  0.23485090543E+01  0.23485090543E+01  0.00000000000E+00 0. -1.
         13   -1    0    0    0    0 -0.00000000000E+00 -0.00000000000E+00 -0.10000000000E+04  0.10000000000E+04  0.00000000000E+00 0.  1.
    9000005    2    1    2  501    0 -0.40276197786E+02 -0.12095077861E+02 -0.30092022615E+03  0.30434928387E+03  0.17522587374E+02 0.  0.
         13    1    3    3    0    0 -0.28740946456E+02  0.10142721657E+00 -0.19516805483E+03  0.19727296296E+03  0.00000000000E+00 0.  1.
          3    1    3    3  501    0 -0.11535251330E+02 -0.12196505078E+02 -0.10575217132E+03  0.10707632090E+03  0.00000000000E+00 0.  1.
         -3    1    1    2    0  502  0.40276197786E+02  0.12095077861E+02 -0.69673126480E+03  0.69799922519E+03  0.00000000000E+00 0. -1.
<mgrwt>
<rscale>  1 0.30000000E+03</rscale>
<asrwt>0</asrwt>
<pdfrwt beam="1">  1       21 0.85400509E-02 0.30000000E+03</pdfrwt>
<pdfrwt beam="2">0</pdfrwt>
<totfact> 0.11386467E+04</totfact>
</mgrwt>
</event>
<event>
 6    1  0.1132867E-002  0.3000000E+03  0.7818608E-02  0.1093470E+00
         21   -1    0    0  501  502  0.00000000000E+00  0.00000000000E+00  0.38971875686E+00  0.38971875686E+00  0.00000000000E+00 0. -1.
         13   -1    0    0    0    0 -0.00000000000E+00 -0.00000000000E+00 -0.10000000000E+04  0.10000000000E+04  0.00000000000E+00 0.  1.
    9000005    2    1    2  501    0 -0.67729605511E+01 -0.84874299178E+01 -0.89911648604E+03  0.89931097551E+03  0.15227138592E+02 0.  0.
         13    1    3    3    0    0 -0.38041820020E+01  0.30877425589E+01 -0.11613722179E+03  0.11624052753E+03  0.00000000000E+00 0.  1.
          3    1    3    3  501    0 -0.29687785491E+01 -0.11575172477E+02 -0.78297926425E+03  0.78307044798E+03  0.00000000000E+00 0.  1.
         -1    1    1    2    0  502  0.67729605511E+01  0.84874299178E+01 -0.10049379520E+03  0.10107874324E+03  0.00000000000E+00 0. -1.
<mgrwt>
<rscale>  1 0.30000000E+03</rscale>
<asrwt>0</asrwt>
<pdfrwt beam="1">  1       21 0.14171621E-02 0.30000000E+03</pdfrwt>
<pdfrwt beam="2">0</pdfrwt>
<totfact> 0.23152731E+05</totfact>
</mgrwt>
</event>
<event>
 6    1  0.1132867E-002  0.3000000E+03  0.7818608E-02  0.1093470E+00
         21   -1    0    0  501  502  0.00000000000E+00  0.00000000000E+00  0.37176913830E+00  0.37176913830E+00  0.00000000000E+00 0. -1.
         13   -1    0    0    0    0 -0.00000000000E+00 -0.00000000000E+00 -0.10000000000E+04  0.10000000000E+04  0.00000000000E+00 0.  1.
    9000005    2    1    2  501    0 -0.66068228745E+01  0.11528095766E+02 -0.71980811610E+03  0.72023636665E+03  0.20979817570E+02 0.  0.
         13    1    3    3    0    0 -0.81435953630E+01  0.74581326791E+01 -0.69215920722E+03  0.69224728965E+03  0.00000000000E+00 0.  1.
          3    1    3    3  501    0  0.15367724885E+01  0.40699630866E+01 -0.27648908882E+02  0.27989077004E+02  0.00000000000E+00 0.  1.
         -1    1    1    2    0  502  0.66068228745E+01 -0.11528095766E+02 -0.27982011476E+03  0.28013540249E+03  0.00000000000E+00 0. -1.
<mgrwt>
<rscale>  1 0.30000000E+03</rscale>
<asrwt>0</asrwt>
<pdfrwt beam="1">  1       21 0.13518906E-02 0.30000000E+03</pdfrwt>
<pdfrwt beam="2">0</pdfrwt>
<totfact> 0.24974622E+05</totfact>
</mgrwt>
</event>
<event>
 6    1  0.1132867E-002  0.3000000E+03  0.7818608E-02  0.1093470E+00
         21   -1    0    0  501  502  0.00000000000E+00  0.00000000000E+00  0.10229063982E+00  0.10229063982E+00  0.00000000000E+00 0. -1.
         13   -1    0    0    0    0 -0.00000000000E+00 -0.00000000000E+00 -0.10000000000E+04  0.10000000000E+04  0.00000000000E+00 0.  1.
    9000005    2    1    2  501    0  0.89844546927E+01  0.74075897418E+00 -0.71650973267E+03  0.71657096171E+03  0.25449971845E+01 0.  0.
         13    1    3    3    0    0  0.42269906177E+01  0.14149512403E+01 -0.29171492959E+03  0.29174898403E+03  0.00000000000E+00 0.  1.
          3    1    3    3  501    0  0.47574640750E+01 -0.67419226609E+00 -0.42479480307E+03  0.42482197768E+03  0.00000000000E+00 0.  1.
         -3    1    1    2    0  502 -0.89844546927E+01 -0.74075897418E+00 -0.28338797669E+03  0.28353132893E+03  0.00000000000E+00 0. -1.
<mgrwt>
<rscale>  1 0.30000000E+03</rscale>
<asrwt>0</asrwt>
<pdfrwt beam="1">  1       21 0.37196675E-03 0.30000000E+03</pdfrwt>
<pdfrwt beam="2">0</pdfrwt>
<totfact> 0.18942651E+06</totfact>
</mgrwt>
</event>
<event>
 6    1  0.1132867E-002  0.3000000E+03  0.7818608E-02  0.1093470E+00
         21   -1    0    0  501  502  0.00000000000E+00  0.00000000000E+00  0.29633326395E+00  0.29633326395E+00  0.00000000000E+00 0. -1.
         13   -1    0    0    0    0 -0.00000000000E+00 -0.00000000000E+00 -0.10000000000E+04  0.10000000000E+04  0.00000000000E+00 0.  1.
    9000005    2    1    2  501    0  0.30918830817E+00  0.10300157586E+02 -0.11890258912E+03  0.11943497801E+03  0.45496626239E+01 0.  0.
         13    1    3    3    0    0  0.74135572303E+00  0.20961734552E+00 -0.20712983651E+02  0.20727306614E+02  0.00000000000E+00 0.  1.
          1    1    3    3  501    0 -0.43216741486E+00  0.10090540240E+02 -0.98189605466E+02  0.98707671397E+02  0.00000000000E+00 0.  1.
         -1    1    1    2    0  502 -0.30918830817E+00 -0.10300157586E+02 -0.88080107762E+03  0.88086135525E+03  0.00000000000E+00 0. -1.
<mgrwt>
<rscale>  1 0.30000000E+03</rscale>
<asrwt>0</asrwt>
<pdfrwt beam="1">  1       21 0.10775778E-02 0.30000000E+03</pdfrwt>
<pdfrwt beam="2">0</pdfrwt>
<totfact> 0.35882904E+05</totfact>
</mgrwt>
</event>
<event>
 6    1  0.1132867E-002  0.3000000E+03  0.7818608E-02  0.1093470E+00
         21   -1    0    0  501  502  0.00000000000E+00  0.00000000000E+00  0.33185015689E+00  0.33185015689E+00  0.00000000000E+00 0. -1.
         13   -1    0    0    0    0 -0.00000000000E+00 -0.00000000000E+00 -0.10000000000E+04  0.10000000000E+04  0.00000000000E+00 0.  1.
    9000005    2    1    2  501    0  0.14800477606E+02  0.96007770257E+01 -0.59897659273E+03  0.59925211619E+03  0.43486852505E+01 0.  0.
         13    1    3    3    0    0  0.81741295063E+01  0.44527004642E+01 -0.24656239948E+03  0.24673803877E+03  0.00000000000E+00 0.  1.
          3    1    3    3  501    0  0.66263481000E+01  0.51480765615E+01 -0.35241419324E+03  0.35251407742E+03  0.00000000000E+00 0.  1.
         -3    1    1    2    0  502 -0.14800477606E+02 -0.96007770257E+01 -0.40069155712E+03  0.40107973397E+03  0.00000000000E+00 0. -1.
<mgrwt>
<rscale>  1 0.30000000E+03</rscale>
<asrwt>0</asrwt>
<pdfrwt beam="1">  1       21 0.12067304E-02 0.30000000E+03</pdfrwt>
<pdfrwt beam="2">0</pdfrwt>
<totfact> 0.29957995E+05</totfact>
</mgrwt>
</event>
<event>
 6    1  0.1132867E-002  0.3000000E+03  0.7818608E-02  0.1093470E+00
         21   -1    0    0  501  502  0.00000000000E+00  0.00000000000E+00  0.12760925200E+00  0.12760925200E+00  0.00000000000E+00 0. -1.
         13   -1    0    0    0    0 -0.00000000000E+00 -0.00000000000E+00 -0.10000000000E+04  0.10000000000E+04  0.00000000000E+00 0.  1.
    9000005    2    1    2  501    0  0.48433804824E+01 -0.63558177528E+01 -0.69787278672E+03  0.69802230379E+03  0.12035588620E+02 0.  0.
         13    1    3    3    0    0  0.14515727999E+01  0.28116614492E+01 -0.34396492460E+03  0.34397947883E+03  0.00000000000E+00 0.  1.
          1    1    3    3  501    0  0.33918076825E+01 -0.91674792020E+01 -0.35390786212E+03  0.35404282496E+03  0.00000000000E+00 0.  1.
         -3    1    1    2    0  502 -0.48433804824E+01  0.63558177528E+01 -0.30199960403E+03  0.30210530546E+03  0.00000000000E+00 0. -1.
<mgrwt>
<rscale>  1 0.30000000E+03</rscale>
<asrwt>0</asrwt>
<pdfrwt beam="1">  1       21 0.46403462E-03 0.30000000E+03</pdfrwt>
<pdfrwt beam="2">0</pdfrwt>
<totfact> 0.13462558E+06</totfact>
</mgrwt>
</event>
<event>
 6    1  0.1132867E-002  0.3000000E+03  0.7818608E-02  0.1093470E+00
         21   -1    0    0  501  502  0.00000000000E+00  0.00000000000E+00  0.22677993468E+00  0.22677993468E+00  0.00000000000E+00 0. -1.
         13   -1    0    0    0    0 -0.00000000000E+00 -0.00000000000E+00 -0.10000000000E+04  0.10000000000E+04  0.00000000000E+00 0.  1.
    9000005    2    1    2  501    0  0.56722646239E+01 -0.95598000759E+01 -0.81693783580E+03  0.81705379584E+03  0.81187048322E+01 0.  0.
         13    1    3    3    0    0  0.33814131453E+01  0.50978150500E+00 -0.22213461614E+03  0.22216093608E+03  0.00000000000E+00 0.  1.
          1    1    3    3  501    0  0.22908514786E+01 -0.10069581581E+02 -0.59480321966E+03  0.59489285976E+03  0.00000000000E+00 0.  1.
         -1    1    1    2    0  502 -0.56722646239E+01  0.95598000759E+01 -0.18283538427E+03  0.18317298410E+03  0.00000000000E+00 0. -1.
<mgrwt>
<rscale>  1 0.30000000E+03</rscale>
<asrwt>0</asrwt>
<pdfrwt beam="1">  1       21 0.82465605E-03 0.30000000E+03</pdfrwt>
<pdfrwt beam="2">0</pdfrwt>
<totfact> 0.54817453E+05</totfact>
</mgrwt>
</event>
<event>
 6    1  0.1132867E-002  0.3000000E+03  0.7818608E-02  0.1093470E+00
         21   -1    0    0  501  502  0.00000000000E+00  0.00000000000E+00  0.63563329139E+00  0.63563329139E+00  0.00000000000E+00 0. -1.
         13   -1    0    0    0    0 -0.00000000000E+00 -0.00000000000E+00 -0.10000000000E+04  0.10000000000E+04  0.00000000000E+00 0.  1.
    9000005    2    1    2  501    0 -0.10907327044E+02  0.13029183606E+02 -0.86499461725E+03  0.86519576111E+03  0.76998539854E+01 0.  0.
         13    1    3    3    0    0 -0.71168302461E+01  0.30037294646E+01 -0.29964368981E+03  0.29974324431E+03  0.00000000000E+00 0.  1.
          1    1    3    3  501    0 -0.37904967982E+01  0.10025454141E+02 -0.56535092744E+03  0.56545251680E+03  0.00000000000E+00 0.  1.
         -3    1    1    2    0  502  0.10907327044E+02 -0.13029183606E+02 -0.13436974946E+03  0.13543987219E+03  0.00000000000E+00 0. -1.
<mgrwt>
<rscale>  1 0.30000000E+03</rscale>
<asrwt>0</asrwt>
<pdfrwt beam="1">  1       21 0.23113987E-02 0.30000000E+03</pdfrwt>
<pdfrwt beam="2">0</pdfrwt>
<totfact> 0.10461833E+05</totfact>
</mgrwt>
</event>
<event>
 6    1  0.1132867E-002  0.3000000E+03  0.7818608E-02  0.1093470E+00
         21   -1    0    0  501  502  0.00000000000E+00  0.00000000000E+00  0.24301159070E+01  0.24301159070E+01  0.00000000000E+00 0. -1.
         13   -1    0    0    0    0 -0.00000000000E+00 -0.00000000000E+00 -0.10000000000E+04  0.10000000000E+04  0.00000000000E+00 0.  1.
    9000005    2    1    2  501    0 -0.14476710672E+02 -0.14529051440E+02 -0.94375900216E+03  0.94484296889E+03  0.40330053393E+02 0.  0.
         13    1    3    3    0    0 -0.19442559793E+02 -0.60576103568E+01 -0.88748735190E+03  0.88772096267E+03  0.00000000000E+00 0.  1.
          1    1    3    3  501    0  0.49658491213E+01 -0.84714410837E+01 -0.56271650259E+02  0.57122006218E+02  0.00000000000E+00 0.  1.
         -3    1    1    2    0  502  0.14476710672E+02  0.14529051440E+02 -0.53810881930E+02  0.57587147019E+02  0.00000000000E+00 0. -1.
<mgrwt>
<rscale>  1 0.30000000E+03</rscale>
<asrwt>0</asrwt>
<pdfrwt beam="1">  1       21 0.88368038E-02 0.30000000E+03</pdfrwt>
<pdfrwt beam="2">0</pdfrwt>
<totfact> 0.10719779E+04</totfact>
</mgrwt>
</event>
<event>
 6    1  0.1132867E-002  0.3000000E+03  0.7818608E-02  0.1093470E+00
         21   -1    0    0  501  502  0.00000000000E+00  0.00000000000E+00  0.34093149796E+01  0.34093149796E+01  0.00000000000E+00 0. -1.
         13   -1    0    0    0    0 -0.00000000000E+00 -0.00000000000E+00 -0.10000000000E+04  0.10000000000E+04  0.00000000000E+00 0.  1.
    9000005    2    1    2  501    0  0.14611580465E+02 -0.54674793347E+01 -0.98171008862E+03  0.98184954311E+03  0.55168456192E+01 0.  0.
         13    1    3    3    0    0  0.94435331268E+01 -0.56114036907E+01 -0.55970266294E+03  0.55981044924E+03  0.00000000000E+00 0.  1.
          1    1    3    3  501    0  0.51680473379E+01  0.14392435601E+00 -0.42200742568E+03  0.42203909387E+03  0.00000000000E+00 0.  1.
         -3    1    1    2    0  502 -0.14611580465E+02  0.54674793347E+01 -0.14880596396E+02  0.21559771869E+02  0.00000000000E+00 0. -1.
<mgrwt>
<rscale>  1 0.30000000E+03</rscale>
<asrwt>0</asrwt>
<pdfrwt beam="1">  1       21 0.12397535E-01 0.30000000E+03</pdfrwt>
<pdfrwt beam="2">0</pdfrwt>
<totfact> 0.58405796E+03</totfact>
</mgrwt>
</event>
<event>
 6    1  0.1132867E-002  0.3000000E+03  0.7818608E-02  0.1093470E+00
         21   -1    0    0  501  502  0.00000000000E+00  0.00000000000E+00  0.11916297571E+00  0.11916297571E+00  0.00000000000E+00 0. -1.
         13   -1    0    0    0    0 -0.00000000000E+00 -0.00000000000E+00 -0.10000000000E+04  0.10000000000E+04  0.00000000000E+00 0.  1.
    9000005    2    1    2  501    0 -0.17298969005E+01 -0.88896053650E+01 -0.71867770191E+03  0.71877023224E+03  0.71407218058E+01 0.  0.
         13    1    3    3    0    0 -0.69363200560E+00  0.95629066853E+00 -0.16346583538E+03  0.16347010416E+03  0.00000000000E+00 0.  1.
          3    1    3    3  501    0 -0.10362648949E+01 -0.98458960335E+01 -0.55521186653E+03  0.55530012809E+03  0.00000000000E+00 0.  1.
         -1    1    1    2    0  502  0.17298969005E+01  0.88896053650E+01 -0.28120313511E+03  0.28134893073E+03  0.00000000000E+00 0. -1.
<mgrwt>
<rscale>  1 0.30000000E+03</rscale>
<asrwt>0</asrwt>
<pdfrwt beam="1">  1       21 0.43332083E-03 0.30000000E+03</pdfrwt>
<pdfrwt beam="2">0</pdfrwt>
<totfact> 0.14967144E+06</totfact>
</mgrwt>
</event>
<event>
 6    1  0.1132867E-002  0.3000000E+03  0.7818608E-02  0.1093470E+00
         21   -1    0    0  501  502  0.00000000000E+00  0.00000000000E+00  0.68416703748E+00  0.68416703748E+00  0.00000000000E+00 0. -1.
         13   -1    0    0    0    0 -0.00000000000E+00 -0.00000000000E+00 -0.10000000000E+04  0.10000000000E+04  0.00000000000E+00 0.  1.
    9000005    2    1    2  501    0  0.23392533887E+01 -0.17009489002E+02 -0.86772743362E+03  0.86798035525E+03  0.12008464238E+02 0.  0.
         13    1    3    3    0    0  0.26259668985E+01 -0.25953395550E+01 -0.42943762894E+03  0.42945349997E+03  0.00000000000E+00 0.  1.
          3    1    3    3  501    0 -0.28671350980E+00 -0.14414149447E+02 -0.43828980468E+03  0.43852685528E+03  0.00000000000E+00 0.  1.
         -3    1    1    2    0  502 -0.23392533887E+01  0.17009489002E+02 -0.13158839934E+03  0.13270381179E+03  0.00000000000E+00 0. -1.
<mgrwt>
<rscale>  1 0.30000000E+03</rscale>
<asrwt>0</asrwt>
<pdfrwt beam="1">  1       21 0.24878854E-02 0.30000000E+03</pdfrwt>
<pdfrwt beam="2">0</pdfrwt>
<totfact> 0.92707501E+04</totfact>
</mgrwt>
</event>
<event>
 6    1  0.1132867E-002  0.3000000E+03  0.7818608E-02  0.1093470E+00
         21   -1    0    0  501  502  0.00000000000E+00  0.00000000000E+00  0.32858335529E+00  0.32858335529E+00  0.00000000000E+00 0. -1.
         13   -1    0    0    0    0 -0.00000000000E+00 -0.00000000000E+00 -0.10000000000E+04  0.10000000000E+04  0.00000000000E+00 0.  1.
    9000005    2    1    2  501    0  0.10435594410E+02  0.87276299375E+01 -0.76164805911E+03  0.76191677180E+03  0.14977585099E+02 0.  0.
         13    1    3    3    0    0  0.12123067648E+02  0.11413284431E+02 -0.68636318938E+03  0.68656511677E+03  0.00000000000E+00 0.  1.
          3    1    3    3  501    0 -0.16874732386E+01 -0.26856544935E+01 -0.75284869725E+02  0.75351655028E+02  0.00000000000E+00 0.  1.
         -3    1    1    2    0  502 -0.10435594410E+02 -0.87276299375E+01 -0.23802335754E+03  0.23841181155E+03  0.00000000000E+00 0. -1.
<mgrwt>
<rscale>  1 0.30000000E+03</rscale>
<asrwt>0</asrwt>
<pdfrwt beam="1">  1       21 0.11948511E-02 0.30000000E+03</pdfrwt>
<pdfrwt beam="2">0</pdfrwt>
<totfact> 0.30435084E+05</totfact>
</mgrwt>
</event>
<event>
 6    1  0.1132867E-002  0.3000000E+03  0.7818608E-02  0.1093470E+00
         21   -1    0    0  501  502  0.00000000000E+00  0.00000000000E+00  0.53902078018E+00  0.53902078018E+00  0.00000000000E+00 0. -1.
         13   -1    0    0    0    0 -0.00000000000E+00 -0.00000000000E+00 -0.10000000000E+04  0.10000000000E+04  0.00000000000E+00 0.  1.
    9000005    2    1    2  501    0  0.49386557259E+01  0.10910735009E+02 -0.92191489008E+03  0.92207354812E+03  0.12211843984E+02 0.  0.
         13    1    3    3    0    0  0.10217292786E+01  0.12469475280E+02 -0.76382821881E+03  0.76393067722E+03  0.00000000000E+00 0.  1.
          1    1    3    3  501    0  0.39169264473E+01 -0.15587402701E+01 -0.15808667127E+03  0.15814287090E+03  0.00000000000E+00 0.  1.
         -1    1    1    2    0  502 -0.49386557259E+01 -0.10910735009E+02 -0.77546089141E+02  0.78465472661E+02  0.00000000000E+00 0. -1.
<mgrwt>
<rscale>  1 0.30000000E+03</rscale>
<asrwt>0</asrwt>
<pdfrwt beam="1">  1       21 0.19600797E-02 0.30000000E+03</pdfrwt>
<pdfrwt beam="2">0</pdfrwt>
<totfact> 0.13698894E+05</totfact>
</mgrwt>
</event>
<event>
 6    1  0.1132867E-002  0.3000000E+03  0.7818608E-02  0.1093470E+00
         21   -1    0    0  501  502  0.00000000000E+00  0.00000000000E+00  0.69534034971E+00  0.69534034971E+00  0.00000000000E+00 0. -1.
         13   -1    0    0    0    0 -0.00000000000E+00 -0.00000000000E+00 -0.10000000000E+04  0.10000000000E+04  0.00000000000E+00 0.  1.
    9000005    2    1    2  501    0 -0.16705341265E+02 -0.41666148196E+01 -0.12875673555E+03  0.12997717857E+03  0.43978281569E+01 0.  0.
         13    1    3    3    0    0 -0.15949979028E+02 -0.29253455024E+01 -0.11371103916E+03  0.11486148137E+03  0.00000000000E+00 0.  1.
          3    1    3    3  501    0 -0.75536223719E+00 -0.12412693172E+01 -0.15045696400E+02  0.15115697198E+02  0.00000000000E+00 0.  1.
         -1    1    1    2    0  502  0.16705341265E+02  0.41666148196E+01 -0.87054792410E+03  0.87071816178E+03  0.00000000000E+00 0. -1.
<mgrwt>
<rscale>  1 0.30000000E+03</rscale>
<asrwt>0</asrwt>
<pdfrwt beam="1">  1       21 0.25285157E-02 0.30000000E+03</pdfrwt>
<pdfrwt beam="2">0</pdfrwt>
<totfact> 0.90268368E+04</totfact>
</mgrwt>
</event>
<event>
 6    1  0.1132867E-002  0.3000000E+03  0.7818608E-02  0.1093470E+00
         21   -1    0    0  501  502  0.00000000000E+00  0.00000000000E+00  0.20659788684E+00  0.20659788684E+00  0.00000000000E+00 0. -1.
         13   -1    0    0    0    0 -0.00000000000E+00 -0.00000000000E+00 -0.10000000000E+04  0.10000000000E+04  0.00000000000E+00 0.  1.
    9000005    2    1    2  501    0 -0.38704141730E+01  0.10524867473E+02 -0.80874231941E+03  0.80882669000E+03  0.32744936287E+01 0.  0.
         13    1    3    3    0    0 -0.34577378403E+01  0.10634767725E+02 -0.75681155252E+03  0.75689416715E+03  0.00000000000E+00 0.  1.
          1    1    3    3  501    0 -0.41267633271E+00 -0.10990025257E+00 -0.51930766892E+02  0.51932522853E+02  0.00000000000E+00 0.  1.
         -1    1    1    2    0  502  0.38704141730E+01 -0.10524867473E+02 -0.19105108270E+03  0.19137990789E+03  0.00000000000E+00 0. -1.
<mgrwt>
<rscale>  1 0.30000000E+03</rscale>
<asrwt>0</asrwt>
<pdfrwt beam="1">  1       21 0.75126663E-03 0.30000000E+03</pdfrwt>
<pdfrwt beam="2">0</pdfrwt>
<totfact> 0.63484350E+05</totfact>
</mgrwt>
</event>
<event>
 6    1  0.1132867E-002  0.3000000E+03  0.7818608E-02  0.1093470E+00
         21   -1    0    0  501  502  0.00000000000E+00  0.00000000000E+00  0.83145229524E+00  0.83145229524E+00  0.00000000000E+00 0. -1.
         13   -1    0    0    0    0 -0.00000000000E+00 -0.00000000000E+00 -0.10000000000E+04  0.10000000000E+04  0.00000000000E+00 0.  1.
    9000005    2    1    2  501    0 -0.18696096706E+01  0.14613181321E+02 -0.92667076010E+03  0.92685193002E+03  0.10897800098E+02 0.  0.
         13    1    3    3    0    0 -0.10924264798E+01 -0.16799033930E+01 -0.11105223878E+03  0.11107031651E+03  0.00000000000E+00 0.  1.
          3    1    3    3  501    0 -0.77718319074E+00  0.16293084714E+02 -0.81561852131E+03  0.81578161350E+03  0.00000000000E+00 0.  1.
         -3    1    1    2    0  502  0.18696096706E+01 -0.14613181321E+02 -0.72497787609E+02  0.73979522280E+02  0.00000000000E+00 0. -1.
<mgrwt>
<rscale>  1 0.30000000E+03</rscale>
<asrwt>0</asrwt>
<pdfrwt beam="1">  1       21 0.30234693E-02 0.30000000E+03</pdfrwt>
<pdfrwt beam="2">0</pdfrwt>
<totfact> 0.67155551E+04</totfact>
</mgrwt>
</event>
<event>
 6    1  0.1132867E-002  0.3000000E+03  0.7818608E-02  0.1093470E+00
         21   -1    0    0  501  502  0.00000000000E+00  0.00000000000E+00  0.77915560564E+00  0.77915560564E+00  0.00000000000E+00 0. -1.
         13   -1    0    0    0    0 -0.00000000000E+00 -0.00000000000E+00 -0.10000000000E+04  0.10000000000E+04  0.00000000000E+00 0.  1.
    9000005    2    1    2  501    0 -0.16472173589E+02 -0.66372890747E+01 -0.87659482242E+03  0.87687383944E+03  0.13185654733E+02 0.  0.
         13    1    3    3    0    0  0.80854987501E+00  0.22487278937E+01 -0.15085419098E+03  0.15087311711E+03  0.00000000000E+00 0.  1.
          1    1    3    3  501    0 -0.17280723464E+02 -0.88860169684E+01 -0.72574063144E+03  0.72600072233E+03  0.00000000000E+00 0.  1.
         -3    1    1    2    0  502  0.16472173589E+02  0.66372890747E+01 -0.12262602198E+03  0.12390531617E+03  0.00000000000E+00 0. -1.
<mgrwt>
<rscale>  1 0.30000000E+03</rscale>
<asrwt>0</asrwt>
<pdfrwt beam="1">  1       21 0.28332991E-02 0.30000000E+03</pdfrwt>
<pdfrwt beam="2">0</pdfrwt>
<totfact> 0.74796638E+04</totfact>
</mgrwt>
</event>
<event>
 6    1  0.1132867E-002  0.3000000E+03  0.7818608E-02  0.1093470E+00
         21   -1    0    0  501  502  0.00000000000E+00  0.00000000000E+00  0.89770222663E-01  0.89770222663E-01  0.00000000000E+00 0. -1.
         13   -1    0    0    0    0 -0.00000000000E+00 -0.00000000000E+00 -0.10000000000E+04  0.10000000000E+04  0.00000000000E+00 0.  1.
    9000005    2    1    2  501    0 -0.76394380737E+01  0.52598987745E+01 -0.54614389271E+03  0.54622865027E+03  0.25611095498E+01 0.  0.
         13    1    3    3    0    0 -0.37884014129E+01  0.12418104638E+01 -0.19617601786E+03  0.19621652342E+03  0.00000000000E+00 0.  1.
          3    1    3    3  501    0 -0.38510366608E+01  0.40180883107E+01 -0.34996787485E+03  0.35001212685E+03  0.00000000000E+00 0.  1.
         -1    1    1    2    0  502  0.76394380737E+01 -0.52598987745E+01 -0.45376633706E+03  0.45386111995E+03  0.00000000000E+00 0. -1.
<mgrwt>
<rscale>  1 0.30000000E+03</rscale>
<asrwt>0</asrwt>
<pdfrwt beam="1">  1       21 0.32643786E-03 0.30000000E+03</pdfrwt>
<pdfrwt beam="2">0</pdfrwt>
<totfact> 0.23150873E+06</totfact>
</mgrwt>
</event>
<event>
 6    1  0.1132867E-002  0.3000000E+03  0.7818608E-02  0.1093470E+00
         21   -1    0    0  501  502  0.00000000000E+00  0.00000000000E+00  0.49556702607E+00  0.49556702607E+00  0.00000000000E+00 0. -1.
         13   -1    0    0    0    0 -0.00000000000E+00 -0.00000000000E+00 -0.10000000000E+04  0.10000000000E+04  0.00000000000E+00 0.  1.
    9000005    2    1    2  501    0  0.98663382329E+01  0.46042690127E+01 -0.93371162293E+03  0.93380795366E+03  0.78329813528E+01 0.  0.
         13    1    3    3    0    0  0.10162514831E+02  0.51823845366E+01 -0.92562231568E+03  0.92569260832E+03  0.00000000000E+00 0.  1.
          3    1    3    3  501    0 -0.29617659773E+00 -0.57811552396E+00 -0.80893072559E+01  0.81153453418E+01  0.00000000000E+00 0.  1.
         -1    1    1    2    0  502 -0.98663382329E+01 -0.46042690127E+01 -0.65792810043E+02  0.66687613367E+02  0.00000000000E+00 0. -1.
<mgrwt>
<rscale>  1 0.30000000E+03</rscale>
<asrwt>0</asrwt>
<pdfrwt beam="1">  1       21 0.18020657E-02 0.30000000E+03</pdfrwt>
<pdfrwt beam="2">0</pdfrwt>
<totfact> 0.15704663E+05</totfact>
</mgrwt>
</event>
<event>
 6    1  0.1132867E-002  0.3000000E+03  0.7818608E-02  0.1093470E+00
         21   -1    0    0  501  502  0.00000000000E+00  0.00000000000E+00  0.18085510478E+00  0.18085510478E+00  0.00000000000E+00 0. -1.
         13   -1    0    0    0    0 -0.00000000000E+00 -0.00000000000E+00 -0.10000000000E+04  0.10000000000E+04  0.00000000000E+00 0.  1.
    9000005    2    1    2  501    0  0.45694604472E+01 -0.10902610559E+02 -0.33367982816E+03  0.33393665349E+03  0.56315128494E+01 0.  0.
         13    1    3    3    0    0  0.46968899894E+01 -0.11229900572E+02 -0.33186422174E+03  0.33208738777E+03  0.00000000000E+00 0.  1.
          3    1    3    3  501    0 -0.12742954215E+00  0.32729001376E+00 -0.18156064185E+01  0.18492657214E+01  0.00000000000E+00 0.  1.
         -1    1    1    2    0  502 -0.45694604472E+01  0.10902610559E+02 -0.66613931673E+03  0.66624420161E+03  0.00000000000E+00 0. -1.
<mgrwt>
<rscale>  1 0.30000000E+03</rscale>
<asrwt>0</asrwt>
<pdfrwt beam="1">  1       21 0.65765631E-03 0.30000000E+03</pdfrwt>
<pdfrwt beam="2">0</pdfrwt>
<totfact> 0.78217132E+05</totfact>
</mgrwt>
</event>
<event>
 6    1  0.1132867E-002  0.3000000E+03  0.7818608E-02  0.1093470E+00
         21   -1    0    0  501  502  0.00000000000E+00  0.00000000000E+00  0.29301488545E+00  0.29301488545E+00  0.00000000000E+00 0. -1.
         13   -1    0    0    0    0 -0.00000000000E+00 -0.00000000000E+00 -0.10000000000E+04  0.10000000000E+04  0.00000000000E+00 0.  1.
    9000005    2    1    2  501    0 -0.73112885027E+01  0.74694777008E+01 -0.88808320505E+03  0.88818094456E+03  0.80226648589E+01 0.  0.
         13    1    3    3    0    0 -0.85970052326E+01  0.50761052208E+01 -0.58147511564E+03  0.58156081836E+03  0.00000000000E+00 0.  1.
          3    1    3    3  501    0  0.12857167298E+01  0.23933724799E+01 -0.30660808941E+03  0.30662012620E+03  0.00000000000E+00 0.  1.
         -3    1    1    2    0  502  0.73112885027E+01 -0.74694777008E+01 -0.11162378006E+03  0.11211207032E+03  0.00000000000E+00 0. -1.
<mgrwt>
<rscale>  1 0.30000000E+03</rscale>
<asrwt>0</asrwt>
<pdfrwt beam="1">  1       21 0.10655109E-02 0.30000000E+03</pdfrwt>
<pdfrwt beam="2">0</pdfrwt>
<totfact> 0.36531771E+05</totfact>
</mgrwt>
</event>
<event>
 6    1  0.1132867E-002  0.3000000E+03  0.7818608E-02  0.1093470E+00
         21   -1    0    0  501  502  0.00000000000E+00  0.00000000000E+00  0.23476808723E+00  0.23476808723E+00  0.00000000000E+00 0. -1.
         13   -1    0    0    0    0 -0.00000000000E+00 -0.00000000000E+00 -0.10000000000E+04  0.10000000000E+04  0.00000000000E+00 0.  1.
    9000005    2    1    2  501    0  0.15767221304E+01  0.12790280854E+02 -0.71591823017E+03  0.71609536967E+03  0.93588904203E+01 0.  0.
         13    1    3    3    0    0 -0.33946698053E+01  0.28387327419E+01 -0.14066051203E+03  0.14073010279E+03  0.00000000000E+00 0.  1.
          1    1    3    3  501    0  0.49713919357E+01  0.99515481119E+01 -0.57525771814E+03  0.57536526687E+03  0.00000000000E+00 0.  1.
         -1    1    1    2    0  502 -0.15767221304E+01 -0.12790280854E+02 -0.28384700174E+03  0.28413939842E+03  0.00000000000E+00 0. -1.
<mgrwt>
<rscale>  1 0.30000000E+03</rscale>
<asrwt>0</asrwt>
<pdfrwt beam="1">  1       21 0.85370394E-03 0.30000000E+03</pdfrwt>
<pdfrwt beam="2">0</pdfrwt>
<totfact> 0.51903241E+05</totfact>
</mgrwt>
</event>
<event>
 6    1  0.1132867E-002  0.3000000E+03  0.7818608E-02  0.1093470E+00
         21   -1    0    0  501  502  0.00000000000E+00  0.00000000000E+00  0.15302632249E+01  0.15302632249E+01  0.00000000000E+00 0. -1.
         13   -1    0    0    0    0 -0.00000000000E+00 -0.00000000000E+00 -0.10000000000E+04  0.10000000000E+04  0.00000000000E+00 0.  1.
    9000005    2    1    2  501    0  0.14359061216E+02  0.33068647622E+02 -0.68508566892E+03  0.68607932872E+03  0.79217070729E+01 0.  0.
         13    1    3    3    0    0 -0.11281660736E+00  0.27779120871E+01 -0.28287259248E+02  0.28423556408E+02  0.00000000000E+00 0.  1.
          1    1    3    3  501    0  0.14471877823E+02  0.30290735535E+02 -0.65679840967E+03  0.65765577231E+03  0.00000000000E+00 0.  1.
         -3    1    1    2    0  502 -0.14359061216E+02 -0.33068647622E+02 -0.31338406786E+03  0.31545093451E+03  0.00000000000E+00 0. -1.
<mgrwt>
<rscale>  1 0.30000000E+03</rscale>
<asrwt>0</asrwt>
<pdfrwt beam="1">  1       21 0.55646053E-02 0.30000000E+03</pdfrwt>
<pdfrwt beam="2">0</pdfrwt>
<totfact> 0.23988745E+04</totfact>
</mgrwt>
</event>
<event>
 6    1  0.1132867E-002  0.3000000E+03  0.7818608E-02  0.1093470E+00
         21   -1    0    0  501  502  0.00000000000E+00  0.00000000000E+00  0.24706273222E+01  0.24706273222E+01  0.00000000000E+00 0. -1.
         13   -1    0    0    0    0 -0.00000000000E+00 -0.00000000000E+00 -0.10000000000E+04  0.10000000000E+04  0.00000000000E+00 0.  1.
    9000005    2    1    2  501    0  0.32884404755E+02 -0.15899832265E+02 -0.83664583728E+03  0.83749274789E+03  0.91464187749E+01 0.  0.
         13    1    3    3    0    0  0.12774374031E+02 -0.10861278095E+02 -0.41221974126E+03  0.41256062231E+03  0.00000000000E+00 0.  1.
          1    1    3    3  501    0  0.20110030724E+02 -0.50385541700E+01 -0.42442609602E+03  0.42493212558E+03  0.00000000000E+00 0.  1.
         -1    1    1    2    0  502 -0.32884404755E+02  0.15899832265E+02 -0.16088353539E+03  0.16497787943E+03  0.00000000000E+00 0. -1.
<mgrwt>
<rscale>  1 0.30000000E+03</rscale>
<asrwt>0</asrwt>
<pdfrwt beam="1">  1       21 0.89841183E-02 0.30000000E+03</pdfrwt>
<pdfrwt beam="2">0</pdfrwt>
<totfact> 0.10410612E+04</totfact>
</mgrwt>
</event>
<event>
 6    1  0.1132867E-002  0.3000000E+03  0.7818608E-02  0.1093470E+00
         21   -1    0    0  501  502  0.00000000000E+00  0.00000000000E+00  0.11300429644E+01  0.11300429644E+01  0.00000000000E+00 0. -1.
         13   -1    0    0    0    0 -0.00000000000E+00 -0.00000000000E+00 -0.10000000000E+04  0.10000000000E+04  0.00000000000E+00 0.  1.
    9000005    2    1    2  501    0  0.16580374430E+02 -0.77420654932E+01 -0.89742356974E+03  0.89804649486E+03  0.27992767142E+02 0.  0.
         13    1    3    3    0    0  0.38208601163E+01 -0.94456022801E+01 -0.74801882671E+03  0.74808821905E+03  0.00000000000E+00 0.  1.
          1    1    3    3  501    0  0.12759514314E+02  0.17035367869E+01 -0.14940474303E+03  0.14995827581E+03  0.00000000000E+00 0.  1.
         -3    1    1    2    0  502 -0.16580374430E+02  0.77420654932E+01 -0.10144638730E+03  0.10308354810E+03  0.00000000000E+00 0. -1.
<mgrwt>
<rscale>  1 0.30000000E+03</rscale>
<asrwt>0</asrwt>
<pdfrwt beam="1">  1       21 0.41092558E-02 0.30000000E+03</pdfrwt>
<pdfrwt beam="2">0</pdfrwt>
<totfact> 0.40180551E+04</totfact>
</mgrwt>
</event>
<event>
 6    1  0.1132867E-002  0.3000000E+03  0.7818608E-02  0.1093470E+00
         21   -1    0    0  501  502  0.00000000000E+00  0.00000000000E+00  0.37579297099E+00  0.37579297099E+00  0.00000000000E+00 0. -1.
         13   -1    0    0    0    0 -0.00000000000E+00 -0.00000000000E+00 -0.10000000000E+04  0.10000000000E+04  0.00000000000E+00 0.  1.
    9000005    2    1    2  501    0  0.17762586504E+02 -0.65653805926E+01 -0.56964734269E+03  0.56998211555E+03  0.47857398063E+01 0.  0.
         13    1    3    3    0    0  0.13872328604E+02 -0.63277853628E+01 -0.40106848771E+03  0.40135821183E+03  0.00000000000E+00 0.  1.
          1    1    3    3  501    0  0.38902579001E+01 -0.23759522980E+00 -0.16857885498E+03  0.16862390371E+03  0.00000000000E+00 0.  1.
         -3    1    1    2    0  502 -0.17762586504E+02  0.65653805926E+01 -0.42997686434E+03  0.43039367742E+03  0.00000000000E+00 0. -1.
<mgrwt>
<rscale>  1 0.30000000E+03</rscale>
<asrwt>0</asrwt>
<pdfrwt beam="1">  1       21 0.13665228E-02 0.30000000E+03</pdfrwt>
<pdfrwt beam="2">0</pdfrwt>
<totfact> 0.24546625E+05</totfact>
</mgrwt>
</event>
<event>
 6    1  0.1132867E-002  0.3000000E+03  0.7818608E-02  0.1093470E+00
         21   -1    0    0  501  502  0.00000000000E+00  0.00000000000E+00  0.90112978018E+00  0.90112978018E+00  0.00000000000E+00 0. -1.
         13   -1    0    0    0    0 -0.00000000000E+00 -0.00000000000E+00 -0.10000000000E+04  0.10000000000E+04  0.00000000000E+00 0.  1.
    9000005    2    1    2  501    0 -0.10545367002E+02 -0.98641844567E+01 -0.14690023577E+03  0.14858016942E+03  0.16967043858E+02 0.  0.
         13    1    3    3    0    0 -0.78489019033E+01 -0.16283923436E+01 -0.12106800078E+03  0.12133308591E+03  0.00000000000E+00 0.  1.
          1    1    3    3  501    0 -0.26964650984E+01 -0.82357921131E+01 -0.25832234986E+02  0.27247083516E+02  0.00000000000E+00 0.  1.
         -1    1    1    2    0  502  0.10545367002E+02  0.98641844567E+01 -0.85219863445E+03  0.85232096036E+03  0.00000000000E+00 0. -1.
<mgrwt>
<rscale>  1 0.30000000E+03</rscale>
<asrwt>0</asrwt>
<pdfrwt beam="1">  1       21 0.32768425E-02 0.30000000E+03</pdfrwt>
<pdfrwt beam="2">0</pdfrwt>
<totfact> 0.58739319E+04</totfact>
</mgrwt>
</event>
<event>
 6    1  0.1132867E-002  0.3000000E+03  0.7818608E-02  0.1093470E+00
         21   -1    0    0  501  502  0.00000000000E+00  0.00000000000E+00  0.14169072516E+00  0.14169072516E+00  0.00000000000E+00 0. -1.
         13   -1    0    0    0    0 -0.00000000000E+00 -0.00000000000E+00 -0.10000000000E+04  0.10000000000E+04  0.00000000000E+00 0.  1.
    9000005    2    1    2  501    0 -0.10300562874E+02  0.24837400660E+01 -0.48247197794E+03  0.48264687296E+03  0.75182392776E+01 0.  0.
         13    1    3    3    0    0 -0.56347205131E+01  0.42744385190E+01 -0.18889152562E+03  0.18902388567E+03  0.00000000000E+00 0.  1.
          3    1    3    3  501    0 -0.46658423607E+01 -0.17906984529E+01 -0.29358045231E+03  0.29362298729E+03  0.00000000000E+00 0.  1.
         -3    1    1    2    0  502  0.10300562874E+02 -0.24837400660E+01 -0.51738633134E+03  0.51749481777E+03  0.00000000000E+00 0. -1.
<mgrwt>
<rscale>  1 0.30000000E+03</rscale>
<asrwt>0</asrwt>
<pdfrwt beam="1">  1       21 0.51524009E-03 0.30000000E+03</pdfrwt>
<pdfrwt beam="2">0</pdfrwt>
<totfact> 0.11444137E+06</totfact>
</mgrwt>
</event>
<event>
 6    1  0.1132867E-002  0.3000000E+03  0.7818608E-02  0.1093470E+00
         21   -1    0    0  501  502  0.00000000000E+00  0.00000000000E+00  0.54338658677E+00  0.54338658677E+00  0.00000000000E+00 0. -1.
         13   -1    0    0    0    0 -0.00000000000E+00 -0.00000000000E+00 -0.10000000000E+04  0.10000000000E+04  0.00000000000E+00 0.  1.
    9000005    2    1    2  501    0  0.30595615620E+01  0.21319701036E+02 -0.47946166480E+03  0.48010257617E+03  0.12292479744E+02 0.  0.
         13    1    3    3    0    0  0.28929169339E+01  0.21908397519E+01 -0.27781388822E+02  0.28017393028E+02  0.00000000000E+00 0.  1.
          3    1    3    3  501    0  0.16664462812E+00  0.19128861284E+02 -0.45168027598E+03  0.45208518314E+03  0.00000000000E+00 0.  1.
         -1    1    1    2    0  502 -0.30595615620E+01 -0.21319701036E+02 -0.51999494861E+03  0.52044081042E+03  0.00000000000E+00 0. -1.
<mgrwt>
<rscale>  1 0.30000000E+03</rscale>
<asrwt>0</asrwt>
<pdfrwt beam="1">  1       21 0.19759554E-02 0.30000000E+03</pdfrwt>
<pdfrwt beam="2">0</pdfrwt>
<totfact> 0.13520080E+05</totfact>
</mgrwt>
</event>
<event>
 6    1  0.1132867E-002  0.3000000E+03  0.7818608E-02  0.1093470E+00
         21   -1    0    0  501  502  0.00000000000E+00  0.00000000000E+00  0.47523377728E+00  0.47523377728E+00  0.00000000000E+00 0. -1.
         13   -1    0    0    0    0 -0.00000000000E+00 -0.00000000000E+00 -0.10000000000E+04  0.10000000000E+04  0.00000000000E+00 0.  1.
    9000005    2    1    2  501    0 -0.18951811180E+02  0.40521882666E+01 -0.71734842386E+03  0.71763414842E+03  0.58667186458E+01 0.  0.
         13    1    3    3    0    0 -0.10955569221E+02  0.51807244120E+01 -0.40433536592E+03  0.40451693726E+03  0.00000000000E+00 0.  1.
          1    1    3    3  501    0 -0.79962419593E+01 -0.11285361453E+01 -0.31301305794E+03  0.31311721116E+03  0.00000000000E+00 0.  1.
         -1    1    1    2    0  502  0.18951811180E+02 -0.40521882666E+01 -0.28217634236E+03  0.28284108536E+03  0.00000000000E+00 0. -1.
<mgrwt>
<rscale>  1 0.30000000E+03</rscale>
<asrwt>0</asrwt>
<pdfrwt beam="1">  1       21 0.17281265E-02 0.30000000E+03</pdfrwt>
<pdfrwt beam="2">0</pdfrwt>
<totfact> 0.16809149E+05</totfact>
</mgrwt>
</event>
<event>
 6    1  0.1132867E-002  0.3000000E+03  0.7818608E-02  0.1093470E+00
         21   -1    0    0  501  502  0.00000000000E+00  0.00000000000E+00  0.14907740268E+00  0.14907740268E+00  0.00000000000E+00 0. -1.
         13   -1    0    0    0    0 -0.00000000000E+00 -0.00000000000E+00 -0.10000000000E+04  0.10000000000E+04  0.00000000000E+00 0.  1.
    9000005    2    1    2  501    0 -0.98363449703E+01 -0.19077970605E+01 -0.73222828350E+03  0.73233893882E+03  0.78529470836E+01 0.  0.
         13    1    3    3    0    0 -0.86974040091E+01  0.17578767384E+01 -0.49254586014E+03  0.49262578019E+03  0.00000000000E+00 0.  1.
          3    1    3    3  501    0 -0.11389409612E+01 -0.36656737990E+01 -0.23968242336E+03  0.23971315863E+03  0.00000000000E+00 0.  1.
         -3    1    1    2    0  502  0.98363449703E+01  0.19077970605E+01 -0.26762263910E+03  0.26781013859E+03  0.00000000000E+00 0. -1.
<mgrwt>
<rscale>  1 0.30000000E+03</rscale>
<asrwt>0</asrwt>
<pdfrwt beam="1">  1       21 0.54210079E-03 0.30000000E+03</pdfrwt>
<pdfrwt beam="2">0</pdfrwt>
<totfact> 0.10574780E+06</totfact>
</mgrwt>
</event>
<event>
 6    1  0.1132867E-002  0.3000000E+03  0.7818608E-02  0.1093470E+00
         21   -1    0    0  501  502  0.00000000000E+00  0.00000000000E+00  0.47347664611E+00  0.47347664611E+00  0.00000000000E+00 0. -1.
         13   -1    0    0    0    0 -0.00000000000E+00 -0.00000000000E+00 -0.10000000000E+04  0.10000000000E+04  0.00000000000E+00 0.  1.
    9000005    2    1    2  501    0  0.11302071092E+02 -0.27714092925E+01 -0.92080038968E+03  0.92089193580E+03  0.57604048067E+01 0.  0.
         13    1    3    3    0    0  0.48807133405E+00  0.46943516027E+00 -0.10635940694E+02  0.10657477068E+02  0.00000000000E+00 0.  1.
          3    1    3    3  501    0  0.10813999758E+02 -0.32408444528E+01 -0.91016444899E+03  0.91023445873E+03  0.00000000000E+00 0.  1.
         -3    1    1    2    0  502 -0.11302071092E+02  0.27714092925E+01 -0.78726133673E+02  0.79581540846E+02  0.00000000000E+00 0. -1.
<mgrwt>
<rscale>  1 0.30000000E+03</rscale>
<asrwt>0</asrwt>
<pdfrwt beam="1">  1       21 0.17217369E-02 0.30000000E+03</pdfrwt>
<pdfrwt beam="2">0</pdfrwt>
<totfact> 0.16910400E+05</totfact>
</mgrwt>
</event>
<event>
 6    1  0.1132867E-002  0.3000000E+03  0.7818608E-02  0.1093470E+00
         21   -1    0    0  501  502  0.00000000000E+00  0.00000000000E+00  0.11488445322E+01  0.11488445322E+01  0.00000000000E+00 0. -1.
         13   -1    0    0    0    0 -0.00000000000E+00 -0.00000000000E+00 -0.10000000000E+04  0.10000000000E+04  0.00000000000E+00 0.  1.
    9000005    2    1    2  501    0 -0.28547547137E+02  0.99433101872E+01 -0.66063900463E+03  0.66158840685E+03  0.18479550159E+02 0.  0.
         13    1    3    3    0    0 -0.18676748490E+02  0.88164573275E+01 -0.57570206022E+03  0.57607240257E+03  0.00000000000E+00 0.  1.
          1    1    3    3  501    0 -0.98707986467E+01  0.11268528597E+01 -0.84936944407E+02  0.85516004283E+02  0.00000000000E+00 0.  1.
         -3    1    1    2    0  502  0.28547547137E+02 -0.99433101872E+01 -0.33821215084E+03  0.33956043768E+03  0.00000000000E+00 0. -1.
<mgrwt>
<rscale>  1 0.30000000E+03</rscale>
<asrwt>0</asrwt>
<pdfrwt beam="1">  1       21 0.41776253E-02 0.30000000E+03</pdfrwt>
<pdfrwt beam="2">0</pdfrwt>
<totfact> 0.39077291E+04</totfact>
</mgrwt>
</event>
<event>
 6    1  0.1132867E-002  0.3000000E+03  0.7818608E-02  0.1093470E+00
         21   -1    0    0  501  502  0.00000000000E+00  0.00000000000E+00  0.32151607089E+00  0.32151607089E+00  0.00000000000E+00 0. -1.
         13   -1    0    0    0    0 -0.00000000000E+00 -0.00000000000E+00 -0.10000000000E+04  0.10000000000E+04  0.00000000000E+00 0.  1.
    9000005    2    1    2  501    0 -0.44203319236E+01 -0.14326988196E+02 -0.76498843609E+03  0.76515302226E+03  0.51998271069E+01 0.  0.
         13    1    3    3    0    0 -0.36001018044E+01 -0.60955169727E+01 -0.25800762040E+03  0.25810472340E+03  0.00000000000E+00 0.  1.
          1    1    3    3  501    0 -0.82023011912E+00 -0.82314712232E+01 -0.50698081569E+03  0.50704829885E+03  0.00000000000E+00 0.  1.
         -3    1    1    2    0  502  0.44203319236E+01  0.14326988196E+02 -0.23469004784E+03  0.23516849381E+03  0.00000000000E+00 0. -1.
<mgrwt>
<rscale>  1 0.30000000E+03</rscale>
<asrwt>0</asrwt>
<pdfrwt beam="1">  1       21 0.11691518E-02 0.30000000E+03</pdfrwt>
<pdfrwt beam="2">0</pdfrwt>
<totfact> 0.31509836E+05</totfact>
</mgrwt>
</event>
<event>
 6    1  0.1132867E-002  0.3000000E+03  0.7818608E-02  0.1093470E+00
         21   -1    0    0  501  502  0.00000000000E+00  0.00000000000E+00  0.16236460895E+00  0.16236460895E+00  0.00000000000E+00 0. -1.
         13   -1    0    0    0    0 -0.00000000000E+00 -0.00000000000E+00 -0.10000000000E+04  0.10000000000E+04  0.00000000000E+00 0.  1.
    9000005    2    1    2  501    0  0.96853275038E+01  0.35580482540E+01 -0.69001948613E+03  0.69017244399E+03  0.10229658956E+02 0.  0.
         13    1    3    3    0    0  0.84448775904E+01 -0.16110265439E+01 -0.51651676954E+03  0.51658831247E+03  0.00000000000E+00 0.  1.
          1    1    3    3  501    0  0.12404499134E+01  0.51690747979E+01 -0.17350271659E+03  0.17358413152E+03  0.00000000000E+00 0.  1.
         -3    1    1    2    0  502 -0.96853275038E+01 -0.35580482540E+01 -0.30981814926E+03  0.30998992062E+03  0.00000000000E+00 0. -1.
<mgrwt>
<rscale>  1 0.30000000E+03</rscale>
<asrwt>0</asrwt>
<pdfrwt beam="1">  1       21 0.59041800E-03 0.30000000E+03</pdfrwt>
<pdfrwt beam="2">0</pdfrwt>
<totfact> 0.92580126E+05</totfact>
</mgrwt>
</event>
<event>
 6    1  0.1132867E-002  0.3000000E+03  0.7818608E-02  0.1093470E+00
         21   -1    0    0  501  502  0.00000000000E+00  0.00000000000E+00  0.33276548493E+01  0.33276548493E+01  0.00000000000E+00 0. -1.
         13   -1    0    0    0    0 -0.00000000000E+00 -0.00000000000E+00 -0.10000000000E+04  0.10000000000E+04  0.00000000000E+00 0.  1.
    9000005    2    1    2  501    0  0.10144105565E+02 -0.66660158507E+01 -0.98865949199E+03  0.98878308676E+03  0.98520518835E+01 0.  0.
         13    1    3    3    0    0  0.87214714782E+01 -0.49967705087E+01 -0.42323011844E+03  0.42334945959E+03  0.00000000000E+00 0.  1.
          3    1    3    3  501    0  0.14226340864E+01 -0.16692453420E+01 -0.56542937354E+03  0.56543362717E+03  0.00000000000E+00 0.  1.
         -3    1    1    2    0  502 -0.10144105565E+02  0.66660158507E+01 -0.80128531649E+01  0.14544568088E+02  0.00000000000E+00 0. -1.
<mgrwt>
<rscale>  1 0.30000000E+03</rscale>
<asrwt>0</asrwt>
<pdfrwt beam="1">  1       21 0.12100589E-01 0.30000000E+03</pdfrwt>
<pdfrwt beam="2">0</pdfrwt>
<totfact> 0.61038960E+03</totfact>
</mgrwt>
</event>
<event>
 6    1  0.1132867E-002  0.3000000E+03  0.7818608E-02  0.1093470E+00
         21   -1    0    0  501  502  0.00000000000E+00  0.00000000000E+00  0.18939800048E+00  0.18939800048E+00  0.00000000000E+00 0. -1.
         13   -1    0    0    0    0 -0.00000000000E+00 -0.00000000000E+00 -0.10000000000E+04  0.10000000000E+04  0.00000000000E+00 0.  1.
    9000005    2    1    2  501    0 -0.50718598351E+01  0.11244681545E+02 -0.67609493934E+03  0.67623878930E+03  0.65089576587E+01 0.  0.
         13    1    3    3    0    0 -0.56283737088E+01  0.11607943831E+02 -0.66422198314E+03  0.66434724793E+03  0.00000000000E+00 0.  1.
          1    1    3    3  501    0  0.55651387377E+00 -0.36326228612E+00 -0.11872956203E+02  0.11891541371E+02  0.00000000000E+00 0.  1.
         -3    1    1    2    0  502  0.50718598351E+01 -0.11244681545E+02 -0.32371566266E+03  0.32395060870E+03  0.00000000000E+00 0. -1.
<mgrwt>
<rscale>  1 0.30000000E+03</rscale>
<asrwt>0</asrwt>
<pdfrwt beam="1">  1       21 0.68872145E-03 0.30000000E+03</pdfrwt>
<pdfrwt beam="2">0</pdfrwt>
<totfact> 0.72762343E+05</totfact>
</mgrwt>
</event>
<event>
 6    1  0.1132867E-002  0.3000000E+03  0.7818608E-02  0.1093470E+00
         21   -1    0    0  501  502  0.00000000000E+00  0.00000000000E+00  0.33260275278E+00  0.33260275278E+00  0.00000000000E+00 0. -1.
         13   -1    0    0    0    0 -0.00000000000E+00 -0.00000000000E+00 -0.10000000000E+04  0.10000000000E+04  0.00000000000E+00 0.  1.
    9000005    2    1    2  501    0  0.20870335805E+01 -0.16735843382E+02 -0.65849647484E+03  0.65874507011E+03  0.65586470156E+01 0.  0.
         13    1    3    3    0    0 -0.15012127087E+01 -0.10454008778E+02 -0.44750037639E+03  0.44762498457E+03  0.00000000000E+00 0.  1.
          3    1    3    3  501    0  0.35882462892E+01 -0.62818346039E+01 -0.21099609845E+03  0.21112008554E+03  0.00000000000E+00 0.  1.
         -3    1    1    2    0  502 -0.20870335805E+01  0.16735843382E+02 -0.34117092241E+03  0.34158753265E+03  0.00000000000E+00 0. -1.
<mgrwt>
<rscale>  1 0.30000000E+03</rscale>
<asrwt>0</asrwt>
<pdfrwt beam="1">  1       21 0.12094671E-02 0.30000000E+03</pdfrwt>
<pdfrwt beam="2">0</pdfrwt>
<totfact> 0.29849779E+05</totfact>
</mgrwt>
</event>
<event>
 6    1  0.1132867E-002  0.3000000E+03  0.7818608E-02  0.1093470E+00
         21   -1    0    0  501  502  0.00000000000E+00  0.00000000000E+00  0.21416146230E+00  0.21416146230E+00  0.00000000000E+00 0. -1.
         13   -1    0    0    0    0 -0.00000000000E+00 -0.00000000000E+00 -0.10000000000E+04  0.10000000000E+04  0.00000000000E+00 0.  1.
    9000005    2    1    2  501    0 -0.11126584484E+02  0.63679279480E+01 -0.66572703181E+03  0.66590945353E+03  0.88638613987E+01 0.  0.
         13    1    3    3    0    0 -0.50409782767E+01  0.73405732536E+01 -0.47329188924E+03  0.47337565199E+03  0.00000000000E+00 0.  1.
          3    1    3    3  501    0 -0.60856062070E+01 -0.97264530557E+00 -0.19243514257E+03  0.19253380154E+03  0.00000000000E+00 0.  1.
         -1    1    1    2    0  502  0.11126584484E+02 -0.63679279480E+01 -0.33405880673E+03  0.33430470793E+03  0.00000000000E+00 0. -1.
<mgrwt>
<rscale>  1 0.30000000E+03</rscale>
<asrwt>0</asrwt>
<pdfrwt beam="1">  1       21 0.77877060E-03 0.30000000E+03</pdfrwt>
<pdfrwt beam="2">0</pdfrwt>
<totfact> 0.59993719E+05</totfact>
</mgrwt>
</event>
<event>
 6    1  0.1132867E-002  0.3000000E+03  0.7818608E-02  0.1093470E+00
         21   -1    0    0  501  502  0.00000000000E+00  0.00000000000E+00  0.14773933896E+00  0.14773933896E+00  0.00000000000E+00 0. -1.
         13   -1    0    0    0    0 -0.00000000000E+00 -0.00000000000E+00 -0.10000000000E+04  0.10000000000E+04  0.00000000000E+00 0.  1.
    9000005    2    1    2  501    0  0.79505495236E+01  0.63324201582E+01 -0.67204690775E+03  0.67218484482E+03  0.90613800986E+01 0.  0.
         13    1    3    3    0    0  0.77999700335E+01  0.59317071281E+01 -0.67069930014E+03  0.67077088182E+03  0.00000000000E+00 0.  1.
          3    1    3    3  501    0  0.15057949005E+00  0.40071303010E+00 -0.13476076048E+01  0.14139630023E+01  0.00000000000E+00 0.  1.
         -3    1    1    2    0  502 -0.79505495236E+01 -0.63324201582E+01 -0.32780535291E+03  0.32796289452E+03  0.00000000000E+00 0. -1.
<mgrwt>
<rscale>  1 0.30000000E+03</rscale>
<asrwt>0</asrwt>
<pdfrwt beam="1">  1       21 0.53723509E-03 0.30000000E+03</pdfrwt>
<pdfrwt beam="2">0</pdfrwt>
<totfact> 0.10724122E+06</totfact>
</mgrwt>
</event>
<event>
 6    1  0.1132867E-002  0.3000000E+03  0.7818608E-02  0.1093470E+00
         21   -1    0    0  501  502  0.00000000000E+00  0.00000000000E+00  0.12092793641E+00  0.12092793641E+00  0.00000000000E+00 0. -1.
         13   -1    0    0    0    0 -0.00000000000E+00 -0.00000000000E+00 -0.10000000000E+04  0.10000000000E+04  0.00000000000E+00 0.  1.
    9000005    2    1    2  501    0  0.99959923521E+01  0.23628381346E+01 -0.61148634281E+03  0.61159240259E+03  0.49210366047E+01 0.  0.
         13    1    3    3    0    0  0.33052794109E+01 -0.48005960484E+00 -0.10309730691E+03  0.10315139370E+03  0.00000000000E+00 0.  1.
          1    1    3    3  501    0  0.66907129412E+01  0.28428977394E+01 -0.50838903590E+03  0.50844100890E+03  0.00000000000E+00 0.  1.
         -1    1    1    2    0  502 -0.99959923521E+01 -0.23628381346E+01 -0.38839272925E+03  0.38852852534E+03  0.00000000000E+00 0. -1.
<mgrwt>
<rscale>  1 0.30000000E+03</rscale>
<asrwt>0</asrwt>
<pdfrwt beam="1">  1       21 0.43973888E-03 0.30000000E+03</pdfrwt>
<pdfrwt beam="2">0</pdfrwt>
<totfact> 0.14630820E+06</totfact>
</mgrwt>
</event>
<event>
 6    1  0.1132867E-002  0.3000000E+03  0.7818608E-02  0.1093470E+00
         21   -1    0    0  501  502  0.00000000000E+00  0.00000000000E+00  0.25473468578E+00  0.25473468578E+00  0.00000000000E+00 0. -1.
         13   -1    0    0    0    0 -0.00000000000E+00 -0.00000000000E+00 -0.10000000000E+04  0.10000000000E+04  0.00000000000E+00 0.  1.
    9000005    2    1    2  501    0 -0.42127123867E+00 -0.13872840443E+02 -0.54133082268E+03  0.54163023208E+03  0.11472382149E+02 0.  0.
         13    1    3    3    0    0  0.11451874972E+01 -0.73079844348E+01 -0.11086520610E+03  0.11111170962E+03  0.00000000000E+00 0.  1.
          1    1    3    3  501    0 -0.15664587359E+01 -0.65648560078E+01 -0.43046561658E+03  0.43051852247E+03  0.00000000000E+00 0.  1.
         -3    1    1    2    0  502  0.42127123867E+00  0.13872840443E+02 -0.45841444263E+03  0.45862450260E+03  0.00000000000E+00 0. -1.
<mgrwt>
<rscale>  1 0.30000000E+03</rscale>
<asrwt>0</asrwt>
<pdfrwt beam="1">  1       21 0.92630990E-03 0.30000000E+03</pdfrwt>
<pdfrwt beam="2">0</pdfrwt>
<totfact> 0.45621603E+05</totfact>
</mgrwt>
</event>
<event>
 6    1  0.1132867E-002  0.3000000E+03  0.7818608E-02  0.1093470E+00
         21   -1    0    0  501  502  0.00000000000E+00  0.00000000000E+00  0.14184401947E+00  0.14184401947E+00  0.00000000000E+00 0. -1.
         13   -1    0    0    0    0 -0.00000000000E+00 -0.00000000000E+00 -0.10000000000E+04  0.10000000000E+04  0.00000000000E+00 0.  1.
    9000005    2    1    2  501    0 -0.75834399704E+01 -0.63717603539E+01 -0.37159774847E+03  0.37180336236E+03  0.73990337674E+01 0.  0.
         13    1    3    3    0    0 -0.66881081850E+01 -0.11889056676E+01 -0.24936546626E+03  0.24945797251E+03  0.00000000000E+00 0.  1.
          1    1    3    3  501    0 -0.89533178541E+00 -0.51828546863E+01 -0.12223228221E+03  0.12234538985E+03  0.00000000000E+00 0.  1.
         -3    1    1    2    0  502  0.75834399704E+01  0.63717603539E+01 -0.62826040751E+03  0.62833848166E+03  0.00000000000E+00 0. -1.
<mgrwt>
<rscale>  1 0.30000000E+03</rscale>
<asrwt>0</asrwt>
<pdfrwt beam="1">  1       21 0.51579752E-03 0.30000000E+03</pdfrwt>
<pdfrwt beam="2">0</pdfrwt>
<totfact> 0.11424926E+06</totfact>
</mgrwt>
</event>
<event>
 6    1  0.1132867E-002  0.3000000E+03  0.7818608E-02  0.1093470E+00
         21   -1    0    0  501  502  0.00000000000E+00  0.00000000000E+00  0.11378112023E+01  0.11378112023E+01  0.00000000000E+00 0. -1.
         13   -1    0    0    0    0 -0.00000000000E+00 -0.00000000000E+00 -0.10000000000E+04  0.10000000000E+04  0.00000000000E+00 0.  1.
    9000005    2    1    2  501    0 -0.96128287160E+01  0.26801887021E+02 -0.76595148673E+03  0.76649309517E+03  0.43860342919E+01 0.  0.
         13    1    3    3    0    0 -0.25441696439E+01  0.12398286953E+02 -0.37106307968E+03  0.37127887015E+03  0.00000000000E+00 0.  1.
          1    1    3    3  501    0 -0.70686590721E+01  0.14403600068E+02 -0.39488840705E+03  0.39521422502E+03  0.00000000000E+00 0.  1.
         -3    1    1    2    0  502  0.96128287160E+01 -0.26801887021E+02 -0.23291070207E+03  0.23464471603E+03  0.00000000000E+00 0. -1.
<mgrwt>
<rscale>  1 0.30000000E+03</rscale>
<asrwt>0</asrwt>
<pdfrwt beam="1">  1       21 0.41375040E-02 0.30000000E+03</pdfrwt>
<pdfrwt beam="2">0</pdfrwt>
<totfact> 0.39718906E+04</totfact>
</mgrwt>
</event>
<event>
 6    1  0.1132867E-002  0.3000000E+03  0.7818608E-02  0.1093470E+00
         21   -1    0    0  501  502  0.00000000000E+00  0.00000000000E+00  0.33252375633E+00  0.33252375633E+00  0.00000000000E+00 0. -1.
         13   -1    0    0    0    0 -0.00000000000E+00 -0.00000000000E+00 -0.10000000000E+04  0.10000000000E+04  0.00000000000E+00 0.  1.
    9000005    2    1    2  501    0  0.10747938764E+02 -0.23133730364E+01 -0.89207972149E+03  0.89218450087E+03  0.81292193122E+01 0.  0.
         13    1    3    3    0    0 -0.12549703775E+01 -0.38853536290E+00 -0.50921873914E+02  0.50938817746E+02  0.00000000000E+00 0.  1.
          1    1    3    3  501    0  0.12002909141E+02 -0.19248376735E+01 -0.84115784758E+03  0.84124568312E+03  0.00000000000E+00 0.  1.
         -1    1    1    2    0  502 -0.10747938764E+02  0.23133730364E+01 -0.10758775475E+03  0.10814802289E+03  0.00000000000E+00 0. -1.
<mgrwt>
<rscale>  1 0.30000000E+03</rscale>
<asrwt>0</asrwt>
<pdfrwt beam="1">  1       21 0.12091798E-02 0.30000000E+03</pdfrwt>
<pdfrwt beam="2">0</pdfrwt>
<totfact> 0.29861109E+05</totfact>
</mgrwt>
</event>
<event>
 6    1  0.1132867E-002  0.3000000E+03  0.7818608E-02  0.1093470E+00
         21   -1    0    0  501  502  0.00000000000E+00  0.00000000000E+00  0.70195064395E+00  0.70195064395E+00  0.00000000000E+00 0. -1.
         13   -1    0    0    0    0 -0.00000000000E+00 -0.00000000000E+00 -0.10000000000E+04  0.10000000000E+04  0.00000000000E+00 0.  1.
    9000005    2    1    2  501    0  0.15130852154E+02  0.21018880087E+01 -0.15041944920E+03  0.15168590932E+03  0.12216536699E+02 0.  0.
         13    1    3    3    0    0  0.27688531746E+01 -0.87465411923E+00 -0.55883273183E+01  0.62976956061E+01  0.00000000000E+00 0.  1.
          1    1    3    3  501    0  0.12361998980E+02  0.29765421279E+01 -0.14483112188E+03  0.14538821372E+03  0.00000000000E+00 0.  1.
         -1    1    1    2    0  502 -0.15130852154E+02 -0.21018880087E+01 -0.84887860015E+03  0.84901604132E+03  0.00000000000E+00 0. -1.
<mgrwt>
<rscale>  1 0.30000000E+03</rscale>
<asrwt>0</asrwt>
<pdfrwt beam="1">  1       21 0.25525532E-02 0.30000000E+03</pdfrwt>
<pdfrwt beam="2">0</pdfrwt>
<totfact> 0.88872630E+04</totfact>
</mgrwt>
</event>
<event>
 6    1  0.1360581E-002  0.3000000E+03  0.7818608E-02  0.1093470E+00
         21   -1    0    0  501  502  0.00000000000E+00  0.00000000000E+00  0.37060959775E+01  0.37060959775E+01  0.00000000000E+00 0. -1.
         13   -1    0    0    0    0 -0.00000000000E+00 -0.00000000000E+00 -0.10000000000E+04  0.10000000000E+04  0.00000000000E+00 0.  1.
    9000005    2    1    2  501    0 -0.14972610533E+02 -0.19680349761E+02 -0.94589496877E+03  0.94756744702E+03  0.50549772128E+02 0.  0.
         13    1    3    3    0    0  0.95134719325E+00  0.10399551264E+02 -0.57974614017E+03  0.57984018727E+03  0.00000000000E+00 0.  1.
          3    1    3    3  501    0 -0.15923957726E+02 -0.30079901025E+02 -0.36614882860E+03  0.36772725975E+03  0.00000000000E+00 0.  1.
         -1    1    1    2    0  502  0.14972610533E+02  0.19680349761E+02 -0.50398935248E+02  0.56138648960E+02  0.00000000000E+00 0. -1.
<mgrwt>
<rscale>  1 0.30000000E+03</rscale>
<asrwt>0</asrwt>
<pdfrwt beam="1">  1       21 0.13476741E-01 0.30000000E+03</pdfrwt>
<pdfrwt beam="2">0</pdfrwt>
<totfact> 0.50151135E+03</totfact>
</mgrwt>
</event>
<event>
 6    1  0.1132867E-002  0.3000000E+03  0.7818608E-02  0.1093470E+00
         21   -1    0    0  501  502  0.00000000000E+00  0.00000000000E+00  0.25047810260E+00  0.25047810260E+00  0.00000000000E+00 0. -1.
         13   -1    0    0    0    0 -0.00000000000E+00 -0.00000000000E+00 -0.10000000000E+04  0.10000000000E+04  0.00000000000E+00 0.  1.
    9000005    2    1    2  501    0 -0.78736377981E+01 -0.75665780673E+01 -0.84032415901E+03  0.84045156194E+03  0.97410713552E+01 0.  0.
         13    1    3    3    0    0 -0.16137478044E+01 -0.77423898694E+01 -0.36182134248E+03  0.36190776816E+03  0.00000000000E+00 0.  1.
          3    1    3    3  501    0 -0.62598899937E+01  0.17581180203E+00 -0.47850281654E+03  0.47854379378E+03  0.00000000000E+00 0.  1.
         -3    1    1    2    0  502  0.78736377981E+01  0.75665780673E+01 -0.15942536288E+03  0.15979891616E+03  0.00000000000E+00 0. -1.
<mgrwt>
<rscale>  1 0.30000000E+03</rscale>
<asrwt>0</asrwt>
<pdfrwt beam="1">  1       21 0.91083138E-03 0.30000000E+03</pdfrwt>
<pdfrwt beam="2">0</pdfrwt>
<totfact> 0.46854150E+05</totfact>
</mgrwt>
</event>
<event>
 6    1  0.1132867E-002  0.3000000E+03  0.7818608E-02  0.1093470E+00
         21   -1    0    0  501  502  0.00000000000E+00  0.00000000000E+00  0.38831333598E+00  0.38831333598E+00  0.00000000000E+00 0. -1.
         13   -1    0    0    0    0 -0.00000000000E+00 -0.00000000000E+00 -0.10000000000E+04  0.10000000000E+04  0.00000000000E+00 0.  1.
    9000005    2    1    2  501    0 -0.33147968029E+01  0.15987179459E+02 -0.71353481602E+03  0.71384590164E+03  0.13321404808E+02 0.  0.
         13    1    3    3    0    0 -0.21121147519E+01 -0.76198850906E+00 -0.23555236640E+02  0.23662012348E+02  0.00000000000E+00 0.  1.
          3    1    3    3  501    0 -0.12026820510E+01  0.16749167968E+02 -0.68997957938E+03  0.69018388929E+03  0.00000000000E+00 0.  1.
         -3    1    1    2    0  502  0.33147968029E+01 -0.15987179459E+02 -0.28607687064E+03  0.28654241169E+03  0.00000000000E+00 0. -1.
<mgrwt>
<rscale>  1 0.30000000E+03</rscale>
<asrwt>0</asrwt>
<pdfrwt beam="1">  1       21 0.14120515E-02 0.30000000E+03</pdfrwt>
<pdfrwt beam="2">0</pdfrwt>
<totfact> 0.23287573E+05</totfact>
</mgrwt>
</event>
<event>
 6    1  0.1132867E-002  0.3000000E+03  0.7818608E-02  0.1093470E+00
         21   -1    0    0  501  502  0.00000000000E+00  0.00000000000E+00  0.19209313270E+00  0.19209313270E+00  0.00000000000E+00 0.  1.
         13   -1    0    0    0    0 -0.00000000000E+00 -0.00000000000E+00 -0.10000000000E+04  0.10000000000E+04  0.00000000000E+00 0.  1.
    9000005    2    1    2  501    0 -0.82952695871E+01  0.17736134866E+01 -0.78324604300E+03  0.78346415750E+03  0.16424524599E+02 0.  0.
         13    1    3    3    0    0 -0.91572770306E+00 -0.49697687054E+01 -0.87182426660E+02  0.87328762023E+02  0.00000000000E+00 0.  1.
          1    1    3    3  501    0 -0.73795418840E+01  0.67433821920E+01 -0.69606361634E+03  0.69613539548E+03  0.00000000000E+00 0.  1.
         -1    1    1    2    0  502  0.82952695871E+01 -0.17736134866E+01 -0.21656186386E+03  0.21672793563E+03  0.00000000000E+00 0. -1.
<mgrwt>
<rscale>  1 0.30000000E+03</rscale>
<asrwt>0</asrwt>
<pdfrwt beam="1">  1       21 0.69852196E-03 0.30000000E+03</pdfrwt>
<pdfrwt beam="2">0</pdfrwt>
<totfact> 0.71168547E+05</totfact>
</mgrwt>
</event>
<event>
 6    1  0.1132867E-002  0.3000000E+03  0.7818608E-02  0.1093470E+00
         21   -1    0    0  501  502  0.00000000000E+00  0.00000000000E+00  0.19406504470E+00  0.19406504470E+00  0.00000000000E+00 0. -1.
         13   -1    0    0    0    0 -0.00000000000E+00 -0.00000000000E+00 -0.10000000000E+04  0.10000000000E+04  0.00000000000E+00 0.  1.
    9000005    2    1    2  501    0 -0.51223960158E+01 -0.11475374097E+02 -0.61205467680E+03  0.61223922057E+03  0.82469787106E+01 0.  0.
         13    1    3    3    0    0 -0.66152686740E+01 -0.47569077565E+01 -0.32859096449E+03  0.32869197115E+03  0.00000000000E+00 0.  1.
          3    1    3    3  501    0  0.14928726583E+01 -0.67184663405E+01 -0.28346371231E+03  0.28354724942E+03  0.00000000000E+00 0.  1.
         -3    1    1    2    0  502  0.51223960158E+01  0.11475374097E+02 -0.38775125816E+03  0.38795484448E+03  0.00000000000E+00 0. -1.
<mgrwt>
<rscale>  1 0.30000000E+03</rscale>
<asrwt>0</asrwt>
<pdfrwt beam="1">  1       21 0.70569256E-03 0.30000000E+03</pdfrwt>
<pdfrwt beam="2">0</pdfrwt>
<totfact> 0.70037931E+05</totfact>
</mgrwt>
</event>
<event>
 6    1  0.1132867E-002  0.3000000E+03  0.7818608E-02  0.1093470E+00
         21   -1    0    0  501  502  0.00000000000E+00  0.00000000000E+00  0.76233819877E+00  0.76233819877E+00  0.00000000000E+00 0. -1.
         13   -1    0    0    0    0 -0.00000000000E+00 -0.00000000000E+00 -0.10000000000E+04  0.10000000000E+04  0.00000000000E+00 0.  1.
    9000005    2    1    2  501    0 -0.83648398618E+01  0.13993455215E+02 -0.87451660693E+03  0.87498026927E+03  0.23353554076E+02 0.  0.
         13    1    3    3    0    0 -0.22637674096E+01 -0.45904423806E+01 -0.56901058868E+02  0.57130791211E+02  0.00000000000E+00 0.  1.
          3    1    3    3  501    0 -0.61010724523E+01  0.18583897596E+02 -0.81761554806E+03  0.81784947806E+03  0.00000000000E+00 0.  1.
         -1    1    1    2    0  502  0.83648398618E+01 -0.13993455215E+02 -0.12472105487E+03  0.12578206893E+03  0.00000000000E+00 0. -1.
<mgrwt>
<rscale>  1 0.30000000E+03</rscale>
<asrwt>0</asrwt>
<pdfrwt beam="1">  1       21 0.27721448E-02 0.30000000E+03</pdfrwt>
<pdfrwt beam="2">0</pdfrwt>
<totfact> 0.77549620E+04</totfact>
</mgrwt>
</event>
<event>
 6    1  0.1132867E-002  0.3000000E+03  0.7818608E-02  0.1093470E+00
         21   -1    0    0  501  502  0.00000000000E+00  0.00000000000E+00  0.58693191064E+00  0.58693191064E+00  0.00000000000E+00 0. -1.
         13   -1    0    0    0    0 -0.00000000000E+00 -0.00000000000E+00 -0.10000000000E+04  0.10000000000E+04  0.00000000000E+00 0.  1.
    9000005    2    1    2  501    0 -0.46435098146E+01  0.13897797563E+02 -0.89316356179E+03  0.89333177562E+03  0.92629517715E+01 0.  0.
         13    1    3    3    0    0 -0.54640529243E+00  0.11038603142E+02 -0.74926398565E+03  0.74934549408E+03  0.00000000000E+00 0.  1.
          3    1    3    3  501    0 -0.40971045222E+01  0.28591944212E+01 -0.14389957614E+03  0.14398628154E+03  0.00000000000E+00 0.  1.
         -1    1    1    2    0  502  0.46435098146E+01 -0.13897797563E+02 -0.10624950630E+03  0.10725515629E+03  0.00000000000E+00 0. -1.
<mgrwt>
<rscale>  1 0.30000000E+03</rscale>
<asrwt>0</asrwt>
<pdfrwt beam="1">  1       21 0.21343024E-02 0.30000000E+03</pdfrwt>
<pdfrwt beam="2">0</pdfrwt>
<totfact> 0.11921478E+05</totfact>
</mgrwt>
</event>
<event>
 6    1  0.1132867E-002  0.3000000E+03  0.7818608E-02  0.1093470E+00
         21   -1    0    0  501  502  0.00000000000E+00  0.00000000000E+00  0.10809502379E+00  0.10809502379E+00  0.00000000000E+00 0. -1.
         13   -1    0    0    0    0 -0.00000000000E+00 -0.00000000000E+00 -0.10000000000E+04  0.10000000000E+04  0.00000000000E+00 0.  1.
    9000005    2    1    2  501    0  0.30181624173E+01  0.89470392973E+01 -0.41440086595E+03  0.41454092074E+03  0.51902266632E+01 0.  0.
         13    1    3    3    0    0  0.19497918767E+01  0.73925334104E+01 -0.22347922637E+03  0.22360996368E+03  0.00000000000E+00 0.  1.
          3    1    3    3  501    0  0.10683705405E+01  0.15545058869E+01 -0.19092163958E+03  0.19093095706E+03  0.00000000000E+00 0.  1.
         -3    1    1    2    0  502 -0.30181624173E+01 -0.89470392973E+01 -0.58549103903E+03  0.58556717428E+03  0.00000000000E+00 0. -1.
<mgrwt>
<rscale>  1 0.30000000E+03</rscale>
<asrwt>0</asrwt>
<pdfrwt beam="1">  1       21 0.39307364E-03 0.30000000E+03</pdfrwt>
<pdfrwt beam="2">0</pdfrwt>
<totfact> 0.17397802E+06</totfact>
</mgrwt>
</event>
<event>
 6    1  0.1132867E-002  0.3000000E+03  0.7818608E-02  0.1093470E+00
         21   -1    0    0  501  502  0.00000000000E+00  0.00000000000E+00  0.66247797299E+00  0.66247797299E+00  0.00000000000E+00 0. -1.
         13   -1    0    0    0    0 -0.00000000000E+00 -0.00000000000E+00 -0.10000000000E+04  0.10000000000E+04  0.00000000000E+00 0.  1.
    9000005    2    1    2  501    0  0.10423218500E+02  0.73366842839E+01 -0.92813873349E+03  0.92833172442E+03  0.13993267779E+02 0.  0.
         13    1    3    3    0    0  0.26762776572E+01 -0.76435846256E+00 -0.31445823503E+02  0.31568758635E+02  0.00000000000E+00 0.  1.
          1    1    3    3  501    0  0.77469408424E+01  0.81010427464E+01 -0.89669290998E+03  0.89676296578E+03  0.00000000000E+00 0.  1.
         -1    1    1    2    0  502 -0.10423218500E+02 -0.73366842839E+01 -0.71198788541E+02  0.72330753555E+02  0.00000000000E+00 0. -1.
<mgrwt>
<rscale>  1 0.30000000E+03</rscale>
<asrwt>0</asrwt>
<pdfrwt beam="1">  1       21 0.24090159E-02 0.30000000E+03</pdfrwt>
<pdfrwt beam="2">0</pdfrwt>
<totfact> 0.97749892E+04</totfact>
</mgrwt>
</event>
<event>
 6    1  0.1132867E-002  0.3000000E+03  0.7818608E-02  0.1093470E+00
         21   -1    0    0  501  502  0.00000000000E+00  0.00000000000E+00  0.11314855910E+00  0.11314855910E+00  0.00000000000E+00 0. -1.
         13   -1    0    0    0    0 -0.00000000000E+00 -0.00000000000E+00 -0.10000000000E+04  0.10000000000E+04  0.00000000000E+00 0.  1.
    9000005    2    1    2  501    0  0.49762441272E+01  0.76248407233E+01 -0.74586063671E+03  0.74592381170E+03  0.33678283742E+01 0.  0.
         13    1    3    3    0    0 -0.34488882904E+00  0.11099594097E+01 -0.13932356671E+03  0.13932841490E+03  0.00000000000E+00 0.  1.
          3    1    3    3  501    0  0.53211329562E+01  0.65148813136E+01 -0.60653707000E+03  0.60659539680E+03  0.00000000000E+00 0.  1.
         -1    1    1    2    0  502 -0.49762441272E+01 -0.76248407233E+01 -0.25402621473E+03  0.25418933686E+03  0.00000000000E+00 0. -1.
<mgrwt>
<rscale>  1 0.30000000E+03</rscale>
<asrwt>0</asrwt>
<pdfrwt beam="1">  1       21 0.41145017E-03 0.30000000E+03</pdfrwt>
<pdfrwt beam="2">0</pdfrwt>
<totfact> 0.16213533E+06</totfact>
</mgrwt>
</event>
<event>
 6    1  0.1132867E-002  0.3000000E+03  0.7818608E-02  0.1093470E+00
         21   -1    0    0  501  502  0.00000000000E+00  0.00000000000E+00  0.13667886047E+00  0.13667886047E+00  0.00000000000E+00 0. -1.
         13   -1    0    0    0    0 -0.00000000000E+00 -0.00000000000E+00 -0.10000000000E+04  0.10000000000E+04  0.00000000000E+00 0.  1.
    9000005    2    1    2  501    0 -0.10230399565E+02 -0.76948447562E+00 -0.65041390057E+03  0.65053669214E+03  0.73819088656E+01 0.  0.
         13    1    3    3    0    0  0.93338200712E+00 -0.73777210460E+00 -0.32146080524E+02  0.32168089821E+02  0.00000000000E+00 0.  1.
          3    1    3    3  501    0 -0.11163781572E+02 -0.31712371023E-01 -0.61826782005E+03  0.61836860232E+03  0.00000000000E+00 0.  1.
         -3    1    1    2    0  502  0.10230399565E+02  0.76948447562E+00 -0.34944942057E+03  0.34959998672E+03  0.00000000000E+00 0. -1.
<mgrwt>
<rscale>  1 0.30000000E+03</rscale>
<asrwt>0</asrwt>
<pdfrwt beam="1">  1       21 0.49701509E-03 0.30000000E+03</pdfrwt>
<pdfrwt beam="2">0</pdfrwt>
<totfact> 0.12102558E+06</totfact>
</mgrwt>
</event>
<event>
 6    1  0.1132867E-002  0.3000000E+03  0.7818608E-02  0.1093470E+00
         21   -1    0    0  501  502  0.00000000000E+00  0.00000000000E+00  0.42989010195E+01  0.42989010195E+01  0.00000000000E+00 0. -1.
         13   -1    0    0    0    0 -0.00000000000E+00 -0.00000000000E+00 -0.10000000000E+04  0.10000000000E+04  0.00000000000E+00 0.  1.
    9000005    2    1    2  501    0  0.32941744527E+02 -0.13098621015E+02 -0.91997612287E+03  0.92068667457E+03  0.71521796423E+01 0.  0.
         13    1    3    3    0    0  0.63893019448E+01 -0.20461022744E+01 -0.11371344846E+03  0.11391118503E+03  0.00000000000E+00 0.  1.
          1    1    3    3  501    0  0.26552442582E+02 -0.11052518740E+02 -0.80626267441E+03  0.80677548954E+03  0.00000000000E+00 0.  1.
         -1    1    1    2    0  502 -0.32941744527E+02  0.13098621015E+02 -0.75724976106E+02  0.83612226446E+02  0.00000000000E+00 0. -1.
<mgrwt>
<rscale>  1 0.30000000E+03</rscale>
<asrwt>0</asrwt>
<pdfrwt beam="1">  1       21 0.15632400E-01 0.30000000E+03</pdfrwt>
<pdfrwt beam="2">0</pdfrwt>
<totfact> 0.38142517E+03</totfact>
</mgrwt>
</event>
<event>
 6    1  0.1132867E-002  0.3000000E+03  0.7818608E-02  0.1093470E+00
         21   -1    0    0  501  502  0.00000000000E+00  0.00000000000E+00  0.86260093821E-01  0.86260093821E-01  0.00000000000E+00 0. -1.
         13   -1    0    0    0    0 -0.00000000000E+00 -0.00000000000E+00 -0.10000000000E+04  0.10000000000E+04  0.00000000000E+00 0.  1.
    9000005    2    1    2  501    0  0.82386276126E+00  0.74676207568E+01 -0.60843950220E+03  0.60853993730E+03  0.81106926983E+01 0.  0.
         13    1    3    3    0    0 -0.19970327610E+01  0.37796445322E+01 -0.11630679227E+03  0.11638532460E+03  0.00000000000E+00 0.  1.
          3    1    3    3  501    0  0.28208955223E+01  0.36879762245E+01 -0.49213270993E+03  0.49215461270E+03  0.00000000000E+00 0.  1.
         -1    1    1    2    0  502 -0.82386276126E+00 -0.74676207568E+01 -0.39147423771E+03  0.39154632280E+03  0.00000000000E+00 0. -1.
<mgrwt>
<rscale>  1 0.30000000E+03</rscale>
<asrwt>0</asrwt>
<pdfrwt beam="1">  1       21 0.31367373E-03 0.30000000E+03</pdfrwt>
<pdfrwt beam="2">0</pdfrwt>
<totfact> 0.24610871E+06</totfact>
</mgrwt>
</event>
<event>
 6    1  0.1132867E-002  0.3000000E+03  0.7818608E-02  0.1093470E+00
         21   -1    0    0  501  502  0.00000000000E+00  0.00000000000E+00  0.25292490290E+00  0.25292490290E+00  0.00000000000E+00 0. -1.
         13   -1    0    0    0    0 -0.00000000000E+00 -0.00000000000E+00 -0.10000000000E+04  0.10000000000E+04  0.00000000000E+00 0.  1.
    9000005    2    1    2  501    0 -0.94037736907E+01  0.10236808172E+02 -0.71220799575E+03  0.71237804695E+03  0.70020977874E+01 0.  0.
         13    1    3    3    0    0 -0.27443819035E+01  0.64646693760E+01 -0.22401823196E+03  0.22412829325E+03  0.00000000000E+00 0.  1.
          1    1    3    3  501    0 -0.66593917872E+01  0.37721387958E+01 -0.48818976379E+03  0.48824975371E+03  0.00000000000E+00 0.  1.
         -1    1    1    2    0  502  0.94037736907E+01 -0.10236808172E+02 -0.28753907935E+03  0.28787487795E+03  0.00000000000E+00 0. -1.
<mgrwt>
<rscale>  1 0.30000000E+03</rscale>
<asrwt>0</asrwt>
<pdfrwt beam="1">  1       21 0.91972886E-03 0.30000000E+03</pdfrwt>
<pdfrwt beam="2">0</pdfrwt>
<totfact> 0.46139193E+05</totfact>
</mgrwt>
</event>
<event>
 6    1  0.1132867E-002  0.3000000E+03  0.7818608E-02  0.1093470E+00
         21   -1    0    0  501  502  0.00000000000E+00  0.00000000000E+00  0.12210310244E+00  0.12210310244E+00  0.00000000000E+00 0. -1.
         13   -1    0    0    0    0 -0.00000000000E+00 -0.00000000000E+00 -0.10000000000E+04  0.10000000000E+04  0.00000000000E+00 0.  1.
    9000005    2    1    2  501    0  0.29193704989E+01  0.10294474494E+02 -0.60624325539E+03  0.60634205038E+03  0.23018299223E+01 0.  0.
         13    1    3    3    0    0  0.26381220364E+01  0.62289347754E+01 -0.41756495381E+03  0.41761974327E+03  0.00000000000E+00 0.  1.
          1    1    3    3  501    0  0.28124846244E+00  0.40655397185E+01 -0.18867830158E+03  0.18872230711E+03  0.00000000000E+00 0.  1.
         -3    1    1    2    0  502 -0.29193704989E+01 -0.10294474494E+02 -0.39363464151E+03  0.39378005273E+03  0.00000000000E+00 0. -1.
<mgrwt>
<rscale>  1 0.30000000E+03</rscale>
<asrwt>0</asrwt>
<pdfrwt beam="1">  1       21 0.44401222E-03 0.30000000E+03</pdfrwt>
<pdfrwt beam="2">0</pdfrwt>
<totfact> 0.14413651E+06</totfact>
</mgrwt>
</event>
