<event>
 6    1  0.5382669E-003  0.6122953E+03  0.7818608E-02  0.9880220E-01
          1   -1    0    0  502    0  0.00000000000E+00  0.00000000000E+00  0.93749420334E+02  0.93749420334E+02  0.00000000000E+00 0.  1.
         13   -1    0    0    0    0 -0.00000000000E+00 -0.00000000000E+00 -0.10000000000E+04  0.10000000000E+04  0.00000000000E+00 0.  1.
    9000005    2    1    2  501    0  0.47233481502E-03  0.39766740829E-03 -0.90627359736E+03  0.10937263944E+04  0.61229534739E+03 0.  0.
         13    1    3    3    0    0 -0.25863517558E+03 -0.15609712968E+03 -0.36440073996E+03  0.47333536444E+03  0.00000000000E+00 0.  1.
          3    1    3    3  501    0  0.25863564792E+03  0.15609752735E+03 -0.54187285740E+03  0.62039102992E+03  0.00000000000E+00 0.  1.
         21    1    1    2  502  501 -0.47233481500E-03 -0.39766740830E-03  0.23017695662E-01  0.23025975618E-01  0.00000000000E+00 0. -1.
<mgrwt>
<rscale>  1 0.61229535E+03</rscale>
<asrwt>0</asrwt>
<pdfrwt beam="1">  1        1 0.34090770E+00 0.61229535E+03</pdfrwt>
<pdfrwt beam="2">0</pdfrwt>
<totfact> 0.24497214E+00</totfact>
</mgrwt>
</event>
<event>
 6    1  0.5382669E-003  0.6069337E+03  0.7818608E-02  0.9891124E-01
          1   -1    0    0  502    0  0.00000000000E+00  0.00000000000E+00  0.92153514740E+02  0.92153514740E+02  0.00000000000E+00 0.  1.
         13   -1    0    0    0    0 -0.00000000000E+00 -0.00000000000E+00 -0.10000000000E+04  0.10000000000E+04  0.00000000000E+00 0.  1.
    9000005    2    1    2  501    0  0.23593165465E-01 -0.72586994177E-01 -0.90788096519E+03  0.10920697629E+04  0.60693369836E+03 0.  0.
         13    1    3    3    0    0  0.70921862304E+02 -0.67900815447E+02  0.62728797352E+02  0.11651323233E+03  0.00000000000E+00 0.  1.
          1    1    3    3  501    0 -0.70898269139E+02  0.67828228453E+02 -0.97060976254E+03  0.97555653054E+03  0.00000000000E+00 0.  1.
         21    1    1    2  502  501 -0.23593165465E-01  0.72586994177E-01  0.34479931142E-01  0.83751864647E-01  0.00000000000E+00 0. -1.
<mgrwt>
<rscale>  1 0.60693370E+03</rscale>
<asrwt>0</asrwt>
<pdfrwt beam="1">  1        1 0.33510440E+00 0.60693370E+03</pdfrwt>
<pdfrwt beam="2">0</pdfrwt>
<totfact> 0.25984877E+00</totfact>
</mgrwt>
</event>
<event>
 6    1  0.5382669E-003  0.6292042E+03  0.7818608E-02  0.9846603E-01
          1   -1    0    0  502    0  0.00000000000E+00  0.00000000000E+00  0.98976510756E+02  0.98976510756E+02  0.00000000000E+00 0.  1.
         13   -1    0    0    0    0 -0.00000000000E+00 -0.00000000000E+00 -0.10000000000E+04  0.10000000000E+04  0.00000000000E+00 0.  1.
    9000005    2    1    2  501    0 -0.14019951362E-03 -0.14974824713E-03 -0.90102552013E+03  0.10989744695E+04  0.62920417734E+03 0.  0.
         13    1    3    3    0    0  0.29498319982E+03  0.33775802937E+02 -0.26884390436E+03  0.40054080685E+03  0.00000000000E+00 0.  1.
          3    1    3    3  501    0 -0.29498334002E+03 -0.33775952685E+02 -0.63218161576E+03  0.69843366269E+03  0.00000000000E+00 0.  1.
         21    1    1    2  502  501  0.14019951361E-03  0.14974824713E-03  0.20308824297E-02  0.20412162757E-02  0.00000000000E+00 0.  1.
<mgrwt>
<rscale>  1 0.62920418E+03</rscale>
<asrwt>0</asrwt>
<pdfrwt beam="1">  1        1 0.35991534E+00 0.62920418E+03</pdfrwt>
<pdfrwt beam="2">0</pdfrwt>
<totfact> 0.20181912E+00</totfact>
</mgrwt>
</event>
<event>
 6    1  0.5382669E-003  0.5396250E+03  0.7818608E-02  0.1003924E+00
          1   -1    0    0  502    0  0.00000000000E+00  0.00000000000E+00  0.72798827572E+02  0.72798827572E+02  0.00000000000E+00 0.  1.
         13   -1    0    0    0    0 -0.00000000000E+00 -0.00000000000E+00 -0.10000000000E+04  0.10000000000E+04  0.00000000000E+00 0.  1.
    9000005    2    1    2  501    0 -0.32564166190E-05  0.32609922386E-04 -0.92720122261E+03  0.10727987676E+04  0.53962495184E+03 0.  0.
         13    1    3    3    0    0  0.91837718220E+02 -0.16756443409E+02 -0.96686993416E+03  0.97136626175E+03  0.00000000000E+00 0.  1.
          3    1    3    3  501    0 -0.91837721476E+02  0.16756476019E+02  0.39668711555E+02  0.10143250589E+03  0.00000000000E+00 0.  1.
         21    1    1    2  502  501  0.32564166186E-05 -0.32609922384E-04  0.50177531306E-04  0.59931593798E-04  0.00000000000E+00 0.  1.
<mgrwt>
<rscale>  1 0.53962495E+03</rscale>
<asrwt>0</asrwt>
<pdfrwt beam="1">  1        1 0.26472357E+00 0.53962495E+03</pdfrwt>
<pdfrwt beam="2">0</pdfrwt>
<totfact> 0.52954871E+00</totfact>
</mgrwt>
</event>
<event>
 6    1  0.5382669E-003  0.6531750E+03  0.7818608E-02  0.9800840E-01
          1   -1    0    0  502    0  0.00000000000E+00  0.00000000000E+00  0.10666315571E+03  0.10666315571E+03  0.00000000000E+00 0.  1.
         13   -1    0    0    0    0 -0.00000000000E+00 -0.00000000000E+00 -0.10000000000E+04  0.10000000000E+04  0.00000000000E+00 0.  1.
    9000005    2    1    2  501    0  0.94965018491E-04 -0.21258180283E-04 -0.89334060450E+03  0.11066593942E+04  0.65317499891E+03 0.  0.
         13    1    3    3    0    0  0.21191333257E+03 -0.13877924577E+03 -0.97417103550E+02  0.27139828968E+03  0.00000000000E+00 0.  1.
          3    1    3    3  501    0 -0.21191323760E+03  0.13877922451E+03 -0.79592350095E+03  0.83526110456E+03  0.00000000000E+00 0.  1.
         21    1    1    2  502  501 -0.94965018497E-04  0.21258180281E-04  0.37602166387E-02  0.37614756991E-02  0.00000000000E+00 0.  1.
<mgrwt>
<rscale>  1 0.65317500E+03</rscale>
<asrwt>0</asrwt>
<pdfrwt beam="1">  1        1 0.38786684E+00 0.65317500E+03</pdfrwt>
<pdfrwt beam="2">0</pdfrwt>
<totfact> 0.15137958E+00</totfact>
</mgrwt>
</event>
<event>
 6    1  0.5382669E-003  0.6554350E+03  0.7818608E-02  0.9796634E-01
          1   -1    0    0  502    0  0.00000000000E+00  0.00000000000E+00  0.10741546704E+03  0.10741546704E+03  0.00000000000E+00 0.  1.
         13   -1    0    0    0    0 -0.00000000000E+00 -0.00000000000E+00 -0.10000000000E+04  0.10000000000E+04  0.00000000000E+00 0.  1.
    9000005    2    1    2  501    0  0.18902950934E-02  0.33324351435E-02 -0.89260098695E+03  0.11073985729E+04  0.65543502906E+03 0.  0.
         13    1    3    3    0    0  0.74599212903E+02  0.18995502744E+03 -0.87954099285E+03  0.90290659158E+03  0.00000000000E+00 0.  1.
          1    1    3    3  501    0 -0.74597322608E+02 -0.18995169501E+03 -0.13059994109E+02  0.20449198131E+03  0.00000000000E+00 0.  1.
         21    1    1    2  502  501 -0.18902950934E-02 -0.33324351435E-02  0.16453998785E-01  0.16894153294E-01  0.00000000000E+00 0.  1.
<mgrwt>
<rscale>  1 0.65543503E+03</rscale>
<asrwt>0</asrwt>
<pdfrwt beam="1">  1        1 0.39060252E+00 0.65543503E+03</pdfrwt>
<pdfrwt beam="2">0</pdfrwt>
<totfact> 0.14714928E+00</totfact>
</mgrwt>
</event>
<event>
 6    1  0.7450892E-003  0.6304184E+03  0.7818608E-02  0.9844233E-01
          1   -1    0    0  502    0  0.00000000000E+00  0.00000000000E+00  0.99356832495E+02  0.99356832495E+02  0.00000000000E+00 0.  1.
         13   -1    0    0    0    0 -0.00000000000E+00 -0.00000000000E+00 -0.10000000000E+04  0.10000000000E+04  0.00000000000E+00 0.  1.
    9000005    2    1    2  501    0  0.12455139142E-04 -0.70981501992E-05 -0.90064316249E+03  0.10993568173E+04  0.63041835762E+03 0.  0.
         13    1    3    3    0    0  0.16538917074E+03  0.57651006133E+02  0.66863475193E+01  0.17527670566E+03  0.00000000000E+00 0.  1.
          1    1    3    3  501    0 -0.16538915828E+03 -0.57651013232E+02 -0.90732951001E+03  0.92408011164E+03  0.00000000000E+00 0.  1.
         21    1    1    2  502  501 -0.12455139138E-04  0.70981501948E-05 -0.50151459360E-05  0.15187689617E-04  0.00000000000E+00 0.  1.
<mgrwt>
<rscale>  1 0.63041836E+03</rscale>
<asrwt>0</asrwt>
<pdfrwt beam="1">  1        1 0.36129833E+00 0.63041836E+03</pdfrwt>
<pdfrwt beam="2">0</pdfrwt>
<totfact> 0.19898356E+00</totfact>
</mgrwt>
</event>
<event>
 6    1  0.5382669E-003  0.6385760E+03  0.7818608E-02  0.9828455E-01
          1   -1    0    0  502    0  0.00000000000E+00  0.00000000000E+00  0.10196404932E+03  0.10196404932E+03  0.00000000000E+00 0.  1.
         13   -1    0    0    0    0 -0.00000000000E+00 -0.00000000000E+00 -0.10000000000E+04  0.10000000000E+04  0.00000000000E+00 0.  1.
    9000005    2    1    2  501    0  0.40385213782E-02  0.64819219460E-04 -0.89805493773E+03  0.11019446374E+04  0.63857600388E+03 0.  0.
         13    1    3    3    0    0  0.12968457044E+02 -0.31291138515E+03 -0.55628256583E+03  0.63838233754E+03  0.00000000000E+00 0.  1.
          3    1    3    3  501    0 -0.12964418523E+02  0.31291144997E+03 -0.34177237191E+03  0.46356229988E+03  0.00000000000E+00 0.  1.
         21    1    1    2  502  501 -0.40385213782E-02 -0.64819219468E-04  0.18987047636E-01  0.19411899299E-01  0.00000000000E+00 0.  1.
<mgrwt>
<rscale>  1 0.63857600E+03</rscale>
<asrwt>0</asrwt>
<pdfrwt beam="1">  1        1 0.37077914E+00 0.63857600E+03</pdfrwt>
<pdfrwt beam="2">0</pdfrwt>
<totfact> 0.18055388E+00</totfact>
</mgrwt>
</event>
<event>
 6    1  0.5382669E-003  0.6386989E+03  0.7818608E-02  0.9828219E-01
          1   -1    0    0  502    0  0.00000000000E+00  0.00000000000E+00  0.10198428202E+03  0.10198428202E+03  0.00000000000E+00 0.  1.
         13   -1    0    0    0    0 -0.00000000000E+00 -0.00000000000E+00 -0.10000000000E+04  0.10000000000E+04  0.00000000000E+00 0.  1.
    9000005    2    1    2  501    0  0.10587060459E-04  0.12279988056E-04 -0.89801592138E+03  0.11019840780E+04  0.63869892209E+03 0.  0.
         13    1    3    3    0    0  0.11227983240E+03 -0.78482875146E+02  0.48714381832E+02  0.14539399387E+03  0.00000000000E+00 0.  1.
          3    1    3    3  501    0 -0.11227982182E+03  0.78482887426E+02 -0.94673030321E+03  0.95659008411E+03  0.00000000000E+00 0.  1.
         21    1    1    2  502  501 -0.10587060463E-04 -0.12279988059E-04  0.20339633679E-03  0.20404154914E-03  0.00000000000E+00 0.  1.
<mgrwt>
<rscale>  1 0.63869892E+03</rscale>
<asrwt>0</asrwt>
<pdfrwt beam="1">  1        1 0.37085272E+00 0.63869892E+03</pdfrwt>
<pdfrwt beam="2">0</pdfrwt>
<totfact> 0.18041550E+00</totfact>
</mgrwt>
</event>
<event>
 6    1  0.5382669E-003  0.6573863E+03  0.7818608E-02  0.9793017E-01
          1   -1    0    0  502    0  0.00000000000E+00  0.00000000000E+00  0.11237230508E+03  0.11237230508E+03  0.00000000000E+00 0.  1.
         13   -1    0    0    0    0 -0.00000000000E+00 -0.00000000000E+00 -0.10000000000E+04  0.10000000000E+04  0.00000000000E+00 0.  1.
    9000005    2    1    2  501    0 -0.45370510800E-01 -0.16397059784E+00 -0.89195897339E+03  0.11080376865E+04  0.65738624536E+03 0.  0.
         13    1    3    3    0    0 -0.65202472873E+02  0.31531860381E+03 -0.55657579006E+03  0.64300372818E+03  0.00000000000E+00 0.  1.
          1    1    3    3  501    0  0.65157102362E+02 -0.31548257441E+03 -0.33538318333E+03  0.46503395834E+03  0.00000000000E+00 0.  1.
         21    1    1    2  502  501  0.45370510800E-01  0.16397059784E+00  0.43312784709E+01  0.43346185568E+01  0.00000000000E+00 0.  1.
<mgrwt>
<rscale>  1 0.65738627E+03</rscale>
<asrwt>0</asrwt>
<pdfrwt beam="1">  1        1 0.40862743E+00 0.65738627E+03</pdfrwt>
<pdfrwt beam="2">0</pdfrwt>
<totfact> 0.12225034E+00</totfact>
</mgrwt>
</event>
<event>
 6    1  0.5382669E-003  0.6382634E+03  0.7818608E-02  0.9829055E-01
          1   -1    0    0  502    0  0.00000000000E+00  0.00000000000E+00  0.10185903435E+03  0.10185903435E+03  0.00000000000E+00 0.  1.
         13   -1    0    0    0    0 -0.00000000000E+00 -0.00000000000E+00 -0.10000000000E+04  0.10000000000E+04  0.00000000000E+00 0.  1.
    9000005    2    1    2  501    0 -0.61562002134E-03  0.70243084025E-04 -0.89815493834E+03  0.11018450479E+04  0.63826343807E+03 0.  0.
         13    1    3    3    0    0 -0.28944187779E+03 -0.13315749523E+03 -0.48080188320E+03  0.57678242869E+03  0.00000000000E+00 0.  1.
          3    1    3    3  501    0  0.28944126217E+03  0.13315756548E+03 -0.41735305514E+03  0.52506261924E+03  0.00000000000E+00 0.  1.
         21    1    1    2  502  501  0.61562002131E-03 -0.70243084027E-04  0.13972689693E-01  0.13986421249E-01  0.00000000000E+00 0.  1.
<mgrwt>
<rscale>  1 0.63826344E+03</rscale>
<asrwt>0</asrwt>
<pdfrwt beam="1">  1        1 0.37039727E+00 0.63826344E+03</pdfrwt>
<pdfrwt beam="2">0</pdfrwt>
<totfact> 0.18126299E+00</totfact>
</mgrwt>
</event>
<event>
 6    1  0.5382669E-003  0.6727682E+03  0.7818608E-02  0.9764970E-01
          1   -1    0    0  502    0  0.00000000000E+00  0.00000000000E+00  0.11336272945E+03  0.11336272945E+03  0.00000000000E+00 0.  1.
         13   -1    0    0    0    0 -0.00000000000E+00 -0.00000000000E+00 -0.10000000000E+04  0.10000000000E+04  0.00000000000E+00 0.  1.
    9000005    2    1    2  501    0 -0.60350559674E-01  0.44582171920E-01 -0.88683820960E+03  0.11131482387E+04  0.67276815159E+03 0.  0.
         13    1    3    3    0    0 -0.21643012421E+03 -0.19936121641E+03 -0.71313651459E+03  0.77146003248E+03  0.00000000000E+00 0.  1.
          1    1    3    3  501    0  0.21636977365E+03  0.19940579858E+03 -0.17370169501E+03  0.34168820627E+03  0.00000000000E+00 0.  1.
         21    1    1    2  502  501  0.60350559674E-01 -0.44582171920E-01  0.20093904426E+00  0.21449069820E+00  0.00000000000E+00 0.  1.
<mgrwt>
<rscale>  1 0.67276816E+03</rscale>
<asrwt>0</asrwt>
<pdfrwt beam="1">  1        1 0.41222898E+00 0.67276816E+03</pdfrwt>
<pdfrwt beam="2">0</pdfrwt>
<totfact> 0.11744158E+00</totfact>
</mgrwt>
</event>
<event>
 6    1  0.5382669E-003  0.6679111E+03  0.7818608E-02  0.9773739E-01
          1   -1    0    0  502    0  0.00000000000E+00  0.00000000000E+00  0.11155259701E+03  0.11155259701E+03  0.00000000000E+00 0.  1.
         13   -1    0    0    0    0 -0.00000000000E+00 -0.00000000000E+00 -0.10000000000E+04  0.10000000000E+04  0.00000000000E+00 0.  1.
    9000005    2    1    2  501    0 -0.14482722437E-03  0.42266526469E-03 -0.88847367916E+03  0.11115263170E+04  0.66791112801E+03 0.  0.
         13    1    3    3    0    0 -0.22259529505E+03 -0.53058398641E+02 -0.39452039347E+02  0.23220749870E+03  0.00000000000E+00 0.  1.
          3    1    3    3  501    0  0.22259515022E+03  0.53058821306E+02 -0.84902163981E+03  0.87931881834E+03  0.00000000000E+00 0.  1.
         21    1    1    2  502  501  0.14482722437E-03 -0.42266526469E-03  0.26276165349E-01  0.26279963590E-01  0.00000000000E+00 0. -1.
<mgrwt>
<rscale>  1 0.66791113E+03</rscale>
<asrwt>0</asrwt>
<pdfrwt beam="1">  1        1 0.40564666E+00 0.66791113E+03</pdfrwt>
<pdfrwt beam="2">0</pdfrwt>
<totfact> 0.12581374E+00</totfact>
</mgrwt>
</event>
<event>
 6    1  0.5382669E-003  0.6757785E+03  0.7818608E-02  0.9759575E-01
          1   -1    0    0  502    0  0.00000000000E+00  0.00000000000E+00  0.11417324878E+03  0.11417324878E+03  0.00000000000E+00 0.  1.
         13   -1    0    0    0    0 -0.00000000000E+00 -0.00000000000E+00 -0.10000000000E+04  0.10000000000E+04  0.00000000000E+00 0.  1.
    9000005    2    1    2  501    0  0.11485034633E-02 -0.65643042598E-03 -0.88583073835E+03  0.11141690479E+04  0.67577849208E+03 0.  0.
         13    1    3    3    0    0 -0.19998828781E+03  0.26262136256E+03 -0.32398437110E+03  0.46252693765E+03  0.00000000000E+00 0.  1.
          1    1    3    3  501    0  0.19998943631E+03 -0.26262201899E+03 -0.56184636724E+03  0.65164211027E+03  0.00000000000E+00 0.  1.
         21    1    1    2  502  501 -0.11485034633E-02  0.65643042596E-03  0.39871273751E-02  0.42008506061E-02  0.00000000000E+00 0. -1.
<mgrwt>
<rscale>  1 0.67577849E+03</rscale>
<asrwt>0</asrwt>
<pdfrwt beam="1">  1        1 0.41517633E+00 0.67577849E+03</pdfrwt>
<pdfrwt beam="2">0</pdfrwt>
<totfact> 0.11384716E+00</totfact>
</mgrwt>
</event>
<event>
 6    1  0.5382670E-003  0.6614824E+03  0.7818608E-02  0.9785469E-01
          1   -1    0    0  502    0  0.00000000000E+00  0.00000000000E+00  0.10938999646E+03  0.10938999646E+03  0.00000000000E+00 0.  1.
         13   -1    0    0    0    0 -0.00000000000E+00 -0.00000000000E+00 -0.10000000000E+04  0.10000000000E+04  0.00000000000E+00 0.  1.
    9000005    2    1    2  501    0  0.52623451479E-03 -0.33936140505E-03 -0.89060963811E+03  0.11093892715E+04  0.66148244734E+03 0.  0.
         13    1    3    3    0    0 -0.68928357905E+02  0.31989370059E+03 -0.36475857864E+03  0.49003256921E+03  0.00000000000E+00 0.  1.
          3    1    3    3  501    0  0.68928884139E+02 -0.31989403995E+03 -0.52585105947E+03  0.61935670224E+03  0.00000000000E+00 0.  1.
         21    1    1    2  502  501 -0.52623451479E-03  0.33936140505E-03 -0.36543285728E-03  0.72500351791E-03  0.00000000000E+00 0. -1.
<mgrwt>
<rscale>  1 0.66148245E+03</rscale>
<asrwt>0</asrwt>
<pdfrwt beam="1">  1        1 0.39778264E+00 0.66148245E+03</pdfrwt>
<pdfrwt beam="2">0</pdfrwt>
<totfact> 0.13656976E+00</totfact>
</mgrwt>
</event>
<event>
 6    1  0.7561848E-003  0.6432226E+03  0.7818608E-02  0.9819580E-01
          1   -1    0    0  502    0  0.00000000000E+00  0.00000000000E+00  0.10343383049E+03  0.10343383049E+03  0.00000000000E+00 0.  1.
         13   -1    0    0    0    0 -0.00000000000E+00 -0.00000000000E+00 -0.10000000000E+04  0.10000000000E+04  0.00000000000E+00 0.  1.
    9000005    2    1    2  501    0  0.42117738985E-06 -0.10299840625E-05 -0.89656616900E+03  0.11034338293E+04  0.64322260545E+03 0.  0.
         13    1    3    3    0    0 -0.17004982887E+03 -0.30679475257E+02 -0.91360345535E+03  0.92980075722E+03  0.00000000000E+00 0.  1.
          1    1    3    3  501    0  0.17004982929E+03  0.30679474227E+02  0.17037286349E+02  0.17363307204E+03  0.00000000000E+00 0.  1.
         21    1    1    2  502  501 -0.42117741554E-06  0.10299840621E-05 -0.50887178581E-06  0.12236045431E-05  0.00000000000E+00 0. -1.
<mgrwt>
<rscale>  1 0.64322261E+03</rscale>
<asrwt>0</asrwt>
<pdfrwt beam="1">  1        1 0.37612381E+00 0.64322261E+03</pdfrwt>
<pdfrwt beam="2">0</pdfrwt>
<totfact> 0.17089468E+00</totfact>
</mgrwt>
</event>
<event>
 6    1  0.5382669E-003  0.6757293E+03  0.7818608E-02  0.9759663E-01
          1   -1    0    0  502    0  0.00000000000E+00  0.00000000000E+00  0.11425511221E+03  0.11425511221E+03  0.00000000000E+00 0.  1.
         13   -1    0    0    0    0 -0.00000000000E+00 -0.00000000000E+00 -0.10000000000E+04  0.10000000000E+04  0.00000000000E+00 0.  1.
    9000005    2    1    2  501    0 -0.13896663679E-01 -0.70963486851E-01 -0.88583307392E+03  0.11141410696E+04  0.67572929697E+03 0.  0.
         13    1    3    3    0    0 -0.28630072895E+03 -0.73375357901E+02 -0.17296588416E+03  0.34244597768E+03  0.00000000000E+00 0.  1.
          1    1    3    3  501    0  0.28628683229E+03  0.73304394415E+02 -0.71286718976E+03  0.77169509187E+03  0.00000000000E+00 0.  1.
         21    1    1    2  502  501  0.13896663679E-01  0.70963486851E-01  0.88186133626E-01  0.11404265821E+00  0.00000000000E+00 0.  1.
<mgrwt>
<rscale>  1 0.67572930E+03</rscale>
<asrwt>0</asrwt>
<pdfrwt beam="1">  1        1 0.41547401E+00 0.67572930E+03</pdfrwt>
<pdfrwt beam="2">0</pdfrwt>
<totfact> 0.11349752E+00</totfact>
</mgrwt>
</event>
<event>
 6    1  0.5382669E-003  0.6465792E+03  0.7818608E-02  0.9813219E-01
          1   -1    0    0  502    0  0.00000000000E+00  0.00000000000E+00  0.10451830422E+03  0.10451830422E+03  0.00000000000E+00 0.  1.
         13   -1    0    0    0    0 -0.00000000000E+00 -0.00000000000E+00 -0.10000000000E+04  0.10000000000E+04  0.00000000000E+00 0.  1.
    9000005    2    1    2  501    0 -0.48542250937E-04  0.34741024422E-05 -0.89548383748E+03  0.11045161620E+04  0.64657918992E+03 0.  0.
         13    1    3    3    0    0  0.79238979758E+02 -0.17085803818E+03  0.11234276334E+01  0.18834157060E+03  0.00000000000E+00 0.  1.
          3    1    3    3  501    0 -0.79239028300E+02  0.17085804166E+03 -0.89660726512E+03  0.91617459137E+03  0.00000000000E+00 0.  1.
         21    1    1    2  502  501  0.48542250939E-04 -0.34741024398E-05  0.21417015911E-02  0.21422544491E-02  0.00000000000E+00 0.  1.
<mgrwt>
<rscale>  1 0.64657919E+03</rscale>
<asrwt>0</asrwt>
<pdfrwt beam="1">  1        1 0.38006736E+00 0.64657919E+03</pdfrwt>
<pdfrwt beam="2">0</pdfrwt>
<totfact> 0.16408811E+00</totfact>
</mgrwt>
</event>
<event>
 6    1  0.5382669E-003  0.6490684E+03  0.7818608E-02  0.9808529E-01
          1   -1    0    0  502    0  0.00000000000E+00  0.00000000000E+00  0.10574359907E+03  0.10574359907E+03  0.00000000000E+00 0.  1.
         13   -1    0    0    0    0 -0.00000000000E+00 -0.00000000000E+00 -0.10000000000E+04  0.10000000000E+04  0.00000000000E+00 0.  1.
    9000005    2    1    2  501    0  0.64651939562E-01  0.19317098779E-01 -0.89467457980E+03  0.11053200113E+04  0.64906834703E+03 0.  0.
         13    1    3    3    0    0 -0.18356369045E+03 -0.25292620954E+03 -0.29846905261E+03  0.43214704822E+03  0.00000000000E+00 0.  1.
          3    1    3    3  501    0  0.18362834239E+03  0.25294552664E+03 -0.59620552719E+03  0.67317296309E+03  0.00000000000E+00 0.  1.
         21    1    1    2  502  501 -0.64651939562E-01 -0.19317098779E-01  0.41817886691E+00  0.42358775752E+00  0.00000000000E+00 0. -1.
<mgrwt>
<rscale>  1 0.64906835E+03</rscale>
<asrwt>0</asrwt>
<pdfrwt beam="1">  1        1 0.38452299E+00 0.64906835E+03</pdfrwt>
<pdfrwt beam="2">0</pdfrwt>
<totfact> 0.15674606E+00</totfact>
</mgrwt>
</event>
<event>
 6    1  0.5382669E-003  0.6849954E+03  0.7818608E-02  0.9743242E-01
          1   -1    0    0  502    0  0.00000000000E+00  0.00000000000E+00  0.13488772096E+03  0.13488772096E+03  0.00000000000E+00 0.  1.
         13   -1    0    0    0    0 -0.00000000000E+00 -0.00000000000E+00 -0.10000000000E+04  0.10000000000E+04  0.00000000000E+00 0.  1.
    9000005    2    1    2  501    0  0.31860333953E+01  0.59286534564E+01 -0.88197250634E+03  0.11167337405E+04  0.68496236800E+03 0.  0.
         13    1    3    3    0    0  0.44890070937E+02  0.32479726292E+03 -0.26735451234E+03  0.42306833460E+03  0.00000000000E+00 0.  1.
          1    1    3    3  501    0 -0.41704037542E+02 -0.31886860947E+03 -0.61461799400E+03  0.69366540594E+03  0.00000000000E+00 0.  1.
         21    1    1    2  502  501 -0.31860333953E+01 -0.59286534564E+01  0.16860227301E+02  0.18153980424E+02  0.00000000000E+00 0.  1.
<mgrwt>
<rscale>  1 0.68499543E+03</rscale>
<asrwt>0</asrwt>
<pdfrwt beam="1">  1        1 0.49050184E+00 0.68499543E+03</pdfrwt>
<pdfrwt beam="2">0</pdfrwt>
<totfact> 0.50948990E-01</totfact>
</mgrwt>
</event>
<event>
 6    1  0.5382669E-003  0.6526569E+03  0.7818608E-02  0.9801806E-01
          1   -1    0    0  502    0  0.00000000000E+00  0.00000000000E+00  0.12753950828E+03  0.12753950828E+03  0.00000000000E+00 0.  1.
         13   -1    0    0    0    0 -0.00000000000E+00 -0.00000000000E+00 -0.10000000000E+04  0.10000000000E+04  0.00000000000E+00 0.  1.
    9000005    2    1    2  501    0 -0.11314110996E+01  0.57864602126E+00 -0.89348851068E+03  0.11064731250E+04  0.65265568470E+03 0.  0.
         13    1    3    3    0    0 -0.11928998994E+03  0.13830895999E+03 -0.90632964910E+03  0.92455010840E+03  0.00000000000E+00 0.  1.
          1    1    3    3  501    0  0.11815857884E+03 -0.13773031397E+03  0.12841138424E+02  0.18192301662E+03  0.00000000000E+00 0.  1.
         21    1    1    2  502  501  0.11314110996E+01 -0.57864602126E+00  0.21028018956E+02  0.21066383256E+02  0.00000000000E+00 0. -1.
<mgrwt>
<rscale>  1 0.65265692E+03</rscale>
<asrwt>0</asrwt>
<pdfrwt beam="1">  1        1 0.46378101E+00 0.65265692E+03</pdfrwt>
<pdfrwt beam="2">0</pdfrwt>
<totfact> 0.68554195E-01</totfact>
</mgrwt>
</event>
<event>
 6    1  0.5382669E-003  0.6462170E+03  0.7818608E-02  0.9813904E-01
          1   -1    0    0  502    0  0.00000000000E+00  0.00000000000E+00  0.11208870219E+03  0.11208870219E+03  0.00000000000E+00 0.  1.
         13   -1    0    0    0    0 -0.00000000000E+00 -0.00000000000E+00 -0.10000000000E+04  0.10000000000E+04  0.00000000000E+00 0.  1.
    9000005    2    1    2  501    0 -0.14104096173E+00  0.87629293796E-01 -0.89559992251E+03  0.11043982847E+04  0.64621693142E+03 0.  0.
         13    1    3    3    0    0 -0.24593443701E+03 -0.14919110122E+02 -0.80524135347E+03  0.84209261040E+03  0.00000000000E+00 0.  1.
          3    1    3    3  501    0  0.24579339604E+03  0.15006739416E+02 -0.90358569042E+02  0.26230567429E+03  0.00000000000E+00 0.  1.
         21    1    1    2  502  501  0.14104096173E+00 -0.87629293796E-01  0.76886247024E+01  0.76904174959E+01  0.00000000000E+00 0.  1.
<mgrwt>
<rscale>  1 0.64621695E+03</rscale>
<asrwt>0</asrwt>
<pdfrwt beam="1">  1        1 0.40759614E+00 0.64621695E+03</pdfrwt>
<pdfrwt beam="2">0</pdfrwt>
<totfact> 0.12382362E+00</totfact>
</mgrwt>
</event>
<event>
 6    1  0.5382669E-003  0.6516947E+03  0.7818608E-02  0.9803604E-01
          1   -1    0    0  502    0  0.00000000000E+00  0.00000000000E+00  0.10617732839E+03  0.10617732839E+03  0.00000000000E+00 0.  1.
         13   -1    0    0    0    0 -0.00000000000E+00 -0.00000000000E+00 -0.10000000000E+04  0.10000000000E+04  0.00000000000E+00 0.  1.
    9000005    2    1    2  501    0  0.11159794329E-02 -0.22634549826E-02 -0.89381872371E+03  0.11061726428E+04  0.65169471753E+03 0.  0.
         13    1    3    3    0    0  0.11861655178E+03 -0.24436546293E+03 -0.75240509467E+03  0.79993611765E+03  0.00000000000E+00 0.  1.
          1    1    3    3  501    0 -0.11861543580E+03  0.24436319948E+03 -0.14141362904E+03  0.30623652517E+03  0.00000000000E+00 0.  1.
         21    1    1    2  502  501 -0.11159794329E-02  0.22634549826E-02 -0.39479024008E-02  0.46855706077E-02  0.00000000000E+00 0. -1.
<mgrwt>
<rscale>  1 0.65169472E+03</rscale>
<asrwt>0</asrwt>
<pdfrwt beam="1">  1        1 0.38610019E+00 0.65169472E+03</pdfrwt>
<pdfrwt beam="2">0</pdfrwt>
<totfact> 0.15417307E+00</totfact>
</mgrwt>
</event>
<event>
 6    1  0.5382669E-003  0.6515685E+03  0.7818608E-02  0.9803841E-01
          1   -1    0    0  502    0  0.00000000000E+00  0.00000000000E+00  0.10613537224E+03  0.10613537224E+03  0.00000000000E+00 0.  1.
         13   -1    0    0    0    0 -0.00000000000E+00 -0.00000000000E+00 -0.10000000000E+04  0.10000000000E+04  0.00000000000E+00 0.  1.
    9000005    2    1    2  501    0  0.63733554896E-05 -0.33633693590E-05 -0.89386463366E+03  0.11061353629E+04  0.65156845981E+03 0.  0.
         13    1    3    3    0    0 -0.21087568412E+03  0.19452329366E+03 -0.18488034142E+03  0.34130427271E+03  0.00000000000E+00 0.  1.
          3    1    3    3  501    0  0.21087569049E+03 -0.19452329702E+03 -0.70898429224E+03  0.76483109022E+03  0.00000000000E+00 0.  1.
         21    1    1    2  502  501 -0.63733555112E-05  0.33633693598E-05  0.59025564354E-05  0.93151535895E-05  0.00000000000E+00 0.  1.
<mgrwt>
<rscale>  1 0.65156846E+03</rscale>
<asrwt>0</asrwt>
<pdfrwt beam="1">  1        1 0.38594762E+00 0.65156846E+03</pdfrwt>
<pdfrwt beam="2">0</pdfrwt>
<totfact> 0.15441655E+00</totfact>
</mgrwt>
</event>
<event>
 6    1  0.5382669E-003  0.6336514E+03  0.7818608E-02  0.9837949E-01
          1   -1    0    0  502    0  0.00000000000E+00  0.00000000000E+00  0.10045893348E+03  0.10045893348E+03  0.00000000000E+00 0.  1.
         13   -1    0    0    0    0 -0.00000000000E+00 -0.00000000000E+00 -0.10000000000E+04  0.10000000000E+04  0.00000000000E+00 0.  1.
    9000005    2    1    2  501    0  0.10197847347E+00 -0.60579202461E-01 -0.89957039898E+03  0.11003367457E+04  0.63365135307E+03 0.  0.
         13    1    3    3    0    0 -0.19581555698E+03 -0.24703594901E+03 -0.50476955495E+03  0.59511578374E+03  0.00000000000E+00 0.  1.
          1    1    3    3  501    0  0.19591753546E+03  0.24697536981E+03 -0.39480084404E+03  0.50522096200E+03  0.00000000000E+00 0.  1.
         21    1    1    2  502  501 -0.10197847347E+00  0.60579202461E-01  0.29332457660E-01  0.12218773217E+00  0.00000000000E+00 0. -1.
<mgrwt>
<rscale>  1 0.63365136E+03</rscale>
<asrwt>0</asrwt>
<pdfrwt beam="1">  1        1 0.36530598E+00 0.63365136E+03</pdfrwt>
<pdfrwt beam="2">0</pdfrwt>
<totfact> 0.19099078E+00</totfact>
</mgrwt>
</event>
<event>
 6    1  0.5382669E-003  0.6533546E+03  0.7818608E-02  0.9800505E-01
          1   -1    0    0  502    0  0.00000000000E+00  0.00000000000E+00  0.10686201744E+03  0.10686201744E+03  0.00000000000E+00 0.  1.
         13   -1    0    0    0    0 -0.00000000000E+00 -0.00000000000E+00 -0.10000000000E+04  0.10000000000E+04  0.00000000000E+00 0.  1.
    9000005    2    1    2  501    0 -0.27431495138E-01  0.16747515878E-01 -0.89327996978E+03  0.11067164381E+04  0.65335455075E+03 0.  0.
         13    1    3    3    0    0 -0.41458100851E+02 -0.12408243616E+03  0.60406385689E+02  0.14409773254E+03  0.00000000000E+00 0.  1.
          3    1    3    3  501    0  0.41430669356E+02  0.12409918368E+03 -0.95368635547E+03  0.96261870559E+03  0.00000000000E+00 0.  1.
         21    1    1    2  502  501  0.27431495138E-01 -0.16747515878E-01  0.14198721319E+00  0.14557930802E+00  0.00000000000E+00 0.  1.
<mgrwt>
<rscale>  1 0.65335455E+03</rscale>
<asrwt>0</asrwt>
<pdfrwt beam="1">  1        1 0.38858997E+00 0.65335455E+03</pdfrwt>
<pdfrwt beam="2">0</pdfrwt>
<totfact> 0.15026191E+00</totfact>
</mgrwt>
</event>
<event>
 6    1  0.5382669E-003  0.6514907E+03  0.7818608E-02  0.9803986E-01
          3   -1    0    0  502    0  0.00000000000E+00  0.00000000000E+00  0.10628484884E+03  0.10628484884E+03  0.00000000000E+00 0.  1.
         13   -1    0    0    0    0 -0.00000000000E+00 -0.00000000000E+00 -0.10000000000E+04  0.10000000000E+04  0.00000000000E+00 0.  1.
    9000005    2    1    2  501    0 -0.11016546999E+00 -0.10571148783E+00 -0.89385232205E+03  0.11060795997E+04  0.65149066299E+03 0.  0.
         13    1    3    3    0    0  0.11535567631E+03 -0.14434279152E+02  0.69686342988E+02  0.13554138435E+03  0.00000000000E+00 0.  1.
          1    1    3    3  501    0 -0.11546584178E+03  0.14328567665E+02 -0.96353866504E+03  0.97053821537E+03  0.00000000000E+00 0.  1.
         21    1    1    2  502  501  0.11016546999E+00  0.10571148783E+00  0.13717089243E+00  0.20524912465E+00  0.00000000000E+00 0. -1.
<mgrwt>
<rscale>  1 0.65149068E+03</rscale>
<asrwt>0</asrwt>
<pdfrwt beam="1">  1        3 0.38649117E+00 0.65149068E+03</pdfrwt>
<pdfrwt beam="2">0</pdfrwt>
<totfact> 0.69738620E-02</totfact>
</mgrwt>
</event>
<event>
 6    1  0.5382669E-003  0.6927140E+03  0.7818608E-02  0.9729774E-01
          1   -1    0    0  502    0  0.00000000000E+00  0.00000000000E+00  0.12002702922E+03  0.12002702922E+03  0.00000000000E+00 0.  1.
         13   -1    0    0    0    0 -0.00000000000E+00 -0.00000000000E+00 -0.10000000000E+04  0.10000000000E+04  0.00000000000E+00 0.  1.
    9000005    2    1    2  501    0  0.26441862978E-01  0.60218674801E-01 -0.88001721870E+03  0.11199477617E+04  0.69271399539E+03 0.  0.
         13    1    3    3    0    0 -0.31747918266E+03 -0.96821286051E+02 -0.28008281064E+03  0.43429687274E+03  0.00000000000E+00 0.  1.
          3    1    3    3  501    0  0.31750562453E+03  0.96881504726E+02 -0.59993440806E+03  0.68565088896E+03  0.00000000000E+00 0.  1.
         21    1    1    2  502  501 -0.26441862978E-01 -0.60218674801E-01  0.44247917810E-01  0.79267516317E-01  0.00000000000E+00 0. -1.
<mgrwt>
<rscale>  1 0.69271400E+03</rscale>
<asrwt>0</asrwt>
<pdfrwt beam="1">  1        1 0.43646284E+00 0.69271400E+03</pdfrwt>
<pdfrwt beam="2">0</pdfrwt>
<totfact> 0.90872572E-01</totfact>
</mgrwt>
</event>
<event>
 6    1  0.5382669E-003  0.6498898E+03  0.7818608E-02  0.9806986E-01
          1   -1    0    0  502    0  0.00000000000E+00  0.00000000000E+00  0.11405475494E+03  0.11405475494E+03  0.00000000000E+00 0.  1.
         13   -1    0    0    0    0 -0.00000000000E+00 -0.00000000000E+00 -0.10000000000E+04  0.10000000000E+04  0.00000000000E+00 0.  1.
    9000005    2    1    2  501    0  0.90964767659E+00 -0.21747442078E+01 -0.89422900627E+03  0.11054421089E+04  0.64988551578E+03 0.  0.
         13    1    3    3    0    0  0.15583779856E+03  0.23461789874E+03 -0.72000621753E+03  0.77313642467E+03  0.00000000000E+00 0.  1.
          1    1    3    3  501    0 -0.15492815088E+03 -0.23679264295E+03 -0.17422278874E+03  0.33230568428E+03  0.00000000000E+00 0.  1.
         21    1    1    2  502  501 -0.90964767659E+00  0.21747442078E+01  0.82837612027E+01  0.86126459888E+01  0.00000000000E+00 0. -1.
<mgrwt>
<rscale>  1 0.64988979E+03</rscale>
<asrwt>0</asrwt>
<pdfrwt beam="1">  1        1 0.41474544E+00 0.64988979E+03</pdfrwt>
<pdfrwt beam="2">0</pdfrwt>
<totfact> 0.11492778E+00</totfact>
</mgrwt>
</event>
<event>
 6    1  0.5382669E-003  0.6483589E+03  0.7818608E-02  0.9809863E-01
          1   -1    0    0  502    0  0.00000000000E+00  0.00000000000E+00  0.10543913257E+03  0.10543913257E+03  0.00000000000E+00 0.  1.
         13   -1    0    0    0    0 -0.00000000000E+00 -0.00000000000E+00 -0.10000000000E+04  0.10000000000E+04  0.00000000000E+00 0.  1.
    9000005    2    1    2  501    0  0.18213257263E-01 -0.32397436923E-01 -0.89490657361E+03  0.11050914343E+04  0.64835892939E+03 0.  0.
         13    1    3    3    0    0  0.21253531172E+02 -0.32242217433E+03 -0.40252983666E+03  0.51617636568E+03  0.00000000000E+00 0.  1.
          3    1    3    3  501    0 -0.21235317915E+02  0.32238977689E+03 -0.49237673695E+03  0.58891506863E+03  0.00000000000E+00 0.  1.
         21    1    1    2  502  501 -0.18213257263E-01  0.32397436923E-01  0.34570618032E+00  0.34769825966E+00  0.00000000000E+00 0.  1.
<mgrwt>
<rscale>  1 0.64835893E+03</rscale>
<asrwt>0</asrwt>
<pdfrwt beam="1">  1        1 0.38341584E+00 0.64835893E+03</pdfrwt>
<pdfrwt beam="2">0</pdfrwt>
<totfact> 0.15854334E+00</totfact>
</mgrwt>
</event>
<event>
 6    1  0.5382669E-003  0.5463451E+03  0.7818608E-02  0.1002343E+00
          1   -1    0    0  502    0  0.00000000000E+00  0.00000000000E+00  0.76595062267E+02  0.76595062267E+02  0.00000000000E+00 0.  1.
         13   -1    0    0    0    0 -0.00000000000E+00 -0.00000000000E+00 -0.10000000000E+04  0.10000000000E+04  0.00000000000E+00 0.  1.
    9000005    2    1    2  501    0 -0.41747922629E+00 -0.26962544119E+00 -0.92534307213E+03  0.10745942245E+04  0.54634485377E+03 0.  0.
         13    1    3    3    0    0  0.66006821911E+02 -0.25838785877E+03 -0.34570975084E+03  0.43661930549E+03  0.00000000000E+00 0.  1.
          1    1    3    3  501    0 -0.66424301137E+02  0.25811823333E+03 -0.57963332128E+03  0.63797491902E+03  0.00000000000E+00 0.  1.
         21    1    1    2  502  501  0.41747922629E+00  0.26962544119E+00  0.19381343947E+01  0.20008377532E+01  0.00000000000E+00 0.  1.
<mgrwt>
<rscale>  1 0.54634508E+03</rscale>
<asrwt>0</asrwt>
<pdfrwt beam="1">  1        1 0.27852809E+00 0.54634508E+03</pdfrwt>
<pdfrwt beam="2">0</pdfrwt>
<totfact> 0.46103397E+00</totfact>
</mgrwt>
</event>
<event>
 6    1  0.5382669E-003  0.6436987E+03  0.7818608E-02  0.9818675E-01
          1   -1    0    0  502    0  0.00000000000E+00  0.00000000000E+00  0.10359161255E+03  0.10359161255E+03  0.00000000000E+00 0.  1.
         13   -1    0    0    0    0 -0.00000000000E+00 -0.00000000000E+00 -0.10000000000E+04  0.10000000000E+04  0.00000000000E+00 0.  1.
    9000005    2    1    2  501    0  0.31276429930E-04  0.48546201282E-03 -0.89641296981E+03  0.11035870044E+04  0.64369873694E+03 0.  0.
         13    1    3    3    0    0  0.50095038826E+02  0.21576082996E+03 -0.47873840693E+02  0.22661454782E+03  0.00000000000E+00 0.  1.
          1    1    3    3  501    0 -0.50095007550E+02 -0.21576034450E+03 -0.84853912911E+03  0.87697245662E+03  0.00000000000E+00 0.  1.
         21    1    1    2  502  501 -0.31276429930E-04 -0.48546201283E-03  0.45823612601E-02  0.46081109252E-02  0.00000000000E+00 0. -1.
<mgrwt>
<rscale>  1 0.64369874E+03</rscale>
<asrwt>0</asrwt>
<pdfrwt beam="1">  1        1 0.37669757E+00 0.64369874E+03</pdfrwt>
<pdfrwt beam="2">0</pdfrwt>
<totfact> 0.16988830E+00</totfact>
</mgrwt>
</event>
<event>
 6    1  0.5382669E-003  0.6557316E+03  0.7818608E-02  0.9796083E-01
          1   -1    0    0  502    0  0.00000000000E+00  0.00000000000E+00  0.10749785259E+03  0.10749785259E+03  0.00000000000E+00 0.  1.
         13   -1    0    0    0    0 -0.00000000000E+00 -0.00000000000E+00 -0.10000000000E+04  0.10000000000E+04  0.00000000000E+00 0.  1.
    9000005    2    1    2  501    0 -0.65065510000E-04  0.53495713416E-04 -0.89250402267E+03  0.11074959754E+04  0.65573158009E+03 0.  0.
         13    1    3    3    0    0 -0.27575331845E+03  0.16584688771E+03 -0.55241311349E+03  0.63930065757E+03  0.00000000000E+00 0.  1.
          1    1    3    3  501    0  0.27575325339E+03 -0.16584683422E+03 -0.34009090918E+03  0.46819531787E+03  0.00000000000E+00 0.  1.
         21    1    1    2  502  501  0.65065509994E-04 -0.53495713407E-04  0.18752609063E-02  0.18771517729E-02  0.00000000000E+00 0. -1.
<mgrwt>
<rscale>  1 0.65573158E+03</rscale>
<asrwt>0</asrwt>
<pdfrwt beam="1">  1        1 0.39090211E+00 0.65573158E+03</pdfrwt>
<pdfrwt beam="2">0</pdfrwt>
<totfact> 0.14669156E+00</totfact>
</mgrwt>
</event>
<event>
 6    1  0.5382669E-003  0.6802631E+03  0.7818608E-02  0.9751593E-01
          1   -1    0    0  502    0  0.00000000000E+00  0.00000000000E+00  0.11571896557E+03  0.11571896557E+03  0.00000000000E+00 0.  1.
         13   -1    0    0    0    0 -0.00000000000E+00 -0.00000000000E+00 -0.10000000000E+04  0.10000000000E+04  0.00000000000E+00 0.  1.
    9000005    2    1    2  501    0  0.39245434164E-01 -0.90571418374E-03 -0.88429509656E+03  0.11156772670E+04  0.68026314382E+03 0.  0.
         13    1    3    3    0    0 -0.20800790438E+03 -0.22847983351E+03 -0.67529433942E+03  0.74262559035E+03  0.00000000000E+00 0.  1.
          3    1    3    3  501    0  0.20804714981E+03  0.22847892779E+03 -0.20900075714E+03  0.37305167668E+03  0.00000000000E+00 0.  1.
         21    1    1    2  502  501 -0.39245434164E-01  0.90571418376E-03  0.14062131481E-01  0.41698536697E-01  0.00000000000E+00 0.  1.
<mgrwt>
<rscale>  1 0.68026314E+03</rscale>
<asrwt>0</asrwt>
<pdfrwt beam="1">  1        1 0.42079713E+00 0.68026314E+03</pdfrwt>
<pdfrwt beam="2">0</pdfrwt>
<totfact> 0.10730248E+00</totfact>
</mgrwt>
</event>
<event>
 6    1  0.5382669E-003  0.6490828E+03  0.7818608E-02  0.9808502E-01
          1   -1    0    0  502    0  0.00000000000E+00  0.00000000000E+00  0.10533254048E+03  0.10533254048E+03  0.00000000000E+00 0.  1.
         13   -1    0    0    0    0 -0.00000000000E+00 -0.00000000000E+00 -0.10000000000E+04  0.10000000000E+04  0.00000000000E+00 0.  1.
    9000005    2    1    2  501    0 -0.71074430409E-04 -0.49726489465E-04 -0.89467288440E+03  0.11053271149E+04  0.64908278429E+03 0.  0.
         13    1    3    3    0    0  0.39784182288E+02  0.27203600473E+03 -0.15366170033E+03  0.31495759584E+03  0.00000000000E+00 0.  1.
          1    1    3    3  501    0 -0.39784253363E+02 -0.27203605446E+03 -0.74101118407E+03  0.79036951906E+03  0.00000000000E+00 0.  1.
         21    1    1    2  502  501  0.71074430406E-04  0.49726489459E-04  0.54248768577E-02  0.54255703129E-02  0.00000000000E+00 0.  1.
<mgrwt>
<rscale>  1 0.64908278E+03</rscale>
<asrwt>0</asrwt>
<pdfrwt beam="1">  1        1 0.38302823E+00 0.64908278E+03</pdfrwt>
<pdfrwt beam="2">0</pdfrwt>
<totfact> 0.15914865E+00</totfact>
</mgrwt>
</event>
<event>
 6    1  0.5382669E-003  0.6821254E+03  0.7818608E-02  0.9748298E-01
          1   -1    0    0  502    0  0.00000000000E+00  0.00000000000E+00  0.11632376994E+03  0.11632376994E+03  0.00000000000E+00 0.  1.
         13   -1    0    0    0    0 -0.00000000000E+00 -0.00000000000E+00 -0.10000000000E+04  0.10000000000E+04  0.00000000000E+00 0.  1.
    9000005    2    1    2  501    0  0.16184690139E-05  0.47524128348E-05 -0.88367623859E+03  0.11163237600E+04  0.68212538627E+03 0.  0.
         13    1    3    3    0    0  0.10255823948E+03  0.11243300816E+03 -0.94135586739E+03  0.95357760191E+03  0.00000000000E+00 0.  1.
          1    1    3    3  501    0 -0.10255823786E+03 -0.11243300341E+03  0.57679628796E+02  0.16274615813E+03  0.00000000000E+00 0.  1.
         21    1    1    2  502  501 -0.16184690205E-05 -0.47524128340E-05  0.85320418118E-05  0.98995256045E-05  0.00000000000E+00 0. -1.
<mgrwt>
<rscale>  1 0.68212539E+03</rscale>
<asrwt>0</asrwt>
<pdfrwt beam="1">  1        1 0.42299642E+00 0.68212539E+03</pdfrwt>
<pdfrwt beam="2">0</pdfrwt>
<totfact> 0.10483693E+00</totfact>
</mgrwt>
</event>
<event>
 6    1  0.5382669E-003  0.6402600E+03  0.7818608E-02  0.9825229E-01
          1   -1    0    0  502    0  0.00000000000E+00  0.00000000000E+00  0.10270147231E+03  0.10270147231E+03  0.00000000000E+00 0.  1.
         13   -1    0    0    0    0 -0.00000000000E+00 -0.00000000000E+00 -0.10000000000E+04  0.10000000000E+04  0.00000000000E+00 0.  1.
    9000005    2    1    2  501    0 -0.11195404363E+00  0.14908241000E+00 -0.89747202791E+03  0.11024467929E+04  0.64025999058E+03 0.  0.
         13    1    3    3    0    0 -0.21149647701E+02 -0.74265452116E+02  0.86206417667E+02  0.11573336348E+03  0.00000000000E+00 0.  1.
          3    1    3    3  501    0  0.21037693657E+02  0.74414534526E+02 -0.98367844558E+03  0.98671342942E+03  0.00000000000E+00 0.  1.
         21    1    1    2  502  501  0.11195404363E+00 -0.14908241000E+00  0.17350022588E+00  0.25467940874E+00  0.00000000000E+00 0. -1.
<mgrwt>
<rscale>  1 0.64026002E+03</rscale>
<asrwt>0</asrwt>
<pdfrwt beam="1">  1        1 0.37346069E+00 0.64026002E+03</pdfrwt>
<pdfrwt beam="2">0</pdfrwt>
<totfact> 0.17566503E+00</totfact>
</mgrwt>
</event>
<event>
 6    1  0.5382669E-003  0.6508932E+03  0.7818608E-02  0.9805105E-01
          1   -1    0    0  502    0  0.00000000000E+00  0.00000000000E+00  0.10591838972E+03  0.10591838972E+03  0.00000000000E+00 0.  1.
         13   -1    0    0    0    0 -0.00000000000E+00 -0.00000000000E+00 -0.10000000000E+04  0.10000000000E+04  0.00000000000E+00 0.  1.
    9000005    2    1    2  501    0 -0.43668364064E-02  0.92280069430E-03 -0.89408247679E+03  0.11059138431E+04  0.65089319635E+03 0.  0.
         13    1    3    3    0    0  0.62812858746E+01  0.29339526230E+03 -0.20798843815E+03  0.35969351523E+03  0.00000000000E+00 0.  1.
          3    1    3    3  501    0 -0.62856527110E+01 -0.29339433950E+03 -0.68609403864E+03  0.74622032787E+03  0.00000000000E+00 0.  1.
         21    1    1    2  502  501  0.43668364064E-02 -0.92280069431E-03  0.86650297507E-03  0.45466084863E-02  0.00000000000E+00 0.  1.
<mgrwt>
<rscale>  1 0.65089320E+03</rscale>
<asrwt>0</asrwt>
<pdfrwt beam="1">  1        1 0.38515859E+00 0.65089320E+03</pdfrwt>
<pdfrwt beam="2">0</pdfrwt>
<totfact> 0.15568225E+00</totfact>
</mgrwt>
</event>
<event>
 6    1  0.5382669E-003  0.6521618E+03  0.7818608E-02  0.9802731E-01
          1   -1    0    0  502    0  0.00000000000E+00  0.00000000000E+00  0.10633677748E+03  0.10633677748E+03  0.00000000000E+00 0.  1.
         13   -1    0    0    0    0 -0.00000000000E+00 -0.00000000000E+00 -0.10000000000E+04  0.10000000000E+04  0.00000000000E+00 0.  1.
    9000005    2    1    2  501    0 -0.84045468449E-02 -0.11895603704E-01 -0.89366315419E+03  0.11063222122E+04  0.65216179274E+03 0.  0.
         13    1    3    3    0    0 -0.18749576923E+03  0.22321076223E+02  0.41545644203E+01  0.18886543974E+03  0.00000000000E+00 0.  1.
          3    1    3    3  501    0  0.18748736468E+03 -0.22332971827E+02 -0.89781771861E+03  0.91745677249E+03  0.00000000000E+00 0.  1.
         21    1    1    2  502  501  0.84045468449E-02  0.11895603704E-01 -0.68337851789E-04  0.14565248546E-01  0.00000000000E+00 0. -1.
<mgrwt>
<rscale>  1 0.65216179E+03</rscale>
<asrwt>0</asrwt>
<pdfrwt beam="1">  1        1 0.38668001E+00 0.65216179E+03</pdfrwt>
<pdfrwt beam="2">0</pdfrwt>
<totfact> 0.15325142E+00</totfact>
</mgrwt>
</event>
<event>
 6    1  0.5382669E-003  0.6478366E+03  0.7818608E-02  0.9810847E-01
          1   -1    0    0  502    0  0.00000000000E+00  0.00000000000E+00  0.10497244182E+03  0.10497244182E+03  0.00000000000E+00 0.  1.
         13   -1    0    0    0    0 -0.00000000000E+00 -0.00000000000E+00 -0.10000000000E+04  0.10000000000E+04  0.00000000000E+00 0.  1.
    9000005    2    1    2  501    0 -0.47670856685E-03 -0.11262146453E-02 -0.89507693555E+03  0.11049230493E+04  0.64783657226E+03 0.  0.
         13    1    3    3    0    0 -0.31125177571E+03 -0.69604819881E+02 -0.35104618513E+03  0.47429518544E+03  0.00000000000E+00 0.  1.
          1    1    3    3  501    0  0.31125129900E+03  0.69603693666E+02 -0.54403075041E+03  0.63062786388E+03  0.00000000000E+00 0.  1.
         21    1    1    2  502  501  0.47670856686E-03  0.11262146452E-02  0.49377369363E-01  0.49392511737E-01  0.00000000000E+00 0. -1.
<mgrwt>
<rscale>  1 0.64783657E+03</rscale>
<asrwt>0</asrwt>
<pdfrwt beam="1">  1        1 0.38171878E+00 0.64783657E+03</pdfrwt>
<pdfrwt beam="2">0</pdfrwt>
<totfact> 0.16131956E+00</totfact>
</mgrwt>
</event>
<event>
 6    1  0.5382669E-003  0.6551808E+03  0.7818608E-02  0.9797106E-01
          1   -1    0    0  502    0  0.00000000000E+00  0.00000000000E+00  0.10731545885E+03  0.10731545885E+03  0.00000000000E+00 0.  1.
         13   -1    0    0    0    0 -0.00000000000E+00 -0.00000000000E+00 -0.10000000000E+04  0.10000000000E+04  0.00000000000E+00 0.  1.
    9000005    2    1    2  501    0  0.27903719513E-05  0.63758091073E-06 -0.89268454306E+03  0.11073154554E+04  0.65518075702E+03 0.  0.
         13    1    3    3    0    0 -0.10130479138E+03 -0.24734731198E+03 -0.12624008315E+03  0.29560093385E+03  0.00000000000E+00 0.  1.
          1    1    3    3  501    0  0.10130479417E+03  0.24734731262E+03 -0.76644445991E+03  0.81171452155E+03  0.00000000000E+00 0.  1.
         21    1    1    2  502  501 -0.27903719445E-05 -0.63758091083E-06  0.19015932728E-05  0.34363850165E-05  0.00000000000E+00 0. -1.
<mgrwt>
<rscale>  1 0.65518076E+03</rscale>
<asrwt>0</asrwt>
<pdfrwt beam="1">  1        1 0.39023886E+00 0.65518076E+03</pdfrwt>
<pdfrwt beam="2">0</pdfrwt>
<totfact> 0.14770384E+00</totfact>
</mgrwt>
</event>
<event>
 6    1  0.5382669E-003  0.4682853E+03  0.7818608E-02  0.1022405E+00
          1   -1    0    0  502    0  0.00000000000E+00  0.00000000000E+00  0.54822778895E+02  0.54822778895E+02  0.00000000000E+00 0.  1.
         13   -1    0    0    0    0 -0.00000000000E+00 -0.00000000000E+00 -0.10000000000E+04  0.10000000000E+04  0.00000000000E+00 0.  1.
    9000005    2    1    2  501    0 -0.26226450700E-05 -0.22130829507E-05 -0.94517722055E+03  0.10548227754E+04  0.46828528622E+03 0.  0.
         13    1    3    3    0    0 -0.12847578977E+03  0.19183537592E+03 -0.56029062954E+03  0.60599705409E+03  0.00000000000E+00 0.  1.
          1    1    3    3  501    0  0.12847578714E+03 -0.19183537814E+03 -0.38488659101E+03  0.44882572133E+03  0.00000000000E+00 0.  1.
         21    1    1    2  502  501  0.26226450888E-05  0.22130829568E-05 -0.55061949701E-06  0.34755122307E-05  0.00000000000E+00 0. -1.
<mgrwt>
<rscale>  1 0.46828529E+03</rscale>
<asrwt>0</asrwt>
<pdfrwt beam="1">  1        1 0.19935598E+00 0.46828529E+03</pdfrwt>
<pdfrwt beam="2">0</pdfrwt>
<totfact> 0.10401570E+01</totfact>
</mgrwt>
</event>
<event>
 6    1  0.5382669E-003  0.5981770E+03  0.7818608E-02  0.9909195E-01
          1   -1    0    0  502    0  0.00000000000E+00  0.00000000000E+00  0.90255863491E+02  0.90255863491E+02  0.00000000000E+00 0.  1.
         13   -1    0    0    0    0 -0.00000000000E+00 -0.00000000000E+00 -0.10000000000E+04  0.10000000000E+04  0.00000000000E+00 0.  1.
    9000005    2    1    2  501    0 -0.13207177439E+01  0.71144129673E+00 -0.90971006739E+03  0.10887553287E+04  0.59817514870E+03 0.  0.
         13    1    3    3    0    0  0.23585892503E+03 -0.39572658027E+02 -0.77916484297E+03  0.81504188868E+03  0.00000000000E+00 0.  1.
          3    1    3    3  501    0 -0.23717964278E+03  0.40284099324E+02 -0.13054522442E+03  0.27371343998E+03  0.00000000000E+00 0.  1.
         21    1    1    2  502  501  0.13207177439E+01 -0.71144129673E+00 -0.34069115766E-01  0.15005348322E+01  0.00000000000E+00 0.  1.
<mgrwt>
<rscale>  1 0.59817703E+03</rscale>
<asrwt>0</asrwt>
<pdfrwt beam="1">  1        1 0.32820383E+00 0.59817703E+03</pdfrwt>
<pdfrwt beam="2">0</pdfrwt>
<totfact> 0.27880084E+00</totfact>
</mgrwt>
</event>
<event>
 6    1  0.5382669E-003  0.6354120E+03  0.7818608E-02  0.9834544E-01
          1   -1    0    0  502    0  0.00000000000E+00  0.00000000000E+00  0.10093712767E+03  0.10093712767E+03  0.00000000000E+00 0.  1.
         13   -1    0    0    0    0 -0.00000000000E+00 -0.00000000000E+00 -0.10000000000E+04  0.10000000000E+04  0.00000000000E+00 0.  1.
    9000005    2    1    2  501    0 -0.18260644666E-04 -0.11689520790E-04 -0.89906290770E+03  0.11009370862E+04  0.63541195750E+03 0.  0.
         13    1    3    3    0    0  0.49752114711E+02 -0.23974817480E+03 -0.98773903170E+02  0.26402792312E+03  0.00000000000E+00 0.  1.
          3    1    3    3  501    0 -0.49752132971E+02  0.23974816311E+03 -0.80028900453E+03  0.83690916306E+03  0.00000000000E+00 0.  1.
         21    1    1    2  502  501  0.18260644668E-04  0.11689520771E-04  0.35368084810E-04  0.41484906444E-04  0.00000000000E+00 0.  1.
<mgrwt>
<rscale>  1 0.63541196E+03</rscale>
<asrwt>0</asrwt>
<pdfrwt beam="1">  1        1 0.36704487E+00 0.63541196E+03</pdfrwt>
<pdfrwt beam="2">0</pdfrwt>
<totfact> 0.18760714E+00</totfact>
</mgrwt>
</event>
<event>
 6    1  0.5382669E-003  0.6469437E+03  0.7818608E-02  0.9812531E-01
          1   -1    0    0  502    0  0.00000000000E+00  0.00000000000E+00  0.10593453853E+03  0.10593453853E+03  0.00000000000E+00 0.  1.
         13   -1    0    0    0    0 -0.00000000000E+00 -0.00000000000E+00 -0.10000000000E+04  0.10000000000E+04  0.00000000000E+00 0.  1.
    9000005    2    1    2  501    0 -0.42695711506E+00  0.10034965879E+00 -0.89532499463E+03  0.11046008271E+04  0.64694354378E+03 0.  0.
         13    1    3    3    0    0 -0.22198926532E+03 -0.22420929447E+03 -0.57043243951E+03  0.65187591587E+03  0.00000000000E+00 0.  1.
          3    1    3    3  501    0  0.22156230820E+03  0.22430964413E+03 -0.32489255512E+03  0.45272491122E+03  0.00000000000E+00 0.  1.
         21    1    1    2  502  501  0.42695711506E+00 -0.10034965879E+00  0.12595331541E+01  0.13337114375E+01  0.00000000000E+00 0.  1.
<mgrwt>
<rscale>  1 0.64694369E+03</rscale>
<asrwt>0</asrwt>
<pdfrwt beam="1">  1        1 0.38521732E+00 0.64694369E+03</pdfrwt>
<pdfrwt beam="2">0</pdfrwt>
<totfact> 0.15570294E+00</totfact>
</mgrwt>
</event>
<event>
 6    1  0.5382669E-003  0.6384163E+03  0.7818608E-02  0.9828761E-01
          1   -1    0    0  502    0  0.00000000000E+00  0.00000000000E+00  0.10215801776E+03  0.10215801776E+03  0.00000000000E+00 0.  1.
         13   -1    0    0    0    0 -0.00000000000E+00 -0.00000000000E+00 -0.10000000000E+04  0.10000000000E+04  0.00000000000E+00 0.  1.
    9000005    2    1    2  501    0  0.20134761850E-02  0.10849616989E-01 -0.89810602912E+03  0.11018937404E+04  0.63841630265E+03 0.  0.
         13    1    3    3    0    0  0.30020441423E+03 -0.90373141089E+02 -0.55266092116E+03  0.63539286173E+03  0.00000000000E+00 0.  1.
          3    1    3    3  501    0 -0.30020240076E+03  0.90383990706E+02 -0.34544510796E+03  0.46650087868E+03  0.00000000000E+00 0.  1.
         21    1    1    2  502  501 -0.20134761850E-02 -0.10849616989E-01  0.26404687398E+00  0.26427735418E+00  0.00000000000E+00 0. -1.
<mgrwt>
<rscale>  1 0.63841630E+03</rscale>
<asrwt>0</asrwt>
<pdfrwt beam="1">  1        1 0.37148448E+00 0.63841630E+03</pdfrwt>
<pdfrwt beam="2">0</pdfrwt>
<totfact> 0.17927520E+00</totfact>
</mgrwt>
</event>
<event>
 6    1  0.5382669E-003  0.7151553E+03  0.7818608E-02  0.9691660E-01
          1   -1    0    0  502    0  0.00000000000E+00  0.00000000000E+00  0.12786220093E+03  0.12786220093E+03  0.00000000000E+00 0.  1.
         13   -1    0    0    0    0 -0.00000000000E+00 -0.00000000000E+00 -0.10000000000E+04  0.10000000000E+04  0.00000000000E+00 0.  1.
    9000005    2    1    2  501    0 -0.21297061735E-03 -0.18132574098E-04 -0.87213821235E+03  0.11278617356E+04  0.71515525118E+03 0.  0.
         13    1    3    3    0    0 -0.14866809955E+03  0.32073875305E+03 -0.35134227350E+03  0.49841443065E+03  0.00000000000E+00 0.  1.
          3    1    3    3  501    0  0.14866788658E+03 -0.32073877118E+03 -0.52079593885E+03  0.62944730500E+03  0.00000000000E+00 0.  1.
         21    1    1    2  502  501  0.21297061737E-03  0.18132574072E-04  0.41328045225E-03  0.46528056731E-03  0.00000000000E+00 0.  1.
<mgrwt>
<rscale>  1 0.71515525E+03</rscale>
<asrwt>0</asrwt>
<pdfrwt beam="1">  1        1 0.46495444E+00 0.71515525E+03</pdfrwt>
<pdfrwt beam="2">0</pdfrwt>
<totfact> 0.66834876E-01</totfact>
</mgrwt>
</event>
<event>
 6    1  0.5382669E-003  0.6547464E+03  0.7818608E-02  0.9797914E-01
          1   -1    0    0  502    0  0.00000000000E+00  0.00000000000E+00  0.10718782436E+03  0.10718782436E+03  0.00000000000E+00 0.  1.
         13   -1    0    0    0    0 -0.00000000000E+00 -0.00000000000E+00 -0.10000000000E+04  0.10000000000E+04  0.00000000000E+00 0.  1.
    9000005    2    1    2  501    0  0.16183992497E-02 -0.63314738633E-02 -0.89282598612E+03  0.11071725457E+04  0.65474636654E+03 0.  0.
         13    1    3    3    0    0  0.24720292039E+03  0.87144392772E+02 -0.11474651791E+03  0.28612967762E+03  0.00000000000E+00 0.  1.
          1    1    3    3  501    0 -0.24720130199E+03 -0.87150724246E+02 -0.77807946821E+03  0.82104286812E+03  0.00000000000E+00 0.  1.
         21    1    1    2  502  501 -0.16183992497E-02  0.63314738633E-02  0.13810486835E-01  0.15278623106E-01  0.00000000000E+00 0. -1.
<mgrwt>
<rscale>  1 0.65474637E+03</rscale>
<asrwt>0</asrwt>
<pdfrwt beam="1">  1        1 0.38977473E+00 0.65474637E+03</pdfrwt>
<pdfrwt beam="2">0</pdfrwt>
<totfact> 0.14841748E+00</totfact>
</mgrwt>
</event>
<event>
 6    1  0.5382669E-003  0.6521042E+03  0.7818608E-02  0.9802839E-01
          1   -1    0    0  502    0  0.00000000000E+00  0.00000000000E+00  0.10631234963E+03  0.10631234963E+03  0.00000000000E+00 0.  1.
         13   -1    0    0    0    0 -0.00000000000E+00 -0.00000000000E+00 -0.10000000000E+04  0.10000000000E+04  0.00000000000E+00 0.  1.
    9000005    2    1    2  501    0  0.29049198173E-03 -0.80778775924E-04 -0.89369002479E+03  0.11063099561E+04  0.65210417777E+03 0.  0.
         13    1    3    3    0    0 -0.14691258423E+03  0.23510667964E+03 -0.15569733235E+03  0.31796244671E+03  0.00000000000E+00 0.  1.
          1    1    3    3  501    0  0.14691287473E+03 -0.23510676041E+03 -0.73799269243E+03  0.78834750944E+03  0.00000000000E+00 0.  1.
         21    1    1    2  502  501 -0.29049198174E-03  0.80778775920E-04  0.23744167802E-02  0.23934840397E-02  0.00000000000E+00 0.  1.
<mgrwt>
<rscale>  1 0.65210418E+03</rscale>
<asrwt>0</asrwt>
<pdfrwt beam="1">  1        1 0.38659118E+00 0.65210418E+03</pdfrwt>
<pdfrwt beam="2">0</pdfrwt>
<totfact> 0.15339189E+00</totfact>
</mgrwt>
</event>
<event>
 6    1  0.5382669E-003  0.6462425E+03  0.7818608E-02  0.9813855E-01
          1   -1    0    0  502    0  0.00000000000E+00  0.00000000000E+00  0.10441038846E+03  0.10441038846E+03  0.00000000000E+00 0.  1.
         13   -1    0    0    0    0 -0.00000000000E+00 -0.00000000000E+00 -0.10000000000E+04  0.10000000000E+04  0.00000000000E+00 0.  1.
    9000005    2    1    2  501    0  0.33968509200E-04 -0.63885629601E-04 -0.89559264819E+03  0.11044073509E+04  0.64624252826E+03 0.  0.
         13    1    3    3    0    0  0.24566256272E+03  0.16102230028E+03 -0.21769370275E+03  0.36560747275E+03  0.00000000000E+00 0.  1.
          1    1    3    3  501    0 -0.24566252875E+03 -0.16102236417E+03 -0.67789894544E+03  0.73879987820E+03  0.00000000000E+00 0.  1.
         21    1    1    2  502  501 -0.33968509220E-04  0.63885629602E-04  0.30366490417E-02  0.30375109276E-02  0.00000000000E+00 0. -1.
<mgrwt>
<rscale>  1 0.64624253E+03</rscale>
<asrwt>0</asrwt>
<pdfrwt beam="1">  1        1 0.37967494E+00 0.64624253E+03</pdfrwt>
<pdfrwt beam="2">0</pdfrwt>
<totfact> 0.16475376E+00</totfact>
</mgrwt>
</event>
<event>
 6    1  0.5382669E-003  0.6438671E+03  0.7818608E-02  0.9818356E-01
          1   -1    0    0  502    0  0.00000000000E+00  0.00000000000E+00  0.10402473636E+03  0.10402473636E+03  0.00000000000E+00 0.  1.
         13   -1    0    0    0    0 -0.00000000000E+00 -0.00000000000E+00 -0.10000000000E+04  0.10000000000E+04  0.00000000000E+00 0.  1.
    9000005    2    1    2  501    0  0.54636145407E-01 -0.40848451035E+00 -0.89623270467E+03  0.11035388139E+04  0.64386697626E+03 0.  0.
         13    1    3    3    0    0 -0.64149314852E+02 -0.22876430360E+03 -0.75624516269E+02  0.24933372949E+03  0.00000000000E+00 0.  1.
          1    1    3    3  501    0  0.64203950998E+02  0.22835581909E+03 -0.82060818841E+03  0.85420508446E+03  0.00000000000E+00 0.  1.
         21    1    1    2  502  501 -0.54636145407E-01  0.40848451035E+00  0.25744102995E+00  0.48592240891E+00  0.00000000000E+00 0. -1.
<mgrwt>
<rscale>  1 0.64386711E+03</rscale>
<asrwt>0</asrwt>
<pdfrwt beam="1">  1        1 0.37827257E+00 0.64386711E+03</pdfrwt>
<pdfrwt beam="2">0</pdfrwt>
<totfact> 0.16718962E+00</totfact>
</mgrwt>
</event>
<event>
 6    1  0.5382669E-003  0.6367988E+03  0.7818608E-02  0.9831871E-01
          1   -1    0    0  502    0  0.00000000000E+00  0.00000000000E+00  0.10138366429E+03  0.10138366429E+03  0.00000000000E+00 0.  1.
         13   -1    0    0    0    0 -0.00000000000E+00 -0.00000000000E+00 -0.10000000000E+04  0.10000000000E+04  0.00000000000E+00 0.  1.
    9000005    2    1    2  501    0 -0.12757511945E-03  0.56102055694E-03 -0.89862181104E+03  0.11013781588E+04  0.63679878254E+03 0.  0.
         13    1    3    3    0    0 -0.28960847899E+03 -0.12430252070E+03 -0.52769518282E+03  0.61464330609E+03  0.00000000000E+00 0.  1.
          1    1    3    3  501    0  0.28960835141E+03  0.12430308172E+03 -0.37092662822E+03  0.48673485272E+03  0.00000000000E+00 0.  1.
         21    1    1    2  502  501  0.12757511945E-03 -0.56102055695E-03  0.54753312206E-02  0.55054764963E-02  0.00000000000E+00 0.  1.
<mgrwt>
<rscale>  1 0.63679878E+03</rscale>
<asrwt>0</asrwt>
<pdfrwt beam="1">  1        1 0.36866865E+00 0.63679878E+03</pdfrwt>
<pdfrwt beam="2">0</pdfrwt>
<totfact> 0.18450800E+00</totfact>
</mgrwt>
</event>
<event>
 6    1  0.5382669E-003  0.6718118E+03  0.7818608E-02  0.9766690E-01
          1   -1    0    0  502    0  0.00000000000E+00  0.00000000000E+00  0.11283299368E+03  0.11283299368E+03  0.00000000000E+00 0.  1.
         13   -1    0    0    0    0 -0.00000000000E+00 -0.00000000000E+00 -0.10000000000E+04  0.10000000000E+04  0.00000000000E+00 0.  1.
    9000005    2    1    2  501    0 -0.23183485911E-04  0.44458932962E-05 -0.88716722263E+03  0.11128327761E+04  0.67181180894E+03 0.  0.
         13    1    3    3    0    0 -0.17707887602E+02 -0.28194163746E+03 -0.74462360539E+03  0.79641005137E+03  0.00000000000E+00 0.  1.
          1    1    3    3  501    0  0.17707864418E+02  0.28194164191E+03 -0.14254361724E+03  0.31642272472E+03  0.00000000000E+00 0.  1.
         21    1    1    2  502  501  0.23183485913E-04 -0.44458932740E-05  0.21631301777E-03  0.21759724641E-03  0.00000000000E+00 0. -1.
<mgrwt>
<rscale>  1 0.67181181E+03</rscale>
<asrwt>0</asrwt>
<pdfrwt beam="1">  1        1 0.41030266E+00 0.67181181E+03</pdfrwt>
<pdfrwt beam="2">0</pdfrwt>
<totfact> 0.11982525E+00</totfact>
</mgrwt>
</event>
<event>
 6    1  0.5382669E-003  0.6436003E+03  0.7818608E-02  0.9818862E-01
          1   -1    0    0  502    0  0.00000000000E+00  0.00000000000E+00  0.10420519184E+03  0.10420519184E+03  0.00000000000E+00 0.  1.
         13   -1    0    0    0    0 -0.00000000000E+00 -0.00000000000E+00 -0.10000000000E+04  0.10000000000E+04  0.00000000000E+00 0.  1.
    9000005    2    1    2  501    0 -0.15018620518E+01  0.93235951530E+00 -0.89465433469E+03  0.11021014895E+04  0.64359784775E+03 0.  0.
         13    1    3    3    0    0  0.30226375926E+03  0.10256651724E+03 -0.50858695644E+03  0.60045313130E+03  0.00000000000E+00 0.  1.
          1    1    3    3  501    0 -0.30376562132E+03 -0.10163415773E+03 -0.38606737825E+03  0.50164835817E+03  0.00000000000E+00 0.  1.
         21    1    1    2  502  501  0.15018620518E+01 -0.93235951530E+00 -0.11404734768E+01  0.21037023648E+01  0.00000000000E+00 0. -1.
<mgrwt>
<rscale>  1 0.64360028E+03</rscale>
<asrwt>0</asrwt>
<pdfrwt beam="1">  1        1 0.37892877E+00 0.64360028E+03</pdfrwt>
<pdfrwt beam="2">0</pdfrwt>
<totfact> 0.16608767E+00</totfact>
</mgrwt>
</event>
<event>
 6    1  0.5382669E-003  0.6382371E+03  0.7818608E-02  0.9829105E-01
          3   -1    0    0  502    0  0.00000000000E+00  0.00000000000E+00  0.10185097682E+03  0.10185097682E+03  0.00000000000E+00 0.  1.
         13   -1    0    0    0    0 -0.00000000000E+00 -0.00000000000E+00 -0.10000000000E+04  0.10000000000E+04  0.00000000000E+00 0.  1.
    9000005    2    1    2  501    0 -0.57048623037E-03  0.10848410853E-01 -0.89816103962E+03  0.11018347778E+04  0.63823712235E+03 0.  0.
         13    1    3    3    0    0 -0.15163579575E+03 -0.24600845399E+03 -0.21540476394E+03  0.36043416364E+03  0.00000000000E+00 0.  1.
          3    1    3    3  501    0  0.15163522527E+03  0.24601930240E+03 -0.68275627568E+03  0.74140061416E+03  0.00000000000E+00 0.  1.
         21    1    1    2  502  501  0.57048623035E-03 -0.10848410853E-01  0.12016444014E-01  0.16199024641E-01  0.00000000000E+00 0. -1.
<mgrwt>
<rscale>  1 0.63823712E+03</rscale>
<asrwt>0</asrwt>
<pdfrwt beam="1">  1        3 0.37036797E+00 0.63823712E+03</pdfrwt>
<pdfrwt beam="2">0</pdfrwt>
<totfact> 0.85038911E-02</totfact>
</mgrwt>
</event>
<event>
 6    1  0.5382669E-003  0.6359797E+03  0.7818608E-02  0.9833449E-01
          1   -1    0    0  502    0  0.00000000000E+00  0.00000000000E+00  0.10111845563E+03  0.10111845563E+03  0.00000000000E+00 0.  1.
         13   -1    0    0    0    0 -0.00000000000E+00 -0.00000000000E+00 -0.10000000000E+04  0.10000000000E+04  0.00000000000E+00 0.  1.
    9000005    2    1    2  501    0 -0.10018421392E-04 -0.40196798182E-04 -0.89888245635E+03  0.11011175427E+04  0.63597969506E+03 0.  0.
         13    1    3    3    0    0 -0.23215199007E+03  0.18331659339E+03 -0.65148588157E+03  0.71549519481E+03  0.00000000000E+00 0.  1.
          3    1    3    3  501    0  0.23215198005E+03 -0.18331663359E+03 -0.24739657477E+03  0.38562234790E+03  0.00000000000E+00 0.  1.
         21    1    1    2  502  501  0.10018421398E-04  0.40196798179E-04  0.91198240172E-03  0.91292280747E-03  0.00000000000E+00 0. -1.
<mgrwt>
<rscale>  1 0.63597970E+03</rscale>
<asrwt>0</asrwt>
<pdfrwt beam="1">  1        1 0.36770425E+00 0.63597970E+03</pdfrwt>
<pdfrwt beam="2">0</pdfrwt>
<totfact> 0.18634254E+00</totfact>
</mgrwt>
</event>
<event>
 6    1  0.5382669E-003  0.5532249E+03  0.7818608E-02  0.1000750E+00
          3   -1    0    0  502    0  0.00000000000E+00  0.00000000000E+00  0.76617098255E+02  0.76617098255E+02  0.00000000000E+00 0.  1.
         13   -1    0    0    0    0 -0.00000000000E+00 -0.00000000000E+00 -0.10000000000E+04  0.10000000000E+04  0.00000000000E+00 0.  1.
    9000005    2    1    2  501    0  0.68100668750E-03  0.26681301049E-02 -0.92348553602E+03  0.10765144270E+04  0.55322488770E+03 0.  0.
         13    1    3    3    0    0  0.37646878113E+02 -0.16983971241E+03 -0.43256711657E+02  0.17925947240E+03  0.00000000000E+00 0.  1.
          3    1    3    3  501    0 -0.37646197106E+02  0.16984238054E+03 -0.88022882437E+03  0.89725495464E+03  0.00000000000E+00 0.  1.
         21    1    1    2  502  501 -0.68100668750E-03 -0.26681301049E-02  0.10263427903E+00  0.10267121272E+00  0.00000000000E+00 0.  1.
<mgrwt>
<rscale>  1 0.55322489E+03</rscale>
<asrwt>0</asrwt>
<pdfrwt beam="1">  1        3 0.27860822E+00 0.55322489E+03</pdfrwt>
<pdfrwt beam="2">0</pdfrwt>
<totfact> 0.26792740E-01</totfact>
</mgrwt>
</event>
<event>
 6    1  0.5382669E-003  0.6398834E+03  0.7818608E-02  0.9825950E-01
          1   -1    0    0  502    0  0.00000000000E+00  0.00000000000E+00  0.10236971852E+03  0.10236971852E+03  0.00000000000E+00 0.  1.
         13   -1    0    0    0    0 -0.00000000000E+00 -0.00000000000E+00 -0.10000000000E+04  0.10000000000E+04  0.00000000000E+00 0.  1.
    9000005    2    1    2  501    0  0.64554364507E-02 -0.14009058818E-02 -0.89763556272E+03  0.11023612612E+04  0.63988338519E+03 0.  0.
         13    1    3    3    0    0 -0.49875008901E+02  0.31064476966E+03 -0.34874446269E+03  0.46969180288E+03  0.00000000000E+00 0.  1.
          1    1    3    3  501    0  0.49881464337E+02 -0.31064617057E+03 -0.54889110002E+03  0.63266945829E+03  0.00000000000E+00 0.  1.
         21    1    1    2  502  501 -0.64554364507E-02  0.14009058818E-02  0.52812332711E-02  0.84573413034E-02  0.00000000000E+00 0. -1.
<mgrwt>
<rscale>  1 0.63988339E+03</rscale>
<asrwt>0</asrwt>
<pdfrwt beam="1">  1        1 0.37225431E+00 0.63988339E+03</pdfrwt>
<pdfrwt beam="2">0</pdfrwt>
<totfact> 0.17783621E+00</totfact>
</mgrwt>
</event>
<event>
 6    1  0.5382669E-003  0.6401268E+03  0.7818608E-02  0.9825484E-01
          1   -1    0    0  502    0  0.00000000000E+00  0.00000000000E+00  0.10245690929E+03  0.10245690929E+03  0.00000000000E+00 0.  1.
         13   -1    0    0    0    0 -0.00000000000E+00 -0.00000000000E+00 -0.10000000000E+04  0.10000000000E+04  0.00000000000E+00 0.  1.
    9000005    2    1    2  501    0 -0.80863456571E-03  0.58830838614E-03 -0.89755941160E+03  0.11024405578E+04  0.64012677347E+03 0.  0.
         13    1    3    3    0    0  0.20671282823E+03 -0.18452068351E+03 -0.72466931869E+03  0.77583741689E+03  0.00000000000E+00 0.  1.
          3    1    3    3  501    0 -0.20671363687E+03  0.18452127181E+03 -0.17289009291E+03  0.32660314090E+03  0.00000000000E+00 0.  1.
         21    1    1    2  502  501  0.80863456573E-03 -0.58830838615E-03  0.16320893492E-01  0.16351500267E-01  0.00000000000E+00 0.  1.
<mgrwt>
<rscale>  1 0.64012677E+03</rscale>
<asrwt>0</asrwt>
<pdfrwt beam="1">  1        1 0.37257136E+00 0.64012677E+03</pdfrwt>
<pdfrwt beam="2">0</pdfrwt>
<totfact> 0.17725844E+00</totfact>
</mgrwt>
</event>
<event>
 6    1  0.5382669E-003  0.6582753E+03  0.7818608E-02  0.9791374E-01
          1   -1    0    0  502    0  0.00000000000E+00  0.00000000000E+00  0.11001260975E+03  0.11001260975E+03  0.00000000000E+00 0.  1.
         13   -1    0    0    0    0 -0.00000000000E+00 -0.00000000000E+00 -0.10000000000E+04  0.10000000000E+04  0.00000000000E+00 0.  1.
    9000005    2    1    2  501    0 -0.96471360822E-01 -0.36869659078E-01 -0.89166665124E+03  0.11083301759E+04  0.65827528532E+03 0.  0.
         13    1    3    3    0    0  0.28608269832E+03 -0.87565733906E+02 -0.67661517714E+03  0.73981022294E+03  0.00000000000E+00 0.  1.
          1    1    3    3  501    0 -0.28617916968E+03  0.87528864247E+02 -0.21505147411E+03  0.36851995299E+03  0.00000000000E+00 0.  1.
         21    1    1    2  502  501  0.96471360822E-01  0.36869659078E-01  0.16792609937E+01  0.16824338264E+01  0.00000000000E+00 0. -1.
<mgrwt>
<rscale>  1 0.65827529E+03</rscale>
<asrwt>0</asrwt>
<pdfrwt beam="1">  1        1 0.40004670E+00 0.65827529E+03</pdfrwt>
<pdfrwt beam="2">0</pdfrwt>
<totfact> 0.13351390E+00</totfact>
</mgrwt>
</event>
<event>
 6    1  0.5382669E-003  0.6462340E+03  0.7818608E-02  0.9813871E-01
          1   -1    0    0  502    0  0.00000000000E+00  0.00000000000E+00  0.10452000095E+03  0.10452000095E+03  0.00000000000E+00 0.  1.
         13   -1    0    0    0    0 -0.00000000000E+00 -0.00000000000E+00 -0.10000000000E+04  0.10000000000E+04  0.00000000000E+00 0.  1.
    9000005    2    1    2  501    0 -0.45848211486E-02 -0.29748273188E-03 -0.89559533935E+03  0.11044045692E+04  0.64623404470E+03 0.  0.
         13    1    3    3    0    0  0.51503002832E+02 -0.97613849505E+02  0.71192641901E+02  0.13133702896E+03  0.00000000000E+00 0.  1.
          1    1    3    3  501    0 -0.51507587653E+02  0.97613552022E+02 -0.96678798125E+03  0.97306754021E+03  0.00000000000E+00 0.  1.
         21    1    1    2  502  501  0.45848211486E-02  0.29748273187E-03  0.11534029929E+00  0.11543177085E+00  0.00000000000E+00 0. -1.
<mgrwt>
<rscale>  1 0.64623404E+03</rscale>
<asrwt>0</asrwt>
<pdfrwt beam="1">  1        1 0.38007353E+00 0.64623404E+03</pdfrwt>
<pdfrwt beam="2">0</pdfrwt>
<totfact> 0.16408823E+00</totfact>
</mgrwt>
</event>
<event>
 6    1  0.5382669E-003  0.6417027E+03  0.7818608E-02  0.9822474E-01
          1   -1    0    0  502    0  0.00000000000E+00  0.00000000000E+00  0.10294574157E+03  0.10294574157E+03  0.00000000000E+00 0.  1.
         13   -1    0    0    0    0 -0.00000000000E+00 -0.00000000000E+00 -0.10000000000E+04  0.10000000000E+04  0.00000000000E+00 0.  1.
    9000005    2    1    2  501    0 -0.14907310344E-04 -0.52580334469E-05 -0.89705440267E+03  0.11029455965E+04  0.64170272510E+03 0.  0.
         13    1    3    3    0    0 -0.15785738394E+03  0.32915221906E+02  0.28238955982E+02  0.16370645721E+03  0.00000000000E+00 0.  1.
          1    1    3    3  501    0  0.15785736903E+03 -0.32915227164E+02 -0.92529335865E+03  0.93923913925E+03  0.00000000000E+00 0.  1.
         21    1    1    2  502  501  0.14907310360E-04  0.52580334440E-05  0.14424035368E-03  0.14510394360E-03  0.00000000000E+00 0.  1.
<mgrwt>
<rscale>  1 0.64170273E+03</rscale>
<asrwt>0</asrwt>
<pdfrwt beam="1">  1        1 0.37434894E+00 0.64170273E+03</pdfrwt>
<pdfrwt beam="2">0</pdfrwt>
<totfact> 0.17404552E+00</totfact>
</mgrwt>
</event>
<event>
 6    1  0.5382669E-003  0.5828957E+03  0.7818608E-02  0.9941541E-01
          1   -1    0    0  502    0  0.00000000000E+00  0.00000000000E+00  0.85710471002E+02  0.85710471002E+02  0.00000000000E+00 0.  1.
         13   -1    0    0    0    0 -0.00000000000E+00 -0.00000000000E+00 -0.10000000000E+04  0.10000000000E+04  0.00000000000E+00 0.  1.
    9000005    2    1    2  501    0 -0.12352357982E+00 -0.31484636719E-03 -0.91505275172E+03  0.10849373170E+04  0.58289572664E+03 0.  0.
         13    1    3    3    0    0 -0.21794093229E+03  0.84288757644E+02 -0.78194354241E+03  0.81611184782E+03  0.00000000000E+00 0.  1.
          3    1    3    3  501    0  0.21781740871E+03 -0.84289072491E+02 -0.13310920931E+03  0.26882546918E+03  0.00000000000E+00 0.  1.
         21    1    1    2  502  501  0.12352357982E+00  0.31484636720E-03  0.76322272655E+00  0.77315399774E+00  0.00000000000E+00 0. -1.
<mgrwt>
<rscale>  1 0.58289574E+03</rscale>
<asrwt>0</asrwt>
<pdfrwt beam="1">  1        1 0.31167510E+00 0.58289574E+03</pdfrwt>
<pdfrwt beam="2">0</pdfrwt>
<totfact> 0.32956511E+00</totfact>
</mgrwt>
</event>
<event>
 6    1  0.5382669E-003  0.6405977E+03  0.7818608E-02  0.9824584E-01
          1   -1    0    0  502    0  0.00000000000E+00  0.00000000000E+00  0.10260826117E+03  0.10260826117E+03  0.00000000000E+00 0.  1.
         13   -1    0    0    0    0 -0.00000000000E+00 -0.00000000000E+00 -0.10000000000E+04  0.10000000000E+04  0.00000000000E+00 0.  1.
    9000005    2    1    2  501    0  0.98153142216E-03  0.18064681009E-02 -0.89740858581E+03  0.11025912892E+04  0.64059767495E+03 0.  0.
         13    1    3    3    0    0 -0.32342886976E+02  0.12184366078E+03  0.58096606601E+02  0.13880618037E+03  0.00000000000E+00 0.  1.
          1    1    3    3  501    0  0.32343868508E+02 -0.12184185432E+03 -0.95550519241E+03  0.96378510884E+03  0.00000000000E+00 0.  1.
         21    1    1    2  502  501 -0.98153142216E-03 -0.18064681009E-02  0.16846976056E-01  0.16971957258E-01  0.00000000000E+00 0.  1.
<mgrwt>
<rscale>  1 0.64059767E+03</rscale>
<asrwt>0</asrwt>
<pdfrwt beam="1">  1        1 0.37312174E+00 0.64059767E+03</pdfrwt>
<pdfrwt beam="2">0</pdfrwt>
<totfact> 0.17625820E+00</totfact>
</mgrwt>
</event>
<event>
 6    1  0.5382669E-003  0.6501076E+03  0.7818608E-02  0.9806577E-01
          1   -1    0    0  502    0  0.00000000000E+00  0.00000000000E+00  0.10565998194E+03  0.10565998194E+03  0.00000000000E+00 0.  1.
         13   -1    0    0    0    0 -0.00000000000E+00 -0.00000000000E+00 -0.10000000000E+04  0.10000000000E+04  0.00000000000E+00 0.  1.
    9000005    2    1    2  501    0 -0.14334636944E-05  0.10721300953E-04 -0.89434002670E+03  0.11056599681E+04  0.65010759240E+03 0.  0.
         13    1    3    3    0    0  0.18301670480E+03 -0.13823995404E+03 -0.55430166362E+02  0.23596165466E+03  0.00000000000E+00 0.  1.
          3    1    3    3  501    0 -0.18301670623E+03  0.13823996476E+03 -0.83890986034E+03  0.86969831343E+03  0.00000000000E+00 0.  1.
         21    1    1    2  502  501  0.14334636941E-05 -0.10721300973E-04  0.86413328575E-05  0.13844628787E-04  0.00000000000E+00 0. -1.
<mgrwt>
<rscale>  1 0.65010759E+03</rscale>
<asrwt>0</asrwt>
<pdfrwt beam="1">  1        1 0.38421893E+00 0.65010759E+03</pdfrwt>
<pdfrwt beam="2">0</pdfrwt>
<totfact> 0.15720190E+00</totfact>
</mgrwt>
</event>
<event>
 6    1  0.5382669E-003  0.6436833E+03  0.7818608E-02  0.9818705E-01
          3   -1    0    0  502    0  0.00000000000E+00  0.00000000000E+00  0.10590484677E+03  0.10590484677E+03  0.00000000000E+00 0.  1.
         13   -1    0    0    0    0 -0.00000000000E+00 -0.00000000000E+00 -0.10000000000E+04  0.10000000000E+04  0.00000000000E+00 0.  1.
    9000005    2    1    2  501    0 -0.88925993387E-01  0.15878765232E+00 -0.89641402730E+03  0.11035788420E+04  0.64368324430E+03 0.  0.
         13    1    3    3    0    0 -0.14682157297E+03  0.24362175109E+03 -0.18986140106E+03  0.34198754876E+03  0.00000000000E+00 0.  1.
          1    1    3    3  501    0  0.14673264698E+03 -0.24346296344E+03 -0.70655262624E+03  0.76159129322E+03  0.00000000000E+00 0.  1.
         21    1    1    2  502  501  0.88925993387E-01 -0.15878765232E+00  0.23188740669E+01  0.23260047913E+01  0.00000000000E+00 0.  1.
<mgrwt>
<rscale>  1 0.64368327E+03</rscale>
<asrwt>0</asrwt>
<pdfrwt beam="1">  1        3 0.38510935E+00 0.64368327E+03</pdfrwt>
<pdfrwt beam="2">0</pdfrwt>
<totfact> 0.71010513E-02</totfact>
</mgrwt>
</event>
<event>
 6    1  0.5382669E-003  0.6507864E+03  0.7818608E-02  0.9805305E-01
          1   -1    0    0  502    0  0.00000000000E+00  0.00000000000E+00  0.10589943578E+03  0.10589943578E+03  0.00000000000E+00 0.  1.
         13   -1    0    0    0    0 -0.00000000000E+00 -0.00000000000E+00 -0.10000000000E+04  0.10000000000E+04  0.00000000000E+00 0.  1.
    9000005    2    1    2  501    0  0.12814479234E-02  0.16576441885E-03 -0.89411923194E+03  0.11058807234E+04  0.65078642692E+03 0.  0.
         13    1    3    3    0    0  0.15524548112E+03  0.25472063982E+03 -0.66795082973E+03  0.73153405573E+03  0.00000000000E+00 0.  1.
          1    1    3    3  501    0 -0.15524419967E+03 -0.25472047406E+03 -0.22616840221E+03  0.37434666766E+03  0.00000000000E+00 0.  1.
         21    1    1    2  502  501 -0.12814479234E-02 -0.16576441886E-03  0.18667722357E-01  0.18712387465E-01  0.00000000000E+00 0.  1.
<mgrwt>
<rscale>  1 0.65078643E+03</rscale>
<asrwt>0</asrwt>
<pdfrwt beam="1">  1        1 0.38508967E+00 0.65078643E+03</pdfrwt>
<pdfrwt beam="2">0</pdfrwt>
<totfact> 0.15579465E+00</totfact>
</mgrwt>
</event>
<event>
 6    1  0.5382669E-003  0.6741244E+03  0.7818608E-02  0.9762536E-01
          1   -1    0    0  502    0  0.00000000000E+00  0.00000000000E+00  0.11361539111E+03  0.11361539111E+03  0.00000000000E+00 0.  1.
         13   -1    0    0    0    0 -0.00000000000E+00 -0.00000000000E+00 -0.10000000000E+04  0.10000000000E+04  0.00000000000E+00 0.  1.
    9000005    2    1    2  501    0 -0.10998573258E-03  0.12572658815E-03 -0.88638908114E+03  0.11136109157E+04  0.67412437167E+03 0.  0.
         13    1    3    3    0    0  0.91425915816E+02  0.17653571141E+03 -0.89283519768E+03  0.91470117836E+03  0.00000000000E+00 0.  1.
          1    1    3    3  501    0 -0.91426025802E+02 -0.17653558568E+03  0.64461165350E+01  0.19890973738E+03  0.00000000000E+00 0.  1.
         21    1    1    2  502  501  0.10998573257E-03 -0.12572658817E-03  0.44722507406E-02  0.44753693393E-02  0.00000000000E+00 0.  1.
<mgrwt>
<rscale>  1 0.67412437E+03</rscale>
<asrwt>0</asrwt>
<pdfrwt beam="1">  1        1 0.41314775E+00 0.67412437E+03</pdfrwt>
<pdfrwt beam="2">0</pdfrwt>
<totfact> 0.11630063E+00</totfact>
</mgrwt>
</event>
<event>
 6    1  0.5382669E-003  0.6481865E+03  0.7818608E-02  0.9810188E-01
          1   -1    0    0  502    0  0.00000000000E+00  0.00000000000E+00  0.10507260984E+03  0.10507260984E+03  0.00000000000E+00 0.  1.
         13   -1    0    0    0    0 -0.00000000000E+00 -0.00000000000E+00 -0.10000000000E+04  0.10000000000E+04  0.00000000000E+00 0.  1.
    9000005    2    1    2  501    0 -0.16284145038E-01  0.28500534853E-01 -0.89495514144E+03  0.11050296263E+04  0.64818652304E+03 0.  0.
         13    1    3    3    0    0  0.11612560034E+03 -0.19249216053E+03 -0.49505880298E+02  0.23019387286E+03  0.00000000000E+00 0.  1.
          1    1    3    3  501    0 -0.11614188448E+03  0.19252066106E+03 -0.84544926114E+03  0.87483575341E+03  0.00000000000E+00 0.  1.
         21    1    1    2  502  501  0.16284145038E-01 -0.28500534853E-01  0.27751279404E-01  0.42983570990E-01  0.00000000000E+00 0.  1.
<mgrwt>
<rscale>  1 0.64818652E+03</rscale>
<asrwt>0</asrwt>
<pdfrwt beam="1">  1        1 0.38208302E+00 0.64818652E+03</pdfrwt>
<pdfrwt beam="2">0</pdfrwt>
<totfact> 0.16071278E+00</totfact>
</mgrwt>
</event>
<event>
 6    1  0.5382669E-003  0.6513533E+03  0.7818608E-02  0.9804243E-01
          1   -1    0    0  502    0  0.00000000000E+00  0.00000000000E+00  0.10669659540E+03  0.10669659540E+03  0.00000000000E+00 0.  1.
         13   -1    0    0    0    0 -0.00000000000E+00 -0.00000000000E+00 -0.10000000000E+04  0.10000000000E+04  0.00000000000E+00 0.  1.
    9000005    2    1    2  501    0  0.64117371053E+00  0.26772531821E+00 -0.89371599309E+03  0.11058885052E+04  0.65135292029E+03 0.  0.
         13    1    3    3    0    0 -0.65223235764E+02  0.15785929512E+03 -0.91765672969E+03  0.93341710992E+03  0.00000000000E+00 0.  1.
          1    1    3    3  501    0  0.65864409474E+02 -0.15759156980E+03  0.23940736607E+02  0.17247139524E+03  0.00000000000E+00 0.  1.
         21    1    1    2  502  501 -0.64117371053E+00 -0.26772531821E+00  0.41258848718E+00  0.80809023805E+00  0.00000000000E+00 0. -1.
<mgrwt>
<rscale>  1 0.65135329E+03</rscale>
<asrwt>0</asrwt>
<pdfrwt beam="1">  1        1 0.38798844E+00 0.65135329E+03</pdfrwt>
<pdfrwt beam="2">0</pdfrwt>
<totfact> 0.15124298E+00</totfact>
</mgrwt>
</event>
<event>
 6    1  0.5382669E-003  0.6691291E+03  0.7818608E-02  0.9771532E-01
          1   -1    0    0  502    0  0.00000000000E+00  0.00000000000E+00  0.11194904291E+03  0.11194904291E+03  0.00000000000E+00 0.  1.
         13   -1    0    0    0    0 -0.00000000000E+00 -0.00000000000E+00 -0.10000000000E+04  0.10000000000E+04  0.00000000000E+00 0.  1.
    9000005    2    1    2  501    0  0.87895125256E-03  0.11412311779E-02 -0.88806653214E+03  0.11119334014E+04  0.66912907844E+03 0.  0.
         13    1    3    3    0    0  0.33249875016E+02 -0.51150033998E+02  0.10261209952E+03  0.11937806807E+03  0.00000000000E+00 0.  1.
          1    1    3    3  501    0 -0.33248996065E+02  0.51151175229E+02 -0.99067863167E+03  0.99255533332E+03  0.00000000000E+00 0.  1.
         21    1    1    2  502  501 -0.87895125256E-03 -0.11412311779E-02  0.15575054413E-01  0.15641524347E-01  0.00000000000E+00 0. -1.
<mgrwt>
<rscale>  1 0.66912908E+03</rscale>
<asrwt>0</asrwt>
<pdfrwt beam="1">  1        1 0.40708829E+00 0.66912908E+03</pdfrwt>
<pdfrwt beam="2">0</pdfrwt>
<totfact> 0.12392982E+00</totfact>
</mgrwt>
</event>
<event>
 6    1  0.5382669E-003  0.6443843E+03  0.7818608E-02  0.9817374E-01
          1   -1    0    0  502    0  0.00000000000E+00  0.00000000000E+00  0.10380813670E+03  0.10380813670E+03  0.00000000000E+00 0.  1.
         13   -1    0    0    0    0 -0.00000000000E+00 -0.00000000000E+00 -0.10000000000E+04  0.10000000000E+04  0.00000000000E+00 0.  1.
    9000005    2    1    2  501    0  0.32220947347E-04 -0.21030006232E-03 -0.89619217830E+03  0.11038077566E+04  0.64438431317E+03 0.  0.
         13    1    3    3    0    0  0.28202162951E+02 -0.11597227258E+03  0.64543879646E+02  0.13568655940E+03  0.00000000000E+00 0.  1.
          3    1    3    3  501    0 -0.28202130730E+02  0.11597206228E+03 -0.96073605794E+03  0.96812119718E+03  0.00000000000E+00 0.  1.
         21    1    1    2  502  501 -0.32220947349E-04  0.21030006233E-03  0.31499721474E-03  0.38011518117E-03  0.00000000000E+00 0. -1.
<mgrwt>
<rscale>  1 0.64438431E+03</rscale>
<asrwt>0</asrwt>
<pdfrwt beam="1">  1        1 0.37748493E+00 0.64438431E+03</pdfrwt>
<pdfrwt beam="2">0</pdfrwt>
<totfact> 0.16851544E+00</totfact>
</mgrwt>
</event>
<event>
 6    1  0.5382669E-003  0.6405378E+03  0.7818608E-02  0.9824698E-01
          1   -1    0    0  502    0  0.00000000000E+00  0.00000000000E+00  0.10268750754E+03  0.10268750754E+03  0.00000000000E+00 0.  1.
         13   -1    0    0    0    0 -0.00000000000E+00 -0.00000000000E+00 -0.10000000000E+04  0.10000000000E+04  0.00000000000E+00 0.  1.
    9000005    2    1    2  501    0 -0.10114832084E-02 -0.52020210714E-02 -0.89742776010E+03  0.11025721181E+04  0.64053781395E+03 0.  0.
         13    1    3    3    0    0 -0.21682118985E+03 -0.22914651507E+03 -0.35359103867E+03  0.47386303545E+03  0.00000000000E+00 0.  1.
          3    1    3    3  501    0  0.21682017837E+03  0.22914131305E+03 -0.54383672143E+03  0.62870908270E+03  0.00000000000E+00 0.  1.
         21    1    1    2  502  501  0.10114832084E-02  0.52020210714E-02  0.11526763913E+00  0.11538939619E+00  0.00000000000E+00 0.  1.
<mgrwt>
<rscale>  1 0.64053781E+03</rscale>
<asrwt>0</asrwt>
<pdfrwt beam="1">  1        1 0.37340991E+00 0.64053781E+03</pdfrwt>
<pdfrwt beam="2">0</pdfrwt>
<totfact> 0.17574648E+00</totfact>
</mgrwt>
</event>
<event>
 6    1  0.5382669E-003  0.6723688E+03  0.7818608E-02  0.9765688E-01
          1   -1    0    0  502    0  0.00000000000E+00  0.00000000000E+00  0.11302078478E+03  0.11302078478E+03  0.00000000000E+00 0.  1.
         13   -1    0    0    0    0 -0.00000000000E+00 -0.00000000000E+00 -0.10000000000E+04  0.10000000000E+04  0.00000000000E+00 0.  1.
    9000005    2    1    2  501    0 -0.79951038686E-04  0.46241319271E-04 -0.88698004461E+03  0.11130199503E+04  0.67236880516E+03 0.  0.
         13    1    3    3    0    0 -0.28034960017E+03  0.88482482469E+01 -0.13670648090E+03  0.31203020965E+03  0.00000000000E+00 0.  1.
          3    1    3    3  501    0  0.28034952022E+03 -0.88482020056E+01 -0.75027356371E+03  0.80098974061E+03  0.00000000000E+00 0.  1.
         21    1    1    2  502  501  0.79951038681E-04 -0.46241319271E-04  0.82939287680E-03  0.83451960569E-03  0.00000000000E+00 0. -1.
<mgrwt>
<rscale>  1 0.67236881E+03</rscale>
<asrwt>0</asrwt>
<pdfrwt beam="1">  1        1 0.41098554E+00 0.67236881E+03</pdfrwt>
<pdfrwt beam="2">0</pdfrwt>
<totfact> 0.11897019E+00</totfact>
</mgrwt>
</event>
<event>
 6    1  0.5382669E-003  0.6556485E+03  0.7818608E-02  0.9796238E-01
          1   -1    0    0  502    0  0.00000000000E+00  0.00000000000E+00  0.10767167618E+03  0.10767167618E+03  0.00000000000E+00 0.  1.
         13   -1    0    0    0    0 -0.00000000000E+00 -0.00000000000E+00 -0.10000000000E+04  0.10000000000E+04  0.00000000000E+00 0.  1.
    9000005    2    1    2  501    0  0.23509822701E-01  0.20845712080E-01 -0.89252992329E+03  0.11074676428E+04  0.65564846906E+03 0.  0.
         13    1    3    3    0    0  0.20551467907E+03 -0.10284284837E+03 -0.51369048421E+02  0.23548187597E+03  0.00000000000E+00 0.  1.
          3    1    3    3  501    0 -0.20549116925E+03  0.10286369408E+03 -0.84116087487E+03  0.87198576687E+03  0.00000000000E+00 0.  1.
         21    1    1    2  502  501 -0.23509822701E-01 -0.20845712080E-01  0.20159947027E+00  0.20403333524E+00  0.00000000000E+00 0. -1.
<mgrwt>
<rscale>  1 0.65564847E+03</rscale>
<asrwt>0</asrwt>
<pdfrwt beam="1">  1        1 0.39153419E+00 0.65564847E+03</pdfrwt>
<pdfrwt beam="2">0</pdfrwt>
<totfact> 0.14574942E+00</totfact>
</mgrwt>
</event>
<event>
 6    1  0.5382669E-003  0.6725986E+03  0.7818608E-02  0.9765275E-01
          1   -1    0    0  502    0  0.00000000000E+00  0.00000000000E+00  0.11310247608E+03  0.11310247608E+03  0.00000000000E+00 0.  1.
         13   -1    0    0    0    0 -0.00000000000E+00 -0.00000000000E+00 -0.10000000000E+04  0.10000000000E+04  0.00000000000E+00 0.  1.
    9000005    2    1    2  501    0 -0.37266739324E-03 -0.72192055654E-03 -0.88690274988E+03  0.11130971873E+04  0.67259858811E+03 0.  0.
         13    1    3    3    0    0 -0.15484917509E+03  0.17146562980E+03 -0.39032490295E+02  0.23431232261E+03  0.00000000000E+00 0.  1.
          1    1    3    3  501    0  0.15484880243E+03 -0.17146635172E+03 -0.84787025959E+03  0.87878486473E+03  0.00000000000E+00 0.  1.
         21    1    1    2  502  501  0.37266739321E-03  0.72192055655E-03  0.52259606064E-02  0.52887346819E-02  0.00000000000E+00 0.  1.
<mgrwt>
<rscale>  1 0.67259859E+03</rscale>
<asrwt>0</asrwt>
<pdfrwt beam="1">  1        1 0.41128260E+00 0.67259859E+03</pdfrwt>
<pdfrwt beam="2">0</pdfrwt>
<totfact> 0.11860030E+00</totfact>
</mgrwt>
</event>
<event>
 6    1  0.5382669E-003  0.6299697E+03  0.7818608E-02  0.9845108E-01
          1   -1    0    0  502    0  0.00000000000E+00  0.00000000000E+00  0.99216913285E+02  0.99216913285E+02  0.00000000000E+00 0.  1.
         13   -1    0    0    0    0 -0.00000000000E+00 -0.00000000000E+00 -0.10000000000E+04  0.10000000000E+04  0.00000000000E+00 0.  1.
    9000005    2    1    2  501    0  0.25016451708E-03  0.26013844860E-04 -0.90078454654E+03  0.10992154319E+04  0.62996965525E+03 0.  0.
         13    1    3    3    0    0  0.10320498171E+03 -0.16422655693E+03 -0.17348545604E+02  0.19473726476E+03  0.00000000000E+00 0.  1.
          1    1    3    3  501    0 -0.10320473155E+03  0.16422658295E+03 -0.88343600094E+03  0.90447816719E+03  0.00000000000E+00 0.  1.
         21    1    1    2  502  501 -0.25016451709E-03 -0.26013844842E-04  0.14598298977E-02  0.14813380222E-02  0.00000000000E+00 0. -1.
<mgrwt>
<rscale>  1 0.62996966E+03</rscale>
<asrwt>0</asrwt>
<pdfrwt beam="1">  1        1 0.36078954E+00 0.62996966E+03</pdfrwt>
<pdfrwt beam="2">0</pdfrwt>
<totfact> 0.20002235E+00</totfact>
</mgrwt>
</event>
<event>
 6    1  0.5382669E-003  0.6417137E+03  0.7818608E-02  0.9822453E-01
          1   -1    0    0  502    0  0.00000000000E+00  0.00000000000E+00  0.10296097901E+03  0.10296097901E+03  0.00000000000E+00 0.  1.
         13   -1    0    0    0    0 -0.00000000000E+00 -0.00000000000E+00 -0.10000000000E+04  0.10000000000E+04  0.00000000000E+00 0.  1.
    9000005    2    1    2  501    0  0.20934289511E-02 -0.10529123794E-02 -0.89705075870E+03  0.11029490097E+04  0.64171368559E+03 0.  0.
         13    1    3    3    0    0  0.15627017769E+03  0.27897156268E+03 -0.40293318712E+03  0.51439348217E+03  0.00000000000E+00 0.  1.
          3    1    3    3  501    0 -0.15626808426E+03 -0.27897261560E+03 -0.49411757158E+03  0.58855552751E+03  0.00000000000E+00 0.  1.
         21    1    1    2  502  501 -0.20934289511E-02  0.10529123794E-02  0.11737704587E-01  0.11969326557E-01  0.00000000000E+00 0. -1.
<mgrwt>
<rscale>  1 0.64171369E+03</rscale>
<asrwt>0</asrwt>
<pdfrwt beam="1">  1        1 0.37440435E+00 0.64171369E+03</pdfrwt>
<pdfrwt beam="2">0</pdfrwt>
<totfact> 0.17394748E+00</totfact>
</mgrwt>
</event>
<event>
 6    1  0.5382669E-003  0.6452039E+03  0.7818608E-02  0.9815821E-01
          1   -1    0    0  502    0  0.00000000000E+00  0.00000000000E+00  0.10407225908E+03  0.10407225908E+03  0.00000000000E+00 0.  1.
         13   -1    0    0    0    0 -0.00000000000E+00 -0.00000000000E+00 -0.10000000000E+04  0.10000000000E+04  0.00000000000E+00 0.  1.
    9000005    2    1    2  501    0 -0.28471785342E-04 -0.31811173791E-04 -0.89592797243E+03  0.11040720237E+04  0.64520392253E+03 0.  0.
         13    1    3    3    0    0 -0.80939564840E+02  0.17105728198E+02  0.85612329674E+02  0.11905162782E+03  0.00000000000E+00 0.  1.
          1    1    3    3  501    0  0.80939536368E+02 -0.17105760009E+02 -0.98154030211E+03  0.98502039585E+03  0.00000000000E+00 0.  1.
         21    1    1    2  502  501  0.28471785353E-04  0.31811173790E-04  0.23151714853E-03  0.23542043964E-03  0.00000000000E+00 0.  1.
<mgrwt>
<rscale>  1 0.64520392E+03</rscale>
<asrwt>0</asrwt>
<pdfrwt beam="1">  1        1 0.37844538E+00 0.64520392E+03</pdfrwt>
<pdfrwt beam="2">0</pdfrwt>
<totfact> 0.16685562E+00</totfact>
</mgrwt>
</event>
<event>
 6    1  0.5382669E-003  0.6455277E+03  0.7818608E-02  0.9815208E-01
          1   -1    0    0  502    0  0.00000000000E+00  0.00000000000E+00  0.10422140766E+03  0.10422140766E+03  0.00000000000E+00 0.  1.
         13   -1    0    0    0    0 -0.00000000000E+00 -0.00000000000E+00 -0.10000000000E+04  0.10000000000E+04  0.00000000000E+00 0.  1.
    9000005    2    1    2  501    0  0.82619260357E-03  0.52969776146E-03 -0.89582349633E+03  0.11041764929E+04  0.64552768414E+03 0.  0.
         13    1    3    3    0    0  0.22101649059E+03  0.22073960576E+03 -0.58690092417E+03  0.66485107916E+03  0.00000000000E+00 0.  1.
          1    1    3    3  501    0 -0.22101566440E+03 -0.22073907606E+03 -0.30892257216E+03  0.43932541379E+03  0.00000000000E+00 0.  1.
         21    1    1    2  502  501 -0.82619260358E-03 -0.52969776146E-03  0.44903990228E-01  0.44914713762E-01  0.00000000000E+00 0.  1.
<mgrwt>
<rscale>  1 0.64552768E+03</rscale>
<asrwt>0</asrwt>
<pdfrwt beam="1">  1        1 0.37898774E+00 0.64552768E+03</pdfrwt>
<pdfrwt beam="2">0</pdfrwt>
<totfact> 0.16592945E+00</totfact>
</mgrwt>
</event>
<event>
 6    1  0.5382669E-003  0.6542349E+03  0.7818608E-02  0.9798865E-01
          1   -1    0    0  502    0  0.00000000000E+00  0.00000000000E+00  0.10701344375E+03  0.10701344375E+03  0.00000000000E+00 0.  1.
         13   -1    0    0    0    0 -0.00000000000E+00 -0.00000000000E+00 -0.10000000000E+04  0.10000000000E+04  0.00000000000E+00 0.  1.
    9000005    2    1    2  501    0 -0.92327075802E-02 -0.14861546370E-01 -0.89298079842E+03  0.11069950247E+04  0.65423487989E+03 0.  0.
         13    1    3    3    0    0  0.32124161453E+03 -0.55052691076E+02 -0.39932979793E+03  0.51545248201E+03  0.00000000000E+00 0.  1.
          1    1    3    3  501    0 -0.32125084723E+03  0.55037829529E+02 -0.49365100049E+03  0.59154254269E+03  0.00000000000E+00 0.  1.
         21    1    1    2  502  501  0.92327075802E-02  0.14861546370E-01 -0.57578294542E-02  0.18419040415E-01  0.00000000000E+00 0.  1.
<mgrwt>
<rscale>  1 0.65423488E+03</rscale>
<asrwt>0</asrwt>
<pdfrwt beam="1">  1        1 0.38914062E+00 0.65423488E+03</pdfrwt>
<pdfrwt beam="2">0</pdfrwt>
<totfact> 0.14939552E+00</totfact>
</mgrwt>
</event>
<event>
 6    1  0.5382669E-003  0.6471731E+03  0.7818608E-02  0.9812098E-01
          1   -1    0    0  502    0  0.00000000000E+00  0.00000000000E+00  0.10486313013E+03  0.10486313013E+03  0.00000000000E+00 0.  1.
         13   -1    0    0    0    0 -0.00000000000E+00 -0.00000000000E+00 -0.10000000000E+04  0.10000000000E+04  0.00000000000E+00 0.  1.
    9000005    2    1    2  501    0  0.15974661920E-02 -0.22152970630E-02 -0.89529173242E+03  0.11047082435E+04  0.64717309670E+03 0.  0.
         13    1    3    3    0    0 -0.24364363522E+03 -0.13965271268E+03 -0.72205524404E+03  0.77474439436E+03  0.00000000000E+00 0.  1.
          3    1    3    3  501    0  0.24364523268E+03  0.13965049739E+03 -0.17323648838E+03  0.32996384913E+03  0.00000000000E+00 0.  1.
         21    1    1    2  502  501 -0.15974661920E-02  0.22152970630E-02  0.15486255645E+00  0.15488663864E+00  0.00000000000E+00 0.  1.
<mgrwt>
<rscale>  1 0.64717310E+03</rscale>
<asrwt>0</asrwt>
<pdfrwt beam="1">  1        1 0.38132128E+00 0.64717310E+03</pdfrwt>
<pdfrwt beam="2">0</pdfrwt>
<totfact> 0.16199262E+00</totfact>
</mgrwt>
</event>
<event>
 6    1  0.5382669E-003  0.6470655E+03  0.7818608E-02  0.9812301E-01
          1   -1    0    0  502    0  0.00000000000E+00  0.00000000000E+00  0.10467562531E+03  0.10467562531E+03  0.00000000000E+00 0.  1.
         13   -1    0    0    0    0 -0.00000000000E+00 -0.00000000000E+00 -0.10000000000E+04  0.10000000000E+04  0.00000000000E+00 0.  1.
    9000005    2    1    2  501    0 -0.14752291946E-04 -0.56797561854E-04 -0.89532657397E+03  0.11046734253E+04  0.64706545450E+03 0.  0.
         13    1    3    3    0    0  0.12819375417E+03 -0.26729211868E+03 -0.66890763150E+03  0.73165301530E+03  0.00000000000E+00 0.  1.
          1    1    3    3  501    0 -0.12819376893E+03  0.26729206188E+03 -0.22641894247E+03  0.37302040995E+03  0.00000000000E+00 0.  1.
         21    1    1    2  502  501  0.14752291950E-04  0.56797561868E-04  0.21992716565E-02  0.22000544112E-02  0.00000000000E+00 0.  1.
<mgrwt>
<rscale>  1 0.64706545E+03</rscale>
<asrwt>0</asrwt>
<pdfrwt beam="1">  1        1 0.38063944E+00 0.64706545E+03</pdfrwt>
<pdfrwt beam="2">0</pdfrwt>
<totfact> 0.16312243E+00</totfact>
</mgrwt>
</event>
<event>
 6    1  0.5382669E-003  0.6449020E+03  0.7818608E-02  0.9816393E-01
          1   -1    0    0  502    0  0.00000000000E+00  0.00000000000E+00  0.10398785992E+03  0.10398785992E+03  0.00000000000E+00 0.  1.
         13   -1    0    0    0    0 -0.00000000000E+00 -0.00000000000E+00 -0.10000000000E+04  0.10000000000E+04  0.00000000000E+00 0.  1.
    9000005    2    1    2  501    0 -0.21553730545E-01  0.41645820548E-02 -0.89601443954E+03  0.11039657874E+04  0.64490199526E+03 0.  0.
         13    1    3    3    0    0 -0.20013415864E+03  0.18100807965E+03 -0.75020480486E+03  0.79726084539E+03  0.00000000000E+00 0.  1.
          1    1    3    3  501    0  0.20011260491E+03 -0.18100391507E+03 -0.14580963468E+03  0.30670494205E+03  0.00000000000E+00 0.  1.
         21    1    1    2  502  501  0.21553730545E-01 -0.41645820548E-02  0.22994629100E-02  0.22072484540E-01  0.00000000000E+00 0.  1.
<mgrwt>
<rscale>  1 0.64490200E+03</rscale>
<asrwt>0</asrwt>
<pdfrwt beam="1">  1        1 0.37813847E+00 0.64490200E+03</pdfrwt>
<pdfrwt beam="2">0</pdfrwt>
<totfact> 0.16738553E+00</totfact>
</mgrwt>
</event>
<event>
 6    1  0.5382669E-003  0.6358915E+03  0.7818608E-02  0.9833619E-01
          1   -1    0    0  502    0  0.00000000000E+00  0.00000000000E+00  0.10113720279E+03  0.10113720279E+03  0.00000000000E+00 0.  1.
         13   -1    0    0    0    0 -0.00000000000E+00 -0.00000000000E+00 -0.10000000000E+04  0.10000000000E+04  0.00000000000E+00 0.  1.
    9000005    2    1    2  501    0  0.82711559326E-02  0.89269420388E-01 -0.89885898462E+03  0.11010474700E+04  0.63589153861E+03 0.  0.
         13    1    3    3    0    0  0.27370566988E+03  0.53564358366E+02 -0.71381902848E+03  0.76636906229E+03  0.00000000000E+00 0.  1.
          1    1    3    3  501    0 -0.27369739872E+03 -0.53475088945E+02 -0.18503995614E+03  0.33467840769E+03  0.00000000000E+00 0.  1.
         21    1    1    2  502  501 -0.82711559326E-02 -0.89269420388E-01 -0.38125951305E-02  0.89732810713E-01  0.00000000000E+00 0.  1.
<mgrwt>
<rscale>  1 0.63589154E+03</rscale>
<asrwt>0</asrwt>
<pdfrwt beam="1">  1        1 0.36777242E+00 0.63589154E+03</pdfrwt>
<pdfrwt beam="2">0</pdfrwt>
<totfact> 0.18621723E+00</totfact>
</mgrwt>
</event>
<event>
 6    1  0.5382669E-003  0.6412411E+03  0.7818608E-02  0.9823355E-01
          1   -1    0    0  502    0  0.00000000000E+00  0.00000000000E+00  0.10542514294E+03  0.10542514294E+03  0.00000000000E+00 0.  1.
         13   -1    0    0    0    0 -0.00000000000E+00 -0.00000000000E+00 -0.10000000000E+04  0.10000000000E+04  0.00000000000E+00 0.  1.
    9000005    2    1    2  501    0 -0.28293067238E+00  0.13047546646E+00 -0.89719228032E+03  0.11027892412E+04  0.64124100422E+03 0.  0.
         13    1    3    3    0    0 -0.77940771745E+01 -0.20079694964E+03 -0.87811992428E+03  0.90081894076E+03  0.00000000000E+00 0.  1.
          1    1    3    3  501    0  0.75111465021E+01  0.20092742510E+03 -0.19072356044E+02  0.20197030040E+03  0.00000000000E+00 0.  1.
         21    1    1    2  502  501  0.28293067238E+00 -0.13047546646E+00  0.26174232668E+01  0.26359017755E+01  0.00000000000E+00 0. -1.
<mgrwt>
<rscale>  1 0.64124108E+03</rscale>
<asrwt>0</asrwt>
<pdfrwt beam="1">  1        1 0.38336496E+00 0.64124108E+03</pdfrwt>
<pdfrwt beam="2">0</pdfrwt>
<totfact> 0.15883496E+00</totfact>
</mgrwt>
</event>
<event>
 6    1  0.5382669E-003  0.5998801E+03  0.7818608E-02  0.9905655E-01
          1   -1    0    0  502    0  0.00000000000E+00  0.00000000000E+00  0.90001823368E+02  0.90001823368E+02  0.00000000000E+00 0.  1.
         13   -1    0    0    0    0 -0.00000000000E+00 -0.00000000000E+00 -0.10000000000E+04  0.10000000000E+04  0.00000000000E+00 0.  1.
    9000005    2    1    2  501    0  0.95382015746E-01  0.38775017813E-02 -0.90995639816E+03  0.10898976207E+04  0.59988012790E+03 0.  0.
         13    1    3    3    0    0 -0.46142773060E+01 -0.25004135904E+03 -0.15411760009E+03  0.29375875722E+03  0.00000000000E+00 0.  1.
          1    1    3    3  501    0  0.47096593218E+01  0.25004523654E+03 -0.75583879807E+03  0.79613886344E+03  0.00000000000E+00 0.  1.
         21    1    1    2  502  501 -0.95382015746E-01 -0.38775017813E-02 -0.41778471310E-01  0.10420270924E+00  0.00000000000E+00 0. -1.
<mgrwt>
<rscale>  1 0.59988014E+03</rscale>
<asrwt>0</asrwt>
<pdfrwt beam="1">  1        1 0.32728005E+00 0.59988014E+03</pdfrwt>
<pdfrwt beam="2">0</pdfrwt>
<totfact> 0.28129628E+00</totfact>
</mgrwt>
</event>
<event>
 6    1  0.5382669E-003  0.6583523E+03  0.7818608E-02  0.9791232E-01
          1   -1    0    0  502    0  0.00000000000E+00  0.00000000000E+00  0.10880435303E+03  0.10880435303E+03  0.00000000000E+00 0.  1.
         13   -1    0    0    0    0 -0.00000000000E+00 -0.00000000000E+00 -0.10000000000E+04  0.10000000000E+04  0.00000000000E+00 0.  1.
    9000005    2    1    2  501    0 -0.11924568349E+01 -0.14937499320E+00 -0.89042277215E+03  0.11073755068E+04  0.65835124024E+03 0.  0.
         13    1    3    3    0    0  0.12748217730E+03 -0.38960302064E+02 -0.95075511151E+03  0.96005463008E+03  0.00000000000E+00 0.  1.
          3    1    3    3  501    0 -0.12867463413E+03  0.38810927070E+02  0.60332339369E+02  0.14732087667E+03  0.00000000000E+00 0.  1.
         21    1    1    2  502  501  0.11924568349E+01  0.14937499320E+00 -0.77287482578E+00  0.14288462786E+01  0.00000000000E+00 0.  1.
<mgrwt>
<rscale>  1 0.65835234E+03</rscale>
<asrwt>0</asrwt>
<pdfrwt beam="1">  1        1 0.39565303E+00 0.65835234E+03</pdfrwt>
<pdfrwt beam="2">0</pdfrwt>
<totfact> 0.13966485E+00</totfact>
</mgrwt>
</event>
<event>
 6    1  0.5382669E-003  0.6437315E+03  0.7818608E-02  0.9818613E-01
          1   -1    0    0  502    0  0.00000000000E+00  0.00000000000E+00  0.10540782178E+03  0.10540782178E+03  0.00000000000E+00 0.  1.
         13   -1    0    0    0    0 -0.00000000000E+00 -0.00000000000E+00 -0.10000000000E+04  0.10000000000E+04  0.00000000000E+00 0.  1.
    9000005    2    1    2  501    0  0.71814308017E-01 -0.28131462176E+00 -0.89638959214E+03  0.11035871098E+04  0.64373140655E+03 0.  0.
         13    1    3    3    0    0 -0.22980805669E+03 -0.61183395439E+02 -0.82003074556E+03  0.85381823268E+03  0.00000000000E+00 0.  1.
          3    1    3    3  501    0  0.22987987100E+03  0.60902080817E+02 -0.76358846582E+02  0.24976887714E+03  0.00000000000E+00 0.  1.
         21    1    1    2  502  501 -0.71814308017E-01  0.28131462176E+00  0.17974139171E+01  0.18207119488E+01  0.00000000000E+00 0.  1.
<mgrwt>
<rscale>  1 0.64373147E+03</rscale>
<asrwt>0</asrwt>
<pdfrwt beam="1">  1        1 0.38330198E+00 0.64373147E+03</pdfrwt>
<pdfrwt beam="2">0</pdfrwt>
<totfact> 0.15886316E+00</totfact>
</mgrwt>
</event>
<event>
 6    1  0.5382669E-003  0.6561337E+03  0.7818608E-02  0.9795337E-01
          3   -1    0    0  502    0  0.00000000000E+00  0.00000000000E+00  0.10828476958E+03  0.10828476958E+03  0.00000000000E+00 0.  1.
         13   -1    0    0    0    0 -0.00000000000E+00 -0.00000000000E+00 -0.10000000000E+04  0.10000000000E+04  0.00000000000E+00 0.  1.
    9000005    2    1    2  501    0 -0.81095250867E+00  0.31617897876E+00 -0.89203604185E+03  0.11073571204E+04  0.65613316820E+03 0.  0.
         13    1    3    3    0    0 -0.24653036399E+03  0.40643811950E+01 -0.80413009842E+02  0.25934531366E+03  0.00000000000E+00 0.  1.
          3    1    3    3  501    0  0.24571941148E+03 -0.37482022162E+01 -0.81162303201E+03  0.84801180669E+03  0.00000000000E+00 0.  1.
         21    1    1    2  502  501  0.81095250867E+00 -0.31617897876E+00  0.32081143669E+00  0.92764923103E+00  0.00000000000E+00 0. -1.
<mgrwt>
<rscale>  1 0.65613375E+03</rscale>
<asrwt>0</asrwt>
<pdfrwt beam="1">  1        3 0.39376363E+00 0.65613375E+03</pdfrwt>
<pdfrwt beam="2">0</pdfrwt>
<totfact> 0.63807889E-02</totfact>
</mgrwt>
</event>
<event>
 6    1  0.5382669E-003  0.6372941E+03  0.7818608E-02  0.9830917E-01
          1   -1    0    0  502    0  0.00000000000E+00  0.00000000000E+00  0.10153595970E+03  0.10153595970E+03  0.00000000000E+00 0.  1.
         13   -1    0    0    0    0 -0.00000000000E+00 -0.00000000000E+00 -0.10000000000E+04  0.10000000000E+04  0.00000000000E+00 0.  1.
    9000005    2    1    2  501    0 -0.29099986705E-05 -0.43907501421E-05 -0.89846404487E+03  0.11015359527E+04  0.63729413557E+03 0.  0.
         13    1    3    3    0    0  0.26947960854E+03 -0.40230830426E+02 -0.73481055112E+03  0.78369912924E+03  0.00000000000E+00 0.  1.
          1    1    3    3  501    0 -0.26947961145E+03  0.40230826035E+02 -0.16365349375E+03  0.31783682349E+03  0.00000000000E+00 0.  1.
         21    1    1    2  502  501  0.29099987098E-05  0.43907501398E-05  0.45738434927E-05  0.69761610916E-05  0.00000000000E+00 0.  1.
<mgrwt>
<rscale>  1 0.63729414E+03</rscale>
<asrwt>0</asrwt>
<pdfrwt beam="1">  1        1 0.36922245E+00 0.63729414E+03</pdfrwt>
<pdfrwt beam="2">0</pdfrwt>
<totfact> 0.18346152E+00</totfact>
</mgrwt>
</event>
<event>
 6    1  0.5382669E-003  0.7110249E+03  0.7818608E-02  0.9698562E-01
          1   -1    0    0  502    0  0.00000000000E+00  0.00000000000E+00  0.12644330073E+03  0.12644330073E+03  0.00000000000E+00 0.  1.
         13   -1    0    0    0    0 -0.00000000000E+00 -0.00000000000E+00 -0.10000000000E+04  0.10000000000E+04  0.00000000000E+00 0.  1.
    9000005    2    1    2  501    0  0.76613194350E-02  0.20679287134E-02 -0.87361056384E+03  0.11263888548E+04  0.71102491857E+03 0.  0.
         13    1    3    3    0    0  0.18579465205E+02  0.32826861753E+03 -0.22259437771E+03  0.39705634206E+03  0.00000000000E+00 0.  1.
          3    1    3    3  501    0 -0.18571803885E+02 -0.32826654960E+03 -0.65101618613E+03  0.72933251270E+03  0.00000000000E+00 0.  1.
         21    1    1    2  502  501 -0.76613194350E-02 -0.20679287134E-02  0.53864567367E-01  0.54445971038E-01  0.00000000000E+00 0.  1.
<mgrwt>
<rscale>  1 0.71102492E+03</rscale>
<asrwt>0</asrwt>
<pdfrwt beam="1">  1        1 0.45979479E+00 0.71102492E+03</pdfrwt>
<pdfrwt beam="2">0</pdfrwt>
<totfact> 0.70696371E-01</totfact>
</mgrwt>
</event>
<event>
 6    1  0.5382669E-003  0.6184924E+03  0.7818608E-02  0.9867766E-01
          1   -1    0    0  502    0  0.00000000000E+00  0.00000000000E+00  0.95636217558E+02  0.95636217558E+02  0.00000000000E+00 0.  1.
         13   -1    0    0    0    0 -0.00000000000E+00 -0.00000000000E+00 -0.10000000000E+04  0.10000000000E+04  0.00000000000E+00 0.  1.
    9000005    2    1    2  501    0  0.40266554425E-02 -0.82266116192E-03 -0.90436515116E+03  0.10956318858E+04  0.61849244340E+03 0.  0.
         13    1    3    3    0    0  0.11059976483E+03  0.28597419035E+03 -0.38088577732E+03  0.48896576659E+03  0.00000000000E+00 0.  1.
          3    1    3    3  501    0 -0.11059573818E+03 -0.28597501302E+03 -0.52347937383E+03  0.60666611921E+03  0.00000000000E+00 0.  1.
         21    1    1    2  502  501 -0.40266554425E-02  0.82266116190E-03  0.13687133528E-02  0.43317550349E-02  0.00000000000E+00 0.  1.
<mgrwt>
<rscale>  1 0.61849244E+03</rscale>
<asrwt>0</asrwt>
<pdfrwt beam="1">  1        1 0.34776880E+00 0.61849244E+03</pdfrwt>
<pdfrwt beam="2">0</pdfrwt>
<totfact> 0.22845347E+00</totfact>
</mgrwt>
</event>
<event>
 6    1  0.5382669E-003  0.6355116E+03  0.7818608E-02  0.9834352E-01
          1   -1    0    0  502    0  0.00000000000E+00  0.00000000000E+00  0.10097855097E+03  0.10097855097E+03  0.00000000000E+00 0.  1.
         13   -1    0    0    0    0 -0.00000000000E+00 -0.00000000000E+00 -0.10000000000E+04  0.10000000000E+04  0.00000000000E+00 0.  1.
    9000005    2    1    2  501    0  0.21412227402E-03  0.15940283592E-03 -0.89903125154E+03  0.11009687448E+04  0.63551159378E+03 0.  0.
         13    1    3    3    0    0  0.47271666124E+01 -0.22525474829E+03 -0.61336407522E+02  0.23350418116E+03  0.00000000000E+00 0.  1.
          1    1    3    3  501    0 -0.47269524901E+01  0.22525490769E+03 -0.83769484402E+03  0.86746456367E+03  0.00000000000E+00 0.  1.
         21    1    1    2  502  501 -0.21412227402E-03 -0.15940283592E-03  0.98025151024E-02  0.98061490884E-02  0.00000000000E+00 0.  1.
<mgrwt>
<rscale>  1 0.63551159E+03</rscale>
<asrwt>0</asrwt>
<pdfrwt beam="1">  1        1 0.36719551E+00 0.63551159E+03</pdfrwt>
<pdfrwt beam="2">0</pdfrwt>
<totfact> 0.18731855E+00</totfact>
</mgrwt>
</event>
<event>
 6    1  0.5382669E-003  0.6511127E+03  0.7818608E-02  0.9804694E-01
          1   -1    0    0  502    0  0.00000000000E+00  0.00000000000E+00  0.10631335198E+03  0.10631335198E+03  0.00000000000E+00 0.  1.
         13   -1    0    0    0    0 -0.00000000000E+00 -0.00000000000E+00 -0.10000000000E+04  0.10000000000E+04  0.00000000000E+00 0.  1.
    9000005    2    1    2  501    0 -0.92209938276E-03 -0.12922468920E-01 -0.89401292674E+03  0.11059868162E+04  0.65111268163E+03 0.  0.
         13    1    3    3    0    0  0.31946640138E+03 -0.13649441744E+02 -0.55090959189E+03  0.63698231318E+03  0.00000000000E+00 0.  1.
          1    1    3    3  501    0 -0.31946732348E+03  0.13636519276E+02 -0.34310333485E+03  0.46900450298E+03  0.00000000000E+00 0.  1.
         21    1    1    2  502  501  0.92209938277E-03  0.12922468920E-01  0.32627871804E+00  0.32653582088E+00  0.00000000000E+00 0.  1.
<mgrwt>
<rscale>  1 0.65111268E+03</rscale>
<asrwt>0</asrwt>
<pdfrwt beam="1">  1        1 0.38659482E+00 0.65111268E+03</pdfrwt>
<pdfrwt beam="2">0</pdfrwt>
<totfact> 0.15341431E+00</totfact>
</mgrwt>
</event>
<event>
 6    1  0.5382669E-003  0.6517764E+03  0.7818608E-02  0.9803452E-01
          1   -1    0    0  502    0  0.00000000000E+00  0.00000000000E+00  0.10620318805E+03  0.10620318805E+03  0.00000000000E+00 0.  1.
         13   -1    0    0    0    0 -0.00000000000E+00 -0.00000000000E+00 -0.10000000000E+04  0.10000000000E+04  0.00000000000E+00 0.  1.
    9000005    2    1    2  501    0 -0.30001635650E-04  0.56713191299E-04 -0.89379685360E+03  0.11062031116E+04  0.65177642524E+03 0.  0.
         13    1    3    3    0    0 -0.30333476881E+03 -0.10154866801E+03 -0.55260380188E+03  0.63851004361E+03  0.00000000000E+00 0.  1.
          3    1    3    3  501    0  0.30333473880E+03  0.10154872472E+03 -0.34119305173E+03  0.46769306794E+03  0.00000000000E+00 0.  1.
         21    1    1    2  502  501  0.30001635642E-04 -0.56713191295E-04  0.41655638413E-04  0.76496251017E-04  0.00000000000E+00 0.  1.
<mgrwt>
<rscale>  1 0.65177643E+03</rscale>
<asrwt>0</asrwt>
<pdfrwt beam="1">  1        1 0.38619423E+00 0.65177643E+03</pdfrwt>
<pdfrwt beam="2">0</pdfrwt>
<totfact> 0.15402307E+00</totfact>
</mgrwt>
</event>
<event>
 6    1  0.5382669E-003  0.6504740E+03  0.7818608E-02  0.9805890E-01
          1   -1    0    0  502    0  0.00000000000E+00  0.00000000000E+00  0.10577994213E+03  0.10577994213E+03  0.00000000000E+00 0.  1.
         13   -1    0    0    0    0 -0.00000000000E+00 -0.00000000000E+00 -0.10000000000E+04  0.10000000000E+04  0.00000000000E+00 0.  1.
    9000005    2    1    2  501    0  0.46062638972E-04 -0.63372429508E-05 -0.89422090470E+03  0.11057790940E+04  0.65047396441E+03 0.  0.
         13    1    3    3    0    0  0.16389563223E+03  0.25015268554E+03 -0.22980172701E+03  0.37715643716E+03  0.00000000000E+00 0.  1.
          3    1    3    3  501    0 -0.16389558617E+03 -0.25015269188E+03 -0.66441917769E+03  0.72862265687E+03  0.00000000000E+00 0.  1.
         21    1    1    2  502  501 -0.46062638987E-04  0.63372429592E-05  0.84682705859E-03  0.84810258491E-03  0.00000000000E+00 0.  1.
<mgrwt>
<rscale>  1 0.65047396E+03</rscale>
<asrwt>0</asrwt>
<pdfrwt beam="1">  1        1 0.38465515E+00 0.65047396E+03</pdfrwt>
<pdfrwt beam="2">0</pdfrwt>
<totfact> 0.15649464E+00</totfact>
</mgrwt>
</event>
<event>
 6    1  0.5382669E-003  0.5697024E+03  0.7818608E-02  0.9970337E-01
          1   -1    0    0  502    0  0.00000000000E+00  0.00000000000E+00  0.81141642319E+02  0.81141642319E+02  0.00000000000E+00 0.  1.
         13   -1    0    0    0    0 -0.00000000000E+00 -0.00000000000E+00 -0.10000000000E+04  0.10000000000E+04  0.00000000000E+00 0.  1.
    9000005    2    1    2  501    0  0.67158483256E-03  0.95129569223E-03 -0.91885952494E+03  0.10811399935E+04  0.56970243027E+03 0.  0.
         13    1    3    3    0    0 -0.23397772139E+03  0.16142646038E+03 -0.42463684570E+03  0.51099953713E+03  0.00000000000E+00 0.  1.
          3    1    3    3  501    0  0.23397839297E+03 -0.16142550909E+03 -0.49422267924E+03  0.57014045641E+03  0.00000000000E+00 0.  1.
         21    1    1    2  502  501 -0.67158483256E-03 -0.95129569225E-03  0.11672580815E-02  0.16487817048E-02  0.00000000000E+00 0.  1.
<mgrwt>
<rscale>  1 0.56970243E+03</rscale>
<asrwt>0</asrwt>
<pdfrwt beam="1">  1        1 0.29506114E+00 0.56970243E+03</pdfrwt>
<pdfrwt beam="2">0</pdfrwt>
<totfact> 0.38961776E+00</totfact>
</mgrwt>
</event>
<event>
 6    1  0.5382669E-003  0.6505222E+03  0.7818608E-02  0.9805800E-01
          1   -1    0    0  502    0  0.00000000000E+00  0.00000000000E+00  0.10582543817E+03  0.10582543817E+03  0.00000000000E+00 0.  1.
         13   -1    0    0    0    0 -0.00000000000E+00 -0.00000000000E+00 -0.10000000000E+04  0.10000000000E+04  0.00000000000E+00 0.  1.
    9000005    2    1    2  501    0 -0.17074957344E-02 -0.94097153294E-03 -0.89420517910E+03  0.11057947589E+04  0.65052221059E+03 0.  0.
         13    1    3    3    0    0 -0.67083118826E+02  0.28897882264E+03 -0.67380051250E+03  0.73621738326E+03  0.00000000000E+00 0.  1.
          3    1    3    3  501    0  0.67081411330E+02 -0.28897976361E+03 -0.22040466660E+03  0.36957737564E+03  0.00000000000E+00 0.  1.
         21    1    1    2  502  501  0.17074957344E-02  0.94097153298E-03  0.30617272278E-01  0.30679281785E-01  0.00000000000E+00 0.  1.
<mgrwt>
<rscale>  1 0.65052221E+03</rscale>
<asrwt>0</asrwt>
<pdfrwt beam="1">  1        1 0.38482059E+00 0.65052221E+03</pdfrwt>
<pdfrwt beam="2">0</pdfrwt>
<totfact> 0.15622981E+00</totfact>
</mgrwt>
</event>
<event>
 6    1  0.5382669E-003  0.6373821E+03  0.7818608E-02  0.9830748E-01
          1   -1    0    0  502    0  0.00000000000E+00  0.00000000000E+00  0.10156903977E+03  0.10156903977E+03  0.00000000000E+00 0.  1.
         13   -1    0    0    0    0 -0.00000000000E+00 -0.00000000000E+00 -0.10000000000E+04  0.10000000000E+04  0.00000000000E+00 0.  1.
    9000005    2    1    2  501    0  0.17043314756E-03 -0.46898963969E-03 -0.89843599685E+03  0.11015639785E+04  0.63738211322E+03 0.  0.
         13    1    3    3    0    0 -0.30207935444E+03 -0.98014559187E+02 -0.49511285301E+03  0.58821384497E+03  0.00000000000E+00 0.  1.
          1    1    3    3  501    0  0.30207952488E+03  0.98014090197E+02 -0.40332314384E+03  0.51335013352E+03  0.00000000000E+00 0.  1.
         21    1    1    2  502  501 -0.17043314756E-03  0.46898963968E-03  0.50366270994E-02  0.50612855362E-02  0.00000000000E+00 0. -1.
<mgrwt>
<rscale>  1 0.63738211E+03</rscale>
<asrwt>0</asrwt>
<pdfrwt beam="1">  1        1 0.36934274E+00 0.63738211E+03</pdfrwt>
<pdfrwt beam="2">0</pdfrwt>
<totfact> 0.18323562E+00</totfact>
</mgrwt>
</event>
<event>
 6    1  0.5382669E-003  0.6478043E+03  0.7818608E-02  0.9810908E-01
          1   -1    0    0  502    0  0.00000000000E+00  0.00000000000E+00  0.10725262029E+03  0.10725262029E+03  0.00000000000E+00 0.  1.
         13   -1    0    0    0    0 -0.00000000000E+00 -0.00000000000E+00 -0.10000000000E+04  0.10000000000E+04  0.00000000000E+00 0.  1.
    9000005    2    1    2  501    0  0.64173801906E+01  0.32283962795E+01 -0.88276135932E+03  0.10949511604E+04  0.64776447952E+03 0.  0.
         13    1    3    3    0    0  0.22912343486E+03  0.22901220017E+03 -0.36735084814E+03  0.48978646557E+03  0.00000000000E+00 0.  1.
          3    1    3    3  501    0 -0.22270605467E+03 -0.22578380389E+03 -0.51541051117E+03  0.60516469486E+03  0.00000000000E+00 0.  1.
         21    1    1    2  502  501 -0.64173801906E+01 -0.32283962795E+01 -0.99860203968E+01  0.12301459849E+02  0.00000000000E+00 0.  1.
<mgrwt>
<rscale>  1 0.64780431E+03</rscale>
<asrwt>0</asrwt>
<pdfrwt beam="1">  1        1 0.39001035E+00 0.64780431E+03</pdfrwt>
<pdfrwt beam="2">0</pdfrwt>
<totfact> 0.14825244E+00</totfact>
</mgrwt>
</event>
<event>
 6    1  0.5382669E-003  0.6592512E+03  0.7818608E-02  0.9789573E-01
          1   -1    0    0  502    0  0.00000000000E+00  0.00000000000E+00  0.10869092743E+03  0.10869092743E+03  0.00000000000E+00 0.  1.
         13   -1    0    0    0    0 -0.00000000000E+00 -0.00000000000E+00 -0.10000000000E+04  0.10000000000E+04  0.00000000000E+00 0.  1.
    9000005    2    1    2  501    0 -0.83352775704E-04  0.20830512136E-02 -0.89134692752E+03  0.11086530151E+04  0.65925121366E+03 0.  0.
         13    1    3    3    0    0 -0.22083298566E+03 -0.26901453578E+02 -0.85471408552E+03  0.88319140833E+03  0.00000000000E+00 0.  1.
          1    1    3    3  501    0  0.22083290230E+03  0.26903536630E+02 -0.36632842004E+02  0.22546160679E+03  0.00000000000E+00 0.  1.
         21    1    1    2  502  501  0.83352775702E-04 -0.20830512136E-02  0.37854956257E-01  0.37912316775E-01  0.00000000000E+00 0. -1.
<mgrwt>
<rscale>  1 0.65925121E+03</rscale>
<asrwt>0</asrwt>
<pdfrwt beam="1">  1        1 0.39524057E+00 0.65925121E+03</pdfrwt>
<pdfrwt beam="2">0</pdfrwt>
<totfact> 0.14023257E+00</totfact>
</mgrwt>
</event>
<event>
 6    1  0.5382669E-003  0.6396169E+03  0.7818608E-02  0.9826460E-01
          1   -1    0    0  502    0  0.00000000000E+00  0.00000000000E+00  0.10228985032E+03  0.10228985032E+03  0.00000000000E+00 0.  1.
         13   -1    0    0    0    0 -0.00000000000E+00 -0.00000000000E+00 -0.10000000000E+04  0.10000000000E+04  0.00000000000E+00 0.  1.
    9000005    2    1    2  501    0  0.24220141049E-03  0.10723533734E-03 -0.89772254706E+03  0.11022774501E+04  0.63961692092E+03 0.  0.
         13    1    3    3    0    0  0.71351237978E+02  0.28206799612E+03 -0.67764504185E+03  0.73746603741E+03  0.00000000000E+00 0.  1.
          3    1    3    3  501    0 -0.71350995776E+02 -0.28206788888E+03 -0.22007750521E+03  0.36481141270E+03  0.00000000000E+00 0.  1.
         21    1    1    2  502  501 -0.24220141049E-03 -0.10723533736E-03  0.12397382471E-01  0.12400211816E-01  0.00000000000E+00 0. -1.
<mgrwt>
<rscale>  1 0.63961692E+03</rscale>
<asrwt>0</asrwt>
<pdfrwt beam="1">  1        1 0.37196388E+00 0.63961692E+03</pdfrwt>
<pdfrwt beam="2">0</pdfrwt>
<totfact> 0.17836845E+00</totfact>
</mgrwt>
</event>
<event>
 6    1  0.5382669E-003  0.6556069E+03  0.7818608E-02  0.9796315E-01
          1   -1    0    0  502    0  0.00000000000E+00  0.00000000000E+00  0.15422391491E+03  0.15422391491E+03  0.00000000000E+00 0.  1.
         13   -1    0    0    0    0 -0.00000000000E+00 -0.00000000000E+00 -0.10000000000E+04  0.10000000000E+04  0.00000000000E+00 0.  1.
    9000005    2    1    2  501    0 -0.17720099693E+02  0.10970634331E+02 -0.88995909195E+03  0.11053721509E+04  0.65527555265E+03 0.  0.
         13    1    3    3    0    0  0.29387632320E+03  0.42876461350E+02 -0.23270586318E+03  0.37729789694E+03  0.00000000000E+00 0.  1.
          1    1    3    3  501    0 -0.31159642290E+03 -0.31905827019E+02 -0.65725322877E+03  0.72807425396E+03  0.00000000000E+00 0.  1.
         21    1    1    2  502  501  0.17720099693E+02 -0.10970634331E+02  0.44183006868E+02  0.48851764007E+02  0.00000000000E+00 0. -1.
<mgrwt>
<rscale>  1 0.65560690E+03</rscale>
<asrwt>0</asrwt>
<pdfrwt beam="1">  1        1 0.56081542E+00 0.65560690E+03</pdfrwt>
<pdfrwt beam="2">0</pdfrwt>
<totfact> 0.23016979E-01</totfact>
</mgrwt>
</event>
<event>
 6    1  0.5382669E-003  0.6548959E+03  0.7818608E-02  0.9797636E-01
          1   -1    0    0  502    0  0.00000000000E+00  0.00000000000E+00  0.10722234075E+03  0.10722234075E+03  0.00000000000E+00 0.  1.
         13   -1    0    0    0    0 -0.00000000000E+00 -0.00000000000E+00 -0.10000000000E+04  0.10000000000E+04  0.00000000000E+00 0.  1.
    9000005    2    1    2  501    0 -0.50022177582E-04 -0.14793451527E-03 -0.89277781457E+03  0.11072221205E+04  0.65489586801E+03 0.  0.
         13    1    3    3    0    0  0.63373852583E+02 -0.31580696410E+03 -0.54600903225E+03  0.63393702137E+03  0.00000000000E+00 0.  1.
          1    1    3    3  501    0 -0.63373902606E+02  0.31580681617E+03 -0.34676878232E+03  0.47328509913E+03  0.00000000000E+00 0.  1.
         21    1    1    2  502  501  0.50022177579E-04  0.14793451526E-03  0.15532030401E-03  0.22025266376E-03  0.00000000000E+00 0.  1.
<mgrwt>
<rscale>  1 0.65489587E+03</rscale>
<asrwt>0</asrwt>
<pdfrwt beam="1">  1        1 0.38990024E+00 0.65489587E+03</pdfrwt>
<pdfrwt beam="2">0</pdfrwt>
<totfact> 0.14822329E+00</totfact>
</mgrwt>
</event>
<event>
 6    1  0.5382669E-003  0.6384219E+03  0.7818608E-02  0.9828750E-01
          1   -1    0    0  502    0  0.00000000000E+00  0.00000000000E+00  0.10189747991E+03  0.10189747991E+03  0.00000000000E+00 0.  1.
         13   -1    0    0    0    0 -0.00000000000E+00 -0.00000000000E+00 -0.10000000000E+04  0.10000000000E+04  0.00000000000E+00 0.  1.
    9000005    2    1    2  501    0  0.38603461490E-02  0.33722186768E-02 -0.89809895348E+03  0.11018912353E+04  0.63842193275E+03 0.  0.
         13    1    3    3    0    0 -0.93866113022E+02 -0.26894361843E+03 -0.20040733513E+03  0.34828812361E+03  0.00000000000E+00 0.  1.
          1    1    3    3  501    0  0.93869973368E+02  0.26894699065E+03 -0.69769161835E+03  0.75360311172E+03  0.00000000000E+00 0.  1.
         21    1    1    2  502  501 -0.38603461490E-02 -0.33722186768E-02 -0.35666105370E-02  0.62445850076E-02  0.00000000000E+00 0.  1.
<mgrwt>
<rscale>  1 0.63842193E+03</rscale>
<asrwt>0</asrwt>
<pdfrwt beam="1">  1        1 0.37053707E+00 0.63842193E+03</pdfrwt>
<pdfrwt beam="2">0</pdfrwt>
<totfact> 0.18100162E+00</totfact>
</mgrwt>
</event>
