<event>
 6    1  0.9334667E-003  0.6569925E+03  0.7818608E-02  0.9793746E-01
          1   -1    0    0  502    0  0.00000000000E+00  0.00000000000E+00  0.10806101779E+03  0.10806101779E+03  0.00000000000E+00 0.  1.
         13   -1    0    0    0    0 -0.00000000000E+00 -0.00000000000E+00 -0.10000000000E+04  0.10000000000E+04  0.00000000000E+00 0.  1.
    9000005    2    1    2  501    0 -0.29199463941E-01  0.13601971128E+00 -0.89205393413E+03  0.11078805520E+04  0.65699244796E+03 0.  0.
         13    1    3    3    0    0 -0.58195717023E+02 -0.28885311687E+03 -0.69060280355E+03  0.75083626503E+03  0.00000000000E+00 0.  1.
          1    1    3    3  501    0  0.58166517559E+02  0.28898913658E+03 -0.20145113058E+03  0.35704428694E+03  0.00000000000E+00 0.  1.
         21    1    1    2  502  501  0.29199463941E-01 -0.13601971128E+00  0.11495192199E+00  0.18046582757E+00  0.00000000000E+00 0.  1.
<mgrwt>
<rscale>  1 0.65699246E+03</rscale>
<asrwt>0</asrwt>
<pdfrwt beam="1">  1        1 0.39294998E+00 0.65699246E+03</pdfrwt>
<pdfrwt beam="2">0</pdfrwt>
<totfact> 0.14361908E+00</totfact>
</mgrwt>
</event>
<event>
 6    1  0.9334667E-003  0.6452137E+03  0.7818608E-02  0.9815802E-01
          1   -1    0    0  502    0  0.00000000000E+00  0.00000000000E+00  0.10407542879E+03  0.10407542879E+03  0.00000000000E+00 0.  1.
         13   -1    0    0    0    0 -0.00000000000E+00 -0.00000000000E+00 -0.10000000000E+04  0.10000000000E+04  0.00000000000E+00 0.  1.
    9000005    2    1    2  501    0  0.34691997257E-04  0.54747211909E-03 -0.89592445295E+03  0.11040748676E+04  0.64521367616E+03 0.  0.
         13    1    3    3    0    0 -0.31453179335E+03  0.35842195844E+02 -0.34164499758E+03  0.46576412099E+03  0.00000000000E+00 0.  1.
          3    1    3    3  501    0  0.31453182804E+03 -0.35841648372E+02 -0.55427945537E+03  0.63831074662E+03  0.00000000000E+00 0.  1.
         21    1    1    2  502  501 -0.34691997273E-04 -0.54747211909E-03 -0.11825816447E-03  0.56117221004E-03  0.00000000000E+00 0.  1.
<mgrwt>
<rscale>  1 0.64521368E+03</rscale>
<asrwt>0</asrwt>
<pdfrwt beam="1">  1        1 0.37845690E+00 0.64521368E+03</pdfrwt>
<pdfrwt beam="2">0</pdfrwt>
<totfact> 0.16683579E+00</totfact>
</mgrwt>
</event>
<event>
 6    1  0.9334667E-003  0.6498542E+03  0.7818608E-02  0.9807053E-01
          1   -1    0    0  502    0  0.00000000000E+00  0.00000000000E+00  0.10557764001E+03  0.10557764001E+03  0.00000000000E+00 0.  1.
         13   -1    0    0    0    0 -0.00000000000E+00 -0.00000000000E+00 -0.10000000000E+04  0.10000000000E+04  0.00000000000E+00 0.  1.
    9000005    2    1    2  501    0 -0.75198620664E-05 -0.55620744632E-05 -0.89442236254E+03  0.11055776303E+04  0.64985424061E+03 0.  0.
         13    1    3    3    0    0 -0.15476467320E+03 -0.97436359135E+02 -0.90412714735E+03  0.92243799072E+03  0.00000000000E+00 0.  1.
          1    1    3    3  501    0  0.15476466568E+03  0.97436353573E+02  0.97047848081E+01  0.18313963959E+03  0.00000000000E+00 0.  1.
         21    1    1    2  502  501  0.75198620764E-05  0.55620744643E-05  0.25431218198E-05  0.96929080562E-05  0.00000000000E+00 0.  1.
<mgrwt>
<rscale>  1 0.64985424E+03</rscale>
<asrwt>0</asrwt>
<pdfrwt beam="1">  1        1 0.38391950E+00 0.64985424E+03</pdfrwt>
<pdfrwt beam="2">0</pdfrwt>
<totfact> 0.15768918E+00</totfact>
</mgrwt>
</event>
<event>
 6    1  0.9334667E-003  0.6532931E+03  0.7818608E-02  0.9800620E-01
          1   -1    0    0  502    0  0.00000000000E+00  0.00000000000E+00  0.10755864118E+03  0.10755864118E+03  0.00000000000E+00 0.  1.
         13   -1    0    0    0    0 -0.00000000000E+00 -0.00000000000E+00 -0.10000000000E+04  0.10000000000E+04  0.00000000000E+00 0.  1.
    9000005    2    1    2  501    0 -0.17602137600E+00  0.17430048722E+00 -0.89328227754E+03  0.11066819950E+04  0.65329300423E+03 0.  0.
         13    1    3    3    0    0 -0.18780485437E+03 -0.69167129754E+02 -0.93028942272E+01  0.20035293611E+03  0.00000000000E+00 0.  1.
          3    1    3    3  501    0  0.18762883300E+03  0.69341430241E+02 -0.88397938331E+03  0.90632905892E+03  0.00000000000E+00 0.  1.
         21    1    1    2  502  501  0.17602137600E+00 -0.17430048722E+00  0.84091871728E+00  0.87664615081E+00  0.00000000000E+00 0. -1.
<mgrwt>
<rscale>  1 0.65329305E+03</rscale>
<asrwt>0</asrwt>
<pdfrwt beam="1">  1        1 0.39112316E+00 0.65329305E+03</pdfrwt>
<pdfrwt beam="2">0</pdfrwt>
<totfact> 0.14642699E+00</totfact>
</mgrwt>
</event>
<event>
 6    1  0.9334667E-003  0.6593605E+03  0.7818608E-02  0.9789372E-01
          1   -1    0    0  502    0  0.00000000000E+00  0.00000000000E+00  0.10868906805E+03  0.10868906805E+03  0.00000000000E+00 0.  1.
         13   -1    0    0    0    0 -0.00000000000E+00 -0.00000000000E+00 -0.10000000000E+04  0.10000000000E+04  0.00000000000E+00 0.  1.
    9000005    2    1    2  501    0 -0.31393209383E-05  0.10145552665E-05 -0.89131093064E+03  0.11086890645E+04  0.65936049825E+03 0.  0.
         13    1    3    3    0    0 -0.29774405257E+03  0.88080821469E+02 -0.25932926961E+03  0.40455088929E+03  0.00000000000E+00 0.  1.
          3    1    3    3  501    0  0.29774404943E+03 -0.88080820454E+02 -0.63198166103E+03  0.70413817520E+03  0.00000000000E+00 0.  1.
         21    1    1    2  502  501  0.31393209374E-05 -0.10145552597E-05 -0.13149066115E-05  0.35515683465E-05  0.00000000000E+00 0.  1.
<mgrwt>
<rscale>  1 0.65936050E+03</rscale>
<asrwt>0</asrwt>
<pdfrwt beam="1">  1        1 0.39523381E+00 0.65936050E+03</pdfrwt>
<pdfrwt beam="2">0</pdfrwt>
<totfact> 0.14023943E+00</totfact>
</mgrwt>
</event>
<event>
 6    1  0.9334667E-003  0.6384081E+03  0.7818608E-02  0.9828777E-01
          1   -1    0    0  502    0  0.00000000000E+00  0.00000000000E+00  0.10210899935E+03  0.10210899935E+03  0.00000000000E+00 0.  1.
         13   -1    0    0    0    0 -0.00000000000E+00 -0.00000000000E+00 -0.10000000000E+04  0.10000000000E+04  0.00000000000E+00 0.  1.
    9000005    2    1    2  501    0  0.39411648891E-02  0.84074387600E-02 -0.89810865378E+03  0.11018911482E+04  0.63840813630E+03 0.  0.
         13    1    3    3    0    0 -0.90097653856E+01  0.30996073730E+03 -0.57979192496E+03  0.65750704238E+03  0.00000000000E+00 0.  1.
          3    1    3    3  501    0  0.90137065504E+01 -0.30995232986E+03 -0.31831672883E+03  0.44438410586E+03  0.00000000000E+00 0.  1.
         21    1    1    2  502  501 -0.39411648891E-02 -0.84074387600E-02  0.21765313820E+00  0.21785111057E+00  0.00000000000E+00 0.  1.
<mgrwt>
<rscale>  1 0.63840814E+03</rscale>
<asrwt>0</asrwt>
<pdfrwt beam="1">  1        1 0.37130624E+00 0.63840814E+03</pdfrwt>
<pdfrwt beam="2">0</pdfrwt>
<totfact> 0.17959911E+00</totfact>
</mgrwt>
</event>
<event>
 6    1  0.9334667E-003  0.6575037E+03  0.7818608E-02  0.9792800E-01
          1   -1    0    0  502    0  0.00000000000E+00  0.00000000000E+00  0.10955240411E+03  0.10955240411E+03  0.00000000000E+00 0.  1.
         13   -1    0    0    0    0 -0.00000000000E+00 -0.00000000000E+00 -0.10000000000E+04  0.10000000000E+04  0.00000000000E+00 0.  1.
    9000005    2    1    2  501    0  0.18358719135E-01 -0.21311010258E-01 -0.89192205668E+03  0.11080776750E+04  0.65750374746E+03 0.  0.
         13    1    3    3    0    0 -0.29657441149E+03  0.14133333913E+03 -0.46572990182E+03  0.56994371279E+03  0.00000000000E+00 0.  1.
          3    1    3    3  501    0  0.29659277021E+03 -0.14135465014E+03 -0.42619215487E+03  0.53813396225E+03  0.00000000000E+00 0.  1.
         21    1    1    2  502  501 -0.18358719135E-01  0.21311010258E-01  0.14744607951E+01  0.14747290728E+01  0.00000000000E+00 0.  1.
<mgrwt>
<rscale>  1 0.65750375E+03</rscale>
<asrwt>0</asrwt>
<pdfrwt beam="1">  1        1 0.39837322E+00 0.65750375E+03</pdfrwt>
<pdfrwt beam="2">0</pdfrwt>
<totfact> 0.13584621E+00</totfact>
</mgrwt>
</event>
<event>
 6    1  0.1465244E-002  0.6697691E+03  0.7818608E-02  0.9770375E-01
          1   -1    0    0  502    0  0.00000000000E+00  0.00000000000E+00  0.11214767358E+03  0.11214767358E+03  0.00000000000E+00 0.  1.
         13   -1    0    0    0    0 -0.00000000000E+00 -0.00000000000E+00 -0.10000000000E+04  0.10000000000E+04  0.00000000000E+00 0.  1.
    9000005    2    1    2  501    0 -0.62539472168E-04 -0.16280031673E-04 -0.88785229015E+03  0.11121475995E+04  0.66976906011E+03 0.  0.
         13    1    3    3    0    0  0.78025070661E+02  0.32120095128E+03 -0.35466509518E+03  0.48481469913E+03  0.00000000000E+00 0.  1.
          3    1    3    3  501    0 -0.78025133201E+02 -0.32120096756E+03 -0.53318719496E+03  0.62733290034E+03  0.00000000000E+00 0.  1.
         21    1    1    2  502  501  0.62539472172E-04  0.16280031709E-04 -0.36276561711E-04  0.74109472684E-04  0.00000000000E+00 0. -1.
<mgrwt>
<rscale>  1 0.66976906E+03</rscale>
<asrwt>0</asrwt>
<pdfrwt beam="1">  1        1 0.40781058E+00 0.66976906E+03</pdfrwt>
<pdfrwt beam="2">0</pdfrwt>
<totfact> 0.12299526E+00</totfact>
</mgrwt>
</event>
<event>
 6    1  0.9334667E-003  0.6337024E+03  0.7818608E-02  0.9837850E-01
          1   -1    0    0  502    0  0.00000000000E+00  0.00000000000E+00  0.10167599035E+03  0.10167599035E+03  0.00000000000E+00 0.  1.
         13   -1    0    0    0    0 -0.00000000000E+00 -0.00000000000E+00 -0.10000000000E+04  0.10000000000E+04  0.00000000000E+00 0.  1.
    9000005    2    1    2  501    0  0.27619249320E+00 -0.63321152762E+00 -0.89950208527E+03  0.11003103032E+04  0.63370204730E+03 0.  0.
         13    1    3    3    0    0 -0.54519200331E+02  0.25023233779E+03 -0.12623621164E+03  0.28552433733E+03  0.00000000000E+00 0.  1.
          1    1    3    3  501    0  0.54795392824E+02 -0.25086554931E+03 -0.77326587363E+03  0.81478596590E+03  0.00000000000E+00 0.  1.
         21    1    1    2  502  501 -0.27619249320E+00  0.63321152762E+00  0.11780756184E+01  0.13656871145E+01  0.00000000000E+00 0. -1.
<mgrwt>
<rscale>  1 0.63370242E+03</rscale>
<asrwt>0</asrwt>
<pdfrwt beam="1">  1        1 0.36973165E+00 0.63370242E+03</pdfrwt>
<pdfrwt beam="2">0</pdfrwt>
<totfact> 0.18263922E+00</totfact>
</mgrwt>
</event>
<event>
 6    1  0.9334667E-003  0.5460840E+03  0.7818608E-02  0.1002404E+00
          1   -1    0    0  502    0  0.00000000000E+00  0.00000000000E+00  0.85923804777E+02  0.85923804777E+02  0.00000000000E+00 0.  1.
         13   -1    0    0    0    0 -0.00000000000E+00 -0.00000000000E+00 -0.10000000000E+04  0.10000000000E+04  0.00000000000E+00 0.  1.
    9000005    2    1    2  501    0  0.62396477138E+00  0.22977690719E+01 -0.92531402739E+03  0.10744365098E+04  0.54607883603E+03 0.  0.
         13    1    3    3    0    0 -0.11482001530E+03  0.90125346158E+02 -0.84950661731E+01  0.14621347435E+03  0.00000000000E+00 0.  1.
          3    1    3    3  501    0  0.11544398007E+03 -0.87827577086E+02 -0.91681896122E+03  0.92822303542E+03  0.00000000000E+00 0.  1.
         21    1    1    2  502  501 -0.62396477138E+00 -0.22977690719E+01  0.11237832169E+02  0.11487295008E+02  0.00000000000E+00 0.  1.
<mgrwt>
<rscale>  1 0.54608403E+03</rscale>
<asrwt>0</asrwt>
<pdfrwt beam="1">  1        1 0.31245086E+00 0.54608403E+03</pdfrwt>
<pdfrwt beam="2">0</pdfrwt>
<totfact> 0.32926571E+00</totfact>
</mgrwt>
</event>
<event>
 6    1  0.9334667E-003  0.6232338E+03  0.7818608E-02  0.9858342E-01
          1   -1    0    0  502    0  0.00000000000E+00  0.00000000000E+00  0.97106158522E+02  0.97106158522E+02  0.00000000000E+00 0.  1.
         13   -1    0    0    0    0 -0.00000000000E+00 -0.00000000000E+00 -0.10000000000E+04  0.10000000000E+04  0.00000000000E+00 0.  1.
    9000005    2    1    2  501    0  0.69056670938E-04 -0.17344606036E-03 -0.90289490968E+03  0.10971050741E+04  0.62323376494E+03 0.  0.
         13    1    3    3    0    0  0.10329483845E+03  0.25071538849E+03 -0.18115009788E+03  0.32610333889E+03  0.00000000000E+00 0.  1.
          1    1    3    3  501    0 -0.10329476939E+03 -0.25071556194E+03 -0.72174481180E+03  0.77100173524E+03  0.00000000000E+00 0.  1.
         21    1    1    2  502  501 -0.69056670931E-04  0.17344606036E-03  0.10681993788E-02  0.10843902768E-02  0.00000000000E+00 0. -1.
<mgrwt>
<rscale>  1 0.62323376E+03</rscale>
<asrwt>0</asrwt>
<pdfrwt beam="1">  1        1 0.35311405E+00 0.62323376E+03</pdfrwt>
<pdfrwt beam="2">0</pdfrwt>
<totfact> 0.21633887E+00</totfact>
</mgrwt>
</event>
<event>
 6    1  0.9334667E-003  0.6512987E+03  0.7818608E-02  0.9804345E-01
          1   -1    0    0  502    0  0.00000000000E+00  0.00000000000E+00  0.10605661883E+03  0.10605661883E+03  0.00000000000E+00 0.  1.
         13   -1    0    0    0    0 -0.00000000000E+00 -0.00000000000E+00 -0.10000000000E+04  0.10000000000E+04  0.00000000000E+00 0.  1.
    9000005    2    1    2  501    0  0.11537553618E-01  0.89396870256E-02 -0.89394551392E+03  0.11060418682E+04  0.65129872724E+03 0.  0.
         13    1    3    3    0    0 -0.27122795059E+03 -0.17748962262E+03 -0.50000638626E+03  0.59588048602E+03  0.00000000000E+00 0.  1.
          3    1    3    3  501    0  0.27123948814E+03  0.17749856231E+03 -0.39393912766E+03  0.51016138216E+03  0.00000000000E+00 0.  1.
         21    1    1    2  502  501 -0.11537553618E-01 -0.89396870256E-02  0.21327498485E-02  0.14750653189E-01  0.00000000000E+00 0. -1.
<mgrwt>
<rscale>  1 0.65129873E+03</rscale>
<asrwt>0</asrwt>
<pdfrwt beam="1">  1        1 0.38566125E+00 0.65129873E+03</pdfrwt>
<pdfrwt beam="2">0</pdfrwt>
<totfact> 0.15487550E+00</totfact>
</mgrwt>
</event>
<event>
 6    1  0.9334667E-003  0.8124044E+03  0.7818608E-02  0.9542234E-01
          1   -1    0    0  502    0  0.00000000000E+00  0.00000000000E+00  0.18000708260E+03  0.18000708260E+03  0.00000000000E+00 0.  1.
         13   -1    0    0    0    0 -0.00000000000E+00 -0.00000000000E+00 -0.10000000000E+04  0.10000000000E+04  0.00000000000E+00 0.  1.
    9000005    2    1    2  501    0 -0.11799760603E+01  0.65299047905E+00 -0.83496448173E+03  0.11649749012E+04  0.81240323477E+03 0.  0.
         13    1    3    3    0    0  0.99761570631E+02  0.37692153963E+03 -0.25348201329E+03  0.46505413563E+03  0.00000000000E+00 0.  1.
          1    1    3    3  501    0 -0.10094154669E+03 -0.37626854915E+03 -0.58148246844E+03  0.69992076554E+03  0.00000000000E+00 0.  1.
         21    1    1    2  502  501  0.11799760603E+01 -0.65299047905E+00  0.14971564328E+02  0.15032181428E+02  0.00000000000E+00 0. -1.
<mgrwt>
<rscale>  1 0.81240435E+03</rscale>
<asrwt>0</asrwt>
<pdfrwt beam="1">  1        1 0.65457259E+00 0.81240435E+03</pdfrwt>
<pdfrwt beam="2">0</pdfrwt>
<totfact> 0.66926058E-02</totfact>
</mgrwt>
</event>
<event>
 6    1  0.9334667E-003  0.6426407E+03  0.7818608E-02  0.9820687E-01
          1   -1    0    0  502    0  0.00000000000E+00  0.00000000000E+00  0.10324764395E+03  0.10324764395E+03  0.00000000000E+00 0.  1.
         13   -1    0    0    0    0 -0.00000000000E+00 -0.00000000000E+00 -0.10000000000E+04  0.10000000000E+04  0.00000000000E+00 0.  1.
    9000005    2    1    2  501    0  0.16442436237E-03 -0.89550219467E-04 -0.89675321016E+03  0.11032467696E+04  0.64264073525E+03 0.  0.
         13    1    3    3    0    0  0.29433094601E+03  0.81545636621E+01 -0.22752616407E+03  0.37210933611E+03  0.00000000000E+00 0.  1.
          3    1    3    3  501    0 -0.29433078158E+03 -0.81546532123E+01 -0.66922704610E+03  0.73113743344E+03  0.00000000000E+00 0.  1.
         21    1    1    2  502  501 -0.16442436234E-03  0.89550219467E-04  0.85411076338E-03  0.87439110750E-03  0.00000000000E+00 0.  1.
<mgrwt>
<rscale>  1 0.64264074E+03</rscale>
<asrwt>0</asrwt>
<pdfrwt beam="1">  1        1 0.37544677E+00 0.64264074E+03</pdfrwt>
<pdfrwt beam="2">0</pdfrwt>
<totfact> 0.17209018E+00</totfact>
</mgrwt>
</event>
<event>
 6    1  0.9334667E-003  0.6467660E+03  0.7818608E-02  0.9812867E-01
          3   -1    0    0  502    0  0.00000000000E+00  0.00000000000E+00  0.10541475467E+03  0.10541475467E+03  0.00000000000E+00 0.  1.
         13   -1    0    0    0    0 -0.00000000000E+00 -0.00000000000E+00 -0.10000000000E+04  0.10000000000E+04  0.00000000000E+00 0.  1.
    9000005    2    1    2  501    0  0.48211048305E-02 -0.71331287470E-01 -0.89542174543E+03  0.11045752049E+04  0.64676601330E+03 0.  0.
         13    1    3    3    0    0 -0.28807856242E+03  0.10370584992E+03 -0.27001376839E+03  0.40822983301E+03  0.00000000000E+00 0.  1.
          3    1    3    3  501    0  0.28808338353E+03 -0.10377718121E+03 -0.62540797704E+03  0.69634537189E+03  0.00000000000E+00 0.  1.
         21    1    1    2  502  501 -0.48211048305E-02  0.71331287470E-01  0.83650010651E+00  0.83954977447E+00  0.00000000000E+00 0.  1.
<mgrwt>
<rscale>  1 0.64676602E+03</rscale>
<asrwt>0</asrwt>
<pdfrwt beam="1">  1        3 0.38332719E+00 0.64676602E+03</pdfrwt>
<pdfrwt beam="2">0</pdfrwt>
<totfact> 0.72526409E-02</totfact>
</mgrwt>
</event>
<event>
 6    1  0.9334667E-003  0.6454886E+03  0.7818608E-02  0.9815282E-01
          3   -1    0    0  502    0  0.00000000000E+00  0.00000000000E+00  0.10416406720E+03  0.10416406720E+03  0.00000000000E+00 0.  1.
         13   -1    0    0    0    0 -0.00000000000E+00 -0.00000000000E+00 -0.10000000000E+04  0.10000000000E+04  0.00000000000E+00 0.  1.
    9000005    2    1    2  501    0  0.27452156075E-04  0.21098676864E-03 -0.89583604884E+03  0.11041638249E+04  0.64548859456E+03 0.  0.
         13    1    3    3    0    0  0.30192860300E+03 -0.62909730340E+02 -0.28522912492E+03  0.42008828737E+03  0.00000000000E+00 0.  1.
          1    1    3    3  501    0 -0.30192857555E+03  0.62909941327E+02 -0.61060692392E+03  0.68407553748E+03  0.00000000000E+00 0.  1.
         21    1    1    2  502  501 -0.27452156048E-04 -0.21098676865E-03  0.11604153520E-03  0.24235237838E-03  0.00000000000E+00 0.  1.
<mgrwt>
<rscale>  1 0.64548859E+03</rscale>
<asrwt>0</asrwt>
<pdfrwt beam="1">  1        3 0.37877922E+00 0.64548859E+03</pdfrwt>
<pdfrwt beam="2">0</pdfrwt>
<totfact> 0.76665622E-02</totfact>
</mgrwt>
</event>
<event>
 6    1  0.9334667E-003  0.6409690E+03  0.7818608E-02  0.9823874E-01
          1   -1    0    0  502    0  0.00000000000E+00  0.00000000000E+00  0.12944938312E+03  0.12944938312E+03  0.00000000000E+00 0.  1.
         13   -1    0    0    0    0 -0.00000000000E+00 -0.00000000000E+00 -0.10000000000E+04  0.10000000000E+04  0.00000000000E+00 0.  1.
    9000005    2    1    2  501    0 -0.75212913308E+00 -0.90817741719E+00 -0.89727536229E+03  0.11026986354E+04  0.64096787310E+03 0.  0.
         13    1    3    3    0    0 -0.13473126571E+03 -0.10067812965E+03 -0.91898331429E+03  0.93424778924E+03  0.00000000000E+00 0.  1.
          1    1    3    3  501    0  0.13397913658E+03  0.99769952232E+02  0.21707952004E+02  0.16845084620E+03  0.00000000000E+00 0.  1.
         21    1    1    2  502  501  0.75212913308E+00  0.90817741719E+00  0.26724745405E+02  0.26750747680E+02  0.00000000000E+00 0.  1.
<mgrwt>
<rscale>  1 0.64096896E+03</rscale>
<asrwt>0</asrwt>
<pdfrwt beam="1">  1        1 0.47072602E+00 0.64096896E+03</pdfrwt>
<pdfrwt beam="2">0</pdfrwt>
<totfact> 0.63783749E-01</totfact>
</mgrwt>
</event>
<event>
 6    1  0.9334667E-003  0.5205671E+03  0.7818608E-02  0.1008546E+00
          1   -1    0    0  502    0  0.00000000000E+00  0.00000000000E+00  0.72193146231E+02  0.72193146231E+02  0.00000000000E+00 0.  1.
         13   -1    0    0    0    0 -0.00000000000E+00 -0.00000000000E+00 -0.10000000000E+04  0.10000000000E+04  0.00000000000E+00 0.  1.
    9000005    2    1    2  501    0  0.36133408403E+00  0.78619791307E-01 -0.93224426158E+03  0.10677403570E+04  0.52056696983E+03 0.  0.
         13    1    3    3    0    0 -0.28585855840E+02 -0.22688034074E+02  0.62467556947E+02  0.72347036671E+02  0.00000000000E+00 0.  1.
          3    1    3    3  501    0  0.28947189924E+02  0.22766653865E+02 -0.99471181853E+03  0.99539332038E+03  0.00000000000E+00 0.  1.
         21    1    1    2  502  501 -0.36133408403E+00 -0.78619791307E-01  0.44374078135E+01  0.44527891816E+01  0.00000000000E+00 0.  1.
<mgrwt>
<rscale>  1 0.52056710E+03</rscale>
<asrwt>0</asrwt>
<pdfrwt beam="1">  1        1 0.26252109E+00 0.52056710E+03</pdfrwt>
<pdfrwt beam="2">0</pdfrwt>
<totfact> 0.54306679E+00</totfact>
</mgrwt>
</event>
<event>
 6    1  0.9334667E-003  0.6570392E+03  0.7818608E-02  0.9793660E-01
          1   -1    0    0  502    0  0.00000000000E+00  0.00000000000E+00  0.10792530720E+03  0.10792530720E+03  0.00000000000E+00 0.  1.
         13   -1    0    0    0    0 -0.00000000000E+00 -0.00000000000E+00 -0.10000000000E+04  0.10000000000E+04  0.00000000000E+00 0.  1.
    9000005    2    1    2  501    0  0.57796521020E-04 -0.20471247808E-04 -0.89207487653E+03  0.11079251135E+04  0.65703917068E+03 0.  0.
         13    1    3    3    0    0  0.16934757381E+03  0.19031689105E+03 -0.79580913773E+03  0.83559039215E+03  0.00000000000E+00 0.  1.
          3    1    3    3  501    0 -0.16934751601E+03 -0.19031691152E+03 -0.96265738804E+02  0.27233472136E+03  0.00000000000E+00 0.  1.
         21    1    1    2  502  501 -0.57796521038E-04  0.20471247812E-04  0.18372934210E-03  0.19369042562E-03  0.00000000000E+00 0. -1.
<mgrwt>
<rscale>  1 0.65703917E+03</rscale>
<asrwt>0</asrwt>
<pdfrwt beam="1">  1        1 0.39245649E+00 0.65703917E+03</pdfrwt>
<pdfrwt beam="2">0</pdfrwt>
<totfact> 0.14434445E+00</totfact>
</mgrwt>
</event>
<event>
 6    1  0.9334667E-003  0.6515303E+03  0.7818608E-02  0.9803912E-01
          1   -1    0    0  502    0  0.00000000000E+00  0.00000000000E+00  0.11257366693E+03  0.11257366693E+03  0.00000000000E+00 0.  1.
         13   -1    0    0    0    0 -0.00000000000E+00 -0.00000000000E+00 -0.10000000000E+04  0.10000000000E+04  0.00000000000E+00 0.  1.
    9000005    2    1    2  501    0  0.18481144776E+00 -0.27158258867E+00 -0.89387244675E+03  0.11061191883E+04  0.65153019870E+03 0.  0.
         13    1    3    3    0    0  0.81980101149E+02 -0.31489929303E+03 -0.47851087899E+03  0.57866653873E+03  0.00000000000E+00 0.  1.
          3    1    3    3  501    0 -0.81795289701E+02  0.31462771044E+03 -0.41536156777E+03  0.52745264960E+03  0.00000000000E+00 0.  1.
         21    1    1    2  502  501 -0.18481144776E+00  0.27158258867E+00  0.64461136788E+01  0.64544785950E+01  0.00000000000E+00 0.  1.
<mgrwt>
<rscale>  1 0.65153028E+03</rscale>
<asrwt>0</asrwt>
<pdfrwt beam="1">  1        1 0.40935965E+00 0.65153028E+03</pdfrwt>
<pdfrwt beam="2">0</pdfrwt>
<totfact> 0.12146712E+00</totfact>
</mgrwt>
</event>
<event>
 6    1  0.9334667E-003  0.6497485E+03  0.7818608E-02  0.9807251E-01
          1   -1    0    0  502    0  0.00000000000E+00  0.00000000000E+00  0.10559007822E+03  0.10559007822E+03  0.00000000000E+00 0.  1.
         13   -1    0    0    0    0 -0.00000000000E+00 -0.00000000000E+00 -0.10000000000E+04  0.10000000000E+04  0.00000000000E+00 0.  1.
    9000005    2    1    2  501    0 -0.18120146584E-01  0.14970142306E-02 -0.89445476218E+03  0.11055416918E+04  0.64974849786E+03 0.  0.
         13    1    3    3    0    0  0.77605139895E+02  0.22458847067E+03 -0.70277800759E+02  0.24779327710E+03  0.00000000000E+00 0.  1.
          3    1    3    3  501    0 -0.77623260042E+02 -0.22458697366E+03 -0.82417696142E+03  0.85774841473E+03  0.00000000000E+00 0.  1.
         21    1    1    2  502  501  0.18120146584E-01 -0.14970142305E-02  0.44840402522E-01  0.48386387158E-01  0.00000000000E+00 0.  1.
<mgrwt>
<rscale>  1 0.64974850E+03</rscale>
<asrwt>0</asrwt>
<pdfrwt beam="1">  1        1 0.38396473E+00 0.64974850E+03</pdfrwt>
<pdfrwt beam="2">0</pdfrwt>
<totfact> 0.15761967E+00</totfact>
</mgrwt>
</event>
<event>
 6    1  0.9334667E-003  0.6393861E+03  0.7818608E-02  0.9826902E-01
          1   -1    0    0  502    0  0.00000000000E+00  0.00000000000E+00  0.10222341806E+03  0.10222341806E+03  0.00000000000E+00 0.  1.
         13   -1    0    0    0    0 -0.00000000000E+00 -0.00000000000E+00 -0.10000000000E+04  0.10000000000E+04  0.00000000000E+00 0.  1.
    9000005    2    1    2  501    0 -0.10391387487E-01 -0.93895885326E-02 -0.89779360053E+03  0.11022013777E+04  0.63938605525E+03 0.  0.
         13    1    3    3    0    0 -0.12514655030E+03  0.12905501323E+03 -0.90461435070E+03  0.92230362625E+03  0.00000000000E+00 0.  1.
          3    1    3    3  501    0  0.12513615891E+03 -0.12906440282E+03  0.68207501713E+01  0.17989775145E+03  0.00000000000E+00 0.  1.
         21    1    1    2  502  501  0.10391387487E-01  0.93895885326E-02  0.17018590831E-01  0.22040366163E-01  0.00000000000E+00 0. -1.
<mgrwt>
<rscale>  1 0.63938606E+03</rscale>
<asrwt>0</asrwt>
<pdfrwt beam="1">  1        1 0.37172230E+00 0.63938606E+03</pdfrwt>
<pdfrwt beam="2">0</pdfrwt>
<totfact> 0.17881262E+00</totfact>
</mgrwt>
</event>
<event>
 6    1  0.9334667E-003  0.6424645E+03  0.7818608E-02  0.9821023E-01
          1   -1    0    0  502    0  0.00000000000E+00  0.00000000000E+00  0.10319020944E+03  0.10319020944E+03  0.00000000000E+00 0.  1.
         13   -1    0    0    0    0 -0.00000000000E+00 -0.00000000000E+00 -0.10000000000E+04  0.10000000000E+04  0.00000000000E+00 0.  1.
    9000005    2    1    2  501    0  0.42878498050E-04 -0.35673064644E-05 -0.89680984322E+03  0.11031901414E+04  0.64246446847E+03 0.  0.
         13    1    3    3    0    0 -0.23638626005E+03 -0.17036953640E+03 -0.21620641697E+03  0.36283530370E+03  0.00000000000E+00 0.  1.
          3    1    3    3  501    0  0.23638630293E+03  0.17036953283E+03 -0.68060342625E+03  0.74035483773E+03  0.00000000000E+00 0.  1.
         21    1    1    2  502  501 -0.42878498043E-04  0.35673064538E-05  0.52661417450E-04  0.68003795171E-04  0.00000000000E+00 0. -1.
<mgrwt>
<rscale>  1 0.64246447E+03</rscale>
<asrwt>0</asrwt>
<pdfrwt beam="1">  1        1 0.37523792E+00 0.64246447E+03</pdfrwt>
<pdfrwt beam="2">0</pdfrwt>
<totfact> 0.17246047E+00</totfact>
</mgrwt>
</event>
<event>
 6    1  0.9334667E-003  0.6360317E+03  0.7818608E-02  0.9833349E-01
          1   -1    0    0  502    0  0.00000000000E+00  0.00000000000E+00  0.10983583453E+03  0.10983583453E+03  0.00000000000E+00 0.  1.
         13   -1    0    0    0    0 -0.00000000000E+00 -0.00000000000E+00 -0.10000000000E+04  0.10000000000E+04  0.00000000000E+00 0.  1.
    9000005    2    1    2  501    0 -0.18823257658E+00  0.11105779192E+00 -0.89886439752E+03  0.11011328578E+04  0.63603169555E+03 0.  0.
         13    1    3    3    0    0  0.28707193389E+03 -0.13587310082E+03 -0.42521731844E+03  0.53073681109E+03  0.00000000000E+00 0.  1.
          1    1    3    3  501    0 -0.28726016646E+03  0.13598415861E+03 -0.47364707908E+03  0.57039604676E+03  0.00000000000E+00 0.  1.
         21    1    1    2  502  501  0.18823257658E+00 -0.11105779192E+00  0.87002320480E+01  0.87029766761E+01  0.00000000000E+00 0. -1.
<mgrwt>
<rscale>  1 0.63603173E+03</rscale>
<asrwt>0</asrwt>
<pdfrwt beam="1">  1        1 0.39940388E+00 0.63603173E+03</pdfrwt>
<pdfrwt beam="2">0</pdfrwt>
<totfact> 0.13496951E+00</totfact>
</mgrwt>
</event>
<event>
 6    1  0.9334667E-003  0.6839446E+03  0.7818608E-02  0.9745090E-01
          1   -1    0    0  502    0  0.00000000000E+00  0.00000000000E+00  0.11728979215E+03  0.11728979215E+03  0.00000000000E+00 0.  1.
         13   -1    0    0    0    0 -0.00000000000E+00 -0.00000000000E+00 -0.10000000000E+04  0.10000000000E+04  0.00000000000E+00 0.  1.
    9000005    2    1    2  501    0  0.58279947836E-01 -0.23509952787E-01 -0.88305175422E+03  0.11169425124E+04  0.68394456758E+03 0.  0.
         13    1    3    3    0    0 -0.87137990417E+02  0.28212410091E+03 -0.15984300797E+03  0.33576304872E+03  0.00000000000E+00 0.  1.
          3    1    3    3  501    0  0.87196270364E+02 -0.28214761087E+03 -0.72320874625E+03  0.78117946372E+03  0.00000000000E+00 0.  1.
         21    1    1    2  502  501 -0.58279947836E-01  0.23509952787E-01  0.34154637037E+00  0.34727970473E+00  0.00000000000E+00 0. -1.
<mgrwt>
<rscale>  1 0.68394457E+03</rscale>
<asrwt>0</asrwt>
<pdfrwt beam="1">  1        1 0.42650923E+00 0.68394457E+03</pdfrwt>
<pdfrwt beam="2">0</pdfrwt>
<totfact> 0.10103092E+00</totfact>
</mgrwt>
</event>
<event>
 6    1  0.9334667E-003  0.6439144E+03  0.7818608E-02  0.9818266E-01
          1   -1    0    0  502    0  0.00000000000E+00  0.00000000000E+00  0.10525662308E+03  0.10525662308E+03  0.00000000000E+00 0.  1.
         13   -1    0    0    0    0 -0.00000000000E+00 -0.00000000000E+00 -0.10000000000E+04  0.10000000000E+04  0.00000000000E+00 0.  1.
    9000005    2    1    2  501    0 -0.10592861638E+01 -0.76679419848E+00 -0.89604339555E+03  0.11034126846E+04  0.64391309652E+03 0.  0.
         13    1    3    3    0    0  0.22173442303E+02  0.31873048350E+03 -0.50939405168E+03  0.60130115794E+03  0.00000000000E+00 0.  1.
          1    1    3    3  501    0 -0.23232728467E+02 -0.31949727770E+03 -0.38664934387E+03  0.50211152670E+03  0.00000000000E+00 0.  1.
         21    1    1    2  502  501  0.10592861638E+01  0.76679419848E+00  0.13000186301E+01  0.18439384367E+01  0.00000000000E+00 0.  1.
<mgrwt>
<rscale>  1 0.64391442E+03</rscale>
<asrwt>0</asrwt>
<pdfrwt beam="1">  1        1 0.38275216E+00 0.64391442E+03</pdfrwt>
<pdfrwt beam="2">0</pdfrwt>
<totfact> 0.15974878E+00</totfact>
</mgrwt>
</event>
<event>
 6    1  0.9334667E-003  0.6461399E+03  0.7818608E-02  0.9814049E-01
          1   -1    0    0  502    0  0.00000000000E+00  0.00000000000E+00  0.10456039916E+03  0.10456039916E+03  0.00000000000E+00 0.  1.
         13   -1    0    0    0    0 -0.00000000000E+00 -0.00000000000E+00 -0.10000000000E+04  0.10000000000E+04  0.00000000000E+00 0.  1.
    9000005    2    1    2  501    0 -0.21557532388E-02 -0.21198782630E-01 -0.89562513898E+03  0.11043736415E+04  0.64613988417E+03 0.  0.
         13    1    3    3    0    0 -0.51026140624E+01 -0.59667042402E+02 -0.99043635183E+03  0.99224511067E+03  0.00000000000E+00 0.  1.
          3    1    3    3  501    0  0.51004583092E+01  0.59645843620E+02  0.94811212846E+02  0.11212853079E+03  0.00000000000E+00 0.  1.
         21    1    1    2  502  501  0.21557532388E-02  0.21198782630E-01  0.18553814077E+00  0.18675769686E+00  0.00000000000E+00 0.  1.
<mgrwt>
<rscale>  1 0.64613988E+03</rscale>
<asrwt>0</asrwt>
<pdfrwt beam="1">  1        1 0.38022044E+00 0.64613988E+03</pdfrwt>
<pdfrwt beam="2">0</pdfrwt>
<totfact> 0.16384634E+00</totfact>
</mgrwt>
</event>
<event>
 6    1  0.9334667E-003  0.6627433E+03  0.7818608E-02  0.9783157E-01
          1   -1    0    0  502    0  0.00000000000E+00  0.00000000000E+00  0.10985735790E+03  0.10985735790E+03  0.00000000000E+00 0.  1.
         13   -1    0    0    0    0 -0.00000000000E+00 -0.00000000000E+00 -0.10000000000E+04  0.10000000000E+04  0.00000000000E+00 0.  1.
    9000005    2    1    2  501    0  0.83394304104E-03  0.86019373123E-03 -0.89019280899E+03  0.11098071767E+04  0.66274333818E+03 0.  0.
         13    1    3    3    0    0  0.95661481013E+02  0.31535147478E+03 -0.38685057102E+03  0.50818405710E+03  0.00000000000E+00 0.  1.
          3    1    3    3  501    0 -0.95660647070E+02 -0.31535061459E+03 -0.50334223797E+03  0.60162311961E+03  0.00000000000E+00 0.  1.
         21    1    1    2  502  501 -0.83394304104E-03 -0.86019373123E-03  0.50166885043E-01  0.50181189197E-01  0.00000000000E+00 0. -1.
<mgrwt>
<rscale>  1 0.66274334E+03</rscale>
<asrwt>0</asrwt>
<pdfrwt beam="1">  1        1 0.39948214E+00 0.66274334E+03</pdfrwt>
<pdfrwt beam="2">0</pdfrwt>
<totfact> 0.13417744E+00</totfact>
</mgrwt>
</event>
<event>
 6    1  0.9334667E-003  0.6503387E+03  0.7818608E-02  0.9806144E-01
          1   -1    0    0  502    0  0.00000000000E+00  0.00000000000E+00  0.11039105058E+03  0.11039105058E+03  0.00000000000E+00 0.  1.
         13   -1    0    0    0    0 -0.00000000000E+00 -0.00000000000E+00 -0.10000000000E+04  0.10000000000E+04  0.00000000000E+00 0.  1.
    9000005    2    1    2  501    0  0.17721167315E+00  0.30640008916E+00 -0.89425745735E+03  0.11057290863E+04  0.65033859411E+03 0.  0.
         13    1    3    3    0    0  0.14138137586E+03 -0.28596309685E+03 -0.55329706723E+03  0.63867145764E+03  0.00000000000E+00 0.  1.
          1    1    3    3  501    0 -0.14120416419E+03  0.28626949694E+03 -0.34096039012E+03  0.46705762866E+03  0.00000000000E+00 0.  1.
         21    1    1    2  502  501 -0.17721167315E+00 -0.30640008916E+00  0.46485079299E+01  0.46619642819E+01  0.00000000000E+00 0.  1.
<mgrwt>
<rscale>  1 0.65033869E+03</rscale>
<asrwt>0</asrwt>
<pdfrwt beam="1">  1        1 0.40142285E+00 0.65033869E+03</pdfrwt>
<pdfrwt beam="2">0</pdfrwt>
<totfact> 0.13183852E+00</totfact>
</mgrwt>
</event>
<event>
 6    1  0.9334667E-003  0.5783983E+03  0.7818608E-02  0.9951265E-01
          1   -1    0    0  502    0  0.00000000000E+00  0.00000000000E+00  0.84012599969E+02  0.84012599969E+02  0.00000000000E+00 0.  1.
         13   -1    0    0    0    0 -0.00000000000E+00 -0.00000000000E+00 -0.10000000000E+04  0.10000000000E+04  0.00000000000E+00 0.  1.
    9000005    2    1    2  501    0 -0.15542408126E+00 -0.41908637326E+00 -0.91621555771E+03  0.10835107574E+04  0.57839814438E+03 0.  0.
         13    1    3    3    0    0 -0.26766582431E+03  0.88444949380E+02 -0.57913372797E+03  0.64409888794E+03  0.00000000000E+00 0.  1.
          3    1    3    3  501    0  0.26751040023E+03 -0.88864035753E+02 -0.33708182974E+03  0.43941186946E+03  0.00000000000E+00 0.  1.
         21    1    1    2  502  501  0.15542408126E+00  0.41908637326E+00  0.22815768252E+00  0.50184256633E+00  0.00000000000E+00 0.  1.
<mgrwt>
<rscale>  1 0.57839832E+03</rscale>
<asrwt>0</asrwt>
<pdfrwt beam="1">  1        1 0.30550101E+00 0.57839832E+03</pdfrwt>
<pdfrwt beam="2">0</pdfrwt>
<totfact> 0.35070073E+00</totfact>
</mgrwt>
</event>
<event>
 6    1  0.9334667E-003  0.6289232E+03  0.7818608E-02  0.9847152E-01
          1   -1    0    0  502    0  0.00000000000E+00  0.00000000000E+00  0.10855115812E+03  0.10855115812E+03  0.00000000000E+00 0.  1.
         13   -1    0    0    0    0 -0.00000000000E+00 -0.00000000000E+00 -0.10000000000E+04  0.10000000000E+04  0.00000000000E+00 0.  1.
    9000005    2    1    2  501    0  0.88036502044E+01 -0.10313371053E+02 -0.89560092528E+03  0.10943698438E+04  0.62877696186E+03 0.  0.
         13    1    3    3    0    0 -0.28190197476E+03 -0.11476783846E+03 -0.32333976329E+03  0.44405966113E+03  0.00000000000E+00 0.  1.
          1    1    3    3  501    0  0.29070562497E+03  0.10445446741E+03 -0.57226116199E+03  0.65031018266E+03  0.00000000000E+00 0.  1.
         21    1    1    2  502  501 -0.88036502044E+01  0.10313371053E+02  0.41520834043E+01  0.14181314325E+02  0.00000000000E+00 0.  1.
<mgrwt>
<rscale>  1 0.62892316E+03</rscale>
<asrwt>0</asrwt>
<pdfrwt beam="1">  1        1 0.39473232E+00 0.62892316E+03</pdfrwt>
<pdfrwt beam="2">0</pdfrwt>
<totfact> 0.14177849E+00</totfact>
</mgrwt>
</event>
<event>
 6    1  0.9334667E-003  0.6019083E+03  0.7818608E-02  0.9901455E-01
          1   -1    0    0  502    0  0.00000000000E+00  0.00000000000E+00  0.90576941867E+02  0.90576941867E+02  0.00000000000E+00 0.  1.
         13   -1    0    0    0    0 -0.00000000000E+00 -0.00000000000E+00 -0.10000000000E+04  0.10000000000E+04  0.00000000000E+00 0.  1.
    9000005    2    1    2  501    0  0.14474406167E-02 -0.11966851385E-02 -0.90942632945E+03  0.10905731698E+04  0.60190829032E+03 0.  0.
         13    1    3    3    0    0  0.21935914814E+03 -0.20581596744E+03 -0.43702569398E+03  0.53053756278E+03  0.00000000000E+00 0.  1.
          3    1    3    3  501    0 -0.21935770070E+03  0.20581477076E+03 -0.47240063547E+03  0.56003560700E+03  0.00000000000E+00 0.  1.
         21    1    1    2  502  501 -0.14474406167E-02  0.11966851385E-02  0.32713131717E-02  0.37720855673E-02  0.00000000000E+00 0.  1.
<mgrwt>
<rscale>  1 0.60190829E+03</rscale>
<asrwt>0</asrwt>
<pdfrwt beam="1">  1        1 0.32937139E+00 0.60190829E+03</pdfrwt>
<pdfrwt beam="2">0</pdfrwt>
<totfact> 0.27539342E+00</totfact>
</mgrwt>
</event>
<event>
 6    1  0.9334667E-003  0.6526433E+03  0.7818608E-02  0.9801832E-01
          1   -1    0    0  502    0  0.00000000000E+00  0.00000000000E+00  0.10648613125E+03  0.10648613125E+03  0.00000000000E+00 0.  1.
         13   -1    0    0    0    0 -0.00000000000E+00 -0.00000000000E+00 -0.10000000000E+04  0.10000000000E+04  0.00000000000E+00 0.  1.
    9000005    2    1    2  501    0 -0.12252021634E-04 -0.37231088674E-04 -0.89351417501E+03  0.11064858225E+04  0.65264331333E+03 0.  0.
         13    1    3    3    0    0  0.28435335492E+03 -0.93894620807E+01 -0.71770601527E+03  0.77204074815E+03  0.00000000000E+00 0.  1.
          1    1    3    3  501    0 -0.28435336717E+03  0.93894248496E+01 -0.17580815974E+03  0.33444507434E+03  0.00000000000E+00 0.  1.
         21    1    1    2  502  501  0.12252021615E-04  0.37231088675E-04  0.30625967585E-03  0.30875759917E-03  0.00000000000E+00 0.  1.
<mgrwt>
<rscale>  1 0.65264331E+03</rscale>
<asrwt>0</asrwt>
<pdfrwt beam="1">  1        1 0.38722311E+00 0.65264331E+03</pdfrwt>
<pdfrwt beam="2">0</pdfrwt>
<totfact> 0.15239164E+00</totfact>
</mgrwt>
</event>
<event>
 6    1  0.9334667E-003  0.5949233E+03  0.7818608E-02  0.9915995E-01
          3   -1    0    0  502    0  0.00000000000E+00  0.00000000000E+00  0.90462861428E+02  0.90462861428E+02  0.00000000000E+00 0.  1.
         13   -1    0    0    0    0 -0.00000000000E+00 -0.00000000000E+00 -0.10000000000E+04  0.10000000000E+04  0.00000000000E+00 0.  1.
    9000005    2    1    2  501    0 -0.97340729289E-01 -0.93809642645E+00 -0.91139365816E+03  0.10883805154E+04  0.59492256352E+03 0.  0.
         13    1    3    3    0    0 -0.29096663758E+03 -0.16320860121E+02 -0.34606142637E+03  0.45242288346E+03  0.00000000000E+00 0.  1.
          1    1    3    3  501    0  0.29086929685E+03  0.15382763695E+02 -0.56533223180E+03  0.63595763191E+03  0.00000000000E+00 0.  1.
         21    1    1    2  502  501  0.97340729289E-01  0.93809642645E+00  0.18565195911E+01  0.20823460604E+01  0.00000000000E+00 0. -1.
<mgrwt>
<rscale>  1 0.59492331E+03</rscale>
<asrwt>0</asrwt>
<pdfrwt beam="1">  1        3 0.32895655E+00 0.59492331E+03</pdfrwt>
<pdfrwt beam="2">0</pdfrwt>
<totfact> 0.14227774E-01</totfact>
</mgrwt>
</event>
<event>
 6    1  0.9334667E-003  0.6502400E+03  0.7818608E-02  0.9806329E-01
          1   -1    0    0  502    0  0.00000000000E+00  0.00000000000E+00  0.10572775479E+03  0.10572775479E+03  0.00000000000E+00 0.  1.
         13   -1    0    0    0    0 -0.00000000000E+00 -0.00000000000E+00 -0.10000000000E+04  0.10000000000E+04  0.00000000000E+00 0.  1.
    9000005    2    1    2  501    0 -0.23720877431E-02  0.22992902804E-02 -0.89429685021E+03  0.11057029290E+04  0.65024004100E+03 0.  0.
         13    1    3    3    0    0 -0.31803027549E+03  0.46578148874E+02 -0.53030066788E+03  0.62010610256E+03  0.00000000000E+00 0.  1.
          1    1    3    3  501    0  0.31802790340E+03 -0.46575849584E+02 -0.36399618233E+03  0.48559682645E+03  0.00000000000E+00 0.  1.
         21    1    1    2  502  501  0.23720877431E-02 -0.22992902804E-02  0.24604993186E-01  0.24825777444E-01  0.00000000000E+00 0. -1.
<mgrwt>
<rscale>  1 0.65024004E+03</rscale>
<asrwt>0</asrwt>
<pdfrwt beam="1">  1        1 0.38446537E+00 0.65024004E+03</pdfrwt>
<pdfrwt beam="2">0</pdfrwt>
<totfact> 0.15680411E+00</totfact>
</mgrwt>
</event>
<event>
 6    1  0.9334667E-003  0.6628155E+03  0.7818608E-02  0.9783025E-01
          1   -1    0    0  502    0  0.00000000000E+00  0.00000000000E+00  0.10983138791E+03  0.10983138791E+03  0.00000000000E+00 0.  1.
         13   -1    0    0    0    0 -0.00000000000E+00 -0.00000000000E+00 -0.10000000000E+04  0.10000000000E+04  0.00000000000E+00 0.  1.
    9000005    2    1    2  501    0  0.88036588437E-04 -0.11076265606E-03 -0.89016886757E+03  0.11098310959E+04  0.66281554640E+03 0.  0.
         13    1    3    3    0    0 -0.21444788021E+03  0.10935098587E+03 -0.63678464919E+02  0.24899895247E+03  0.00000000000E+00 0.  1.
          3    1    3    3  501    0  0.21444796824E+03 -0.10935109664E+03 -0.82649040266E+03  0.86083214339E+03  0.00000000000E+00 0.  1.
         21    1    1    2  502  501 -0.88036588446E-04  0.11076265605E-03  0.25548916690E-03  0.29205054577E-03  0.00000000000E+00 0.  1.
<mgrwt>
<rscale>  1 0.66281555E+03</rscale>
<asrwt>0</asrwt>
<pdfrwt beam="1">  1        1 0.39938771E+00 0.66281555E+03</pdfrwt>
<pdfrwt beam="2">0</pdfrwt>
<totfact> 0.13430575E+00</totfact>
</mgrwt>
</event>
<event>
 6    1  0.9334667E-003  0.6525766E+03  0.7818608E-02  0.9801956E-01
          1   -1    0    0  502    0  0.00000000000E+00  0.00000000000E+00  0.11006720213E+03  0.11006720213E+03  0.00000000000E+00 0.  1.
         13   -1    0    0    0    0 -0.00000000000E+00 -0.00000000000E+00 -0.10000000000E+04  0.10000000000E+04  0.00000000000E+00 0.  1.
    9000005    2    1    2  501    0 -0.18770328380E+00 -0.48061340355E+00 -0.89351548592E+03  0.11064475508E+04  0.65257642692E+03 0.  0.
         13    1    3    3    0    0  0.88201398253E+02  0.30834669794E+03 -0.34693786304E+03  0.47246487022E+03  0.00000000000E+00 0.  1.
          1    1    3    3  501    0 -0.88389101536E+02 -0.30882731134E+03 -0.54657762288E+03  0.63398268063E+03  0.00000000000E+00 0.  1.
         21    1    1    2  502  501  0.18770328380E+00  0.48061340355E+00  0.35826880442E+01  0.36196512799E+01  0.00000000000E+00 0. -1.
<mgrwt>
<rscale>  1 0.65257663E+03</rscale>
<asrwt>0</asrwt>
<pdfrwt beam="1">  1        1 0.40024522E+00 0.65257663E+03</pdfrwt>
<pdfrwt beam="2">0</pdfrwt>
<totfact> 0.13338565E+00</totfact>
</mgrwt>
</event>
<event>
 6    1  0.9334667E-003  0.6500208E+03  0.7818608E-02  0.9806740E-01
          1   -1    0    0  502    0  0.00000000000E+00  0.00000000000E+00  0.10563253521E+03  0.10563253521E+03  0.00000000000E+00 0.  1.
         13   -1    0    0    0    0 -0.00000000000E+00 -0.00000000000E+00 -0.10000000000E+04  0.10000000000E+04  0.00000000000E+00 0.  1.
    9000005    2    1    2  501    0  0.72306696723E-04  0.23877771611E-04 -0.89436823951E+03  0.11056317568E+04  0.65002079481E+03 0.  0.
         13    1    3    3    0    0  0.73127267782E+02 -0.59730224940E+02  0.81788819136E+02  0.12491880563E+03  0.00000000000E+00 0.  1.
          3    1    3    3  501    0 -0.73127195475E+02  0.59730248818E+02 -0.97615705865E+03  0.98071295112E+03  0.00000000000E+00 0.  1.
         21    1    1    2  502  501 -0.72306696718E-04 -0.23877771612E-04  0.77472864694E-03  0.77846186981E-03  0.00000000000E+00 0.  1.
<mgrwt>
<rscale>  1 0.65002079E+03</rscale>
<asrwt>0</asrwt>
<pdfrwt beam="1">  1        1 0.38411912E+00 0.65002079E+03</pdfrwt>
<pdfrwt beam="2">0</pdfrwt>
<totfact> 0.15736423E+00</totfact>
</mgrwt>
</event>
<event>
 6    1  0.9334667E-003  0.6023043E+03  0.7818608E-02  0.9900637E-01
          1   -1    0    0  502    0  0.00000000000E+00  0.00000000000E+00  0.90697843823E+02  0.90697843823E+02  0.00000000000E+00 0.  1.
         13   -1    0    0    0    0 -0.00000000000E+00 -0.00000000000E+00 -0.10000000000E+04  0.10000000000E+04  0.00000000000E+00 0.  1.
    9000005    2    1    2  501    0 -0.20502173001E-03  0.15924582468E-03 -0.90930738996E+03  0.10906926036E+04  0.60230426374E+03 0.  0.
         13    1    3    3    0    0 -0.93919704411E+02  0.11511233133E+03 -0.92902091690E+03  0.94082496977E+03  0.00000000000E+00 0.  1.
          1    1    3    3  501    0  0.93919499389E+02 -0.11511217209E+03  0.19713526935E+02  0.14986763384E+03  0.00000000000E+00 0.  1.
         21    1    1    2  502  501  0.20502173001E-03 -0.15924582468E-03  0.52337854997E-02  0.52402198235E-02  0.00000000000E+00 0. -1.
<mgrwt>
<rscale>  1 0.60230426E+03</rscale>
<asrwt>0</asrwt>
<pdfrwt beam="1">  1        1 0.32981104E+00 0.60230426E+03</pdfrwt>
<pdfrwt beam="2">0</pdfrwt>
<totfact> 0.27416944E+00</totfact>
</mgrwt>
</event>
<event>
 6    1  0.9334667E-003  0.6485235E+03  0.7818608E-02  0.9809554E-01
          1   -1    0    0  502    0  0.00000000000E+00  0.00000000000E+00  0.10518485673E+03  0.10518485673E+03  0.00000000000E+00 0.  1.
         13   -1    0    0    0    0 -0.00000000000E+00 -0.00000000000E+00 -0.10000000000E+04  0.10000000000E+04  0.00000000000E+00 0.  1.
    9000005    2    1    2  501    0  0.12775911869E-02 -0.30244602876E-02 -0.89485422808E+03  0.11051456343E+04  0.64852354115E+03 0.  0.
         13    1    3    3    0    0 -0.79403761805E+02  0.31083584638E+03 -0.36711928494E+03  0.48754533139E+03  0.00000000000E+00 0.  1.
          3    1    3    3  501    0  0.79405039396E+02 -0.31083887084E+03 -0.52773494313E+03  0.61760030288E+03  0.00000000000E+00 0.  1.
         21    1    1    2  502  501 -0.12775911869E-02  0.30244602876E-02  0.39084808770E-01  0.39222466468E-01  0.00000000000E+00 0.  1.
<mgrwt>
<rscale>  1 0.64852354E+03</rscale>
<asrwt>0</asrwt>
<pdfrwt beam="1">  1        1 0.38249119E+00 0.64852354E+03</pdfrwt>
<pdfrwt beam="2">0</pdfrwt>
<totfact> 0.16003702E+00</totfact>
</mgrwt>
</event>
<event>
 6    1  0.9334667E-003  0.6502156E+03  0.7818608E-02  0.9806375E-01
          1   -1    0    0  502    0  0.00000000000E+00  0.00000000000E+00  0.10866249954E+03  0.10866249954E+03  0.00000000000E+00 0.  1.
         13   -1    0    0    0    0 -0.00000000000E+00 -0.00000000000E+00 -0.10000000000E+04  0.10000000000E+04  0.00000000000E+00 0.  1.
    9000005    2    1    2  501    0 -0.40183906070E-01  0.45719084694E-01 -0.89430457226E+03  0.11056948035E+04  0.65021560017E+03 0.  0.
         13    1    3    3    0    0  0.27419813359E+03 -0.16569774519E+03 -0.35341330435E+03  0.47701291693E+03  0.00000000000E+00 0.  1.
          1    1    3    3  501    0 -0.27423831750E+03  0.16574346427E+03 -0.54089126792E+03  0.62868188652E+03  0.00000000000E+00 0.  1.
         21    1    1    2  502  501  0.40183906070E-01 -0.45719084694E-01  0.29670718052E+01  0.29676960893E+01  0.00000000000E+00 0.  1.
<mgrwt>
<rscale>  1 0.65021560E+03</rscale>
<asrwt>0</asrwt>
<pdfrwt beam="1">  1        1 0.39513720E+00 0.65021560E+03</pdfrwt>
<pdfrwt beam="2">0</pdfrwt>
<totfact> 0.14061890E+00</totfact>
</mgrwt>
</event>
<event>
 6    1  0.9334667E-003  0.6607072E+03  0.7818608E-02  0.9786893E-01
          1   -1    0    0  502    0  0.00000000000E+00  0.00000000000E+00  0.10913351531E+03  0.10913351531E+03  0.00000000000E+00 0.  1.
         13   -1    0    0    0    0 -0.00000000000E+00 -0.00000000000E+00 -0.10000000000E+04  0.10000000000E+04  0.00000000000E+00 0.  1.
    9000005    2    1    2  501    0  0.10408371367E-04 -0.23137850462E-05 -0.89086649350E+03  0.11091335015E+04  0.66070720812E+03 0.  0.
         13    1    3    3    0    0 -0.24404837743E+03  0.22027085298E+03 -0.39091683661E+03  0.51077865298E+03  0.00000000000E+00 0.  1.
          3    1    3    3  501    0  0.24404838784E+03 -0.22027085529E+03 -0.49994965689E+03  0.59835484850E+03  0.00000000000E+00 0.  1.
         21    1    1    2  502  501 -0.10408371353E-04  0.23137850530E-05  0.88129490327E-05  0.13833143755E-04  0.00000000000E+00 0. -1.
<mgrwt>
<rscale>  1 0.66070721E+03</rscale>
<asrwt>0</asrwt>
<pdfrwt beam="1">  1        1 0.39684998E+00 0.66070721E+03</pdfrwt>
<pdfrwt beam="2">0</pdfrwt>
<totfact> 0.13790185E+00</totfact>
</mgrwt>
</event>
<event>
 6    1  0.9334667E-003  0.6393437E+03  0.7818608E-02  0.9826983E-01
          1   -1    0    0  502    0  0.00000000000E+00  0.00000000000E+00  0.10219084040E+03  0.10219084040E+03  0.00000000000E+00 0.  1.
         13   -1    0    0    0    0 -0.00000000000E+00 -0.00000000000E+00 -0.10000000000E+04  0.10000000000E+04  0.00000000000E+00 0.  1.
    9000005    2    1    2  501    0  0.17149106628E-03  0.67290444917E-04 -0.89780990068E+03  0.11021900768E+04  0.63934368502E+03 0.  0.
         13    1    3    3    0    0 -0.27886348931E+03 -0.90444572553E+02 -0.22917879216E+03  0.37211286615E+03  0.00000000000E+00 0.  1.
          1    1    3    3  501    0  0.27886366080E+03  0.90444639844E+02 -0.66863110852E+03  0.73007721062E+03  0.00000000000E+00 0.  1.
         21    1    1    2  502  501 -0.17149106626E-03 -0.67290444925E-04  0.74108013425E-03  0.76363404532E-03  0.00000000000E+00 0.  1.
<mgrwt>
<rscale>  1 0.63934369E+03</rscale>
<asrwt>0</asrwt>
<pdfrwt beam="1">  1        1 0.37160384E+00 0.63934369E+03</pdfrwt>
<pdfrwt beam="2">0</pdfrwt>
<totfact> 0.17902850E+00</totfact>
</mgrwt>
</event>
<event>
 6    1  0.9334667E-003  0.6405894E+03  0.7818608E-02  0.9824600E-01
          1   -1    0    0  502    0  0.00000000000E+00  0.00000000000E+00  0.10258868968E+03  0.10258868968E+03  0.00000000000E+00 0.  1.
         13   -1    0    0    0    0 -0.00000000000E+00 -0.00000000000E+00 -0.10000000000E+04  0.10000000000E+04  0.00000000000E+00 0.  1.
    9000005    2    1    2  501    0 -0.68419495847E-05 -0.70303470920E-05 -0.89741129214E+03  0.11025886690E+04  0.64058937376E+03 0.  0.
         13    1    3    3    0    0  0.29440920627E+03 -0.60350585725E+02 -0.25804943056E+03  0.39611675368E+03  0.00000000000E+00 0.  1.
          1    1    3    3  501    0 -0.29440921311E+03  0.60350578694E+02 -0.63936186158E+03  0.70647191534E+03  0.00000000000E+00 0.  1.
         21    1    1    2  502  501  0.68419495565E-05  0.70303470915E-05 -0.18187315276E-04  0.20664377341E-04  0.00000000000E+00 0.  1.
<mgrwt>
<rscale>  1 0.64058937E+03</rscale>
<asrwt>0</asrwt>
<pdfrwt beam="1">  1        1 0.37305057E+00 0.64058937E+03</pdfrwt>
<pdfrwt beam="2">0</pdfrwt>
<totfact> 0.17638554E+00</totfact>
</mgrwt>
</event>
<event>
 6    1  0.9334667E-003  0.6439884E+03  0.7818608E-02  0.9818125E-01
          1   -1    0    0  502    0  0.00000000000E+00  0.00000000000E+00  0.11600912525E+03  0.11600912525E+03  0.00000000000E+00 0.  1.
         13   -1    0    0    0    0 -0.00000000000E+00 -0.00000000000E+00 -0.10000000000E+04  0.10000000000E+04  0.00000000000E+00 0.  1.
    9000005    2    1    2  501    0  0.55767729152E-02 -0.15216885524E+01 -0.89626789316E+03  0.11036381613E+04  0.64398659867E+03 0.  0.
         13    1    3    3    0    0 -0.16033749398E+03  0.26664180494E+03 -0.58506775062E+03  0.66265393452E+03  0.00000000000E+00 0.  1.
          3    1    3    3  501    0  0.16034307075E+03 -0.26816349349E+03 -0.31120014254E+03  0.44098422681E+03  0.00000000000E+00 0.  1.
         21    1    1    2  502  501 -0.55767729152E-02  0.15216885524E+01  0.12277018417E+02  0.12370963922E+02  0.00000000000E+00 0. -1.
<mgrwt>
<rscale>  1 0.64398840E+03</rscale>
<asrwt>0</asrwt>
<pdfrwt beam="1">  1        1 0.42185225E+00 0.64398840E+03</pdfrwt>
<pdfrwt beam="2">0</pdfrwt>
<totfact> 0.10688524E+00</totfact>
</mgrwt>
</event>
<event>
 6    1  0.9334667E-003  0.7051260E+03  0.7818608E-02  0.9708506E-01
          1   -1    0    0  502    0  0.00000000000E+00  0.00000000000E+00  0.12701214495E+03  0.12701214495E+03  0.00000000000E+00 0.  1.
         13   -1    0    0    0    0 -0.00000000000E+00 -0.00000000000E+00 -0.10000000000E+04  0.10000000000E+04  0.00000000000E+00 0.  1.
    9000005    2    1    2  501    0 -0.19967491774E+01  0.34535767981E+00 -0.87526599591E+03  0.11239631771E+04  0.70512307690E+03 0.  0.
         13    1    3    3    0    0 -0.32975891932E+03 -0.78599938984E+02 -0.59823375510E+03  0.68760637069E+03  0.00000000000E+00 0.  1.
          1    1    3    3  501    0  0.32776217014E+03  0.78945296664E+02 -0.27703224082E+03  0.43635680640E+03  0.00000000000E+00 0.  1.
         21    1    1    2  502  501  0.19967491774E+01 -0.34535767981E+00  0.22781408643E+01  0.30489678585E+01  0.00000000000E+00 0.  1.
<mgrwt>
<rscale>  1 0.70512599E+03</rscale>
<asrwt>0</asrwt>
<pdfrwt beam="1">  1        1 0.46186332E+00 0.70512599E+03</pdfrwt>
<pdfrwt beam="2">0</pdfrwt>
<totfact> 0.69227468E-01</totfact>
</mgrwt>
</event>
<event>
 6    1  0.9334667E-003  0.6539318E+03  0.7818608E-02  0.9799429E-01
          1   -1    0    0  502    0  0.00000000000E+00  0.00000000000E+00  0.11212812006E+03  0.11212812006E+03  0.00000000000E+00 0.  1.
         13   -1    0    0    0    0 -0.00000000000E+00 -0.00000000000E+00 -0.10000000000E+04  0.10000000000E+04  0.00000000000E+00 0.  1.
    9000005    2    1    2  501    0 -0.86624038475E-01  0.97117959361E-01 -0.89309240250E+03  0.11069059757E+04  0.65393178755E+03 0.  0.
         13    1    3    3    0    0 -0.18049161806E+03 -0.21495807464E+03 -0.73036942937E+03  0.78244725152E+03  0.00000000000E+00 0.  1.
          1    1    3    3  501    0  0.18040499402E+03  0.21505519260E+03 -0.16272297313E+03  0.32445872421E+03  0.00000000000E+00 0.  1.
         21    1    1    2  502  501  0.86624038475E-01 -0.97117959361E-01  0.52205225551E+01  0.52221443269E+01  0.00000000000E+00 0. -1.
<mgrwt>
<rscale>  1 0.65393180E+03</rscale>
<asrwt>0</asrwt>
<pdfrwt beam="1">  1        1 0.40773948E+00 0.65393180E+03</pdfrwt>
<pdfrwt beam="2">0</pdfrwt>
<totfact> 0.12345673E+00</totfact>
</mgrwt>
</event>
<event>
 6    1  0.9334667E-003  0.6587898E+03  0.7818608E-02  0.9790424E-01
          1   -1    0    0  502    0  0.00000000000E+00  0.00000000000E+00  0.11117306298E+03  0.11117306298E+03  0.00000000000E+00 0.  1.
         13   -1    0    0    0    0 -0.00000000000E+00 -0.00000000000E+00 -0.10000000000E+04  0.10000000000E+04  0.00000000000E+00 0.  1.
    9000005    2    1    2  501    0  0.19909259492E+01 -0.60450461215E+00 -0.89104233150E+03  0.11081337893E+04  0.65878655814E+03 0.  0.
         13    1    3    3    0    0  0.21770172039E+03 -0.77562088986E+02 -0.49983278691E+02  0.23644924373E+03  0.00000000000E+00 0.  1.
          3    1    3    3  501    0 -0.21571079444E+03  0.76957584374E+02 -0.84105905281E+03  0.87168454555E+03  0.00000000000E+00 0.  1.
         21    1    1    2  502  501 -0.19909259492E+01  0.60450461215E+00  0.22153944765E+01  0.30392737040E+01  0.00000000000E+00 0.  1.
<mgrwt>
<rscale>  1 0.65878984E+03</rscale>
<asrwt>0</asrwt>
<pdfrwt beam="1">  1        1 0.40426654E+00 0.65878984E+03</pdfrwt>
<pdfrwt beam="2">0</pdfrwt>
<totfact> 0.12783426E+00</totfact>
</mgrwt>
</event>
<event>
 6    1  0.9334667E-003  0.6438384E+03  0.7818608E-02  0.9818410E-01
          1   -1    0    0  502    0  0.00000000000E+00  0.00000000000E+00  0.10363219146E+03  0.10363219146E+03  0.00000000000E+00 0.  1.
         13   -1    0    0    0    0 -0.00000000000E+00 -0.00000000000E+00 -0.10000000000E+04  0.10000000000E+04  0.00000000000E+00 0.  1.
    9000005    2    1    2  501    0  0.26554187407E-03  0.55977697374E-03 -0.89636630843E+03  0.11036305684E+04  0.64383839020E+03 0.  0.
         13    1    3    3    0    0 -0.76461129596E+02  0.17058598643E+03  0.10598413665E+01  0.18694118425E+03  0.00000000000E+00 0.  1.
          1    1    3    3  501    0  0.76461395138E+02 -0.17058542666E+03 -0.89742614980E+03  0.91668938419E+03  0.00000000000E+00 0.  1.
         21    1    1    2  502  501 -0.26554187407E-03 -0.55977697374E-03 -0.15001074881E-02  0.16230173206E-02  0.00000000000E+00 0.  1.
<mgrwt>
<rscale>  1 0.64383839E+03</rscale>
<asrwt>0</asrwt>
<pdfrwt beam="1">  1        1 0.37684513E+00 0.64383839E+03</pdfrwt>
<pdfrwt beam="2">0</pdfrwt>
<totfact> 0.16962985E+00</totfact>
</mgrwt>
</event>
<event>
 6    1  0.9334667E-003  0.6388606E+03  0.7818608E-02  0.9827909E-01
          1   -1    0    0  502    0  0.00000000000E+00  0.00000000000E+00  0.10203722673E+03  0.10203722673E+03  0.00000000000E+00 0.  1.
         13   -1    0    0    0    0 -0.00000000000E+00 -0.00000000000E+00 -0.10000000000E+04  0.10000000000E+04  0.00000000000E+00 0.  1.
    9000005    2    1    2  501    0  0.89556897763E-04  0.40772026895E-03 -0.89796425318E+03  0.11020356891E+04  0.63886059512E+03 0.  0.
         13    1    3    3    0    0  0.24732244953E+03  0.20166398674E+03 -0.47332027874E+03  0.57084923040E+03  0.00000000000E+00 0.  1.
          3    1    3    3  501    0 -0.24732235997E+03 -0.20166357902E+03 -0.42464397445E+03  0.53118645867E+03  0.00000000000E+00 0.  1.
         21    1    1    2  502  501 -0.89556897762E-04 -0.40772026896E-03  0.14799106450E-02  0.15376578855E-02  0.00000000000E+00 0.  1.
<mgrwt>
<rscale>  1 0.63886060E+03</rscale>
<asrwt>0</asrwt>
<pdfrwt beam="1">  1        1 0.37104524E+00 0.63886060E+03</pdfrwt>
<pdfrwt beam="2">0</pdfrwt>
<totfact> 0.18005913E+00</totfact>
</mgrwt>
</event>
<event>
 6    1  0.9334667E-003  0.6453161E+03  0.7818608E-02  0.9815608E-01
          1   -1    0    0  502    0  0.00000000000E+00  0.00000000000E+00  0.10688666536E+03  0.10688666536E+03  0.00000000000E+00 0.  1.
         13   -1    0    0    0    0 -0.00000000000E+00 -0.00000000000E+00 -0.10000000000E+04  0.10000000000E+04  0.00000000000E+00 0.  1.
    9000005    2    1    2  501    0  0.18059167989E+00 -0.12092805665E-02 -0.89588853228E+03  0.11041055978E+04  0.64531610565E+03 0.  0.
         13    1    3    3    0    0  0.75150503075E+02  0.24403770202E+02 -0.98325456388E+03  0.98642418842E+03  0.00000000000E+00 0.  1.
          1    1    3    3  501    0 -0.74969911395E+02 -0.24404979482E+02  0.87366031597E+02  0.11768140939E+03  0.00000000000E+00 0.  1.
         21    1    1    2  502  501 -0.18059167989E+00  0.12092805665E-02  0.27751976430E+01  0.27810675603E+01  0.00000000000E+00 0.  1.
<mgrwt>
<rscale>  1 0.64531613E+03</rscale>
<asrwt>0</asrwt>
<pdfrwt beam="1">  1        1 0.38867960E+00 0.64531613E+03</pdfrwt>
<pdfrwt beam="2">0</pdfrwt>
<totfact> 0.15034952E+00</totfact>
</mgrwt>
</event>
<event>
 6    1  0.9334667E-003  0.6354344E+03  0.7818608E-02  0.9834501E-01
          1   -1    0    0  502    0  0.00000000000E+00  0.00000000000E+00  0.10095897667E+03  0.10095897667E+03  0.00000000000E+00 0.  1.
         13   -1    0    0    0    0 -0.00000000000E+00 -0.00000000000E+00 -0.10000000000E+04  0.10000000000E+04  0.00000000000E+00 0.  1.
    9000005    2    1    2  501    0  0.43555063772E-01  0.16138969980E-01 -0.89897459713E+03  0.11008779214E+04  0.63543439431E+03 0.  0.
         13    1    3    3    0    0  0.34414812264E+01 -0.31308070386E+03 -0.54290101140E+03  0.62671594770E+03  0.00000000000E+00 0.  1.
          1    1    3    3  501    0 -0.33979261626E+01  0.31309684283E+03 -0.35607358573E+03  0.47416197374E+03  0.00000000000E+00 0.  1.
         21    1    1    2  502  501 -0.43555063772E-01 -0.16138969980E-01 -0.66426203087E-01  0.81055230484E-01  0.00000000000E+00 0.  1.
<mgrwt>
<rscale>  1 0.63543440E+03</rscale>
<asrwt>0</asrwt>
<pdfrwt beam="1">  1        1 0.36712433E+00 0.63543440E+03</pdfrwt>
<pdfrwt beam="2">0</pdfrwt>
<totfact> 0.18745589E+00</totfact>
</mgrwt>
</event>
<event>
 6    1  0.9334667E-003  0.6520465E+03  0.7818608E-02  0.9802947E-01
          1   -1    0    0  502    0  0.00000000000E+00  0.00000000000E+00  0.10629735714E+03  0.10629735714E+03  0.00000000000E+00 0.  1.
         13   -1    0    0    0    0 -0.00000000000E+00 -0.00000000000E+00 -0.10000000000E+04  0.10000000000E+04  0.00000000000E+00 0.  1.
    9000005    2    1    2  501    0 -0.38737523099E-03  0.13040795952E-01 -0.89370006547E+03  0.11062840584E+04  0.65204647900E+03 0.  0.
         13    1    3    3    0    0 -0.20485160891E+03  0.11110822538E+03 -0.60022755138E+02  0.24064901943E+03  0.00000000000E+00 0.  1.
          3    1    3    3  501    0  0.20485122154E+03 -0.11109518458E+03 -0.83367731033E+03  0.86563503901E+03  0.00000000000E+00 0.  1.
         21    1    1    2  502  501  0.38737523099E-03 -0.13040795952E-01 -0.25773857505E-02  0.13298696776E-01  0.00000000000E+00 0. -1.
<mgrwt>
<rscale>  1 0.65204648E+03</rscale>
<asrwt>0</asrwt>
<pdfrwt beam="1">  1        1 0.38653666E+00 0.65204648E+03</pdfrwt>
<pdfrwt beam="2">0</pdfrwt>
<totfact> 0.15347879E+00</totfact>
</mgrwt>
</event>
<event>
 6    1  0.9334667E-003  0.6513571E+03  0.7818608E-02  0.9804236E-01
          1   -1    0    0  502    0  0.00000000000E+00  0.00000000000E+00  0.10607554528E+03  0.10607554528E+03  0.00000000000E+00 0.  1.
         13   -1    0    0    0    0 -0.00000000000E+00 -0.00000000000E+00 -0.10000000000E+04  0.10000000000E+04  0.00000000000E+00 0.  1.
    9000005    2    1    2  501    0  0.84693749955E-04  0.17874996928E-03 -0.89393348430E+03  0.11060665135E+04  0.65135708947E+03 0.  0.
         13    1    3    3    0    0 -0.94200711456E+02  0.30286051637E+03 -0.32139621972E+03  0.45154600703E+03  0.00000000000E+00 0.  1.
          3    1    3    3  501    0  0.94200796150E+02 -0.30286033762E+03 -0.57253726458E+03  0.65452050650E+03  0.00000000000E+00 0.  1.
         21    1    1    2  502  501 -0.84693749948E-04 -0.17874996926E-03  0.90295846048E-02  0.90317508113E-02  0.00000000000E+00 0.  1.
<mgrwt>
<rscale>  1 0.65135709E+03</rscale>
<asrwt>0</asrwt>
<pdfrwt beam="1">  1        1 0.38573007E+00 0.65135709E+03</pdfrwt>
<pdfrwt beam="2">0</pdfrwt>
<totfact> 0.15476527E+00</totfact>
</mgrwt>
</event>
<event>
 6    1  0.9334667E-003  0.6487178E+03  0.7818608E-02  0.9809188E-01
          1   -1    0    0  502    0  0.00000000000E+00  0.00000000000E+00  0.10522053916E+03  0.10522053916E+03  0.00000000000E+00 0.  1.
         13   -1    0    0    0    0 -0.00000000000E+00 -0.00000000000E+00 -0.10000000000E+04  0.10000000000E+04  0.00000000000E+00 0.  1.
    9000005    2    1    2  501    0 -0.15286051878E-01 -0.20586594253E-01 -0.89477339708E+03  0.11051941907E+04  0.64871778642E+03 0.  0.
         13    1    3    3    0    0 -0.43152197441E+01 -0.27231673071E+03 -0.74754922985E+03  0.79561603428E+03  0.00000000000E+00 0.  1.
          3    1    3    3  501    0  0.42999336922E+01  0.27229614411E+03 -0.14722416722E+03  0.30957815644E+03  0.00000000000E+00 0.  1.
         21    1    1    2  502  501  0.15286051878E-01  0.20586594253E-01 -0.60637645866E-02  0.26348443709E-01  0.00000000000E+00 0. -1.
<mgrwt>
<rscale>  1 0.64871779E+03</rscale>
<asrwt>0</asrwt>
<pdfrwt beam="1">  1        1 0.38262095E+00 0.64871779E+03</pdfrwt>
<pdfrwt beam="2">0</pdfrwt>
<totfact> 0.15982021E+00</totfact>
</mgrwt>
</event>
