<event>
 6    1  0.6616771E-003  0.6497122E+03  0.7818608E-02  0.9807319E-01
          1   -1    0    0  502    0  0.00000000000E+00  0.00000000000E+00  0.10553148824E+03  0.10553148824E+03  0.00000000000E+00 0.  1.
         13   -1    0    0    0    0 -0.00000000000E+00 -0.00000000000E+00 -0.10000000000E+04  0.10000000000E+04  0.00000000000E+00 0.  1.
    9000005    2    1    2  501    0  0.91952274772E-06  0.64186008331E-06 -0.89446851223E+03  0.11055314870E+04  0.64971220508E+03 0.  0.
         13    1    3    3    0    0  0.57549487217E+02 -0.31596074494E+03 -0.36407718129E+03  0.48548463391E+03  0.00000000000E+00 0.  1.
          1    1    3    3  501    0 -0.57549486298E+02  0.31596074559E+03 -0.53039133094E+03  0.62004685312E+03  0.00000000000E+00 0.  1.
         21    1    1    2  502  501 -0.91952275007E-06 -0.64186009014E-06  0.46880155911E-06  0.12154346404E-05  0.00000000000E+00 0.  1.
<mgrwt>
<rscale>  1 0.64971221E+03</rscale>
<asrwt>0</asrwt>
<pdfrwt beam="1">  1        1 0.38375168E+00 0.64971221E+03</pdfrwt>
<pdfrwt beam="2">0</pdfrwt>
<totfact> 0.15796293E+00</totfact>
</mgrwt>
</event>
<event>
 6    1  0.3877548E-003  0.5725886E+03  0.7818608E-02  0.9963967E-01
          1   -1    0    0  502    0  0.00000000000E+00  0.00000000000E+00  0.83083285541E+02  0.83083285541E+02  0.00000000000E+00 0.  1.
         13   -1    0    0    0    0 -0.00000000000E+00 -0.00000000000E+00 -0.10000000000E+04  0.10000000000E+04  0.00000000000E+00 0.  1.
    9000005    2    1    2  501    0  0.11117256862E+01  0.50820052721E+00 -0.91766504195E+03  0.10816500389E+04  0.57258727136E+03 0.  0.
         13    1    3    3    0    0  0.10575828369E+03 -0.24564649370E+03 -0.26589170456E+03  0.37712784701E+03  0.00000000000E+00 0.  1.
          1    1    3    3  501    0 -0.10464655800E+03  0.24615469423E+03 -0.65177333739E+03  0.70452219193E+03  0.00000000000E+00 0.  1.
         21    1    1    2  502  501 -0.11117256862E+01 -0.50820052721E+00  0.74832749261E+00  0.14332465990E+01  0.00000000000E+00 0.  1.
<mgrwt>
<rscale>  1 0.57258858E+03</rscale>
<asrwt>0</asrwt>
<pdfrwt beam="1">  1        1 0.30212168E+00 0.57258858E+03</pdfrwt>
<pdfrwt beam="2">0</pdfrwt>
<totfact> 0.36304723E+00</totfact>
</mgrwt>
</event>
<event>
 6    1  0.3877548E-003  0.6457879E+03  0.7818608E-02  0.9814715E-01
          1   -1    0    0  502    0  0.00000000000E+00  0.00000000000E+00  0.10426083804E+03  0.10426083804E+03  0.00000000000E+00 0.  1.
         13   -1    0    0    0    0 -0.00000000000E+00 -0.00000000000E+00 -0.10000000000E+04  0.10000000000E+04  0.00000000000E+00 0.  1.
    9000005    2    1    2  501    0  0.31034633014E-03 -0.17337603499E-03 -0.89573937021E+03  0.11042604260E+04  0.64578794443E+03 0.  0.
         13    1    3    3    0    0 -0.25587473853E+03 -0.32317818367E+01 -0.78459416296E+03  0.82526985089E+03  0.00000000000E+00 0.  1.
          3    1    3    3  501    0  0.25587504887E+03  0.32316084606E+01 -0.11114520725E+03  0.27899057515E+03  0.00000000000E+00 0.  1.
         21    1    1    2  502  501 -0.31034633016E-03  0.17337603499E-03  0.20825449574E-03  0.41200003538E-03  0.00000000000E+00 0. -1.
<mgrwt>
<rscale>  1 0.64578794E+03</rscale>
<asrwt>0</asrwt>
<pdfrwt beam="1">  1        1 0.37913112E+00 0.64578794E+03</pdfrwt>
<pdfrwt beam="2">0</pdfrwt>
<totfact> 0.16568011E+00</totfact>
</mgrwt>
</event>
<event>
 6    1  0.3877548E-003  0.5081501E+03  0.7818608E-02  0.1011673E+00
          3   -1    0    0  502    0  0.00000000000E+00  0.00000000000E+00  0.64554124760E+02  0.64554124760E+02  0.00000000000E+00 0.  1.
         13   -1    0    0    0    0 -0.00000000000E+00 -0.00000000000E+00 -0.10000000000E+04  0.10000000000E+04  0.00000000000E+00 0.  1.
    9000005    2    1    2  501    0  0.57039451633E-05 -0.34485968641E-05 -0.93544587922E+03  0.10645541170E+04  0.50815005173E+03 0.  0.
         13    1    3    3    0    0 -0.25038290973E+03 -0.42310978110E+02 -0.44990996636E+03  0.51662442662E+03  0.00000000000E+00 0.  1.
          3    1    3    3  501    0  0.25038291544E+03  0.42310974661E+02 -0.48553591286E+03  0.54792969038E+03  0.00000000000E+00 0.  1.
         21    1    1    2  502  501 -0.57039451508E-05  0.34485968599E-05  0.39778691396E-05  0.77621680913E-05  0.00000000000E+00 0. -1.
<mgrwt>
<rscale>  1 0.50815005E+03</rscale>
<asrwt>0</asrwt>
<pdfrwt beam="1">  1        3 0.23474277E+00 0.50815005E+03</pdfrwt>
<pdfrwt beam="2">0</pdfrwt>
<totfact> 0.47450676E-01</totfact>
</mgrwt>
</event>
<event>
 6    1  0.3877548E-003  0.6520080E+03  0.7818608E-02  0.9803019E-01
          1   -1    0    0  502    0  0.00000000000E+00  0.00000000000E+00  0.10648593684E+03  0.10648593684E+03  0.00000000000E+00 0.  1.
         13   -1    0    0    0    0 -0.00000000000E+00 -0.00000000000E+00 -0.10000000000E+04  0.10000000000E+04  0.00000000000E+00 0.  1.
    9000005    2    1    2  501    0 -0.11300967143E+00  0.12357837498E+00 -0.89368329914E+03  0.11062478536E+04  0.65200801102E+03 0.  0.
         13    1    3    3    0    0  0.32147518206E+03  0.47532009351E+02 -0.40376868169E+03  0.51829984845E+03  0.00000000000E+00 0.  1.
          3    1    3    3  501    0 -0.32158819173E+03 -0.47408430976E+02 -0.48991461745E+03  0.58794800517E+03  0.00000000000E+00 0.  1.
         21    1    1    2  502  501  0.11300967143E+00 -0.12357837498E+00  0.16923597885E+00  0.23808321473E+00  0.00000000000E+00 0. -1.
<mgrwt>
<rscale>  1 0.65200803E+03</rscale>
<asrwt>0</asrwt>
<pdfrwt beam="1">  1        1 0.38722241E+00 0.65200803E+03</pdfrwt>
<pdfrwt beam="2">0</pdfrwt>
<totfact> 0.15241065E+00</totfact>
</mgrwt>
</event>
<event>
 6    1  0.3877548E-003  0.6645638E+03  0.7818608E-02  0.9779829E-01
          1   -1    0    0  502    0  0.00000000000E+00  0.00000000000E+00  0.11041198565E+03  0.11041198565E+03  0.00000000000E+00 0.  1.
         13   -1    0    0    0    0 -0.00000000000E+00 -0.00000000000E+00 -0.10000000000E+04  0.10000000000E+04  0.00000000000E+00 0.  1.
    9000005    2    1    2  501    0 -0.20370082302E-03  0.23925078050E-03 -0.88958869226E+03  0.11104112385E+04  0.66456382469E+03 0.  0.
         13    1    3    3    0    0  0.27763344840E+03  0.61552967227E+02 -0.15760510445E+03  0.32512838755E+03  0.00000000000E+00 0.  1.
          1    1    3    3  501    0 -0.27763365210E+03 -0.61552727976E+02 -0.73198358781E+03  0.78528285090E+03  0.00000000000E+00 0.  1.
         21    1    1    2  502  501  0.20370082302E-03 -0.23925078050E-03  0.67791522235E-03  0.74719743707E-03  0.00000000000E+00 0. -1.
<mgrwt>
<rscale>  1 0.66456382E+03</rscale>
<asrwt>0</asrwt>
<pdfrwt beam="1">  1        1 0.40149898E+00 0.66456382E+03</pdfrwt>
<pdfrwt beam="2">0</pdfrwt>
<totfact> 0.13138181E+00</totfact>
</mgrwt>
</event>
<event>
 6    1  0.3934332E-003  0.6370242E+03  0.7818608E-02  0.9831437E-01
          1   -1    0    0  502    0  0.00000000000E+00  0.00000000000E+00  0.10144996443E+03  0.10144996443E+03  0.00000000000E+00 0.  1.
         13   -1    0    0    0    0 -0.00000000000E+00 -0.00000000000E+00 -0.10000000000E+04  0.10000000000E+04  0.00000000000E+00 0.  1.
    9000005    2    1    2  501    0 -0.30389852938E-04  0.63731883984E-05 -0.89855003906E+03  0.11014499332E+04  0.63702416171E+03 0.  0.
         13    1    3    3    0    0 -0.35305137802E+02 -0.31436609937E+03 -0.51344713768E+03  0.60307583303E+03  0.00000000000E+00 0.  1.
          1    1    3    3  501    0  0.35305107412E+02  0.31436610574E+03 -0.38510290138E+03  0.49837410015E+03  0.00000000000E+00 0.  1.
         21    1    1    2  502  501  0.30389852934E-04 -0.63731883680E-05  0.34890488749E-05  0.31246346241E-04  0.00000000000E+00 0.  1.
<mgrwt>
<rscale>  1 0.63702416E+03</rscale>
<asrwt>0</asrwt>
<pdfrwt beam="1">  1        1 0.36890974E+00 0.63702416E+03</pdfrwt>
<pdfrwt beam="2">0</pdfrwt>
<totfact> 0.18405140E+00</totfact>
</mgrwt>
</event>
<event>
 6    1  0.3877548E-003  0.6328317E+03  0.7818608E-02  0.9839538E-01
          1   -1    0    0  502    0  0.00000000000E+00  0.00000000000E+00  0.10160729886E+03  0.10160729886E+03  0.00000000000E+00 0.  1.
         13   -1    0    0    0    0 -0.00000000000E+00 -0.00000000000E+00 -0.10000000000E+04  0.10000000000E+04  0.00000000000E+00 0.  1.
    9000005    2    1    2  501    0  0.60105653253E-01 -0.60193536301E-01 -0.89987966302E+03  0.11001179058E+04  0.63283172455E+03 0.  0.
         13    1    3    3    0    0 -0.25774229147E+03 -0.13045469752E+03 -0.22552802359E+03  0.36648657048E+03  0.00000000000E+00 0.  1.
          3    1    3    3  501    0  0.25780239712E+03  0.13039450398E+03 -0.67435163942E+03  0.73363133536E+03  0.00000000000E+00 0.  1.
         21    1    1    2  502  501 -0.60105653253E-01  0.60193536301E-01  0.14869618722E+01  0.14893930175E+01  0.00000000000E+00 0. -1.
<mgrwt>
<rscale>  1 0.63283173E+03</rscale>
<asrwt>0</asrwt>
<pdfrwt beam="1">  1        1 0.36948187E+00 0.63283173E+03</pdfrwt>
<pdfrwt beam="2">0</pdfrwt>
<totfact> 0.18313020E+00</totfact>
</mgrwt>
</event>
<event>
 6    1  0.3877548E-003  0.6360394E+03  0.7818608E-02  0.9833334E-01
          1   -1    0    0  502    0  0.00000000000E+00  0.00000000000E+00  0.10122686639E+03  0.10122686639E+03  0.00000000000E+00 0.  1.
         13   -1    0    0    0    0 -0.00000000000E+00 -0.00000000000E+00 -0.10000000000E+04  0.10000000000E+04  0.00000000000E+00 0.  1.
    9000005    2    1    2  501    0  0.19914194048E+00  0.25073484250E-01 -0.89871964735E+03  0.11010191479E+04  0.63603940068E+03 0.  0.
         13    1    3    3    0    0  0.72313856865E+02  0.14158740112E+03  0.27436630372E+02  0.16133522472E+03  0.00000000000E+00 0.  1.
          1    1    3    3  501    0 -0.72114714925E+02 -0.14156232763E+03 -0.92615627772E+03  0.93968392318E+03  0.00000000000E+00 0.  1.
         21    1    1    2  502  501 -0.19914194048E+00 -0.25073484250E-01 -0.53486260386E-01  0.20771849249E+00  0.00000000000E+00 0.  1.
<mgrwt>
<rscale>  1 0.63603943E+03</rscale>
<asrwt>0</asrwt>
<pdfrwt beam="1">  1        1 0.36809847E+00 0.63603943E+03</pdfrwt>
<pdfrwt beam="2">0</pdfrwt>
<totfact> 0.18559981E+00</totfact>
</mgrwt>
</event>
<event>
 6    1  0.3877548E-003  0.6560776E+03  0.7818608E-02  0.9795441E-01
          1   -1    0    0  502    0  0.00000000000E+00  0.00000000000E+00  0.10961607087E+03  0.10961607087E+03  0.00000000000E+00 0.  1.
         13   -1    0    0    0    0 -0.00000000000E+00 -0.00000000000E+00 -0.10000000000E+04  0.10000000000E+04  0.00000000000E+00 0.  1.
    9000005    2    1    2  501    0 -0.13674430197E+00  0.63959303673E-01 -0.89238741446E+03  0.11076069061E+04  0.65607753967E+03 0.  0.
         13    1    3    3    0    0  0.26745187170E+03 -0.76407824499E+02 -0.15272873747E+03  0.31732432395E+03  0.00000000000E+00 0.  1.
          3    1    3    3  501    0 -0.26758861600E+03  0.76471783803E+02 -0.73965867699E+03  0.79028258210E+03  0.00000000000E+00 0.  1.
         21    1    1    2  502  501  0.13674430197E+00 -0.63959303673E-01  0.20034853291E+01  0.20091648167E+01  0.00000000000E+00 0.  1.
<mgrwt>
<rscale>  1 0.65607756E+03</rscale>
<asrwt>0</asrwt>
<pdfrwt beam="1">  1        1 0.39860473E+00 0.65607756E+03</pdfrwt>
<pdfrwt beam="2">0</pdfrwt>
<totfact> 0.13556034E+00</totfact>
</mgrwt>
</event>
<event>
 6    1  0.3877548E-003  0.6402175E+03  0.7818608E-02  0.9825310E-01
          1   -1    0    0  502    0  0.00000000000E+00  0.00000000000E+00  0.10247177506E+03  0.10247177506E+03  0.00000000000E+00 0.  1.
         13   -1    0    0    0    0 -0.00000000000E+00 -0.00000000000E+00 -0.10000000000E+04  0.10000000000E+04  0.00000000000E+00 0.  1.
    9000005    2    1    2  501    0  0.47911409059E-02  0.21476933776E-02 -0.89752602191E+03  0.11024660811E+04  0.64021754115E+03 0.  0.
         13    1    3    3    0    0 -0.63131253553E+02 -0.21236873141E+03 -0.84662886096E+03  0.87513796710E+03  0.00000000000E+00 0.  1.
          3    1    3    3  501    0  0.63136044694E+02  0.21237087911E+03 -0.50897160957E+02  0.22732811402E+03  0.00000000000E+00 0.  1.
         21    1    1    2  502  501 -0.47911409059E-02 -0.21476933776E-02 -0.22030250238E-02  0.56939386439E-02  0.00000000000E+00 0. -1.
<mgrwt>
<rscale>  1 0.64021754E+03</rscale>
<asrwt>0</asrwt>
<pdfrwt beam="1">  1        1 0.37262542E+00 0.64021754E+03</pdfrwt>
<pdfrwt beam="2">0</pdfrwt>
<totfact> 0.17715852E+00</totfact>
</mgrwt>
</event>
<event>
 6    1  0.3877548E-003  0.6831227E+03  0.7818608E-02  0.9746538E-01
          1   -1    0    0  502    0  0.00000000000E+00  0.00000000000E+00  0.11871055437E+03  0.11871055437E+03  0.00000000000E+00 0.  1.
         13   -1    0    0    0    0 -0.00000000000E+00 -0.00000000000E+00 -0.10000000000E+04  0.10000000000E+04  0.00000000000E+00 0.  1.
    9000005    2    1    2  501    0  0.15874642244E+00 -0.12558389942E+00 -0.88333025751E+03  0.11166597290E+04  0.68312265771E+03 0.  0.
         13    1    3    3    0    0  0.15631023250E+03 -0.29818466780E+03 -0.53680904957E+03  0.63364890956E+03  0.00000000000E+00 0.  1.
          1    1    3    3  501    0 -0.15615148608E+03  0.29805908390E+03 -0.34652120794E+03  0.48301081940E+03  0.00000000000E+00 0.  1.
         21    1    1    2  502  501 -0.15874642244E+00  0.12558389942E+00  0.20408118769E+01  0.20508254092E+01  0.00000000000E+00 0. -1.
<mgrwt>
<rscale>  1 0.68312269E+03</rscale>
<asrwt>0</asrwt>
<pdfrwt beam="1">  1        1 0.43167565E+00 0.68312269E+03</pdfrwt>
<pdfrwt beam="2">0</pdfrwt>
<totfact> 0.95732080E-01</totfact>
</mgrwt>
</event>
<event>
 6    1  0.3877548E-003  0.6472740E+03  0.7818608E-02  0.9811908E-01
          1   -1    0    0  502    0  0.00000000000E+00  0.00000000000E+00  0.10474127187E+03  0.10474127187E+03  0.00000000000E+00 0.  1.
         13   -1    0    0    0    0 -0.00000000000E+00 -0.00000000000E+00 -0.10000000000E+04  0.10000000000E+04  0.00000000000E+00 0.  1.
    9000005    2    1    2  501    0 -0.44010749214E-03 -0.62920142117E-03 -0.89525860843E+03  0.11047404947E+04  0.64727396423E+03 0.  0.
         13    1    3    3    0    0 -0.87337681829E+02  0.31220002409E+02  0.81571441238E+02  0.12351704030E+03  0.00000000000E+00 0.  1.
          1    1    3    3  501    0  0.87337241721E+02 -0.31220631610E+02 -0.97683004967E+03  0.98122345445E+03  0.00000000000E+00 0.  1.
         21    1    1    2  502  501  0.44010749214E-03  0.62920142117E-03 -0.11970075335E-03  0.77712116391E-03  0.00000000000E+00 0.  1.
<mgrwt>
<rscale>  1 0.64727396E+03</rscale>
<asrwt>0</asrwt>
<pdfrwt beam="1">  1        1 0.38087816E+00 0.64727396E+03</pdfrwt>
<pdfrwt beam="2">0</pdfrwt>
<totfact> 0.16272092E+00</totfact>
</mgrwt>
</event>
<event>
 6    1  0.3877548E-003  0.6144176E+03  0.7818608E-02  0.9875938E-01
          1   -1    0    0  502    0  0.00000000000E+00  0.00000000000E+00  0.94413921988E+02  0.94413921988E+02  0.00000000000E+00 0.  1.
         13   -1    0    0    0    0 -0.00000000000E+00 -0.00000000000E+00 -0.10000000000E+04  0.10000000000E+04  0.00000000000E+00 0.  1.
    9000005    2    1    2  501    0 -0.85310774476E-03  0.24065431626E-03 -0.90562276031E+03  0.10943772290E+04  0.61441755779E+03 0.  0.
         13    1    3    3    0    0  0.86319887749E+02  0.28487000633E+03 -0.31745260123E+03  0.43517605352E+03  0.00000000000E+00 0.  1.
          3    1    3    3  501    0 -0.86320740857E+02 -0.28486976568E+03 -0.58817015908E+03  0.65920117546E+03  0.00000000000E+00 0.  1.
         21    1    1    2  502  501  0.85310774476E-03 -0.24065431624E-03  0.36682299379E-01  0.36693007441E-01  0.00000000000E+00 0. -1.
<mgrwt>
<rscale>  1 0.61441756E+03</rscale>
<asrwt>0</asrwt>
<pdfrwt beam="1">  1        1 0.34332408E+00 0.61441756E+03</pdfrwt>
<pdfrwt beam="2">0</pdfrwt>
<totfact> 0.23902934E+00</totfact>
</mgrwt>
</event>
<event>
 6    1  0.3877548E-003  0.6370817E+03  0.7818608E-02  0.9831326E-01
          3   -1    0    0  502    0  0.00000000000E+00  0.00000000000E+00  0.10150636017E+03  0.10150636017E+03  0.00000000000E+00 0.  1.
         13   -1    0    0    0    0 -0.00000000000E+00 -0.00000000000E+00 -0.10000000000E+04  0.10000000000E+04  0.00000000000E+00 0.  1.
    9000005    2    1    2  501    0  0.19867172225E-03 -0.71476325576E-03 -0.89853172871E+03  0.11014682641E+04  0.63708168176E+03 0.  0.
         13    1    3    3    0    0 -0.23999428710E+03  0.20508343140E+03 -0.52285363608E+03  0.61076378121E+03  0.00000000000E+00 0.  1.
          1    1    3    3  501    0  0.23999448577E+03 -0.20508414616E+03 -0.37567809263E+03  0.49070448285E+03  0.00000000000E+00 0.  1.
         21    1    1    2  502  501 -0.19867172224E-03  0.71476325576E-03  0.38088881528E-01  0.38096105484E-01  0.00000000000E+00 0. -1.
<mgrwt>
<rscale>  1 0.63708168E+03</rscale>
<asrwt>0</asrwt>
<pdfrwt beam="1">  1        3 0.36911482E+00 0.63708168E+03</pdfrwt>
<pdfrwt beam="2">0</pdfrwt>
<totfact> 0.86365209E-02</totfact>
</mgrwt>
</event>
<event>
 6    1  0.3877548E-003  0.6649084E+03  0.7818608E-02  0.9779200E-01
          1   -1    0    0  502    0  0.00000000000E+00  0.00000000000E+00  0.11061728798E+03  0.11061728798E+03  0.00000000000E+00 0.  1.
         13   -1    0    0    0    0 -0.00000000000E+00 -0.00000000000E+00 -0.10000000000E+04  0.10000000000E+04  0.00000000000E+00 0.  1.
    9000005    2    1    2  501    0 -0.28396230964E-01 -0.10366061253E-01 -0.88947141347E+03  0.11105235770E+04  0.66490842885E+03 0.  0.
         13    1    3    3    0    0 -0.26433951477E+03 -0.18837745996E+03 -0.32461920255E+03  0.45906325616E+03  0.00000000000E+00 0.  1.
          3    1    3    3  501    0  0.26431111854E+03  0.18836709390E+03 -0.56485221092E+03  0.65146032084E+03  0.00000000000E+00 0.  1.
         21    1    1    2  502  501  0.28396230964E-01  0.10366061253E-01  0.88701449846E-01  0.93710983153E-01  0.00000000000E+00 0. -1.
<mgrwt>
<rscale>  1 0.66490843E+03</rscale>
<asrwt>0</asrwt>
<pdfrwt beam="1">  1        1 0.40224553E+00 0.66490843E+03</pdfrwt>
<pdfrwt beam="2">0</pdfrwt>
<totfact> 0.13036904E+00</totfact>
</mgrwt>
</event>
<event>
 6    1  0.3877548E-003  0.6589147E+03  0.7818608E-02  0.9790194E-01
          1   -1    0    0  502    0  0.00000000000E+00  0.00000000000E+00  0.10854422859E+03  0.10854422859E+03  0.00000000000E+00 0.  1.
         13   -1    0    0    0    0 -0.00000000000E+00 -0.00000000000E+00 -0.10000000000E+04  0.10000000000E+04  0.00000000000E+00 0.  1.
    9000005    2    1    2  501    0  0.21425222280E-02 -0.37603927882E-03 -0.89145720572E+03  0.11085416230E+04  0.65891469881E+03 0.  0.
         13    1    3    3    0    0 -0.11026576241E+03  0.20757291581E+03 -0.83412264621E+03  0.86660581734E+03  0.00000000000E+00 0.  1.
          3    1    3    3  501    0  0.11026790493E+03 -0.20757329185E+03 -0.57334559512E+02  0.24193580567E+03  0.00000000000E+00 0.  1.
         21    1    1    2  502  501 -0.21425222280E-02  0.37603927882E-03  0.14343090350E-02  0.26055804429E-02  0.00000000000E+00 0.  1.
<mgrwt>
<rscale>  1 0.65891470E+03</rscale>
<asrwt>0</asrwt>
<pdfrwt beam="1">  1        1 0.39470712E+00 0.65891470E+03</pdfrwt>
<pdfrwt beam="2">0</pdfrwt>
<totfact> 0.14100946E+00</totfact>
</mgrwt>
</event>
<event>
 6    1  0.3877548E-003  0.6432698E+03  0.7818608E-02  0.9819491E-01
          1   -1    0    0  502    0  0.00000000000E+00  0.00000000000E+00  0.10347435120E+03  0.10347435120E+03  0.00000000000E+00 0.  1.
         13   -1    0    0    0    0 -0.00000000000E+00 -0.00000000000E+00 -0.10000000000E+04  0.10000000000E+04  0.00000000000E+00 0.  1.
    9000005    2    1    2  501    0  0.80239346386E-02 -0.82752833287E-02 -0.89654955275E+03  0.11034478133E+04  0.64326975361E+03 0.  0.
         13    1    3    3    0    0  0.26273480103E+03 -0.16796844021E+03 -0.58345464383E+03  0.66156049912E+03  0.00000000000E+00 0.  1.
          1    1    3    3  501    0 -0.26272677710E+03  0.16796016493E+03 -0.31309490892E+03  0.44188731414E+03  0.00000000000E+00 0.  1.
         21    1    1    2  502  501 -0.80239346386E-02  0.82752833287E-02  0.23903950696E-01  0.26537948303E-01  0.00000000000E+00 0. -1.
<mgrwt>
<rscale>  1 0.64326975E+03</rscale>
<asrwt>0</asrwt>
<pdfrwt beam="1">  1        1 0.37627116E+00 0.64326975E+03</pdfrwt>
<pdfrwt beam="2">0</pdfrwt>
<totfact> 0.17063803E+00</totfact>
</mgrwt>
</event>
<event>
 6    1  0.3877548E-003  0.6445446E+03  0.7818608E-02  0.9817070E-01
          1   -1    0    0  502    0  0.00000000000E+00  0.00000000000E+00  0.10386016364E+03  0.10386016364E+03  0.00000000000E+00 0.  1.
         13   -1    0    0    0    0 -0.00000000000E+00 -0.00000000000E+00 -0.10000000000E+04  0.10000000000E+04  0.00000000000E+00 0.  1.
    9000005    2    1    2  501    0 -0.14430637958E-03  0.77948120406E-04 -0.89614057060E+03  0.11038594113E+04  0.64454455055E+03 0.  0.
         13    1    3    3    0    0  0.26496899253E+03 -0.18206137188E+03 -0.40960454331E+03  0.52070221051E+03  0.00000000000E+00 0.  1.
          3    1    3    3  501    0 -0.26496913683E+03  0.18206144982E+03 -0.48653602729E+03  0.58315720079E+03  0.00000000000E+00 0.  1.
         21    1    1    2  502  501  0.14430637961E-03 -0.77948120420E-04  0.73423767763E-03  0.75233317614E-03  0.00000000000E+00 0. -1.
<mgrwt>
<rscale>  1 0.64454455E+03</rscale>
<asrwt>0</asrwt>
<pdfrwt beam="1">  1        1 0.37767412E+00 0.64454455E+03</pdfrwt>
<pdfrwt beam="2">0</pdfrwt>
<totfact> 0.16818729E+00</totfact>
</mgrwt>
</event>
<event>
 6    1  0.3877548E-003  0.6533970E+03  0.7818608E-02  0.9800426E-01
          1   -1    0    0  502    0  0.00000000000E+00  0.00000000000E+00  0.10684324727E+03  0.10684324727E+03  0.00000000000E+00 0.  1.
         13   -1    0    0    0    0 -0.00000000000E+00 -0.00000000000E+00 -0.10000000000E+04  0.10000000000E+04  0.00000000000E+00 0.  1.
    9000005    2    1    2  501    0  0.44657415964E-02  0.35780438311E-02 -0.89326800706E+03  0.11067318459E+04  0.65339700506E+03 0.  0.
         13    1    3    3    0    0 -0.30530607822E+03  0.10744959145E+03 -0.52188215412E+03  0.61409950244E+03  0.00000000000E+00 0.  1.
          1    1    3    3  501    0  0.30531054396E+03 -0.10744601340E+03 -0.37138585293E+03  0.49263234344E+03  0.00000000000E+00 0.  1.
         21    1    1    2  502  501 -0.44657415964E-02 -0.35780438311E-02  0.11125432086E+00  0.11140138758E+00  0.00000000000E+00 0.  1.
<mgrwt>
<rscale>  1 0.65339701E+03</rscale>
<asrwt>0</asrwt>
<pdfrwt beam="1">  1        1 0.38852172E+00 0.65339701E+03</pdfrwt>
<pdfrwt beam="2">0</pdfrwt>
<totfact> 0.15036542E+00</totfact>
</mgrwt>
</event>
<event>
 6    1  0.3877548E-003  0.6516781E+03  0.7818608E-02  0.9803635E-01
          1   -1    0    0  502    0  0.00000000000E+00  0.00000000000E+00  0.10664494128E+03  0.10664494128E+03  0.00000000000E+00 0.  1.
         13   -1    0    0    0    0 -0.00000000000E+00 -0.00000000000E+00 -0.10000000000E+04  0.10000000000E+04  0.00000000000E+00 0.  1.
    9000005    2    1    2  501    0 -0.13361177063E+01  0.27663158857E+00 -0.89221192826E+03  0.11048649180E+04  0.65167668395E+03 0.  0.
         13    1    3    3    0    0 -0.12833304303E+03  0.52142841356E+02 -0.94705243273E+03  0.95712933095E+03  0.00000000000E+00 0.  1.
          1    1    3    3  501    0  0.12699692532E+03 -0.51866209768E+02  0.54840504465E+02  0.14773558707E+03  0.00000000000E+00 0.  1.
         21    1    1    2  502  501  0.13361177063E+01 -0.27663158857E+00 -0.11431304573E+01  0.17800232592E+01  0.00000000000E+00 0. -1.
<mgrwt>
<rscale>  1 0.65167811E+03</rscale>
<asrwt>0</asrwt>
<pdfrwt beam="1">  1        1 0.38780060E+00 0.65167811E+03</pdfrwt>
<pdfrwt beam="2">0</pdfrwt>
<totfact> 0.15152388E+00</totfact>
</mgrwt>
</event>
<event>
 6    1  0.3877548E-003  0.6475487E+03  0.7818608E-02  0.9811390E-01
          1   -1    0    0  502    0  0.00000000000E+00  0.00000000000E+00  0.10483160021E+03  0.10483160021E+03  0.00000000000E+00 0.  1.
         13   -1    0    0    0    0 -0.00000000000E+00 -0.00000000000E+00 -0.10000000000E+04  0.10000000000E+04  0.00000000000E+00 0.  1.
    9000005    2    1    2  501    0 -0.30454237893E-03  0.19060756881E-03 -0.89517016104E+03  0.11048298027E+04  0.64754866665E+03 0.  0.
         13    1    3    3    0    0  0.13487850539E+03  0.12691471642E+03  0.55322779244E+01  0.18528400513E+03  0.00000000000E+00 0.  1.
          3    1    3    3  501    0 -0.13487880993E+03 -0.12691452581E+03 -0.90070243897E+03  0.91954579755E+03  0.00000000000E+00 0.  1.
         21    1    1    2  502  501  0.30454237893E-03 -0.19060756882E-03  0.17612501847E-02  0.17975203807E-02  0.00000000000E+00 0.  1.
<mgrwt>
<rscale>  1 0.64754867E+03</rscale>
<asrwt>0</asrwt>
<pdfrwt beam="1">  1        1 0.38120662E+00 0.64754867E+03</pdfrwt>
<pdfrwt beam="2">0</pdfrwt>
<totfact> 0.16217033E+00</totfact>
</mgrwt>
</event>
<event>
 6    1  0.3877548E-003  0.6467075E+03  0.7818608E-02  0.9812977E-01
          1   -1    0    0  502    0  0.00000000000E+00  0.00000000000E+00  0.12064152810E+03  0.12064152810E+03  0.00000000000E+00 0.  1.
         13   -1    0    0    0    0 -0.00000000000E+00 -0.00000000000E+00 -0.10000000000E+04  0.10000000000E+04  0.00000000000E+00 0.  1.
    9000005    2    1    2  501    0  0.22959078245E+01 -0.17054192659E+01 -0.89530180303E+03  0.11044437056E+04  0.64670116791E+03 0.  0.
         13    1    3    3    0    0 -0.12212212964E+03  0.26739254024E+03 -0.22075405553E+03  0.36762064435E+03  0.00000000000E+00 0.  1.
          3    1    3    3  501    0  0.12441803746E+03 -0.26909795950E+03 -0.67454774751E+03  0.73682306120E+03  0.00000000000E+00 0.  1.
         21    1    1    2  502  501 -0.22959078245E+01  0.17054192659E+01  0.15943331134E+02  0.16197822547E+02  0.00000000000E+00 0. -1.
<mgrwt>
<rscale>  1 0.64670749E+03</rscale>
<asrwt>0</asrwt>
<pdfrwt beam="1">  1        1 0.43869739E+00 0.64670749E+03</pdfrwt>
<pdfrwt beam="2">0</pdfrwt>
<totfact> 0.89578594E-01</totfact>
</mgrwt>
</event>
<event>
 6    1  0.3877548E-003  0.6468631E+03  0.7818608E-02  0.9812683E-01
          1   -1    0    0  502    0  0.00000000000E+00  0.00000000000E+00  0.10461594487E+03  0.10461594487E+03  0.00000000000E+00 0.  1.
         13   -1    0    0    0    0 -0.00000000000E+00 -0.00000000000E+00 -0.10000000000E+04  0.10000000000E+04  0.00000000000E+00 0.  1.
    9000005    2    1    2  501    0 -0.28991775427E-02  0.82845065192E-02 -0.89538929115E+03  0.11046057246E+04  0.64686306434E+03 0.  0.
         13    1    3    3    0    0  0.14145765583E+03  0.24478679666E+02 -0.94260863382E+03  0.95347811234E+03  0.00000000000E+00 0.  1.
          3    1    3    3  501    0 -0.14146055500E+03 -0.24470395159E+02  0.47219342676E+02  0.15112761225E+03  0.00000000000E+00 0.  1.
         21    1    1    2  502  501  0.28991775427E-02 -0.82845065192E-02  0.52360162124E-02  0.10220281037E-01  0.00000000000E+00 0.  1.
<mgrwt>
<rscale>  1 0.64686306E+03</rscale>
<asrwt>0</asrwt>
<pdfrwt beam="1">  1        1 0.38042242E+00 0.64686306E+03</pdfrwt>
<pdfrwt beam="2">0</pdfrwt>
<totfact> 0.16348867E+00</totfact>
</mgrwt>
</event>
<event>
 6    1  0.3877548E-003  0.6503050E+03  0.7818608E-02  0.9806207E-01
          1   -1    0    0  502    0  0.00000000000E+00  0.00000000000E+00  0.10572783774E+03  0.10572783774E+03  0.00000000000E+00 0.  1.
         13   -1    0    0    0    0 -0.00000000000E+00 -0.00000000000E+00 -0.10000000000E+04  0.10000000000E+04  0.00000000000E+00 0.  1.
    9000005    2    1    2  501    0 -0.12556539384E-02  0.74556263218E-03 -0.89427569792E+03  0.11057240124E+04  0.65030498049E+03 0.  0.
         13    1    3    3    0    0  0.15207030165E+03  0.35410079828E+02 -0.93208459785E+03  0.94507192740E+03  0.00000000000E+00 0.  1.
          3    1    3    3  501    0 -0.15207155730E+03 -0.35409334266E+02  0.37808899935E+02  0.16065208498E+03  0.00000000000E+00 0.  1.
         21    1    1    2  502  501  0.12556539384E-02 -0.74556263218E-03  0.35356546709E-02  0.38253606893E-02  0.00000000000E+00 0. -1.
<mgrwt>
<rscale>  1 0.65030498E+03</rscale>
<asrwt>0</asrwt>
<pdfrwt beam="1">  1        1 0.38446568E+00 0.65030498E+03</pdfrwt>
<pdfrwt beam="2">0</pdfrwt>
<totfact> 0.15680175E+00</totfact>
</mgrwt>
</event>
<event>
 6    1  0.3877548E-003  0.6516524E+03  0.7818608E-02  0.9803683E-01
          1   -1    0    0  502    0  0.00000000000E+00  0.00000000000E+00  0.10654986724E+03  0.10654986724E+03  0.00000000000E+00 0.  1.
         13   -1    0    0    0    0 -0.00000000000E+00 -0.00000000000E+00 -0.10000000000E+04  0.10000000000E+04  0.00000000000E+00 0.  1.
    9000005    2    1    2  501    0 -0.69619858370E-01 -0.48601303717E-01 -0.89383212747E+03  0.11061585503E+04  0.65165240661E+03 0.  0.
         13    1    3    3    0    0 -0.87364227337E+02  0.40601066038E+02  0.81437311422E+02  0.12614670219E+03  0.00000000000E+00 0.  1.
          1    1    3    3  501    0  0.87294607478E+02 -0.40649667342E+02 -0.97526943889E+03  0.98001184808E+03  0.00000000000E+00 0.  1.
         21    1    1    2  502  501  0.69619858370E-01  0.48601303717E-01  0.38199471182E+00  0.39131697033E+00  0.00000000000E+00 0.  1.
<mgrwt>
<rscale>  1 0.65165241E+03</rscale>
<asrwt>0</asrwt>
<pdfrwt beam="1">  1        1 0.38745488E+00 0.65165241E+03</pdfrwt>
<pdfrwt beam="2">0</pdfrwt>
<totfact> 0.15205979E+00</totfact>
</mgrwt>
</event>
<event>
 6    1  0.3877548E-003  0.6423811E+03  0.7818608E-02  0.9821181E-01
          1   -1    0    0  502    0  0.00000000000E+00  0.00000000000E+00  0.10316338562E+03  0.10316338562E+03  0.00000000000E+00 0.  1.
         13   -1    0    0    0    0 -0.00000000000E+00 -0.00000000000E+00 -0.10000000000E+04  0.10000000000E+04  0.00000000000E+00 0.  1.
    9000005    2    1    2  501    0 -0.20925687636E-05 -0.10091495142E-05 -0.89683661484E+03  0.11031633832E+04  0.64238114575E+03 0.  0.
         13    1    3    3    0    0  0.14011111383E+03 -0.28758877504E+03 -0.39909382480E+03  0.51148246181E+03  0.00000000000E+00 0.  1.
          1    1    3    3  501    0 -0.14011111592E+03  0.28758877403E+03 -0.49774279005E+03  0.59168092144E+03  0.00000000000E+00 0.  1.
         21    1    1    2  502  501  0.20925687682E-05  0.10091495501E-05  0.46126063222E-06  0.23685413728E-05  0.00000000000E+00 0. -1.
<mgrwt>
<rscale>  1 0.64238115E+03</rscale>
<asrwt>0</asrwt>
<pdfrwt beam="1">  1        1 0.37514038E+00 0.64238115E+03</pdfrwt>
<pdfrwt beam="2">0</pdfrwt>
<totfact> 0.17263371E+00</totfact>
</mgrwt>
</event>
<event>
 6    1  0.3877548E-003  0.6479144E+03  0.7818608E-02  0.9810701E-01
          1   -1    0    0  502    0  0.00000000000E+00  0.00000000000E+00  0.12747802348E+03  0.12747802348E+03  0.00000000000E+00 0.  1.
         13   -1    0    0    0    0 -0.00000000000E+00 -0.00000000000E+00 -0.10000000000E+04  0.10000000000E+04  0.00000000000E+00 0.  1.
    9000005    2    1    2  501    0  0.95309838327E-01  0.52133761439E+00 -0.89504829778E+03  0.11049454687E+04  0.64791415518E+03 0.  0.
         13    1    3    3    0    0  0.10303882737E+03 -0.22499688463E+03 -0.91198918977E+02  0.26373820516E+03  0.00000000000E+00 0.  1.
          3    1    3    3  501    0 -0.10294351753E+03  0.22551822224E+03 -0.80384937881E+03  0.84120726350E+03  0.00000000000E+00 0.  1.
         21    1    1    2  502  501 -0.95309838327E-01 -0.52133761439E+00  0.22526321260E+02  0.22532554812E+02  0.00000000000E+00 0.  1.
<mgrwt>
<rscale>  1 0.64791437E+03</rscale>
<asrwt>0</asrwt>
<pdfrwt beam="1">  1        1 0.46355743E+00 0.64791437E+03</pdfrwt>
<pdfrwt beam="2">0</pdfrwt>
<totfact> 0.68788296E-01</totfact>
</mgrwt>
</event>
<event>
 6    1  0.3877548E-003  0.6518397E+03  0.7818608E-02  0.9803333E-01
          1   -1    0    0  502    0  0.00000000000E+00  0.00000000000E+00  0.10635719492E+03  0.10635719492E+03  0.00000000000E+00 0.  1.
         13   -1    0    0    0    0 -0.00000000000E+00 -0.00000000000E+00 -0.10000000000E+04  0.10000000000E+04  0.00000000000E+00 0.  1.
    9000005    2    1    2  501    0  0.62880748921E-02  0.16475665289E-01 -0.89377559146E+03  0.11062232427E+04  0.65183974595E+03 0.  0.
         13    1    3    3    0    0  0.32344320774E+03 -0.77350598186E+01 -0.51371296949E+03  0.60710489605E+03  0.00000000000E+00 0.  1.
          3    1    3    3  501    0 -0.32343691967E+03  0.77515354839E+01 -0.38006262196E+03  0.49911834660E+03  0.00000000000E+00 0.  1.
         21    1    1    2  502  501 -0.62880748921E-02 -0.16475665289E-01  0.13278637488E+00  0.13395226309E+00  0.00000000000E+00 0. -1.
<mgrwt>
<rscale>  1 0.65183975E+03</rscale>
<asrwt>0</asrwt>
<pdfrwt beam="1">  1        1 0.38675425E+00 0.65183975E+03</pdfrwt>
<pdfrwt beam="2">0</pdfrwt>
<totfact> 0.15314460E+00</totfact>
</mgrwt>
</event>
<event>
 6    1  0.3877549E-003  0.6576894E+03  0.7818608E-02  0.9792457E-01
          1   -1    0    0  502    0  0.00000000000E+00  0.00000000000E+00  0.10813885348E+03  0.10813885348E+03  0.00000000000E+00 0.  1.
         13   -1    0    0    0    0 -0.00000000000E+00 -0.00000000000E+00 -0.10000000000E+04  0.10000000000E+04  0.00000000000E+00 0.  1.
    9000005    2    1    2  501    0 -0.29516270743E-05 -0.61813966568E-05 -0.89186114709E+03  0.11081388466E+04  0.65768943863E+03 0.  0.
         13    1    3    3    0    0 -0.40242746467E+02  0.31284944552E+03 -0.28927508779E+03  0.42798870385E+03  0.00000000000E+00 0.  1.
          3    1    3    3  501    0  0.40242743515E+02 -0.31284945170E+03 -0.60258605930E+03  0.68015014276E+03  0.00000000000E+00 0.  1.
         21    1    1    2  502  501  0.29516270708E-05  0.61813966455E-05  0.56754121925E-06  0.68734176280E-05  0.00000000000E+00 0. -1.
<mgrwt>
<rscale>  1 0.65768944E+03</rscale>
<asrwt>0</asrwt>
<pdfrwt beam="1">  1        1 0.39323302E+00 0.65768944E+03</pdfrwt>
<pdfrwt beam="2">0</pdfrwt>
<totfact> 0.14318535E+00</totfact>
</mgrwt>
</event>
<event>
 6    1  0.3877548E-003  0.6482688E+03  0.7818608E-02  0.9810033E-01
          1   -1    0    0  502    0  0.00000000000E+00  0.00000000000E+00  0.10506341705E+03  0.10506341705E+03  0.00000000000E+00 0.  1.
         13   -1    0    0    0    0 -0.00000000000E+00 -0.00000000000E+00 -0.10000000000E+04  0.10000000000E+04  0.00000000000E+00 0.  1.
    9000005    2    1    2  501    0  0.17079975304E-03 -0.79549925829E-05 -0.89493685262E+03  0.11050630977E+04  0.64826883297E+03 0.  0.
         13    1    3    3    0    0  0.11002526991E+03  0.24054470717E+03 -0.12812381937E+03  0.29390989990E+03  0.00000000000E+00 0.  1.
          1    1    3    3  501    0 -0.11002509911E+03 -0.24054471513E+03 -0.76681303325E+03  0.81115319784E+03  0.00000000000E+00 0.  1.
         21    1    1    2  502  501 -0.17079975304E-03  0.79549925925E-05  0.26966715329E-03  0.31930582693E-03  0.00000000000E+00 0. -1.
<mgrwt>
<rscale>  1 0.64826883E+03</rscale>
<asrwt>0</asrwt>
<pdfrwt beam="1">  1        1 0.38204959E+00 0.64826883E+03</pdfrwt>
<pdfrwt beam="2">0</pdfrwt>
<totfact> 0.16076499E+00</totfact>
</mgrwt>
</event>
<event>
 6    1  0.3877548E-003  0.4849156E+03  0.7818608E-02  0.1017793E+00
          1   -1    0    0  502    0  0.00000000000E+00  0.00000000000E+00  0.58797589707E+02  0.58797589707E+02  0.00000000000E+00 0.  1.
         13   -1    0    0    0    0 -0.00000000000E+00 -0.00000000000E+00 -0.10000000000E+04  0.10000000000E+04  0.00000000000E+00 0.  1.
    9000005    2    1    2  501    0  0.33582598749E-01  0.23085256153E-01 -0.94116604932E+03  0.10587429743E+04  0.48491561289E+03 0.  0.
         13    1    3    3    0    0 -0.19308554428E+03 -0.11470758817E+03 -0.66990002772E+03  0.70654504834E+03  0.00000000000E+00 0.  1.
          1    1    3    3  501    0  0.19311912688E+03  0.11473067343E+03 -0.27126602160E+03  0.35219792598E+03  0.00000000000E+00 0.  1.
         21    1    1    2  502  501 -0.33582598749E-01 -0.23085256153E-01 -0.36360970739E-01  0.54615384128E-01  0.00000000000E+00 0.  1.
<mgrwt>
<rscale>  1 0.48491561E+03</rscale>
<asrwt>0</asrwt>
<pdfrwt beam="1">  1        1 0.21380987E+00 0.48491561E+03</pdfrwt>
<pdfrwt beam="2">0</pdfrwt>
<totfact> 0.89319207E+00</totfact>
</mgrwt>
</event>
<event>
 6    1  0.3877548E-003  0.6504972E+03  0.7818608E-02  0.9805847E-01
          1   -1    0    0  502    0  0.00000000000E+00  0.00000000000E+00  0.10578773632E+03  0.10578773632E+03  0.00000000000E+00 0.  1.
         13   -1    0    0    0    0 -0.00000000000E+00 -0.00000000000E+00 -0.10000000000E+04  0.10000000000E+04  0.00000000000E+00 0.  1.
    9000005    2    1    2  501    0  0.13920641082E-02  0.32445869775E-03 -0.89421278770E+03  0.11057862139E+04  0.65049722613E+03 0.  0.
         13    1    3    3    0    0  0.29961382044E+03  0.91179536739E+02 -0.29789289884E+03  0.43222948591E+03  0.00000000000E+00 0.  1.
          1    1    3    3  501    0 -0.29961242837E+03 -0.91179212280E+02 -0.59631988886E+03  0.67355672800E+03  0.00000000000E+00 0.  1.
         21    1    1    2  502  501 -0.13920641083E-02 -0.32445869776E-03  0.52402043238E-03  0.15224038037E-02  0.00000000000E+00 0.  1.
<mgrwt>
<rscale>  1 0.65049723E+03</rscale>
<asrwt>0</asrwt>
<pdfrwt beam="1">  1        1 0.38468349E+00 0.65049723E+03</pdfrwt>
<pdfrwt beam="2">0</pdfrwt>
<totfact> 0.15644881E+00</totfact>
</mgrwt>
</event>
<event>
 6    1  0.3877548E-003  0.6114299E+03  0.7818608E-02  0.9881972E-01
          1   -1    0    0  502    0  0.00000000000E+00  0.00000000000E+00  0.93822317978E+02  0.93822317978E+02  0.00000000000E+00 0.  1.
         13   -1    0    0    0    0 -0.00000000000E+00 -0.00000000000E+00 -0.10000000000E+04  0.10000000000E+04  0.00000000000E+00 0.  1.
    9000005    2    1    2  501    0  0.11006114332E-01 -0.22434808842E-03 -0.90653828858E+03  0.10934615434E+04  0.61142986366E+03 0.  0.
         13    1    3    3    0    0 -0.23809498816E+03  0.91762074851E+02 -0.15214982012E+03  0.29708428019E+03  0.00000000000E+00 0.  1.
          1    1    3    3  501    0  0.23810599428E+03 -0.91762299200E+02 -0.75438846846E+03  0.79637726324E+03  0.00000000000E+00 0.  1.
         21    1    1    2  502  501 -0.11006114332E-01  0.22434808843E-03  0.36060655908E+00  0.36077454918E+00  0.00000000000E+00 0. -1.
<mgrwt>
<rscale>  1 0.61142986E+03</rscale>
<asrwt>0</asrwt>
<pdfrwt beam="1">  1        1 0.34117278E+00 0.61142986E+03</pdfrwt>
<pdfrwt beam="2">0</pdfrwt>
<totfact> 0.24436088E+00</totfact>
</mgrwt>
</event>
<event>
 6    1  0.3877548E-003  0.6566363E+03  0.7818608E-02  0.9794406E-01
          1   -1    0    0  502    0  0.00000000000E+00  0.00000000000E+00  0.10781658222E+03  0.10781658222E+03  0.00000000000E+00 0.  1.
         13   -1    0    0    0    0 -0.00000000000E+00 -0.00000000000E+00 -0.10000000000E+04  0.10000000000E+04  0.00000000000E+00 0.  1.
    9000005    2    1    2  501    0 -0.41255322373E-03  0.54735816363E-03 -0.89220718672E+03  0.11077928034E+04  0.65663630056E+03 0.  0.
         13    1    3    3    0    0 -0.29973177555E+03  0.99955307131E+02 -0.59664890117E+03  0.67514451191E+03  0.00000000000E+00 0.  1.
          1    1    3    3  501    0  0.29973136300E+03 -0.99954759773E+02 -0.29555828555E+03  0.43264829148E+03  0.00000000000E+00 0.  1.
         21    1    1    2  502  501  0.41255322373E-03 -0.54735816363E-03  0.23768940568E-01  0.23778821183E-01  0.00000000000E+00 0. -1.
<mgrwt>
<rscale>  1 0.65663630E+03</rscale>
<asrwt>0</asrwt>
<pdfrwt beam="1">  1        1 0.39206113E+00 0.65663630E+03</pdfrwt>
<pdfrwt beam="2">0</pdfrwt>
<totfact> 0.14493994E+00</totfact>
</mgrwt>
</event>
<event>
 6    1  0.3877548E-003  0.6380469E+03  0.7818608E-02  0.9829471E-01
          1   -1    0    0  502    0  0.00000000000E+00  0.00000000000E+00  0.10177606751E+03  0.10177606751E+03  0.00000000000E+00 0.  1.
         13   -1    0    0    0    0 -0.00000000000E+00 -0.00000000000E+00 -0.10000000000E+04  0.10000000000E+04  0.00000000000E+00 0.  1.
    9000005    2    1    2  501    0  0.33323064144E-04  0.27899349462E-05 -0.89822405084E+03  0.11017759445E+04  0.63804685284E+03 0.  0.
         13    1    3    3    0    0  0.31366839253E+03 -0.50153135144E+02 -0.39809820971E+03  0.50929891224E+03  0.00000000000E+00 0.  1.
          1    1    3    3  501    0 -0.31366835921E+03  0.50153137934E+02 -0.50012584113E+03  0.59247703228E+03  0.00000000000E+00 0.  1.
         21    1    1    2  502  501 -0.33323064134E-04 -0.27899349436E-05  0.11834969237E-03  0.12298316968E-03  0.00000000000E+00 0.  1.
<mgrwt>
<rscale>  1 0.63804685E+03</rscale>
<asrwt>0</asrwt>
<pdfrwt beam="1">  1        1 0.37009557E+00 0.63804685E+03</pdfrwt>
<pdfrwt beam="2">0</pdfrwt>
<totfact> 0.18182409E+00</totfact>
</mgrwt>
</event>
<event>
 6    1  0.3877548E-003  0.6566606E+03  0.7818608E-02  0.9794361E-01
          1   -1    0    0  502    0  0.00000000000E+00  0.00000000000E+00  0.10789359201E+03  0.10789359201E+03  0.00000000000E+00 0.  1.
         13   -1    0    0    0    0 -0.00000000000E+00 -0.00000000000E+00 -0.10000000000E+04  0.10000000000E+04  0.00000000000E+00 0.  1.
    9000005    2    1    2  501    0  0.71518338540E-02 -0.71992160821E-02 -0.89219889151E+03  0.11078005534E+04  0.65666064604E+03 0.  0.
         13    1    3    3    0    0  0.27789228933E+03  0.16779232408E+03 -0.52914625145E+03  0.62078510284E+03  0.00000000000E+00 0.  1.
          1    1    3    3  501    0 -0.27788513749E+03 -0.16779952329E+03 -0.36305264006E+03  0.48701545058E+03  0.00000000000E+00 0.  1.
         21    1    1    2  502  501 -0.71518338540E-02  0.71992160821E-02  0.92483518068E-01  0.93038586371E-01  0.00000000000E+00 0. -1.
<mgrwt>
<rscale>  1 0.65666065E+03</rscale>
<asrwt>0</asrwt>
<pdfrwt beam="1">  1        1 0.39234116E+00 0.65666065E+03</pdfrwt>
<pdfrwt beam="2">0</pdfrwt>
<totfact> 0.14452493E+00</totfact>
</mgrwt>
</event>
<event>
 6    1  0.3877548E-003  0.6488406E+03  0.7818608E-02  0.9808957E-01
          1   -1    0    0  502    0  0.00000000000E+00  0.00000000000E+00  0.10524992892E+03  0.10524992892E+03  0.00000000000E+00 0.  1.
         13   -1    0    0    0    0 -0.00000000000E+00 -0.00000000000E+00 -0.10000000000E+04  0.10000000000E+04  0.00000000000E+00 0.  1.
    9000005    2    1    2  501    0 -0.46980869962E-03  0.66235155822E-03 -0.89475132083E+03  0.11052484385E+04  0.64884064663E+03 0.  0.
         13    1    3    3    0    0 -0.27640033260E+03  0.72825308818E+02 -0.18597977229E+03  0.34101194285E+03  0.00000000000E+00 0.  1.
          3    1    3    3  501    0  0.27639986279E+03 -0.72824646467E+02 -0.70877154854E+03  0.76423649567E+03  0.00000000000E+00 0.  1.
         21    1    1    2  502  501  0.46980869962E-03 -0.66235155822E-03  0.12497540367E-02  0.14904076467E-02  0.00000000000E+00 0.  1.
<mgrwt>
<rscale>  1 0.64884065E+03</rscale>
<asrwt>0</asrwt>
<pdfrwt beam="1">  1        1 0.38272782E+00 0.64884065E+03</pdfrwt>
<pdfrwt beam="2">0</pdfrwt>
<totfact> 0.15964293E+00</totfact>
</mgrwt>
</event>
<event>
 6    1  0.3877548E-003  0.6515574E+03  0.7818608E-02  0.9803861E-01
          1   -1    0    0  502    0  0.00000000000E+00  0.00000000000E+00  0.10614243762E+03  0.10614243762E+03  0.00000000000E+00 0.  1.
         13   -1    0    0    0    0 -0.00000000000E+00 -0.00000000000E+00 -0.10000000000E+04  0.10000000000E+04  0.00000000000E+00 0.  1.
    9000005    2    1    2  501    0 -0.56919165218E-02 -0.65077528407E-02 -0.89386625458E+03  0.11061301778E+04  0.65155743347E+03 0.  0.
         13    1    3    3    0    0 -0.13494854886E+03 -0.29481831583E+03 -0.39310604527E+03  0.50956973322E+03  0.00000000000E+00 0.  1.
          1    1    3    3  501    0  0.13494285694E+03  0.29481180808E+03 -0.50076020931E+03  0.59656044459E+03  0.00000000000E+00 0.  1.
         21    1    1    2  502  501  0.56919165218E-02  0.65077528407E-02  0.86921989736E-02  0.12259815811E-01  0.00000000000E+00 0.  1.
<mgrwt>
<rscale>  1 0.65155743E+03</rscale>
<asrwt>0</asrwt>
<pdfrwt beam="1">  1        1 0.38597331E+00 0.65155743E+03</pdfrwt>
<pdfrwt beam="2">0</pdfrwt>
<totfact> 0.15437645E+00</totfact>
</mgrwt>
</event>
<event>
 6    1  0.3877548E-003  0.6284865E+03  0.7818608E-02  0.9848007E-01
          1   -1    0    0  502    0  0.00000000000E+00  0.00000000000E+00  0.10130728310E+03  0.10130728310E+03  0.00000000000E+00 0.  1.
         13   -1    0    0    0    0 -0.00000000000E+00 -0.00000000000E+00 -0.10000000000E+04  0.10000000000E+04  0.00000000000E+00 0.  1.
    9000005    2    1    2  501    0  0.61249792959E+00 -0.28130475712E+00 -0.90120230696E+03  0.10987087588E+04  0.62848618473E+03 0.  0.
         13    1    3    3    0    0 -0.13219339808E+03 -0.27713052159E+03 -0.33372448466E+03  0.45348478712E+03  0.00000000000E+00 0.  1.
          3    1    3    3  501    0  0.13280589601E+03  0.27684921683E+03 -0.56747782230E+03  0.64522397172E+03  0.00000000000E+00 0.  1.
         21    1    1    2  502  501 -0.61249792959E+00  0.28130475712E+00  0.25095900601E+01  0.25985242638E+01  0.00000000000E+00 0.  1.
<mgrwt>
<rscale>  1 0.62848655E+03</rscale>
<asrwt>0</asrwt>
<pdfrwt beam="1">  1        1 0.36839090E+00 0.62848655E+03</pdfrwt>
<pdfrwt beam="2">0</pdfrwt>
<totfact> 0.18530807E+00</totfact>
</mgrwt>
</event>
<event>
 6    1  0.3877548E-003  0.6542534E+03  0.7818608E-02  0.9798831E-01
          1   -1    0    0  502    0  0.00000000000E+00  0.00000000000E+00  0.10898589184E+03  0.10898589184E+03  0.00000000000E+00 0.  1.
         13   -1    0    0    0    0 -0.00000000000E+00 -0.00000000000E+00 -0.10000000000E+04  0.10000000000E+04  0.00000000000E+00 0.  1.
    9000005    2    1    2  501    0 -0.50849964318E+01  0.21621819725E+01 -0.88685242014E+03  0.11020683875E+04  0.65423006911E+03 0.  0.
         13    1    3    3    0    0 -0.38355913864E+02 -0.29834505040E+03 -0.65597220157E+03  0.72165121386E+03  0.00000000000E+00 0.  1.
          3    1    3    3  501    0  0.33270917432E+02  0.30050723237E+03 -0.23088021856E+03  0.38041717361E+03  0.00000000000E+00 0.  1.
         21    1    1    2  502  501  0.50849964318E+01 -0.21621819725E+01 -0.41616880212E+01  0.69175043750E+01  0.00000000000E+00 0.  1.
<mgrwt>
<rscale>  1 0.65425340E+03</rscale>
<asrwt>0</asrwt>
<pdfrwt beam="1">  1        1 0.39631317E+00 0.65425340E+03</pdfrwt>
<pdfrwt beam="2">0</pdfrwt>
<totfact> 0.13883011E+00</totfact>
</mgrwt>
</event>
<event>
 6    1  0.3877548E-003  0.6605047E+03  0.7818608E-02  0.9787265E-01
          1   -1    0    0  502    0  0.00000000000E+00  0.00000000000E+00  0.10906735866E+03  0.10906735866E+03  0.00000000000E+00 0.  1.
         13   -1    0    0    0    0 -0.00000000000E+00 -0.00000000000E+00 -0.10000000000E+04  0.10000000000E+04  0.00000000000E+00 0.  1.
    9000005    2    1    2  501    0 -0.19406662226E-02 -0.18341407974E-03 -0.89093153994E+03  0.11090651197E+04  0.66050467893E+03 0.  0.
         13    1    3    3    0    0 -0.57807462169E+02  0.20260737015E+03 -0.18444020294E+02  0.21149853666E+03  0.00000000000E+00 0.  1.
          3    1    3    3  501    0  0.57805521502E+02 -0.20260755357E+03 -0.87248751964E+03  0.89756658305E+03  0.00000000000E+00 0.  1.
         21    1    1    2  502  501  0.19406662226E-02  0.18341407974E-03 -0.11014007476E-02  0.22389528175E-02  0.00000000000E+00 0. -1.
<mgrwt>
<rscale>  1 0.66050468E+03</rscale>
<asrwt>0</asrwt>
<pdfrwt beam="1">  1        1 0.39660941E+00 0.66050468E+03</pdfrwt>
<pdfrwt beam="2">0</pdfrwt>
<totfact> 0.13824751E+00</totfact>
</mgrwt>
</event>
<event>
 6    1  0.3877548E-003  0.6409378E+03  0.7818608E-02  0.9823934E-01
          1   -1    0    0  502    0  0.00000000000E+00  0.00000000000E+00  0.10274810483E+03  0.10274810483E+03  0.00000000000E+00 0.  1.
         13   -1    0    0    0    0 -0.00000000000E+00 -0.00000000000E+00 -0.10000000000E+04  0.10000000000E+04  0.00000000000E+00 0.  1.
    9000005    2    1    2  501    0 -0.36262731194E-02  0.47946385669E-01 -0.89728598047E+03  0.11026891658E+04  0.64093779982E+03 0.  0.
         13    1    3    3    0    0 -0.72944806237E+01 -0.25857445728E+03 -0.77401846283E+03  0.81609958964E+03  0.00000000000E+00 0.  1.
          1    1    3    3  501    0  0.72908543506E+01  0.25862240367E+03 -0.12326751763E+03  0.28658957612E+03  0.00000000000E+00 0.  1.
         21    1    1    2  502  501  0.36262731194E-02 -0.47946385669E-01  0.34085294885E-01  0.58939062453E-01  0.00000000000E+00 0. -1.
<mgrwt>
<rscale>  1 0.64093780E+03</rscale>
<asrwt>0</asrwt>
<pdfrwt beam="1">  1        1 0.37363026E+00 0.64093780E+03</pdfrwt>
<pdfrwt beam="2">0</pdfrwt>
<totfact> 0.17534185E+00</totfact>
</mgrwt>
</event>
<event>
 6    1  0.3877548E-003  0.6530207E+03  0.7818608E-02  0.9801128E-01
          1   -1    0    0  502    0  0.00000000000E+00  0.00000000000E+00  0.10682209694E+03  0.10682209694E+03  0.00000000000E+00 0.  1.
         13   -1    0    0    0    0 -0.00000000000E+00 -0.00000000000E+00 -0.10000000000E+04  0.10000000000E+04  0.00000000000E+00 0.  1.
    9000005    2    1    2  501    0  0.11474547665E+00 -0.13461667112E+00 -0.89334961182E+03  0.11065755770E+04  0.65302063325E+03 0.  0.
         13    1    3    3    0    0  0.40373606743E+02 -0.56432219648E+02  0.93981837453E+02  0.11682127078E+03  0.00000000000E+00 0.  1.
          1    1    3    3  501    0 -0.40258861267E+02  0.56297602977E+02 -0.98733144927E+03  0.98975430624E+03  0.00000000000E+00 0.  1.
         21    1    1    2  502  501 -0.11474547665E+00  0.13461667112E+00  0.17170875920E+00  0.24651991915E+00  0.00000000000E+00 0.  1.
<mgrwt>
<rscale>  1 0.65302066E+03</rscale>
<asrwt>0</asrwt>
<pdfrwt beam="1">  1        1 0.38844481E+00 0.65302066E+03</pdfrwt>
<pdfrwt beam="2">0</pdfrwt>
<totfact> 0.15049395E+00</totfact>
</mgrwt>
</event>
<event>
 6    1  0.3877548E-003  0.6564205E+03  0.7818608E-02  0.9794806E-01
          1   -1    0    0  502    0  0.00000000000E+00  0.00000000000E+00  0.10801707302E+03  0.10801707302E+03  0.00000000000E+00 0.  1.
         13   -1    0    0    0    0 -0.00000000000E+00 -0.00000000000E+00 -0.10000000000E+04  0.10000000000E+04  0.00000000000E+00 0.  1.
    9000005    2    1    2  501    0 -0.30554761277E+00  0.46777538321E+00 -0.88957874937E+03  0.11055488260E+04  0.65642024896E+03 0.  0.
         13    1    3    3    0    0  0.29597816643E+03 -0.13507375265E+03 -0.37461786434E+03  0.49617188346E+03  0.00000000000E+00 0.  1.
          3    1    3    3  501    0 -0.29628371404E+03  0.13554152803E+03 -0.51496088504E+03  0.60937694258E+03  0.00000000000E+00 0.  1.
         21    1    1    2  502  501  0.30554761277E+00 -0.46777538321E+00 -0.24041776108E+01  0.24682469765E+01  0.00000000000E+00 0.  1.
<mgrwt>
<rscale>  1 0.65642049E+03</rscale>
<asrwt>0</asrwt>
<pdfrwt beam="1">  1        1 0.39279018E+00 0.65642049E+03</pdfrwt>
<pdfrwt beam="2">0</pdfrwt>
<totfact> 0.14386929E+00</totfact>
</mgrwt>
</event>
<event>
 6    1  0.3877548E-003  0.6543614E+03  0.7818608E-02  0.9798630E-01
          1   -1    0    0  502    0  0.00000000000E+00  0.00000000000E+00  0.10718821261E+03  0.10718821261E+03  0.00000000000E+00 0.  1.
         13   -1    0    0    0    0 -0.00000000000E+00 -0.00000000000E+00 -0.10000000000E+04  0.10000000000E+04  0.00000000000E+00 0.  1.
    9000005    2    1    2  501    0 -0.38655620880E-02  0.43607407611E-03 -0.89295276978E+03  0.11070471766E+04  0.65436136962E+03 0.  0.
         13    1    3    3    0    0  0.73957844228E+01 -0.28811535457E+03 -0.18448276076E+03  0.34219737606E+03  0.00000000000E+00 0.  1.
          1    1    3    3  501    0 -0.73996499849E+01  0.28811579064E+03 -0.70847000902E+03  0.76484980050E+03  0.00000000000E+00 0.  1.
         21    1    1    2  502  501  0.38655620880E-02 -0.43607407608E-03  0.14098239505E+00  0.14103605371E+00  0.00000000000E+00 0. -1.
<mgrwt>
<rscale>  1 0.65436137E+03</rscale>
<asrwt>0</asrwt>
<pdfrwt beam="1">  1        1 0.38977614E+00 0.65436137E+03</pdfrwt>
<pdfrwt beam="2">0</pdfrwt>
<totfact> 0.14842594E+00</totfact>
</mgrwt>
</event>
<event>
 6    1  0.3877548E-003  0.6065049E+03  0.7818608E-02  0.9892002E-01
          1   -1    0    0  502    0  0.00000000000E+00  0.00000000000E+00  0.97689841833E+02  0.97689841833E+02  0.00000000000E+00 0.  1.
         13   -1    0    0    0    0 -0.00000000000E+00 -0.00000000000E+00 -0.10000000000E+04  0.10000000000E+04  0.00000000000E+00 0.  1.
    9000005    2    1    2  501    0 -0.70467238465E-01 -0.11082574487E+00 -0.90803713553E+03  0.10919613588E+04  0.60650486594E+03 0.  0.
         13    1    3    3    0    0  0.14134107552E+02 -0.62748141011E+02 -0.98760965330E+03  0.98970193972E+03  0.00000000000E+00 0.  1.
          1    1    3    3  501    0 -0.14204574791E+02  0.62637315266E+02  0.79572517776E+02  0.10225941910E+03  0.00000000000E+00 0.  1.
         21    1    1    2  502  501  0.70467238465E-01  0.11082574487E+00  0.57269773578E+01  0.57284830133E+01  0.00000000000E+00 0.  1.
<mgrwt>
<rscale>  1 0.60650488E+03</rscale>
<asrwt>0</asrwt>
<pdfrwt beam="1">  1        1 0.35523654E+00 0.60650488E+03</pdfrwt>
<pdfrwt beam="2">0</pdfrwt>
<totfact> 0.21242087E+00</totfact>
</mgrwt>
</event>
<event>
 6    1  0.3877548E-003  0.6470184E+03  0.7818608E-02  0.9812390E-01
          1   -1    0    0  502    0  0.00000000000E+00  0.00000000000E+00  0.10467152342E+03  0.10467152342E+03  0.00000000000E+00 0.  1.
         13   -1    0    0    0    0 -0.00000000000E+00 -0.00000000000E+00 -0.10000000000E+04  0.10000000000E+04  0.00000000000E+00 0.  1.
    9000005    2    1    2  501    0 -0.99375911718E-02 -0.52777902721E-02 -0.89533911642E+03  0.11046560374E+04  0.64701841353E+03 0.  0.
         13    1    3    3    0    0  0.37295575170E+02 -0.60591799061E+02 -0.98647369287E+03  0.98903623430E+03  0.00000000000E+00 0.  1.
          3    1    3    3  501    0 -0.37305512761E+02  0.60586521271E+02  0.91134576452E+02  0.11561980309E+03  0.00000000000E+00 0.  1.
         21    1    1    2  502  501  0.99375911718E-02  0.52777902721E-02  0.10639834325E-01  0.15486021533E-01  0.00000000000E+00 0. -1.
<mgrwt>
<rscale>  1 0.64701841E+03</rscale>
<asrwt>0</asrwt>
<pdfrwt beam="1">  1        1 0.38062452E+00 0.64701841E+03</pdfrwt>
<pdfrwt beam="2">0</pdfrwt>
<totfact> 0.16314857E+00</totfact>
</mgrwt>
</event>
<event>
 6    1  0.3877548E-003  0.6517318E+03  0.7818608E-02  0.9803535E-01
          1   -1    0    0  502    0  0.00000000000E+00  0.00000000000E+00  0.10622897637E+03  0.10622897637E+03  0.00000000000E+00 0.  1.
         13   -1    0    0    0    0 -0.00000000000E+00 -0.00000000000E+00 -0.10000000000E+04  0.10000000000E+04  0.00000000000E+00 0.  1.
    9000005    2    1    2  501    0 -0.14178737038E-01 -0.24196804003E-03 -0.89381001878E+03  0.11061874828E+04  0.65173184455E+03 0.  0.
         13    1    3    3    0    0  0.66620367068E+02  0.30914936968E+03 -0.58028956142E+03  0.66086880784E+03  0.00000000000E+00 0.  1.
          3    1    3    3  501    0 -0.66634545805E+02 -0.30914961165E+03 -0.31352045736E+03  0.44531867495E+03  0.00000000000E+00 0.  1.
         21    1    1    2  502  501  0.14178737038E-01  0.24196804004E-03  0.38995157688E-01  0.41493583307E-01  0.00000000000E+00 0. -1.
<mgrwt>
<rscale>  1 0.65173184E+03</rscale>
<asrwt>0</asrwt>
<pdfrwt beam="1">  1        1 0.38628800E+00 0.65173184E+03</pdfrwt>
<pdfrwt beam="2">0</pdfrwt>
<totfact> 0.15387721E+00</totfact>
</mgrwt>
</event>
<event>
 6    1  0.3877548E-003  0.4996344E+03  0.7818608E-02  0.1013874E+00
          1   -1    0    0  502    0  0.00000000000E+00  0.00000000000E+00  0.65879221217E+02  0.65879221217E+02  0.00000000000E+00 0.  1.
         13   -1    0    0    0    0 -0.00000000000E+00 -0.00000000000E+00 -0.10000000000E+04  0.10000000000E+04  0.00000000000E+00 0.  1.
    9000005    2    1    2  501    0  0.22898867903E+01 -0.47312370727E+01 -0.93539492776E+03  0.10604707426E+04  0.49960674211E+03 0.  0.
         13    1    3    3    0    0 -0.20636290824E+03  0.13315940654E+03 -0.39706384688E+03  0.46687983031E+03  0.00000000000E+00 0.  1.
          3    1    3    3  501    0  0.20865279503E+03 -0.13789064362E+03 -0.53833108088E+03  0.59359091225E+03  0.00000000000E+00 0.  1.
         21    1    1    2  502  501 -0.22898867903E+01  0.47312370727E+01  0.12741489789E+01  0.54084786559E+01  0.00000000000E+00 0.  1.
<mgrwt>
<rscale>  1 0.49963439E+03</rscale>
<asrwt>0</asrwt>
<pdfrwt beam="1">  1        1 0.23956131E+00 0.49963439E+03</pdfrwt>
<pdfrwt beam="2">0</pdfrwt>
<totfact> 0.68586108E+00</totfact>
</mgrwt>
</event>
<event>
 6    1  0.3877548E-003  0.6487939E+03  0.7818608E-02  0.9809045E-01
          1   -1    0    0  502    0  0.00000000000E+00  0.00000000000E+00  0.10523514932E+03  0.10523514932E+03  0.00000000000E+00 0.  1.
         13   -1    0    0    0    0 -0.00000000000E+00 -0.00000000000E+00 -0.10000000000E+04  0.10000000000E+04  0.00000000000E+00 0.  1.
    9000005    2    1    2  501    0  0.28463383794E-02  0.21174729301E-03 -0.89476525914E+03  0.11052322660E+04  0.64879387553E+03 0.  0.
         13    1    3    3    0    0  0.13039481578E+03 -0.28798112308E+03 -0.32339163052E+03  0.45223675428E+03  0.00000000000E+00 0.  1.
          1    1    3    3  501    0 -0.13039196944E+03  0.28798133482E+03 -0.57137362861E+03  0.65299551176E+03  0.00000000000E+00 0.  1.
         21    1    1    2  502  501 -0.28463383794E-02 -0.21174729303E-03  0.40845552679E-03  0.28832819848E-02  0.00000000000E+00 0.  1.
<mgrwt>
<rscale>  1 0.64879388E+03</rscale>
<asrwt>0</asrwt>
<pdfrwt beam="1">  1        1 0.38267408E+00 0.64879388E+03</pdfrwt>
<pdfrwt beam="2">0</pdfrwt>
<totfact> 0.15973162E+00</totfact>
</mgrwt>
</event>
<event>
 6    1  0.3877548E-003  0.6393169E+03  0.7818608E-02  0.9827034E-01
          1   -1    0    0  502    0  0.00000000000E+00  0.00000000000E+00  0.10218244167E+03  0.10218244167E+03  0.00000000000E+00 0.  1.
         13   -1    0    0    0    0 -0.00000000000E+00 -0.00000000000E+00 -0.10000000000E+04  0.10000000000E+04  0.00000000000E+00 0.  1.
    9000005    2    1    2  501    0 -0.68010949649E-03  0.25384648808E-03 -0.89781831135E+03  0.11021813957E+04  0.63931690799E+03 0.  0.
         13    1    3    3    0    0  0.11989298053E+03 -0.18187752984E+03 -0.45597720672E+02  0.22255991277E+03  0.00000000000E+00 0.  1.
          1    1    3    3  501    0 -0.11989366064E+03  0.18187778369E+03 -0.85222059068E+03  0.87962148294E+03  0.00000000000E+00 0.  1.
         21    1    1    2  502  501  0.68010949648E-03 -0.25384648807E-03  0.75302677187E-03  0.10459618950E-02  0.00000000000E+00 0. -1.
<mgrwt>
<rscale>  1 0.63931691E+03</rscale>
<asrwt>0</asrwt>
<pdfrwt beam="1">  1        1 0.37157330E+00 0.63931691E+03</pdfrwt>
<pdfrwt beam="2">0</pdfrwt>
<totfact> 0.17908472E+00</totfact>
</mgrwt>
</event>
<event>
 6    1  0.3877548E-003  0.6509649E+03  0.7818608E-02  0.9804970E-01
          1   -1    0    0  502    0  0.00000000000E+00  0.00000000000E+00  0.10594029395E+03  0.10594029395E+03  0.00000000000E+00 0.  1.
         13   -1    0    0    0    0 -0.00000000000E+00 -0.00000000000E+00 -0.10000000000E+04  0.10000000000E+04  0.00000000000E+00 0.  1.
    9000005    2    1    2  501    0 -0.11118188365E-03  0.81320760970E-04 -0.89406117119E+03  0.11059388224E+04  0.65096489995E+03 0.  0.
         13    1    3    3    0    0  0.32229502944E+03 -0.34090746260E+02 -0.39599148185E+03  0.51170843132E+03  0.00000000000E+00 0.  1.
          3    1    3    3  501    0 -0.32229514062E+03  0.34090827580E+02 -0.49806968933E+03  0.59423039103E+03  0.00000000000E+00 0.  1.
         21    1    1    2  502  501  0.11118188362E-03 -0.81320760971E-04  0.14651348926E-02  0.14715959809E-02  0.00000000000E+00 0.  1.
<mgrwt>
<rscale>  1 0.65096490E+03</rscale>
<asrwt>0</asrwt>
<pdfrwt beam="1">  1        1 0.38523824E+00 0.65096490E+03</pdfrwt>
<pdfrwt beam="2">0</pdfrwt>
<totfact> 0.15555393E+00</totfact>
</mgrwt>
</event>
<event>
 6    1  0.3877548E-003  0.6456995E+03  0.7818608E-02  0.9814882E-01
          1   -1    0    0  502    0  0.00000000000E+00  0.00000000000E+00  0.10427448464E+03  0.10427448464E+03  0.00000000000E+00 0.  1.
         13   -1    0    0    0    0 -0.00000000000E+00 -0.00000000000E+00 -0.10000000000E+04  0.10000000000E+04  0.00000000000E+00 0.  1.
    9000005    2    1    2  501    0  0.81192779058E-03 -0.93494674481E-03 -0.89576801701E+03  0.11042319650E+04  0.64569953705E+03 0.  0.
         13    1    3    3    0    0  0.23240811515E+03 -0.76102251244E+02 -0.80834206019E+03  0.84452470118E+03  0.00000000000E+00 0.  1.
          3    1    3    3  501    0 -0.23240730322E+03  0.76101316297E+02 -0.87425956815E+02  0.25970726378E+03  0.00000000000E+00 0.  1.
         21    1    1    2  502  501 -0.81192779059E-03  0.93494674482E-03  0.42501646812E-01  0.42519681723E-01  0.00000000000E+00 0. -1.
<mgrwt>
<rscale>  1 0.64569954E+03</rscale>
<asrwt>0</asrwt>
<pdfrwt beam="1">  1        1 0.37918074E+00 0.64569954E+03</pdfrwt>
<pdfrwt beam="2">0</pdfrwt>
<totfact> 0.16559932E+00</totfact>
</mgrwt>
</event>
<event>
 6    1  0.3877548E-003  0.6459807E+03  0.7818608E-02  0.9814351E-01
          3   -1    0    0  502    0  0.00000000000E+00  0.00000000000E+00  0.10645649156E+03  0.10645649156E+03  0.00000000000E+00 0.  1.
         13   -1    0    0    0    0 -0.00000000000E+00 -0.00000000000E+00 -0.10000000000E+04  0.10000000000E+04  0.00000000000E+00 0.  1.
    9000005    2    1    2  501    0 -0.16450568883E+01 -0.36978963192E+01 -0.89330842555E+03  0.11024023686E+04  0.64596800106E+03 0.  0.
         13    1    3    3    0    0  0.22131142017E+03  0.21500709209E+03 -0.59633470071E+03  0.67143269925E+03  0.00000000000E+00 0.  1.
          1    1    3    3  501    0 -0.22295647706E+03 -0.21870498841E+03 -0.29697372483E+03  0.43096966930E+03  0.00000000000E+00 0.  1.
         21    1    1    2  502  501  0.16450568883E+01  0.36978963192E+01 -0.23508289621E+00  0.40541230028E+01  0.00000000000E+00 0.  1.
<mgrwt>
<rscale>  1 0.64598068E+03</rscale>
<asrwt>0</asrwt>
<pdfrwt beam="1">  1        3 0.38711533E+00 0.64598068E+03</pdfrwt>
<pdfrwt beam="2">0</pdfrwt>
<totfact> 0.69276490E-02</totfact>
</mgrwt>
</event>
<event>
 6    1  0.3877548E-003  0.6654477E+03  0.7818608E-02  0.9778217E-01
          1   -1    0    0  502    0  0.00000000000E+00  0.00000000000E+00  0.11544714281E+03  0.11544714281E+03  0.00000000000E+00 0.  1.
         13   -1    0    0    0    0 -0.00000000000E+00 -0.00000000000E+00 -0.10000000000E+04  0.10000000000E+04  0.00000000000E+00 0.  1.
    9000005    2    1    2  501    0 -0.43835242665E-01 -0.32248540813E+00 -0.88928864145E+03  0.11107001890E+04  0.66544760575E+03 0.  0.
         13    1    3    3    0    0 -0.30520396265E+03 -0.11717403973E+03 -0.54867534922E+03  0.63868916794E+03  0.00000000000E+00 0.  1.
          1    1    3    3  501    0  0.30516012741E+03  0.11685155432E+03 -0.34061329223E+03  0.47201102101E+03  0.00000000000E+00 0.  1.
         21    1    1    2  502  501  0.43835242665E-01  0.32248540813E+00  0.47357842616E+01  0.47469538590E+01  0.00000000000E+00 0.  1.
<mgrwt>
<rscale>  1 0.66544769E+03</rscale>
<asrwt>0</asrwt>
<pdfrwt beam="1">  1        1 0.41980868E+00 0.66544769E+03</pdfrwt>
<pdfrwt beam="2">0</pdfrwt>
<totfact> 0.10871937E+00</totfact>
</mgrwt>
</event>
<event>
 6    1  0.3877548E-003  0.6503088E+03  0.7818608E-02  0.9806200E-01
          1   -1    0    0  502    0  0.00000000000E+00  0.00000000000E+00  0.10825360494E+03  0.10825360494E+03  0.00000000000E+00 0.  1.
         13   -1    0    0    0    0 -0.00000000000E+00 -0.00000000000E+00 -0.10000000000E+04  0.10000000000E+04  0.00000000000E+00 0.  1.
    9000005    2    1    2  501    0  0.39284588404E+01 -0.33072879265E+01 -0.89097846289E+03  0.11030612392E+04  0.65028847838E+03 0.  0.
         13    1    3    3    0    0  0.27289345543E+03  0.87269899112E+02 -0.71212373941E+03  0.76759826311E+03  0.00000000000E+00 0.  1.
          3    1    3    3  501    0 -0.26896499659E+03 -0.90577187039E+02 -0.17885472348E+03  0.33546297607E+03  0.00000000000E+00 0.  1.
         21    1    1    2  502  501 -0.39284588404E+01  0.33072879265E+01 -0.76793217284E+00  0.51923657529E+01  0.00000000000E+00 0. -1.
<mgrwt>
<rscale>  1 0.65030875E+03</rscale>
<asrwt>0</asrwt>
<pdfrwt beam="1">  1        1 0.39365030E+00 0.65030875E+03</pdfrwt>
<pdfrwt beam="2">0</pdfrwt>
<totfact> 0.14277227E+00</totfact>
</mgrwt>
</event>
<event>
 6    1  0.3877548E-003  0.6524015E+03  0.7818608E-02  0.9802283E-01
          1   -1    0    0  502    0  0.00000000000E+00  0.00000000000E+00  0.11452307287E+03  0.11452307287E+03  0.00000000000E+00 0.  1.
         13   -1    0    0    0    0 -0.00000000000E+00 -0.00000000000E+00 -0.10000000000E+04  0.10000000000E+04  0.00000000000E+00 0.  1.
    9000005    2    1    2  501    0  0.95482731359E+01  0.61117917979E+00 -0.89034716162E+03  0.11037870474E+04  0.65233138406E+03 0.  0.
         13    1    3    3    0    0  0.13562898901E+03  0.27177867331E+03 -0.23703408790E+03  0.38528434792E+03  0.00000000000E+00 0.  1.
          3    1    3    3  501    0 -0.12608071587E+03 -0.27116749413E+03 -0.65331307372E+03  0.71850269943E+03  0.00000000000E+00 0.  1.
         21    1    1    2  502  501 -0.95482731359E+01 -0.61117917979E+00  0.48702344931E+01  0.10736025516E+02  0.00000000000E+00 0. -1.
<mgrwt>
<rscale>  1 0.65240155E+03</rscale>
<asrwt>0</asrwt>
<pdfrwt beam="1">  1        1 0.41644842E+00 0.65240155E+03</pdfrwt>
<pdfrwt beam="2">0</pdfrwt>
<totfact> 0.11286302E+00</totfact>
</mgrwt>
</event>
<event>
 6    1  0.3877548E-003  0.6595702E+03  0.7818608E-02  0.9788985E-01
          1   -1    0    0  502    0  0.00000000000E+00  0.00000000000E+00  0.11480217516E+03  0.11480217516E+03  0.00000000000E+00 0.  1.
         13   -1    0    0    0    0 -0.00000000000E+00 -0.00000000000E+00 -0.10000000000E+04  0.10000000000E+04  0.00000000000E+00 0.  1.
    9000005    2    1    2  501    0 -0.65308017346E+00  0.36706249834E+00 -0.89121603805E+03  0.11087375120E+04  0.65956977102E+03 0.  0.
         13    1    3    3    0    0  0.23027473363E+01 -0.31972885167E+03 -0.57992016488E+03  0.66222295254E+03  0.00000000000E+00 0.  1.
          3    1    3    3  501    0 -0.29558275097E+01  0.32009591417E+03 -0.31129587317E+03  0.44651455949E+03  0.00000000000E+00 0.  1.
         21    1    1    2  502  501  0.65308017346E+00 -0.36706249834E+00  0.60182132121E+01  0.60646631281E+01  0.00000000000E+00 0. -1.
<mgrwt>
<rscale>  1 0.65957020E+03</rscale>
<asrwt>0</asrwt>
<pdfrwt beam="1">  1        1 0.41746334E+00 0.65957020E+03</pdfrwt>
<pdfrwt beam="2">0</pdfrwt>
<totfact> 0.11152572E+00</totfact>
</mgrwt>
</event>
<event>
 6    1  0.3877548E-003  0.6643259E+03  0.7818608E-02  0.9780263E-01
          1   -1    0    0  502    0  0.00000000000E+00  0.00000000000E+00  0.11033229649E+03  0.11033229649E+03  0.00000000000E+00 0.  1.
         13   -1    0    0    0    0 -0.00000000000E+00 -0.00000000000E+00 -0.10000000000E+04  0.10000000000E+04  0.00000000000E+00 0.  1.
    9000005    2    1    2  501    0 -0.86074078638E-04 -0.36148081108E-04 -0.88966772868E+03  0.11103321998E+04  0.66432591885E+03 0.  0.
         13    1    3    3    0    0  0.78312675321E+02 -0.30758417418E+03 -0.28114796000E+03  0.42401070120E+03  0.00000000000E+00 0.  1.
          1    1    3    3  501    0 -0.78312761395E+02  0.30758413803E+03 -0.60851976867E+03  0.68632149859E+03  0.00000000000E+00 0.  1.
         21    1    1    2  502  501  0.86074078643E-04  0.36148081096E-04  0.25162077591E-04  0.96687956488E-04  0.00000000000E+00 0. -1.
<mgrwt>
<rscale>  1 0.66432592E+03</rscale>
<asrwt>0</asrwt>
<pdfrwt beam="1">  1        1 0.40120920E+00 0.66432592E+03</pdfrwt>
<pdfrwt beam="2">0</pdfrwt>
<totfact> 0.13177949E+00</totfact>
</mgrwt>
</event>
<event>
 6    1  0.3877548E-003  0.6488436E+03  0.7818608E-02  0.9808952E-01
          1   -1    0    0  502    0  0.00000000000E+00  0.00000000000E+00  0.10524957245E+03  0.10524957245E+03  0.00000000000E+00 0.  1.
         13   -1    0    0    0    0 -0.00000000000E+00 -0.00000000000E+00 -0.10000000000E+04  0.10000000000E+04  0.00000000000E+00 0.  1.
    9000005    2    1    2  501    0 -0.44482689532E-04 -0.32187581553E-04 -0.89475049751E+03  0.11052494835E+04  0.64884356206E+03 0.  0.
         13    1    3    3    0    0 -0.30297015691E+03  0.11320371778E+03 -0.49058643644E+03  0.58760620259E+03  0.00000000000E+00 0.  1.
          3    1    3    3  501    0  0.30297011243E+03 -0.11320374997E+03 -0.40416406107E+03  0.51764328093E+03  0.00000000000E+00 0.  1.
         21    1    1    2  502  501  0.44482689503E-04  0.32187581556E-04  0.69957069975E-04  0.88931106545E-04  0.00000000000E+00 0. -1.
<mgrwt>
<rscale>  1 0.64884356E+03</rscale>
<asrwt>0</asrwt>
<pdfrwt beam="1">  1        1 0.38272653E+00 0.64884356E+03</pdfrwt>
<pdfrwt beam="2">0</pdfrwt>
<totfact> 0.15964495E+00</totfact>
</mgrwt>
</event>
<event>
 6    1  0.3877548E-003  0.6828553E+03  0.7818608E-02  0.9747010E-01
          1   -1    0    0  502    0  0.00000000000E+00  0.00000000000E+00  0.11657343566E+03  0.11657343566E+03  0.00000000000E+00 0.  1.
         13   -1    0    0    0    0 -0.00000000000E+00 -0.00000000000E+00 -0.10000000000E+04  0.10000000000E+04  0.00000000000E+00 0.  1.
    9000005    2    1    2  501    0  0.12416774484E-03 -0.59286832652E-04 -0.88342713678E+03  0.11165728469E+04  0.68285534082E+03 0.  0.
         13    1    3    3    0    0 -0.11644812663E+03 -0.23972441879E+03 -0.79067560546E+03  0.83438353066E+03  0.00000000000E+00 0.  1.
          1    1    3    3  501    0  0.11644825079E+03  0.23972435950E+03 -0.92751531313E+02  0.28218931626E+03  0.00000000000E+00 0.  1.
         21    1    1    2  502  501 -0.12416774485E-03  0.59286832640E-04  0.57243399109E-03  0.58873867848E-03  0.00000000000E+00 0.  1.
<mgrwt>
<rscale>  1 0.68285534E+03</rscale>
<asrwt>0</asrwt>
<pdfrwt beam="1">  1        1 0.42390430E+00 0.68285534E+03</pdfrwt>
<pdfrwt beam="2">0</pdfrwt>
<totfact> 0.10383547E+00</totfact>
</mgrwt>
</event>
<event>
 6    1  0.3877548E-003  0.6439312E+03  0.7818608E-02  0.9818234E-01
          1   -1    0    0  502    0  0.00000000000E+00  0.00000000000E+00  0.10371826644E+03  0.10371826644E+03  0.00000000000E+00 0.  1.
         13   -1    0    0    0    0 -0.00000000000E+00 -0.00000000000E+00 -0.10000000000E+04  0.10000000000E+04  0.00000000000E+00 0.  1.
    9000005    2    1    2  501    0 -0.14310325550E-01 -0.14403627235E-02 -0.89633714038E+03  0.11036610233E+04  0.64393119582E+03 0.  0.
         13    1    3    3    0    0  0.82473673435E+02 -0.22085970153E+03 -0.72347662519E+02  0.24660717517E+03  0.00000000000E+00 0.  1.
          3    1    3    3  501    0 -0.82487983761E+02  0.22085826117E+03 -0.82398947786E+03  0.85705384814E+03  0.00000000000E+00 0.  1.
         21    1    1    2  502  501  0.14310325550E-01  0.14403627235E-02  0.55406825082E-01  0.57243133456E-01  0.00000000000E+00 0.  1.
<mgrwt>
<rscale>  1 0.64393120E+03</rscale>
<asrwt>0</asrwt>
<pdfrwt beam="1">  1        1 0.37715813E+00 0.64393120E+03</pdfrwt>
<pdfrwt beam="2">0</pdfrwt>
<totfact> 0.16908919E+00</totfact>
</mgrwt>
</event>
<event>
 6    1  0.3877548E-003  0.6398623E+03  0.7818608E-02  0.9825990E-01
          1   -1    0    0  502    0  0.00000000000E+00  0.00000000000E+00  0.10249552046E+03  0.10249552046E+03  0.00000000000E+00 0.  1.
         13   -1    0    0    0    0 -0.00000000000E+00 -0.00000000000E+00 -0.10000000000E+04  0.10000000000E+04  0.00000000000E+00 0.  1.
    9000005    2    1    2  501    0 -0.92598917142E-01  0.35841829104E-01 -0.89762435088E+03  0.11023398659E+04  0.63986224679E+03 0.  0.
         13    1    3    3    0    0 -0.19849259753E+03 -0.24005806789E+03 -0.32295871887E+03  0.44869758338E+03  0.00000000000E+00 0.  1.
          1    1    3    3  501    0  0.19839999861E+03  0.24009390972E+03 -0.57466563201E+03  0.65364228255E+03  0.00000000000E+00 0.  1.
         21    1    1    2  502  501  0.92598917142E-01 -0.35841829104E-01  0.11987133596E+00  0.15565453207E+00  0.00000000000E+00 0.  1.
<mgrwt>
<rscale>  1 0.63986225E+03</rscale>
<asrwt>0</asrwt>
<pdfrwt beam="1">  1        1 0.37271177E+00 0.63986225E+03</pdfrwt>
<pdfrwt beam="2">0</pdfrwt>
<totfact> 0.17701519E+00</totfact>
</mgrwt>
</event>
<event>
 6    1  0.4392847E-003  0.6712427E+03  0.7818608E-02  0.9767716E-01
          1   -1    0    0  502    0  0.00000000000E+00  0.00000000000E+00  0.11264168458E+03  0.11264168458E+03  0.00000000000E+00 0.  1.
         13   -1    0    0    0    0 -0.00000000000E+00 -0.00000000000E+00 -0.10000000000E+04  0.10000000000E+04  0.00000000000E+00 0.  1.
    9000005    2    1    2  501    0  0.21314256173E-05  0.99679144228E-05 -0.88735830161E+03  0.11126416674E+04  0.67124267194E+03 0.  0.
         13    1    3    3    0    0  0.13483340444E+03 -0.25412385890E+03 -0.73021940787E+03  0.78484352979E+03  0.00000000000E+00 0.  1.
          3    1    3    3  501    0 -0.13483340231E+03  0.25412386887E+03 -0.15713889373E+03  0.32779813763E+03  0.00000000000E+00 0.  1.
         21    1    1    2  502  501 -0.21314255937E-05 -0.99679144429E-05 -0.13809765162E-04  0.17164262502E-04  0.00000000000E+00 0.  1.
<mgrwt>
<rscale>  1 0.67124267E+03</rscale>
<asrwt>0</asrwt>
<pdfrwt beam="1">  1        1 0.40960699E+00 0.67124267E+03</pdfrwt>
<pdfrwt beam="2">0</pdfrwt>
<totfact> 0.12070232E+00</totfact>
</mgrwt>
</event>
<event>
 6    1  0.3877548E-003  0.6451946E+03  0.7818608E-02  0.9815838E-01
          1   -1    0    0  502    0  0.00000000000E+00  0.00000000000E+00  0.10406900798E+03  0.10406900798E+03  0.00000000000E+00 0.  1.
         13   -1    0    0    0    0 -0.00000000000E+00 -0.00000000000E+00 -0.10000000000E+04  0.10000000000E+04  0.00000000000E+00 0.  1.
    9000005    2    1    2  501    0  0.41911675908E-06 -0.25342677787E-05 -0.89593099028E+03  0.11040690049E+04  0.64519456614E+03 0.  0.
         13    1    3    3    0    0  0.66255688814E+02  0.36066478674E+02  0.88763916006E+02  0.11648879761E+03  0.00000000000E+00 0.  1.
          3    1    3    3  501    0 -0.66255688395E+02 -0.36066481208E+02 -0.98469490628E+03  0.98758020726E+03  0.00000000000E+00 0.  1.
         21    1    1    2  502  501 -0.41911676602E-06  0.25342677782E-05 -0.17465058985E-05  0.31061962090E-05  0.00000000000E+00 0.  1.
<mgrwt>
<rscale>  1 0.64519457E+03</rscale>
<asrwt>0</asrwt>
<pdfrwt beam="1">  1        1 0.37843355E+00 0.64519457E+03</pdfrwt>
<pdfrwt beam="2">0</pdfrwt>
<totfact> 0.16687593E+00</totfact>
</mgrwt>
</event>
<event>
 6    1  0.3877548E-003  0.6156683E+03  0.7818608E-02  0.9873422E-01
          1   -1    0    0  502    0  0.00000000000E+00  0.00000000000E+00  0.95111981723E+02  0.95111981723E+02  0.00000000000E+00 0.  1.
         13   -1    0    0    0    0 -0.00000000000E+00 -0.00000000000E+00 -0.10000000000E+04  0.10000000000E+04  0.00000000000E+00 0.  1.
    9000005    2    1    2  501    0  0.55816366690E-01 -0.51149335491E-02 -0.90523568536E+03  0.10947598255E+04  0.61566827616E+03 0.  0.
         13    1    3    3    0    0 -0.76719608901E+02  0.25549959513E+03 -0.72571539442E+03  0.77319387944E+03  0.00000000000E+00 0.  1.
          1    1    3    3  501    0  0.76775425268E+02 -0.25550471006E+03 -0.17952029094E+03  0.32156594603E+03  0.00000000000E+00 0.  1.
         21    1    1    2  502  501 -0.55816366690E-01  0.51149335491E-02  0.34766708102E+00  0.35215625588E+00  0.00000000000E+00 0.  1.
<mgrwt>
<rscale>  1 0.61566828E+03</rscale>
<asrwt>0</asrwt>
<pdfrwt beam="1">  1        1 0.34586248E+00 0.61566828E+03</pdfrwt>
<pdfrwt beam="2">0</pdfrwt>
<totfact> 0.23297747E+00</totfact>
</mgrwt>
</event>
<event>
 6    1  0.3877548E-003  0.6423554E+03  0.7818608E-02  0.9821230E-01
          1   -1    0    0  502    0  0.00000000000E+00  0.00000000000E+00  0.10315514407E+03  0.10315514407E+03  0.00000000000E+00 0.  1.
         13   -1    0    0    0    0 -0.00000000000E+00 -0.00000000000E+00 -0.10000000000E+04  0.10000000000E+04  0.00000000000E+00 0.  1.
    9000005    2    1    2  501    0 -0.30028075031E-05  0.74918689279E-05 -0.89684487371E+03  0.11031551245E+04  0.64235543223E+03 0.  0.
         13    1    3    3    0    0  0.90924051928E+02  0.30694136850E+03 -0.40380610445E+03  0.51530530456E+03  0.00000000000E+00 0.  1.
          3    1    3    3  501    0 -0.90924054931E+02 -0.30694136101E+03 -0.49303876926E+03  0.58784981998E+03  0.00000000000E+00 0.  1.
         21    1    1    2  502  501  0.30028075025E-05 -0.74918689451E-05  0.17782999710E-04  0.19528953681E-04  0.00000000000E+00 0. -1.
<mgrwt>
<rscale>  1 0.64235543E+03</rscale>
<asrwt>0</asrwt>
<pdfrwt beam="1">  1        1 0.37511041E+00 0.64235543E+03</pdfrwt>
<pdfrwt beam="2">0</pdfrwt>
<totfact> 0.17268697E+00</totfact>
</mgrwt>
</event>
<event>
 6    1  0.3877548E-003  0.5890732E+03  0.7818608E-02  0.9928339E-01
          1   -1    0    0  502    0  0.00000000000E+00  0.00000000000E+00  0.86752489842E+02  0.86752489842E+02  0.00000000000E+00 0.  1.
         13   -1    0    0    0    0 -0.00000000000E+00 -0.00000000000E+00 -0.10000000000E+04  0.10000000000E+04  0.00000000000E+00 0.  1.
    9000005    2    1    2  501    0 -0.66949162400E-03 -0.30713501621E-03 -0.91324796054E+03  0.10867516265E+04  0.58907322144E+03 0.  0.
         13    1    3    3    0    0 -0.21324716807E+03 -0.13302284040E+03 -0.17331794636E+03  0.30530073909E+03  0.00000000000E+00 0.  1.
          3    1    3    3  501    0  0.21324649858E+03  0.13302253327E+03 -0.73993001419E+03  0.78145088739E+03  0.00000000000E+00 0.  1.
         21    1    1    2  502  501  0.66949162399E-03  0.30713501621E-03  0.45038516397E-03  0.86336420397E-03  0.00000000000E+00 0.  1.
<mgrwt>
<rscale>  1 0.58907322E+03</rscale>
<asrwt>0</asrwt>
<pdfrwt beam="1">  1        1 0.31546426E+00 0.58907322E+03</pdfrwt>
<pdfrwt beam="2">0</pdfrwt>
<totfact> 0.31702710E+00</totfact>
</mgrwt>
</event>
<event>
 6    1  0.3877548E-003  0.6546577E+03  0.7818608E-02  0.9798078E-01
          1   -1    0    0  502    0  0.00000000000E+00  0.00000000000E+00  0.13017942626E+03  0.13017942626E+03  0.00000000000E+00 0.  1.
         13   -1    0    0    0    0 -0.00000000000E+00 -0.00000000000E+00 -0.10000000000E+04  0.10000000000E+04  0.00000000000E+00 0.  1.
    9000005    2    1    2  501    0 -0.45365144569E+02 -0.12772514230E+02 -0.86198695849E+03  0.10824039201E+04  0.65295910757E+03 0.  0.
         13    1    3    3    0    0 -0.26796456357E+03 -0.82436238725E+02 -0.12060838943E+03  0.30520013825E+03  0.00000000000E+00 0.  1.
          1    1    3    3  501    0  0.22259941900E+03  0.69663724495E+02 -0.74137856905E+03  0.77720378184E+03  0.00000000000E+00 0.  1.
         21    1    1    2  502  501  0.45365144569E+02  0.12772514230E+02 -0.78336152579E+01  0.47775506167E+02  0.00000000000E+00 0. -1.
<mgrwt>
<rscale>  1 0.65465772E+03</rscale>
<asrwt>0</asrwt>
<pdfrwt beam="1">  1        1 0.47338073E+00 0.65465772E+03</pdfrwt>
<pdfrwt beam="2">0</pdfrwt>
<totfact> 0.61798070E-01</totfact>
</mgrwt>
</event>
<event>
 6    1  0.3877548E-003  0.6415215E+03  0.7818608E-02  0.9822820E-01
          1   -1    0    0  502    0  0.00000000000E+00  0.00000000000E+00  0.10291328713E+03  0.10291328713E+03  0.00000000000E+00 0.  1.
         13   -1    0    0    0    0 -0.00000000000E+00 -0.00000000000E+00 -0.10000000000E+04  0.10000000000E+04  0.00000000000E+00 0.  1.
    9000005    2    1    2  501    0  0.16578187950E-01  0.12405166006E-01 -0.89710787014E+03  0.11028836838E+04  0.64152154212E+03 0.  0.
         13    1    3    3    0    0 -0.12549572260E+03  0.28959997027E+03 -0.35022341695E+03  0.47145918270E+03  0.00000000000E+00 0.  1.
          3    1    3    3  501    0  0.12551230078E+03 -0.28958756510E+03 -0.54688445319E+03  0.63142450115E+03  0.00000000000E+00 0.  1.
         21    1    1    2  502  501 -0.16578187950E-01 -0.12405166006E-01  0.21157262286E-01  0.29603280338E-01  0.00000000000E+00 0. -1.
<mgrwt>
<rscale>  1 0.64152154E+03</rscale>
<asrwt>0</asrwt>
<pdfrwt beam="1">  1        1 0.37423092E+00 0.64152154E+03</pdfrwt>
<pdfrwt beam="2">0</pdfrwt>
<totfact> 0.17425953E+00</totfact>
</mgrwt>
</event>
<event>
 6    1  0.3877548E-003  0.6506881E+03  0.7818608E-02  0.9805489E-01
          1   -1    0    0  502    0  0.00000000000E+00  0.00000000000E+00  0.11274825972E+03  0.11274825972E+03  0.00000000000E+00 0.  1.
         13   -1    0    0    0    0 -0.00000000000E+00 -0.00000000000E+00 -0.10000000000E+04  0.10000000000E+04  0.00000000000E+00 0.  1.
    9000005    2    1    2  501    0  0.32240611804E+00  0.10535878396E+01 -0.89410257524E+03  0.11058093886E+04  0.65068715589E+03 0.  0.
         13    1    3    3    0    0 -0.28273162539E+03  0.14311985655E+03 -0.57306485225E+03  0.65484638674E+03  0.00000000000E+00 0.  1.
          3    1    3    3  501    0  0.28305403151E+03 -0.14206626871E+03 -0.32103772298E+03  0.45096300185E+03  0.00000000000E+00 0.  1.
         21    1    1    2  502  501 -0.32240611804E+00 -0.10535878396E+01  0.68508349525E+01  0.69388711321E+01  0.00000000000E+00 0.  1.
<mgrwt>
<rscale>  1 0.65068809E+03</rscale>
<asrwt>0</asrwt>
<pdfrwt beam="1">  1        1 0.40999454E+00 0.65068809E+03</pdfrwt>
<pdfrwt beam="2">0</pdfrwt>
<totfact> 0.12069356E+00</totfact>
</mgrwt>
</event>
<event>
 6    1  0.3877548E-003  0.5111904E+03  0.7818608E-02  0.1010899E+00
          1   -1    0    0  502    0  0.00000000000E+00  0.00000000000E+00  0.65358152172E+02  0.65358152172E+02  0.00000000000E+00 0.  1.
         13   -1    0    0    0    0 -0.00000000000E+00 -0.00000000000E+00 -0.10000000000E+04  0.10000000000E+04  0.00000000000E+00 0.  1.
    9000005    2    1    2  501    0 -0.40101899912E-02  0.19437046881E-02 -0.93467090959E+03  0.10653287507E+04  0.51119041250E+03 0.  0.
         13    1    3    3    0    0  0.30542857734E+02  0.94778252460E+02 -0.95791305124E+03  0.96307486575E+03  0.00000000000E+00 0.  1.
          3    1    3    3  501    0 -0.30546867924E+02 -0.94776308756E+02  0.23242141651E+02  0.10225388496E+03  0.00000000000E+00 0.  1.
         21    1    1    2  502  501  0.40101899912E-02 -0.19437046881E-02  0.29061764835E-01  0.29401458926E-01  0.00000000000E+00 0. -1.
<mgrwt>
<rscale>  1 0.51119041E+03</rscale>
<asrwt>0</asrwt>
<pdfrwt beam="1">  1        1 0.23766651E+00 0.51119041E+03</pdfrwt>
<pdfrwt beam="2">0</pdfrwt>
<totfact> 0.69776062E+00</totfact>
</mgrwt>
</event>
<event>
 6    1  0.3877548E-003  0.6091770E+03  0.7818608E-02  0.9886548E-01
          3   -1    0    0  502    0  0.00000000000E+00  0.00000000000E+00  0.95507964290E+02  0.95507964290E+02  0.00000000000E+00 0.  1.
         13   -1    0    0    0    0 -0.00000000000E+00 -0.00000000000E+00 -0.10000000000E+04  0.10000000000E+04  0.00000000000E+00 0.  1.
    9000005    2    1    2  501    0 -0.53641375541E-01  0.91906703311E-01 -0.90722471303E+03  0.10927732158E+04  0.60917699382E+03 0.  0.
         13    1    3    3    0    0 -0.25170341560E+03  0.47449661169E+02 -0.74942910671E+03  0.79199120308E+03  0.00000000000E+00 0.  1.
          3    1    3    3  501    0  0.25164977422E+03 -0.47357754466E+02 -0.15779560632E+03  0.30078201268E+03  0.00000000000E+00 0.  1.
         21    1    1    2  502  501  0.53641375541E-01 -0.91906703311E-01  0.27326773203E+01  0.27347485399E+01  0.00000000000E+00 0. -1.
<mgrwt>
<rscale>  1 0.60917700E+03</rscale>
<asrwt>0</asrwt>
<pdfrwt beam="1">  1        3 0.34730242E+00 0.60917700E+03</pdfrwt>
<pdfrwt beam="2">0</pdfrwt>
<totfact> 0.11329318E-01</totfact>
</mgrwt>
</event>
<event>
 6    1  0.3877548E-003  0.6667451E+03  0.7818608E-02  0.9775856E-01
          1   -1    0    0  502    0  0.00000000000E+00  0.00000000000E+00  0.11135377805E+03  0.11135377805E+03  0.00000000000E+00 0.  1.
         13   -1    0    0    0    0 -0.00000000000E+00 -0.00000000000E+00 -0.10000000000E+04  0.10000000000E+04  0.00000000000E+00 0.  1.
    9000005    2    1    2  501    0 -0.19441141754E-03 -0.32145829320E-01 -0.88886142644E+03  0.11111361859E+04  0.66674506903E+03 0.  0.
         13    1    3    3    0    0 -0.24970416877E+03 -0.19588042288E+03 -0.61457651091E+03  0.69168316426E+03  0.00000000000E+00 0.  1.
          3    1    3    3  501    0  0.24970397436E+03  0.19584827705E+03 -0.27428491553E+03  0.41945302159E+03  0.00000000000E+00 0.  1.
         21    1    1    2  502  501  0.19441141756E-03  0.32145829320E-01  0.21520448790E+00  0.21759219598E+00  0.00000000000E+00 0.  1.
<mgrwt>
<rscale>  1 0.66674507E+03</rscale>
<asrwt>0</asrwt>
<pdfrwt beam="1">  1        1 0.40492368E+00 0.66674507E+03</pdfrwt>
<pdfrwt beam="2">0</pdfrwt>
<totfact> 0.12678188E+00</totfact>
</mgrwt>
</event>
<event>
 6    1  0.3877548E-003  0.6254476E+03  0.7818608E-02  0.9853973E-01
          1   -1    0    0  502    0  0.00000000000E+00  0.00000000000E+00  0.97798665239E+02  0.97798665239E+02  0.00000000000E+00 0.  1.
         13   -1    0    0    0    0 -0.00000000000E+00 -0.00000000000E+00 -0.10000000000E+04  0.10000000000E+04  0.00000000000E+00 0.  1.
    9000005    2    1    2  501    0  0.76876873984E-03  0.66775076021E-04 -0.90220375164E+03  0.10977961282E+04  0.62544762334E+03 0.  0.
         13    1    3    3    0    0 -0.55505380801E+02  0.17192056083E+03 -0.30618925873E+01  0.18068453648E+03  0.00000000000E+00 0.  1.
          1    1    3    3  501    0  0.55506149570E+02 -0.17192049406E+03 -0.89914185905E+03  0.91711159169E+03  0.00000000000E+00 0.  1.
         21    1    1    2  502  501 -0.76876873984E-03 -0.66775076017E-04  0.24168738542E-02  0.25370738092E-02  0.00000000000E+00 0.  1.
<mgrwt>
<rscale>  1 0.62544762E+03</rscale>
<asrwt>0</asrwt>
<pdfrwt beam="1">  1        1 0.35563226E+00 0.62544762E+03</pdfrwt>
<pdfrwt beam="2">0</pdfrwt>
<totfact> 0.21084921E+00</totfact>
</mgrwt>
</event>
<event>
 6    1  0.3877548E-003  0.6614552E+03  0.7818608E-02  0.9785519E-01
          1   -1    0    0  502    0  0.00000000000E+00  0.00000000000E+00  0.12633541057E+03  0.12633541057E+03  0.00000000000E+00 0.  1.
         13   -1    0    0    0    0 -0.00000000000E+00 -0.00000000000E+00 -0.10000000000E+04  0.10000000000E+04  0.00000000000E+00 0.  1.
    9000005    2    1    2  501    0 -0.23921531029E+00  0.40599886422E+00 -0.89061562294E+03  0.11093778283E+04  0.66145502950E+03 0.  0.
         13    1    3    3    0    0 -0.26413215717E+03 -0.16254742638E+03 -0.63792453687E+03  0.70932022177E+03  0.00000000000E+00 0.  1.
          1    1    3    3  501    0  0.26389294186E+03  0.16295342525E+03 -0.25269108608E+03  0.40005760654E+03  0.00000000000E+00 0.  1.
         21    1    1    2  502  501  0.23921531029E+00 -0.40599886422E+00  0.16951033515E+02  0.16957582265E+02  0.00000000000E+00 0. -1.
<mgrwt>
<rscale>  1 0.66145520E+03</rscale>
<asrwt>0</asrwt>
<pdfrwt beam="1">  1        1 0.45940246E+00 0.66145520E+03</pdfrwt>
<pdfrwt beam="2">0</pdfrwt>
<totfact> 0.71709939E-01</totfact>
</mgrwt>
</event>
<event>
 6    1  0.3877548E-003  0.6515406E+03  0.7818608E-02  0.9803893E-01
          1   -1    0    0  502    0  0.00000000000E+00  0.00000000000E+00  0.10613127957E+03  0.10613127957E+03  0.00000000000E+00 0.  1.
         13   -1    0    0    0    0 -0.00000000000E+00 -0.00000000000E+00 -0.10000000000E+04  0.10000000000E+04  0.00000000000E+00 0.  1.
    9000005    2    1    2  501    0 -0.81269647242E-03 -0.19205612577E-02 -0.89387346190E+03  0.11061260997E+04  0.65154062241E+03 0.  0.
         13    1    3    3    0    0  0.79369786171E+02 -0.29913170130E+03 -0.27424263649E+03  0.41350738971E+03  0.00000000000E+00 0.  1.
          3    1    3    3  501    0 -0.79370598868E+02  0.29912978074E+03 -0.61963082541E+03  0.69261871003E+03  0.00000000000E+00 0.  1.
         21    1    1    2  502  501  0.81269647242E-03  0.19205612577E-02  0.47414690763E-02  0.51798224007E-02  0.00000000000E+00 0.  1.
<mgrwt>
<rscale>  1 0.65154062E+03</rscale>
<asrwt>0</asrwt>
<pdfrwt beam="1">  1        1 0.38593274E+00 0.65154062E+03</pdfrwt>
<pdfrwt beam="2">0</pdfrwt>
<totfact> 0.15444077E+00</totfact>
</mgrwt>
</event>
<event>
 6    1  0.3877548E-003  0.6460931E+03  0.7818608E-02  0.9814138E-01
          1   -1    0    0  502    0  0.00000000000E+00  0.00000000000E+00  0.10436563764E+03  0.10436563764E+03  0.00000000000E+00 0.  1.
         13   -1    0    0    0    0 -0.00000000000E+00 -0.00000000000E+00 -0.10000000000E+04  0.10000000000E+04  0.00000000000E+00 0.  1.
    9000005    2    1    2  501    0 -0.66142736057E-02  0.53068533602E-02 -0.89563774480E+03  0.11043565079E+04  0.64609312531E+03 0.  0.
         13    1    3    3    0    0  0.15717882913E+03 -0.88532954808E+02 -0.90587276820E+03  0.92366051154E+03  0.00000000000E+00 0.  1.
          3    1    3    3  501    0 -0.15718544341E+03  0.88538261661E+02  0.10235023403E+02  0.18069599636E+03  0.00000000000E+00 0.  1.
         21    1    1    2  502  501  0.66142736057E-02 -0.53068533602E-02  0.33824381803E-02  0.91297423820E-02  0.00000000000E+00 0. -1.
<mgrwt>
<rscale>  1 0.64609313E+03</rscale>
<asrwt>0</asrwt>
<pdfrwt beam="1">  1        1 0.37951221E+00 0.64609313E+03</pdfrwt>
<pdfrwt beam="2">0</pdfrwt>
<totfact> 0.16503084E+00</totfact>
</mgrwt>
</event>
<event>
 6    1  0.3877548E-003  0.6284525E+03  0.7818608E-02  0.9848073E-01
          1   -1    0    0  502    0  0.00000000000E+00  0.00000000000E+00  0.98738304145E+02  0.98738304145E+02  0.00000000000E+00 0.  1.
         13   -1    0    0    0    0 -0.00000000000E+00 -0.00000000000E+00 -0.10000000000E+04  0.10000000000E+04  0.00000000000E+00 0.  1.
    9000005    2    1    2  501    0  0.61079148310E-04 -0.78306179034E-04 -0.90126183973E+03  0.10987381293E+04  0.62845252252E+03 0.  0.
         13    1    3    3    0    0 -0.25595886502E+03  0.66251992174E+02 -0.15375624603E+03  0.30585168013E+03  0.00000000000E+00 0.  1.
          3    1    3    3  501    0  0.25595892609E+03 -0.66252070481E+02 -0.74750559370E+03  0.79288644919E+03  0.00000000000E+00 0.  1.
         21    1    1    2  502  501 -0.61079148295E-04  0.78306179047E-04  0.14387771405E-03  0.17482367298E-03  0.00000000000E+00 0.  1.
<mgrwt>
<rscale>  1 0.62845252E+03</rscale>
<asrwt>0</asrwt>
<pdfrwt beam="1">  1        1 0.35904914E+00 0.62845252E+03</pdfrwt>
<pdfrwt beam="2">0</pdfrwt>
<totfact> 0.20361451E+00</totfact>
</mgrwt>
</event>
<event>
 6    1  0.3877548E-003  0.6516811E+03  0.7818608E-02  0.9803630E-01
          1   -1    0    0  502    0  0.00000000000E+00  0.00000000000E+00  0.10617225341E+03  0.10617225341E+03  0.00000000000E+00 0.  1.
         13   -1    0    0    0    0 -0.00000000000E+00 -0.00000000000E+00 -0.10000000000E+04  0.10000000000E+04  0.00000000000E+00 0.  1.
    9000005    2    1    2  501    0 -0.13488844189E-04  0.15616148168E-04 -0.89382793445E+03  0.11061720644E+04  0.65168110276E+03 0.  0.
         13    1    3    3    0    0  0.22774078935E+03  0.26181193951E+02 -0.83996953728E+03  0.87068946565E+03  0.00000000000E+00 0.  1.
          3    1    3    3  501    0 -0.22774080284E+03 -0.26181178334E+02 -0.53858397174E+02  0.23548259877E+03  0.00000000000E+00 0.  1.
         21    1    1    2  502  501  0.13488844177E-04 -0.15616148171E-04  0.18786445311E-03  0.18899435373E-03  0.00000000000E+00 0.  1.
<mgrwt>
<rscale>  1 0.65168110E+03</rscale>
<asrwt>0</asrwt>
<pdfrwt beam="1">  1        1 0.38608174E+00 0.65168110E+03</pdfrwt>
<pdfrwt beam="2">0</pdfrwt>
<totfact> 0.15420245E+00</totfact>
</mgrwt>
</event>
<event>
 6    1  0.3877548E-003  0.6557048E+03  0.7818608E-02  0.9796133E-01
          1   -1    0    0  502    0  0.00000000000E+00  0.00000000000E+00  0.10809785022E+03  0.10809785022E+03  0.00000000000E+00 0.  1.
         13   -1    0    0    0    0 -0.00000000000E+00 -0.00000000000E+00 -0.10000000000E+04  0.10000000000E+04  0.00000000000E+00 0.  1.
    9000005    2    1    2  501    0  0.14143084344E-01 -0.67911637490E-02 -0.89251269775E+03  0.11074871007E+04  0.65570478291E+03 0.  0.
         13    1    3    3    0    0 -0.27976667642E+03 -0.16839953197E+03 -0.49568325613E+03  0.59357365676E+03  0.00000000000E+00 0.  1.
          3    1    3    3  501    0  0.27978081950E+03  0.16839274080E+03 -0.39682944163E+03  0.51391344394E+03  0.00000000000E+00 0.  1.
         21    1    1    2  502  501 -0.14143084344E-01  0.67911637490E-02  0.61054797537E+00  0.61074952064E+00  0.00000000000E+00 0. -1.
<mgrwt>
<rscale>  1 0.65570478E+03</rscale>
<asrwt>0</asrwt>
<pdfrwt beam="1">  1        1 0.39308392E+00 0.65570478E+03</pdfrwt>
<pdfrwt beam="2">0</pdfrwt>
<totfact> 0.14345686E+00</totfact>
</mgrwt>
</event>
<event>
 6    1  0.3877548E-003  0.6505690E+03  0.7818608E-02  0.9805712E-01
          3   -1    0    0  502    0  0.00000000000E+00  0.00000000000E+00  0.10992665443E+03  0.10992665443E+03  0.00000000000E+00 0.  1.
         13   -1    0    0    0    0 -0.00000000000E+00 -0.00000000000E+00 -0.10000000000E+04  0.10000000000E+04  0.00000000000E+00 0.  1.
    9000005    2    1    2  501    0 -0.11947871586E+00 -0.81161291870E-01 -0.89418860512E+03  0.11058088609E+04  0.65056894676E+03 0.  0.
         13    1    3    3    0    0 -0.32044556068E+03  0.70096166253E+01 -0.54201386705E+03  0.62969319844E+03  0.00000000000E+00 0.  1.
          3    1    3    3  501    0  0.32032608197E+03 -0.70907779172E+01 -0.35217473807E+03  0.47611566248E+03  0.00000000000E+00 0.  1.
         21    1    1    2  502  501  0.11947871586E+00  0.81161291870E-01  0.41152595459E+01  0.41177935171E+01  0.00000000000E+00 0. -1.
<mgrwt>
<rscale>  1 0.65056896E+03</rscale>
<asrwt>0</asrwt>
<pdfrwt beam="1">  1        3 0.39973413E+00 0.65056896E+03</pdfrwt>
<pdfrwt beam="2">0</pdfrwt>
<totfact> 0.59423362E-02</totfact>
</mgrwt>
</event>
<event>
 6    1  0.3877548E-003  0.6517282E+03  0.7818608E-02  0.9803542E-01
          1   -1    0    0  502    0  0.00000000000E+00  0.00000000000E+00  0.10618771407E+03  0.10618771407E+03  0.00000000000E+00 0.  1.
         13   -1    0    0    0    0 -0.00000000000E+00 -0.00000000000E+00 -0.10000000000E+04  0.10000000000E+04  0.00000000000E+00 0.  1.
    9000005    2    1    2  501    0 -0.13902530782E-03 -0.18622706322E-03 -0.89381252663E+03  0.11061873795E+04  0.65172823000E+03 0.  0.
         13    1    3    3    0    0 -0.32088021558E+03  0.41584004237E+02 -0.51251397045E+03  0.60610552882E+03  0.00000000000E+00 0.  1.
          1    1    3    3  501    0  0.32088007655E+03 -0.41584190464E+02 -0.38129855618E+03  0.50008185067E+03  0.00000000000E+00 0.  1.
         21    1    1    2  502  501  0.13902530783E-03  0.18622706322E-03  0.24069801749E-03  0.33458047001E-03  0.00000000000E+00 0.  1.
<mgrwt>
<rscale>  1 0.65172823E+03</rscale>
<asrwt>0</asrwt>
<pdfrwt beam="1">  1        1 0.38613796E+00 0.65172823E+03</pdfrwt>
<pdfrwt beam="2">0</pdfrwt>
<totfact> 0.15411279E+00</totfact>
</mgrwt>
</event>
<event>
 6    1  0.3877548E-003  0.6518710E+03  0.7818608E-02  0.9803275E-01
          1   -1    0    0  502    0  0.00000000000E+00  0.00000000000E+00  0.10623517673E+03  0.10623517673E+03  0.00000000000E+00 0.  1.
         13   -1    0    0    0    0 -0.00000000000E+00 -0.00000000000E+00 -0.10000000000E+04  0.10000000000E+04  0.00000000000E+00 0.  1.
    9000005    2    1    2  501    0  0.56066921665E-03  0.25606545404E-03 -0.89376594725E+03  0.11062338948E+04  0.65187104678E+03 0.  0.
         13    1    3    3    0    0 -0.25331130046E+02  0.30393401829E+03 -0.64197673998E+03  0.71074023968E+03  0.00000000000E+00 0.  1.
          3    1    3    3  501    0  0.25331690716E+02 -0.30393376222E+03 -0.25178920726E+03  0.39549365516E+03  0.00000000000E+00 0.  1.
         21    1    1    2  502  501 -0.56066921665E-03 -0.25606545402E-03  0.11239811928E-02  0.12818943829E-02  0.00000000000E+00 0.  1.
<mgrwt>
<rscale>  1 0.65187105E+03</rscale>
<asrwt>0</asrwt>
<pdfrwt beam="1">  1        1 0.38631055E+00 0.65187105E+03</pdfrwt>
<pdfrwt beam="2">0</pdfrwt>
<totfact> 0.15383789E+00</totfact>
</mgrwt>
</event>
<event>
 6    1  0.3877548E-003  0.6347988E+03  0.7818608E-02  0.9835729E-01
          1   -1    0    0  502    0  0.00000000000E+00  0.00000000000E+00  0.10074240836E+03  0.10074240836E+03  0.00000000000E+00 0.  1.
         13   -1    0    0    0    0 -0.00000000000E+00 -0.00000000000E+00 -0.10000000000E+04  0.10000000000E+04  0.00000000000E+00 0.  1.
    9000005    2    1    2  501    0  0.77720129639E-05  0.22700220370E-05 -0.89925761365E+03  0.11007423849E+04  0.63479882027E+03 0.  0.
         13    1    3    3    0    0 -0.17277949914E+03 -0.12305947000E+03 -0.85903688943E+03  0.88483940118E+03  0.00000000000E+00 0.  1.
          1    1    3    3  501    0  0.17277950691E+03  0.12305947227E+03 -0.40220724222E+02  0.21590298372E+03  0.00000000000E+00 0.  1.
         21    1    1    2  502  501 -0.77720129769E-05 -0.22700220490E-05  0.22010538415E-04  0.23452526242E-04  0.00000000000E+00 0. -1.
<mgrwt>
<rscale>  1 0.63479882E+03</rscale>
<asrwt>0</asrwt>
<pdfrwt beam="1">  1        1 0.36633680E+00 0.63479882E+03</pdfrwt>
<pdfrwt beam="2">0</pdfrwt>
<totfact> 0.18897440E+00</totfact>
</mgrwt>
</event>
<event>
 6    1  0.3877548E-003  0.6443836E+03  0.7818608E-02  0.9817375E-01
          1   -1    0    0  502    0  0.00000000000E+00  0.00000000000E+00  0.10381907333E+03  0.10381907333E+03  0.00000000000E+00 0.  1.
         13   -1    0    0    0    0 -0.00000000000E+00 -0.00000000000E+00 -0.10000000000E+04  0.10000000000E+04  0.00000000000E+00 0.  1.
    9000005    2    1    2  501    0 -0.18682731528E-01 -0.37661618028E-02 -0.89618299231E+03  0.11037999032E+04  0.64438363586E+03 0.  0.
         13    1    3    3    0    0  0.22717536023E+03  0.17060250066E+03 -0.70836451445E+03  0.76321303897E+03  0.00000000000E+00 0.  1.
          1    1    3    3  501    0 -0.22719404296E+03 -0.17060626682E+03 -0.18781847786E+03  0.34058686419E+03  0.00000000000E+00 0.  1.
         21    1    1    2  502  501  0.18682731528E-01  0.37661618027E-02  0.20656392741E-02  0.19170166866E-01  0.00000000000E+00 0. -1.
<mgrwt>
<rscale>  1 0.64438364E+03</rscale>
<asrwt>0</asrwt>
<pdfrwt beam="1">  1        1 0.37752470E+00 0.64438364E+03</pdfrwt>
<pdfrwt beam="2">0</pdfrwt>
<totfact> 0.16844747E+00</totfact>
</mgrwt>
</event>
<event>
 6    1  0.3877548E-003  0.6351113E+03  0.7818608E-02  0.9835125E-01
          1   -1    0    0  502    0  0.00000000000E+00  0.00000000000E+00  0.10094168036E+03  0.10094168036E+03  0.00000000000E+00 0.  1.
         13   -1    0    0    0    0 -0.00000000000E+00 -0.00000000000E+00 -0.10000000000E+04  0.10000000000E+04  0.00000000000E+00 0.  1.
    9000005    2    1    2  501    0 -0.10391489046E+00  0.29745974530E+00 -0.89861527820E+03  0.11003980202E+04  0.63511123866E+03 0.  0.
         13    1    3    3    0    0  0.28758442097E+03 -0.88947500884E+02 -0.62389847448E+03  0.69272343944E+03  0.00000000000E+00 0.  1.
          3    1    3    3  501    0 -0.28768833586E+03  0.89244960630E+02 -0.27471680373E+03  0.40767458081E+03  0.00000000000E+00 0.  1.
         21    1    1    2  502  501  0.10391489046E+00 -0.29745974530E+00 -0.44304143687E+00  0.54366011378E+00  0.00000000000E+00 0.  1.
<mgrwt>
<rscale>  1 0.63511132E+03</rscale>
<asrwt>0</asrwt>
<pdfrwt beam="1">  1        1 0.36706143E+00 0.63511132E+03</pdfrwt>
<pdfrwt beam="2">0</pdfrwt>
<totfact> 0.18758602E+00</totfact>
</mgrwt>
</event>
<event>
 6    1  0.3877548E-003  0.6479252E+03  0.7818608E-02  0.9810680E-01
          1   -1    0    0  502    0  0.00000000000E+00  0.00000000000E+00  0.10495274797E+03  0.10495274797E+03  0.00000000000E+00 0.  1.
         13   -1    0    0    0    0 -0.00000000000E+00 -0.00000000000E+00 -0.10000000000E+04  0.10000000000E+04  0.00000000000E+00 0.  1.
    9000005    2    1    2  501    0 -0.36355700630E-04 -0.29438817990E-04 -0.89504821900E+03  0.11049517799E+04  0.64792524375E+03 0.  0.
         13    1    3    3    0    0  0.88574349504E+02 -0.16063220090E+03  0.78562975662E+01  0.18360239859E+03  0.00000000000E+00 0.  1.
          1    1    3    3  501    0 -0.88574385860E+02  0.16063217146E+03 -0.90290451657E+03  0.92134938128E+03  0.00000000000E+00 0.  1.
         21    1    1    2  502  501  0.36355700632E-04  0.29438818004E-04  0.96697054524E-03  0.96810144940E-03  0.00000000000E+00 0.  1.
<mgrwt>
<rscale>  1 0.64792524E+03</rscale>
<asrwt>0</asrwt>
<pdfrwt beam="1">  1        1 0.38164716E+00 0.64792524E+03</pdfrwt>
<pdfrwt beam="2">0</pdfrwt>
<totfact> 0.16143444E+00</totfact>
</mgrwt>
</event>
<event>
 6    1  0.3877548E-003  0.6469802E+03  0.7818608E-02  0.9812462E-01
          1   -1    0    0  502    0  0.00000000000E+00  0.00000000000E+00  0.11303986831E+03  0.11303986831E+03  0.00000000000E+00 0.  1.
         13   -1    0    0    0    0 -0.00000000000E+00 -0.00000000000E+00 -0.10000000000E+04  0.10000000000E+04  0.00000000000E+00 0.  1.
    9000005    2    1    2  501    0 -0.50476168316E+01 -0.78493336471E+00 -0.89448711349E+03  0.11039431650E+04  0.64695998391E+03 0.  0.
         13    1    3    3    0    0  0.29128831455E+03  0.13493982156E+03 -0.44005203427E+03  0.54470490222E+03  0.00000000000E+00 0.  1.
          3    1    3    3  501    0 -0.29633593138E+03 -0.13572475492E+03 -0.45443507922E+03  0.55923826278E+03  0.00000000000E+00 0.  1.
         21    1    1    2  502  501  0.50476168316E+01  0.78493336471E+00  0.75269818059E+01  0.90967033134E+01  0.00000000000E+00 0. -1.
<mgrwt>
<rscale>  1 0.64698015E+03</rscale>
<asrwt>0</asrwt>
<pdfrwt beam="1">  1        1 0.41105493E+00 0.64698015E+03</pdfrwt>
<pdfrwt beam="2">0</pdfrwt>
<totfact> 0.11946556E+00</totfact>
</mgrwt>
</event>
<event>
 6    1  0.3877548E-003  0.6630247E+03  0.7818608E-02  0.9782642E-01
          1   -1    0    0  502    0  0.00000000000E+00  0.00000000000E+00  0.10990146919E+03  0.10990146919E+03  0.00000000000E+00 0.  1.
         13   -1    0    0    0    0 -0.00000000000E+00 -0.00000000000E+00 -0.10000000000E+04  0.10000000000E+04  0.00000000000E+00 0.  1.
    9000005    2    1    2  501    0  0.51854622924E-04 -0.25208214396E-04 -0.89009956073E+03  0.11099004377E+04  0.66302470051E+03 0.  0.
         13    1    3    3    0    0  0.69671426885E+02 -0.72831810031E+02 -0.97373000123E+03  0.97893242646E+03  0.00000000000E+00 0.  1.
          1    1    3    3  501    0 -0.69671375031E+02  0.72831784822E+02  0.83630440497E+02  0.13096801120E+03  0.00000000000E+00 0.  1.
         21    1    1    2  502  501 -0.51854622922E-04  0.25208214407E-04  0.10299205991E-02  0.10315332261E-02  0.00000000000E+00 0. -1.
<mgrwt>
<rscale>  1 0.66302470E+03</rscale>
<asrwt>0</asrwt>
<pdfrwt beam="1">  1        1 0.39964255E+00 0.66302470E+03</pdfrwt>
<pdfrwt beam="2">0</pdfrwt>
<totfact> 0.13394963E+00</totfact>
</mgrwt>
</event>
<event>
 6    1  0.3877548E-003  0.6490086E+03  0.7818608E-02  0.9808641E-01
          1   -1    0    0  502    0  0.00000000000E+00  0.00000000000E+00  0.10530332678E+03  0.10530332678E+03  0.00000000000E+00 0.  1.
         13   -1    0    0    0    0 -0.00000000000E+00 -0.00000000000E+00 -0.10000000000E+04  0.10000000000E+04  0.00000000000E+00 0.  1.
    9000005    2    1    2  501    0  0.90864800129E-05 -0.20173347707E-04 -0.89469695261E+03  0.11053030465E+04  0.64900861908E+03 0.  0.
         13    1    3    3    0    0  0.52789502679E+02 -0.27692011563E+03 -0.72106835089E+03  0.77421640947E+03  0.00000000000E+00 0.  1.
          1    1    3    3  501    0 -0.52789493593E+02  0.27692009545E+03 -0.17362860172E+03  0.33108663705E+03  0.00000000000E+00 0.  1.
         21    1    1    2  502  501 -0.90864800173E-05  0.20173347718E-04  0.27938841399E-03  0.28026311557E-03  0.00000000000E+00 0. -1.
<mgrwt>
<rscale>  1 0.64900862E+03</rscale>
<asrwt>0</asrwt>
<pdfrwt beam="1">  1        1 0.38292200E+00 0.64900862E+03</pdfrwt>
<pdfrwt beam="2">0</pdfrwt>
<totfact> 0.15932294E+00</totfact>
</mgrwt>
</event>
<event>
 6    1  0.3877548E-003  0.6015262E+03  0.7818608E-02  0.9902245E-01
          1   -1    0    0  502    0  0.00000000000E+00  0.00000000000E+00  0.95038183390E+02  0.95038183390E+02  0.00000000000E+00 0.  1.
         13   -1    0    0    0    0 -0.00000000000E+00 -0.00000000000E+00 -0.10000000000E+04  0.10000000000E+04  0.00000000000E+00 0.  1.
    9000005    2    1    2  501    0  0.23728501088E+00 -0.19782049207E+01 -0.90930424529E+03  0.10902604972E+04  0.60152287699E+03 0.  0.
         13    1    3    3    0    0  0.89243616470E+02 -0.83441135651E+02 -0.95384964909E+03  0.96164234477E+03  0.00000000000E+00 0.  1.
          3    1    3    3  501    0 -0.89006331459E+02  0.81462930731E+02  0.44545403792E+02  0.12861815238E+03  0.00000000000E+00 0.  1.
         21    1    1    2  502  501 -0.23728501088E+00  0.19782049207E+01  0.43424286843E+01  0.47776862353E+01  0.00000000000E+00 0.  1.
<mgrwt>
<rscale>  1 0.60152618E+03</rscale>
<asrwt>0</asrwt>
<pdfrwt beam="1">  1        1 0.34559412E+00 0.60152618E+03</pdfrwt>
<pdfrwt beam="2">0</pdfrwt>
<totfact> 0.23420043E+00</totfact>
</mgrwt>
</event>
<event>
 6    1  0.3877548E-003  0.6483196E+03  0.7818608E-02  0.9809937E-01
          1   -1    0    0  502    0  0.00000000000E+00  0.00000000000E+00  0.10507959101E+03  0.10507959101E+03  0.00000000000E+00 0.  1.
         13   -1    0    0    0    0 -0.00000000000E+00 -0.00000000000E+00 -0.10000000000E+04  0.10000000000E+04  0.00000000000E+00 0.  1.
    9000005    2    1    2  501    0  0.72653631662E-05  0.20421235945E-04 -0.89492041081E+03  0.11050795693E+04  0.64831960692E+03 0.  0.
         13    1    3    3    0    0 -0.23605462621E+03 -0.19412618870E+03 -0.63161882511E+03  0.70167592514E+03  0.00000000000E+00 0.  1.
          3    1    3    3  501    0  0.23605463348E+03  0.19412620912E+03 -0.26330158570E+03  0.40340364412E+03  0.00000000000E+00 0.  1.
         21    1    1    2  502  501 -0.72653631836E-05 -0.20421235951E-04  0.18253189097E-05  0.21751877369E-04  0.00000000000E+00 0.  1.
<mgrwt>
<rscale>  1 0.64831961E+03</rscale>
<asrwt>0</asrwt>
<pdfrwt beam="1">  1        1 0.38210841E+00 0.64831961E+03</pdfrwt>
<pdfrwt beam="2">0</pdfrwt>
<totfact> 0.16066735E+00</totfact>
</mgrwt>
</event>
<event>
 6    1  0.3877548E-003  0.6689920E+03  0.7818608E-02  0.9771780E-01
          1   -1    0    0  502    0  0.00000000000E+00  0.00000000000E+00  0.11189231600E+03  0.11189231600E+03  0.00000000000E+00 0.  1.
         13   -1    0    0    0    0 -0.00000000000E+00 -0.00000000000E+00 -0.10000000000E+04  0.10000000000E+04  0.00000000000E+00 0.  1.
    9000005    2    1    2  501    0  0.15751792040E-03 -0.10612779958E-02 -0.88811235624E+03  0.11118875222E+04  0.66899200638E+03 0.  0.
         13    1    3    3    0    0 -0.20067251311E+03 -0.24513355152E+03 -0.26560734226E+03  0.41340921115E+03  0.00000000000E+00 0.  1.
          3    1    3    3  501    0  0.20067267062E+03  0.24513249024E+03 -0.62250501398E+03  0.69847831101E+03  0.00000000000E+00 0.  1.
         21    1    1    2  502  501 -0.15751792040E-03  0.10612779958E-02  0.46722394863E-02  0.47938444590E-02  0.00000000000E+00 0. -1.
<mgrwt>
<rscale>  1 0.66899201E+03</rscale>
<asrwt>0</asrwt>
<pdfrwt beam="1">  1        1 0.40688201E+00 0.66899201E+03</pdfrwt>
<pdfrwt beam="2">0</pdfrwt>
<totfact> 0.12419688E+00</totfact>
</mgrwt>
</event>
<event>
 6    1  0.3877548E-003  0.6722801E+03  0.7818608E-02  0.9765848E-01
          1   -1    0    0  502    0  0.00000000000E+00  0.00000000000E+00  0.11307653873E+03  0.11307653873E+03  0.00000000000E+00 0.  1.
         13   -1    0    0    0    0 -0.00000000000E+00 -0.00000000000E+00 -0.10000000000E+04  0.10000000000E+04  0.00000000000E+00 0.  1.
    9000005    2    1    2  501    0  0.15539310507E-02  0.29449561579E-02 -0.88700984090E+03  0.11129900949E+04  0.67228007079E+03 0.  0.
         13    1    3    3    0    0 -0.86646609206E+02  0.28715382694E+03 -0.19228923018E+03  0.35628654655E+03  0.00000000000E+00 0.  1.
          1    1    3    3  501    0  0.86648163137E+02 -0.28715088198E+03 -0.69472061071E+03  0.75670354839E+03  0.00000000000E+00 0.  1.
         21    1    1    2  502  501 -0.15539310507E-02 -0.29449561578E-02  0.86379630677E-01  0.86443785574E-01  0.00000000000E+00 0. -1.
<mgrwt>
<rscale>  1 0.67228007E+03</rscale>
<asrwt>0</asrwt>
<pdfrwt beam="1">  1        1 0.41118828E+00 0.67228007E+03</pdfrwt>
<pdfrwt beam="2">0</pdfrwt>
<totfact> 0.11872313E+00</totfact>
</mgrwt>
</event>
<event>
 6    1  0.3877548E-003  0.6535393E+03  0.7818608E-02  0.9800161E-01
          1   -1    0    0  502    0  0.00000000000E+00  0.00000000000E+00  0.10679072930E+03  0.10679072930E+03  0.00000000000E+00 0.  1.
         13   -1    0    0    0    0 -0.00000000000E+00 -0.00000000000E+00 -0.10000000000E+04  0.10000000000E+04  0.00000000000E+00 0.  1.
    9000005    2    1    2  501    0  0.21907352861E-02  0.15468435209E-01 -0.89321587925E+03  0.11067737663E+04  0.65353925858E+03 0.  0.
         13    1    3    3    0    0 -0.10594065882E+03 -0.71789468385E+02  0.62574641504E+02  0.14245257709E+03  0.00000000000E+00 0.  1.
          3    1    3    3  501    0  0.10594284955E+03  0.71804936820E+02 -0.95579052075E+03  0.96432118917E+03  0.00000000000E+00 0.  1.
         21    1    1    2  502  501 -0.21907352861E-02 -0.15468435209E-01  0.66085465869E-02  0.16963039141E-01  0.00000000000E+00 0.  1.
<mgrwt>
<rscale>  1 0.65353926E+03</rscale>
<asrwt>0</asrwt>
<pdfrwt beam="1">  1        1 0.38833074E+00 0.65353926E+03</pdfrwt>
<pdfrwt beam="2">0</pdfrwt>
<totfact> 0.15065472E+00</totfact>
</mgrwt>
</event>
<event>
 6    1  0.3877548E-003  0.5507001E+03  0.7818608E-02  0.1001332E+00
          1   -1    0    0  502    0  0.00000000000E+00  0.00000000000E+00  0.76627295434E+02  0.76627295434E+02  0.00000000000E+00 0.  1.
         13   -1    0    0    0    0 -0.00000000000E+00 -0.00000000000E+00 -0.10000000000E+04  0.10000000000E+04  0.00000000000E+00 0.  1.
    9000005    2    1    2  501    0  0.94589344654E-02 -0.16003389240E-01 -0.92418222818E+03  0.10758175584E+04  0.55070012505E+03 0.  0.
         13    1    3    3    0    0 -0.21192350841E+02 -0.25254546390E+03 -0.25176150976E+03  0.35722847712E+03  0.00000000000E+00 0.  1.
          1    1    3    3  501    0  0.21201809776E+02  0.25252946051E+03 -0.67242071843E+03  0.71858908128E+03  0.00000000000E+00 0.  1.
         21    1    1    2  502  501 -0.94589344654E-02  0.16003389240E-01  0.80952361591E+00  0.80973703425E+00  0.00000000000E+00 0.  1.
<mgrwt>
<rscale>  1 0.55070013E+03</rscale>
<asrwt>0</asrwt>
<pdfrwt beam="1">  1        1 0.27864530E+00 0.55070013E+03</pdfrwt>
<pdfrwt beam="2">0</pdfrwt>
<totfact> 0.46015061E+00</totfact>
</mgrwt>
</event>
<event>
 6    1  0.3877548E-003  0.6514573E+03  0.7818608E-02  0.9804048E-01
          1   -1    0    0  502    0  0.00000000000E+00  0.00000000000E+00  0.10637338514E+03  0.10637338514E+03  0.00000000000E+00 0.  1.
         13   -1    0    0    0    0 -0.00000000000E+00 -0.00000000000E+00 -0.10000000000E+04  0.10000000000E+04  0.00000000000E+00 0.  1.
    9000005    2    1    2  501    0 -0.38451981604E+00  0.16907919432E+00 -0.89371018724E+03  0.11059451006E+04  0.65145720536E+03 0.  0.
         13    1    3    3    0    0 -0.76283398266E+02  0.30415889710E+03 -0.59741837879E+03  0.67471513311E+03  0.00000000000E+00 0.  1.
          3    1    3    3  501    0  0.75898878450E+02 -0.30398981791E+03 -0.29629180846E+03  0.43122996753E+03  0.00000000000E+00 0.  1.
         21    1    1    2  502  501  0.38451981604E+00 -0.16907919432E+00  0.83572380770E-01  0.42828449156E+00  0.00000000000E+00 0. -1.
<mgrwt>
<rscale>  1 0.65145734E+03</rscale>
<asrwt>0</asrwt>
<pdfrwt beam="1">  1        1 0.38681313E+00 0.65145734E+03</pdfrwt>
<pdfrwt beam="2">0</pdfrwt>
<totfact> 0.15306354E+00</totfact>
</mgrwt>
</event>
<event>
 6    1  0.3877548E-003  0.5921979E+03  0.7818608E-02  0.9921726E-01
          1   -1    0    0  502    0  0.00000000000E+00  0.00000000000E+00  0.88409818117E+02  0.88409818117E+02  0.00000000000E+00 0.  1.
         13   -1    0    0    0    0 -0.00000000000E+00 -0.00000000000E+00 -0.10000000000E+04  0.10000000000E+04  0.00000000000E+00 0.  1.
    9000005    2    1    2  501    0 -0.15029551708E-01 -0.30285818256E-01 -0.91232497913E+03  0.10876742434E+04  0.59219793242E+03 0.  0.
         13    1    3    3    0    0 -0.23004769455E+02 -0.16787805800E+03 -0.90218116890E+03  0.91795594845E+03  0.00000000000E+00 0.  1.
          3    1    3    3  501    0  0.22989739903E+02  0.16784777218E+03 -0.10143810223E+02  0.16971829499E+03  0.00000000000E+00 0.  1.
         21    1    1    2  502  501  0.15029551708E-01  0.30285818256E-01  0.73479724345E+00  0.73557467819E+00  0.00000000000E+00 0. -1.
<mgrwt>
<rscale>  1 0.59219793E+03</rscale>
<asrwt>0</asrwt>
<pdfrwt beam="1">  1        1 0.32149093E+00 0.59219793E+03</pdfrwt>
<pdfrwt beam="2">0</pdfrwt>
<totfact> 0.29840440E+00</totfact>
</mgrwt>
</event>
<event>
 6    1  0.3877548E-003  0.6545541E+03  0.7818608E-02  0.9798271E-01
          1   -1    0    0  502    0  0.00000000000E+00  0.00000000000E+00  0.10761214606E+03  0.10761214606E+03  0.00000000000E+00 0.  1.
         13   -1    0    0    0    0 -0.00000000000E+00 -0.00000000000E+00 -0.10000000000E+04  0.10000000000E+04  0.00000000000E+00 0.  1.
    9000005    2    1    2  501    0 -0.24013871203E-01  0.93330284699E-02 -0.89288935621E+03  0.11071099824E+04  0.65455413079E+03 0.  0.
         13    1    3    3    0    0 -0.21511558683E+03 -0.23463180169E+03 -0.57511323493E+03  0.65732946918E+03  0.00000000000E+00 0.  1.
          3    1    3    3  501    0  0.21509157296E+03  0.23464113472E+03 -0.31777612128E+03  0.44978051327E+03  0.00000000000E+00 0.  1.
         21    1    1    2  502  501  0.24013871203E-01 -0.93330284698E-02  0.50150227063E+00  0.50216361763E+00  0.00000000000E+00 0. -1.
<mgrwt>
<rscale>  1 0.65455413E+03</rscale>
<asrwt>0</asrwt>
<pdfrwt beam="1">  1        1 0.39131772E+00 0.65455413E+03</pdfrwt>
<pdfrwt beam="2">0</pdfrwt>
<totfact> 0.14610191E+00</totfact>
</mgrwt>
</event>
<event>
 6    1  0.3877548E-003  0.6527151E+03  0.7818608E-02  0.9801698E-01
          1   -1    0    0  502    0  0.00000000000E+00  0.00000000000E+00  0.10650930016E+03  0.10650930016E+03  0.00000000000E+00 0.  1.
         13   -1    0    0    0    0 -0.00000000000E+00 -0.00000000000E+00 -0.10000000000E+04  0.10000000000E+04  0.00000000000E+00 0.  1.
    9000005    2    1    2  501    0 -0.33502881848E-04 -0.94098064096E-06 -0.89349076035E+03  0.11065092310E+04  0.65271505226E+03 0.  0.
         13    1    3    3    0    0 -0.23192933894E+03  0.22960334783E+03 -0.44771453317E+03  0.55403719984E+03  0.00000000000E+00 0.  1.
          3    1    3    3  501    0  0.23192930544E+03 -0.22960334877E+03 -0.44577622718E+03  0.55247203115E+03  0.00000000000E+00 0.  1.
         21    1    1    2  502  501  0.33502881846E-04  0.94098064890E-06  0.60509988292E-04  0.69172156390E-04  0.00000000000E+00 0. -1.
<mgrwt>
<rscale>  1 0.65271505E+03</rscale>
<asrwt>0</asrwt>
<pdfrwt beam="1">  1        1 0.38730736E+00 0.65271505E+03</pdfrwt>
<pdfrwt beam="2">0</pdfrwt>
<totfact> 0.15225875E+00</totfact>
</mgrwt>
</event>
<event>
 6    1  0.3877548E-003  0.6784162E+03  0.7818608E-02  0.9754872E-01
          1   -1    0    0  502    0  0.00000000000E+00  0.00000000000E+00  0.11534322192E+03  0.11534322192E+03  0.00000000000E+00 0.  1.
         13   -1    0    0    0    0 -0.00000000000E+00 -0.00000000000E+00 -0.10000000000E+04  0.10000000000E+04  0.00000000000E+00 0.  1.
    9000005    2    1    2  501    0 -0.51817282190E-02 -0.51954288323E-03 -0.88493785378E+03  0.11150620980E+04  0.67841615346E+03 0.  0.
         13    1    3    3    0    0 -0.29647708272E+03 -0.42088007861E+02 -0.70438980569E+03  0.76539862774E+03  0.00000000000E+00 0.  1.
          3    1    3    3  501    0  0.29647190099E+03  0.42087488318E+02 -0.18054804809E+03  0.34966347024E+03  0.00000000000E+00 0.  1.
         21    1    1    2  502  501  0.51817282190E-02  0.51954288323E-03  0.28107570244E+00  0.28112394194E+00  0.00000000000E+00 0.  1.
<mgrwt>
<rscale>  1 0.67841615E+03</rscale>
<asrwt>0</asrwt>
<pdfrwt beam="1">  1        1 0.41943078E+00 0.67841615E+03</pdfrwt>
<pdfrwt beam="2">0</pdfrwt>
<totfact> 0.10887578E+00</totfact>
</mgrwt>
</event>
<event>
 6    1  0.3877548E-003  0.6379599E+03  0.7818608E-02  0.9829638E-01
          1   -1    0    0  502    0  0.00000000000E+00  0.00000000000E+00  0.10178347829E+03  0.10178347829E+03  0.00000000000E+00 0.  1.
         13   -1    0    0    0    0 -0.00000000000E+00 -0.00000000000E+00 -0.10000000000E+04  0.10000000000E+04  0.00000000000E+00 0.  1.
    9000005    2    1    2  501    0 -0.72176691000E-02  0.98897458791E-01 -0.89814528811E+03  0.11016613840E+04  0.63795990196E+03 0.  0.
         13    1    3    3    0    0 -0.29068960187E+03  0.13096207537E+03 -0.43085120386E+03  0.53598905743E+03  0.00000000000E+00 0.  1.
          1    1    3    3  501    0  0.29068238420E+03 -0.13086317791E+03 -0.46729408425E+03  0.56567232652E+03  0.00000000000E+00 0.  1.
         21    1    1    2  502  501  0.72176691000E-02 -0.98897458791E-01 -0.71233595235E-01  0.12209433727E+00  0.00000000000E+00 0.  1.
<mgrwt>
<rscale>  1 0.63795991E+03</rscale>
<asrwt>0</asrwt>
<pdfrwt beam="1">  1        1 0.37012252E+00 0.63795991E+03</pdfrwt>
<pdfrwt beam="2">0</pdfrwt>
<totfact> 0.18177742E+00</totfact>
</mgrwt>
</event>
<event>
 6    1  0.3877548E-003  0.4631440E+03  0.7818608E-02  0.1023873E+00
          1   -1    0    0  502    0  0.00000000000E+00  0.00000000000E+00  0.53665761423E+02  0.53665761423E+02  0.00000000000E+00 0.  1.
         13   -1    0    0    0    0 -0.00000000000E+00 -0.00000000000E+00 -0.10000000000E+04  0.10000000000E+04  0.00000000000E+00 0.  1.
    9000005    2    1    2  501    0 -0.10392341234E-01  0.24296231614E-01 -0.94636979297E+03  0.10536214622E+04  0.46314403787E+03 0.  0.
         13    1    3    3    0    0  0.17852189164E+01 -0.18586205916E+03 -0.78734595691E+03  0.80898797760E+03  0.00000000000E+00 0.  1.
          3    1    3    3  501    0 -0.17956112577E+01  0.18588635539E+03 -0.15902383606E+03  0.24463348458E+03  0.00000000000E+00 0.  1.
         21    1    1    2  502  501  0.10392341234E-01 -0.24296231614E-01  0.35554397304E-01  0.44299241468E-01  0.00000000000E+00 0.  1.
<mgrwt>
<rscale>  1 0.46314404E+03</rscale>
<asrwt>0</asrwt>
<pdfrwt beam="1">  1        1 0.19514863E+00 0.46314404E+03</pdfrwt>
<pdfrwt beam="2">0</pdfrwt>
<totfact> 0.10878846E+01</totfact>
</mgrwt>
</event>
<event>
 6    1  0.3877548E-003  0.6491642E+03  0.7818608E-02  0.9808349E-01
          1   -1    0    0  502    0  0.00000000000E+00  0.00000000000E+00  0.10535391263E+03  0.10535391263E+03  0.00000000000E+00 0.  1.
         13   -1    0    0    0    0 -0.00000000000E+00 -0.00000000000E+00 -0.10000000000E+04  0.10000000000E+04  0.00000000000E+00 0.  1.
    9000005    2    1    2  501    0  0.35114698171E-03  0.50977975886E-03 -0.89464613403E+03  0.11053532919E+04  0.64916422783E+03 0.  0.
         13    1    3    3    0    0  0.95913395997E+02 -0.23158343826E+03 -0.79844604876E+03  0.83686699134E+03  0.00000000000E+00 0.  1.
          1    1    3    3  501    0 -0.95913044850E+02  0.23158394804E+03 -0.96200085269E+02  0.26848630053E+03  0.00000000000E+00 0.  1.
         21    1    1    2  502  501 -0.35114698172E-03 -0.50977975887E-03  0.46660475112E-04  0.62077113759E-03  0.00000000000E+00 0.  1.
<mgrwt>
<rscale>  1 0.64916423E+03</rscale>
<asrwt>0</asrwt>
<pdfrwt beam="1">  1        1 0.38310594E+00 0.64916423E+03</pdfrwt>
<pdfrwt beam="2">0</pdfrwt>
<totfact> 0.15902047E+00</totfact>
</mgrwt>
</event>
<event>
 6    1  0.3877548E-003  0.6488143E+03  0.7818608E-02  0.9809007E-01
          1   -1    0    0  502    0  0.00000000000E+00  0.00000000000E+00  0.10524007445E+03  0.10524007445E+03  0.00000000000E+00 0.  1.
         13   -1    0    0    0    0 -0.00000000000E+00 -0.00000000000E+00 -0.10000000000E+04  0.10000000000E+04  0.00000000000E+00 0.  1.
    9000005    2    1    2  501    0  0.84275820512E-04 -0.40282927937E-04 -0.89475998156E+03  0.11052399655E+04  0.64881426989E+03 0.  0.
         13    1    3    3    0    0 -0.75592790174E+02  0.26112767109E+02 -0.98294348800E+03  0.98619168884E+03  0.00000000000E+00 0.  1.
          3    1    3    3  501    0  0.75592874450E+02 -0.26112807392E+02  0.88183506436E+02  0.11904827670E+03  0.00000000000E+00 0.  1.
         21    1    1    2  502  501 -0.84275820511E-04  0.40282927937E-04  0.56012731384E-04  0.10891535375E-03  0.00000000000E+00 0. -1.
<mgrwt>
<rscale>  1 0.64881427E+03</rscale>
<asrwt>0</asrwt>
<pdfrwt beam="1">  1        1 0.38269199E+00 0.64881427E+03</pdfrwt>
<pdfrwt beam="2">0</pdfrwt>
<totfact> 0.15970192E+00</totfact>
</mgrwt>
</event>
<event>
 6    1  0.3877548E-003  0.6483534E+03  0.7818608E-02  0.9809874E-01
          1   -1    0    0  502    0  0.00000000000E+00  0.00000000000E+00  0.13476416618E+03  0.13476416618E+03  0.00000000000E+00 0.  1.
         13   -1    0    0    0    0 -0.00000000000E+00 -0.00000000000E+00 -0.10000000000E+04  0.10000000000E+04  0.00000000000E+00 0.  1.
    9000005    2    1    2  501    0 -0.19805284951E+01  0.55267506667E+00 -0.89487011142E+03  0.11050586389E+04  0.64835009920E+03 0.  0.
         13    1    3    3    0    0  0.91405850021E+00 -0.25699612663E+03 -0.78327216149E+03  0.82435618732E+03  0.00000000000E+00 0.  1.
          1    1    3    3  501    0 -0.28945869954E+01  0.25754880170E+03 -0.11159794993E+03  0.28070245157E+03  0.00000000000E+00 0.  1.
         21    1    1    2  502  501  0.19805284951E+01 -0.55267506667E+00  0.29634277596E+02  0.29705527289E+02  0.00000000000E+00 0.  1.
<mgrwt>
<rscale>  1 0.64835336E+03</rscale>
<asrwt>0</asrwt>
<pdfrwt beam="1">  1        1 0.49005255E+00 0.64835336E+03</pdfrwt>
<pdfrwt beam="2">0</pdfrwt>
<totfact> 0.51612678E-01</totfact>
</mgrwt>
</event>
<event>
 6    1  0.3877548E-003  0.6611312E+03  0.7818608E-02  0.9786114E-01
          1   -1    0    0  502    0  0.00000000000E+00  0.00000000000E+00  0.11002298708E+03  0.11002298708E+03  0.00000000000E+00 0.  1.
         13   -1    0    0    0    0 -0.00000000000E+00 -0.00000000000E+00 -0.10000000000E+04  0.10000000000E+04  0.00000000000E+00 0.  1.
    9000005    2    1    2  501    0 -0.44288146555E+00 -0.32131212005E+00 -0.89061393858E+03  0.11091833087E+04  0.66113094417E+03 0.  0.
         13    1    3    3    0    0  0.16614754623E+03  0.51826191465E+02  0.26107208212E+02  0.17599019166E+03  0.00000000000E+00 0.  1.
          3    1    3    3  501    0 -0.16659042770E+03 -0.52147503585E+02 -0.91672114679E+03  0.93319311705E+03  0.00000000000E+00 0.  1.
         21    1    1    2  502  501  0.44288146555E+00  0.32131212005E+00  0.63692566276E+00  0.83967837349E+00  0.00000000000E+00 0.  1.
<mgrwt>
<rscale>  1 0.66113117E+03</rscale>
<asrwt>0</asrwt>
<pdfrwt beam="1">  1        1 0.40008443E+00 0.66113117E+03</pdfrwt>
<pdfrwt beam="2">0</pdfrwt>
<totfact> 0.13339059E+00</totfact>
</mgrwt>
</event>
<event>
 6    1  0.3877548E-003  0.6457701E+03  0.7818608E-02  0.9814749E-01
          1   -1    0    0  502    0  0.00000000000E+00  0.00000000000E+00  0.10426184775E+03  0.10426184775E+03  0.00000000000E+00 0.  1.
         13   -1    0    0    0    0 -0.00000000000E+00 -0.00000000000E+00 -0.10000000000E+04  0.10000000000E+04  0.00000000000E+00 0.  1.
    9000005    2    1    2  501    0 -0.19526499351E-03  0.14551950169E-03 -0.89574524541E+03  0.11042547504E+04  0.64577008998E+03 0.  0.
         13    1    3    3    0    0 -0.25760462407E+02 -0.28960372239E+02  0.10026225702E+03  0.10749337081E+03  0.00000000000E+00 0.  1.
          1    1    3    3  501    0  0.25760267142E+02  0.28960517759E+02 -0.99600750244E+03  0.99676137960E+03  0.00000000000E+00 0.  1.
         21    1    1    2  502  501  0.19526499351E-03 -0.14551950169E-03  0.70931626488E-02  0.70973418056E-02  0.00000000000E+00 0.  1.
<mgrwt>
<rscale>  1 0.64577009E+03</rscale>
<asrwt>0</asrwt>
<pdfrwt beam="1">  1        1 0.37913479E+00 0.64577009E+03</pdfrwt>
<pdfrwt beam="2">0</pdfrwt>
<totfact> 0.16567447E+00</totfact>
</mgrwt>
</event>
<event>
 6    1  0.3877548E-003  0.6547553E+03  0.7818608E-02  0.9797897E-01
          1   -1    0    0  502    0  0.00000000000E+00  0.00000000000E+00  0.10717614381E+03  0.10717614381E+03  0.00000000000E+00 0.  1.
         13   -1    0    0    0    0 -0.00000000000E+00 -0.00000000000E+00 -0.10000000000E+04  0.10000000000E+04  0.00000000000E+00 0.  1.
    9000005    2    1    2  501    0 -0.92956587991E-05 -0.12236002078E-05 -0.89282386139E+03  0.11071761331E+04  0.65475533004E+03 0.  0.
         13    1    3    3    0    0 -0.24268037162E+03  0.71850613867E+02 -0.95275120446E+02  0.27043228738E+03  0.00000000000E+00 0.  1.
          3    1    3    3  501    0  0.24268036233E+03 -0.71850615091E+02 -0.79754874094E+03  0.83674384571E+03  0.00000000000E+00 0.  1.
         21    1    1    2  502  501  0.92956588142E-05  0.12236002096E-05  0.52035224677E-05  0.10723018061E-04  0.00000000000E+00 0. -1.
<mgrwt>
<rscale>  1 0.65475533E+03</rscale>
<asrwt>0</asrwt>
<pdfrwt beam="1">  1        1 0.38973225E+00 0.65475533E+03</pdfrwt>
<pdfrwt beam="2">0</pdfrwt>
<totfact> 0.14848162E+00</totfact>
</mgrwt>
</event>
<event>
 6    1  0.3877548E-003  0.6713787E+03  0.7818608E-02  0.9767470E-01
          1   -1    0    0  502    0  0.00000000000E+00  0.00000000000E+00  0.11299478951E+03  0.11299478951E+03  0.00000000000E+00 0.  1.
         13   -1    0    0    0    0 -0.00000000000E+00 -0.00000000000E+00 -0.10000000000E+04  0.10000000000E+04  0.00000000000E+00 0.  1.
    9000005    2    1    2  501    0  0.69913103501E-01 -0.11821584099E-01 -0.88730811878E+03  0.11126836930E+04  0.67137865475E+03 0.  0.
         13    1    3    3    0    0  0.25027806562E+03  0.72779299801E+02 -0.79434836258E+03  0.83601749847E+03  0.00000000000E+00 0.  1.
          3    1    3    3  501    0 -0.25020815252E+03 -0.72791121385E+02 -0.92959756193E+02  0.27666619456E+03  0.00000000000E+00 0.  1.
         21    1    1    2  502  501 -0.69913103501E-01  0.11821584099E-01  0.30290828635E+00  0.31109648316E+00  0.00000000000E+00 0. -1.
<mgrwt>
<rscale>  1 0.67137866E+03</rscale>
<asrwt>0</asrwt>
<pdfrwt beam="1">  1        1 0.41089101E+00 0.67137866E+03</pdfrwt>
<pdfrwt beam="2">0</pdfrwt>
<totfact> 0.11910874E+00</totfact>
</mgrwt>
</event>
<event>
 6    1  0.3877548E-003  0.6591939E+03  0.7818608E-02  0.9789679E-01
          1   -1    0    0  502    0  0.00000000000E+00  0.00000000000E+00  0.10863850123E+03  0.10863850123E+03  0.00000000000E+00 0.  1.
         13   -1    0    0    0    0 -0.00000000000E+00 -0.00000000000E+00 -0.10000000000E+04  0.10000000000E+04  0.00000000000E+00 0.  1.
    9000005    2    1    2  501    0 -0.18065226395E-02 -0.22651487254E-02 -0.89136532220E+03  0.11086337040E+04  0.65919386534E+03 0.  0.
         13    1    3    3    0    0 -0.16602624116E+03  0.23972757780E+03 -0.18731951171E+03  0.34658710850E+03  0.00000000000E+00 0.  1.
          1    1    3    3  501    0  0.16602443464E+03 -0.23972984295E+03 -0.70404581049E+03  0.76204659554E+03  0.00000000000E+00 0.  1.
         21    1    1    2  502  501  0.18065226395E-02  0.22651487254E-02  0.38234335712E-02  0.47971936659E-02  0.00000000000E+00 0.  1.
<mgrwt>
<rscale>  1 0.65919387E+03</rscale>
<asrwt>0</asrwt>
<pdfrwt beam="1">  1        1 0.39504993E+00 0.65919387E+03</pdfrwt>
<pdfrwt beam="2">0</pdfrwt>
<totfact> 0.14050810E+00</totfact>
</mgrwt>
</event>
<event>
 6    1  0.3877548E-003  0.4636369E+03  0.7818608E-02  0.1023732E+00
          1   -1    0    0  502    0  0.00000000000E+00  0.00000000000E+00  0.53949622281E+02  0.53949622281E+02  0.00000000000E+00 0.  1.
         13   -1    0    0    0    0 -0.00000000000E+00 -0.00000000000E+00 -0.10000000000E+04  0.10000000000E+04  0.00000000000E+00 0.  1.
    9000005    2    1    2  501    0  0.97669101318E-02  0.94394821845E-02 -0.94625996825E+03  0.10537395921E+04  0.46363692715E+03 0.  0.
         13    1    3    3    0    0 -0.15173189883E+03 -0.17522480220E+03 -0.46579954193E+03  0.52028407018E+03  0.00000000000E+00 0.  1.
          1    1    3    3  501    0  0.15174166574E+03  0.17523424168E+03 -0.48046042632E+03  0.53345552190E+03  0.00000000000E+00 0.  1.
         21    1    1    2  502  501 -0.97669101318E-02 -0.94394821844E-02  0.20959052821E+00  0.21003020229E+00  0.00000000000E+00 0.  1.
<mgrwt>
<rscale>  1 0.46363693E+03</rscale>
<asrwt>0</asrwt>
<pdfrwt beam="1">  1        1 0.19618086E+00 0.46363693E+03</pdfrwt>
<pdfrwt beam="2">0</pdfrwt>
<totfact> 0.10760799E+01</totfact>
</mgrwt>
</event>
<event>
 6    1  0.3877548E-003  0.6543641E+03  0.7818608E-02  0.9798624E-01
          1   -1    0    0  502    0  0.00000000000E+00  0.00000000000E+00  0.10722431418E+03  0.10722431418E+03  0.00000000000E+00 0.  1.
         13   -1    0    0    0    0 -0.00000000000E+00 -0.00000000000E+00 -0.10000000000E+04  0.10000000000E+04  0.00000000000E+00 0.  1.
    9000005    2    1    2  501    0 -0.36762858535E-02  0.10803616371E+00 -0.89293334712E+03  0.11070331535E+04  0.65436414083E+03 0.  0.
         13    1    3    3    0    0  0.15458360206E+01 -0.32699131724E+03 -0.46217850800E+03  0.56615782642E+03  0.00000000000E+00 0.  1.
          3    1    3    3  501    0 -0.15495123064E+01  0.32709935341E+03 -0.43075483912E+03  0.54087532705E+03  0.00000000000E+00 0.  1.
         21    1    1    2  502  501  0.36762858535E-02 -0.10803616371E+00  0.15766130648E+00  0.19116070545E+00  0.00000000000E+00 0.  1.
<mgrwt>
<rscale>  1 0.65436415E+03</rscale>
<asrwt>0</asrwt>
<pdfrwt beam="1">  1        1 0.38990742E+00 0.65436415E+03</pdfrwt>
<pdfrwt beam="2">0</pdfrwt>
<totfact> 0.14822704E+00</totfact>
</mgrwt>
</event>
<event>
 6    1  0.3877548E-003  0.6548137E+03  0.7818608E-02  0.9797788E-01
          1   -1    0    0  502    0  0.00000000000E+00  0.00000000000E+00  0.10735050350E+03  0.10735050350E+03  0.00000000000E+00 0.  1.
         13   -1    0    0    0    0 -0.00000000000E+00 -0.00000000000E+00 -0.10000000000E+04  0.10000000000E+04  0.00000000000E+00 0.  1.
    9000005    2    1    2  501    0  0.94577582016E-01  0.43787224272E-01 -0.89278513476E+03  0.11071794480E+04  0.65481373108E+03 0.  0.
         13    1    3    3    0    0 -0.26208645576E+03 -0.15168221781E+03 -0.23604440722E+03  0.38394500605E+03  0.00000000000E+00 0.  1.
          1    1    3    3  501    0  0.26218103334E+03  0.15172600503E+03 -0.65674072754E+03  0.72323444197E+03  0.00000000000E+00 0.  1.
         21    1    1    2  502  501 -0.94577582016E-01 -0.43787224272E-01  0.13563826164E+00  0.17105548237E+00  0.00000000000E+00 0. -1.
<mgrwt>
<rscale>  1 0.65481374E+03</rscale>
<asrwt>0</asrwt>
<pdfrwt beam="1">  1        1 0.39036629E+00 0.65481374E+03</pdfrwt>
<pdfrwt beam="2">0</pdfrwt>
<totfact> 0.14752176E+00</totfact>
</mgrwt>
</event>
<event>
 6    1  0.3877548E-003  0.6879315E+03  0.7818608E-02  0.9738096E-01
          1   -1    0    0  502    0  0.00000000000E+00  0.00000000000E+00  0.11858748756E+03  0.11858748756E+03  0.00000000000E+00 0.  1.
         13   -1    0    0    0    0 -0.00000000000E+00 -0.00000000000E+00 -0.10000000000E+04  0.10000000000E+04  0.00000000000E+00 0.  1.
    9000005    2    1    2  501    0  0.62590936118E-01  0.23321327052E+00 -0.88162688829E+03  0.11182645897E+04  0.68793143845E+03 0.  0.
         13    1    3    3    0    0 -0.12030765812E+02  0.34124490502E+03 -0.50989606141E+03  0.61366669941E+03  0.00000000000E+00 0.  1.
          1    1    3    3  501    0  0.12093356749E+02 -0.34101169174E+03 -0.37173082688E+03  0.50459789024E+03  0.00000000000E+00 0.  1.
         21    1    1    2  502  501 -0.62590936118E-01 -0.23321327052E+00  0.21437584799E+00  0.32289790807E+00  0.00000000000E+00 0. -1.
<mgrwt>
<rscale>  1 0.68793148E+03</rscale>
<asrwt>0</asrwt>
<pdfrwt beam="1">  1        1 0.43122814E+00 0.68793148E+03</pdfrwt>
<pdfrwt beam="2">0</pdfrwt>
<totfact> 0.96092823E-01</totfact>
</mgrwt>
</event>
<event>
 6    1  0.3877548E-003  0.6404064E+03  0.7818608E-02  0.9824949E-01
          1   -1    0    0  502    0  0.00000000000E+00  0.00000000000E+00  0.10447904943E+03  0.10447904943E+03  0.00000000000E+00 0.  1.
         13   -1    0    0    0    0 -0.00000000000E+00 -0.00000000000E+00 -0.10000000000E+04  0.10000000000E+04  0.00000000000E+00 0.  1.
    9000005    2    1    2  501    0 -0.43714921397E-01  0.97079866309E-01 -0.89746831660E+03  0.11025287751E+04  0.64040636264E+03 0.  0.
         13    1    3    3    0    0  0.29220982850E+03 -0.77001571601E+02 -0.26654076900E+03  0.40293896242E+03  0.00000000000E+00 0.  1.
          1    1    3    3  501    0 -0.29225354342E+03  0.77098651467E+02 -0.63092754760E+03  0.69958981269E+03  0.00000000000E+00 0.  1.
         21    1    1    2  502  501  0.43714921397E-01 -0.97079866309E-01  0.19473660219E+01  0.19502743186E+01  0.00000000000E+00 0. -1.
<mgrwt>
<rscale>  1 0.64040637E+03</rscale>
<asrwt>0</asrwt>
<pdfrwt beam="1">  1        1 0.37992462E+00 0.64040637E+03</pdfrwt>
<pdfrwt beam="2">0</pdfrwt>
<totfact> 0.16451348E+00</totfact>
</mgrwt>
</event>
<event>
 6    1  0.3877548E-003  0.6690975E+03  0.7818608E-02  0.9771590E-01
          1   -1    0    0  502    0  0.00000000000E+00  0.00000000000E+00  0.11200951179E+03  0.11200951179E+03  0.00000000000E+00 0.  1.
         13   -1    0    0    0    0 -0.00000000000E+00 -0.00000000000E+00 -0.10000000000E+04  0.10000000000E+04  0.00000000000E+00 0.  1.
    9000005    2    1    2  501    0 -0.55352324199E-03 -0.28823585245E-02 -0.88807711134E+03  0.11119228389E+04  0.66909748473E+03 0.  0.
         13    1    3    3    0    0  0.25634010882E+03  0.96868275361E+02 -0.12512003756E+03  0.30124531193E+03  0.00000000000E+00 0.  1.
          1    1    3    3  501    0 -0.25634066234E+03 -0.96871157720E+02 -0.76295707379E+03  0.81067752702E+03  0.00000000000E+00 0.  1.
         21    1    1    2  502  501  0.55352324197E-03  0.28823585245E-02  0.86623137045E-01  0.86672846095E-01  0.00000000000E+00 0.  1.
<mgrwt>
<rscale>  1 0.66909748E+03</rscale>
<asrwt>0</asrwt>
<pdfrwt beam="1">  1        1 0.40730817E+00 0.66909748E+03</pdfrwt>
<pdfrwt beam="2">0</pdfrwt>
<totfact> 0.12364988E+00</totfact>
</mgrwt>
</event>
<event>
 6    1  0.3877548E-003  0.6836849E+03  0.7818608E-02  0.9745547E-01
          1   -1    0    0  502    0  0.00000000000E+00  0.00000000000E+00  0.13208168958E+03  0.13208168958E+03  0.00000000000E+00 0.  1.
         13   -1    0    0    0    0 -0.00000000000E+00 -0.00000000000E+00 -0.10000000000E+04  0.10000000000E+04  0.00000000000E+00 0.  1.
    9000005    2    1    2  501    0 -0.46475305499E+01  0.64007261104E+00 -0.88273897568E+03  0.11165362288E+04  0.68366880997E+03 0.  0.
         13    1    3    3    0    0  0.21232783421E+03  0.22280968870E+03 -0.20154696940E+03  0.36789733273E+03  0.00000000000E+00 0.  1.
          1    1    3    3  501    0 -0.21697536476E+03 -0.22216961609E+03 -0.68119200628E+03  0.74863889603E+03  0.00000000000E+00 0.  1.
         21    1    1    2  502  501  0.46475305499E+01 -0.64007261104E+00  0.14820665265E+02  0.15545460819E+02  0.00000000000E+00 0.  1.
<mgrwt>
<rscale>  1 0.68368491E+03</rscale>
<asrwt>0</asrwt>
<pdfrwt beam="1">  1        1 0.48029807E+00 0.68368491E+03</pdfrwt>
<pdfrwt beam="2">0</pdfrwt>
<totfact> 0.56978212E-01</totfact>
</mgrwt>
</event>
<event>
 6    1  0.3877548E-003  0.6551060E+03  0.7818608E-02  0.9797245E-01
          1   -1    0    0  502    0  0.00000000000E+00  0.00000000000E+00  0.10729191424E+03  0.10729191424E+03  0.00000000000E+00 0.  1.
         13   -1    0    0    0    0 -0.00000000000E+00 -0.00000000000E+00 -0.10000000000E+04  0.10000000000E+04  0.00000000000E+00 0.  1.
    9000005    2    1    2  501    0  0.13691983497E-04  0.98839153637E-04 -0.89270902929E+03  0.11072909655E+04  0.65510599997E+03 0.  0.
         13    1    3    3    0    0 -0.31215947115E+03  0.78451212250E+02 -0.34364029292E+03  0.47083625503E+03  0.00000000000E+00 0.  1.
          1    1    3    3  501    0  0.31215948484E+03 -0.78451113411E+02 -0.54906873636E+03  0.63645471042E+03  0.00000000000E+00 0.  1.
         21    1    1    2  502  501 -0.13691983472E-04 -0.98839153641E-04  0.94352811446E-03  0.94878972986E-03  0.00000000000E+00 0. -1.
<mgrwt>
<rscale>  1 0.65510600E+03</rscale>
<asrwt>0</asrwt>
<pdfrwt beam="1">  1        1 0.39015324E+00 0.65510600E+03</pdfrwt>
<pdfrwt beam="2">0</pdfrwt>
<totfact> 0.14783509E+00</totfact>
</mgrwt>
</event>
<event>
 6    1  0.3877548E-003  0.6578959E+03  0.7818608E-02  0.9792075E-01
          1   -1    0    0  502    0  0.00000000000E+00  0.00000000000E+00  0.10828403194E+03  0.10828403194E+03  0.00000000000E+00 0.  1.
         13   -1    0    0    0    0 -0.00000000000E+00 -0.00000000000E+00 -0.10000000000E+04  0.10000000000E+04  0.00000000000E+00 0.  1.
    9000005    2    1    2  501    0  0.93366992624E-03 -0.18545826648E-02 -0.89179324140E+03  0.11082067307E+04  0.65789586759E+03 0.  0.
         13    1    3    3    0    0  0.13063919684E+03  0.20408883792E+03 -0.71171697698E+02  0.25255546731E+03  0.00000000000E+00 0.  1.
          1    1    3    3  501    0 -0.13063826317E+03 -0.20409069250E+03 -0.82062154370E+03  0.85565126340E+03  0.00000000000E+00 0.  1.
         21    1    1    2  502  501 -0.93366992625E-03  0.18545826648E-02  0.77273337888E-01  0.77301228740E-01  0.00000000000E+00 0.  1.
<mgrwt>
<rscale>  1 0.65789587E+03</rscale>
<asrwt>0</asrwt>
<pdfrwt beam="1">  1        1 0.39376095E+00 0.65789587E+03</pdfrwt>
<pdfrwt beam="2">0</pdfrwt>
<totfact> 0.14240861E+00</totfact>
</mgrwt>
</event>
<event>
 6    1  0.3877548E-003  0.5740434E+03  0.7818608E-02  0.9960771E-01
          1   -1    0    0  502    0  0.00000000000E+00  0.00000000000E+00  0.82382504002E+02  0.82382504002E+02  0.00000000000E+00 0.  1.
         13   -1    0    0    0    0 -0.00000000000E+00 -0.00000000000E+00 -0.10000000000E+04  0.10000000000E+04  0.00000000000E+00 0.  1.
    9000005    2    1    2  501    0  0.26594040797E-03  0.23111407609E-02 -0.91761695820E+03  0.10823801163E+04  0.57404340784E+03 0.  0.
         13    1    3    3    0    0 -0.68868935941E+02  0.25037076004E+03 -0.68938255109E+03  0.73666596878E+03  0.00000000000E+00 0.  1.
          1    1    3    3  501    0  0.68869201882E+02 -0.25036844890E+03 -0.22823440712E+03  0.34571414747E+03  0.00000000000E+00 0.  1.
         21    1    1    2  502  501 -0.26594040797E-03 -0.23111407608E-02 -0.53779502223E-03  0.23877435798E-02  0.00000000000E+00 0.  1.
<mgrwt>
<rscale>  1 0.57404341E+03</rscale>
<asrwt>0</asrwt>
<pdfrwt beam="1">  1        1 0.29957337E+00 0.57404341E+03</pdfrwt>
<pdfrwt beam="2">0</pdfrwt>
<totfact> 0.37225799E+00</totfact>
</mgrwt>
</event>
<event>
 6    1  0.3877548E-003  0.6532473E+03  0.7818608E-02  0.9800705E-01
          1   -1    0    0  502    0  0.00000000000E+00  0.00000000000E+00  0.10669644285E+03  0.10669644285E+03  0.00000000000E+00 0.  1.
         13   -1    0    0    0    0 -0.00000000000E+00 -0.00000000000E+00 -0.10000000000E+04  0.10000000000E+04  0.00000000000E+00 0.  1.
    9000005    2    1    2  501    0 -0.81722718969E-02  0.94578010887E-02 -0.89331371599E+03  0.11066803358E+04  0.65324725048E+03 0.  0.
         13    1    3    3    0    0  0.22656408377E+03 -0.22277788805E+03 -0.57475108761E+03  0.65673440915E+03  0.00000000000E+00 0.  1.
          1    1    3    3  501    0 -0.22657225604E+03  0.22278734585E+03 -0.31856262838E+03  0.44994592662E+03  0.00000000000E+00 0.  1.
         21    1    1    2  502  501  0.81722718969E-02 -0.94578010887E-02  0.10158836237E-01  0.16107078664E-01  0.00000000000E+00 0. -1.
<mgrwt>
<rscale>  1 0.65324725E+03</rscale>
<asrwt>0</asrwt>
<pdfrwt beam="1">  1        1 0.38798788E+00 0.65324725E+03</pdfrwt>
<pdfrwt beam="2">0</pdfrwt>
<totfact> 0.15119077E+00</totfact>
</mgrwt>
</event>
<event>
 6    1  0.3877548E-003  0.5863686E+03  0.7818608E-02  0.9934098E-01
          1   -1    0    0  502    0  0.00000000000E+00  0.00000000000E+00  0.85958991819E+02  0.85958991819E+02  0.00000000000E+00 0.  1.
         13   -1    0    0    0    0 -0.00000000000E+00 -0.00000000000E+00 -0.10000000000E+04  0.10000000000E+04  0.00000000000E+00 0.  1.
    9000005    2    1    2  501    0  0.13929028153E-02 -0.95372270496E-03 -0.91404256967E+03  0.10859566923E+04  0.58636858569E+03 0.  0.
         13    1    3    3    0    0  0.69947540939E+02 -0.19063740715E+03 -0.65368031287E+02  0.21332664860E+03  0.00000000000E+00 0.  1.
          1    1    3    3  501    0 -0.69946148036E+02  0.19063645342E+03 -0.84867453838E+03  0.87263004366E+03  0.00000000000E+00 0.  1.
         21    1    1    2  502  501 -0.13929028153E-02  0.95372270495E-03  0.15614850484E-02  0.22995653518E-02  0.00000000000E+00 0.  1.
<mgrwt>
<rscale>  1 0.58636859E+03</rscale>
<asrwt>0</asrwt>
<pdfrwt beam="1">  1        1 0.31257881E+00 0.58636859E+03</pdfrwt>
<pdfrwt beam="2">0</pdfrwt>
<totfact> 0.32641443E+00</totfact>
</mgrwt>
</event>
<event>
 6    1  0.3877548E-003  0.6579362E+03  0.7818608E-02  0.9792000E-01
          1   -1    0    0  502    0  0.00000000000E+00  0.00000000000E+00  0.10831232903E+03  0.10831232903E+03  0.00000000000E+00 0.  1.
         13   -1    0    0    0    0 -0.00000000000E+00 -0.00000000000E+00 -0.10000000000E+04  0.10000000000E+04  0.00000000000E+00 0.  1.
    9000005    2    1    2  501    0  0.39959792504E-02 -0.62286005081E-02 -0.89177981632E+03  0.11082198870E+04  0.65793622570E+03 0.  0.
         13    1    3    3    0    0 -0.25806968564E+03 -0.20395567966E+03 -0.45385819131E+03  0.56052220271E+03  0.00000000000E+00 0.  1.
          3    1    3    3  501    0  0.25807368161E+03  0.20394945106E+03 -0.43792162501E+03  0.54769768429E+03  0.00000000000E+00 0.  1.
         21    1    1    2  502  501 -0.39959792504E-02  0.62286005081E-02  0.92145348312E-01  0.92442027942E-01  0.00000000000E+00 0.  1.
<mgrwt>
<rscale>  1 0.65793623E+03</rscale>
<asrwt>0</asrwt>
<pdfrwt beam="1">  1        1 0.39386385E+00 0.65793623E+03</pdfrwt>
<pdfrwt beam="2">0</pdfrwt>
<totfact> 0.14225768E+00</totfact>
</mgrwt>
</event>
<event>
 6    1  0.3877548E-003  0.5771355E+03  0.7818608E-02  0.9954012E-01
          1   -1    0    0  502    0  0.00000000000E+00  0.00000000000E+00  0.83274204191E+02  0.83274204191E+02  0.00000000000E+00 0.  1.
         13   -1    0    0    0    0 -0.00000000000E+00 -0.00000000000E+00 -0.10000000000E+04  0.10000000000E+04  0.00000000000E+00 0.  1.
    9000005    2    1    2  501    0 -0.11314114585E-03  0.95301982032E-04 -0.91672864023E+03  0.10832713559E+04  0.57713553933E+03 0.  0.
         13    1    3    3    0    0  0.27502532476E+03 -0.12704936591E+02 -0.62060061145E+03  0.67892964554E+03  0.00000000000E+00 0.  1.
          3    1    3    3  501    0 -0.27502543790E+03  0.12705031893E+02 -0.29612802878E+03  0.40434171038E+03  0.00000000000E+00 0.  1.
         21    1    1    2  502  501  0.11314114585E-03 -0.95301982034E-04  0.28444194167E-02  0.28482635420E-02  0.00000000000E+00 0. -1.
<mgrwt>
<rscale>  1 0.57713554E+03</rscale>
<asrwt>0</asrwt>
<pdfrwt beam="1">  1        1 0.30281593E+00 0.57713554E+03</pdfrwt>
<pdfrwt beam="2">0</pdfrwt>
<totfact> 0.36026211E+00</totfact>
</mgrwt>
</event>
<event>
 6    1  0.3877548E-003  0.6429001E+03  0.7818608E-02  0.9820194E-01
          1   -1    0    0  502    0  0.00000000000E+00  0.00000000000E+00  0.10333225068E+03  0.10333225068E+03  0.00000000000E+00 0.  1.
         13   -1    0    0    0    0 -0.00000000000E+00 -0.00000000000E+00 -0.10000000000E+04  0.10000000000E+04  0.00000000000E+00 0.  1.
    9000005    2    1    2  501    0 -0.90191517955E-04  0.65207145809E-04 -0.89666986773E+03  0.11033301294E+04  0.64290008761E+03 0.  0.
         13    1    3    3    0    0  0.17527768303E+03  0.20975476924E+03 -0.73862152824E+03  0.78757926037E+03  0.00000000000E+00 0.  1.
          1    1    3    3  501    0 -0.17527777322E+03 -0.20975470403E+03 -0.15804833948E+03  0.31575086898E+03  0.00000000000E+00 0.  1.
         21    1    1    2  502  501  0.90191517971E-04 -0.65207145820E-04  0.21184101230E-02  0.21213316410E-02  0.00000000000E+00 0. -1.
<mgrwt>
<rscale>  1 0.64290009E+03</rscale>
<asrwt>0</asrwt>
<pdfrwt beam="1">  1        1 0.37575443E+00 0.64290009E+03</pdfrwt>
<pdfrwt beam="2">0</pdfrwt>
<totfact> 0.17154609E+00</totfact>
</mgrwt>
</event>
<event>
 6    1  0.3877548E-003  0.6508519E+03  0.7818608E-02  0.9805182E-01
          1   -1    0    0  502    0  0.00000000000E+00  0.00000000000E+00  0.10592633833E+03  0.10592633833E+03  0.00000000000E+00 0.  1.
         13   -1    0    0    0    0 -0.00000000000E+00 -0.00000000000E+00 -0.10000000000E+04  0.10000000000E+04  0.00000000000E+00 0.  1.
    9000005    2    1    2  501    0 -0.11571234314E-01  0.34342772466E-01 -0.89408199356E+03  0.11058891531E+04  0.65085190824E+03 0.  0.
         13    1    3    3    0    0  0.23339552581E+03 -0.22386592976E+03 -0.38570298826E+03  0.50334503190E+03  0.00000000000E+00 0.  1.
          1    1    3    3  501    0 -0.23340709705E+03  0.22390027254E+03 -0.50837900530E+03  0.60254412122E+03  0.00000000000E+00 0.  1.
         21    1    1    2  502  501  0.11571234314E-01 -0.34342772466E-01  0.83318878895E-02  0.37185209963E-01  0.00000000000E+00 0. -1.
<mgrwt>
<rscale>  1 0.65085191E+03</rscale>
<asrwt>0</asrwt>
<pdfrwt beam="1">  1        1 0.38518750E+00 0.65085191E+03</pdfrwt>
<pdfrwt beam="2">0</pdfrwt>
<totfact> 0.15563760E+00</totfact>
</mgrwt>
</event>
<event>
 6    1  0.3877548E-003  0.6530797E+03  0.7818608E-02  0.9801018E-01
          1   -1    0    0  502    0  0.00000000000E+00  0.00000000000E+00  0.11099360281E+03  0.11099360281E+03  0.00000000000E+00 0.  1.
         13   -1    0    0    0    0 -0.00000000000E+00 -0.00000000000E+00 -0.10000000000E+04  0.10000000000E+04  0.00000000000E+00 0.  1.
    9000005    2    1    2  501    0  0.22165907511E+00  0.11444185575E+01 -0.89328545763E+03  0.11065586073E+04  0.65307861995E+03 0.  0.
         13    1    3    3    0    0  0.15673713792E+03 -0.21225876361E+03 -0.12117231994E+03  0.29034986525E+03  0.00000000000E+00 0.  1.
          1    1    3    3  501    0 -0.15651547884E+03  0.21340318216E+03 -0.77211313769E+03  0.81620874209E+03  0.00000000000E+00 0.  1.
         21    1    1    2  502  501 -0.22165907511E+00 -0.11444185575E+01  0.42790604432E+01  0.44349954743E+01  0.00000000000E+00 0. -1.
<mgrwt>
<rscale>  1 0.65307966E+03</rscale>
<asrwt>0</asrwt>
<pdfrwt beam="1">  1        1 0.40361395E+00 0.65307966E+03</pdfrwt>
<pdfrwt beam="2">0</pdfrwt>
<totfact> 0.12883526E+00</totfact>
</mgrwt>
</event>
<event>
 6    1  0.3877548E-003  0.6863898E+03  0.7818608E-02  0.9740795E-01
          1   -1    0    0  502    0  0.00000000000E+00  0.00000000000E+00  0.11778375811E+03  0.11778375811E+03  0.00000000000E+00 0.  1.
         13   -1    0    0    0    0 -0.00000000000E+00 -0.00000000000E+00 -0.10000000000E+04  0.10000000000E+04  0.00000000000E+00 0.  1.
    9000005    2    1    2  501    0  0.12340459995E-03 -0.19386685202E-04 -0.88221725657E+03  0.11177827358E+04  0.68638979930E+03 0.  0.
         13    1    3    3    0    0 -0.24330344046E+03 -0.17178496810E+01 -0.46948072287E+02  0.24779757190E+03  0.00000000000E+00 0.  1.
          1    1    3    3  501    0  0.24330356387E+03  0.17178302943E+01 -0.83526918429E+03  0.86998516387E+03  0.00000000000E+00 0.  1.
         21    1    1    2  502  501 -0.12340459995E-03  0.19386685202E-04  0.10146795364E-02  0.10223400121E-02  0.00000000000E+00 0. -1.
<mgrwt>
<rscale>  1 0.68638980E+03</rscale>
<asrwt>0</asrwt>
<pdfrwt beam="1">  1        1 0.42830548E+00 0.68638980E+03</pdfrwt>
<pdfrwt beam="2">0</pdfrwt>
<totfact> 0.99106332E-01</totfact>
</mgrwt>
</event>
<event>
 6    1  0.3877548E-003  0.6505979E+03  0.7818608E-02  0.9805658E-01
          1   -1    0    0  502    0  0.00000000000E+00  0.00000000000E+00  0.10594896585E+03  0.10594896585E+03  0.00000000000E+00 0.  1.
         13   -1    0    0    0    0 -0.00000000000E+00 -0.00000000000E+00 -0.10000000000E+04  0.10000000000E+04  0.00000000000E+00 0.  1.
    9000005    2    1    2  501    0  0.15976003292E+00 -0.12181638822E+00 -0.89408815055E+03  0.11057446618E+04  0.65059787571E+03 0.  0.
         13    1    3    3    0    0 -0.26856317259E+03 -0.60516707342E+02 -0.74132273020E+03  0.79078937768E+03  0.00000000000E+00 0.  1.
          1    1    3    3  501    0  0.26872293262E+03  0.60394890954E+02 -0.15276542035E+03  0.31495528417E+03  0.00000000000E+00 0.  1.
         21    1    1    2  502  501 -0.15976003292E+00  0.12181638822E+00  0.37116405449E-01  0.20430400904E+00  0.00000000000E+00 0. -1.
<mgrwt>
<rscale>  1 0.65059791E+03</rscale>
<asrwt>0</asrwt>
<pdfrwt beam="1">  1        1 0.38526978E+00 0.65059791E+03</pdfrwt>
<pdfrwt beam="2">0</pdfrwt>
<totfact> 0.15551451E+00</totfact>
</mgrwt>
</event>
<event>
 6    1  0.3877548E-003  0.6480363E+03  0.7818608E-02  0.9810471E-01
          1   -1    0    0  502    0  0.00000000000E+00  0.00000000000E+00  0.10513499986E+03  0.10513499986E+03  0.00000000000E+00 0.  1.
         13   -1    0    0    0    0 -0.00000000000E+00 -0.00000000000E+00 -0.10000000000E+04  0.10000000000E+04  0.00000000000E+00 0.  1.
    9000005    2    1    2  501    0 -0.12683517756E-02  0.13954268694E-01 -0.89501185656E+03  0.11049874765E+04  0.64803634132E+03 0.  0.
         13    1    3    3    0    0  0.66081533441E+02 -0.17075354252E+03 -0.90332223814E+03  0.92169116696E+03  0.00000000000E+00 0.  1.
          3    1    3    3  501    0 -0.66082801793E+02  0.17076749679E+03  0.83103815765E+01  0.18329630955E+03  0.00000000000E+00 0.  1.
         21    1    1    2  502  501  0.12683517756E-02 -0.13954268694E-01  0.14685641735E+00  0.14752334611E+00  0.00000000000E+00 0. -1.
<mgrwt>
<rscale>  1 0.64803634E+03</rscale>
<asrwt>0</asrwt>
<pdfrwt beam="1">  1        1 0.38230990E+00 0.64803634E+03</pdfrwt>
<pdfrwt beam="2">0</pdfrwt>
<totfact> 0.16034681E+00</totfact>
</mgrwt>
</event>
<event>
 6    1  0.3877548E-003  0.6533280E+03  0.7818608E-02  0.9800554E-01
          1   -1    0    0  502    0  0.00000000000E+00  0.00000000000E+00  0.10670961552E+03  0.10670961552E+03  0.00000000000E+00 0.  1.
         13   -1    0    0    0    0 -0.00000000000E+00 -0.00000000000E+00 -0.10000000000E+04  0.10000000000E+04  0.00000000000E+00 0.  1.
    9000005    2    1    2  501    0 -0.18528635024E-04  0.48834384813E-04 -0.89329064456E+03  0.11067093502E+04  0.65332795001E+03 0.  0.
         13    1    3    3    0    0 -0.65187308878E+02  0.31382578104E+03 -0.55342327855E+03  0.63954150086E+03  0.00000000000E+00 0.  1.
          1    1    3    3  501    0  0.65187290350E+02 -0.31382573221E+03 -0.33986736601E+03  0.46716784938E+03  0.00000000000E+00 0.  1.
         21    1    1    2  502  501  0.18528635026E-04 -0.48834384838E-04  0.26007815510E-03  0.26527109571E-03  0.00000000000E+00 0. -1.
<mgrwt>
<rscale>  1 0.65332795E+03</rscale>
<asrwt>0</asrwt>
<pdfrwt beam="1">  1        1 0.38803578E+00 0.65332795E+03</pdfrwt>
<pdfrwt beam="2">0</pdfrwt>
<totfact> 0.15111465E+00</totfact>
</mgrwt>
</event>
<event>
 6    1  0.3877548E-003  0.6486788E+03  0.7818608E-02  0.9809261E-01
          1   -1    0    0  502    0  0.00000000000E+00  0.00000000000E+00  0.10525058600E+03  0.10525058600E+03  0.00000000000E+00 0.  1.
         13   -1    0    0    0    0 -0.00000000000E+00 -0.00000000000E+00 -0.10000000000E+04  0.10000000000E+04  0.00000000000E+00 0.  1.
    9000005    2    1    2  501    0 -0.62943364118E-02  0.36776484242E-02 -0.89480368288E+03  0.11051958297E+04  0.64867880416E+03 0.  0.
         13    1    3    3    0    0  0.31738853529E+03 -0.64867586398E+02 -0.42042991707E+03  0.53075851502E+03  0.00000000000E+00 0.  1.
          1    1    3    3  501    0 -0.31739482963E+03  0.64871264046E+02 -0.47437376582E+03  0.57443731465E+03  0.00000000000E+00 0.  1.
         21    1    1    2  502  501  0.62943364117E-02 -0.36776484242E-02  0.54268884606E-01  0.54756329362E-01  0.00000000000E+00 0. -1.
<mgrwt>
<rscale>  1 0.64867880E+03</rscale>
<asrwt>0</asrwt>
<pdfrwt beam="1">  1        1 0.38273021E+00 0.64867880E+03</pdfrwt>
<pdfrwt beam="2">0</pdfrwt>
<totfact> 0.15964381E+00</totfact>
</mgrwt>
</event>
<event>
 6    1  0.3877548E-003  0.6568228E+03  0.7818608E-02  0.9794060E-01
          1   -1    0    0  502    0  0.00000000000E+00  0.00000000000E+00  0.10791648852E+03  0.10791648852E+03  0.00000000000E+00 0.  1.
         13   -1    0    0    0    0 -0.00000000000E+00 -0.00000000000E+00 -0.10000000000E+04  0.10000000000E+04  0.00000000000E+00 0.  1.
    9000005    2    1    2  501    0 -0.68753226087E-03 -0.22866927581E-02 -0.89214592197E+03  0.11078540324E+04  0.65682281549E+03 0.  0.
         13    1    3    3    0    0  0.67186242876E+02 -0.22233375886E+03 -0.54456658715E+02  0.23856198196E+03  0.00000000000E+00 0.  1.
          3    1    3    3  501    0 -0.67186930408E+02  0.22233147217E+03 -0.83768926325E+03  0.86929205041E+03  0.00000000000E+00 0.  1.
         21    1    1    2  502  501  0.68753226087E-03  0.22866927581E-02  0.62410490368E-01  0.62456152398E-01  0.00000000000E+00 0. -1.
<mgrwt>
<rscale>  1 0.65682282E+03</rscale>
<asrwt>0</asrwt>
<pdfrwt beam="1">  1        1 0.39242442E+00 0.65682282E+03</pdfrwt>
<pdfrwt beam="2">0</pdfrwt>
<totfact> 0.14439759E+00</totfact>
</mgrwt>
</event>
<event>
 6    1  0.3877548E-003  0.6712561E+03  0.7818608E-02  0.9767691E-01
          1   -1    0    0  502    0  0.00000000000E+00  0.00000000000E+00  0.11320435753E+03  0.11320435753E+03  0.00000000000E+00 0.  1.
         13   -1    0    0    0    0 -0.00000000000E+00 -0.00000000000E+00 -0.10000000000E+04  0.10000000000E+04  0.00000000000E+00 0.  1.
    9000005    2    1    2  501    0  0.27859671965E-01  0.18135429517E-01 -0.88735327424E+03  0.11126457358E+04  0.67125606066E+03 0.  0.
         13    1    3    3    0    0 -0.18424952287E+03  0.24337682269E+03 -0.21241595855E+03  0.37188802609E+03  0.00000000000E+00 0.  1.
          1    1    3    3  501    0  0.18427738254E+03 -0.24335868726E+03 -0.67493731568E+03  0.74075770970E+03  0.00000000000E+00 0.  1.
         21    1    1    2  502  501 -0.27859671965E-01 -0.18135429517E-01  0.55763176527E+00  0.55862173316E+00  0.00000000000E+00 0. -1.
<mgrwt>
<rscale>  1 0.67125606E+03</rscale>
<asrwt>0</asrwt>
<pdfrwt beam="1">  1        1 0.41165308E+00 0.67125606E+03</pdfrwt>
<pdfrwt beam="2">0</pdfrwt>
<totfact> 0.11817689E+00</totfact>
</mgrwt>
</event>
<event>
 6    1  0.3877548E-003  0.6525941E+03  0.7818608E-02  0.9801924E-01
          1   -1    0    0  502    0  0.00000000000E+00  0.00000000000E+00  0.10659309931E+03  0.10659309931E+03  0.00000000000E+00 0.  1.
         13   -1    0    0    0    0 -0.00000000000E+00 -0.00000000000E+00 -0.10000000000E+04  0.10000000000E+04  0.00000000000E+00 0.  1.
    9000005    2    1    2  501    0 -0.42856719270E-01 -0.12506602286E-01 -0.89352576540E+03  0.11064661271E+04  0.65259405074E+03 0.  0.
         13    1    3    3    0    0  0.23889883959E+03 -0.34319223296E+02 -0.74469581175E+02  0.25257906319E+03  0.00000000000E+00 0.  1.
          1    1    3    3  501    0 -0.23894169631E+03  0.34306716694E+02 -0.81905618423E+03  0.85388706394E+03  0.00000000000E+00 0.  1.
         21    1    1    2  502  501  0.42856719270E-01  0.12506602286E-01  0.11886471148E+00  0.12697217460E+00  0.00000000000E+00 0. -1.
<mgrwt>
<rscale>  1 0.65259405E+03</rscale>
<asrwt>0</asrwt>
<pdfrwt beam="1">  1        1 0.38761209E+00 0.65259405E+03</pdfrwt>
<pdfrwt beam="2">0</pdfrwt>
<totfact> 0.15178974E+00</totfact>
</mgrwt>
</event>
<event>
 6    1  0.3877548E-003  0.6417400E+03  0.7818608E-02  0.9822403E-01
          1   -1    0    0  502    0  0.00000000000E+00  0.00000000000E+00  0.11670192767E+03  0.11670192767E+03  0.00000000000E+00 0.  1.
         13   -1    0    0    0    0 -0.00000000000E+00 -0.00000000000E+00 -0.10000000000E+04  0.10000000000E+04  0.00000000000E+00 0.  1.
    9000005    2    1    2  501    0 -0.40911533386E+00 -0.25493982170E+00 -0.89703776636E+03  0.11029537801E+04  0.64173986503E+03 0.  0.
         13    1    3    3    0    0 -0.53243878135E+02 -0.17301758490E+03  0.68833141454E+01  0.18115566582E+03  0.00000000000E+00 0.  1.
          3    1    3    3  501    0  0.52834762801E+02  0.17276264508E+03 -0.90392108051E+03  0.92179811428E+03  0.00000000000E+00 0.  1.
         21    1    1    2  502  501  0.40911533386E+00  0.25493982170E+00  0.13739694032E+02  0.13748147576E+02  0.00000000000E+00 0. -1.
<mgrwt>
<rscale>  1 0.64174005E+03</rscale>
<asrwt>0</asrwt>
<pdfrwt beam="1">  1        1 0.42437154E+00 0.64174005E+03</pdfrwt>
<pdfrwt beam="2">0</pdfrwt>
<totfact> 0.10416748E+00</totfact>
</mgrwt>
</event>
<event>
 6    1  0.3877548E-003  0.7248045E+03  0.7818608E-02  0.9675729E-01
          1   -1    0    0  502    0  0.00000000000E+00  0.00000000000E+00  0.13477573978E+03  0.13477573978E+03  0.00000000000E+00 0.  1.
         13   -1    0    0    0    0 -0.00000000000E+00 -0.00000000000E+00 -0.10000000000E+04  0.10000000000E+04  0.00000000000E+00 0.  1.
    9000005    2    1    2  501    0 -0.99955099242E-01  0.39994318006E-01 -0.86866365534E+03  0.11313346601E+04  0.72480449463E+03 0.  0.
         13    1    3    3    0    0 -0.13883717513E+03  0.21148729353E+03 -0.29275126438E+02  0.25467561633E+03  0.00000000000E+00 0.  1.
          1    1    3    3  501    0  0.13873722003E+03 -0.21144729922E+03 -0.83938852890E+03  0.87665904377E+03  0.00000000000E+00 0.  1.
         21    1    1    2  502  501  0.99955099242E-01 -0.39994318006E-01  0.34393951243E+01  0.34410796836E+01  0.00000000000E+00 0.  1.
<mgrwt>
<rscale>  1 0.72480450E+03</rscale>
<asrwt>0</asrwt>
<pdfrwt beam="1">  1        1 0.49009463E+00 0.72480450E+03</pdfrwt>
<pdfrwt beam="2">0</pdfrwt>
<totfact> 0.50756937E-01</totfact>
</mgrwt>
</event>
