<event>
 6    1  0.7649315E-003  0.6481258E+03  0.7818608E-02  0.9810302E-01
          1   -1    0    0  502    0  0.00000000000E+00  0.00000000000E+00  0.10516647163E+03  0.10516647163E+03  0.00000000000E+00 0.  1.
         13   -1    0    0    0    0 -0.00000000000E+00 -0.00000000000E+00 -0.10000000000E+04  0.10000000000E+04  0.00000000000E+00 0.  1.
    9000005    2    1    2  501    0 -0.13387181355E+00 -0.43458113474E-01 -0.89494578741E+03  0.11049864373E+04  0.64812579365E+03 0.  0.
         13    1    3    3    0    0  0.16752426806E+03 -0.11006634273E+03 -0.88149810708E+03  0.90400104700E+03  0.00000000000E+00 0.  1.
          3    1    3    3  501    0 -0.16765813988E+03  0.11002288462E+03 -0.13447680328E+02  0.20098539030E+03  0.00000000000E+00 0.  1.
         21    1    1    2  502  501  0.13387181355E+00  0.43458113474E-01  0.11225903851E+00  0.18003433511E+00  0.00000000000E+00 0.  1.
<mgrwt>
<rscale>  1 0.64812581E+03</rscale>
<asrwt>0</asrwt>
<pdfrwt beam="1">  1        1 0.38242434E+00 0.64812581E+03</pdfrwt>
<pdfrwt beam="2">0</pdfrwt>
<totfact> 0.16015763E+00</totfact>
</mgrwt>
</event>
<event>
 6    1  0.7649315E-003  0.6213706E+03  0.7818608E-02  0.9862035E-01
          1   -1    0    0  502    0  0.00000000000E+00  0.00000000000E+00  0.96525375606E+02  0.96525375606E+02  0.00000000000E+00 0.  1.
         13   -1    0    0    0    0 -0.00000000000E+00 -0.00000000000E+00 -0.10000000000E+04  0.10000000000E+04  0.00000000000E+00 0.  1.
    9000005    2    1    2  501    0 -0.20788397705E-04  0.42951140330E-04 -0.90347460696E+03  0.10965253248E+04  0.62137059998E+03 0.  0.
         13    1    3    3    0    0 -0.22964845480E+03 -0.20354016031E+03 -0.53743542690E+03  0.61887304655E+03  0.00000000000E+00 0.  1.
          1    1    3    3  501    0  0.22964843401E+03  0.20354020326E+03 -0.36603918006E+03  0.47765227826E+03  0.00000000000E+00 0.  1.
         21    1    1    2  502  501  0.20788397711E-04 -0.42951140348E-04 -0.17433217164E-04  0.50802312913E-04  0.00000000000E+00 0.  1.
<mgrwt>
<rscale>  1 0.62137060E+03</rscale>
<asrwt>0</asrwt>
<pdfrwt beam="1">  1        1 0.35100211E+00 0.62137060E+03</pdfrwt>
<pdfrwt beam="2">0</pdfrwt>
<totfact> 0.22104906E+00</totfact>
</mgrwt>
</event>
<event>
 6    1  0.7649315E-003  0.6499993E+03  0.7818608E-02  0.9806780E-01
          3   -1    0    0  502    0  0.00000000000E+00  0.00000000000E+00  0.10562489354E+03  0.10562489354E+03  0.00000000000E+00 0.  1.
         13   -1    0    0    0    0 -0.00000000000E+00 -0.00000000000E+00 -0.10000000000E+04  0.10000000000E+04  0.00000000000E+00 0.  1.
    9000005    2    1    2  501    0 -0.36463031421E-05  0.33245140898E-04 -0.89437521463E+03  0.11056247803E+04  0.64999933101E+03 0.  0.
         13    1    3    3    0    0  0.74068986223E+02  0.73482363105E+02 -0.97073868195E+03  0.97632958628E+03  0.00000000000E+00 0.  1.
          3    1    3    3  501    0 -0.74068989869E+02 -0.73482329860E+02  0.76363467320E+02  0.12929519404E+03  0.00000000000E+00 0.  1.
         21    1    1    2  502  501  0.36463031431E-05 -0.33245140898E-04  0.10817121176E-03  0.11322343385E-03  0.00000000000E+00 0.  1.
<mgrwt>
<rscale>  1 0.64999933E+03</rscale>
<asrwt>0</asrwt>
<pdfrwt beam="1">  1        3 0.38409133E+00 0.64999933E+03</pdfrwt>
<pdfrwt beam="2">0</pdfrwt>
<totfact> 0.71817803E-02</totfact>
</mgrwt>
</event>
<event>
 6    1  0.7649315E-003  0.6608440E+03  0.7818608E-02  0.9786641E-01
          1   -1    0    0  502    0  0.00000000000E+00  0.00000000000E+00  0.10918027684E+03  0.10918027684E+03  0.00000000000E+00 0.  1.
         13   -1    0    0    0    0 -0.00000000000E+00 -0.00000000000E+00 -0.10000000000E+04  0.10000000000E+04  0.00000000000E+00 0.  1.
    9000005    2    1    2  501    0  0.18997770434E-03  0.51185539817E-04 -0.89082129524E+03  0.11091786925E+04  0.66084399962E+03 0.  0.
         13    1    3    3    0    0  0.12882702393E+03  0.66346835062E+02 -0.94382288987E+03  0.95488216658E+03  0.00000000000E+00 0.  1.
          3    1    3    3  501    0 -0.12882683395E+03 -0.66346783877E+02  0.53001594628E+02  0.15429652591E+03  0.00000000000E+00 0.  1.
         21    1    1    2  502  501 -0.18997770433E-03 -0.51185539816E-04  0.15720835087E-02  0.15843478298E-02  0.00000000000E+00 0.  1.
<mgrwt>
<rscale>  1 0.66084400E+03</rscale>
<asrwt>0</asrwt>
<pdfrwt beam="1">  1        1 0.39702003E+00 0.66084400E+03</pdfrwt>
<pdfrwt beam="2">0</pdfrwt>
<totfact> 0.13765819E+00</totfact>
</mgrwt>
</event>
<event>
 6    1  0.7649315E-003  0.6485340E+03  0.7818608E-02  0.9809534E-01
          1   -1    0    0  502    0  0.00000000000E+00  0.00000000000E+00  0.10516620179E+03  0.10516620179E+03  0.00000000000E+00 0.  1.
         13   -1    0    0    0    0 -0.00000000000E+00 -0.00000000000E+00 -0.10000000000E+04  0.10000000000E+04  0.00000000000E+00 0.  1.
    9000005    2    1    2  501    0  0.14911382314E-02 -0.75739206627E-02 -0.89484994442E+03  0.11051483052E+04  0.64853400329E+03 0.  0.
         13    1    3    3    0    0  0.16033828185E+03  0.24205688779E+03 -0.20137588804E+03  0.35334423702E+03  0.00000000000E+00 0.  1.
          3    1    3    3  501    0 -0.16033679071E+03 -0.24206446171E+03 -0.69347405637E+03  0.75180406818E+03  0.00000000000E+00 0.  1.
         21    1    1    2  502  501 -0.14911382315E-02  0.75739206627E-02  0.16146203203E-01  0.17896581945E-01  0.00000000000E+00 0. -1.
<mgrwt>
<rscale>  1 0.64853400E+03</rscale>
<asrwt>0</asrwt>
<pdfrwt beam="1">  1        1 0.38242336E+00 0.64853400E+03</pdfrwt>
<pdfrwt beam="2">0</pdfrwt>
<totfact> 0.16014718E+00</totfact>
</mgrwt>
</event>
<event>
 6    1  0.7649315E-003  0.6467978E+03  0.7818608E-02  0.9812806E-01
          1   -1    0    0  502    0  0.00000000000E+00  0.00000000000E+00  0.10533462957E+03  0.10533462957E+03  0.00000000000E+00 0.  1.
         13   -1    0    0    0    0 -0.00000000000E+00 -0.00000000000E+00 -0.10000000000E+04  0.10000000000E+04  0.00000000000E+00 0.  1.
    9000005    2    1    2  501    0  0.19123749551E-02 -0.28256823970E-01 -0.89541285436E+03  0.11045866093E+04  0.64679780216E+03 0.  0.
         13    1    3    3    0    0 -0.85130526864E+02 -0.15673489975E+03  0.12998575023E+02  0.17883511500E+03  0.00000000000E+00 0.  1.
          1    1    3    3  501    0  0.85132439239E+02  0.15670664293E+03 -0.90841142938E+03  0.92575149429E+03  0.00000000000E+00 0.  1.
         21    1    1    2  502  501 -0.19123749550E-02  0.28256823970E-01  0.74748393016E+00  0.74802027454E+00  0.00000000000E+00 0.  1.
<mgrwt>
<rscale>  1 0.64679780E+03</rscale>
<asrwt>0</asrwt>
<pdfrwt beam="1">  1        1 0.38303582E+00 0.64679780E+03</pdfrwt>
<pdfrwt beam="2">0</pdfrwt>
<totfact> 0.15920346E+00</totfact>
</mgrwt>
</event>
<event>
 6    1  0.7649315E-003  0.6501708E+03  0.7818608E-02  0.9806459E-01
          1   -1    0    0  502    0  0.00000000000E+00  0.00000000000E+00  0.10735806707E+03  0.10735806707E+03  0.00000000000E+00 0.  1.
         13   -1    0    0    0    0 -0.00000000000E+00 -0.00000000000E+00 -0.10000000000E+04  0.10000000000E+04  0.00000000000E+00 0.  1.
    9000005    2    1    2  501    0  0.38666683444E+00 -0.10799523907E+01 -0.89409993157E+03  0.11055029206E+04  0.65016975013E+03 0.  0.
         13    1    3    3    0    0  0.14163968352E+03  0.13148098097E+03 -0.26795874128E+01  0.19327759439E+03  0.00000000000E+00 0.  1.
          1    1    3    3  501    0 -0.14125301668E+03 -0.13256093336E+03 -0.89142034416E+03  0.91222532620E+03  0.00000000000E+00 0.  1.
         21    1    1    2  502  501 -0.38666683444E+00  0.10799523907E+01  0.14579986451E+01  0.18551464784E+01  0.00000000000E+00 0. -1.
<mgrwt>
<rscale>  1 0.65017076E+03</rscale>
<asrwt>0</asrwt>
<pdfrwt beam="1">  1        1 0.39039379E+00 0.65017076E+03</pdfrwt>
<pdfrwt beam="2">0</pdfrwt>
<totfact> 0.14760783E+00</totfact>
</mgrwt>
</event>
<event>
 6    1  0.7649315E-003  0.6560102E+03  0.7818608E-02  0.9795566E-01
          1   -1    0    0  502    0  0.00000000000E+00  0.00000000000E+00  0.10899281184E+03  0.10899281184E+03  0.00000000000E+00 0.  1.
         13   -1    0    0    0    0 -0.00000000000E+00 -0.00000000000E+00 -0.10000000000E+04  0.10000000000E+04  0.00000000000E+00 0.  1.
    9000005    2    1    2  501    0 -0.15839709070E+01  0.11734364655E+01 -0.89160151416E+03  0.11069338946E+04  0.65600724153E+03 0.  0.
         13    1    3    3    0    0  0.15842520088E+03  0.16291819603E+02  0.37843420377E+02  0.16369511943E+03  0.00000000000E+00 0.  1.
          1    1    3    3  501    0 -0.16000917178E+03 -0.15118383137E+02 -0.92944493454E+03  0.94323877513E+03  0.00000000000E+00 0.  1.
         21    1    1    2  502  501  0.15839709070E+01 -0.11734364655E+01  0.59432600274E+00  0.20589172811E+01  0.00000000000E+00 0.  1.
<mgrwt>
<rscale>  1 0.65601020E+03</rscale>
<asrwt>0</asrwt>
<pdfrwt beam="1">  1        1 0.39633833E+00 0.65601020E+03</pdfrwt>
<pdfrwt beam="2">0</pdfrwt>
<totfact> 0.13874857E+00</totfact>
</mgrwt>
</event>
<event>
 6    1  0.7649315E-003  0.6609237E+03  0.7818608E-02  0.9786495E-01
          1   -1    0    0  502    0  0.00000000000E+00  0.00000000000E+00  0.10920528892E+03  0.10920528892E+03  0.00000000000E+00 0.  1.
         13   -1    0    0    0    0 -0.00000000000E+00 -0.00000000000E+00 -0.10000000000E+04  0.10000000000E+04  0.00000000000E+00 0.  1.
    9000005    2    1    2  501    0  0.46784573875E-04  0.14487336102E-04 -0.89079496630E+03  0.11092050290E+04  0.66092369035E+03 0.  0.
         13    1    3    3    0    0 -0.49045947049E+02 -0.32631936581E+03 -0.47519272920E+03  0.57853086634E+03  0.00000000000E+00 0.  1.
          3    1    3    3  501    0  0.49045993834E+02  0.32631938030E+03 -0.41560223710E+03  0.53067416270E+03  0.00000000000E+00 0.  1.
         21    1    1    2  502  501 -0.46784573875E-04 -0.14487336069E-04  0.25521812796E-03  0.25987491625E-03  0.00000000000E+00 0. -1.
<mgrwt>
<rscale>  1 0.66092369E+03</rscale>
<asrwt>0</asrwt>
<pdfrwt beam="1">  1        1 0.39711098E+00 0.66092369E+03</pdfrwt>
<pdfrwt beam="2">0</pdfrwt>
<totfact> 0.13752786E+00</totfact>
</mgrwt>
</event>
<event>
 6    1  0.7649315E-003  0.5966498E+03  0.7818608E-02  0.9912381E-01
          1   -1    0    0  502    0  0.00000000000E+00  0.00000000000E+00  0.89001936652E+02  0.89001936652E+02  0.00000000000E+00 0.  1.
         13   -1    0    0    0    0 -0.00000000000E+00 -0.00000000000E+00 -0.10000000000E+04  0.10000000000E+04  0.00000000000E+00 0.  1.
    9000005    2    1    2  501    0  0.22265529782E-03 -0.56636826733E-03 -0.91100223477E+03  0.10889977211E+04  0.59664978400E+03 0.  0.
         13    1    3    3    0    0 -0.22701472583E+03 -0.13829516082E+03 -0.20834807818E+03  0.33774274075E+03  0.00000000000E+00 0.  1.
          3    1    3    3  501    0  0.22701494848E+03  0.13829459445E+03 -0.70265415659E+03  0.75125498033E+03  0.00000000000E+00 0.  1.
         21    1    1    2  502  501 -0.22265529782E-03  0.56636826735E-03  0.41714210923E-02  0.42155785280E-02  0.00000000000E+00 0.  1.
<mgrwt>
<rscale>  1 0.59664978E+03</rscale>
<asrwt>0</asrwt>
<pdfrwt beam="1">  1        1 0.32364409E+00 0.59664978E+03</pdfrwt>
<pdfrwt beam="2">0</pdfrwt>
<totfact> 0.29183944E+00</totfact>
</mgrwt>
</event>
<event>
 6    1  0.7649315E-003  0.6548325E+03  0.7818608E-02  0.9797753E-01
          3   -1    0    0  502    0  0.00000000000E+00  0.00000000000E+00  0.10721293529E+03  0.10721293529E+03  0.00000000000E+00 0.  1.
         13   -1    0    0    0    0 -0.00000000000E+00 -0.00000000000E+00 -0.10000000000E+04  0.10000000000E+04  0.00000000000E+00 0.  1.
    9000005    2    1    2  501    0 -0.10270458185E-02  0.34079545105E-03 -0.89279856792E+03  0.11072013813E+04  0.65483250977E+03 0.  0.
         13    1    3    3    0    0  0.96000514649E+02 -0.19587398639E+03 -0.85924389922E+03  0.88650030778E+03  0.00000000000E+00 0.  1.
          3    1    3    3  501    0 -0.96001541695E+02  0.19587432718E+03 -0.33554668704E+02  0.22070107351E+03  0.00000000000E+00 0.  1.
         21    1    1    2  502  501  0.10270458185E-02 -0.34079545106E-03  0.11503211496E-01  0.11553996684E-01  0.00000000000E+00 0.  1.
<mgrwt>
<rscale>  1 0.65483251E+03</rscale>
<asrwt>0</asrwt>
<pdfrwt beam="1">  1        3 0.38986604E+00 0.65483251E+03</pdfrwt>
<pdfrwt beam="2">0</pdfrwt>
<totfact> 0.66905320E-02</totfact>
</mgrwt>
</event>
<event>
 6    1  0.7649315E-003  0.6539678E+03  0.7818608E-02  0.9799362E-01
          1   -1    0    0  502    0  0.00000000000E+00  0.00000000000E+00  0.10693602289E+03  0.10693602289E+03  0.00000000000E+00 0.  1.
         13   -1    0    0    0    0 -0.00000000000E+00 -0.00000000000E+00 -0.10000000000E+04  0.10000000000E+04  0.00000000000E+00 0.  1.
    9000005    2    1    2  501    0  0.33610606151E-03 -0.19265024883E-02 -0.89308148163E+03  0.11069184095E+04  0.65396776097E+03 0.  0.
         13    1    3    3    0    0  0.11065821180E+03 -0.23224122638E+02  0.72775909476E+02  0.13446535878E+03  0.00000000000E+00 0.  1.
          3    1    3    3  501    0 -0.11065787570E+03  0.23222196136E+02 -0.96585739110E+03  0.97245305069E+03  0.00000000000E+00 0.  1.
         21    1    1    2  502  501 -0.33610606151E-03  0.19265024883E-02  0.17504513780E-01  0.17613414825E-01  0.00000000000E+00 0.  1.
<mgrwt>
<rscale>  1 0.65396776E+03</rscale>
<asrwt>0</asrwt>
<pdfrwt beam="1">  1        1 0.38885909E+00 0.65396776E+03</pdfrwt>
<pdfrwt beam="2">0</pdfrwt>
<totfact> 0.14983282E+00</totfact>
</mgrwt>
</event>
<event>
 6    1  0.7649315E-003  0.6525212E+03  0.7818608E-02  0.9802060E-01
          1   -1    0    0  502    0  0.00000000000E+00  0.00000000000E+00  0.10644691870E+03  0.10644691870E+03  0.00000000000E+00 0.  1.
         13   -1    0    0    0    0 -0.00000000000E+00 -0.00000000000E+00 -0.10000000000E+04  0.10000000000E+04  0.00000000000E+00 0.  1.
    9000005    2    1    2  501    0 -0.19038964616E-02 -0.10233970033E-03 -0.89355279946E+03  0.11064449913E+04  0.65252119769E+03 0.  0.
         13    1    3    3    0    0  0.26920862590E+03  0.16123177917E+03 -0.29533521996E+03  0.43091978723E+03  0.00000000000E+00 0.  1.
          1    1    3    3  501    0 -0.26921052980E+03 -0.16123188151E+03 -0.59821757950E+03  0.67552520411E+03  0.00000000000E+00 0.  1.
         21    1    1    2  502  501  0.19038964615E-02  0.10233970032E-03 -0.28183641157E-03  0.19273626834E-02  0.00000000000E+00 0. -1.
<mgrwt>
<rscale>  1 0.65252120E+03</rscale>
<asrwt>0</asrwt>
<pdfrwt beam="1">  1        1 0.38708052E+00 0.65252120E+03</pdfrwt>
<pdfrwt beam="2">0</pdfrwt>
<totfact> 0.15261681E+00</totfact>
</mgrwt>
</event>
<event>
 6    1  0.7649315E-003  0.6271275E+03  0.7818608E-02  0.9850670E-01
          1   -1    0    0  502    0  0.00000000000E+00  0.00000000000E+00  0.10117847815E+03  0.10117847815E+03  0.00000000000E+00 0.  1.
         13   -1    0    0    0    0 -0.00000000000E+00 -0.00000000000E+00 -0.10000000000E+04  0.10000000000E+04  0.00000000000E+00 0.  1.
    9000005    2    1    2  501    0 -0.59366405526E+00 -0.13343283828E+00 -0.90164213645E+03  0.10982929785E+04  0.62712722333E+03 0.  0.
         13    1    3    3    0    0 -0.72465901339E+02 -0.24170165371E+03 -0.12463703931E+03  0.28143451784E+03  0.00000000000E+00 0.  1.
          1    1    3    3  501    0  0.71872237284E+02  0.24156822087E+03 -0.77700509714E+03  0.81685846069E+03  0.00000000000E+00 0.  1.
         21    1    1    2  502  501  0.59366405526E+00  0.13343283828E+00  0.28206145980E+01  0.28854996176E+01  0.00000000000E+00 0.  1.
<mgrwt>
<rscale>  1 0.62712752E+03</rscale>
<asrwt>0</asrwt>
<pdfrwt beam="1">  1        1 0.36792251E+00 0.62712752E+03</pdfrwt>
<pdfrwt beam="2">0</pdfrwt>
<totfact> 0.18623344E+00</totfact>
</mgrwt>
</event>
<event>
 6    1  0.7649315E-003  0.6379624E+03  0.7818608E-02  0.9829633E-01
          1   -1    0    0  502    0  0.00000000000E+00  0.00000000000E+00  0.10261816873E+03  0.10261816873E+03  0.00000000000E+00 0.  1.
         13   -1    0    0    0    0 -0.00000000000E+00 -0.00000000000E+00 -0.10000000000E+04  0.10000000000E+04  0.00000000000E+00 0.  1.
    9000005    2    1    2  501    0 -0.10949758682E+00  0.17275327465E-01 -0.89824709949E+03  0.11017458286E+04  0.63796238672E+03 0.  0.
         13    1    3    3    0    0 -0.16279927234E+03  0.22180853205E+03 -0.17034073236E+03  0.32360252327E+03  0.00000000000E+00 0.  1.
          1    1    3    3  501    0  0.16268977476E+03 -0.22179125672E+03 -0.72790636713E+03  0.77814330536E+03  0.00000000000E+00 0.  1.
         21    1    1    2  502  501  0.10949758682E+00 -0.17275327465E-01  0.86526822102E+00  0.87234010155E+00  0.00000000000E+00 0.  1.
<mgrwt>
<rscale>  1 0.63796240E+03</rscale>
<asrwt>0</asrwt>
<pdfrwt beam="1">  1        1 0.37315776E+00 0.63796240E+03</pdfrwt>
<pdfrwt beam="2">0</pdfrwt>
<totfact> 0.17627889E+00</totfact>
</mgrwt>
</event>
<event>
 6    1  0.7649315E-003  0.6494953E+03  0.7818608E-02  0.9807727E-01
          1   -1    0    0  502    0  0.00000000000E+00  0.00000000000E+00  0.10546104865E+03  0.10546104865E+03  0.00000000000E+00 0.  1.
         13   -1    0    0    0    0 -0.00000000000E+00 -0.00000000000E+00 -0.10000000000E+04  0.10000000000E+04  0.00000000000E+00 0.  1.
    9000005    2    1    2  501    0  0.41920787197E-06  0.52313220607E-04 -0.89453894183E+03  0.11054609955E+04  0.64949526102E+03 0.  0.
         13    1    3    3    0    0 -0.56399024856E+02  0.14385339052E+03  0.38887215191E+02  0.15933255622E+03  0.00000000000E+00 0.  1.
          1    1    3    3  501    0  0.56399025275E+02 -0.14385333820E+03 -0.93342615702E+03  0.94612843926E+03  0.00000000000E+00 0.  1.
         21    1    1    2  502  501 -0.41920786968E-06 -0.52313220591E-04 -0.95207338832E-05  0.53174177545E-04  0.00000000000E+00 0.  1.
<mgrwt>
<rscale>  1 0.64949526E+03</rscale>
<asrwt>0</asrwt>
<pdfrwt beam="1">  1        1 0.38349553E+00 0.64949526E+03</pdfrwt>
<pdfrwt beam="2">0</pdfrwt>
<totfact> 0.15838161E+00</totfact>
</mgrwt>
</event>
<event>
 6    1  0.7649315E-003  0.6384080E+03  0.7818608E-02  0.9828777E-01
          1   -1    0    0  502    0  0.00000000000E+00  0.00000000000E+00  0.10192079453E+03  0.10192079453E+03  0.00000000000E+00 0.  1.
         13   -1    0    0    0    0 -0.00000000000E+00 -0.00000000000E+00 -0.10000000000E+04  0.10000000000E+04  0.00000000000E+00 0.  1.
    9000005    2    1    2  501    0  0.25734291203E-02  0.94390961405E-03 -0.89810872844E+03  0.11018911446E+04  0.63840802501E+03 0.  0.
         13    1    3    3    0    0 -0.72560456988E+02  0.23003252186E+02 -0.98410474145E+03  0.98704422985E+03  0.00000000000E+00 0.  1.
          3    1    3    3  501    0  0.72563030417E+02 -0.23002308277E+02  0.85996013011E+02  0.11484691473E+03  0.00000000000E+00 0.  1.
         21    1    1    2  502  501 -0.25734291203E-02 -0.94390961405E-03  0.29522970693E-01  0.29649946060E-01  0.00000000000E+00 0.  1.
<mgrwt>
<rscale>  1 0.63840803E+03</rscale>
<asrwt>0</asrwt>
<pdfrwt beam="1">  1        1 0.37062185E+00 0.63840803E+03</pdfrwt>
<pdfrwt beam="2">0</pdfrwt>
<totfact> 0.18084693E+00</totfact>
</mgrwt>
</event>
<event>
 6    1  0.1031921E-002  0.6418128E+03  0.7818608E-02  0.9822264E-01
          1   -1    0    0  502    0  0.00000000000E+00  0.00000000000E+00  0.10298091112E+03  0.10298091112E+03  0.00000000000E+00 0.  1.
         13   -1    0    0    0    0 -0.00000000000E+00 -0.00000000000E+00 -0.10000000000E+04  0.10000000000E+04  0.00000000000E+00 0.  1.
    9000005    2    1    2  501    0 -0.56052300579E-06 -0.27758054557E-05 -0.89701908334E+03  0.11029809049E+04  0.64181277697E+03 0.  0.
         13    1    3    3    0    0  0.20260207136E+03 -0.46714578035E+02 -0.28429122217E+02  0.20985248655E+03  0.00000000000E+00 0.  1.
          1    1    3    3  501    0 -0.20260207192E+03  0.46714575260E+02 -0.86858996112E+03  0.89312841834E+03  0.00000000000E+00 0.  1.
         21    1    1    2  502  501  0.56052300120E-06  0.27758054605E-05 -0.55460161461E-05  0.62271644496E-05  0.00000000000E+00 0. -1.
<mgrwt>
<rscale>  1 0.64181278E+03</rscale>
<asrwt>0</asrwt>
<pdfrwt beam="1">  1        1 0.37447683E+00 0.64181278E+03</pdfrwt>
<pdfrwt beam="2">0</pdfrwt>
<totfact> 0.17381662E+00</totfact>
</mgrwt>
</event>
<event>
 6    1  0.7649315E-003  0.6739320E+03  0.7818608E-02  0.9762881E-01
          1   -1    0    0  502    0  0.00000000000E+00  0.00000000000E+00  0.11477304869E+03  0.11477304869E+03  0.00000000000E+00 0.  1.
         13   -1    0    0    0    0 -0.00000000000E+00 -0.00000000000E+00 -0.10000000000E+04  0.10000000000E+04  0.00000000000E+00 0.  1.
    9000005    2    1    2  501    0  0.19312141277E-01  0.69768260545E-01 -0.88645272914E+03  0.11135451351E+04  0.67393198588E+03 0.  0.
         13    1    3    3    0    0 -0.41072378421E+02  0.24309716348E+03 -0.82285480215E+03  0.85899545784E+03  0.00000000000E+00 0.  1.
          1    1    3    3  501    0  0.41091690562E+02 -0.24302739522E+03 -0.63597926993E+02  0.25454967723E+03  0.00000000000E+00 0.  1.
         21    1    1    2  502  501 -0.19312141277E-01 -0.69768260545E-01  0.12257778331E+01  0.12279136229E+01  0.00000000000E+00 0. -1.
<mgrwt>
<rscale>  1 0.67393199E+03</rscale>
<asrwt>0</asrwt>
<pdfrwt beam="1">  1        1 0.41735742E+00 0.67393199E+03</pdfrwt>
<pdfrwt beam="2">0</pdfrwt>
<totfact> 0.11134022E+00</totfact>
</mgrwt>
</event>
<event>
 6    1  0.7649315E-003  0.6525920E+03  0.7818608E-02  0.9801928E-01
          1   -1    0    0  502    0  0.00000000000E+00  0.00000000000E+00  0.10662316037E+03  0.10662316037E+03  0.00000000000E+00 0.  1.
         13   -1    0    0    0    0 -0.00000000000E+00 -0.00000000000E+00 -0.10000000000E+04  0.10000000000E+04  0.00000000000E+00 0.  1.
    9000005    2    1    2  501    0  0.22011866423E-01 -0.12539798786E-01 -0.89352976539E+03  0.11064681505E+04  0.65259200563E+03 0.  0.
         13    1    3    3    0    0  0.61545770976E+02 -0.30947928806E+03 -0.30584538745E+03  0.43943908871E+03  0.00000000000E+00 0.  1.
          3    1    3    3  501    0 -0.61523759110E+02  0.30946674826E+03 -0.58768437794E+03  0.66702906180E+03  0.00000000000E+00 0.  1.
         21    1    1    2  502  501 -0.22011866423E-01  0.12539798786E-01  0.15292575970E+00  0.15500986032E+00  0.00000000000E+00 0. -1.
<mgrwt>
<rscale>  1 0.65259201E+03</rscale>
<asrwt>0</asrwt>
<pdfrwt beam="1">  1        1 0.38772140E+00 0.65259201E+03</pdfrwt>
<pdfrwt beam="2">0</pdfrwt>
<totfact> 0.15162066E+00</totfact>
</mgrwt>
</event>
<event>
 6    1  0.7649315E-003  0.6579759E+03  0.7818608E-02  0.9791927E-01
          1   -1    0    0  502    0  0.00000000000E+00  0.00000000000E+00  0.10835652675E+03  0.10835652675E+03  0.00000000000E+00 0.  1.
         13   -1    0    0    0    0 -0.00000000000E+00 -0.00000000000E+00 -0.10000000000E+04  0.10000000000E+04  0.00000000000E+00 0.  1.
    9000005    2    1    2  501    0 -0.32897739011E-01  0.49843274656E-01 -0.89175888608E+03  0.11082265778E+04  0.65797586067E+03 0.  0.
         13    1    3    3    0    0  0.25696606213E+03 -0.12126457397E+03 -0.72506668441E+03  0.77875435846E+03  0.00000000000E+00 0.  1.
          3    1    3    3  501    0 -0.25699895987E+03  0.12131441724E+03 -0.16669220167E+03  0.32947221932E+03  0.00000000000E+00 0.  1.
         21    1    1    2  502  501  0.32897739011E-01 -0.49843274656E-01  0.11541282521E+00  0.12994896492E+00  0.00000000000E+00 0.  1.
<mgrwt>
<rscale>  1 0.65797586E+03</rscale>
<asrwt>0</asrwt>
<pdfrwt beam="1">  1        1 0.39402456E+00 0.65797586E+03</pdfrwt>
<pdfrwt beam="2">0</pdfrwt>
<totfact> 0.14202286E+00</totfact>
</mgrwt>
</event>
<event>
 6    1  0.7649315E-003  0.6478871E+03  0.7818608E-02  0.9810752E-01
          1   -1    0    0  502    0  0.00000000000E+00  0.00000000000E+00  0.10493948722E+03  0.10493948722E+03  0.00000000000E+00 0.  1.
         13   -1    0    0    0    0 -0.00000000000E+00 -0.00000000000E+00 -0.10000000000E+04  0.10000000000E+04  0.00000000000E+00 0.  1.
    9000005    2    1    2  501    0 -0.12750434678E-04  0.21930149643E-04 -0.89506056861E+03  0.11049394259E+04  0.64788711472E+03 0.  0.
         13    1    3    3    0    0  0.31399858863E+03 -0.48923906659E+02 -0.34033404517E+03  0.46563496927E+03  0.00000000000E+00 0.  1.
          3    1    3    3  501    0 -0.31399860138E+03  0.48923928589E+02 -0.55472652344E+03  0.63930445663E+03  0.00000000000E+00 0.  1.
         21    1    1    2  502  501  0.12750434696E-04 -0.21930149643E-04  0.55826596998E-04  0.61319768270E-04  0.00000000000E+00 0.  1.
<mgrwt>
<rscale>  1 0.64788711E+03</rscale>
<asrwt>0</asrwt>
<pdfrwt beam="1">  1        1 0.38159894E+00 0.64788711E+03</pdfrwt>
<pdfrwt beam="2">0</pdfrwt>
<totfact> 0.16151474E+00</totfact>
</mgrwt>
</event>
<event>
 6    1  0.7649315E-003  0.6481183E+03  0.7818608E-02  0.9810316E-01
          1   -1    0    0  502    0  0.00000000000E+00  0.00000000000E+00  0.10502082482E+03  0.10502082482E+03  0.00000000000E+00 0.  1.
         13   -1    0    0    0    0 -0.00000000000E+00 -0.00000000000E+00 -0.10000000000E+04  0.10000000000E+04  0.00000000000E+00 0.  1.
    9000005    2    1    2  501    0  0.33040258538E-02  0.11732559620E-02 -0.89498512674E+03  0.11050139173E+04  0.64811833817E+03 0.  0.
         13    1    3    3    0    0 -0.66632011573E+02 -0.25840706595E+03 -0.13403990885E+03  0.29863143482E+03  0.00000000000E+00 0.  1.
          3    1    3    3  501    0  0.66635315599E+02  0.25840823921E+03 -0.76094521789E+03  0.80638248245E+03  0.00000000000E+00 0.  1.
         21    1    1    2  502  501 -0.33040258538E-02 -0.11732559620E-02  0.59515605299E-02  0.69075458114E-02  0.00000000000E+00 0.  1.
<mgrwt>
<rscale>  1 0.64811834E+03</rscale>
<asrwt>0</asrwt>
<pdfrwt beam="1">  1        1 0.38189471E+00 0.64811834E+03</pdfrwt>
<pdfrwt beam="2">0</pdfrwt>
<totfact> 0.16102286E+00</totfact>
</mgrwt>
</event>
<event>
 6    1  0.7649315E-003  0.5595236E+03  0.7818608E-02  0.9993133E-01
          1   -1    0    0  502    0  0.00000000000E+00  0.00000000000E+00  0.83418646434E+02  0.83418646434E+02  0.00000000000E+00 0.  1.
         13   -1    0    0    0    0 -0.00000000000E+00 -0.00000000000E+00 -0.10000000000E+04  0.10000000000E+04  0.00000000000E+00 0.  1.
    9000005    2    1    2  501    0  0.12010236468E+01 -0.27651959430E+01 -0.92125454847E+03  0.10778573950E+04  0.55951544412E+03 0.  0.
         13    1    3    3    0    0 -0.16335005758E+03 -0.15179208897E+03 -0.78797271313E+03  0.81891701424E+03  0.00000000000E+00 0.  1.
          1    1    3    3  501    0  0.16455108123E+03  0.14902689302E+03 -0.13328183534E+03  0.25894038080E+03  0.00000000000E+00 0.  1.
         21    1    1    2  502  501 -0.12010236468E+01  0.27651959430E+01  0.46731949037E+01  0.55612513890E+01  0.00000000000E+00 0. -1.
<mgrwt>
<rscale>  1 0.55952357E+03</rscale>
<asrwt>0</asrwt>
<pdfrwt beam="1">  1        1 0.30334117E+00 0.55952357E+03</pdfrwt>
<pdfrwt beam="2">0</pdfrwt>
<totfact> 0.35952100E+00</totfact>
</mgrwt>
</event>
<event>
 6    1  0.7649315E-003  0.6535570E+03  0.7818608E-02  0.9800128E-01
          1   -1    0    0  502    0  0.00000000000E+00  0.00000000000E+00  0.10681560179E+03  0.10681560179E+03  0.00000000000E+00 0.  1.
         13   -1    0    0    0    0 -0.00000000000E+00 -0.00000000000E+00 -0.10000000000E+04  0.10000000000E+04  0.00000000000E+00 0.  1.
    9000005    2    1    2  501    0  0.51237352915E-03  0.12998218756E-02 -0.89321580827E+03  0.11067841607E+04  0.65355695861E+03 0.  0.
         13    1    3    3    0    0 -0.12781752256E+02 -0.13708438223E+03 -0.94848440677E+03  0.95842483844E+03  0.00000000000E+00 0.  1.
          1    1    3    3  501    0  0.12782264629E+02  0.13708568205E+03  0.55268598501E+02  0.14835932223E+03  0.00000000000E+00 0.  1.
         21    1    1    2  502  501 -0.51237352916E-03 -0.12998218756E-02  0.31410065493E-01  0.31441123991E-01  0.00000000000E+00 0.  1.
<mgrwt>
<rscale>  1 0.65355696E+03</rscale>
<asrwt>0</asrwt>
<pdfrwt beam="1">  1        1 0.38842119E+00 0.65355696E+03</pdfrwt>
<pdfrwt beam="2">0</pdfrwt>
<totfact> 0.15051527E+00</totfact>
</mgrwt>
</event>
<event>
 6    1  0.7649315E-003  0.6526003E+03  0.7818608E-02  0.9801912E-01
          1   -1    0    0  502    0  0.00000000000E+00  0.00000000000E+00  0.10647189138E+03  0.10647189138E+03  0.00000000000E+00 0.  1.
         13   -1    0    0    0    0 -0.00000000000E+00 -0.00000000000E+00 -0.10000000000E+04  0.10000000000E+04  0.00000000000E+00 0.  1.
    9000005    2    1    2  501    0  0.15251461419E-03 -0.62849555775E-04 -0.89352811661E+03  0.11064717262E+04  0.65260032622E+03 0.  0.
         13    1    3    3    0    0 -0.48902376511E+02  0.31339899578E+03 -0.31695835697E+03  0.44841161118E+03  0.00000000000E+00 0.  1.
          3    1    3    3  501    0  0.48902529026E+02 -0.31339905863E+03 -0.57656975964E+03  0.65806011505E+03  0.00000000000E+00 0.  1.
         21    1    1    2  502  501 -0.15251461419E-03  0.62849555808E-04  0.79954447584E-05  0.16515054146E-03  0.00000000000E+00 0.  1.
<mgrwt>
<rscale>  1 0.65260033E+03</rscale>
<asrwt>0</asrwt>
<pdfrwt beam="1">  1        1 0.38717133E+00 0.65260033E+03</pdfrwt>
<pdfrwt beam="2">0</pdfrwt>
<totfact> 0.15247333E+00</totfact>
</mgrwt>
</event>
<event>
 6    1  0.7649315E-003  0.6427812E+03  0.7818608E-02  0.9820420E-01
          1   -1    0    0  502    0  0.00000000000E+00  0.00000000000E+00  0.10334348604E+03  0.10334348604E+03  0.00000000000E+00 0.  1.
         13   -1    0    0    0    0 -0.00000000000E+00 -0.00000000000E+00 -0.10000000000E+04  0.10000000000E+04  0.00000000000E+00 0.  1.
    9000005    2    1    2  501    0  0.12741979430E-02  0.56397657963E-02 -0.89670789250E+03  0.11032917832E+04  0.64278123364E+03 0.  0.
         13    1    3    3    0    0  0.89495184986E+02 -0.17152465057E+03 -0.88884740925E+03  0.90965917289E+03  0.00000000000E+00 0.  1.
          1    1    3    3  501    0 -0.89493910788E+02  0.17153029034E+03 -0.78604832536E+01  0.19363261029E+03  0.00000000000E+00 0.  1.
         21    1    1    2  502  501 -0.12741979430E-02 -0.56397657963E-02  0.51378540714E-01  0.51702852770E-01  0.00000000000E+00 0. -1.
<mgrwt>
<rscale>  1 0.64278123E+03</rscale>
<asrwt>0</asrwt>
<pdfrwt beam="1">  1        1 0.37579529E+00 0.64278123E+03</pdfrwt>
<pdfrwt beam="2">0</pdfrwt>
<totfact> 0.17147877E+00</totfact>
</mgrwt>
</event>
<event>
 6    1  0.7649315E-003  0.6508908E+03  0.7818608E-02  0.9805109E-01
          1   -1    0    0  502    0  0.00000000000E+00  0.00000000000E+00  0.10863934579E+03  0.10863934579E+03  0.00000000000E+00 0.  1.
         13   -1    0    0    0    0 -0.00000000000E+00 -0.00000000000E+00 -0.10000000000E+04  0.10000000000E+04  0.00000000000E+00 0.  1.
    9000005    2    1    2  501    0  0.65140331616E+01 -0.51403622960E+01 -0.88109859261E+03  0.10954421544E+04  0.65083786596E+03 0.  0.
         13    1    3    3    0    0 -0.10205758980E+03 -0.19482034980E+02  0.78119789636E+02  0.12999231845E+03  0.00000000000E+00 0.  1.
          1    1    3    3  501    0  0.10857162296E+03  0.14341672684E+02 -0.95921838225E+03  0.96544983595E+03  0.00000000000E+00 0.  1.
         21    1    1    2  502  501 -0.65140331616E+01  0.51403622960E+01 -0.10262061594E+02  0.13197191396E+02  0.00000000000E+00 0.  1.
<mgrwt>
<rscale>  1 0.65089076E+03</rscale>
<asrwt>0</asrwt>
<pdfrwt beam="1">  1        1 0.39505300E+00 0.65089076E+03</pdfrwt>
<pdfrwt beam="2">0</pdfrwt>
<totfact> 0.14072225E+00</totfact>
</mgrwt>
</event>
<event>
 6    1  0.7649315E-003  0.6505574E+03  0.7818608E-02  0.9805734E-01
          1   -1    0    0  502    0  0.00000000000E+00  0.00000000000E+00  0.10802488717E+03  0.10802488717E+03  0.00000000000E+00 0.  1.
         13   -1    0    0    0    0 -0.00000000000E+00 -0.00000000000E+00 -0.10000000000E+04  0.10000000000E+04  0.00000000000E+00 0.  1.
    9000005    2    1    2  501    0  0.13995577003E+00  0.78460663695E+00 -0.89411435529E+03  0.11057420045E+04  0.65055688829E+03 0.  0.
         13    1    3    3    0    0 -0.26026752738E+03 -0.86153496720E+02 -0.74386984792E+03  0.79278241747E+03  0.00000000000E+00 0.  1.
          3    1    3    3  501    0  0.26040748315E+03  0.86938103357E+02 -0.15024450736E+03  0.31295958699E+03  0.00000000000E+00 0.  1.
         21    1    1    2  502  501 -0.13995577003E+00 -0.78460663695E+00  0.21392424559E+01  0.22828827121E+01  0.00000000000E+00 0. -1.
<mgrwt>
<rscale>  1 0.65055738E+03</rscale>
<asrwt>0</asrwt>
<pdfrwt beam="1">  1        1 0.39281860E+00 0.65055738E+03</pdfrwt>
<pdfrwt beam="2">0</pdfrwt>
<totfact> 0.14398508E+00</totfact>
</mgrwt>
</event>
<event>
 6    1  0.7649315E-003  0.6468011E+03  0.7818608E-02  0.9812800E-01
          1   -1    0    0  502    0  0.00000000000E+00  0.00000000000E+00  0.10459390683E+03  0.10459390683E+03  0.00000000000E+00 0.  1.
         13   -1    0    0    0    0 -0.00000000000E+00 -0.00000000000E+00 -0.10000000000E+04  0.10000000000E+04  0.00000000000E+00 0.  1.
    9000005    2    1    2  501    0 -0.14090287884E-01  0.11343178938E-02 -0.89540087119E+03  0.11045788373E+04  0.64680111889E+03 0.  0.
         13    1    3    3    0    0  0.10905425172E+03  0.30375978707E+03 -0.41253751608E+03  0.52378434515E+03  0.00000000000E+00 0.  1.
          1    1    3    3  501    0 -0.10906834200E+03 -0.30375865275E+03 -0.48286335511E+03  0.58079449211E+03  0.00000000000E+00 0.  1.
         21    1    1    2  502  501  0.14090287884E-01 -0.11343178938E-02 -0.52219767979E-02  0.15069569716E-01  0.00000000000E+00 0.  1.
<mgrwt>
<rscale>  1 0.64680112E+03</rscale>
<asrwt>0</asrwt>
<pdfrwt beam="1">  1        1 0.38034228E+00 0.64680112E+03</pdfrwt>
<pdfrwt beam="2">0</pdfrwt>
<totfact> 0.16362372E+00</totfact>
</mgrwt>
</event>
<event>
 6    1  0.7649315E-003  0.5626954E+03  0.7818608E-02  0.9985974E-01
          1   -1    0    0  502    0  0.00000000000E+00  0.00000000000E+00  0.79156561784E+02  0.79156561784E+02  0.00000000000E+00 0.  1.
         13   -1    0    0    0    0 -0.00000000000E+00 -0.00000000000E+00 -0.10000000000E+04  0.10000000000E+04  0.00000000000E+00 0.  1.
    9000005    2    1    2  501    0  0.37308574633E-04 -0.15081916729E-05 -0.92084345650E+03  0.10791565202E+04  0.56269540939E+03 0.  0.
         13    1    3    3    0    0 -0.21372707719E+03 -0.14051715984E+03 -0.68516199126E+03  0.73134895228E+03  0.00000000000E+00 0.  1.
          3    1    3    3  501    0  0.21372711450E+03  0.14051715833E+03 -0.23568146524E+03  0.34780756793E+03  0.00000000000E+00 0.  1.
         21    1    1    2  502  501 -0.37308574651E-04  0.15081916596E-05  0.18279868872E-04  0.41573525116E-04  0.00000000000E+00 0. -1.
<mgrwt>
<rscale>  1 0.56269541E+03</rscale>
<asrwt>0</asrwt>
<pdfrwt beam="1">  1        1 0.28784265E+00 0.56269541E+03</pdfrwt>
<pdfrwt beam="2">0</pdfrwt>
<totfact> 0.41908970E+00</totfact>
</mgrwt>
</event>
<event>
 6    1  0.7649315E-003  0.6471629E+03  0.7818608E-02  0.9812117E-01
          1   -1    0    0  502    0  0.00000000000E+00  0.00000000000E+00  0.10735953807E+03  0.10735953807E+03  0.00000000000E+00 0.  1.
         13   -1    0    0    0    0 -0.00000000000E+00 -0.00000000000E+00 -0.10000000000E+04  0.10000000000E+04  0.00000000000E+00 0.  1.
    9000005    2    1    2  501    0 -0.45673208516E+01 -0.51908013799E+01 -0.88880836747E+03  0.10994544899E+04  0.64712599734E+03 0.  0.
         13    1    3    3    0    0  0.26448171615E+03 -0.17338714668E+03 -0.33152612129E+03  0.45817382063E+03  0.00000000000E+00 0.  1.
          3    1    3    3  501    0 -0.26904903700E+03  0.16819634530E+03 -0.55728224617E+03  0.64128066927E+03  0.00000000000E+00 0.  1.
         21    1    1    2  502  501  0.45673208516E+01  0.51908013799E+01 -0.38320944584E+01  0.79050481760E+01  0.00000000000E+00 0. -1.
<mgrwt>
<rscale>  1 0.64716293E+03</rscale>
<asrwt>0</asrwt>
<pdfrwt beam="1">  1        1 0.39039914E+00 0.64716293E+03</pdfrwt>
<pdfrwt beam="2">0</pdfrwt>
<totfact> 0.14768286E+00</totfact>
</mgrwt>
</event>
<event>
 6    1  0.7649315E-003  0.6438596E+03  0.7818608E-02  0.9818370E-01
          3   -1    0    0  502    0  0.00000000000E+00  0.00000000000E+00  0.10364570682E+03  0.10364570682E+03  0.00000000000E+00 0.  1.
         13   -1    0    0    0    0 -0.00000000000E+00 -0.00000000000E+00 -0.10000000000E+04  0.10000000000E+04  0.00000000000E+00 0.  1.
    9000005    2    1    2  501    0  0.16441369044E-02  0.15681621032E-02 -0.89636099437E+03  0.11036386309E+04  0.64385960848E+03 0.  0.
         13    1    3    3    0    0 -0.30387761690E+03  0.10619808853E+03 -0.45561701180E+03  0.55785885446E+03  0.00000000000E+00 0.  1.
          3    1    3    3  501    0  0.30387926103E+03 -0.10619652037E+03 -0.44074398257E+03  0.54577977646E+03  0.00000000000E+00 0.  1.
         21    1    1    2  502  501 -0.16441369044E-02 -0.15681621032E-02  0.67011901910E-02  0.70758934784E-02  0.00000000000E+00 0.  1.
<mgrwt>
<rscale>  1 0.64385961E+03</rscale>
<asrwt>0</asrwt>
<pdfrwt beam="1">  1        3 0.37689427E+00 0.64385961E+03</pdfrwt>
<pdfrwt beam="2">0</pdfrwt>
<totfact> 0.78465947E-02</totfact>
</mgrwt>
</event>
<event>
 6    1  0.7649315E-003  0.5008760E+03  0.7818608E-02  0.1013551E+00
          1   -1    0    0  502    0  0.00000000000E+00  0.00000000000E+00  0.62728208826E+02  0.62728208826E+02  0.00000000000E+00 0.  1.
         13   -1    0    0    0    0 -0.00000000000E+00 -0.00000000000E+00 -0.10000000000E+04  0.10000000000E+04  0.00000000000E+00 0.  1.
    9000005    2    1    2  501    0 -0.12436820577E-02  0.94883810752E-03 -0.93728072796E+03  0.10627191362E+04  0.50087603192E+03 0.  0.
         13    1    3    3    0    0 -0.45314698713E+02 -0.22022601641E+03 -0.70266596308E+03  0.73776173383E+03  0.00000000000E+00 0.  1.
          3    1    3    3  501    0  0.45313455031E+02  0.22022696525E+03 -0.23461476488E+03  0.32495740233E+03  0.00000000000E+00 0.  1.
         21    1    1    2  502  501  0.12436820577E-02 -0.94883810753E-03  0.89367894267E-02  0.90726646622E-02  0.00000000000E+00 0. -1.
<mgrwt>
<rscale>  1 0.50087603E+03</rscale>
<asrwt>0</asrwt>
<pdfrwt beam="1">  1        1 0.22810306E+00 0.50087603E+03</pdfrwt>
<pdfrwt beam="2">0</pdfrwt>
<totfact> 0.76992661E+00</totfact>
</mgrwt>
</event>
<event>
 6    1  0.7649315E-003  0.6554748E+03  0.7818608E-02  0.9796560E-01
          1   -1    0    0  502    0  0.00000000000E+00  0.00000000000E+00  0.10743486319E+03  0.10743486319E+03  0.00000000000E+00 0.  1.
         13   -1    0    0    0    0 -0.00000000000E+00 -0.00000000000E+00 -0.10000000000E+04  0.10000000000E+04  0.00000000000E+00 0.  1.
    9000005    2    1    2  501    0 -0.38823738451E-02 -0.43903254745E-02 -0.89258778236E+03  0.11074114716E+04  0.65547480355E+03 0.  0.
         13    1    3    3    0    0  0.77289434579E+02 -0.12750458543E+03 -0.93938233938E+03  0.95114155390E+03  0.00000000000E+00 0.  1.
          1    1    3    3  501    0 -0.77293316953E+02  0.12750019511E+03  0.46794557026E+02  0.15626991766E+03  0.00000000000E+00 0.  1.
         21    1    1    2  502  501  0.38823738451E-02  0.43903254745E-02  0.22645550840E-01  0.23391638619E-01  0.00000000000E+00 0. -1.
<mgrwt>
<rscale>  1 0.65547480E+03</rscale>
<asrwt>0</asrwt>
<pdfrwt beam="1">  1        1 0.39067305E+00 0.65547480E+03</pdfrwt>
<pdfrwt beam="2">0</pdfrwt>
<totfact> 0.14704222E+00</totfact>
</mgrwt>
</event>
<event>
 6    1  0.7649315E-003  0.6493353E+03  0.7818608E-02  0.9808027E-01
          1   -1    0    0  502    0  0.00000000000E+00  0.00000000000E+00  0.10545900273E+03  0.10545900273E+03  0.00000000000E+00 0.  1.
         13   -1    0    0    0    0 -0.00000000000E+00 -0.00000000000E+00 -0.10000000000E+04  0.10000000000E+04  0.00000000000E+00 0.  1.
    9000005    2    1    2  501    0  0.78984466094E-03 -0.88244048948E-03 -0.89459091073E+03  0.11054090752E+04  0.64933529554E+03 0.  0.
         13    1    3    3    0    0  0.21558711194E+03 -0.20465157368E+03 -0.66958014362E+03  0.73259650434E+03  0.00000000000E+00 0.  1.
          1    1    3    3  501    0 -0.21558632209E+03  0.20465069124E+03 -0.22501076711E+03  0.37281257089E+03  0.00000000000E+00 0.  1.
         21    1    1    2  502  501 -0.78984466095E-03  0.88244048946E-03  0.49913460381E-01  0.49927508280E-01  0.00000000000E+00 0.  1.
<mgrwt>
<rscale>  1 0.64933530E+03</rscale>
<asrwt>0</asrwt>
<pdfrwt beam="1">  1        1 0.38348809E+00 0.64933530E+03</pdfrwt>
<pdfrwt beam="2">0</pdfrwt>
<totfact> 0.15839827E+00</totfact>
</mgrwt>
</event>
<event>
 6    1  0.7649315E-003  0.6287064E+03  0.7818608E-02  0.9847576E-01
          1   -1    0    0  502    0  0.00000000000E+00  0.00000000000E+00  0.99044513237E+02  0.99044513237E+02  0.00000000000E+00 0.  1.
         13   -1    0    0    0    0 -0.00000000000E+00 -0.00000000000E+00 -0.10000000000E+04  0.10000000000E+04  0.00000000000E+00 0.  1.
    9000005    2    1    2  501    0  0.32274549286E+00 -0.44320885734E+00 -0.90074004118E+03  0.10984554330E+04  0.62870614430E+03 0.  0.
         13    1    3    3    0    0 -0.28985320849E+03 -0.12145539598E+03 -0.45627285601E+03  0.55403178141E+03  0.00000000000E+00 0.  1.
          1    1    3    3  501    0  0.29017595398E+03  0.12101218713E+03 -0.44446718517E+03  0.54442365157E+03  0.00000000000E+00 0.  1.
         21    1    1    2  502  501 -0.32274549286E+00  0.44320885734E+00 -0.21544558593E+00  0.58908025335E+00  0.00000000000E+00 0. -1.
<mgrwt>
<rscale>  1 0.62870638E+03</rscale>
<asrwt>0</asrwt>
<pdfrwt beam="1">  1        1 0.36016263E+00 0.62870638E+03</pdfrwt>
<pdfrwt beam="2">0</pdfrwt>
<totfact> 0.20133527E+00</totfact>
</mgrwt>
</event>
<event>
 6    1  0.7649315E-003  0.6517238E+03  0.7818608E-02  0.9803550E-01
          1   -1    0    0  502    0  0.00000000000E+00  0.00000000000E+00  0.10618601832E+03  0.10618601832E+03  0.00000000000E+00 0.  1.
         13   -1    0    0    0    0 -0.00000000000E+00 -0.00000000000E+00 -0.10000000000E+04  0.10000000000E+04  0.00000000000E+00 0.  1.
    9000005    2    1    2  501    0  0.33887831663E-04 -0.17977874336E-04 -0.89381399938E+03  0.11061859761E+04  0.65172382815E+03 0.  0.
         13    1    3    3    0    0  0.79679479974E+02 -0.97095322269E+02 -0.95726155941E+03  0.96546673390E+03  0.00000000000E+00 0.  1.
          1    1    3    3  501    0 -0.79679446086E+02  0.97095304291E+02  0.63447560035E+02  0.14071924218E+03  0.00000000000E+00 0.  1.
         21    1    1    2  502  501 -0.33887831671E-04  0.17977874346E-04  0.17693518410E-04  0.42245114452E-04  0.00000000000E+00 0.  1.
<mgrwt>
<rscale>  1 0.65172383E+03</rscale>
<asrwt>0</asrwt>
<pdfrwt beam="1">  1        1 0.38613179E+00 0.65172383E+03</pdfrwt>
<pdfrwt beam="2">0</pdfrwt>
<totfact> 0.15412260E+00</totfact>
</mgrwt>
</event>
<event>
 6    1  0.7649315E-003  0.6509626E+03  0.7818608E-02  0.9804975E-01
          1   -1    0    0  502    0  0.00000000000E+00  0.00000000000E+00  0.10837772834E+03  0.10837772834E+03  0.00000000000E+00 0.  1.
         13   -1    0    0    0    0 -0.00000000000E+00 -0.00000000000E+00 -0.10000000000E+04  0.10000000000E+04  0.00000000000E+00 0.  1.
    9000005    2    1    2  501    0  0.99399687775E-01  0.81350258064E-01 -0.89406005999E+03  0.11059365585E+04  0.65096256736E+03 0.  0.
         13    1    3    3    0    0 -0.26864073229E+02  0.31442436613E+03 -0.31141293030E+03  0.44335355373E+03  0.00000000000E+00 0.  1.
          3    1    3    3  501    0  0.26963472917E+02 -0.31434301587E+03 -0.58264712968E+03  0.66258300478E+03  0.00000000000E+00 0.  1.
         21    1    1    2  502  501 -0.99399687775E-01 -0.81350258064E-01  0.24377883331E+01  0.24411698260E+01  0.00000000000E+00 0.  1.
<mgrwt>
<rscale>  1 0.65096258E+03</rscale>
<asrwt>0</asrwt>
<pdfrwt beam="1">  1        1 0.39410166E+00 0.65096258E+03</pdfrwt>
<pdfrwt beam="2">0</pdfrwt>
<totfact> 0.14209709E+00</totfact>
</mgrwt>
</event>
<event>
 6    1  0.7649315E-003  0.6497823E+03  0.7818608E-02  0.9807188E-01
          1   -1    0    0  502    0  0.00000000000E+00  0.00000000000E+00  0.10559188610E+03  0.10559188610E+03  0.00000000000E+00 0.  1.
         13   -1    0    0    0    0 -0.00000000000E+00 -0.00000000000E+00 -0.10000000000E+04  0.10000000000E+04  0.00000000000E+00 0.  1.
    9000005    2    1    2  501    0 -0.42215819006E-01  0.10628909118E+00 -0.89427989499E+03  0.11054200733E+04  0.64978226723E+03 0.  0.
         13    1    3    3    0    0 -0.13611715516E+03  0.20019160557E+03 -0.78473690896E+02  0.25448512537E+03  0.00000000000E+00 0.  1.
          1    1    3    3  501    0  0.13607493934E+03 -0.20008531648E+03 -0.81580620409E+03  0.85093494794E+03  0.00000000000E+00 0.  1.
         21    1    1    2  502  501  0.42215819006E-01 -0.10628909118E+00 -0.12821891331E+00  0.17181279350E+00  0.00000000000E+00 0.  1.
<mgrwt>
<rscale>  1 0.64978228E+03</rscale>
<asrwt>0</asrwt>
<pdfrwt beam="1">  1        1 0.38397130E+00 0.64978228E+03</pdfrwt>
<pdfrwt beam="2">0</pdfrwt>
<totfact> 0.15760814E+00</totfact>
</mgrwt>
</event>
<event>
 6    1  0.7649315E-003  0.6498878E+03  0.7818608E-02  0.9806990E-01
          1   -1    0    0  502    0  0.00000000000E+00  0.00000000000E+00  0.10558868075E+03  0.10558868075E+03  0.00000000000E+00 0.  1.
         13   -1    0    0    0    0 -0.00000000000E+00 -0.00000000000E+00 -0.10000000000E+04  0.10000000000E+04  0.00000000000E+00 0.  1.
    9000005    2    1    2  501    0  0.57000779350E-04  0.34544189246E-04 -0.89441145788E+03  0.11055885269E+04  0.64988778640E+03 0.  0.
         13    1    3    3    0    0  0.29331683976E+03  0.13594703096E+02 -0.68396578743E+03  0.74433109757E+03  0.00000000000E+00 0.  1.
          3    1    3    3  501    0 -0.29331678276E+03 -0.13594668552E+02 -0.21044567044E+03  0.36125742936E+03  0.00000000000E+00 0.  1.
         21    1    1    2  502  501 -0.57000779335E-04 -0.34544189246E-04  0.13862448900E-03  0.15381527494E-03  0.00000000000E+00 0. -1.
<mgrwt>
<rscale>  1 0.64988779E+03</rscale>
<asrwt>0</asrwt>
<pdfrwt beam="1">  1        1 0.38395965E+00 0.64988779E+03</pdfrwt>
<pdfrwt beam="2">0</pdfrwt>
<totfact> 0.15762378E+00</totfact>
</mgrwt>
</event>
<event>
 6    1  0.7649315E-003  0.6502824E+03  0.7818608E-02  0.9806249E-01
          1   -1    0    0  502    0  0.00000000000E+00  0.00000000000E+00  0.10581751097E+03  0.10581751097E+03  0.00000000000E+00 0.  1.
         13   -1    0    0    0    0 -0.00000000000E+00 -0.00000000000E+00 -0.10000000000E+04  0.10000000000E+04  0.00000000000E+00 0.  1.
    9000005    2    1    2  501    0 -0.15201578976E-01  0.73971424315E-01 -0.89426730200E+03  0.11057039500E+04  0.65028240930E+03 0.  0.
         13    1    3    3    0    0 -0.22084204573E+03 -0.68108186137E+02 -0.83600437851E+03  0.86735993398E+03  0.00000000000E+00 0.  1.
          3    1    3    3  501    0  0.22082684415E+03  0.68182157561E+02 -0.58262923495E+02  0.23834401600E+03  0.00000000000E+00 0.  1.
         21    1    1    2  502  501  0.15201578976E-01 -0.73971424315E-01  0.84812975809E-01  0.11356099896E+00  0.00000000000E+00 0.  1.
<mgrwt>
<rscale>  1 0.65028241E+03</rscale>
<asrwt>0</asrwt>
<pdfrwt beam="1">  1        1 0.38479176E+00 0.65028241E+03</pdfrwt>
<pdfrwt beam="2">0</pdfrwt>
<totfact> 0.15628260E+00</totfact>
</mgrwt>
</event>
<event>
 6    1  0.7649315E-003  0.6456898E+03  0.7818608E-02  0.9814901E-01
          1   -1    0    0  502    0  0.00000000000E+00  0.00000000000E+00  0.10443914619E+03  0.10443914619E+03  0.00000000000E+00 0.  1.
         13   -1    0    0    0    0 -0.00000000000E+00 -0.00000000000E+00 -0.10000000000E+04  0.10000000000E+04  0.00000000000E+00 0.  1.
    9000005    2    1    2  501    0  0.23509371623E+00 -0.20539877829E+00 -0.89563491598E+03  0.11041182990E+04  0.64568972271E+03 0.  0.
         13    1    3    3    0    0 -0.22645277055E+03 -0.45756841979E+01 -0.54503094266E+02  0.23296433517E+03  0.00000000000E+00 0.  1.
          3    1    3    3  501    0  0.22668786427E+03  0.43702854196E+01 -0.84113182172E+03  0.87115396383E+03  0.00000000000E+00 0.  1.
         21    1    1    2  502  501 -0.23509371623E+00  0.20539877829E+00  0.74062176784E-01  0.32084719037E+00  0.00000000000E+00 0.  1.
<mgrwt>
<rscale>  1 0.64568980E+03</rscale>
<asrwt>0</asrwt>
<pdfrwt beam="1">  1        1 0.37977951E+00 0.64568980E+03</pdfrwt>
<pdfrwt beam="2">0</pdfrwt>
<totfact> 0.16459556E+00</totfact>
</mgrwt>
</event>
<event>
 6    1  0.7649315E-003  0.6470199E+03  0.7818608E-02  0.9812387E-01
          1   -1    0    0  502    0  0.00000000000E+00  0.00000000000E+00  0.10465873164E+03  0.10465873164E+03  0.00000000000E+00 0.  1.
         13   -1    0    0    0    0 -0.00000000000E+00 -0.00000000000E+00 -0.10000000000E+04  0.10000000000E+04  0.00000000000E+00 0.  1.
    9000005    2    1    2  501    0 -0.17173386027E-04 -0.45242167289E-04 -0.89534129834E+03  0.11046586747E+04  0.64701989700E+03 0.  0.
         13    1    3    3    0    0 -0.21535268274E+03 -0.17656673713E+03 -0.72875980465E+03  0.78015603792E+03  0.00000000000E+00 0.  1.
          3    1    3    3  501    0  0.21535266557E+03  0.17656669189E+03 -0.16658149369E+03  0.32450263680E+03  0.00000000000E+00 0.  1.
         21    1    1    2  502  501  0.17173386005E-04  0.45242167280E-04  0.29977614991E-04  0.56924830150E-04  0.00000000000E+00 0.  1.
<mgrwt>
<rscale>  1 0.64701990E+03</rscale>
<asrwt>0</asrwt>
<pdfrwt beam="1">  1        1 0.38057801E+00 0.64701990E+03</pdfrwt>
<pdfrwt beam="2">0</pdfrwt>
<totfact> 0.16322567E+00</totfact>
</mgrwt>
</event>
<event>
 6    1  0.7649315E-003  0.5288436E+03  0.7818608E-02  0.1006513E+00
          3   -1    0    0  502    0  0.00000000000E+00  0.00000000000E+00  0.69931862897E+02  0.69931862897E+02  0.00000000000E+00 0.  1.
         13   -1    0    0    0    0 -0.00000000000E+00 -0.00000000000E+00 -0.10000000000E+04  0.10000000000E+04  0.00000000000E+00 0.  1.
    9000005    2    1    2  501    0  0.20389707495E-03 -0.47661347995E-03 -0.93008111104E+03  0.10699188786E+04  0.52884358147E+03 0.  0.
         13    1    3    3    0    0 -0.19483043594E+03 -0.58768762638E+02 -0.12345982101E+03  0.23802309475E+03  0.00000000000E+00 0.  1.
          1    1    3    3  501    0  0.19483063983E+03  0.58768286024E+02 -0.80662129003E+03  0.83189578385E+03  0.00000000000E+00 0.  1.
         21    1    1    2  502  501 -0.20389707496E-03  0.47661347995E-03  0.12973941656E-01  0.12984294225E-01  0.00000000000E+00 0.  1.
<mgrwt>
<rscale>  1 0.52884358E+03</rscale>
<asrwt>0</asrwt>
<pdfrwt beam="1">  1        3 0.25429822E+00 0.52884358E+03</pdfrwt>
<pdfrwt beam="2">0</pdfrwt>
<totfact> 0.36651178E-01</totfact>
</mgrwt>
</event>
<event>
 6    1  0.7649315E-003  0.6543102E+03  0.7818608E-02  0.9798725E-01
          1   -1    0    0  502    0  0.00000000000E+00  0.00000000000E+00  0.10762312674E+03  0.10762312674E+03  0.00000000000E+00 0.  1.
         13   -1    0    0    0    0 -0.00000000000E+00 -0.00000000000E+00 -0.10000000000E+04  0.10000000000E+04  0.00000000000E+00 0.  1.
    9000005    2    1    2  501    0  0.12199059696E+01  0.36522955435E-01 -0.89216943695E+03  0.11063851710E+04  0.65430906531E+03 0.  0.
         13    1    3    3    0    0 -0.18148165575E+03 -0.26302658056E+02 -0.90304389590E+03  0.92147474144E+03  0.00000000000E+00 0.  1.
          3    1    3    3  501    0  0.18270156172E+03  0.26339181012E+02  0.10874458951E+02  0.18491042959E+03  0.00000000000E+00 0.  1.
         21    1    1    2  502  501 -0.12199059696E+01 -0.36522955435E-01 -0.20743631506E+00  0.12379557043E+01  0.00000000000E+00 0.  1.
<mgrwt>
<rscale>  1 0.65431020E+03</rscale>
<asrwt>0</asrwt>
<pdfrwt beam="1">  1        1 0.39135765E+00 0.65431020E+03</pdfrwt>
<pdfrwt beam="2">0</pdfrwt>
<totfact> 0.14604893E+00</totfact>
</mgrwt>
</event>
<event>
 6    1  0.7649315E-003  0.5987391E+03  0.7818608E-02  0.9908026E-01
          1   -1    0    0  502    0  0.00000000000E+00  0.00000000000E+00  0.89626465563E+02  0.89626465563E+02  0.00000000000E+00 0.  1.
         13   -1    0    0    0    0 -0.00000000000E+00 -0.00000000000E+00 -0.10000000000E+04  0.10000000000E+04  0.00000000000E+00 0.  1.
    9000005    2    1    2  501    0 -0.12401140574E-01 -0.36317737152E-02 -0.91036352719E+03  0.10896101217E+04  0.59873906289E+03 0.  0.
         13    1    3    3    0    0 -0.48087443102E+02 -0.13113184485E+03  0.26696403683E+02  0.14219937021E+03  0.00000000000E+00 0.  1.
          3    1    3    3  501    0  0.48075041962E+02  0.13112821308E+03 -0.93705993087E+03  0.94741075145E+03  0.00000000000E+00 0.  1.
         21    1    1    2  502  501  0.12401140574E-01  0.36317737152E-02 -0.10007248473E-01  0.16343900693E-01  0.00000000000E+00 0. -1.
<mgrwt>
<rscale>  1 0.59873906E+03</rscale>
<asrwt>0</asrwt>
<pdfrwt beam="1">  1        1 0.32591511E+00 0.59873906E+03</pdfrwt>
<pdfrwt beam="2">0</pdfrwt>
<totfact> 0.28520621E+00</totfact>
</mgrwt>
</event>
<event>
 6    1  0.7649315E-003  0.6499539E+03  0.7818608E-02  0.9806866E-01
          3   -1    0    0  502    0  0.00000000000E+00  0.00000000000E+00  0.10644992119E+03  0.10644992119E+03  0.00000000000E+00 0.  1.
         13   -1    0    0    0    0 -0.00000000000E+00 -0.00000000000E+00 -0.10000000000E+04  0.10000000000E+04  0.00000000000E+00 0.  1.
    9000005    2    1    2  501    0 -0.10006066094E+01 -0.41567249791E+00 -0.89398494166E+03  0.11052824012E+04  0.64995302638E+03 0.  0.
         13    1    3    3    0    0 -0.25715595199E+02  0.75546204659E+01 -0.99785525335E+03  0.99821514253E+03  0.00000000000E+00 0.  1.
          1    1    3    3  501    0  0.24714988590E+02 -0.79702929638E+01  0.10387031169E+03  0.10706725868E+03  0.00000000000E+00 0.  1.
         21    1    1    2  502  501  0.10006066094E+01  0.41567249791E+00  0.43486285498E+00  0.11675199849E+01  0.00000000000E+00 0. -1.
<mgrwt>
<rscale>  1 0.64995393E+03</rscale>
<asrwt>0</asrwt>
<pdfrwt beam="1">  1        3 0.38709144E+00 0.64995393E+03</pdfrwt>
<pdfrwt beam="2">0</pdfrwt>
<totfact> 0.69250417E-02</totfact>
</mgrwt>
</event>
<event>
 6    1  0.7649315E-003  0.6538511E+03  0.7818608E-02  0.9799580E-01
          1   -1    0    0  502    0  0.00000000000E+00  0.00000000000E+00  0.10688217888E+03  0.10688217888E+03  0.00000000000E+00 0.  1.
         13   -1    0    0    0    0 -0.00000000000E+00 -0.00000000000E+00 -0.10000000000E+04  0.10000000000E+04  0.00000000000E+00 0.  1.
    9000005    2    1    2  501    0  0.30281751506E-04  0.57497409443E-04 -0.89311968874E+03  0.11068803101E+04  0.65385108589E+03 0.  0.
         13    1    3    3    0    0 -0.10806220054E+03 -0.10861142617E+03  0.42341881940E+02  0.15895507555E+03  0.00000000000E+00 0.  1.
          3    1    3    3  501    0  0.10806223082E+03  0.10861148366E+03 -0.93546157068E+03  0.94792523457E+03  0.00000000000E+00 0.  1.
         21    1    1    2  502  501 -0.30281751505E-04 -0.57497409442E-04  0.18676275670E-02  0.18687577868E-02  0.00000000000E+00 0. -1.
<mgrwt>
<rscale>  1 0.65385109E+03</rscale>
<asrwt>0</asrwt>
<pdfrwt beam="1">  1        1 0.38866329E+00 0.65385109E+03</pdfrwt>
<pdfrwt beam="2">0</pdfrwt>
<totfact> 0.15013574E+00</totfact>
</mgrwt>
</event>
<event>
 6    1  0.7649315E-003  0.6612846E+03  0.7818608E-02  0.9785832E-01
          1   -1    0    0  502    0  0.00000000000E+00  0.00000000000E+00  0.10932452927E+03  0.10932452927E+03  0.00000000000E+00 0.  1.
         13   -1    0    0    0    0 -0.00000000000E+00 -0.00000000000E+00 -0.10000000000E+04  0.10000000000E+04  0.00000000000E+00 0.  1.
    9000005    2    1    2  501    0  0.20384323619E-04  0.10989361158E-04 -0.89067566383E+03  0.11093243348E+04  0.66128461467E+03 0.  0.
         13    1    3    3    0    0  0.24173516209E+03 -0.22556257555E+03 -0.44003998588E+03  0.55040853305E+03  0.00000000000E+00 0.  1.
          1    1    3    3  501    0 -0.24173514171E+03  0.22556258654E+03 -0.45063567796E+03  0.55891580174E+03  0.00000000000E+00 0.  1.
         21    1    1    2  502  501 -0.20384323627E-04 -0.10989361148E-04  0.19310726085E-03  0.19449087614E-03  0.00000000000E+00 0. -1.
<mgrwt>
<rscale>  1 0.66128461E+03</rscale>
<asrwt>0</asrwt>
<pdfrwt beam="1">  1        1 0.39754458E+00 0.66128461E+03</pdfrwt>
<pdfrwt beam="2">0</pdfrwt>
<totfact> 0.13690862E+00</totfact>
</mgrwt>
</event>
<event>
 6    1  0.7649315E-003  0.6603165E+03  0.7818608E-02  0.9787611E-01
          1   -1    0    0  502    0  0.00000000000E+00  0.00000000000E+00  0.10900646234E+03  0.10900646234E+03  0.00000000000E+00 0.  1.
         13   -1    0    0    0    0 -0.00000000000E+00 -0.00000000000E+00 -0.10000000000E+04  0.10000000000E+04  0.00000000000E+00 0.  1.
    9000005    2    1    2  501    0 -0.55935866136E-03  0.69726377291E-03 -0.89099543431E+03  0.11090043656E+04  0.66031645364E+03 0.  0.
         13    1    3    3    0    0  0.57387979787E+02 -0.11086442732E+03 -0.95883284105E+03  0.96692539450E+03  0.00000000000E+00 0.  1.
          1    1    3    3  501    0 -0.57388539146E+02  0.11086512458E+03  0.67837406737E+02  0.14207897109E+03  0.00000000000E+00 0.  1.
         21    1    1    2  502  501  0.55935866137E-03 -0.69726377291E-03  0.18966474231E-02  0.20967427903E-02  0.00000000000E+00 0. -1.
<mgrwt>
<rscale>  1 0.66031645E+03</rscale>
<asrwt>0</asrwt>
<pdfrwt beam="1">  1        1 0.39638797E+00 0.66031645E+03</pdfrwt>
<pdfrwt beam="2">0</pdfrwt>
<totfact> 0.13856645E+00</totfact>
</mgrwt>
</event>
<event>
 6    1  0.7649315E-003  0.6446323E+03  0.7818608E-02  0.9816904E-01
          1   -1    0    0  502    0  0.00000000000E+00  0.00000000000E+00  0.10388868509E+03  0.10388868509E+03  0.00000000000E+00 0.  1.
         13   -1    0    0    0    0 -0.00000000000E+00 -0.00000000000E+00 -0.10000000000E+04  0.10000000000E+04  0.00000000000E+00 0.  1.
    9000005    2    1    2  501    0 -0.17348632835E-03 -0.13031279585E-03 -0.89611229072E+03  0.11038876854E+04  0.64463228628E+03 0.  0.
         13    1    3    3    0    0 -0.40467966438E+02 -0.25518551819E+03 -0.77802879730E+03  0.81980858402E+03  0.00000000000E+00 0.  1.
          3    1    3    3  501    0  0.40467792952E+02  0.25518538787E+03 -0.11808349342E+03  0.28407910143E+03  0.00000000000E+00 0.  1.
         21    1    1    2  502  501  0.17348632835E-03  0.13031279586E-03  0.97580845143E-03  0.99964046775E-03  0.00000000000E+00 0.  1.
<mgrwt>
<rscale>  1 0.64463229E+03</rscale>
<asrwt>0</asrwt>
<pdfrwt beam="1">  1        1 0.37777783E+00 0.64463229E+03</pdfrwt>
<pdfrwt beam="2">0</pdfrwt>
<totfact> 0.16800765E+00</totfact>
</mgrwt>
</event>
<event>
 6    1  0.7649315E-003  0.6282256E+03  0.7818608E-02  0.9848518E-01
          1   -1    0    0  502    0  0.00000000000E+00  0.00000000000E+00  0.99126665968E+02  0.99126665968E+02  0.00000000000E+00 0.  1.
         13   -1    0    0    0    0 -0.00000000000E+00 -0.00000000000E+00 -0.10000000000E+04  0.10000000000E+04  0.00000000000E+00 0.  1.
    9000005    2    1    2  501    0  0.12537923005E-01 -0.18680672412E+00 -0.90131212505E+03  0.10986496005E+04  0.62822556678E+03 0.  0.
         13    1    3    3    0    0  0.38226457542E+02 -0.30998626187E+03 -0.39090729155E+03  0.50036112478E+03  0.00000000000E+00 0.  1.
          3    1    3    3  501    0 -0.38213919619E+02  0.30979945515E+03 -0.51040483350E+03  0.59828847567E+03  0.00000000000E+00 0.  1.
         21    1    1    2  502  501 -0.12537923005E-01  0.18680672412E+00  0.43879101568E+00  0.47706551660E+00  0.00000000000E+00 0.  1.
<mgrwt>
<rscale>  1 0.62822559E+03</rscale>
<asrwt>0</asrwt>
<pdfrwt beam="1">  1        1 0.36046136E+00 0.62822559E+03</pdfrwt>
<pdfrwt beam="2">0</pdfrwt>
<totfact> 0.20074789E+00</totfact>
</mgrwt>
</event>
<event>
 6    1  0.7649315E-003  0.5634097E+03  0.7818608E-02  0.9984369E-01
          1   -1    0    0  502    0  0.00000000000E+00  0.00000000000E+00  0.79357765453E+02  0.79357765453E+02  0.00000000000E+00 0.  1.
         13   -1    0    0    0    0 -0.00000000000E+00 -0.00000000000E+00 -0.10000000000E+04  0.10000000000E+04  0.00000000000E+00 0.  1.
    9000005    2    1    2  501    0 -0.28330120045E-04 -0.19563313039E-04 -0.92064236434E+03  0.10793576312E+04  0.56340973805E+03 0.  0.
         13    1    3    3    0    0 -0.23128638416E+03  0.18183645567E+02 -0.76644498045E+03  0.80078832692E+03  0.00000000000E+00 0.  1.
          1    1    3    3  501    0  0.23128635583E+03 -0.18183665131E+02 -0.15419738389E+03  0.27856930425E+03  0.00000000000E+00 0.  1.
         21    1    1    2  502  501  0.28330120036E-04  0.19563313038E-04  0.12979757270E-03  0.13428599628E-03  0.00000000000E+00 0.  1.
<mgrwt>
<rscale>  1 0.56340974E+03</rscale>
<asrwt>0</asrwt>
<pdfrwt beam="1">  1        1 0.28857430E+00 0.56340974E+03</pdfrwt>
<pdfrwt beam="2">0</pdfrwt>
<totfact> 0.41600326E+00</totfact>
</mgrwt>
</event>
<event>
 6    1  0.7649315E-003  0.5654877E+03  0.7818608E-02  0.9979714E-01
          1   -1    0    0  502    0  0.00000000000E+00  0.00000000000E+00  0.83043942868E+02  0.83043942868E+02  0.00000000000E+00 0.  1.
         13   -1    0    0    0    0 -0.00000000000E+00 -0.00000000000E+00 -0.10000000000E+04  0.10000000000E+04  0.00000000000E+00 0.  1.
    9000005    2    1    2  501    0 -0.29641409849E+01 -0.40174167954E+01 -0.91775830177E+03  0.10779873268E+04  0.56546569350E+03 0.  0.
         13    1    3    3    0    0 -0.24333752431E+03 -0.11201707793E+03 -0.64649728386E+03  0.69979976745E+03  0.00000000000E+00 0.  1.
          1    1    3    3  501    0  0.24037338332E+03  0.10799966114E+03 -0.27126101792E+03  0.37818755936E+03  0.00000000000E+00 0.  1.
         21    1    1    2  502  501  0.29641409849E+01  0.40174167954E+01  0.80224464165E+00  0.50566160574E+01  0.00000000000E+00 0.  1.
<mgrwt>
<rscale>  1 0.56548773E+03</rscale>
<asrwt>0</asrwt>
<pdfrwt beam="1">  1        1 0.30197861E+00 0.56548773E+03</pdfrwt>
<pdfrwt beam="2">0</pdfrwt>
<totfact> 0.36402451E+00</totfact>
</mgrwt>
</event>
<event>
 6    1  0.7649315E-003  0.6772790E+03  0.7818608E-02  0.9756897E-01
          1   -1    0    0  502    0  0.00000000000E+00  0.00000000000E+00  0.12083374454E+03  0.12083374454E+03  0.00000000000E+00 0.  1.
         13   -1    0    0    0    0 -0.00000000000E+00 -0.00000000000E+00 -0.10000000000E+04  0.10000000000E+04  0.00000000000E+00 0.  1.
    9000005    2    1    2  501    0 -0.96858337263E-02 -0.68223201771E+00 -0.88530219885E+03  0.11146599827E+04  0.67727869311E+03 0.  0.
         13    1    3    3    0    0  0.11965327135E+03 -0.35349223415E+02  0.75488862892E+02  0.14582537969E+03  0.00000000000E+00 0.  1.
          3    1    3    3  501    0 -0.11966295718E+03  0.34666991397E+02 -0.96079106174E+03  0.96883460298E+03  0.00000000000E+00 0.  1.
         21    1    1    2  502  501  0.96858337263E-02  0.68223201771E+00  0.61359433886E+01  0.61737618686E+01  0.00000000000E+00 0.  1.
<mgrwt>
<rscale>  1 0.67727904E+03</rscale>
<asrwt>0</asrwt>
<pdfrwt beam="1">  1        1 0.43939636E+00 0.67727904E+03</pdfrwt>
<pdfrwt beam="2">0</pdfrwt>
<totfact> 0.88376201E-01</totfact>
</mgrwt>
</event>
<event>
 6    1  0.7649315E-003  0.6615667E+03  0.7818608E-02  0.9785314E-01
          1   -1    0    0  502    0  0.00000000000E+00  0.00000000000E+00  0.10942176353E+03  0.10942176353E+03  0.00000000000E+00 0.  1.
         13   -1    0    0    0    0 -0.00000000000E+00 -0.00000000000E+00 -0.10000000000E+04  0.10000000000E+04  0.00000000000E+00 0.  1.
    9000005    2    1    2  501    0  0.21691741794E-02 -0.28459160231E-02 -0.89058148216E+03  0.11094169325E+04  0.66156674168E+03 0.  0.
         13    1    3    3    0    0 -0.24026180404E+03 -0.22491494775E+03 -0.50104280666E+03  0.59946339530E+03  0.00000000000E+00 0.  1.
          1    1    3    3  501    0  0.24026397321E+03  0.22491210183E+03 -0.38953867550E+03  0.50995353718E+03  0.00000000000E+00 0.  1.
         21    1    1    2  502  501 -0.21691741794E-02  0.28459160231E-02  0.32456883036E-02  0.48310503201E-02  0.00000000000E+00 0.  1.
<mgrwt>
<rscale>  1 0.66156674E+03</rscale>
<asrwt>0</asrwt>
<pdfrwt beam="1">  1        1 0.39789816E+00 0.66156674E+03</pdfrwt>
<pdfrwt beam="2">0</pdfrwt>
<totfact> 0.13640592E+00</totfact>
</mgrwt>
</event>
<event>
 6    1  0.7649315E-003  0.6838526E+03  0.7818608E-02  0.9745252E-01
          1   -1    0    0  502    0  0.00000000000E+00  0.00000000000E+00  0.11691378902E+03  0.11691378902E+03  0.00000000000E+00 0.  1.
         13   -1    0    0    0    0 -0.00000000000E+00 -0.00000000000E+00 -0.10000000000E+04  0.10000000000E+04  0.00000000000E+00 0.  1.
    9000005    2    1    2  501    0  0.94247587981E-04 -0.80780622511E-05 -0.88308640510E+03  0.11169135731E+04  0.68385256516E+03 0.  0.
         13    1    3    3    0    0  0.29660669968E+03  0.14593178952E+03 -0.29876559173E+03  0.44556986017E+03  0.00000000000E+00 0.  1.
          1    1    3    3  501    0 -0.29660660543E+03 -0.14593179760E+03 -0.58432081337E+03  0.67134371291E+03  0.00000000000E+00 0.  1.
         21    1    1    2  502  501 -0.94247587987E-04  0.80780622539E-05  0.19411108934E-03  0.21593280884E-03  0.00000000000E+00 0.  1.
<mgrwt>
<rscale>  1 0.68385257E+03</rscale>
<asrwt>0</asrwt>
<pdfrwt beam="1">  1        1 0.42514195E+00 0.68385257E+03</pdfrwt>
<pdfrwt beam="2">0</pdfrwt>
<totfact> 0.10248462E+00</totfact>
</mgrwt>
</event>
<event>
 6    1  0.7649315E-003  0.6649131E+03  0.7818608E-02  0.9779191E-01
          1   -1    0    0  502    0  0.00000000000E+00  0.00000000000E+00  0.11072548320E+03  0.11072548320E+03  0.00000000000E+00 0.  1.
         13   -1    0    0    0    0 -0.00000000000E+00 -0.00000000000E+00 -0.10000000000E+04  0.10000000000E+04  0.00000000000E+00 0.  1.
    9000005    2    1    2  501    0  0.30356378666E-02  0.16265222123E-03 -0.88947262044E+03  0.11105273562E+04  0.66491312697E+03 0.  0.
         13    1    3    3    0    0  0.26499497851E+03  0.12857532478E+03 -0.70226194608E+03  0.76152859020E+03  0.00000000000E+00 0.  1.
          3    1    3    3  501    0 -0.26499194287E+03 -0.12857516213E+03 -0.18721067436E+03  0.34899876604E+03  0.00000000000E+00 0.  1.
         21    1    1    2  502  501 -0.30356378665E-02 -0.16265222123E-03  0.19810364597E+00  0.19812696964E+00  0.00000000000E+00 0. -1.
<mgrwt>
<rscale>  1 0.66491313E+03</rscale>
<asrwt>0</asrwt>
<pdfrwt beam="1">  1        1 0.40263897E+00 0.66491313E+03</pdfrwt>
<pdfrwt beam="2">0</pdfrwt>
<totfact> 0.12984258E+00</totfact>
</mgrwt>
</event>
<event>
 6    1  0.7649315E-003  0.6355182E+03  0.7818608E-02  0.9834339E-01
          1   -1    0    0  502    0  0.00000000000E+00  0.00000000000E+00  0.10100401258E+03  0.10100401258E+03  0.00000000000E+00 0.  1.
         13   -1    0    0    0    0 -0.00000000000E+00 -0.00000000000E+00 -0.10000000000E+04  0.10000000000E+04  0.00000000000E+00 0.  1.
    9000005    2    1    2  501    0  0.70156943393E-03  0.18228561987E-03 -0.89902913968E+03  0.11009708524E+04  0.63551823248E+03 0.  0.
         13    1    3    3    0    0 -0.69985505200E+02  0.29261913910E+03 -0.62658341102E+03  0.69507604078E+03  0.00000000000E+00 0.  1.
          1    1    3    3  501    0  0.69986206770E+02 -0.29261895681E+03 -0.27244572867E+03  0.40589481161E+03  0.00000000000E+00 0.  1.
         21    1    1    2  502  501 -0.70156943394E-03 -0.18228561991E-03  0.33152264863E-01  0.33160188378E-01  0.00000000000E+00 0. -1.
<mgrwt>
<rscale>  1 0.63551823E+03</rscale>
<asrwt>0</asrwt>
<pdfrwt beam="1">  1        1 0.36728809E+00 0.63551823E+03</pdfrwt>
<pdfrwt beam="2">0</pdfrwt>
<totfact> 0.18714323E+00</totfact>
</mgrwt>
</event>
<event>
 6    1  0.7649315E-003  0.5681106E+03  0.7818608E-02  0.9973868E-01
          1   -1    0    0  502    0  0.00000000000E+00  0.00000000000E+00  0.80687437787E+02  0.80687437787E+02  0.00000000000E+00 0.  1.
         13   -1    0    0    0    0 -0.00000000000E+00 -0.00000000000E+00 -0.10000000000E+04  0.10000000000E+04  0.00000000000E+00 0.  1.
    9000005    2    1    2  501    0 -0.42619028619E-04 -0.35441672765E-04 -0.91931256153E+03  0.10806873824E+04  0.56811058130E+03 0.  0.
         13    1    3    3    0    0  0.14487107639E+03 -0.23917018239E+03 -0.55471933574E+03  0.62121135402E+03  0.00000000000E+00 0.  1.
          1    1    3    3  501    0 -0.14487111901E+03  0.23917014695E+03 -0.36459322579E+03  0.45947602833E+03  0.00000000000E+00 0.  1.
         21    1    1    2  502  501  0.42619028612E-04  0.35441672753E-04 -0.67952349074E-06  0.55434245007E-04  0.00000000000E+00 0.  1.
<mgrwt>
<rscale>  1 0.56811058E+03</rscale>
<asrwt>0</asrwt>
<pdfrwt beam="1">  1        1 0.29340948E+00 0.56811058E+03</pdfrwt>
<pdfrwt beam="2">0</pdfrwt>
<totfact> 0.39617211E+00</totfact>
</mgrwt>
</event>
<event>
 6    1  0.7649315E-003  0.6480372E+03  0.7818608E-02  0.9810469E-01
          1   -1    0    0  502    0  0.00000000000E+00  0.00000000000E+00  0.10499078438E+03  0.10499078438E+03  0.00000000000E+00 0.  1.
         13   -1    0    0    0    0 -0.00000000000E+00 -0.00000000000E+00 -0.10000000000E+04  0.10000000000E+04  0.00000000000E+00 0.  1.
    9000005    2    1    2  501    0 -0.77689220959E-03 -0.43885221331E-03 -0.89501186675E+03  0.11049879871E+04  0.64803719806E+03 0.  0.
         13    1    3    3    0    0 -0.23300944328E+03 -0.19714531208E+03 -0.63295577266E+03  0.70270383867E+03  0.00000000000E+00 0.  1.
          3    1    3    3  501    0  0.23300866639E+03  0.19714487323E+03 -0.26205609409E+03  0.40228414846E+03  0.00000000000E+00 0.  1.
         21    1    1    2  502  501  0.77689220960E-03  0.43885221330E-03  0.26511234754E-02  0.27972501590E-02  0.00000000000E+00 0.  1.
<mgrwt>
<rscale>  1 0.64803720E+03</rscale>
<asrwt>0</asrwt>
<pdfrwt beam="1">  1        1 0.38178548E+00 0.64803720E+03</pdfrwt>
<pdfrwt beam="2">0</pdfrwt>
<totfact> 0.16120423E+00</totfact>
</mgrwt>
</event>
<event>
 6    1  0.7649315E-003  0.6225883E+03  0.7818608E-02  0.9859620E-01
          1   -1    0    0  502    0  0.00000000000E+00  0.00000000000E+00  0.96904257505E+02  0.96904257505E+02  0.00000000000E+00 0.  1.
         13   -1    0    0    0    0 -0.00000000000E+00 -0.00000000000E+00 -0.10000000000E+04  0.10000000000E+04  0.00000000000E+00 0.  1.
    9000005    2    1    2  501    0 -0.10189464149E-04  0.19625636355E-04 -0.90309595937E+03  0.10969040395E+04  0.62258827491E+03 0.  0.
         13    1    3    3    0    0 -0.11520724496E+03 -0.24545270358E+03 -0.72096798939E+03  0.77026916121E+03  0.00000000000E+00 0.  1.
          3    1    3    3  501    0  0.11520723477E+03  0.24545272321E+03 -0.18212796998E+03  0.32663487830E+03  0.00000000000E+00 0.  1.
         21    1    1    2  502  501  0.10189464148E-04 -0.19625636360E-04  0.21687467035E-03  0.21799911335E-03  0.00000000000E+00 0. -1.
<mgrwt>
<rscale>  1 0.62258827E+03</rscale>
<asrwt>0</asrwt>
<pdfrwt beam="1">  1        1 0.35237986E+00 0.62258827E+03</pdfrwt>
<pdfrwt beam="2">0</pdfrwt>
<totfact> 0.21796514E+00</totfact>
</mgrwt>
</event>
<event>
 6    1  0.7649315E-003  0.6515417E+03  0.7818608E-02  0.9803891E-01
          1   -1    0    0  502    0  0.00000000000E+00  0.00000000000E+00  0.11602178307E+03  0.11602178307E+03  0.00000000000E+00 0.  1.
         13   -1    0    0    0    0 -0.00000000000E+00 -0.00000000000E+00 -0.10000000000E+04  0.10000000000E+04  0.00000000000E+00 0.  1.
    9000005    2    1    2  501    0  0.41693600679E+01 -0.29578222768E+00 -0.89338274824E+03  0.11057302205E+04  0.65152829154E+03 0.  0.
         13    1    3    3    0    0  0.11553286420E+03  0.14249121043E+03  0.10638305400E+02  0.18375190150E+03  0.00000000000E+00 0.  1.
          1    1    3    3  501    0 -0.11136350414E+03 -0.14278699266E+03 -0.90402105364E+03  0.92197831902E+03  0.00000000000E+00 0.  1.
         21    1    1    2  502  501 -0.41693600679E+01  0.29578222768E+00  0.94045313050E+01  0.10291562543E+02  0.00000000000E+00 0.  1.
<mgrwt>
<rscale>  1 0.65154170E+03</rscale>
<asrwt>0</asrwt>
<pdfrwt beam="1">  1        1 0.42189828E+00 0.65154170E+03</pdfrwt>
<pdfrwt beam="2">0</pdfrwt>
<totfact> 0.10667367E+00</totfact>
</mgrwt>
</event>
<event>
 6    1  0.7649315E-003  0.6607661E+03  0.7818608E-02  0.9786785E-01
          1   -1    0    0  502    0  0.00000000000E+00  0.00000000000E+00  0.10969916386E+03  0.10969916386E+03  0.00000000000E+00 0.  1.
         13   -1    0    0    0    0 -0.00000000000E+00 -0.00000000000E+00 -0.10000000000E+04  0.10000000000E+04  0.00000000000E+00 0.  1.
    9000005    2    1    2  501    0  0.12387314684E+00  0.36199724452E-01 -0.89083857953E+03  0.11091461513E+04  0.66076606560E+03 0.  0.
         13    1    3    3    0    0 -0.16108932464E+02  0.32829076942E+03 -0.38905063321E+03  0.50930808181E+03  0.00000000000E+00 0.  1.
          3    1    3    3  501    0  0.16232805611E+02 -0.32825456970E+03 -0.50178794632E+03  0.59983806946E+03  0.00000000000E+00 0.  1.
         21    1    1    2  502  501 -0.12387314684E+00 -0.36199724452E-01  0.53774338963E+00  0.55301259447E+00  0.00000000000E+00 0. -1.
<mgrwt>
<rscale>  1 0.66076608E+03</rscale>
<asrwt>0</asrwt>
<pdfrwt beam="1">  1        1 0.39890689E+00 0.66076608E+03</pdfrwt>
<pdfrwt beam="2">0</pdfrwt>
<totfact> 0.13502187E+00</totfact>
</mgrwt>
</event>
<event>
 6    1  0.7649315E-003  0.6481787E+03  0.7818608E-02  0.9810203E-01
          1   -1    0    0  502    0  0.00000000000E+00  0.00000000000E+00  0.10503392949E+03  0.10503392949E+03  0.00000000000E+00 0.  1.
         13   -1    0    0    0    0 -0.00000000000E+00 -0.00000000000E+00 -0.10000000000E+04  0.10000000000E+04  0.00000000000E+00 0.  1.
    9000005    2    1    2  501    0  0.19945513259E-05 -0.59465621689E-05 -0.89496610264E+03  0.11050338968E+04  0.64817866988E+03 0.  0.
         13    1    3    3    0    0  0.29681110519E+03 -0.12825232860E+03 -0.48515964056E+03  0.58303119023E+03  0.00000000000E+00 0.  1.
          1    1    3    3  501    0 -0.29681110320E+03  0.12825232266E+03 -0.40980646208E+03  0.52200270652E+03  0.00000000000E+00 0.  1.
         21    1    1    2  502  501 -0.19945513160E-05  0.59465621567E-05  0.32132465539E-04  0.32738893965E-04  0.00000000000E+00 0.  1.
<mgrwt>
<rscale>  1 0.64817867E+03</rscale>
<asrwt>0</asrwt>
<pdfrwt beam="1">  1        1 0.38194237E+00 0.64817867E+03</pdfrwt>
<pdfrwt beam="2">0</pdfrwt>
<totfact> 0.16094306E+00</totfact>
</mgrwt>
</event>
<event>
 6    1  0.7649315E-003  0.6474509E+03  0.7818608E-02  0.9811574E-01
          1   -1    0    0  502    0  0.00000000000E+00  0.00000000000E+00  0.10479921399E+03  0.10479921399E+03  0.00000000000E+00 0.  1.
         13   -1    0    0    0    0 -0.00000000000E+00 -0.00000000000E+00 -0.10000000000E+04  0.10000000000E+04  0.00000000000E+00 0.  1.
    9000005    2    1    2  501    0  0.23407395594E-03 -0.22782180741E-02 -0.89520024485E+03  0.11047968607E+04  0.64745086689E+03 0.  0.
         13    1    3    3    0    0 -0.17848033334E+03 -0.26920810272E+03 -0.41058840943E+03  0.52240891447E+03  0.00000000000E+00 0.  1.
          3    1    3    3  501    0  0.17848056742E+03  0.26920582450E+03 -0.48461183542E+03  0.58238794624E+03  0.00000000000E+00 0.  1.
         21    1    1    2  502  501 -0.23407395595E-03  0.22782180741E-02 -0.54116465925E-03  0.23532801360E-02  0.00000000000E+00 0.  1.
<mgrwt>
<rscale>  1 0.64745087E+03</rscale>
<asrwt>0</asrwt>
<pdfrwt beam="1">  1        1 0.38108885E+00 0.64745087E+03</pdfrwt>
<pdfrwt beam="2">0</pdfrwt>
<totfact> 0.16236751E+00</totfact>
</mgrwt>
</event>
<event>
 6    1  0.7649315E-003  0.6421693E+03  0.7818608E-02  0.9821585E-01
          1   -1    0    0  502    0  0.00000000000E+00  0.00000000000E+00  0.10316313077E+03  0.10316313077E+03  0.00000000000E+00 0.  1.
         13   -1    0    0    0    0 -0.00000000000E+00 -0.00000000000E+00 -0.10000000000E+04  0.10000000000E+04  0.00000000000E+00 0.  1.
    9000005    2    1    2  501    0 -0.13168650682E+00  0.21574390020E-01 -0.89682301643E+03  0.11030289716E+04  0.64216927014E+03 0.  0.
         13    1    3    3    0    0  0.79600697275E+02  0.80971336307E+02 -0.96424572156E+03  0.97090804913E+03  0.00000000000E+00 0.  1.
          3    1    3    3  501    0 -0.79732383782E+02 -0.80949761917E+02  0.67422705137E+02  0.13212092244E+03  0.00000000000E+00 0.  1.
         21    1    1    2  502  501  0.13168650682E+00 -0.21574390020E-01 -0.13852808114E-01  0.13415919900E+00  0.00000000000E+00 0.  1.
<mgrwt>
<rscale>  1 0.64216928E+03</rscale>
<asrwt>0</asrwt>
<pdfrwt beam="1">  1        1 0.37513945E+00 0.64216928E+03</pdfrwt>
<pdfrwt beam="2">0</pdfrwt>
<totfact> 0.17264202E+00</totfact>
</mgrwt>
</event>
<event>
 6    1  0.7649315E-003  0.6525339E+03  0.7818608E-02  0.9802036E-01
          1   -1    0    0  502    0  0.00000000000E+00  0.00000000000E+00  0.10645854527E+03  0.10645854527E+03  0.00000000000E+00 0.  1.
         13   -1    0    0    0    0 -0.00000000000E+00 -0.00000000000E+00 -0.10000000000E+04  0.10000000000E+04  0.00000000000E+00 0.  1.
    9000005    2    1    2  501    0 -0.41619870007E-02  0.74531856990E-03 -0.89354927489E+03  0.11064496552E+04  0.65253393239E+03 0.  0.
         13    1    3    3    0    0 -0.20541919352E+03  0.24528038506E+03 -0.55523897641E+03  0.64081965738E+03  0.00000000000E+00 0.  1.
          3    1    3    3  501    0  0.20541503153E+03 -0.24527963974E+03 -0.33831029848E+03  0.46562999786E+03  0.00000000000E+00 0.  1.
         21    1    1    2  502  501  0.41619870007E-02 -0.74531856991E-03  0.78201589591E-02  0.88900237182E-02  0.00000000000E+00 0.  1.
<mgrwt>
<rscale>  1 0.65253393E+03</rscale>
<asrwt>0</asrwt>
<pdfrwt beam="1">  1        1 0.38712280E+00 0.65253393E+03</pdfrwt>
<pdfrwt beam="2">0</pdfrwt>
<totfact> 0.15255067E+00</totfact>
</mgrwt>
</event>
<event>
 6    1  0.7649315E-003  0.6485493E+03  0.7818608E-02  0.9809505E-01
          1   -1    0    0  502    0  0.00000000000E+00  0.00000000000E+00  0.10515658688E+03  0.10515658688E+03  0.00000000000E+00 0.  1.
         13   -1    0    0    0    0 -0.00000000000E+00 -0.00000000000E+00 -0.10000000000E+04  0.10000000000E+04  0.00000000000E+00 0.  1.
    9000005    2    1    2  501    0  0.18926063979E-03  0.45819330154E-04 -0.89484593104E+03  0.11051540614E+04  0.64854934986E+03 0.  0.
         13    1    3    3    0    0  0.30192680226E+03 -0.89682326484E+02 -0.57888183497E+03  0.65901964498E+03  0.00000000000E+00 0.  1.
          3    1    3    3  501    0 -0.30192661300E+03  0.89682372303E+02 -0.31596409607E+03  0.44613441646E+03  0.00000000000E+00 0.  1.
         21    1    1    2  502  501 -0.18926063979E-03 -0.45819330146E-04  0.25179275694E-02  0.25254461478E-02  0.00000000000E+00 0.  1.
<mgrwt>
<rscale>  1 0.64854935E+03</rscale>
<asrwt>0</asrwt>
<pdfrwt beam="1">  1        1 0.38238840E+00 0.64854935E+03</pdfrwt>
<pdfrwt beam="2">0</pdfrwt>
<totfact> 0.16020369E+00</totfact>
</mgrwt>
</event>
<event>
 6    1  0.7649315E-003  0.6529831E+03  0.7818608E-02  0.9801198E-01
          1   -1    0    0  502    0  0.00000000000E+00  0.00000000000E+00  0.10659689196E+03  0.10659689196E+03  0.00000000000E+00 0.  1.
         13   -1    0    0    0    0 -0.00000000000E+00 -0.00000000000E+00 -0.10000000000E+04  0.10000000000E+04  0.00000000000E+00 0.  1.
    9000005    2    1    2  501    0 -0.12288146274E-03  0.94137803217E-04 -0.89340324083E+03  0.11065966880E+04  0.65298306196E+03 0.  0.
         13    1    3    3    0    0 -0.25692898554E+03 -0.20135705734E+03 -0.45736120026E+03  0.56190429403E+03  0.00000000000E+00 0.  1.
          3    1    3    3  501    0  0.25692886266E+03  0.20135715148E+03 -0.43604204057E+03  0.54469239398E+03  0.00000000000E+00 0.  1.
         21    1    1    2  502  501  0.12288146274E-03 -0.94137803212E-04  0.13279128974E-03  0.20394927435E-03  0.00000000000E+00 0. -1.
<mgrwt>
<rscale>  1 0.65298306E+03</rscale>
<asrwt>0</asrwt>
<pdfrwt beam="1">  1        1 0.38762588E+00 0.65298306E+03</pdfrwt>
<pdfrwt beam="2">0</pdfrwt>
<totfact> 0.15175746E+00</totfact>
</mgrwt>
</event>
