<event>
 5    1  0.2368916E-004  0.6528990E+03  0.7818608E-02  0.9801355E-01
         13   -1    0    0    0    0  0.00000000000E+00  0.00000000000E+00  0.10000000000E+04  0.10000000000E+04  0.00000000000E+00 0. -1.
          2   -1    0    0  501    0 -0.00000000000E+00 -0.00000000000E+00 -0.10656926298E+03  0.10656926298E+03  0.00000000000E+00 0. -1.
    9000006    2    1    2  501    0  0.00000000000E+00  0.00000000000E+00  0.89343073702E+03  0.11065692630E+04  0.65289895998E+03 0.  0.
         13    1    3    3    0    0  0.22598538899E+03  0.20083785507E+03  0.23800701018E+03  0.38477600882E+03  0.00000000000E+00 0. -1.
          4    1    3    3  501    0 -0.22598538899E+03 -0.20083785507E+03  0.65542372683E+03  0.72179325417E+03  0.00000000000E+00 0. -1.
<mgrwt>
<rscale>  0 0.65289896E+03</rscale>
<asrwt>0</asrwt>
<pdfrwt beam="1">0</pdfrwt>
<pdfrwt beam="2">  1        2 0.38752541E+00 0.65289896E+03</pdfrwt>
<totfact> 0.44324232E+00</totfact>
</mgrwt>
</event>
<event>
 5    1  0.2368916E-004  0.5011775E+03  0.7818608E-02  0.1013472E+00
         13   -1    0    0    0    0  0.00000000000E+00  0.00000000000E+00  0.10000000000E+04  0.10000000000E+04  0.00000000000E+00 0. -1.
          2   -1    0    0  501    0 -0.00000000000E+00 -0.00000000000E+00 -0.62794717188E+02  0.62794717188E+02  0.00000000000E+00 0. -1.
    9000006    2    1    2  501    0  0.00000000000E+00  0.00000000000E+00  0.93720528281E+03  0.10627947172E+04  0.50117748229E+03 0.  0.
         13    1    3    3    0    0  0.15148477489E+03  0.14320904405E+03  0.76349697023E+03  0.79144430687E+03  0.00000000000E+00 0. -1.
          2    1    3    3  501    0 -0.15148477489E+03 -0.14320904405E+03  0.17370831258E+03  0.27135041032E+03  0.00000000000E+00 0. -1.
<mgrwt>
<rscale>  0 0.50117748E+03</rscale>
<asrwt>0</asrwt>
<pdfrwt beam="1">0</pdfrwt>
<pdfrwt beam="2">  1        2 0.22834491E+00 0.50117748E+03</pdfrwt>
<totfact> 0.16694459E+01</totfact>
</mgrwt>
</event>
<event>
 5    1  0.2368916E-004  0.5509046E+03  0.7818608E-02  0.1001285E+00
         13   -1    0    0    0    0  0.00000000000E+00  0.00000000000E+00  0.10000000000E+04  0.10000000000E+04  0.00000000000E+00 0. -1.
          2   -1    0    0  501    0 -0.00000000000E+00 -0.00000000000E+00 -0.75873977016E+02  0.75873977016E+02  0.00000000000E+00 0. -1.
    9000006    2    1    2  501    0  0.00000000000E+00  0.00000000000E+00  0.92412602298E+03  0.10758739770E+04  0.55090462701E+03 0.  0.
         13    1    3    3    0    0  0.13911273552E+03  0.12956601382E+03  0.72778062647E+02  0.20355920889E+03  0.00000000000E+00 0. -1.
          2    1    3    3  501    0 -0.13911273552E+03 -0.12956601382E+03  0.85134796034E+03  0.87231476813E+03  0.00000000000E+00 0. -1.
<mgrwt>
<rscale>  0 0.55090463E+03</rscale>
<asrwt>0</asrwt>
<pdfrwt beam="1">0</pdfrwt>
<pdfrwt beam="2">  1        2 0.27590595E+00 0.55090463E+03</pdfrwt>
<totfact> 0.11257529E+01</totfact>
</mgrwt>
</event>
<event>
 5    1  0.2368916E-004  0.6469943E+03  0.7818608E-02  0.9812435E-01
         13   -1    0    0    0    0  0.00000000000E+00  0.00000000000E+00  0.10000000000E+04  0.10000000000E+04  0.00000000000E+00 0. -1.
          2   -1    0    0  501    0 -0.00000000000E+00 -0.00000000000E+00 -0.10465041902E+03  0.10465041902E+03  0.00000000000E+00 0. -1.
    9000006    2    1    2  501    0  0.00000000000E+00  0.00000000000E+00  0.89534958098E+03  0.11046504190E+04  0.64699434007E+03 0.  0.
         13    1    3    3    0    0  0.19077415718E+03 -0.26125718489E+03  0.44864561114E+03  0.55311208638E+03  0.00000000000E+00 0. -1.
          4    1    3    3  501    0 -0.19077415718E+03  0.26125718489E+03  0.44670396984E+03  0.55153833264E+03  0.00000000000E+00 0. -1.
<mgrwt>
<rscale>  0 0.64699434E+03</rscale>
<asrwt>0</asrwt>
<pdfrwt beam="1">0</pdfrwt>
<pdfrwt beam="2">  1        2 0.38054778E+00 0.64699434E+03</pdfrwt>
<totfact> 0.47061764E+00</totfact>
</mgrwt>
</event>
<event>
 5    1  0.2368916E-004  0.6523495E+03  0.7818608E-02  0.9802380E-01
         13   -1    0    0    0    0  0.00000000000E+00  0.00000000000E+00  0.10000000000E+04  0.10000000000E+04  0.00000000000E+00 0. -1.
          2   -1    0    0  501    0 -0.00000000000E+00 -0.00000000000E+00 -0.10638996543E+03  0.10638996543E+03  0.00000000000E+00 0. -1.
    9000006    2    1    2  501    0  0.00000000000E+00  0.00000000000E+00  0.89361003457E+03  0.11063899654E+04  0.65234949355E+03 0.  0.
         13    1    3    3    0    0  0.23215534347E+03 -0.18551869403E+03  0.21877753778E+03  0.36902154459E+03  0.00000000000E+00 0. -1.
          4    1    3    3  501    0 -0.23215534347E+03  0.18551869403E+03  0.67483249678E+03  0.73736842084E+03  0.00000000000E+00 0. -1.
<mgrwt>
<rscale>  0 0.65234949E+03</rscale>
<asrwt>0</asrwt>
<pdfrwt beam="1">0</pdfrwt>
<pdfrwt beam="2">  1        2 0.38687342E+00 0.65234949E+03</pdfrwt>
<totfact> 0.44573769E+00</totfact>
</mgrwt>
</event>
<event>
 5    1  0.2368916E-004  0.6487295E+03  0.7818608E-02  0.9809166E-01
         13   -1    0    0    0    0  0.00000000000E+00  0.00000000000E+00  0.10000000000E+04  0.10000000000E+04  0.00000000000E+00 0. -1.
          2   -1    0    0  501    0 -0.00000000000E+00 -0.00000000000E+00 -0.10521248779E+03  0.10521248779E+03  0.00000000000E+00 0. -1.
    9000006    2    1    2  501    0  0.00000000000E+00  0.00000000000E+00  0.89478751221E+03  0.11052124878E+04  0.64872948996E+03 0.  0.
         13    1    3    3    0    0 -0.13611329914E+03 -0.21438434420E+03  0.79119919715E+03  0.83095345647E+03  0.00000000000E+00 0. -1.
          2    1    3    3  501    0  0.13611329914E+03  0.21438434420E+03  0.10358831506E+03  0.27425903132E+03  0.00000000000E+00 0. -1.
<mgrwt>
<rscale>  0 0.64872949E+03</rscale>
<asrwt>0</asrwt>
<pdfrwt beam="1">0</pdfrwt>
<pdfrwt beam="2">  1        2 0.38259167E+00 0.64872949E+03</pdfrwt>
<totfact> 0.46244413E+00</totfact>
</mgrwt>
</event>
<event>
 5    1  0.2368916E-004  0.5241679E+03  0.7818608E-02  0.1007656E+00
         13   -1    0    0    0    0  0.00000000000E+00  0.00000000000E+00  0.10000000000E+04  0.10000000000E+04  0.00000000000E+00 0. -1.
          2   -1    0    0  501    0 -0.00000000000E+00 -0.00000000000E+00 -0.68687999940E+02  0.68687999940E+02  0.00000000000E+00 0. -1.
    9000006    2    1    2  501    0  0.00000000000E+00  0.00000000000E+00  0.93131200006E+03  0.10686879999E+04  0.52416791180E+03 0.  0.
         13    1    3    3    0    0  0.12050789643E+03 -0.77186587549E+02  0.91330787537E+03  0.92445183628E+03  0.00000000000E+00 0. -1.
          4    1    3    3  501    0 -0.12050789643E+03  0.77186587549E+02  0.18004124693E+02  0.14423616366E+03  0.00000000000E+00 0. -1.
<mgrwt>
<rscale>  0 0.52416791E+03</rscale>
<asrwt>0</asrwt>
<pdfrwt beam="1">0</pdfrwt>
<pdfrwt beam="2">  1        2 0.24977507E+00 0.52416791E+03</pdfrwt>
<totfact> 0.13965526E+01</totfact>
</mgrwt>
</event>
<event>
 5    1  0.2368916E-004  0.6586630E+03  0.7818608E-02  0.9790658E-01
         13   -1    0    0    0    0  0.00000000000E+00  0.00000000000E+00  0.10000000000E+04  0.10000000000E+04  0.00000000000E+00 0. -1.
          2   -1    0    0  501    0 -0.00000000000E+00 -0.00000000000E+00 -0.10845922875E+03  0.10845922875E+03  0.00000000000E+00 0. -1.
    9000006    2    1    2  501    0  0.00000000000E+00  0.00000000000E+00  0.89154077125E+03  0.11084592287E+04  0.65866297526E+03 0.  0.
         13    1    3    3    0    0 -0.12751799932E+03  0.41905948622E+02 -0.60336473477E+02  0.14716466530E+03  0.00000000000E+00 0. -1.
          2    1    3    3  501    0  0.12751799932E+03 -0.41905948622E+02  0.95187724473E+03  0.96129456345E+03  0.00000000000E+00 0. -1.
<mgrwt>
<rscale>  0 0.65866298E+03</rscale>
<asrwt>0</asrwt>
<pdfrwt beam="1">0</pdfrwt>
<pdfrwt beam="2">  1        2 0.39439803E+00 0.65866298E+03</pdfrwt>
<totfact> 0.41769650E+00</totfact>
</mgrwt>
</event>
<event>
 5    1  0.2368916E-004  0.6567455E+03  0.7818608E-02  0.9794203E-01
         13   -1    0    0    0    0  0.00000000000E+00  0.00000000000E+00  0.10000000000E+04  0.10000000000E+04  0.00000000000E+00 0. -1.
          2   -1    0    0  501    0 -0.00000000000E+00 -0.00000000000E+00 -0.10782866869E+03  0.10782866869E+03  0.00000000000E+00 0. -1.
    9000006    2    1    2  501    0  0.00000000000E+00  0.00000000000E+00  0.89217133131E+03  0.11078286687E+04  0.65674551750E+03 0.  0.
         13    1    3    3    0    0  0.32675138916E+03 -0.32489742455E+02  0.44174715580E+03  0.55042038783E+03  0.00000000000E+00 0. -1.
          4    1    3    3  501    0 -0.32675138916E+03  0.32489742455E+02  0.45042417551E+03  0.55740828086E+03  0.00000000000E+00 0. -1.
<mgrwt>
<rscale>  0 0.65674552E+03</rscale>
<asrwt>0</asrwt>
<pdfrwt beam="1">0</pdfrwt>
<pdfrwt beam="2">  1        2 0.39210508E+00 0.65674552E+03</pdfrwt>
<totfact> 0.42606758E+00</totfact>
</mgrwt>
</event>
<event>
 5    1  0.2368916E-004  0.6261136E+03  0.7818608E-02  0.9852662E-01
         13   -1    0    0    0    0  0.00000000000E+00  0.00000000000E+00  0.10000000000E+04  0.10000000000E+04  0.00000000000E+00 0. -1.
          2   -1    0    0  501    0 -0.00000000000E+00 -0.00000000000E+00 -0.98004553768E+02  0.98004553768E+02  0.00000000000E+00 0. -1.
    9000006    2    1    2  501    0  0.00000000000E+00  0.00000000000E+00  0.90199544623E+03  0.10980045538E+04  0.62611358001E+03 0.  0.
         13    1    3    3    0    0 -0.22025128598E+03  0.20210816433E+03  0.28793149499E+03  0.41504564192E+03  0.00000000000E+00 0. -1.
          4    1    3    3  501    0  0.22025128598E+03 -0.20210816433E+03  0.61406395124E+03  0.68295891185E+03  0.00000000000E+00 0. -1.
<mgrwt>
<rscale>  0 0.62611358E+03</rscale>
<asrwt>0</asrwt>
<pdfrwt beam="1">0</pdfrwt>
<pdfrwt beam="2">  1        2 0.35638095E+00 0.62611358E+03</pdfrwt>
<totfact> 0.57781614E+00</totfact>
</mgrwt>
</event>
<event>
 5    1  0.2368916E-004  0.6498559E+03  0.7818608E-02  0.9807050E-01
         13   -1    0    0    0    0  0.00000000000E+00  0.00000000000E+00  0.10000000000E+04  0.10000000000E+04  0.00000000000E+00 0. -1.
          2   -1    0    0  501    0 -0.00000000000E+00 -0.00000000000E+00 -0.10557817660E+03  0.10557817660E+03  0.00000000000E+00 0. -1.
    9000006    2    1    2  501    0  0.00000000000E+00  0.00000000000E+00  0.89442182340E+03  0.11055781766E+04  0.64985591202E+03 0.  0.
         13    1    3    3    0    0 -0.14836009829E+03  0.17214931568E+03  0.52121007941E+02  0.23315811185E+03  0.00000000000E+00 0. -1.
          2    1    3    3  501    0  0.14836009829E+03 -0.17214931568E+03  0.84230081546E+03  0.87242006475E+03  0.00000000000E+00 0. -1.
<mgrwt>
<rscale>  0 0.64985591E+03</rscale>
<asrwt>0</asrwt>
<pdfrwt beam="1">0</pdfrwt>
<pdfrwt beam="2">  1        2 0.38392145E+00 0.64985591E+03</pdfrwt>
<totfact> 0.45719581E+00</totfact>
</mgrwt>
</event>
<event>
 5    1  0.2368916E-004  0.6451023E+03  0.7818608E-02  0.9816013E-01
         13   -1    0    0    0    0  0.00000000000E+00  0.00000000000E+00  0.10000000000E+04  0.10000000000E+04  0.00000000000E+00 0. -1.
          2   -1    0    0  501    0 -0.00000000000E+00 -0.00000000000E+00 -0.10403923335E+03  0.10403923335E+03  0.00000000000E+00 0. -1.
    9000006    2    1    2  501    0  0.00000000000E+00  0.00000000000E+00  0.89596076665E+03  0.11040392333E+04  0.64510226584E+03 0.  0.
         13    1    3    3    0    0  0.69203525018E+02 -0.31402983554E+03  0.40484153351E+03  0.51701115340E+03  0.00000000000E+00 0. -1.
          4    1    3    3  501    0 -0.69203525018E+02  0.31402983554E+03  0.49111923314E+03  0.58702807995E+03  0.00000000000E+00 0. -1.
<mgrwt>
<rscale>  0 0.64510227E+03</rscale>
<asrwt>0</asrwt>
<pdfrwt beam="1">0</pdfrwt>
<pdfrwt beam="2">  1        2 0.37832528E+00 0.64510227E+03</pdfrwt>
<totfact> 0.47965438E+00</totfact>
</mgrwt>
</event>
<event>
 5    1  0.2368916E-004  0.6267727E+03  0.7818608E-02  0.9851367E-01
         13   -1    0    0    0    0  0.00000000000E+00  0.00000000000E+00  0.10000000000E+04  0.10000000000E+04  0.00000000000E+00 0. -1.
          2   -1    0    0  501    0 -0.00000000000E+00 -0.00000000000E+00 -0.98210998256E+02  0.98210998256E+02  0.00000000000E+00 0. -1.
    9000006    2    1    2  501    0  0.00000000000E+00  0.00000000000E+00  0.90178900174E+03  0.10982109983E+04  0.62677268050E+03 0.  0.
         13    1    3    3    0    0  0.22708537301E+03 -0.12632722648E+03  0.14396656928E+03  0.29707357314E+03  0.00000000000E+00 0. -1.
          4    1    3    3  501    0 -0.22708537301E+03  0.12632722648E+03  0.75782243246E+03  0.80113742512E+03  0.00000000000E+00 0. -1.
<mgrwt>
<rscale>  0 0.62677268E+03</rscale>
<asrwt>0</asrwt>
<pdfrwt beam="1">0</pdfrwt>
<pdfrwt beam="2">  1        2 0.35713166E+00 0.62677268E+03</pdfrwt>
<totfact> 0.57417294E+00</totfact>
</mgrwt>
</event>
<event>
 5    1  0.2368916E-004  0.6494404E+03  0.7818608E-02  0.9807830E-01
         13   -1    0    0    0    0  0.00000000000E+00  0.00000000000E+00  0.10000000000E+04  0.10000000000E+04  0.00000000000E+00 0. -1.
          2   -1    0    0  501    0 -0.00000000000E+00 -0.00000000000E+00 -0.10544320435E+03  0.10544320435E+03  0.00000000000E+00 0. -1.
    9000006    2    1    2  501    0  0.00000000000E+00  0.00000000000E+00  0.89455679565E+03  0.11054432044E+04  0.64944038788E+03 0.  0.
         13    1    3    3    0    0  0.29340784749E+03 -0.39870794617E+01  0.68398793078E+03  0.74427384156E+03  0.00000000000E+00 0. -1.
          2    1    3    3  501    0 -0.29340784749E+03  0.39870794617E+01  0.21056886487E+03  0.36116936280E+03  0.00000000000E+00 0. -1.
<mgrwt>
<rscale>  0 0.64944039E+03</rscale>
<asrwt>0</asrwt>
<pdfrwt beam="1">0</pdfrwt>
<pdfrwt beam="2">  1        2 0.38343064E+00 0.64944039E+03</pdfrwt>
<totfact> 0.45912658E+00</totfact>
</mgrwt>
</event>
<event>
 5    1  0.2368916E-004  0.6515830E+03  0.7818608E-02  0.9803813E-01
         13   -1    0    0    0    0  0.00000000000E+00  0.00000000000E+00  0.10000000000E+04  0.10000000000E+04  0.00000000000E+00 0. -1.
          2   -1    0    0  501    0 -0.00000000000E+00 -0.00000000000E+00 -0.10614010338E+03  0.10614010338E+03  0.00000000000E+00 0. -1.
    9000006    2    1    2  501    0  0.00000000000E+00  0.00000000000E+00  0.89385989662E+03  0.11061401034E+04  0.65158300585E+03 0.  0.
         13    1    3    3    0    0 -0.25849080299E+03 -0.10195049205E+03  0.73566857599E+03  0.78639662497E+03  0.00000000000E+00 0. -1.
          2    1    3    3  501    0  0.25849080299E+03  0.10195049205E+03  0.15819132063E+03  0.31974347841E+03  0.00000000000E+00 0. -1.
<mgrwt>
<rscale>  0 0.65158301E+03</rscale>
<asrwt>0</asrwt>
<pdfrwt beam="1">0</pdfrwt>
<pdfrwt beam="2">  1        2 0.38596483E+00 0.65158301E+03</pdfrwt>
<totfact> 0.44923637E+00</totfact>
</mgrwt>
</event>
<event>
 5    1  0.2368916E-004  0.6224592E+03  0.7818608E-02  0.9859876E-01
         13   -1    0    0    0    0  0.00000000000E+00  0.00000000000E+00  0.10000000000E+04  0.10000000000E+04  0.00000000000E+00 0. -1.
          2   -1    0    0  501    0 -0.00000000000E+00 -0.00000000000E+00 -0.96863861724E+02  0.96863861724E+02  0.00000000000E+00 0. -1.
    9000006    2    1    2  501    0  0.00000000000E+00  0.00000000000E+00  0.90313613828E+03  0.10968638617E+04  0.62245919296E+03 0.  0.
         13    1    3    3    0    0 -0.13393587242E+03  0.27357945026E+03  0.56411565051E+03  0.64110139657E+03  0.00000000000E+00 0. -1.
          4    1    3    3  501    0  0.13393587242E+03 -0.27357945026E+03  0.33902048776E+03  0.45576246516E+03  0.00000000000E+00 0. -1.
<mgrwt>
<rscale>  0 0.62245919E+03</rscale>
<asrwt>0</asrwt>
<pdfrwt beam="1">0</pdfrwt>
<pdfrwt beam="2">  1        2 0.35223297E+00 0.62245919E+03</pdfrwt>
<totfact> 0.59833581E+00</totfact>
</mgrwt>
</event>
<event>
 5    1  0.2368916E-004  0.6501496E+03  0.7818608E-02  0.9806499E-01
         13   -1    0    0    0    0  0.00000000000E+00  0.00000000000E+00  0.10000000000E+04  0.10000000000E+04  0.00000000000E+00 0. -1.
          2   -1    0    0  501    0 -0.00000000000E+00 -0.00000000000E+00 -0.10567360948E+03  0.10567360948E+03  0.00000000000E+00 0. -1.
    9000006    2    1    2  501    0  0.00000000000E+00  0.00000000000E+00  0.89432639052E+03  0.11056736095E+04  0.65014955044E+03 0.  0.
         13    1    3    3    0    0  0.96584963935E+02 -0.18006265854E+03  0.87713521056E+03  0.90062056043E+03  0.00000000000E+00 0. -1.
          4    1    3    3  501    0 -0.96584963935E+02  0.18006265854E+03  0.17191179953E+02  0.20505304905E+03  0.00000000000E+00 0. -1.
<mgrwt>
<rscale>  0 0.65014955E+03</rscale>
<asrwt>0</asrwt>
<pdfrwt beam="1">0</pdfrwt>
<pdfrwt beam="2">  1        2 0.38426848E+00 0.65014955E+03</pdfrwt>
<totfact> 0.45583509E+00</totfact>
</mgrwt>
</event>
<event>
 5    1  0.2368916E-004  0.6655498E+03  0.7818608E-02  0.9778031E-01
         13   -1    0    0    0    0  0.00000000000E+00  0.00000000000E+00  0.10000000000E+04  0.10000000000E+04  0.00000000000E+00 0. -1.
          2   -1    0    0  501    0 -0.00000000000E+00 -0.00000000000E+00 -0.11073913580E+03  0.11073913580E+03  0.00000000000E+00 0. -1.
    9000006    2    1    2  501    0  0.00000000000E+00  0.00000000000E+00  0.88926086420E+03  0.11107391358E+04  0.66554980519E+03 0.  0.
         13    1    3    3    0    0 -0.21265384357E+02  0.17693759488E+03  0.91364906523E+03  0.93086719968E+03  0.00000000000E+00 0. -1.
          4    1    3    3  501    0  0.21265384357E+02 -0.17693759488E+03 -0.24388201025E+02  0.17987193612E+03  0.00000000000E+00 0. -1.
<mgrwt>
<rscale>  0 0.66554981E+03</rscale>
<asrwt>0</asrwt>
<pdfrwt beam="1">0</pdfrwt>
<pdfrwt beam="2">  1        2 0.40268862E+00 0.66554981E+03</pdfrwt>
<totfact> 0.38865196E+00</totfact>
</mgrwt>
</event>
<event>
 5    1  0.2368916E-004  0.6354040E+03  0.7818608E-02  0.9834560E-01
         13   -1    0    0    0    0  0.00000000000E+00  0.00000000000E+00  0.10000000000E+04  0.10000000000E+04  0.00000000000E+00 0. -1.
          2   -1    0    0  501    0 -0.00000000000E+00 -0.00000000000E+00 -0.10093455547E+03  0.10093455547E+03  0.00000000000E+00 0. -1.
    9000006    2    1    2  501    0  0.00000000000E+00  0.00000000000E+00  0.89906544453E+03  0.11009345555E+04  0.63540398320E+03 0.  0.
         13    1    3    3    0    0  0.53434301600E+02 -0.35564155155E+02 -0.89582782965E+02  0.11020484891E+03  0.00000000000E+00 0. -1.
          2    1    3    3  501    0 -0.53434301600E+02  0.35564155155E+02  0.98864822750E+03  0.99072970656E+03  0.00000000000E+00 0. -1.
<mgrwt>
<rscale>  0 0.63540398E+03</rscale>
<asrwt>0</asrwt>
<pdfrwt beam="1">0</pdfrwt>
<pdfrwt beam="2">  1        2 0.36703552E+00 0.63540398E+03</pdfrwt>
<totfact> 0.52805824E+00</totfact>
</mgrwt>
</event>
<event>
 5    1  0.2368916E-004  0.6514553E+03  0.7818608E-02  0.9804052E-01
         13   -1    0    0    0    0  0.00000000000E+00  0.00000000000E+00  0.10000000000E+04  0.10000000000E+04  0.00000000000E+00 0. -1.
          2   -1    0    0  501    0 -0.00000000000E+00 -0.00000000000E+00 -0.10609848616E+03  0.10609848616E+03  0.00000000000E+00 0. -1.
    9000006    2    1    2  501    0  0.00000000000E+00  0.00000000000E+00  0.89390151384E+03  0.11060984862E+04  0.65145525144E+03 0.  0.
         13    1    3    3    0    0 -0.16667425255E+03  0.27589086479E+03  0.52663241000E+03  0.61744454892E+03  0.00000000000E+00 0. -1.
          2    1    3    3  501    0  0.16667425255E+03 -0.27589086479E+03  0.36726910384E+03  0.48865393723E+03  0.00000000000E+00 0. -1.
<mgrwt>
<rscale>  0 0.65145525E+03</rscale>
<asrwt>0</asrwt>
<pdfrwt beam="1">0</pdfrwt>
<pdfrwt beam="2">  1        2 0.38581349E+00 0.65145525E+03</pdfrwt>
<totfact> 0.44982152E+00</totfact>
</mgrwt>
</event>
<event>
 5    1  0.2368916E-004  0.6524168E+03  0.7818608E-02  0.9802255E-01
         13   -1    0    0    0    0  0.00000000000E+00  0.00000000000E+00  0.10000000000E+04  0.10000000000E+04  0.00000000000E+00 0. -1.
          2   -1    0    0  501    0 -0.00000000000E+00 -0.00000000000E+00 -0.10641192969E+03  0.10641192969E+03  0.00000000000E+00 0. -1.
    9000006    2    1    2  501    0  0.00000000000E+00  0.00000000000E+00  0.89358807031E+03  0.11064119297E+04  0.65241682900E+03 0.  0.
         13    1    3    3    0    0  0.30233757305E+03  0.12036670673E+03  0.48530841434E+03  0.58431191088E+03  0.00000000000E+00 0. -1.
          4    1    3    3  501    0 -0.30233757305E+03 -0.12036670673E+03  0.40827965597E+03  0.52210001881E+03  0.00000000000E+00 0. -1.
<mgrwt>
<rscale>  0 0.65241683E+03</rscale>
<asrwt>0</asrwt>
<pdfrwt beam="1">0</pdfrwt>
<pdfrwt beam="2">  1        2 0.38695329E+00 0.65241683E+03</pdfrwt>
<totfact> 0.44543132E+00</totfact>
</mgrwt>
</event>
<event>
 5    1  0.2368916E-004  0.6557273E+03  0.7818608E-02  0.9796091E-01
         13   -1    0    0    0    0  0.00000000000E+00  0.00000000000E+00  0.10000000000E+04  0.10000000000E+04  0.00000000000E+00 0. -1.
          2   -1    0    0  501    0 -0.00000000000E+00 -0.00000000000E+00 -0.10749457938E+03  0.10749457938E+03  0.00000000000E+00 0. -1.
    9000006    2    1    2  501    0  0.00000000000E+00  0.00000000000E+00  0.89250542062E+03  0.11074945794E+04  0.65572731948E+03 0.  0.
         13    1    3    3    0    0  0.11198506976E+03 -0.17482934535E+03  0.87482383009E+03  0.89912328940E+03  0.00000000000E+00 0. -1.
          2    1    3    3  501    0 -0.11198506976E+03  0.17482934535E+03  0.17681590534E+02  0.20837128998E+03  0.00000000000E+00 0. -1.
<mgrwt>
<rscale>  0 0.65572732E+03</rscale>
<asrwt>0</asrwt>
<pdfrwt beam="1">0</pdfrwt>
<pdfrwt beam="2">  1        2 0.39089020E+00 0.65572732E+03</pdfrwt>
<totfact> 0.43056399E+00</totfact>
</mgrwt>
</event>
<event>
 5    1  0.2368916E-004  0.6354955E+03  0.7818608E-02  0.9834383E-01
         13   -1    0    0    0    0  0.00000000000E+00  0.00000000000E+00  0.10000000000E+04  0.10000000000E+04  0.00000000000E+00 0. -1.
          2   -1    0    0  501    0 -0.00000000000E+00 -0.00000000000E+00 -0.10096363422E+03  0.10096363422E+03  0.00000000000E+00 0. -1.
    9000006    2    1    2  501    0  0.00000000000E+00  0.00000000000E+00  0.89903636578E+03  0.11009636342E+04  0.63549550500E+03 0.  0.
         13    1    3    3    0    0 -0.53204626010E+02 -0.22574177634E+02 -0.91780851096E+02  0.10846220702E+03  0.00000000000E+00 0. -1.
          2    1    3    3  501    0  0.53204626010E+02  0.22574177634E+02  0.99081721688E+03  0.99250142720E+03  0.00000000000E+00 0. -1.
<mgrwt>
<rscale>  0 0.63549551E+03</rscale>
<asrwt>0</asrwt>
<pdfrwt beam="1">0</pdfrwt>
<pdfrwt beam="2">  1        2 0.36714126E+00 0.63549551E+03</pdfrwt>
<totfact> 0.52758484E+00</totfact>
</mgrwt>
</event>
<event>
 5    1  0.2368916E-004  0.6496976E+03  0.7818608E-02  0.9807347E-01
         13   -1    0    0    0    0  0.00000000000E+00  0.00000000000E+00  0.10000000000E+04  0.10000000000E+04  0.00000000000E+00 0. -1.
          2   -1    0    0  501    0 -0.00000000000E+00 -0.00000000000E+00 -0.10552675043E+03  0.10552675043E+03  0.00000000000E+00 0. -1.
    9000006    2    1    2  501    0  0.00000000000E+00  0.00000000000E+00  0.89447324957E+03  0.11055267504E+04  0.64969762328E+03 0.  0.
         13    1    3    3    0    0  0.64808771583E+01 -0.52354711934E+02 -0.98189137991E+02  0.11146355660E+03  0.00000000000E+00 0. -1.
          2    1    3    3  501    0 -0.64808771583E+01  0.52354711934E+02  0.99266238757E+03  0.99406319383E+03  0.00000000000E+00 0. -1.
<mgrwt>
<rscale>  0 0.64969762E+03</rscale>
<asrwt>0</asrwt>
<pdfrwt beam="1">0</pdfrwt>
<pdfrwt beam="2">  1        2 0.38373445E+00 0.64969762E+03</pdfrwt>
<totfact> 0.45793059E+00</totfact>
</mgrwt>
</event>
<event>
 5    1  0.2368916E-004  0.6587146E+03  0.7818608E-02  0.9790563E-01
         13   -1    0    0    0    0  0.00000000000E+00  0.00000000000E+00  0.10000000000E+04  0.10000000000E+04  0.00000000000E+00 0. -1.
          2   -1    0    0  501    0 -0.00000000000E+00 -0.00000000000E+00 -0.10847622357E+03  0.10847622357E+03  0.00000000000E+00 0. -1.
    9000006    2    1    2  501    0  0.00000000000E+00  0.00000000000E+00  0.89152377643E+03  0.11084762236E+04  0.65871457723E+03 0.  0.
         13    1    3    3    0    0 -0.76205740715E+02  0.31631349560E+03  0.35971434490E+03  0.48503190858E+03  0.00000000000E+00 0. -1.
          4    1    3    3  501    0  0.76205740715E+02 -0.31631349560E+03  0.53180943153E+03  0.62344431498E+03  0.00000000000E+00 0. -1.
<mgrwt>
<rscale>  0 0.65871458E+03</rscale>
<asrwt>0</asrwt>
<pdfrwt beam="1">0</pdfrwt>
<pdfrwt beam="2">  1        2 0.39445983E+00 0.65871458E+03</pdfrwt>
<totfact> 0.41747296E+00</totfact>
</mgrwt>
</event>
<event>
 5    1  0.2368916E-004  0.6535756E+03  0.7818608E-02  0.9800093E-01
         13   -1    0    0    0    0  0.00000000000E+00  0.00000000000E+00  0.10000000000E+04  0.10000000000E+04  0.00000000000E+00 0. -1.
          2   -1    0    0  501    0 -0.00000000000E+00 -0.00000000000E+00 -0.10679025195E+03  0.10679025195E+03  0.00000000000E+00 0. -1.
    9000006    2    1    2  501    0  0.00000000000E+00  0.00000000000E+00  0.89320974805E+03  0.11067902520E+04  0.65357555632E+03 0.  0.
         13    1    3    3    0    0  0.29453874767E+03 -0.13953012879E+03  0.48698269421E+03  0.58598112186E+03  0.00000000000E+00 0. -1.
          2    1    3    3  501    0 -0.29453874767E+03  0.13953012879E+03  0.40622705384E+03  0.52080913009E+03  0.00000000000E+00 0. -1.
<mgrwt>
<rscale>  0 0.65357556E+03</rscale>
<asrwt>0</asrwt>
<pdfrwt beam="1">0</pdfrwt>
<pdfrwt beam="2">  1        2 0.38832901E+00 0.65357556E+03</pdfrwt>
<totfact> 0.44018411E+00</totfact>
</mgrwt>
</event>
<event>
 5    1  0.2368916E-004  0.6422244E+03  0.7818608E-02  0.9821480E-01
         13   -1    0    0    0    0  0.00000000000E+00  0.00000000000E+00  0.10000000000E+04  0.10000000000E+04  0.00000000000E+00 0. -1.
          2   -1    0    0  501    0 -0.00000000000E+00 -0.00000000000E+00 -0.10311302899E+03  0.10311302899E+03  0.00000000000E+00 0. -1.
    9000006    2    1    2  501    0  0.00000000000E+00  0.00000000000E+00  0.89688697101E+03  0.11031130290E+04  0.64222435018E+03 0.  0.
         13    1    3    3    0    0  0.31439508685E+03  0.39777309865E+02  0.53747189335E+03  0.62394113597E+03  0.00000000000E+00 0. -1.
          4    1    3    3  501    0 -0.31439508685E+03 -0.39777309865E+02  0.35941507766E+03  0.47917189303E+03  0.00000000000E+00 0. -1.
<mgrwt>
<rscale>  0 0.64222435E+03</rscale>
<asrwt>0</asrwt>
<pdfrwt beam="1">0</pdfrwt>
<pdfrwt beam="2">  1        2 0.37495726E+00 0.64222435E+03</pdfrwt>
<totfact> 0.49365083E+00</totfact>
</mgrwt>
</event>
<event>
 5    1  0.2368916E-004  0.6547581E+03  0.7818608E-02  0.9797892E-01
         13   -1    0    0    0    0  0.00000000000E+00  0.00000000000E+00  0.10000000000E+04  0.10000000000E+04  0.00000000000E+00 0. -1.
          2   -1    0    0  501    0 -0.00000000000E+00 -0.00000000000E+00 -0.10717702899E+03  0.10717702899E+03  0.00000000000E+00 0. -1.
    9000006    2    1    2  501    0  0.00000000000E+00  0.00000000000E+00  0.89282297101E+03  0.11071770290E+04  0.65475805911E+03 0.  0.
         13    1    3    3    0    0 -0.24380159918E+03 -0.18899825950E+03  0.63178286660E+03  0.70307122853E+03  0.00000000000E+00 0. -1.
          4    1    3    3  501    0  0.24380159918E+03  0.18899825950E+03  0.26104010440E+03  0.40410580046E+03  0.00000000000E+00 0. -1.
<mgrwt>
<rscale>  0 0.65475806E+03</rscale>
<asrwt>0</asrwt>
<pdfrwt beam="1">0</pdfrwt>
<pdfrwt beam="2">  1        2 0.38973547E+00 0.65475806E+03</pdfrwt>
<totfact> 0.43487750E+00</totfact>
</mgrwt>
</event>
<event>
 5    1  0.2368916E-004  0.6582242E+03  0.7818608E-02  0.9791468E-01
         13   -1    0    0    0    0  0.00000000000E+00  0.00000000000E+00  0.10000000000E+04  0.10000000000E+04  0.00000000000E+00 0. -1.
          2   -1    0    0  501    0 -0.00000000000E+00 -0.00000000000E+00 -0.10831477962E+03  0.10831477962E+03  0.00000000000E+00 0. -1.
    9000006    2    1    2  501    0  0.00000000000E+00  0.00000000000E+00  0.89168522038E+03  0.11083147796E+04  0.65822421596E+03 0.  0.
         13    1    3    3    0    0  0.31810396675E+03 -0.84120384046E+02  0.43412758824E+03  0.54473216863E+03  0.00000000000E+00 0. -1.
          4    1    3    3  501    0 -0.31810396675E+03  0.84120384046E+02  0.45755763214E+03  0.56358261099E+03  0.00000000000E+00 0. -1.
<mgrwt>
<rscale>  0 0.65822422E+03</rscale>
<asrwt>0</asrwt>
<pdfrwt beam="1">0</pdfrwt>
<pdfrwt beam="2">  1        2 0.39387276E+00 0.65822422E+03</pdfrwt>
<totfact> 0.41960082E+00</totfact>
</mgrwt>
</event>
<event>
 5    1  0.2368916E-004  0.6408229E+03  0.7818608E-02  0.9824153E-01
         13   -1    0    0    0    0  0.00000000000E+00  0.00000000000E+00  0.10000000000E+04  0.10000000000E+04  0.00000000000E+00 0. -1.
          2   -1    0    0  501    0 -0.00000000000E+00 -0.00000000000E+00 -0.10266348784E+03  0.10266348784E+03  0.00000000000E+00 0. -1.
    9000006    2    1    2  501    0  0.00000000000E+00  0.00000000000E+00  0.89733651216E+03  0.11026634878E+04  0.64082287049E+03 0.  0.
         13    1    3    3    0    0  0.25344353985E+03 -0.19546645134E+03  0.42298850651E+03  0.53043382069E+03  0.00000000000E+00 0. -1.
          4    1    3    3  501    0 -0.25344353985E+03  0.19546645134E+03  0.47434800565E+03  0.57222966714E+03  0.00000000000E+00 0. -1.
<mgrwt>
<rscale>  0 0.64082287E+03</rscale>
<asrwt>0</asrwt>
<pdfrwt beam="1">0</pdfrwt>
<pdfrwt beam="2">  1        2 0.37332256E+00 0.64082287E+03</pdfrwt>
<totfact> 0.50057818E+00</totfact>
</mgrwt>
</event>
<event>
 5    1  0.2368916E-004  0.6462835E+03  0.7818608E-02  0.9813778E-01
         13   -1    0    0    0    0  0.00000000000E+00  0.00000000000E+00  0.10000000000E+04  0.10000000000E+04  0.00000000000E+00 0. -1.
          2   -1    0    0  501    0 -0.00000000000E+00 -0.00000000000E+00 -0.10442060144E+03  0.10442060144E+03  0.00000000000E+00 0. -1.
    9000006    2    1    2  501    0  0.00000000000E+00  0.00000000000E+00  0.89557939856E+03  0.11044206014E+04  0.64628353356E+03 0.  0.
         13    1    3    3    0    0  0.19423375930E+03  0.20520768993E+03  0.71572788339E+03  0.76948252242E+03  0.00000000000E+00 0. -1.
          2    1    3    3  501    0 -0.19423375930E+03 -0.20520768993E+03  0.17985151518E+03  0.33493807901E+03  0.00000000000E+00 0. -1.
<mgrwt>
<rscale>  0 0.64628353E+03</rscale>
<asrwt>0</asrwt>
<pdfrwt beam="1">0</pdfrwt>
<pdfrwt beam="2">  1        2 0.37971208E+00 0.64628353E+03</pdfrwt>
<totfact> 0.47399729E+00</totfact>
</mgrwt>
</event>
<event>
 5    1  0.2368916E-004  0.6422313E+03  0.7818608E-02  0.9821467E-01
         13   -1    0    0    0    0  0.00000000000E+00  0.00000000000E+00  0.10000000000E+04  0.10000000000E+04  0.00000000000E+00 0. -1.
          2   -1    0    0  501    0 -0.00000000000E+00 -0.00000000000E+00 -0.10311525370E+03  0.10311525370E+03  0.00000000000E+00 0. -1.
    9000006    2    1    2  501    0  0.00000000000E+00  0.00000000000E+00  0.89688474630E+03  0.11031152537E+04  0.64223127829E+03 0.  0.
         13    1    3    3    0    0 -0.25113603706E+01 -0.78438822893E+02  0.98327445324E+03  0.98640134137E+03  0.00000000000E+00 0. -1.
          2    1    3    3  501    0  0.25113603706E+01  0.78438822893E+02 -0.86389706940E+02  0.11671391234E+03  0.00000000000E+00 0. -1.
<mgrwt>
<rscale>  0 0.64223128E+03</rscale>
<asrwt>0</asrwt>
<pdfrwt beam="1">0</pdfrwt>
<pdfrwt beam="2">  1        2 0.37496535E+00 0.64223128E+03</pdfrwt>
<totfact> 0.49361676E+00</totfact>
</mgrwt>
</event>
<event>
 5    1  0.2368916E-004  0.6853944E+03  0.7818608E-02  0.9742541E-01
         13   -1    0    0    0    0  0.00000000000E+00  0.00000000000E+00  0.10000000000E+04  0.10000000000E+04  0.00000000000E+00 0. -1.
          2   -1    0    0  501    0 -0.00000000000E+00 -0.00000000000E+00 -0.11744136476E+03  0.11744136476E+03  0.00000000000E+00 0. -1.
    9000006    2    1    2  501    0  0.00000000000E+00  0.00000000000E+00  0.88255863524E+03  0.11174413648E+04  0.68539438212E+03 0.  0.
         13    1    3    3    0    0  0.18968467132E+03 -0.28198071069E+03  0.51323667847E+03  0.61555282784E+03  0.00000000000E+00 0. -1.
          2    1    3    3  501    0 -0.18968467132E+03  0.28198071069E+03  0.36932195677E+03  0.50188853692E+03  0.00000000000E+00 0. -1.
<mgrwt>
<rscale>  0 0.68539438E+03</rscale>
<asrwt>0</asrwt>
<pdfrwt beam="1">0</pdfrwt>
<pdfrwt beam="2">  1        2 0.42706041E+00 0.68539438E+03</pdfrwt>
<totfact> 0.31342748E+00</totfact>
</mgrwt>
</event>
<event>
 5    1  0.2368916E-004  0.6421616E+03  0.7818608E-02  0.9821600E-01
         13   -1    0    0    0    0  0.00000000000E+00  0.00000000000E+00  0.10000000000E+04  0.10000000000E+04  0.00000000000E+00 0. -1.
          2   -1    0    0  501    0 -0.00000000000E+00 -0.00000000000E+00 -0.10309289049E+03  0.10309289049E+03  0.00000000000E+00 0. -1.
    9000006    2    1    2  501    0  0.00000000000E+00  0.00000000000E+00  0.89690710951E+03  0.11030928905E+04  0.64216163226E+03 0.  0.
         13    1    3    3    0    0 -0.32719710860E+02 -0.10344069804E+03 -0.70652662718E+02  0.12946951857E+03  0.00000000000E+00 0. -1.
          2    1    3    3  501    0  0.32719710860E+02  0.10344069804E+03  0.96755977223E+03  0.97362337191E+03  0.00000000000E+00 0. -1.
<mgrwt>
<rscale>  0 0.64216163E+03</rscale>
<asrwt>0</asrwt>
<pdfrwt beam="1">0</pdfrwt>
<pdfrwt beam="2">  1        2 0.37488403E+00 0.64216163E+03</pdfrwt>
<totfact> 0.49395927E+00</totfact>
</mgrwt>
</event>
<event>
 5    1  0.2368916E-004  0.6284381E+03  0.7818608E-02  0.9848101E-01
         13   -1    0    0    0    0  0.00000000000E+00  0.00000000000E+00  0.10000000000E+04  0.10000000000E+04  0.00000000000E+00 0. -1.
          2   -1    0    0  501    0 -0.00000000000E+00 -0.00000000000E+00 -0.98733626412E+02  0.98733626412E+02  0.00000000000E+00 0. -1.
    9000006    2    1    2  501    0  0.00000000000E+00  0.00000000000E+00  0.90126637359E+03  0.10987336264E+04  0.62843814783E+03 0.  0.
         13    1    3    3    0    0  0.56375694250E+02 -0.29018179328E+03  0.26437020500E+03  0.39657949688E+03  0.00000000000E+00 0. -1.
          2    1    3    3  501    0 -0.56375694250E+02  0.29018179328E+03  0.63689616859E+03  0.70215412953E+03  0.00000000000E+00 0. -1.
<mgrwt>
<rscale>  0 0.62843815E+03</rscale>
<asrwt>0</asrwt>
<pdfrwt beam="1">0</pdfrwt>
<pdfrwt beam="2">  1        2 0.35903213E+00 0.62843815E+03</pdfrwt>
<totfact> 0.56504560E+00</totfact>
</mgrwt>
</event>
<event>
 5    1  0.2368916E-004  0.6479883E+03  0.7818608E-02  0.9810561E-01
         13   -1    0    0    0    0  0.00000000000E+00  0.00000000000E+00  0.10000000000E+04  0.10000000000E+04  0.00000000000E+00 0. -1.
          4   -1    0    0  501    0 -0.00000000000E+00 -0.00000000000E+00 -0.10497219836E+03  0.10497219836E+03  0.00000000000E+00 0. -1.
    9000006    2    1    2  501    0  0.00000000000E+00  0.00000000000E+00  0.89502780164E+03  0.11049721984E+04  0.64798826643E+03 0.  0.
         13    1    3    3    0    0  0.43768943968E+02  0.30680076988E+03  0.60865422625E+03  0.68300980958E+03  0.00000000000E+00 0. -1.
          4    1    3    3  501    0 -0.43768943968E+02 -0.30680076988E+03  0.28637357540E+03  0.42196238878E+03  0.00000000000E+00 0. -1.
<mgrwt>
<rscale>  0 0.64798827E+03</rscale>
<asrwt>0</asrwt>
<pdfrwt beam="1">0</pdfrwt>
<pdfrwt beam="2">  1        4 0.38171789E+00 0.64798827E+03</pdfrwt>
<totfact> 0.42720926E-02</totfact>
</mgrwt>
</event>
<event>
 5    1  0.2368916E-004  0.6430851E+03  0.7818608E-02  0.9819842E-01
         13   -1    0    0    0    0  0.00000000000E+00  0.00000000000E+00  0.10000000000E+04  0.10000000000E+04  0.00000000000E+00 0. -1.
          2   -1    0    0  501    0 -0.00000000000E+00 -0.00000000000E+00 -0.10338962695E+03  0.10338962695E+03  0.00000000000E+00 0. -1.
    9000006    2    1    2  501    0  0.00000000000E+00  0.00000000000E+00  0.89661037305E+03  0.11033896269E+04  0.64308514817E+03 0.  0.
         13    1    3    3    0    0  0.60728928785E+02 -0.14283101012E+03  0.93147472716E+03  0.94431661406E+03  0.00000000000E+00 0. -1.
          2    1    3    3  501    0 -0.60728928785E+02  0.14283101012E+03 -0.34864354111E+02  0.15907301289E+03  0.00000000000E+00 0. -1.
<mgrwt>
<rscale>  0 0.64308515E+03</rscale>
<asrwt>0</asrwt>
<pdfrwt beam="1">0</pdfrwt>
<pdfrwt beam="2">  1        2 0.37596307E+00 0.64308515E+03</pdfrwt>
<totfact> 0.48943231E+00</totfact>
</mgrwt>
</event>
<event>
 5    1  0.2368916E-004  0.6400032E+03  0.7818608E-02  0.9825720E-01
         13   -1    0    0    0    0  0.00000000000E+00  0.00000000000E+00  0.10000000000E+04  0.10000000000E+04  0.00000000000E+00 0. -1.
          2   -1    0    0  501    0 -0.00000000000E+00 -0.00000000000E+00 -0.10240102710E+03  0.10240102710E+03  0.00000000000E+00 0. -1.
    9000006    2    1    2  501    0  0.00000000000E+00  0.00000000000E+00  0.89759897290E+03  0.11024010271E+04  0.64000320967E+03 0.  0.
         13    1    3    3    0    0  0.87675748437E+02  0.23371836244E+03  0.79368420683E+03  0.83201317897E+03  0.00000000000E+00 0. -1.
          4    1    3    3  501    0 -0.87675748437E+02 -0.23371836244E+03  0.10391476607E+03  0.27038784813E+03  0.00000000000E+00 0. -1.
<mgrwt>
<rscale>  0 0.64000321E+03</rscale>
<asrwt>0</asrwt>
<pdfrwt beam="1">0</pdfrwt>
<pdfrwt beam="2">  1        2 0.37236816E+00 0.64000321E+03</pdfrwt>
<totfact> 0.50466363E+00</totfact>
</mgrwt>
</event>
<event>
 5    1  0.2368916E-004  0.6428333E+03  0.7818608E-02  0.9820321E-01
         13   -1    0    0    0    0  0.00000000000E+00  0.00000000000E+00  0.10000000000E+04  0.10000000000E+04  0.00000000000E+00 0. -1.
          2   -1    0    0  501    0 -0.00000000000E+00 -0.00000000000E+00 -0.10330867703E+03  0.10330867703E+03  0.00000000000E+00 0. -1.
    9000006    2    1    2  501    0  0.00000000000E+00  0.00000000000E+00  0.89669132297E+03  0.11033086770E+04  0.64283334396E+03 0.  0.
         13    1    3    3    0    0  0.63696378322E+02  0.31176176826E+03  0.52616997361E+03  0.61490443964E+03  0.00000000000E+00 0. -1.
          4    1    3    3  501    0 -0.63696378322E+02 -0.31176176826E+03  0.37052134937E+03  0.48840423739E+03  0.00000000000E+00 0. -1.
<mgrwt>
<rscale>  0 0.64283334E+03</rscale>
<asrwt>0</asrwt>
<pdfrwt beam="1">0</pdfrwt>
<pdfrwt beam="2">  1        2 0.37566871E+00 0.64283334E+03</pdfrwt>
<totfact> 0.49066343E+00</totfact>
</mgrwt>
</event>
<event>
 5    1  0.2368916E-004  0.6335268E+03  0.7818608E-02  0.9838191E-01
         13   -1    0    0    0    0  0.00000000000E+00  0.00000000000E+00  0.10000000000E+04  0.10000000000E+04  0.00000000000E+00 0. -1.
          2   -1    0    0  501    0 -0.00000000000E+00 -0.00000000000E+00 -0.10033903757E+03  0.10033903757E+03  0.00000000000E+00 0. -1.
    9000006    2    1    2  501    0  0.00000000000E+00  0.00000000000E+00  0.89966096243E+03  0.11003390376E+04  0.63352675578E+03 0.  0.
         13    1    3    3    0    0  0.31192940577E+03  0.30157104960E+02  0.52998239258E+03  0.61570345265E+03  0.00000000000E+00 0. -1.
          2    1    3    3  501    0 -0.31192940577E+03 -0.30157104960E+02  0.36967856985E+03  0.48463558492E+03  0.00000000000E+00 0. -1.
<mgrwt>
<rscale>  0 0.63352676E+03</rscale>
<asrwt>0</asrwt>
<pdfrwt beam="1">0</pdfrwt>
<pdfrwt beam="2">  1        2 0.36487000E+00 0.63352676E+03</pdfrwt>
<totfact> 0.53783953E+00</totfact>
</mgrwt>
</event>
<event>
 5    1  0.2368916E-004  0.6342216E+03  0.7818608E-02  0.9836845E-01
         13   -1    0    0    0    0  0.00000000000E+00  0.00000000000E+00  0.10000000000E+04  0.10000000000E+04  0.00000000000E+00 0. -1.
          2   -1    0    0  501    0 -0.00000000000E+00 -0.00000000000E+00 -0.10055924633E+03  0.10055924633E+03  0.00000000000E+00 0. -1.
    9000006    2    1    2  501    0  0.00000000000E+00  0.00000000000E+00  0.89944075367E+03  0.11005592463E+04  0.63422155856E+03 0.  0.
         13    1    3    3    0    0 -0.35793200855E+02 -0.15506857371E+03  0.92568342915E+03  0.93926419434E+03  0.00000000000E+00 0. -1.
          2    1    3    3  501    0  0.35793200855E+02  0.15506857371E+03 -0.26242675480E+02  0.16129505199E+03  0.00000000000E+00 0. -1.
<mgrwt>
<rscale>  0 0.63422156E+03</rscale>
<asrwt>0</asrwt>
<pdfrwt beam="1">0</pdfrwt>
<pdfrwt beam="2">  1        2 0.36567076E+00 0.63422156E+03</pdfrwt>
<totfact> 0.53420339E+00</totfact>
</mgrwt>
</event>
<event>
 5    1  0.2368916E-004  0.6483346E+03  0.7818608E-02  0.9809909E-01
         13   -1    0    0    0    0  0.00000000000E+00  0.00000000000E+00  0.10000000000E+04  0.10000000000E+04  0.00000000000E+00 0. -1.
          2   -1    0    0  501    0 -0.00000000000E+00 -0.00000000000E+00 -0.10508444319E+03  0.10508444319E+03  0.00000000000E+00 0. -1.
    9000006    2    1    2  501    0  0.00000000000E+00  0.00000000000E+00  0.89491555681E+03  0.11050844432E+04  0.64833461480E+03 0.  0.
         13    1    3    3    0    0  0.92823620832E+02 -0.28389829391E+02  0.97464699716E+03  0.97946872133E+03  0.00000000000E+00 0. -1.
          4    1    3    3  501    0 -0.92823620832E+02  0.28389829391E+02 -0.79731440347E+02  0.12561572185E+03  0.00000000000E+00 0. -1.
<mgrwt>
<rscale>  0 0.64833461E+03</rscale>
<asrwt>0</asrwt>
<pdfrwt beam="1">0</pdfrwt>
<pdfrwt beam="2">  1        2 0.38212605E+00 0.64833461E+03</pdfrwt>
<totfact> 0.46429470E+00</totfact>
</mgrwt>
</event>
<event>
 5    1  0.2368916E-004  0.6549923E+03  0.7818608E-02  0.9797456E-01
         13   -1    0    0    0    0  0.00000000000E+00  0.00000000000E+00  0.10000000000E+04  0.10000000000E+04  0.00000000000E+00 0. -1.
          2   -1    0    0  501    0 -0.00000000000E+00 -0.00000000000E+00 -0.10725371398E+03  0.10725371398E+03  0.00000000000E+00 0. -1.
    9000006    2    1    2  501    0  0.00000000000E+00  0.00000000000E+00  0.89274628602E+03  0.11072537140E+04  0.65499225637E+03 0.  0.
         13    1    3    3    0    0  0.22690792522E+03 -0.23010794203E+03  0.53609376174E+03  0.62596596784E+03  0.00000000000E+00 0. -1.
          2    1    3    3  501    0 -0.22690792522E+03  0.23010794203E+03  0.35665252428E+03  0.48128774614E+03  0.00000000000E+00 0. -1.
<mgrwt>
<rscale>  0 0.65499226E+03</rscale>
<asrwt>0</asrwt>
<pdfrwt beam="1">0</pdfrwt>
<pdfrwt beam="2">  1        2 0.39001433E+00 0.65499226E+03</pdfrwt>
<totfact> 0.43383227E+00</totfact>
</mgrwt>
</event>
<event>
 5    1  0.2368916E-004  0.6506672E+03  0.7818608E-02  0.9805528E-01
         13   -1    0    0    0    0  0.00000000000E+00  0.00000000000E+00  0.10000000000E+04  0.10000000000E+04  0.00000000000E+00 0. -1.
          2   -1    0    0  501    0 -0.00000000000E+00 -0.00000000000E+00 -0.10584194430E+03  0.10584194430E+03  0.00000000000E+00 0. -1.
    9000006    2    1    2  501    0  0.00000000000E+00  0.00000000000E+00  0.89415805570E+03  0.11058419443E+04  0.65066717851E+03 0.  0.
         13    1    3    3    0    0  0.26451365394E+03 -0.13615483661E+03  0.22330341172E+03  0.37198121773E+03  0.00000000000E+00 0. -1.
          4    1    3    3  501    0 -0.26451365394E+03  0.13615483661E+03  0.67085464398E+03  0.73386072657E+03  0.00000000000E+00 0. -1.
<mgrwt>
<rscale>  0 0.65066718E+03</rscale>
<asrwt>0</asrwt>
<pdfrwt beam="1">0</pdfrwt>
<pdfrwt beam="2">  1        2 0.38488061E+00 0.65066718E+03</pdfrwt>
<totfact> 0.45344387E+00</totfact>
</mgrwt>
</event>
<event>
 5    1  0.2368916E-004  0.6472401E+03  0.7818608E-02  0.9811972E-01
         13   -1    0    0    0    0  0.00000000000E+00  0.00000000000E+00  0.10000000000E+04  0.10000000000E+04  0.00000000000E+00 0. -1.
          2   -1    0    0  501    0 -0.00000000000E+00 -0.00000000000E+00 -0.10472992747E+03  0.10472992747E+03  0.00000000000E+00 0. -1.
    9000006    2    1    2  501    0  0.00000000000E+00  0.00000000000E+00  0.89527007253E+03  0.11047299275E+04  0.64724007130E+03 0.  0.
         13    1    3    3    0    0 -0.18539557122E+03  0.25273368640E+03  0.31019433784E+03  0.44098340252E+03  0.00000000000E+00 0. -1.
          2    1    3    3  501    0  0.18539557122E+03 -0.25273368640E+03  0.58507573469E+03  0.66374652496E+03  0.00000000000E+00 0. -1.
<mgrwt>
<rscale>  0 0.64724007E+03</rscale>
<asrwt>0</asrwt>
<pdfrwt beam="1">0</pdfrwt>
<pdfrwt beam="2">  1        2 0.38083690E+00 0.64724007E+03</pdfrwt>
<totfact> 0.46945352E+00</totfact>
</mgrwt>
</event>
<event>
 5    1  0.2368916E-004  0.6453884E+03  0.7818608E-02  0.9815471E-01
         13   -1    0    0    0    0  0.00000000000E+00  0.00000000000E+00  0.10000000000E+04  0.10000000000E+04  0.00000000000E+00 0. -1.
          2   -1    0    0  501    0 -0.00000000000E+00 -0.00000000000E+00 -0.10413153769E+03  0.10413153769E+03  0.00000000000E+00 0. -1.
    9000006    2    1    2  501    0  0.00000000000E+00  0.00000000000E+00  0.89586846231E+03  0.11041315377E+04  0.64538837204E+03 0.  0.
         13    1    3    3    0    0 -0.19250811866E+02  0.21827946418E+03  0.42669101328E+02  0.22324240289E+03  0.00000000000E+00 0. -1.
          4    1    3    3  501    0  0.19250811866E+02 -0.21827946418E+03  0.85319936098E+03  0.88088913480E+03  0.00000000000E+00 0. -1.
<mgrwt>
<rscale>  0 0.64538837E+03</rscale>
<asrwt>0</asrwt>
<pdfrwt beam="1">0</pdfrwt>
<pdfrwt beam="2">  1        2 0.37866094E+00 0.64538837E+03</pdfrwt>
<totfact> 0.47827956E+00</totfact>
</mgrwt>
</event>
<event>
 5    1  0.2368916E-004  0.6540264E+03  0.7818608E-02  0.9799253E-01
         13   -1    0    0    0    0  0.00000000000E+00  0.00000000000E+00  0.10000000000E+04  0.10000000000E+04  0.00000000000E+00 0. -1.
          2   -1    0    0  501    0 -0.00000000000E+00 -0.00000000000E+00 -0.10693764592E+03  0.10693764592E+03  0.00000000000E+00 0. -1.
    9000006    2    1    2  501    0  0.00000000000E+00  0.00000000000E+00  0.89306235408E+03  0.11069376459E+04  0.65402643960E+03 0.  0.
         13    1    3    3    0    0 -0.85509446046E+02 -0.31453071818E+03  0.49118897648E+03  0.58949813287E+03  0.00000000000E+00 0. -1.
          4    1    3    3  501    0  0.85509446046E+02  0.31453071818E+03  0.40187337760E+03  0.51743951305E+03  0.00000000000E+00 0. -1.
<mgrwt>
<rscale>  0 0.65402644E+03</rscale>
<asrwt>0</asrwt>
<pdfrwt beam="1">0</pdfrwt>
<pdfrwt beam="2">  1        2 0.38886499E+00 0.65402644E+03</pdfrwt>
<totfact> 0.43815499E+00</totfact>
</mgrwt>
</event>
<event>
 5    1  0.2368916E-004  0.6552863E+03  0.7818608E-02  0.9796910E-01
         13   -1    0    0    0    0  0.00000000000E+00  0.00000000000E+00  0.10000000000E+04  0.10000000000E+04  0.00000000000E+00 0. -1.
          2   -1    0    0  501    0 -0.00000000000E+00 -0.00000000000E+00 -0.10735003287E+03  0.10735003287E+03  0.00000000000E+00 0. -1.
    9000006    2    1    2  501    0  0.00000000000E+00  0.00000000000E+00  0.89264996713E+03  0.11073500329E+04  0.65528629733E+03 0.  0.
         13    1    3    3    0    0  0.29994291216E+03  0.56886943333E+02  0.24532140624E+03  0.39164329081E+03  0.00000000000E+00 0. -1.
          2    1    3    3  501    0 -0.29994291216E+03 -0.56886943333E+02  0.64732856089E+03  0.71570674205E+03  0.00000000000E+00 0. -1.
<mgrwt>
<rscale>  0 0.65528630E+03</rscale>
<asrwt>0</asrwt>
<pdfrwt beam="1">0</pdfrwt>
<pdfrwt beam="2">  1        2 0.39036458E+00 0.65528630E+03</pdfrwt>
<totfact> 0.43252265E+00</totfact>
</mgrwt>
</event>
<event>
 5    1  0.2368916E-004  0.6501537E+03  0.7818608E-02  0.9806491E-01
         13   -1    0    0    0    0  0.00000000000E+00  0.00000000000E+00  0.10000000000E+04  0.10000000000E+04  0.00000000000E+00 0. -1.
          2   -1    0    0  501    0 -0.00000000000E+00 -0.00000000000E+00 -0.10567495909E+03  0.10567495909E+03  0.00000000000E+00 0. -1.
    9000006    2    1    2  501    0  0.00000000000E+00  0.00000000000E+00  0.89432504091E+03  0.11056749591E+04  0.65015370211E+03 0.  0.
         13    1    3    3    0    0  0.30474792339E+03 -0.11043724676E+03  0.48907127760E+03  0.58673537209E+03  0.00000000000E+00 0. -1.
          2    1    3    3  501    0 -0.30474792339E+03  0.11043724676E+03  0.40525376331E+03  0.51893958701E+03  0.00000000000E+00 0. -1.
<mgrwt>
<rscale>  0 0.65015370E+03</rscale>
<asrwt>0</asrwt>
<pdfrwt beam="1">0</pdfrwt>
<pdfrwt beam="2">  1        2 0.38427339E+00 0.65015370E+03</pdfrwt>
<totfact> 0.45581588E+00</totfact>
</mgrwt>
</event>
<event>
 5    1  0.2368916E-004  0.6574212E+03  0.7818608E-02  0.9792953E-01
         13   -1    0    0    0    0  0.00000000000E+00  0.00000000000E+00  0.10000000000E+04  0.10000000000E+04  0.00000000000E+00 0. -1.
          2   -1    0    0  501    0 -0.00000000000E+00 -0.00000000000E+00 -0.10805065109E+03  0.10805065109E+03  0.00000000000E+00 0. -1.
    9000006    2    1    2  501    0  0.00000000000E+00  0.00000000000E+00  0.89194934891E+03  0.11080506511E+04  0.65742117730E+03 0.  0.
         13    1    3    3    0    0 -0.92114858039E+02  0.64356493514E+02  0.96662261359E+03  0.97313215055E+03  0.00000000000E+00 0. -1.
          4    1    3    3  501    0  0.92114858039E+02 -0.64356493514E+02 -0.74673264682E+02  0.13491850054E+03  0.00000000000E+00 0. -1.
<mgrwt>
<rscale>  0 0.65742118E+03</rscale>
<asrwt>0</asrwt>
<pdfrwt beam="1">0</pdfrwt>
<pdfrwt beam="2">  1        2 0.39291229E+00 0.65742118E+03</pdfrwt>
<totfact> 0.42310346E+00</totfact>
</mgrwt>
</event>
<event>
 5    1  0.2368916E-004  0.5258495E+03  0.7818608E-02  0.1007244E+00
         13   -1    0    0    0    0  0.00000000000E+00  0.00000000000E+00  0.10000000000E+04  0.10000000000E+04  0.00000000000E+00 0. -1.
          2   -1    0    0  501    0 -0.00000000000E+00 -0.00000000000E+00 -0.69129437252E+02  0.69129437252E+02  0.00000000000E+00 0. -1.
    9000006    2    1    2  501    0  0.00000000000E+00  0.00000000000E+00  0.93087056275E+03  0.10691294373E+04  0.52584954978E+03 0.  0.
         13    1    3    3    0    0 -0.14976116903E+02 -0.25763213987E+03  0.56771760461E+03  0.62361998216E+03  0.00000000000E+00 0. -1.
          4    1    3    3  501    0  0.14976116903E+02  0.25763213987E+03  0.36315295814E+03  0.44550945509E+03  0.00000000000E+00 0. -1.
<mgrwt>
<rscale>  0 0.52584955E+03</rscale>
<asrwt>0</asrwt>
<pdfrwt beam="1">0</pdfrwt>
<pdfrwt beam="2">  1        2 0.25138030E+00 0.52584955E+03</pdfrwt>
<totfact> 0.13781166E+01</totfact>
</mgrwt>
</event>
<event>
 5    1  0.2368916E-004  0.6579563E+03  0.7818608E-02  0.9791963E-01
         13   -1    0    0    0    0  0.00000000000E+00  0.00000000000E+00  0.10000000000E+04  0.10000000000E+04  0.00000000000E+00 0. -1.
          2   -1    0    0  501    0 -0.00000000000E+00 -0.00000000000E+00 -0.10822662574E+03  0.10822662574E+03  0.00000000000E+00 0. -1.
    9000006    2    1    2  501    0  0.00000000000E+00  0.00000000000E+00  0.89177337426E+03  0.11082266257E+04  0.65795630780E+03 0.  0.
         13    1    3    3    0    0 -0.16647379086E+03 -0.27704844086E+03  0.54913129702E+03  0.63719270476E+03  0.00000000000E+00 0. -1.
          2    1    3    3  501    0  0.16647379086E+03  0.27704844086E+03  0.34264207723E+03  0.47103392098E+03  0.00000000000E+00 0. -1.
<mgrwt>
<rscale>  0 0.65795631E+03</rscale>
<asrwt>0</asrwt>
<pdfrwt beam="1">0</pdfrwt>
<pdfrwt beam="2">  1        2 0.39355220E+00 0.65795631E+03</pdfrwt>
<totfact> 0.42076692E+00</totfact>
</mgrwt>
</event>
<event>
 5    1  0.2368916E-004  0.6122847E+03  0.7818608E-02  0.9880242E-01
         13   -1    0    0    0    0  0.00000000000E+00  0.00000000000E+00  0.10000000000E+04  0.10000000000E+04  0.00000000000E+00 0. -1.
          2   -1    0    0  501    0 -0.00000000000E+00 -0.00000000000E+00 -0.93723143542E+02  0.93723143542E+02  0.00000000000E+00 0. -1.
    9000006    2    1    2  501    0  0.00000000000E+00  0.00000000000E+00  0.90627685646E+03  0.10937231435E+04  0.61228471659E+03 0.  0.
         13    1    3    3    0    0 -0.23456527083E+03  0.19671754402E+03  0.44935537958E+03  0.54372687589E+03  0.00000000000E+00 0. -1.
          4    1    3    3  501    0  0.23456527083E+03 -0.19671754402E+03  0.45692147688E+03  0.54999626765E+03  0.00000000000E+00 0. -1.
<mgrwt>
<rscale>  0 0.61228472E+03</rscale>
<asrwt>0</asrwt>
<pdfrwt beam="1">0</pdfrwt>
<pdfrwt beam="2">  1        2 0.34081215E+00 0.61228472E+03</pdfrwt>
<totfact> 0.65839509E+00</totfact>
</mgrwt>
</event>
<event>
 5    1  0.2368916E-004  0.6485348E+03  0.7818608E-02  0.9809532E-01
         13   -1    0    0    0    0  0.00000000000E+00  0.00000000000E+00  0.10000000000E+04  0.10000000000E+04  0.00000000000E+00 0. -1.
          2   -1    0    0  501    0 -0.00000000000E+00 -0.00000000000E+00 -0.10514934681E+03  0.10514934681E+03  0.00000000000E+00 0. -1.
    9000006    2    1    2  501    0  0.00000000000E+00  0.00000000000E+00  0.89485065319E+03  0.11051493468E+04  0.64853480034E+03 0.  0.
         13    1    3    3    0    0 -0.44475401844E+02 -0.32116503479E+03  0.45582656409E+03  0.55937724075E+03  0.00000000000E+00 0. -1.
          4    1    3    3  501    0  0.44475401844E+02  0.32116503479E+03  0.43902408910E+03  0.54577210606E+03  0.00000000000E+00 0. -1.
<mgrwt>
<rscale>  0 0.64853480E+03</rscale>
<asrwt>0</asrwt>
<pdfrwt beam="1">0</pdfrwt>
<pdfrwt beam="2">  1        2 0.38236207E+00 0.64853480E+03</pdfrwt>
<totfact> 0.46335584E+00</totfact>
</mgrwt>
</event>
<event>
 5    1  0.2368916E-004  0.6839071E+03  0.7818608E-02  0.9745156E-01
         13   -1    0    0    0    0  0.00000000000E+00  0.00000000000E+00  0.10000000000E+04  0.10000000000E+04  0.00000000000E+00 0. -1.
          2   -1    0    0  501    0 -0.00000000000E+00 -0.00000000000E+00 -0.11693221480E+03  0.11693221480E+03  0.00000000000E+00 0. -1.
    9000006    2    1    2  501    0  0.00000000000E+00  0.00000000000E+00  0.88306778520E+03  0.11169322148E+04  0.68390705451E+03 0.  0.
         13    1    3    3    0    0  0.20542470097E+03  0.27148798627E+03  0.38919155872E+03  0.51708326586E+03  0.00000000000E+00 0. -1.
          4    1    3    3  501    0 -0.20542470097E+03 -0.27148798627E+03  0.49387622648E+03  0.59984894894E+03  0.00000000000E+00 0. -1.
<mgrwt>
<rscale>  0 0.68390705E+03</rscale>
<asrwt>0</asrwt>
<pdfrwt beam="1">0</pdfrwt>
<pdfrwt beam="2">  1        2 0.42520895E+00 0.68390705E+03</pdfrwt>
<totfact> 0.31864968E+00</totfact>
</mgrwt>
</event>
<event>
 5    1  0.2368916E-004  0.6506208E+03  0.7818608E-02  0.9805615E-01
         13   -1    0    0    0    0  0.00000000000E+00  0.00000000000E+00  0.10000000000E+04  0.10000000000E+04  0.00000000000E+00 0. -1.
          2   -1    0    0  501    0 -0.00000000000E+00 -0.00000000000E+00 -0.10582684171E+03  0.10582684171E+03  0.00000000000E+00 0. -1.
    9000006    2    1    2  501    0  0.00000000000E+00  0.00000000000E+00  0.89417315829E+03  0.11058268417E+04  0.65062075501E+03 0.  0.
         13    1    3    3    0    0 -0.18517062143E+03  0.47965489430E+02  0.89431712065E+03  0.91454467332E+03  0.00000000000E+00 0. -1.
          2    1    3    3  501    0  0.18517062143E+03 -0.47965489430E+02 -0.14396236136E+00  0.19128216839E+03  0.00000000000E+00 0. -1.
<mgrwt>
<rscale>  0 0.65062076E+03</rscale>
<asrwt>0</asrwt>
<pdfrwt beam="1">0</pdfrwt>
<pdfrwt beam="2">  1        2 0.38482569E+00 0.65062076E+03</pdfrwt>
<totfact> 0.45365794E+00</totfact>
</mgrwt>
</event>
<event>
 5    1  0.2368916E-004  0.6595859E+03  0.7818608E-02  0.9788956E-01
         13   -1    0    0    0    0  0.00000000000E+00  0.00000000000E+00  0.10000000000E+04  0.10000000000E+04  0.00000000000E+00 0. -1.
          2   -1    0    0  501    0 -0.00000000000E+00 -0.00000000000E+00 -0.10876337765E+03  0.10876337765E+03  0.00000000000E+00 0. -1.
    9000006    2    1    2  501    0  0.00000000000E+00  0.00000000000E+00  0.89123662235E+03  0.11087633777E+04  0.65958586295E+03 0.  0.
         13    1    3    3    0    0 -0.31234226764E+03  0.84015560742E+02  0.55387089528E+03  0.64139634801E+03  0.00000000000E+00 0. -1.
          4    1    3    3  501    0  0.31234226764E+03 -0.84015560742E+02  0.33736572707E+03  0.46736702964E+03  0.00000000000E+00 0. -1.
<mgrwt>
<rscale>  0 0.65958586E+03</rscale>
<asrwt>0</asrwt>
<pdfrwt beam="1">0</pdfrwt>
<pdfrwt beam="2">  1        2 0.39550403E+00 0.65958586E+03</pdfrwt>
<totfact> 0.41371225E+00</totfact>
</mgrwt>
</event>
<event>
 5    1  0.2368916E-004  0.6593771E+03  0.7818608E-02  0.9789341E-01
         13   -1    0    0    0    0  0.00000000000E+00  0.00000000000E+00  0.10000000000E+04  0.10000000000E+04  0.00000000000E+00 0. -1.
          2   -1    0    0  501    0 -0.00000000000E+00 -0.00000000000E+00 -0.10869453494E+03  0.10869453494E+03  0.00000000000E+00 0. -1.
    9000006    2    1    2  501    0  0.00000000000E+00  0.00000000000E+00  0.89130546506E+03  0.11086945349E+04  0.65937708466E+03 0.  0.
         13    1    3    3    0    0 -0.12553409366E+02  0.11187311493E+02  0.99927852656E+03  0.99941999063E+03  0.00000000000E+00 0. -1.
          4    1    3    3  501    0  0.12553409366E+02 -0.11187311493E+02 -0.10797306150E+03  0.10927454431E+03  0.00000000000E+00 0. -1.
<mgrwt>
<rscale>  0 0.65937708E+03</rscale>
<asrwt>0</asrwt>
<pdfrwt beam="1">0</pdfrwt>
<pdfrwt beam="2">  1        2 0.39525369E+00 0.65937708E+03</pdfrwt>
<totfact> 0.41461106E+00</totfact>
</mgrwt>
</event>
<event>
 5    1  0.2368916E-004  0.6505670E+03  0.7818608E-02  0.9805716E-01
         13   -1    0    0    0    0  0.00000000000E+00  0.00000000000E+00  0.10000000000E+04  0.10000000000E+04  0.00000000000E+00 0. -1.
          2   -1    0    0  501    0 -0.00000000000E+00 -0.00000000000E+00 -0.10580935097E+03  0.10580935097E+03  0.00000000000E+00 0. -1.
    9000006    2    1    2  501    0  0.00000000000E+00  0.00000000000E+00  0.89419064903E+03  0.11058093510E+04  0.65056698647E+03 0.  0.
         13    1    3    3    0    0  0.72829414208E+02  0.26746761741E+03  0.73638621421E+03  0.78683397640E+03  0.00000000000E+00 0. -1.
          2    1    3    3  501    0 -0.72829414208E+02 -0.26746761741E+03  0.15780443482E+03  0.31897537457E+03  0.00000000000E+00 0. -1.
<mgrwt>
<rscale>  0 0.65056699E+03</rscale>
<asrwt>0</asrwt>
<pdfrwt beam="1">0</pdfrwt>
<pdfrwt beam="2">  1        2 0.38476209E+00 0.65056699E+03</pdfrwt>
<totfact> 0.45390597E+00</totfact>
</mgrwt>
</event>
<event>
 5    1  0.2368916E-004  0.6477372E+03  0.7818608E-02  0.9811035E-01
         13   -1    0    0    0    0  0.00000000000E+00  0.00000000000E+00  0.10000000000E+04  0.10000000000E+04  0.00000000000E+00 0. -1.
          2   -1    0    0  501    0 -0.00000000000E+00 -0.00000000000E+00 -0.10489085417E+03  0.10489085417E+03  0.00000000000E+00 0. -1.
    9000006    2    1    2  501    0  0.00000000000E+00  0.00000000000E+00  0.89510914583E+03  0.11048908542E+04  0.64773715092E+03 0.  0.
         13    1    3    3    0    0  0.16074482756E+03  0.25898225170E+03  0.63425772993E+03  0.70369991776E+03  0.00000000000E+00 0. -1.
          2    1    3    3  501    0 -0.16074482756E+03 -0.25898225170E+03  0.26085141590E+03  0.40119093641E+03  0.00000000000E+00 0. -1.
<mgrwt>
<rscale>  0 0.64773715E+03</rscale>
<asrwt>0</asrwt>
<pdfrwt beam="1">0</pdfrwt>
<pdfrwt beam="2">  1        2 0.38142209E+00 0.64773715E+03</pdfrwt>
<totfact> 0.46710534E+00</totfact>
</mgrwt>
</event>
<event>
 5    1  0.2368916E-004  0.6594243E+03  0.7818608E-02  0.9789254E-01
         13   -1    0    0    0    0  0.00000000000E+00  0.00000000000E+00  0.10000000000E+04  0.10000000000E+04  0.00000000000E+00 0. -1.
          2   -1    0    0  501    0 -0.00000000000E+00 -0.00000000000E+00 -0.10871009485E+03  0.10871009485E+03  0.00000000000E+00 0. -1.
    9000006    2    1    2  501    0  0.00000000000E+00  0.00000000000E+00  0.89128990515E+03  0.11087100949E+04  0.65942427875E+03 0.  0.
         13    1    3    3    0    0 -0.31901567284E+03 -0.21853541171E+02  0.58079629085E+03  0.66300294739E+03  0.00000000000E+00 0. -1.
          2    1    3    3  501    0  0.31901567284E+03  0.21853541171E+02  0.31049361430E+03  0.44570714746E+03  0.00000000000E+00 0. -1.
<mgrwt>
<rscale>  0 0.65942428E+03</rscale>
<asrwt>0</asrwt>
<pdfrwt beam="1">0</pdfrwt>
<pdfrwt beam="2">  1        2 0.39531027E+00 0.65942428E+03</pdfrwt>
<totfact> 0.41440775E+00</totfact>
</mgrwt>
</event>
<event>
 5    1  0.2368916E-004  0.6627960E+03  0.7818608E-02  0.9783060E-01
         13   -1    0    0    0    0  0.00000000000E+00  0.00000000000E+00  0.10000000000E+04  0.10000000000E+04  0.00000000000E+00 0. -1.
          2   -1    0    0  501    0 -0.00000000000E+00 -0.00000000000E+00 -0.10982463895E+03  0.10982463895E+03  0.00000000000E+00 0. -1.
    9000006    2    1    2  501    0  0.00000000000E+00  0.00000000000E+00  0.89017536105E+03  0.11098246389E+04  0.66279601371E+03 0.  0.
         13    1    3    3    0    0 -0.28237447719E+03  0.37297477447E+02  0.16142530141E+03  0.32739055443E+03  0.00000000000E+00 0. -1.
          2    1    3    3  501    0  0.28237447719E+03 -0.37297477447E+02  0.72875005964E+03  0.78243408452E+03  0.00000000000E+00 0. -1.
<mgrwt>
<rscale>  0 0.66279601E+03</rscale>
<asrwt>0</asrwt>
<pdfrwt beam="1">0</pdfrwt>
<pdfrwt beam="2">  1        2 0.39936317E+00 0.66279601E+03</pdfrwt>
<totfact> 0.40007657E+00</totfact>
</mgrwt>
</event>
<event>
 5    1  0.2368916E-004  0.6360790E+03  0.7818608E-02  0.9833257E-01
         13   -1    0    0    0    0  0.00000000000E+00  0.00000000000E+00  0.10000000000E+04  0.10000000000E+04  0.00000000000E+00 0. -1.
          2   -1    0    0  501    0 -0.00000000000E+00 -0.00000000000E+00 -0.10114911667E+03  0.10114911667E+03  0.00000000000E+00 0. -1.
    9000006    2    1    2  501    0  0.00000000000E+00  0.00000000000E+00  0.89885088333E+03  0.11011491167E+04  0.63607897832E+03 0.  0.
         13    1    3    3    0    0  0.16617804314E+03  0.26728510763E+03  0.52861774295E+03  0.61521800115E+03  0.00000000000E+00 0. -1.
          2    1    3    3  501    0 -0.16617804314E+03 -0.26728510763E+03  0.37023314038E+03  0.48593111551E+03  0.00000000000E+00 0. -1.
<mgrwt>
<rscale>  0 0.63607898E+03</rscale>
<asrwt>0</asrwt>
<pdfrwt beam="1">0</pdfrwt>
<pdfrwt beam="2">  1        2 0.36781575E+00 0.63607898E+03</pdfrwt>
<totfact> 0.52457435E+00</totfact>
</mgrwt>
</event>
<event>
 5    1  0.2368916E-004  0.6397889E+03  0.7818608E-02  0.9826130E-01
         13   -1    0    0    0    0  0.00000000000E+00  0.00000000000E+00  0.10000000000E+04  0.10000000000E+04  0.00000000000E+00 0. -1.
          2   -1    0    0  501    0 -0.00000000000E+00 -0.00000000000E+00 -0.10233247092E+03  0.10233247092E+03  0.00000000000E+00 0. -1.
    9000006    2    1    2  501    0  0.00000000000E+00  0.00000000000E+00  0.89766752908E+03  0.11023324709E+04  0.63978893683E+03 0.  0.
         13    1    3    3    0    0  0.23785026813E+03  0.14078902847E+03  0.72632261853E+03  0.77713502481E+03  0.00000000000E+00 0. -1.
          2    1    3    3  501    0 -0.23785026813E+03 -0.14078902847E+03  0.17134491055E+03  0.32519744611E+03  0.00000000000E+00 0. -1.
<mgrwt>
<rscale>  0 0.63978894E+03</rscale>
<asrwt>0</asrwt>
<pdfrwt beam="1">0</pdfrwt>
<pdfrwt beam="2">  1        2 0.37211886E+00 0.63978894E+03</pdfrwt>
<totfact> 0.50573579E+00</totfact>
</mgrwt>
</event>
<event>
 5    1  0.2368916E-004  0.6442386E+03  0.7818608E-02  0.9817650E-01
         13   -1    0    0    0    0  0.00000000000E+00  0.00000000000E+00  0.10000000000E+04  0.10000000000E+04  0.00000000000E+00 0. -1.
          2   -1    0    0  501    0 -0.00000000000E+00 -0.00000000000E+00 -0.10376085489E+03  0.10376085489E+03  0.00000000000E+00 0. -1.
    9000006    2    1    2  501    0  0.00000000000E+00  0.00000000000E+00  0.89623914511E+03  0.11037608549E+04  0.64423863557E+03 0.  0.
         13    1    3    3    0    0  0.51805366705E+02 -0.28379678288E+03  0.69364182149E+03  0.75124123057E+03  0.00000000000E+00 0. -1.
          2    1    3    3  501    0 -0.51805366705E+02  0.28379678288E+03  0.20259732362E+03  0.35251962432E+03  0.00000000000E+00 0. -1.
<mgrwt>
<rscale>  0 0.64423864E+03</rscale>
<asrwt>0</asrwt>
<pdfrwt beam="1">0</pdfrwt>
<pdfrwt beam="2">  1        2 0.37731300E+00 0.64423864E+03</pdfrwt>
<totfact> 0.48382253E+00</totfact>
</mgrwt>
</event>
<event>
 5    1  0.2368916E-004  0.6516936E+03  0.7818608E-02  0.9803606E-01
         13   -1    0    0    0    0  0.00000000000E+00  0.00000000000E+00  0.10000000000E+04  0.10000000000E+04  0.00000000000E+00 0. -1.
          2   -1    0    0  501    0 -0.00000000000E+00 -0.00000000000E+00 -0.10617614066E+03  0.10617614066E+03  0.00000000000E+00 0. -1.
    9000006    2    1    2  501    0  0.00000000000E+00  0.00000000000E+00  0.89382385934E+03  0.11061761407E+04  0.65169361102E+03 0.  0.
         13    1    3    3    0    0  0.29360298075E+03  0.13694571869E+02  0.20815355802E+03  0.36016406723E+03  0.00000000000E+00 0. -1.
          2    1    3    3  501    0 -0.29360298075E+03 -0.13694571869E+02  0.68567030131E+03  0.74601207343E+03  0.00000000000E+00 0. -1.
<mgrwt>
<rscale>  0 0.65169361E+03</rscale>
<asrwt>0</asrwt>
<pdfrwt beam="1">0</pdfrwt>
<pdfrwt beam="2">  1        2 0.38609587E+00 0.65169361E+03</pdfrwt>
<totfact> 0.44873023E+00</totfact>
</mgrwt>
</event>
<event>
 5    1  0.2368916E-004  0.6702202E+03  0.7818608E-02  0.9769560E-01
         13   -1    0    0    0    0  0.00000000000E+00  0.00000000000E+00  0.10000000000E+04  0.10000000000E+04  0.00000000000E+00 0. -1.
          2   -1    0    0  501    0 -0.00000000000E+00 -0.00000000000E+00 -0.11229877160E+03  0.11229877160E+03  0.00000000000E+00 0. -1.
    9000006    2    1    2  501    0  0.00000000000E+00  0.00000000000E+00  0.88770122840E+03  0.11122987716E+04  0.67022017756E+03 0.  0.
         13    1    3    3    0    0 -0.12477106420E+03  0.26514177237E+03  0.17403998085E+03  0.34081944318E+03  0.00000000000E+00 0. -1.
          2    1    3    3  501    0  0.12477106420E+03 -0.26514177237E+03  0.71366124755E+03  0.77147932842E+03  0.00000000000E+00 0. -1.
<mgrwt>
<rscale>  0 0.67022018E+03</rscale>
<asrwt>0</asrwt>
<pdfrwt beam="1">0</pdfrwt>
<pdfrwt beam="2">  1        2 0.40836003E+00 0.67022018E+03</pdfrwt>
<totfact> 0.36984045E+00</totfact>
</mgrwt>
</event>
<event>
 5    1  0.2368916E-004  0.6589237E+03  0.7818608E-02  0.9790177E-01
         13   -1    0    0    0    0  0.00000000000E+00  0.00000000000E+00  0.10000000000E+04  0.10000000000E+04  0.00000000000E+00 0. -1.
          2   -1    0    0  501    0 -0.00000000000E+00 -0.00000000000E+00 -0.10854509705E+03  0.10854509705E+03  0.00000000000E+00 0. -1.
    9000006    2    1    2  501    0  0.00000000000E+00  0.00000000000E+00  0.89145490295E+03  0.11085450970E+04  0.65892365885E+03 0.  0.
         13    1    3    3    0    0  0.75497751819E+02 -0.31985177779E+03  0.40663202942E+03  0.52283331726E+03  0.00000000000E+00 0. -1.
          2    1    3    3  501    0 -0.75497751819E+02  0.31985177779E+03  0.48482287353E+03  0.58571177979E+03  0.00000000000E+00 0. -1.
<mgrwt>
<rscale>  0 0.65892366E+03</rscale>
<asrwt>0</asrwt>
<pdfrwt beam="1">0</pdfrwt>
<pdfrwt beam="2">  1        2 0.39471028E+00 0.65892366E+03</pdfrwt>
<totfact> 0.41656817E+00</totfact>
</mgrwt>
</event>
<event>
 5    1  0.2368916E-004  0.6574882E+03  0.7818608E-02  0.9792829E-01
         13   -1    0    0    0    0  0.00000000000E+00  0.00000000000E+00  0.10000000000E+04  0.10000000000E+04  0.00000000000E+00 0. -1.
          2   -1    0    0  501    0 -0.00000000000E+00 -0.00000000000E+00 -0.10807268088E+03  0.10807268088E+03  0.00000000000E+00 0. -1.
    9000006    2    1    2  501    0  0.00000000000E+00  0.00000000000E+00  0.89192731912E+03  0.11080726809E+04  0.65748819270E+03 0.  0.
         13    1    3    3    0    0 -0.27811040965E+03  0.43681352386E+02  0.73206599542E+03  0.78433033994E+03  0.00000000000E+00 0. -1.
          4    1    3    3  501    0  0.27811040965E+03 -0.43681352386E+02  0.15986132370E+03  0.32374234094E+03  0.00000000000E+00 0. -1.
<mgrwt>
<rscale>  0 0.65748819E+03</rscale>
<asrwt>0</asrwt>
<pdfrwt beam="1">0</pdfrwt>
<pdfrwt beam="2">  1        2 0.39299240E+00 0.65748819E+03</pdfrwt>
<totfact> 0.42281032E+00</totfact>
</mgrwt>
</event>
<event>
 5    1  0.2368916E-004  0.6492543E+03  0.7818608E-02  0.9808179E-01
         13   -1    0    0    0    0  0.00000000000E+00  0.00000000000E+00  0.10000000000E+04  0.10000000000E+04  0.00000000000E+00 0. -1.
          2   -1    0    0  501    0 -0.00000000000E+00 -0.00000000000E+00 -0.10538279628E+03  0.10538279628E+03  0.00000000000E+00 0. -1.
    9000006    2    1    2  501    0  0.00000000000E+00  0.00000000000E+00  0.89461720372E+03  0.11053827963E+04  0.64925433006E+03 0.  0.
         13    1    3    3    0    0 -0.11882315672E+02 -0.91104166884E+02 -0.82785561406E+02  0.12367137028E+03  0.00000000000E+00 0. -1.
          2    1    3    3  501    0  0.11882315672E+02  0.91104166884E+02  0.97740276513E+03  0.98171142600E+03  0.00000000000E+00 0. -1.
<mgrwt>
<rscale>  0 0.64925433E+03</rscale>
<asrwt>0</asrwt>
<pdfrwt beam="1">0</pdfrwt>
<pdfrwt beam="2">  1        2 0.38321098E+00 0.64925433E+03</pdfrwt>
<totfact> 0.45999311E+00</totfact>
</mgrwt>
</event>
<event>
 5    1  0.2368916E-004  0.6466366E+03  0.7818608E-02  0.9813111E-01
         13   -1    0    0    0    0  0.00000000000E+00  0.00000000000E+00  0.10000000000E+04  0.10000000000E+04  0.00000000000E+00 0. -1.
          2   -1    0    0  501    0 -0.00000000000E+00 -0.00000000000E+00 -0.10453472424E+03  0.10453472424E+03  0.00000000000E+00 0. -1.
    9000006    2    1    2  501    0  0.00000000000E+00  0.00000000000E+00  0.89546527576E+03  0.11045347242E+04  0.64663660347E+03 0.  0.
         13    1    3    3    0    0 -0.65926354835E+02 -0.10654615329E+03 -0.61380682397E+02  0.13952044730E+03  0.00000000000E+00 0. -1.
          2    1    3    3  501    0  0.65926354835E+02  0.10654615329E+03  0.95684595816E+03  0.96501427694E+03  0.00000000000E+00 0. -1.
<mgrwt>
<rscale>  0 0.64663660E+03</rscale>
<asrwt>0</asrwt>
<pdfrwt beam="1">0</pdfrwt>
<pdfrwt beam="2">  1        2 0.38012707E+00 0.64663660E+03</pdfrwt>
<totfact> 0.47231627E+00</totfact>
</mgrwt>
</event>
<event>
 5    1  0.2368916E-004  0.6545751E+03  0.7818608E-02  0.9798232E-01
         13   -1    0    0    0    0  0.00000000000E+00  0.00000000000E+00  0.10000000000E+04  0.10000000000E+04  0.00000000000E+00 0. -1.
          2   -1    0    0  501    0 -0.00000000000E+00 -0.00000000000E+00 -0.10711713801E+03  0.10711713801E+03  0.00000000000E+00 0. -1.
    9000006    2    1    2  501    0  0.00000000000E+00  0.00000000000E+00  0.89288286199E+03  0.11071171380E+04  0.65457509273E+03 0.  0.
         13    1    3    3    0    0 -0.30427804008E+03  0.62550723799E+02  0.27214661031E+03  0.41299091543E+03  0.00000000000E+00 0. -1.
          4    1    3    3  501    0  0.30427804008E+03 -0.62550723799E+02  0.62073625168E+03  0.69412622258E+03  0.00000000000E+00 0. -1.
<mgrwt>
<rscale>  0 0.65457509E+03</rscale>
<asrwt>0</asrwt>
<pdfrwt beam="1">0</pdfrwt>
<pdfrwt beam="2">  1        2 0.38951769E+00 0.65457509E+03</pdfrwt>
<totfact> 0.43569541E+00</totfact>
</mgrwt>
</event>
<event>
 5    1  0.2368916E-004  0.5047950E+03  0.7818608E-02  0.1012535E+00
         13   -1    0    0    0    0  0.00000000000E+00  0.00000000000E+00  0.10000000000E+04  0.10000000000E+04  0.00000000000E+00 0. -1.
          2   -1    0    0  501    0 -0.00000000000E+00 -0.00000000000E+00 -0.63704491991E+02  0.63704491991E+02  0.00000000000E+00 0. -1.
    9000006    2    1    2  501    0  0.00000000000E+00  0.00000000000E+00  0.93629550801E+03  0.10637044920E+04  0.50479497617E+03 0.  0.
         13    1    3    3    0    0 -0.57786385846E+02 -0.24547633382E+03  0.48990353448E+03  0.55100215059E+03  0.00000000000E+00 0. -1.
          4    1    3    3  501    0  0.57786385846E+02  0.24547633382E+03  0.44639197353E+03  0.51270234140E+03  0.00000000000E+00 0. -1.
<mgrwt>
<rscale>  0 0.50479498E+03</rscale>
<asrwt>0</asrwt>
<pdfrwt beam="1">0</pdfrwt>
<pdfrwt beam="2">  1        2 0.23165319E+00 0.50479498E+03</pdfrwt>
<totfact> 0.16238215E+01</totfact>
</mgrwt>
</event>
<event>
 5    1  0.2368916E-004  0.6541294E+03  0.7818608E-02  0.9799061E-01
         13   -1    0    0    0    0  0.00000000000E+00  0.00000000000E+00  0.10000000000E+04  0.10000000000E+04  0.00000000000E+00 0. -1.
          2   -1    0    0  501    0 -0.00000000000E+00 -0.00000000000E+00 -0.10697132085E+03  0.10697132085E+03  0.00000000000E+00 0. -1.
    9000006    2    1    2  501    0  0.00000000000E+00  0.00000000000E+00  0.89302867915E+03  0.11069713209E+04  0.65412940877E+03 0.  0.
         13    1    3    3    0    0  0.11043442388E+03 -0.23792326674E+03  0.11589912140E+03  0.28676793610E+03  0.00000000000E+00 0. -1.
          2    1    3    3  501    0 -0.11043442388E+03  0.23792326674E+03  0.77712955775E+03  0.82020338475E+03  0.00000000000E+00 0. -1.
<mgrwt>
<rscale>  0 0.65412941E+03</rscale>
<asrwt>0</asrwt>
<pdfrwt beam="1">0</pdfrwt>
<pdfrwt beam="2">  1        2 0.38898744E+00 0.65412941E+03</pdfrwt>
<totfact> 0.43769258E+00</totfact>
</mgrwt>
</event>
<event>
 5    1  0.2368916E-004  0.6494581E+03  0.7818608E-02  0.9807796E-01
         13   -1    0    0    0    0  0.00000000000E+00  0.00000000000E+00  0.10000000000E+04  0.10000000000E+04  0.00000000000E+00 0. -1.
          2   -1    0    0  501    0 -0.00000000000E+00 -0.00000000000E+00 -0.10544897207E+03  0.10544897207E+03  0.00000000000E+00 0. -1.
    9000006    2    1    2  501    0  0.00000000000E+00  0.00000000000E+00  0.89455102793E+03  0.11054489721E+04  0.64945814974E+03 0.  0.
         13    1    3    3    0    0  0.30312840049E+03  0.10810116464E+03  0.37354679110E+03  0.49306175487E+03  0.00000000000E+00 0. -1.
          2    1    3    3  501    0 -0.30312840049E+03 -0.10810116464E+03  0.52100423684E+03  0.61238721719E+03  0.00000000000E+00 0. -1.
<mgrwt>
<rscale>  0 0.64945815E+03</rscale>
<asrwt>0</asrwt>
<pdfrwt beam="1">0</pdfrwt>
<pdfrwt beam="2">  1        2 0.38345162E+00 0.64945815E+03</pdfrwt>
<totfact> 0.45904393E+00</totfact>
</mgrwt>
</event>
<event>
 5    1  0.2368916E-004  0.6487361E+03  0.7818608E-02  0.9809154E-01
         13   -1    0    0    0    0  0.00000000000E+00  0.00000000000E+00  0.10000000000E+04  0.10000000000E+04  0.00000000000E+00 0. -1.
          2   -1    0    0  501    0 -0.00000000000E+00 -0.00000000000E+00 -0.10521464778E+03  0.10521464778E+03  0.00000000000E+00 0. -1.
    9000006    2    1    2  501    0  0.00000000000E+00  0.00000000000E+00  0.89478535222E+03  0.11052146478E+04  0.64873614907E+03 0.  0.
         13    1    3    3    0    0  0.11030957898E+03  0.22179040334E+03  0.90620993462E+02  0.26376381610E+03  0.00000000000E+00 0. -1.
          4    1    3    3  501    0 -0.11030957898E+03 -0.22179040334E+03  0.80416435876E+03  0.84145083168E+03  0.00000000000E+00 0. -1.
<mgrwt>
<rscale>  0 0.64873615E+03</rscale>
<asrwt>0</asrwt>
<pdfrwt beam="1">0</pdfrwt>
<pdfrwt beam="2">  1        2 0.38259953E+00 0.64873615E+03</pdfrwt>
<totfact> 0.46241297E+00</totfact>
</mgrwt>
</event>
<event>
 5    1  0.2368916E-004  0.6447187E+03  0.7818608E-02  0.9816740E-01
         13   -1    0    0    0    0  0.00000000000E+00  0.00000000000E+00  0.10000000000E+04  0.10000000000E+04  0.00000000000E+00 0. -1.
          2   -1    0    0  501    0 -0.00000000000E+00 -0.00000000000E+00 -0.10391554069E+03  0.10391554069E+03  0.00000000000E+00 0. -1.
    9000006    2    1    2  501    0  0.00000000000E+00  0.00000000000E+00  0.89608445931E+03  0.11039155407E+04  0.64471866948E+03 0.  0.
         13    1    3    3    0    0  0.67776083981E+02 -0.31298629026E+03  0.38486240010E+03  0.50067263003E+03  0.00000000000E+00 0. -1.
          4    1    3    3  501    0 -0.67776083981E+02  0.31298629026E+03  0.51122205921E+03  0.60324291067E+03  0.00000000000E+00 0. -1.
<mgrwt>
<rscale>  0 0.64471867E+03</rscale>
<asrwt>0</asrwt>
<pdfrwt beam="1">0</pdfrwt>
<pdfrwt beam="2">  1        2 0.37787549E+00 0.64471867E+03</pdfrwt>
<totfact> 0.48150237E+00</totfact>
</mgrwt>
</event>
<event>
 5    1  0.2368916E-004  0.6469492E+03  0.7818608E-02  0.9812521E-01
         13   -1    0    0    0    0  0.00000000000E+00  0.00000000000E+00  0.10000000000E+04  0.10000000000E+04  0.00000000000E+00 0. -1.
          2   -1    0    0  501    0 -0.00000000000E+00 -0.00000000000E+00 -0.10463582660E+03  0.10463582660E+03  0.00000000000E+00 0. -1.
    9000006    2    1    2  501    0  0.00000000000E+00  0.00000000000E+00  0.89536417340E+03  0.11046358266E+04  0.64694923017E+03 0.  0.
         13    1    3    3    0    0  0.19321565049E+03  0.16786985511E+03  0.78540955991E+03  0.82606340716E+03  0.00000000000E+00 0. -1.
          2    1    3    3  501    0 -0.19321565049E+03 -0.16786985511E+03  0.10995461349E+03  0.27857241945E+03  0.00000000000E+00 0. -1.
<mgrwt>
<rscale>  0 0.64694923E+03</rscale>
<asrwt>0</asrwt>
<pdfrwt beam="1">0</pdfrwt>
<pdfrwt beam="2">  1        2 0.38049472E+00 0.64694923E+03</pdfrwt>
<totfact> 0.47083158E+00</totfact>
</mgrwt>
</event>
<event>
 5    1  0.2368916E-004  0.6275499E+03  0.7818608E-02  0.9849842E-01
         13   -1    0    0    0    0  0.00000000000E+00  0.00000000000E+00  0.10000000000E+04  0.10000000000E+04  0.00000000000E+00 0. -1.
          2   -1    0    0  501    0 -0.00000000000E+00 -0.00000000000E+00 -0.98454731984E+02  0.98454731984E+02  0.00000000000E+00 0. -1.
    9000006    2    1    2  501    0  0.00000000000E+00  0.00000000000E+00  0.90154526802E+03  0.10984547320E+04  0.62754994059E+03 0.  0.
         13    1    3    3    0    0  0.26537949596E+03  0.16547016623E+03  0.49533291399E+03  0.58579975117E+03  0.00000000000E+00 0. -1.
          2    1    3    3  501    0 -0.26537949596E+03 -0.16547016623E+03  0.40621235403E+03  0.51265498082E+03  0.00000000000E+00 0. -1.
<mgrwt>
<rscale>  0 0.62754994E+03</rscale>
<asrwt>0</asrwt>
<pdfrwt beam="1">0</pdfrwt>
<pdfrwt beam="2">  1        2 0.35801796E+00 0.62754994E+03</pdfrwt>
<totfact> 0.56989945E+00</totfact>
</mgrwt>
</event>
<event>
 5    1  0.2368916E-004  0.6512511E+03  0.7818608E-02  0.9804434E-01
         13   -1    0    0    0    0  0.00000000000E+00  0.00000000000E+00  0.10000000000E+04  0.10000000000E+04  0.00000000000E+00 0. -1.
          2   -1    0    0  501    0 -0.00000000000E+00 -0.00000000000E+00 -0.10603200490E+03  0.10603200490E+03  0.00000000000E+00 0. -1.
    9000006    2    1    2  501    0  0.00000000000E+00  0.00000000000E+00  0.89396799510E+03  0.11060320049E+04  0.65125111870E+03 0.  0.
         13    1    3    3    0    0  0.27480061922E+03 -0.65706837602E+02  0.72187689945E+03  0.77520257146E+03  0.00000000000E+00 0. -1.
          2    1    3    3  501    0 -0.27480061922E+03  0.65706837602E+02  0.17209109565E+03  0.33082943345E+03  0.00000000000E+00 0. -1.
<mgrwt>
<rscale>  0 0.65125112E+03</rscale>
<asrwt>0</asrwt>
<pdfrwt beam="1">0</pdfrwt>
<pdfrwt beam="2">  1        2 0.38557174E+00 0.65125112E+03</pdfrwt>
<totfact> 0.45075770E+00</totfact>
</mgrwt>
</event>
<event>
 5    1  0.2368916E-004  0.6411662E+03  0.7818608E-02  0.9823498E-01
         13   -1    0    0    0    0  0.00000000000E+00  0.00000000000E+00  0.10000000000E+04  0.10000000000E+04  0.00000000000E+00 0. -1.
          2   -1    0    0  501    0 -0.00000000000E+00 -0.00000000000E+00 -0.10277353911E+03  0.10277353911E+03  0.00000000000E+00 0. -1.
    9000006    2    1    2  501    0  0.00000000000E+00  0.00000000000E+00  0.89722646089E+03  0.11027735391E+04  0.64116624713E+03 0.  0.
         13    1    3    3    0    0 -0.76068713973E+01 -0.31964060520E+03  0.48878640956E+03  0.58407202908E+03  0.00000000000E+00 0. -1.
          2    1    3    3  501    0  0.76068713973E+01  0.31964060520E+03  0.40844005133E+03  0.51870151004E+03  0.00000000000E+00 0. -1.
<mgrwt>
<rscale>  0 0.64116625E+03</rscale>
<asrwt>0</asrwt>
<pdfrwt beam="1">0</pdfrwt>
<pdfrwt beam="2">  1        2 0.37372275E+00 0.64116625E+03</pdfrwt>
<totfact> 0.49887414E+00</totfact>
</mgrwt>
</event>
<event>
 5    1  0.2368916E-004  0.6502531E+03  0.7818608E-02  0.9806304E-01
         13   -1    0    0    0    0  0.00000000000E+00  0.00000000000E+00  0.10000000000E+04  0.10000000000E+04  0.00000000000E+00 0. -1.
          2   -1    0    0  501    0 -0.00000000000E+00 -0.00000000000E+00 -0.10570727954E+03  0.10570727954E+03  0.00000000000E+00 0. -1.
    9000006    2    1    2  501    0  0.00000000000E+00  0.00000000000E+00  0.89429272046E+03  0.11057072795E+04  0.65025311853E+03 0.  0.
         13    1    3    3    0    0 -0.15284331770E+03  0.28110750889E+03  0.54519428642E+03  0.63215450743E+03  0.00000000000E+00 0. -1.
          4    1    3    3  501    0  0.15284331770E+03 -0.28110750889E+03  0.34909843404E+03  0.47355277211E+03  0.00000000000E+00 0. -1.
<mgrwt>
<rscale>  0 0.65025312E+03</rscale>
<asrwt>0</asrwt>
<pdfrwt beam="1">0</pdfrwt>
<pdfrwt beam="2">  1        2 0.38439092E+00 0.65025312E+03</pdfrwt>
<totfact> 0.45535589E+00</totfact>
</mgrwt>
</event>
<event>
 5    1  0.2368916E-004  0.6486117E+03  0.7818608E-02  0.9809388E-01
         13   -1    0    0    0    0  0.00000000000E+00  0.00000000000E+00  0.10000000000E+04  0.10000000000E+04  0.00000000000E+00 0. -1.
          2   -1    0    0  501    0 -0.00000000000E+00 -0.00000000000E+00 -0.10517426998E+03  0.10517426998E+03  0.00000000000E+00 0. -1.
    9000006    2    1    2  501    0  0.00000000000E+00  0.00000000000E+00  0.89482573002E+03  0.11051742700E+04  0.64861165571E+03 0.  0.
         13    1    3    3    0    0  0.24064401064E+02 -0.22827791722E+03  0.57056739450E+02  0.23652774553E+03  0.00000000000E+00 0. -1.
          4    1    3    3  501    0 -0.24064401064E+02  0.22827791722E+03  0.83776899057E+03  0.86864652445E+03  0.00000000000E+00 0. -1.
<mgrwt>
<rscale>  0 0.64861166E+03</rscale>
<asrwt>0</asrwt>
<pdfrwt beam="1">0</pdfrwt>
<pdfrwt beam="2">  1        2 0.38245270E+00 0.64861166E+03</pdfrwt>
<totfact> 0.46299577E+00</totfact>
</mgrwt>
</event>
<event>
 5    1  0.2368916E-004  0.6583053E+03  0.7818608E-02  0.9791318E-01
         13   -1    0    0    0    0  0.00000000000E+00  0.00000000000E+00  0.10000000000E+04  0.10000000000E+04  0.00000000000E+00 0. -1.
          2   -1    0    0  501    0 -0.00000000000E+00 -0.00000000000E+00 -0.10834146550E+03  0.10834146550E+03  0.00000000000E+00 0. -1.
    9000006    2    1    2  501    0  0.00000000000E+00  0.00000000000E+00  0.89165853450E+03  0.11083414655E+04  0.65830529543E+03 0.  0.
         13    1    3    3    0    0 -0.30707164357E+03 -0.78517228150E+02  0.29634130828E+03  0.43390796304E+03  0.00000000000E+00 0. -1.
          2    1    3    3  501    0  0.30707164357E+03  0.78517228150E+02  0.59531722622E+03  0.67443350245E+03  0.00000000000E+00 0. -1.
<mgrwt>
<rscale>  0 0.65830530E+03</rscale>
<asrwt>0</asrwt>
<pdfrwt beam="1">0</pdfrwt>
<pdfrwt beam="2">  1        2 0.39396980E+00 0.65830530E+03</pdfrwt>
<totfact> 0.41924842E+00</totfact>
</mgrwt>
</event>
<event>
 5    1  0.2368916E-004  0.5322641E+03  0.7818608E-02  0.1005685E+00
         13   -1    0    0    0    0  0.00000000000E+00  0.00000000000E+00  0.10000000000E+04  0.10000000000E+04  0.00000000000E+00 0. -1.
          2   -1    0    0  501    0 -0.00000000000E+00 -0.00000000000E+00 -0.70826257957E+02  0.70826257957E+02  0.00000000000E+00 0. -1.
    9000006    2    1    2  501    0  0.00000000000E+00  0.00000000000E+00  0.92917374204E+03  0.10708262580E+04  0.53226406213E+03 0.  0.
         13    1    3    3    0    0  0.21524558393E+03  0.15321856985E+03  0.40034459423E+03  0.47966903765E+03  0.00000000000E+00 0. -1.
          4    1    3    3  501    0 -0.21524558393E+03 -0.15321856985E+03  0.52882914781E+03  0.59115722031E+03  0.00000000000E+00 0. -1.
<mgrwt>
<rscale>  0 0.53226406E+03</rscale>
<asrwt>0</asrwt>
<pdfrwt beam="1">0</pdfrwt>
<pdfrwt beam="2">  1        2 0.25755057E+00 0.53226406E+03</pdfrwt>
<totfact> 0.13095849E+01</totfact>
</mgrwt>
</event>
<event>
 5    1  0.2368916E-004  0.6366760E+03  0.7818608E-02  0.9832107E-01
         13   -1    0    0    0    0  0.00000000000E+00  0.00000000000E+00  0.10000000000E+04  0.10000000000E+04  0.00000000000E+00 0. -1.
          2   -1    0    0  501    0 -0.00000000000E+00 -0.00000000000E+00 -0.10133906980E+03  0.10133906980E+03  0.00000000000E+00 0. -1.
    9000006    2    1    2  501    0  0.00000000000E+00  0.00000000000E+00  0.89866093020E+03  0.11013390698E+04  0.63667596090E+03 0.  0.
         13    1    3    3    0    0 -0.28338689107E+03 -0.12645917969E+03  0.57212398446E+03  0.65086550665E+03  0.00000000000E+00 0. -1.
          2    1    3    3  501    0  0.28338689107E+03  0.12645917969E+03  0.32653694574E+03  0.45047356315E+03  0.00000000000E+00 0. -1.
<mgrwt>
<rscale>  0 0.63667596E+03</rscale>
<asrwt>0</asrwt>
<pdfrwt beam="1">0</pdfrwt>
<pdfrwt beam="2">  1        2 0.36850649E+00 0.63667596E+03</pdfrwt>
<totfact> 0.52150766E+00</totfact>
</mgrwt>
</event>
<event>
 5    1  0.2368916E-004  0.6447861E+03  0.7818608E-02  0.9816612E-01
         13   -1    0    0    0    0  0.00000000000E+00  0.00000000000E+00  0.10000000000E+04  0.10000000000E+04  0.00000000000E+00 0. -1.
          2   -1    0    0  501    0 -0.00000000000E+00 -0.00000000000E+00 -0.10393727142E+03  0.10393727142E+03  0.00000000000E+00 0. -1.
    9000006    2    1    2  501    0  0.00000000000E+00  0.00000000000E+00  0.89606272858E+03  0.11039372714E+04  0.64478607747E+03 0.  0.
         13    1    3    3    0    0 -0.24789080887E+03  0.17906521633E+03  0.27323737215E+03  0.41008885179E+03  0.00000000000E+00 0. -1.
          4    1    3    3  501    0  0.24789080887E+03 -0.17906521633E+03  0.62282535642E+03  0.69384841963E+03  0.00000000000E+00 0. -1.
<mgrwt>
<rscale>  0 0.64478608E+03</rscale>
<asrwt>0</asrwt>
<pdfrwt beam="1">0</pdfrwt>
<pdfrwt beam="2">  1        2 0.37795451E+00 0.64478608E+03</pdfrwt>
<totfact> 0.48117724E+00</totfact>
</mgrwt>
</event>
<event>
 5    1  0.2368916E-004  0.6495964E+03  0.7818608E-02  0.9807537E-01
         13   -1    0    0    0    0  0.00000000000E+00  0.00000000000E+00  0.10000000000E+04  0.10000000000E+04  0.00000000000E+00 0. -1.
          2   -1    0    0  501    0 -0.00000000000E+00 -0.00000000000E+00 -0.10549385870E+03  0.10549385870E+03  0.00000000000E+00 0. -1.
    9000006    2    1    2  501    0  0.00000000000E+00  0.00000000000E+00  0.89450614130E+03  0.11054938587E+04  0.64959636298E+03 0.  0.
         13    1    3    3    0    0 -0.28146113476E+03 -0.14700867502E+03  0.33105578410E+03  0.45872633792E+03  0.00000000000E+00 0. -1.
          2    1    3    3  501    0  0.28146113476E+03  0.14700867502E+03  0.56345035720E+03  0.64676752078E+03  0.00000000000E+00 0. -1.
<mgrwt>
<rscale>  0 0.64959636E+03</rscale>
<asrwt>0</asrwt>
<pdfrwt beam="1">0</pdfrwt>
<pdfrwt beam="2">  1        2 0.38361484E+00 0.64959636E+03</pdfrwt>
<totfact> 0.45840111E+00</totfact>
</mgrwt>
</event>
<event>
 5    1  0.2368916E-004  0.6424074E+03  0.7818608E-02  0.9821131E-01
         13   -1    0    0    0    0  0.00000000000E+00  0.00000000000E+00  0.10000000000E+04  0.10000000000E+04  0.00000000000E+00 0. -1.
          2   -1    0    0  501    0 -0.00000000000E+00 -0.00000000000E+00 -0.10317182435E+03  0.10317182435E+03  0.00000000000E+00 0. -1.
    9000006    2    1    2  501    0  0.00000000000E+00  0.00000000000E+00  0.89682817565E+03  0.11031718244E+04  0.64240742322E+03 0.  0.
         13    1    3    3    0    0 -0.18353689536E+03  0.18730377726E+03  0.76693124783E+03  0.81052577741E+03  0.00000000000E+00 0. -1.
          2    1    3    3  501    0  0.18353689536E+03 -0.18730377726E+03  0.12989692781E+03  0.29264604694E+03  0.00000000000E+00 0. -1.
<mgrwt>
<rscale>  0 0.64240742E+03</rscale>
<asrwt>0</asrwt>
<pdfrwt beam="1">0</pdfrwt>
<pdfrwt beam="2">  1        2 0.37517106E+00 0.64240742E+03</pdfrwt>
<totfact> 0.49275131E+00</totfact>
</mgrwt>
</event>
<event>
 5    1  0.2368916E-004  0.6419637E+03  0.7818608E-02  0.9821977E-01
         13   -1    0    0    0    0  0.00000000000E+00  0.00000000000E+00  0.10000000000E+04  0.10000000000E+04  0.00000000000E+00 0. -1.
          2   -1    0    0  501    0 -0.00000000000E+00 -0.00000000000E+00 -0.10302933246E+03  0.10302933246E+03  0.00000000000E+00 0. -1.
    9000006    2    1    2  501    0  0.00000000000E+00  0.00000000000E+00  0.89697066754E+03  0.11030293325E+04  0.64196365149E+03 0.  0.
         13    1    3    3    0    0  0.18315898806E+03 -0.15772897172E+02  0.90058505961E+03  0.91915692283E+03  0.00000000000E+00 0. -1.
          2    1    3    3  501    0 -0.18315898806E+03  0.15772897172E+02 -0.36143920675E+01  0.18387240963E+03  0.00000000000E+00 0. -1.
<mgrwt>
<rscale>  0 0.64196365E+03</rscale>
<asrwt>0</asrwt>
<pdfrwt beam="1">0</pdfrwt>
<pdfrwt beam="2">  1        2 0.37465291E+00 0.64196365E+03</pdfrwt>
<totfact> 0.49493390E+00</totfact>
</mgrwt>
</event>
<event>
 5    1  0.2368916E-004  0.6410800E+03  0.7818608E-02  0.9823662E-01
         13   -1    0    0    0    0  0.00000000000E+00  0.00000000000E+00  0.10000000000E+04  0.10000000000E+04  0.00000000000E+00 0. -1.
          2   -1    0    0  501    0 -0.00000000000E+00 -0.00000000000E+00 -0.10274587776E+03  0.10274587776E+03  0.00000000000E+00 0. -1.
    9000006    2    1    2  501    0  0.00000000000E+00  0.00000000000E+00  0.89725412224E+03  0.11027458778E+04  0.64107995683E+03 0.  0.
         13    1    3    3    0    0 -0.50898187045E+02  0.29801290301E+03  0.63183233341E+03  0.70043872919E+03  0.00000000000E+00 0. -1.
          4    1    3    3  501    0  0.50898187045E+02 -0.29801290301E+03  0.26542178883E+03  0.40230714857E+03  0.00000000000E+00 0. -1.
<mgrwt>
<rscale>  0 0.64107996E+03</rscale>
<asrwt>0</asrwt>
<pdfrwt beam="1">0</pdfrwt>
<pdfrwt beam="2">  1        2 0.37362216E+00 0.64107996E+03</pdfrwt>
<totfact> 0.49930195E+00</totfact>
</mgrwt>
</event>
<event>
 5    1  0.2368916E-004  0.6479068E+03  0.7818608E-02  0.9810715E-01
         13   -1    0    0    0    0  0.00000000000E+00  0.00000000000E+00  0.10000000000E+04  0.10000000000E+04  0.00000000000E+00 0. -1.
          2   -1    0    0  501    0 -0.00000000000E+00 -0.00000000000E+00 -0.10494579867E+03  0.10494579867E+03  0.00000000000E+00 0. -1.
    9000006    2    1    2  501    0  0.00000000000E+00  0.00000000000E+00  0.89505420133E+03  0.11049457987E+04  0.64790677932E+03 0.  0.
         13    1    3    3    0    0 -0.55851861352E+02 -0.24011166087E+03  0.80595822254E+03  0.84281771254E+03  0.00000000000E+00 0. -1.
          4    1    3    3  501    0  0.55851861352E+02  0.24011166087E+03  0.89095978793E+02  0.26212808613E+03  0.00000000000E+00 0. -1.
<mgrwt>
<rscale>  0 0.64790678E+03</rscale>
<asrwt>0</asrwt>
<pdfrwt beam="1">0</pdfrwt>
<pdfrwt beam="2">  1        2 0.38162189E+00 0.64790678E+03</pdfrwt>
<totfact> 0.46630605E+00</totfact>
</mgrwt>
</event>
<event>
 5    1  0.2368916E-004  0.6458093E+03  0.7818608E-02  0.9814675E-01
         13   -1    0    0    0    0  0.00000000000E+00  0.00000000000E+00  0.10000000000E+04  0.10000000000E+04  0.00000000000E+00 0. -1.
          2   -1    0    0  501    0 -0.00000000000E+00 -0.00000000000E+00 -0.10426742359E+03  0.10426742359E+03  0.00000000000E+00 0. -1.
    9000006    2    1    2  501    0  0.00000000000E+00  0.00000000000E+00  0.89573257641E+03  0.11042674236E+04  0.64580933281E+03 0.  0.
         13    1    3    3    0    0  0.16202273502E+03 -0.27504278810E+03  0.53106506134E+03  0.61962085288E+03  0.00000000000E+00 0. -1.
          2    1    3    3  501    0 -0.16202273502E+03  0.27504278810E+03  0.36466751508E+03  0.48464657071E+03  0.00000000000E+00 0. -1.
<mgrwt>
<rscale>  0 0.64580933E+03</rscale>
<asrwt>0</asrwt>
<pdfrwt beam="1">0</pdfrwt>
<pdfrwt beam="2">  1        2 0.37915507E+00 0.64580933E+03</pdfrwt>
<totfact> 0.47626214E+00</totfact>
</mgrwt>
</event>
<event>
 5    1  0.2368916E-004  0.6573866E+03  0.7818608E-02  0.9793017E-01
         13   -1    0    0    0    0  0.00000000000E+00  0.00000000000E+00  0.10000000000E+04  0.10000000000E+04  0.00000000000E+00 0. -1.
          2   -1    0    0  501    0 -0.00000000000E+00 -0.00000000000E+00 -0.10803929641E+03  0.10803929641E+03  0.00000000000E+00 0. -1.
    9000006    2    1    2  501    0  0.00000000000E+00  0.00000000000E+00  0.89196070359E+03  0.11080392964E+04  0.65738663331E+03 0.  0.
         13    1    3    3    0    0  0.15201848393E+03 -0.82984600064E+02  0.91685132571E+03  0.93306613740E+03  0.00000000000E+00 0. -1.
          2    1    3    3  501    0 -0.15201848393E+03  0.82984600064E+02 -0.24890622123E+02  0.17497315901E+03  0.00000000000E+00 0. -1.
<mgrwt>
<rscale>  0 0.65738663E+03</rscale>
<asrwt>0</asrwt>
<pdfrwt beam="1">0</pdfrwt>
<pdfrwt beam="2">  1        2 0.39287100E+00 0.65738663E+03</pdfrwt>
<totfact> 0.42325463E+00</totfact>
</mgrwt>
</event>
<event>
 5    1  0.2368916E-004  0.6546807E+03  0.7818608E-02  0.9798036E-01
         13   -1    0    0    0    0  0.00000000000E+00  0.00000000000E+00  0.10000000000E+04  0.10000000000E+04  0.00000000000E+00 0. -1.
          2   -1    0    0  501    0 -0.00000000000E+00 -0.00000000000E+00 -0.10715170575E+03  0.10715170575E+03  0.00000000000E+00 0. -1.
    9000006    2    1    2  501    0  0.00000000000E+00  0.00000000000E+00  0.89284829425E+03  0.11071517058E+04  0.65468070310E+03 0.  0.
         13    1    3    3    0    0  0.68988943761E+02 -0.14780795487E+03  0.92637524974E+03  0.94062626437E+03  0.00000000000E+00 0. -1.
          2    1    3    3  501    0 -0.68988943761E+02  0.14780795487E+03 -0.33526955496E+02  0.16652544139E+03  0.00000000000E+00 0. -1.
<mgrwt>
<rscale>  0 0.65468070E+03</rscale>
<asrwt>0</asrwt>
<pdfrwt beam="1">0</pdfrwt>
<pdfrwt beam="2">  1        2 0.38964339E+00 0.65468070E+03</pdfrwt>
<totfact> 0.43522316E+00</totfact>
</mgrwt>
</event>
<event>
 5    1  0.2368916E-004  0.6003184E+03  0.7818608E-02  0.9904746E-01
         13   -1    0    0    0    0  0.00000000000E+00  0.00000000000E+00  0.10000000000E+04  0.10000000000E+04  0.00000000000E+00 0. -1.
          2   -1    0    0  501    0 -0.00000000000E+00 -0.00000000000E+00 -0.90095537554E+02  0.90095537554E+02  0.00000000000E+00 0. -1.
    9000006    2    1    2  501    0  0.00000000000E+00  0.00000000000E+00  0.90990446245E+03  0.10900955376E+04  0.60031837404E+03 0.  0.
         13    1    3    3    0    0 -0.26215949304E+03 -0.27728073067E+02  0.71557176377E+03  0.76258730315E+03  0.00000000000E+00 0. -1.
          4    1    3    3  501    0  0.26215949304E+03  0.27728073067E+02  0.19433269867E+03  0.32750823440E+03  0.00000000000E+00 0. -1.
<mgrwt>
<rscale>  0 0.60031837E+03</rscale>
<asrwt>0</asrwt>
<pdfrwt beam="1">0</pdfrwt>
<pdfrwt beam="2">  1        2 0.32762083E+00 0.60031837E+03</pdfrwt>
<totfact> 0.73480884E+00</totfact>
</mgrwt>
</event>
<event>
 5    1  0.2368916E-004  0.6592012E+03  0.7818608E-02  0.9789665E-01
         13   -1    0    0    0    0  0.00000000000E+00  0.00000000000E+00  0.10000000000E+04  0.10000000000E+04  0.00000000000E+00 0. -1.
          2   -1    0    0  501    0 -0.00000000000E+00 -0.00000000000E+00 -0.10863657116E+03  0.10863657116E+03  0.00000000000E+00 0. -1.
    9000006    2    1    2  501    0  0.00000000000E+00  0.00000000000E+00  0.89136342884E+03  0.11086365712E+04  0.65920124744E+03 0.  0.
         13    1    3    3    0    0  0.75036586761E+02  0.20737750762E+03  0.85763612975E+03  0.88553692812E+03  0.00000000000E+00 0. -1.
          2    1    3    3  501    0 -0.75036586761E+02 -0.20737750762E+03  0.33727299097E+02  0.22309964303E+03  0.00000000000E+00 0. -1.
<mgrwt>
<rscale>  0 0.65920125E+03</rscale>
<asrwt>0</asrwt>
<pdfrwt beam="1">0</pdfrwt>
<pdfrwt beam="2">  1        2 0.39504291E+00 0.65920125E+03</pdfrwt>
<totfact> 0.41536919E+00</totfact>
</mgrwt>
</event>
<event>
 5    1  0.2368916E-004  0.6392004E+03  0.7818608E-02  0.9827258E-01
         13   -1    0    0    0    0  0.00000000000E+00  0.00000000000E+00  0.10000000000E+04  0.10000000000E+04  0.00000000000E+00 0. -1.
          2   -1    0    0  501    0 -0.00000000000E+00 -0.00000000000E+00 -0.10214427702E+03  0.10214427702E+03  0.00000000000E+00 0. -1.
    9000006    2    1    2  501    0  0.00000000000E+00  0.00000000000E+00  0.89785572298E+03  0.11021442770E+04  0.63920036615E+03 0.  0.
         13    1    3    3    0    0 -0.31875412185E+03 -0.11907762266E+02  0.41451646963E+03  0.52303908897E+03  0.00000000000E+00 0. -1.
          2    1    3    3  501    0  0.31875412185E+03  0.11907762266E+02  0.48333925335E+03  0.57910518805E+03  0.00000000000E+00 0. -1.
<mgrwt>
<rscale>  0 0.63920037E+03</rscale>
<asrwt>0</asrwt>
<pdfrwt beam="1">0</pdfrwt>
<pdfrwt beam="2">  1        2 0.37143452E+00 0.63920037E+03</pdfrwt>
<totfact> 0.50868970E+00</totfact>
</mgrwt>
</event>
<event>
 5    1  0.2368916E-004  0.6648773E+03  0.7818608E-02  0.9779257E-01
         13   -1    0    0    0    0  0.00000000000E+00  0.00000000000E+00  0.10000000000E+04  0.10000000000E+04  0.00000000000E+00 0. -1.
          2   -1    0    0  501    0 -0.00000000000E+00 -0.00000000000E+00 -0.11051545611E+03  0.11051545611E+03  0.00000000000E+00 0. -1.
    9000006    2    1    2  501    0  0.00000000000E+00  0.00000000000E+00  0.88948454389E+03  0.11105154561E+04  0.66487730030E+03 0.  0.
         13    1    3    3    0    0  0.11680009818E+03  0.14309005577E+03  0.90640553405E+03  0.92503406378E+03  0.00000000000E+00 0. -1.
          2    1    3    3  501    0 -0.11680009818E+03 -0.14309005577E+03 -0.16920990161E+02  0.18548139234E+03  0.00000000000E+00 0. -1.
<mgrwt>
<rscale>  0 0.66487730E+03</rscale>
<asrwt>0</asrwt>
<pdfrwt beam="1">0</pdfrwt>
<pdfrwt beam="2">  1        2 0.40187523E+00 0.66487730E+03</pdfrwt>
<totfact> 0.39141897E+00</totfact>
</mgrwt>
</event>
<event>
 5    1  0.2368916E-004  0.6482204E+03  0.7818608E-02  0.9810124E-01
         13   -1    0    0    0    0  0.00000000000E+00  0.00000000000E+00  0.10000000000E+04  0.10000000000E+04  0.00000000000E+00 0. -1.
          2   -1    0    0  501    0 -0.00000000000E+00 -0.00000000000E+00 -0.10504742854E+03  0.10504742854E+03  0.00000000000E+00 0. -1.
    9000006    2    1    2  501    0  0.00000000000E+00  0.00000000000E+00  0.89495257146E+03  0.11050474285E+04  0.64822042098E+03 0.  0.
         13    1    3    3    0    0  0.16339710631E+03  0.25512016668E+03  0.64379927116E+03  0.71152119810E+03  0.00000000000E+00 0. -1.
          4    1    3    3  501    0 -0.16339710631E+03 -0.25512016668E+03  0.25115330030E+03  0.39352623044E+03  0.00000000000E+00 0. -1.
<mgrwt>
<rscale>  0 0.64822042E+03</rscale>
<asrwt>0</asrwt>
<pdfrwt beam="1">0</pdfrwt>
<pdfrwt beam="2">  1        2 0.38199145E+00 0.64822042E+03</pdfrwt>
<totfact> 0.46483091E+00</totfact>
</mgrwt>
</event>
<event>
 5    1  0.2368916E-004  0.6378387E+03  0.7818608E-02  0.9829870E-01
         13   -1    0    0    0    0  0.00000000000E+00  0.00000000000E+00  0.10000000000E+04  0.10000000000E+04  0.00000000000E+00 0. -1.
          2   -1    0    0  501    0 -0.00000000000E+00 -0.00000000000E+00 -0.10170955720E+03  0.10170955720E+03  0.00000000000E+00 0. -1.
    9000006    2    1    2  501    0  0.00000000000E+00  0.00000000000E+00  0.89829044280E+03  0.11017095572E+04  0.63783871692E+03 0.  0.
         13    1    3    3    0    0  0.25182848030E+03  0.18711940412E+03  0.35024876296E+03  0.47021851394E+03  0.00000000000E+00 0. -1.
          4    1    3    3  501    0 -0.25182848030E+03 -0.18711940412E+03  0.54804167983E+03  0.63149104327E+03  0.00000000000E+00 0. -1.
<mgrwt>
<rscale>  0 0.63783872E+03</rscale>
<asrwt>0</asrwt>
<pdfrwt beam="1">0</pdfrwt>
<pdfrwt beam="2">  1        2 0.36985372E+00 0.63783872E+03</pdfrwt>
<totfact> 0.51557361E+00</totfact>
</mgrwt>
</event>
<event>
 5    1  0.2368916E-004  0.6535848E+03  0.7818608E-02  0.9800076E-01
         13   -1    0    0    0    0  0.00000000000E+00  0.00000000000E+00  0.10000000000E+04  0.10000000000E+04  0.00000000000E+00 0. -1.
          2   -1    0    0  501    0 -0.00000000000E+00 -0.00000000000E+00 -0.10679327949E+03  0.10679327949E+03  0.00000000000E+00 0. -1.
    9000006    2    1    2  501    0  0.00000000000E+00  0.00000000000E+00  0.89320672051E+03  0.11067932795E+04  0.65358482079E+03 0.  0.
         13    1    3    3    0    0  0.12007946404E+03 -0.18716015577E+03  0.85212439550E+03  0.88066110792E+03  0.00000000000E+00 0. -1.
          4    1    3    3  501    0 -0.12007946404E+03  0.18716015577E+03  0.41082325009E+02  0.22613217158E+03  0.00000000000E+00 0. -1.
<mgrwt>
<rscale>  0 0.65358482E+03</rscale>
<asrwt>0</asrwt>
<pdfrwt beam="1">0</pdfrwt>
<pdfrwt beam="2">  1        2 0.38834002E+00 0.65358482E+03</pdfrwt>
<totfact> 0.44014234E+00</totfact>
</mgrwt>
</event>
<event>
 5    1  0.2368916E-004  0.6542662E+03  0.7818608E-02  0.9798807E-01
         13   -1    0    0    0    0  0.00000000000E+00  0.00000000000E+00  0.10000000000E+04  0.10000000000E+04  0.00000000000E+00 0. -1.
          2   -1    0    0  501    0 -0.00000000000E+00 -0.00000000000E+00 -0.10701607312E+03  0.10701607312E+03  0.00000000000E+00 0. -1.
    9000006    2    1    2  501    0  0.00000000000E+00  0.00000000000E+00  0.89298392688E+03  0.11070160731E+04  0.65426622448E+03 0.  0.
         13    1    3    3    0    0  0.32207986764E+03  0.49789271072E+02  0.49439848735E+03  0.59215224137E+03  0.00000000000E+00 0. -1.
          2    1    3    3  501    0 -0.32207986764E+03 -0.49789271072E+02  0.39858543952E+03  0.51486383176E+03  0.00000000000E+00 0. -1.
<mgrwt>
<rscale>  0 0.65426622E+03</rscale>
<asrwt>0</asrwt>
<pdfrwt beam="1">0</pdfrwt>
<pdfrwt beam="2">  1        2 0.38915018E+00 0.65426622E+03</pdfrwt>
<totfact> 0.43707876E+00</totfact>
</mgrwt>
</event>
<event>
 5    1  0.2368916E-004  0.6206549E+03  0.7818608E-02  0.9863457E-01
         13   -1    0    0    0    0  0.00000000000E+00  0.00000000000E+00  0.10000000000E+04  0.10000000000E+04  0.00000000000E+00 0. -1.
          2   -1    0    0  501    0 -0.00000000000E+00 -0.00000000000E+00 -0.96303133502E+02  0.96303133502E+02  0.00000000000E+00 0. -1.
    9000006    2    1    2  501    0  0.00000000000E+00  0.00000000000E+00  0.90369686650E+03  0.10963031335E+04  0.62065492345E+03 0.  0.
         13    1    3    3    0    0 -0.81806715125E+02 -0.17496024990E+03  0.88089593120E+03  0.90182097408E+03  0.00000000000E+00 0. -1.
          2    1    3    3  501    0  0.81806715125E+02  0.17496024990E+03  0.22800935301E+02  0.19448215943E+03  0.00000000000E+00 0. -1.
<mgrwt>
<rscale>  0 0.62065492E+03</rscale>
<asrwt>0</asrwt>
<pdfrwt beam="1">0</pdfrwt>
<pdfrwt beam="2">  1        2 0.35019395E+00 0.62065492E+03</pdfrwt>
<totfact> 0.60866895E+00</totfact>
</mgrwt>
</event>
<event>
 5    1  0.2368916E-004  0.6429284E+03  0.7818608E-02  0.9820140E-01
         13   -1    0    0    0    0  0.00000000000E+00  0.00000000000E+00  0.10000000000E+04  0.10000000000E+04  0.00000000000E+00 0. -1.
          2   -1    0    0  501    0 -0.00000000000E+00 -0.00000000000E+00 -0.10333924732E+03  0.10333924732E+03  0.00000000000E+00 0. -1.
    9000006    2    1    2  501    0  0.00000000000E+00  0.00000000000E+00  0.89666075268E+03  0.11033392473E+04  0.64292844801E+03 0.  0.
         13    1    3    3    0    0  0.42540091357E+02  0.14191558041E+03 -0.41257622896E+02  0.15379168632E+03  0.00000000000E+00 0. -1.
          2    1    3    3  501    0 -0.42540091357E+02 -0.14191558041E+03  0.93791837558E+03  0.94954756099E+03  0.00000000000E+00 0. -1.
<mgrwt>
<rscale>  0 0.64292845E+03</rscale>
<asrwt>0</asrwt>
<pdfrwt beam="1">0</pdfrwt>
<pdfrwt beam="2">  1        2 0.37577987E+00 0.64292845E+03</pdfrwt>
<totfact> 0.49019817E+00</totfact>
</mgrwt>
</event>
<event>
 5    1  0.2368916E-004  0.6560184E+03  0.7818608E-02  0.9795551E-01
         13   -1    0    0    0    0  0.00000000000E+00  0.00000000000E+00  0.10000000000E+04  0.10000000000E+04  0.00000000000E+00 0. -1.
          2   -1    0    0  501    0 -0.00000000000E+00 -0.00000000000E+00 -0.10759004154E+03  0.10759004154E+03  0.00000000000E+00 0. -1.
    9000006    2    1    2  501    0  0.00000000000E+00  0.00000000000E+00  0.89240995846E+03  0.11075900415E+04  0.65601841907E+03 0.  0.
         13    1    3    3    0    0  0.25436274945E+03 -0.14159607147E+03  0.19104484316E+03  0.34820681766E+03  0.00000000000E+00 0. -1.
          2    1    3    3  501    0 -0.25436274945E+03  0.14159607147E+03  0.70136511530E+03  0.75938322388E+03  0.00000000000E+00 0. -1.
<mgrwt>
<rscale>  0 0.65601842E+03</rscale>
<asrwt>0</asrwt>
<pdfrwt beam="1">0</pdfrwt>
<pdfrwt beam="2">  1        2 0.39123734E+00 0.65601842E+03</pdfrwt>
<totfact> 0.42927484E+00</totfact>
</mgrwt>
</event>
<event>
 5    1  0.2368916E-004  0.6513713E+03  0.7818608E-02  0.9804209E-01
         13   -1    0    0    0    0  0.00000000000E+00  0.00000000000E+00  0.10000000000E+04  0.10000000000E+04  0.00000000000E+00 0. -1.
          2   -1    0    0  501    0 -0.00000000000E+00 -0.00000000000E+00 -0.10607113707E+03  0.10607113707E+03  0.00000000000E+00 0. -1.
    9000006    2    1    2  501    0  0.00000000000E+00  0.00000000000E+00  0.89392886293E+03  0.11060711371E+04  0.65137128297E+03 0.  0.
         13    1    3    3    0    0  0.24068956156E+03  0.21585159723E+03  0.51376901503E+03  0.60702716403E+03  0.00000000000E+00 0. -1.
          2    1    3    3  501    0 -0.24068956156E+03 -0.21585159723E+03  0.38015984790E+03  0.49904397304E+03  0.00000000000E+00 0. -1.
<mgrwt>
<rscale>  0 0.65137128E+03</rscale>
<asrwt>0</asrwt>
<pdfrwt beam="1">0</pdfrwt>
<pdfrwt beam="2">  1        2 0.38571404E+00 0.65137128E+03</pdfrwt>
<totfact> 0.45020643E+00</totfact>
</mgrwt>
</event>
<event>
 5    1  0.2368916E-004  0.6423265E+03  0.7818608E-02  0.9821286E-01
         13   -1    0    0    0    0  0.00000000000E+00  0.00000000000E+00  0.10000000000E+04  0.10000000000E+04  0.00000000000E+00 0. -1.
          2   -1    0    0  501    0 -0.00000000000E+00 -0.00000000000E+00 -0.10314581959E+03  0.10314581959E+03  0.00000000000E+00 0. -1.
    9000006    2    1    2  501    0  0.00000000000E+00  0.00000000000E+00  0.89685418041E+03  0.11031458196E+04  0.64232645778E+03 0.  0.
         13    1    3    3    0    0 -0.26465887229E+03 -0.18081298164E+03  0.41372977808E+03  0.52336410107E+03  0.00000000000E+00 0. -1.
          4    1    3    3  501    0  0.26465887229E+03  0.18081298164E+03  0.48312440233E+03  0.57978171852E+03  0.00000000000E+00 0. -1.
<mgrwt>
<rscale>  0 0.64232646E+03</rscale>
<asrwt>0</asrwt>
<pdfrwt beam="1">0</pdfrwt>
<pdfrwt beam="2">  1        2 0.37507650E+00 0.64232646E+03</pdfrwt>
<totfact> 0.49314897E+00</totfact>
</mgrwt>
</event>
<event>
 5    1  0.2368916E-004  0.6677810E+03  0.7818608E-02  0.9773975E-01
         13   -1    0    0    0    0  0.00000000000E+00  0.00000000000E+00  0.10000000000E+04  0.10000000000E+04  0.00000000000E+00 0. -1.
          2   -1    0    0  501    0 -0.00000000000E+00 -0.00000000000E+00 -0.11148287138E+03  0.11148287138E+03  0.00000000000E+00 0. -1.
    9000006    2    1    2  501    0  0.00000000000E+00  0.00000000000E+00  0.88851712862E+03  0.11114828714E+04  0.66778101614E+03 0.  0.
         13    1    3    3    0    0 -0.95202846488E+02  0.27177849924E+03  0.72552336847E+03  0.78058394349E+03  0.00000000000E+00 0. -1.
          2    1    3    3  501    0  0.95202846488E+02 -0.27177849924E+03  0.16299376015E+03  0.33089892789E+03  0.00000000000E+00 0. -1.
<mgrwt>
<rscale>  0 0.66778102E+03</rscale>
<asrwt>0</asrwt>
<pdfrwt beam="1">0</pdfrwt>
<pdfrwt beam="2">  1        2 0.40539311E+00 0.66778102E+03</pdfrwt>
<totfact> 0.37957722E+00</totfact>
</mgrwt>
</event>
<event>
 5    1  0.2368916E-004  0.6233909E+03  0.7818608E-02  0.9858032E-01
         13   -1    0    0    0    0  0.00000000000E+00  0.00000000000E+00  0.10000000000E+04  0.10000000000E+04  0.00000000000E+00 0. -1.
          2   -1    0    0  501    0 -0.00000000000E+00 -0.00000000000E+00 -0.97154052974E+02  0.97154052974E+02  0.00000000000E+00 0. -1.
    9000006    2    1    2  501    0  0.00000000000E+00  0.00000000000E+00  0.90284594703E+03  0.10971540530E+04  0.62339089815E+03 0.  0.
         13    1    3    3    0    0 -0.22036132334E+03  0.20539417831E+03  0.59231104469E+03  0.66451354762E+03  0.00000000000E+00 0. -1.
          4    1    3    3  501    0  0.22036132334E+03 -0.20539417831E+03  0.31053490234E+03  0.43264050536E+03  0.00000000000E+00 0. -1.
<mgrwt>
<rscale>  0 0.62339090E+03</rscale>
<asrwt>0</asrwt>
<pdfrwt beam="1">0</pdfrwt>
<pdfrwt beam="2">  1        2 0.35328821E+00 0.62339090E+03</pdfrwt>
<totfact> 0.59305242E+00</totfact>
</mgrwt>
</event>
<event>
 5    1  0.2368916E-004  0.6585416E+03  0.7818608E-02  0.9790882E-01
         13   -1    0    0    0    0  0.00000000000E+00  0.00000000000E+00  0.10000000000E+04  0.10000000000E+04  0.00000000000E+00 0. -1.
          2   -1    0    0  501    0 -0.00000000000E+00 -0.00000000000E+00 -0.10841927077E+03  0.10841927077E+03  0.00000000000E+00 0. -1.
    9000006    2    1    2  501    0  0.00000000000E+00  0.00000000000E+00  0.89158072923E+03  0.11084192708E+04  0.65854163351E+03 0.  0.
         13    1    3    3    0    0 -0.38121449340E+02 -0.13824338707E+03 -0.53098210111E+02  0.15291794821E+03  0.00000000000E+00 0. -1.
          4    1    3    3  501    0  0.38121449340E+02  0.13824338707E+03  0.94467893934E+03  0.95550132256E+03  0.00000000000E+00 0. -1.
<mgrwt>
<rscale>  0 0.65854163E+03</rscale>
<asrwt>0</asrwt>
<pdfrwt beam="1">0</pdfrwt>
<pdfrwt beam="2">  1        2 0.39425273E+00 0.65854163E+03</pdfrwt>
<totfact> 0.41822250E+00</totfact>
</mgrwt>
</event>
<event>
 5    1  0.2368916E-004  0.6170806E+03  0.7818608E-02  0.9870589E-01
         13   -1    0    0    0    0  0.00000000000E+00  0.00000000000E+00  0.10000000000E+04  0.10000000000E+04  0.00000000000E+00 0. -1.
          2   -1    0    0  501    0 -0.00000000000E+00 -0.00000000000E+00 -0.95197123958E+02  0.95197123958E+02  0.00000000000E+00 0. -1.
    9000006    2    1    2  501    0  0.00000000000E+00  0.00000000000E+00  0.90480287604E+03  0.10951971240E+04  0.61708062345E+03 0.  0.
         13    1    3    3    0    0  0.23861652677E+03 -0.19445248718E+03  0.41485657997E+03  0.51658067963E+03  0.00000000000E+00 0. -1.
          2    1    3    3  501    0 -0.23861652677E+03  0.19445248718E+03  0.48994629607E+03  0.57861644433E+03  0.00000000000E+00 0. -1.
<mgrwt>
<rscale>  0 0.61708062E+03</rscale>
<asrwt>0</asrwt>
<pdfrwt beam="1">0</pdfrwt>
<pdfrwt beam="2">  1        2 0.34617209E+00 0.61708062E+03</pdfrwt>
<totfact> 0.62953971E+00</totfact>
</mgrwt>
</event>
<event>
 5    1  0.2368916E-004  0.6498800E+03  0.7818608E-02  0.9807004E-01
         13   -1    0    0    0    0  0.00000000000E+00  0.00000000000E+00  0.10000000000E+04  0.10000000000E+04  0.00000000000E+00 0. -1.
          2   -1    0    0  501    0 -0.00000000000E+00 -0.00000000000E+00 -0.10558599055E+03  0.10558599055E+03  0.00000000000E+00 0. -1.
    9000006    2    1    2  501    0  0.00000000000E+00  0.00000000000E+00  0.89441400945E+03  0.11055859906E+04  0.64987995984E+03 0.  0.
         13    1    3    3    0    0  0.31034821713E+03  0.43978302171E+02  0.30149826622E+03  0.43491529229E+03  0.00000000000E+00 0. -1.
          4    1    3    3  501    0 -0.31034821713E+03 -0.43978302171E+02  0.59291574323E+03  0.67067069826E+03  0.00000000000E+00 0. -1.
<mgrwt>
<rscale>  0 0.64987996E+03</rscale>
<asrwt>0</asrwt>
<pdfrwt beam="1">0</pdfrwt>
<pdfrwt beam="2">  1        2 0.38394987E+00 0.64987996E+03</pdfrwt>
<totfact> 0.45708426E+00</totfact>
</mgrwt>
</event>
<event>
 5    1  0.2368916E-004  0.6379923E+03  0.7818608E-02  0.9829575E-01
         13   -1    0    0    0    0  0.00000000000E+00  0.00000000000E+00  0.10000000000E+04  0.10000000000E+04  0.00000000000E+00 0. -1.
          2   -1    0    0  501    0 -0.00000000000E+00 -0.00000000000E+00 -0.10175854548E+03  0.10175854548E+03  0.00000000000E+00 0. -1.
    9000006    2    1    2  501    0  0.00000000000E+00  0.00000000000E+00  0.89824145452E+03  0.11017585455E+04  0.63799230552E+03 0.  0.
         13    1    3    3    0    0 -0.40308028938E+02  0.23911384583E+03  0.91193349025E+02  0.25906832182E+03  0.00000000000E+00 0. -1.
          2    1    3    3  501    0  0.40308028938E+02 -0.23911384583E+03  0.80704810550E+03  0.84269022366E+03  0.00000000000E+00 0. -1.
<mgrwt>
<rscale>  0 0.63799231E+03</rscale>
<asrwt>0</asrwt>
<pdfrwt beam="1">0</pdfrwt>
<pdfrwt beam="2">  1        2 0.37003185E+00 0.63799231E+03</pdfrwt>
<totfact> 0.51479362E+00</totfact>
</mgrwt>
</event>
<event>
 5    1  0.2368916E-004  0.6573955E+03  0.7818608E-02  0.9793000E-01
         13   -1    0    0    0    0  0.00000000000E+00  0.00000000000E+00  0.10000000000E+04  0.10000000000E+04  0.00000000000E+00 0. -1.
          2   -1    0    0  501    0 -0.00000000000E+00 -0.00000000000E+00 -0.10804222189E+03  0.10804222189E+03  0.00000000000E+00 0. -1.
    9000006    2    1    2  501    0  0.00000000000E+00  0.00000000000E+00  0.89195777811E+03  0.11080422219E+04  0.65739553356E+03 0.  0.
         13    1    3    3    0    0 -0.41865204841E+02  0.24411751267E+03  0.81020424373E+03  0.84721719289E+03  0.00000000000E+00 0. -1.
          4    1    3    3  501    0  0.41865204841E+02 -0.24411751267E+03  0.81753534384E+02  0.26082502900E+03  0.00000000000E+00 0. -1.
<mgrwt>
<rscale>  0 0.65739553E+03</rscale>
<asrwt>0</asrwt>
<pdfrwt beam="1">0</pdfrwt>
<pdfrwt beam="2">  1        2 0.39288164E+00 0.65739553E+03</pdfrwt>
<totfact> 0.42321568E+00</totfact>
</mgrwt>
</event>
<event>
 5    1  0.2368916E-004  0.6426086E+03  0.7818608E-02  0.9820748E-01
         13   -1    0    0    0    0  0.00000000000E+00  0.00000000000E+00  0.10000000000E+04  0.10000000000E+04  0.00000000000E+00 0. -1.
          2   -1    0    0  501    0 -0.00000000000E+00 -0.00000000000E+00 -0.10323645270E+03  0.10323645270E+03  0.00000000000E+00 0. -1.
    9000006    2    1    2  501    0  0.00000000000E+00  0.00000000000E+00  0.89676354730E+03  0.11032364527E+04  0.64260859845E+03 0.  0.
         13    1    3    3    0    0 -0.65470104676E+02  0.30367418992E+03  0.30751859176E+03  0.43711787027E+03  0.00000000000E+00 0. -1.
          2    1    3    3  501    0  0.65470104676E+02 -0.30367418992E+03  0.58924495554E+03  0.66611858243E+03  0.00000000000E+00 0. -1.
<mgrwt>
<rscale>  0 0.64260860E+03</rscale>
<asrwt>0</asrwt>
<pdfrwt beam="1">0</pdfrwt>
<pdfrwt beam="2">  1        2 0.37540607E+00 0.64260860E+03</pdfrwt>
<totfact> 0.49176427E+00</totfact>
</mgrwt>
</event>
<event>
 5    1  0.2368916E-004  0.6754966E+03  0.7818608E-02  0.9760079E-01
         13   -1    0    0    0    0  0.00000000000E+00  0.00000000000E+00  0.10000000000E+04  0.10000000000E+04  0.00000000000E+00 0. -1.
          2   -1    0    0  501    0 -0.00000000000E+00 -0.00000000000E+00 -0.11407390924E+03  0.11407390924E+03  0.00000000000E+00 0. -1.
    9000006    2    1    2  501    0  0.00000000000E+00  0.00000000000E+00  0.88592609076E+03  0.11140739092E+04  0.67549658544E+03 0.  0.
         13    1    3    3    0    0  0.13122897566E+03 -0.17411239141E+03  0.86838986922E+03  0.89534190892E+03  0.00000000000E+00 0. -1.
          4    1    3    3  501    0 -0.13122897566E+03  0.17411239141E+03  0.17536221542E+02  0.21873200032E+03  0.00000000000E+00 0. -1.
<mgrwt>
<rscale>  0 0.67549659E+03</rscale>
<asrwt>0</asrwt>
<pdfrwt beam="1">0</pdfrwt>
<pdfrwt beam="2">  1        2 0.41481509E+00 0.67549659E+03</pdfrwt>
<totfact> 0.34942326E+00</totfact>
</mgrwt>
</event>
<event>
 5    1  0.2368916E-004  0.6477619E+03  0.7818608E-02  0.9810988E-01
         13   -1    0    0    0    0  0.00000000000E+00  0.00000000000E+00  0.10000000000E+04  0.10000000000E+04  0.00000000000E+00 0. -1.
          2   -1    0    0  501    0 -0.00000000000E+00 -0.00000000000E+00 -0.10489887577E+03  0.10489887577E+03  0.00000000000E+00 0. -1.
    9000006    2    1    2  501    0  0.00000000000E+00  0.00000000000E+00  0.89510112423E+03  0.11048988758E+04  0.64776191853E+03 0.  0.
         13    1    3    3    0    0  0.15235088025E+03 -0.19043540739E+03  0.84018807749E+02  0.25794494598E+03  0.00000000000E+00 0. -1.
          2    1    3    3  501    0 -0.15235088025E+03  0.19043540739E+03  0.81108231648E+03  0.84695392980E+03  0.00000000000E+00 0. -1.
<mgrwt>
<rscale>  0 0.64776192E+03</rscale>
<asrwt>0</asrwt>
<pdfrwt beam="1">0</pdfrwt>
<pdfrwt beam="2">  1        2 0.38145126E+00 0.64776192E+03</pdfrwt>
<totfact> 0.46698857E+00</totfact>
</mgrwt>
</event>
<event>
 5    1  0.2368916E-004  0.6487896E+03  0.7818608E-02  0.9809053E-01
         13   -1    0    0    0    0  0.00000000000E+00  0.00000000000E+00  0.10000000000E+04  0.10000000000E+04  0.00000000000E+00 0. -1.
          2   -1    0    0  501    0 -0.00000000000E+00 -0.00000000000E+00 -0.10523199597E+03  0.10523199597E+03  0.00000000000E+00 0. -1.
    9000006    2    1    2  501    0  0.00000000000E+00  0.00000000000E+00  0.89476800403E+03  0.11052319960E+04  0.64878962993E+03 0.  0.
         13    1    3    3    0    0  0.76725812585E+02  0.11662916573E+03  0.94620914776E+03  0.95645228000E+03  0.00000000000E+00 0. -1.
          2    1    3    3  501    0 -0.76725812585E+02 -0.11662916573E+03 -0.51441143734E+02  0.14877971597E+03  0.00000000000E+00 0. -1.
<mgrwt>
<rscale>  0 0.64878963E+03</rscale>
<asrwt>0</asrwt>
<pdfrwt beam="1">0</pdfrwt>
<pdfrwt beam="2">  1        2 0.38266261E+00 0.64878963E+03</pdfrwt>
<totfact> 0.46216277E+00</totfact>
</mgrwt>
</event>
<event>
 5    1  0.2368916E-004  0.6534316E+03  0.7818608E-02  0.9800361E-01
         13   -1    0    0    0    0  0.00000000000E+00  0.00000000000E+00  0.10000000000E+04  0.10000000000E+04  0.00000000000E+00 0. -1.
          2   -1    0    0  501    0 -0.00000000000E+00 -0.00000000000E+00 -0.10674322433E+03  0.10674322433E+03  0.00000000000E+00 0. -1.
    9000006    2    1    2  501    0  0.00000000000E+00  0.00000000000E+00  0.89325677567E+03  0.11067432243E+04  0.65343163171E+03 0.  0.
         13    1    3    3    0    0  0.18071919359E+03 -0.48585248160E+02 -0.69754930977E+01  0.18726614957E+03  0.00000000000E+00 0. -1.
          2    1    3    3  501    0 -0.18071919359E+03  0.48585248160E+02  0.90023226877E+03  0.91947707476E+03  0.00000000000E+00 0. -1.
<mgrwt>
<rscale>  0 0.65343163E+03</rscale>
<asrwt>0</asrwt>
<pdfrwt beam="1">0</pdfrwt>
<pdfrwt beam="2">  1        2 0.38815800E+00 0.65343163E+03</pdfrwt>
<totfact> 0.44083331E+00</totfact>
</mgrwt>
</event>
<event>
 5    1  0.2368916E-004  0.6340855E+03  0.7818608E-02  0.9837108E-01
         13   -1    0    0    0    0  0.00000000000E+00  0.00000000000E+00  0.10000000000E+04  0.10000000000E+04  0.00000000000E+00 0. -1.
          2   -1    0    0  501    0 -0.00000000000E+00 -0.00000000000E+00 -0.10051612026E+03  0.10051612026E+03  0.00000000000E+00 0. -1.
    9000006    2    1    2  501    0  0.00000000000E+00  0.00000000000E+00  0.89948387974E+03  0.11005161203E+04  0.63408554709E+03 0.  0.
         13    1    3    3    0    0  0.51379122401E+02 -0.19100215952E+02 -0.92229555280E+02  0.10728897117E+03  0.00000000000E+00 0. -1.
          2    1    3    3  501    0 -0.51379122401E+02  0.19100215952E+02  0.99171343502E+03  0.99322714908E+03  0.00000000000E+00 0. -1.
<mgrwt>
<rscale>  0 0.63408555E+03</rscale>
<asrwt>0</asrwt>
<pdfrwt beam="1">0</pdfrwt>
<pdfrwt beam="2">  1        2 0.36551394E+00 0.63408555E+03</pdfrwt>
<totfact> 0.53491371E+00</totfact>
</mgrwt>
</event>
<event>
 5    1  0.2368916E-004  0.6633127E+03  0.7818608E-02  0.9782115E-01
         13   -1    0    0    0    0  0.00000000000E+00  0.00000000000E+00  0.10000000000E+04  0.10000000000E+04  0.00000000000E+00 0. -1.
          2   -1    0    0  501    0 -0.00000000000E+00 -0.00000000000E+00 -0.10999592214E+03  0.10999592214E+03  0.00000000000E+00 0. -1.
    9000006    2    1    2  501    0  0.00000000000E+00  0.00000000000E+00  0.89000407786E+03  0.11099959221E+04  0.66331266275E+03 0.  0.
         13    1    3    3    0    0 -0.57428429118E+02  0.67575745293E+02  0.97979141661E+03  0.98379658766E+03  0.00000000000E+00 0. -1.
          4    1    3    3  501    0  0.57428429118E+02 -0.67575745293E+02 -0.89787338755E+02  0.12619933448E+03  0.00000000000E+00 0. -1.
<mgrwt>
<rscale>  0 0.66331266E+03</rscale>
<asrwt>0</asrwt>
<pdfrwt beam="1">0</pdfrwt>
<pdfrwt beam="2">  1        2 0.39998601E+00 0.66331266E+03</pdfrwt>
<totfact> 0.39791411E+00</totfact>
</mgrwt>
</event>
<event>
 5    1  0.2368916E-004  0.6558857E+03  0.7818608E-02  0.9795797E-01
         13   -1    0    0    0    0  0.00000000000E+00  0.00000000000E+00  0.10000000000E+04  0.10000000000E+04  0.00000000000E+00 0. -1.
          2   -1    0    0  501    0 -0.00000000000E+00 -0.00000000000E+00 -0.10754650139E+03  0.10754650139E+03  0.00000000000E+00 0. -1.
    9000006    2    1    2  501    0  0.00000000000E+00  0.00000000000E+00  0.89245349861E+03  0.11075465014E+04  0.65588566502E+03 0.  0.
         13    1    3    3    0    0  0.12562580001E+02  0.18021599932E+03  0.90840155779E+03  0.92619059325E+03  0.00000000000E+00 0. -1.
          2    1    3    3  501    0 -0.12562580001E+02 -0.18021599932E+03 -0.15948059180E+02  0.18135590815E+03  0.00000000000E+00 0. -1.
<mgrwt>
<rscale>  0 0.65588567E+03</rscale>
<asrwt>0</asrwt>
<pdfrwt beam="1">0</pdfrwt>
<pdfrwt beam="2">  1        2 0.39107901E+00 0.65588567E+03</pdfrwt>
<totfact> 0.42986239E+00</totfact>
</mgrwt>
</event>
<event>
 5    1  0.2368916E-004  0.6457961E+03  0.7818608E-02  0.9814700E-01
         13   -1    0    0    0    0  0.00000000000E+00  0.00000000000E+00  0.10000000000E+04  0.10000000000E+04  0.00000000000E+00 0. -1.
          2   -1    0    0  501    0 -0.00000000000E+00 -0.00000000000E+00 -0.10426314499E+03  0.10426314499E+03  0.00000000000E+00 0. -1.
    9000006    2    1    2  501    0  0.00000000000E+00  0.00000000000E+00  0.89573685501E+03  0.11042631450E+04  0.64579608233E+03 0.  0.
         13    1    3    3    0    0  0.11473853034E+03  0.20961125426E+03  0.81920713782E+03  0.85334760966E+03  0.00000000000E+00 0. -1.
          4    1    3    3  501    0 -0.11473853034E+03 -0.20961125426E+03  0.76529717188E+02  0.25091553533E+03  0.00000000000E+00 0. -1.
<mgrwt>
<rscale>  0 0.64579608E+03</rscale>
<asrwt>0</asrwt>
<pdfrwt beam="1">0</pdfrwt>
<pdfrwt beam="2">  1        2 0.37913951E+00 0.64579608E+03</pdfrwt>
<totfact> 0.47632554E+00</totfact>
</mgrwt>
</event>
<event>
 5    1  0.2368916E-004  0.6363490E+03  0.7818608E-02  0.9832737E-01
         13   -1    0    0    0    0  0.00000000000E+00  0.00000000000E+00  0.10000000000E+04  0.10000000000E+04  0.00000000000E+00 0. -1.
          2   -1    0    0  501    0 -0.00000000000E+00 -0.00000000000E+00 -0.10123500968E+03  0.10123500968E+03  0.00000000000E+00 0. -1.
    9000006    2    1    2  501    0  0.00000000000E+00  0.00000000000E+00  0.89876499032E+03  0.11012350097E+04  0.63634899129E+03 0.  0.
         13    1    3    3    0    0 -0.59190754782E+02 -0.15809924571E+03  0.91610595751E+03  0.93153048384E+03  0.00000000000E+00 0. -1.
          2    1    3    3  501    0  0.59190754782E+02  0.15809924571E+03 -0.17340967186E+02  0.16970452584E+03  0.00000000000E+00 0. -1.
<mgrwt>
<rscale>  0 0.63634899E+03</rscale>
<asrwt>0</asrwt>
<pdfrwt beam="1">0</pdfrwt>
<pdfrwt beam="2">  1        2 0.36812808E+00 0.63634899E+03</pdfrwt>
<totfact> 0.52318561E+00</totfact>
</mgrwt>
</event>
<event>
 5    1  0.2368916E-004  0.6435306E+03  0.7818608E-02  0.9818995E-01
         13   -1    0    0    0    0  0.00000000000E+00  0.00000000000E+00  0.10000000000E+04  0.10000000000E+04  0.00000000000E+00 0. -1.
          2   -1    0    0  501    0 -0.00000000000E+00 -0.00000000000E+00 -0.10353290049E+03  0.10353290049E+03  0.00000000000E+00 0. -1.
    9000006    2    1    2  501    0  0.00000000000E+00  0.00000000000E+00  0.89646709951E+03  0.11035329005E+04  0.64353057579E+03 0.  0.
         13    1    3    3    0    0 -0.50767137835E+02 -0.25577306473E+02 -0.94853686552E+02  0.11058355548E+03  0.00000000000E+00 0. -1.
          4    1    3    3  501    0  0.50767137835E+02  0.25577306473E+02  0.99132078606E+03  0.99294934501E+03  0.00000000000E+00 0. -1.
<mgrwt>
<rscale>  0 0.64353058E+03</rscale>
<asrwt>0</asrwt>
<pdfrwt beam="1">0</pdfrwt>
<pdfrwt beam="2">  1        2 0.37648407E+00 0.64353058E+03</pdfrwt>
<totfact> 0.48726024E+00</totfact>
</mgrwt>
</event>
<event>
 5    1  0.2368916E-004  0.6480268E+03  0.7818608E-02  0.9810489E-01
         13   -1    0    0    0    0  0.00000000000E+00  0.00000000000E+00  0.10000000000E+04  0.10000000000E+04  0.00000000000E+00 0. -1.
          2   -1    0    0  501    0 -0.00000000000E+00 -0.00000000000E+00 -0.10498469053E+03  0.10498469053E+03  0.00000000000E+00 0. -1.
    9000006    2    1    2  501    0  0.00000000000E+00  0.00000000000E+00  0.89501530947E+03  0.11049846905E+04  0.64802682208E+03 0.  0.
         13    1    3    3    0    0  0.30517354297E+03  0.53937129434E+02  0.60877386625E+03  0.68311472351E+03  0.00000000000E+00 0. -1.
          2    1    3    3  501    0 -0.30517354297E+03 -0.53937129434E+02  0.28624144322E+03  0.42186996702E+03  0.00000000000E+00 0. -1.
<mgrwt>
<rscale>  0 0.64802682E+03</rscale>
<asrwt>0</asrwt>
<pdfrwt beam="1">0</pdfrwt>
<pdfrwt beam="2">  1        2 0.38176332E+00 0.64802682E+03</pdfrwt>
<totfact> 0.46574104E+00</totfact>
</mgrwt>
</event>
<event>
 5    1  0.2368916E-004  0.6596636E+03  0.7818608E-02  0.9788813E-01
         13   -1    0    0    0    0  0.00000000000E+00  0.00000000000E+00  0.10000000000E+04  0.10000000000E+04  0.00000000000E+00 0. -1.
          2   -1    0    0  501    0 -0.00000000000E+00 -0.00000000000E+00 -0.10878901113E+03  0.10878901113E+03  0.00000000000E+00 0. -1.
    9000006    2    1    2  501    0  0.00000000000E+00  0.00000000000E+00  0.89121098887E+03  0.11087890111E+04  0.65966358436E+03 0.  0.
         13    1    3    3    0    0 -0.22212085181E+03 -0.19411226546E+03  0.19759318347E+03  0.35504972971E+03  0.00000000000E+00 0. -1.
          4    1    3    3  501    0  0.22212085181E+03  0.19411226546E+03  0.69361780539E+03  0.75373928143E+03  0.00000000000E+00 0. -1.
<mgrwt>
<rscale>  0 0.65966358E+03</rscale>
<asrwt>0</asrwt>
<pdfrwt beam="1">0</pdfrwt>
<pdfrwt beam="2">  1        2 0.39559724E+00 0.65966358E+03</pdfrwt>
<totfact> 0.41337803E+00</totfact>
</mgrwt>
</event>
<event>
 5    1  0.2368916E-004  0.6541130E+03  0.7818608E-02  0.9799092E-01
         13   -1    0    0    0    0  0.00000000000E+00  0.00000000000E+00  0.10000000000E+04  0.10000000000E+04  0.00000000000E+00 0. -1.
          2   -1    0    0  501    0 -0.00000000000E+00 -0.00000000000E+00 -0.10696595062E+03  0.10696595062E+03  0.00000000000E+00 0. -1.
    9000006    2    1    2  501    0  0.00000000000E+00  0.00000000000E+00  0.89303404938E+03  0.11069659506E+04  0.65411298908E+03 0.  0.
         13    1    3    3    0    0  0.29291233590E+03 -0.14548004157E+03  0.44984689263E+03  0.55616931399E+03  0.00000000000E+00 0. -1.
          2    1    3    3  501    0 -0.29291233590E+03  0.14548004157E+03  0.44318715674E+03  0.55079663663E+03  0.00000000000E+00 0. -1.
<mgrwt>
<rscale>  0 0.65411299E+03</rscale>
<asrwt>0</asrwt>
<pdfrwt beam="1">0</pdfrwt>
<pdfrwt beam="2">  1        2 0.38896791E+00 0.65411299E+03</pdfrwt>
<totfact> 0.43776629E+00</totfact>
</mgrwt>
</event>
<event>
 5    1  0.2368916E-004  0.6449329E+03  0.7818608E-02  0.9816334E-01
         13   -1    0    0    0    0  0.00000000000E+00  0.00000000000E+00  0.10000000000E+04  0.10000000000E+04  0.00000000000E+00 0. -1.
          2   -1    0    0  501    0 -0.00000000000E+00 -0.00000000000E+00 -0.10398460846E+03  0.10398460846E+03  0.00000000000E+00 0. -1.
    9000006    2    1    2  501    0  0.00000000000E+00  0.00000000000E+00  0.89601539154E+03  0.11039846085E+04  0.64493289097E+03 0.  0.
         13    1    3    3    0    0  0.10021599329E+03 -0.30609112704E+03  0.42096451206E+03  0.53004353008E+03  0.00000000000E+00 0. -1.
          4    1    3    3  501    0 -0.10021599329E+03  0.30609112704E+03  0.47505087947E+03  0.57394107838E+03  0.00000000000E+00 0. -1.
<mgrwt>
<rscale>  0 0.64493289E+03</rscale>
<asrwt>0</asrwt>
<pdfrwt beam="1">0</pdfrwt>
<pdfrwt beam="2">  1        2 0.37812665E+00 0.64493289E+03</pdfrwt>
<totfact> 0.48046969E+00</totfact>
</mgrwt>
</event>
<event>
 5    1  0.2368916E-004  0.6443721E+03  0.7818608E-02  0.9817397E-01
         13   -1    0    0    0    0  0.00000000000E+00  0.00000000000E+00  0.10000000000E+04  0.10000000000E+04  0.00000000000E+00 0. -1.
          2   -1    0    0  501    0 -0.00000000000E+00 -0.00000000000E+00 -0.10380386242E+03  0.10380386242E+03  0.00000000000E+00 0. -1.
    9000006    2    1    2  501    0  0.00000000000E+00  0.00000000000E+00  0.89619613758E+03  0.11038038624E+04  0.64437213601E+03 0.  0.
         13    1    3    3    0    0 -0.16057097707E+03  0.27834115128E+03  0.40803357741E+03  0.51937292524E+03  0.00000000000E+00 0. -1.
          4    1    3    3  501    0  0.16057097707E+03 -0.27834115128E+03  0.48816256017E+03  0.58443093718E+03  0.00000000000E+00 0. -1.
<mgrwt>
<rscale>  0 0.64437214E+03</rscale>
<asrwt>0</asrwt>
<pdfrwt beam="1">0</pdfrwt>
<pdfrwt beam="2">  1        2 0.37746939E+00 0.64437214E+03</pdfrwt>
<totfact> 0.48317643E+00</totfact>
</mgrwt>
</event>
<event>
 5    1  0.2368916E-004  0.5753204E+03  0.7818608E-02  0.9957974E-01
         13   -1    0    0    0    0  0.00000000000E+00  0.00000000000E+00  0.10000000000E+04  0.10000000000E+04  0.00000000000E+00 0. -1.
          2   -1    0    0  501    0 -0.00000000000E+00 -0.00000000000E+00 -0.82748387712E+02  0.82748387712E+02  0.00000000000E+00 0. -1.
    9000006    2    1    2  501    0  0.00000000000E+00  0.00000000000E+00  0.91725161229E+03  0.10827483877E+04  0.57532038974E+03 0.  0.
         13    1    3    3    0    0  0.21202163693E+03 -0.86556271727E+02  0.78623961962E+03  0.81891263402E+03  0.00000000000E+00 0. -1.
          4    1    3    3  501    0 -0.21202163693E+03  0.86556271727E+02  0.13101199267E+03  0.26383575369E+03  0.00000000000E+00 0. -1.
<mgrwt>
<rscale>  0 0.57532039E+03</rscale>
<asrwt>0</asrwt>
<pdfrwt beam="1">0</pdfrwt>
<pdfrwt beam="2">  1        2 0.30090386E+00 0.57532039E+03</pdfrwt>
<totfact> 0.91642662E+00</totfact>
</mgrwt>
</event>
<event>
 5    1  0.2368916E-004  0.6377460E+03  0.7818608E-02  0.9830049E-01
         13   -1    0    0    0    0  0.00000000000E+00  0.00000000000E+00  0.10000000000E+04  0.10000000000E+04  0.00000000000E+00 0. -1.
          2   -1    0    0  501    0 -0.00000000000E+00 -0.00000000000E+00 -0.10167997716E+03  0.10167997716E+03  0.00000000000E+00 0. -1.
    9000006    2    1    2  501    0  0.00000000000E+00  0.00000000000E+00  0.89832002284E+03  0.11016799772E+04  0.63774595934E+03 0.  0.
         13    1    3    3    0    0 -0.28642633932E+03  0.94377981997E+02  0.27019721467E+03  0.40491207213E+03  0.00000000000E+00 0. -1.
          2    1    3    3  501    0  0.28642633932E+03 -0.94377981997E+02  0.62812280816E+03  0.69676790503E+03  0.00000000000E+00 0. -1.
<mgrwt>
<rscale>  0 0.63774596E+03</rscale>
<asrwt>0</asrwt>
<pdfrwt beam="1">0</pdfrwt>
<pdfrwt beam="2">  1        2 0.36974615E+00 0.63774596E+03</pdfrwt>
<totfact> 0.51604510E+00</totfact>
</mgrwt>
</event>
<event>
 5    1  0.2368916E-004  0.6500136E+03  0.7818608E-02  0.9806754E-01
         13   -1    0    0    0    0  0.00000000000E+00  0.00000000000E+00  0.10000000000E+04  0.10000000000E+04  0.00000000000E+00 0. -1.
          2   -1    0    0  501    0 -0.00000000000E+00 -0.00000000000E+00 -0.10562941923E+03  0.10562941923E+03  0.00000000000E+00 0. -1.
    9000006    2    1    2  501    0  0.00000000000E+00  0.00000000000E+00  0.89437058077E+03  0.11056294192E+04  0.65001359750E+03 0.  0.
         13    1    3    3    0    0 -0.15200235155E+03 -0.22706657011E+03  0.74649860223E+03  0.79493654166E+03  0.00000000000E+00 0. -1.
          2    1    3    3  501    0  0.15200235155E+03  0.22706657011E+03  0.14787197854E+03  0.31069287757E+03  0.00000000000E+00 0. -1.
<mgrwt>
<rscale>  0 0.65001360E+03</rscale>
<asrwt>0</asrwt>
<pdfrwt beam="1">0</pdfrwt>
<pdfrwt beam="2">  1        2 0.38410779E+00 0.65001360E+03</pdfrwt>
<totfact> 0.45646472E+00</totfact>
</mgrwt>
</event>
<event>
 5    1  0.2368916E-004  0.6515281E+03  0.7818608E-02  0.9803916E-01
         13   -1    0    0    0    0  0.00000000000E+00  0.00000000000E+00  0.10000000000E+04  0.10000000000E+04  0.00000000000E+00 0. -1.
          2   -1    0    0  501    0 -0.00000000000E+00 -0.00000000000E+00 -0.10612220451E+03  0.10612220451E+03  0.00000000000E+00 0. -1.
    9000006    2    1    2  501    0  0.00000000000E+00  0.00000000000E+00  0.89387779549E+03  0.11061222045E+04  0.65152806391E+03 0.  0.
         13    1    3    3    0    0  0.16056518839E+03  0.23594086176E+02 -0.32605500586E+02  0.16553241161E+03  0.00000000000E+00 0. -1.
          4    1    3    3  501    0 -0.16056518839E+03 -0.23594086176E+02  0.92648329607E+03  0.94058979291E+03  0.00000000000E+00 0. -1.
<mgrwt>
<rscale>  0 0.65152806E+03</rscale>
<asrwt>0</asrwt>
<pdfrwt beam="1">0</pdfrwt>
<pdfrwt beam="2">  1        2 0.38589974E+00 0.65152806E+03</pdfrwt>
<totfact> 0.44948795E+00</totfact>
</mgrwt>
</event>
<event>
 5    1  0.2368916E-004  0.6459165E+03  0.7818608E-02  0.9814472E-01
         13   -1    0    0    0    0  0.00000000000E+00  0.00000000000E+00  0.10000000000E+04  0.10000000000E+04  0.00000000000E+00 0. -1.
          2   -1    0    0  501    0 -0.00000000000E+00 -0.00000000000E+00 -0.10430201941E+03  0.10430201941E+03  0.00000000000E+00 0. -1.
    9000006    2    1    2  501    0  0.00000000000E+00  0.00000000000E+00  0.89569798059E+03  0.11043020194E+04  0.64591646337E+03 0.  0.
         13    1    3    3    0    0  0.97237787838E+02 -0.56444021575E+02  0.96546009064E+03  0.97198472291E+03  0.00000000000E+00 0. -1.
          2    1    3    3  501    0 -0.97237787838E+02  0.56444021575E+02 -0.69762110051E+02  0.13231729650E+03  0.00000000000E+00 0. -1.
<mgrwt>
<rscale>  0 0.64591646E+03</rscale>
<asrwt>0</asrwt>
<pdfrwt beam="1">0</pdfrwt>
<pdfrwt beam="2">  1        2 0.37928087E+00 0.64591646E+03</pdfrwt>
<totfact> 0.47574975E+00</totfact>
</mgrwt>
</event>
<event>
 5    1  0.2368916E-004  0.6543649E+03  0.7818608E-02  0.9798623E-01
         13   -1    0    0    0    0  0.00000000000E+00  0.00000000000E+00  0.10000000000E+04  0.10000000000E+04  0.00000000000E+00 0. -1.
          2   -1    0    0  501    0 -0.00000000000E+00 -0.00000000000E+00 -0.10704834100E+03  0.10704834100E+03  0.00000000000E+00 0. -1.
    9000006    2    1    2  501    0  0.00000000000E+00  0.00000000000E+00  0.89295165900E+03  0.11070483410E+04  0.65436485540E+03 0.  0.
         13    1    3    3    0    0  0.20882000737E+03  0.20000099136E+02  0.87125525763E+03  0.89615373870E+03  0.00000000000E+00 0. -1.
          2    1    3    3  501    0 -0.20882000737E+03 -0.20000099136E+02  0.21696401376E+02  0.21089460229E+03  0.00000000000E+00 0. -1.
<mgrwt>
<rscale>  0 0.65436486E+03</rscale>
<asrwt>0</asrwt>
<pdfrwt beam="1">0</pdfrwt>
<pdfrwt beam="2">  1        2 0.38926752E+00 0.65436486E+03</pdfrwt>
<totfact> 0.43663665E+00</totfact>
</mgrwt>
</event>
<event>
 5    1  0.2368916E-004  0.4851207E+03  0.7818608E-02  0.1017737E+00
         13   -1    0    0    0    0  0.00000000000E+00  0.00000000000E+00  0.10000000000E+04  0.10000000000E+04  0.00000000000E+00 0. -1.
          2   -1    0    0  501    0 -0.00000000000E+00 -0.00000000000E+00 -0.58835525212E+02  0.58835525212E+02  0.00000000000E+00 0. -1.
    9000006    2    1    2  501    0  0.00000000000E+00  0.00000000000E+00  0.94116447479E+03  0.10588355252E+04  0.48512070750E+03 0.  0.
         13    1    3    3    0    0 -0.95839582083E+02  0.18805981768E+03  0.73143812457E+03  0.76128408008E+03  0.00000000000E+00 0. -1.
          2    1    3    3  501    0  0.95839582083E+02 -0.18805981768E+03  0.20972635022E+03  0.29755144513E+03  0.00000000000E+00 0. -1.
<mgrwt>
<rscale>  0 0.48512071E+03</rscale>
<asrwt>0</asrwt>
<pdfrwt beam="1">0</pdfrwt>
<pdfrwt beam="2">  1        2 0.21394782E+00 0.48512071E+03</pdfrwt>
<totfact> 0.18851587E+01</totfact>
</mgrwt>
</event>
<event>
 5    1  0.2368916E-004  0.6585653E+03  0.7818608E-02  0.9790838E-01
         13   -1    0    0    0    0  0.00000000000E+00  0.00000000000E+00  0.10000000000E+04  0.10000000000E+04  0.00000000000E+00 0. -1.
          2   -1    0    0  501    0 -0.00000000000E+00 -0.00000000000E+00 -0.10842706721E+03  0.10842706721E+03  0.00000000000E+00 0. -1.
    9000006    2    1    2  501    0  0.00000000000E+00  0.00000000000E+00  0.89157293279E+03  0.11084270672E+04  0.65856531099E+03 0.  0.
         13    1    3    3    0    0  0.71027771685E+02  0.15288675769E+03 -0.30287390217E+02  0.17127939466E+03  0.00000000000E+00 0. -1.
          2    1    3    3  501    0 -0.71027771685E+02 -0.15288675769E+03  0.92186032301E+03  0.93714767255E+03  0.00000000000E+00 0. -1.
<mgrwt>
<rscale>  0 0.65856531E+03</rscale>
<asrwt>0</asrwt>
<pdfrwt beam="1">0</pdfrwt>
<pdfrwt beam="2">  1        2 0.39428108E+00 0.65856531E+03</pdfrwt>
<totfact> 0.41811982E+00</totfact>
</mgrwt>
</event>
<event>
 5    1  0.2368916E-004  0.6393521E+03  0.7818608E-02  0.9826967E-01
         13   -1    0    0    0    0  0.00000000000E+00  0.00000000000E+00  0.10000000000E+04  0.10000000000E+04  0.00000000000E+00 0. -1.
          2   -1    0    0  501    0 -0.00000000000E+00 -0.00000000000E+00 -0.10219279151E+03  0.10219279151E+03  0.00000000000E+00 0. -1.
    9000006    2    1    2  501    0  0.00000000000E+00  0.00000000000E+00  0.89780720849E+03  0.11021927915E+04  0.63935214556E+03 0.  0.
         13    1    3    3    0    0 -0.25458941304E+03  0.17009488530E+03  0.60732392800E+03  0.68013998026E+03  0.00000000000E+00 0. -1.
          4    1    3    3  501    0  0.25458941304E+03 -0.17009488530E+03  0.29048328049E+03  0.42205281125E+03  0.00000000000E+00 0. -1.
<mgrwt>
<rscale>  0 0.63935215E+03</rscale>
<asrwt>0</asrwt>
<pdfrwt beam="1">0</pdfrwt>
<pdfrwt beam="2">  1        2 0.37161093E+00 0.63935215E+03</pdfrwt>
<totfact> 0.50792670E+00</totfact>
</mgrwt>
</event>
<event>
 5    1  0.2368916E-004  0.6607421E+03  0.7818608E-02  0.9786829E-01
         13   -1    0    0    0    0  0.00000000000E+00  0.00000000000E+00  0.10000000000E+04  0.10000000000E+04  0.00000000000E+00 0. -1.
          2   -1    0    0  501    0 -0.00000000000E+00 -0.00000000000E+00 -0.10914502508E+03  0.10914502508E+03  0.00000000000E+00 0. -1.
    9000006    2    1    2  501    0  0.00000000000E+00  0.00000000000E+00  0.89085497492E+03  0.11091450251E+04  0.66074208305E+03 0.  0.
         13    1    3    3    0    0  0.52055100413E+02  0.40667097701E+02 -0.97946231168E+02  0.11813979226E+03  0.00000000000E+00 0. -1.
          2    1    3    3  501    0 -0.52055100413E+02 -0.40667097701E+02  0.98880120609E+03  0.99100523282E+03  0.00000000000E+00 0. -1.
<mgrwt>
<rscale>  0 0.66074208E+03</rscale>
<asrwt>0</asrwt>
<pdfrwt beam="1">0</pdfrwt>
<pdfrwt beam="2">  1        2 0.39689184E+00 0.66074208E+03</pdfrwt>
<totfact> 0.40876124E+00</totfact>
</mgrwt>
</event>
<event>
 5    1  0.2368916E-004  0.6526619E+03  0.7818608E-02  0.9801797E-01
         13   -1    0    0    0    0  0.00000000000E+00  0.00000000000E+00  0.10000000000E+04  0.10000000000E+04  0.00000000000E+00 0. -1.
          2   -1    0    0  501    0 -0.00000000000E+00 -0.00000000000E+00 -0.10649188380E+03  0.10649188380E+03  0.00000000000E+00 0. -1.
    9000006    2    1    2  501    0  0.00000000000E+00  0.00000000000E+00  0.89350811620E+03  0.11064918838E+04  0.65266188429E+03 0.  0.
         13    1    3    3    0    0  0.26994546385E+03  0.36586299598E+02  0.14214318699E+03  0.30726828078E+03  0.00000000000E+00 0. -1.
          4    1    3    3  501    0 -0.26994546385E+03 -0.36586299598E+02  0.75136492921E+03  0.79922360302E+03  0.00000000000E+00 0. -1.
<mgrwt>
<rscale>  0 0.65266188E+03</rscale>
<asrwt>0</asrwt>
<pdfrwt beam="1">0</pdfrwt>
<pdfrwt beam="2">  1        2 0.38724403E+00 0.65266188E+03</pdfrwt>
<totfact> 0.44431769E+00</totfact>
</mgrwt>
</event>
<event>
 5    1  0.2368916E-004  0.6392082E+03  0.7818608E-02  0.9827243E-01
         13   -1    0    0    0    0  0.00000000000E+00  0.00000000000E+00  0.10000000000E+04  0.10000000000E+04  0.00000000000E+00 0. -1.
          2   -1    0    0  501    0 -0.00000000000E+00 -0.00000000000E+00 -0.10214677402E+03  0.10214677402E+03  0.00000000000E+00 0. -1.
    9000006    2    1    2  501    0  0.00000000000E+00  0.00000000000E+00  0.89785322598E+03  0.11021467740E+04  0.63920817898E+03 0.  0.
         13    1    3    3    0    0 -0.28907373757E+03  0.24001223934E+02  0.68030291318E+03  0.73956185555E+03  0.00000000000E+00 0. -1.
          2    1    3    3  501    0  0.28907373757E+03 -0.24001223934E+02  0.21755031280E+03  0.36258491847E+03  0.00000000000E+00 0. -1.
<mgrwt>
<rscale>  0 0.63920818E+03</rscale>
<asrwt>0</asrwt>
<pdfrwt beam="1">0</pdfrwt>
<pdfrwt beam="2">  1        2 0.37144360E+00 0.63920818E+03</pdfrwt>
<totfact> 0.50865040E+00</totfact>
</mgrwt>
</event>
<event>
 5    1  0.2368916E-004  0.6389134E+03  0.7818608E-02  0.9827808E-01
         13   -1    0    0    0    0  0.00000000000E+00  0.00000000000E+00  0.10000000000E+04  0.10000000000E+04  0.00000000000E+00 0. -1.
          2   -1    0    0  501    0 -0.00000000000E+00 -0.00000000000E+00 -0.10205257241E+03  0.10205257241E+03  0.00000000000E+00 0. -1.
    9000006    2    1    2  501    0  0.00000000000E+00  0.00000000000E+00  0.89794742759E+03  0.11020525724E+04  0.63891336630E+03 0.  0.
         13    1    3    3    0    0 -0.21868793356E+03  0.18441663980E+03  0.20370816091E+03  0.35118502836E+03  0.00000000000E+00 0. -1.
          4    1    3    3  501    0  0.21868793356E+03 -0.18441663980E+03  0.69423926668E+03  0.75086754405E+03  0.00000000000E+00 0. -1.
<mgrwt>
<rscale>  0 0.63891337E+03</rscale>
<asrwt>0</asrwt>
<pdfrwt beam="1">0</pdfrwt>
<pdfrwt beam="2">  1        2 0.37110105E+00 0.63891337E+03</pdfrwt>
<totfact> 0.51013482E+00</totfact>
</mgrwt>
</event>
<event>
 5    1  0.2368916E-004  0.6890052E+03  0.7818608E-02  0.9736222E-01
         13   -1    0    0    0    0  0.00000000000E+00  0.00000000000E+00  0.10000000000E+04  0.10000000000E+04  0.00000000000E+00 0. -1.
          2   -1    0    0  501    0 -0.00000000000E+00 -0.00000000000E+00 -0.11868204785E+03  0.11868204785E+03  0.00000000000E+00 0. -1.
    9000006    2    1    2  501    0  0.00000000000E+00  0.00000000000E+00  0.88131795215E+03  0.11186820479E+04  0.68900521871E+03 0.  0.
         13    1    3    3    0    0 -0.29571591410E+03 -0.15598918138E+03  0.30577617587E+03  0.45307791415E+03  0.00000000000E+00 0. -1.
          2    1    3    3  501    0  0.29571591410E+03  0.15598918138E+03  0.57554177628E+03  0.66560413371E+03  0.00000000000E+00 0. -1.
<mgrwt>
<rscale>  0 0.68900522E+03</rscale>
<asrwt>0</asrwt>
<pdfrwt beam="1">0</pdfrwt>
<pdfrwt beam="2">  1        2 0.43157199E+00 0.68900522E+03</pdfrwt>
<totfact> 0.30101761E+00</totfact>
</mgrwt>
</event>
<event>
 5    1  0.2368916E-004  0.6816241E+03  0.7818608E-02  0.9749184E-01
         13   -1    0    0    0    0  0.00000000000E+00  0.00000000000E+00  0.10000000000E+04  0.10000000000E+04  0.00000000000E+00 0. -1.
          2   -1    0    0  501    0 -0.00000000000E+00 -0.00000000000E+00 -0.11615285403E+03  0.11615285403E+03  0.00000000000E+00 0. -1.
    9000006    2    1    2  501    0  0.00000000000E+00  0.00000000000E+00  0.88384714597E+03  0.11161528540E+04  0.68162410179E+03 0.  0.
         13    1    3    3    0    0 -0.21362989855E+03  0.21584574192E+03  0.18863745345E+03  0.35750693238E+03  0.00000000000E+00 0. -1.
          2    1    3    3  501    0  0.21362989855E+03 -0.21584574192E+03  0.69520969252E+03  0.75864592165E+03  0.00000000000E+00 0. -1.
<mgrwt>
<rscale>  0 0.68162410E+03</rscale>
<asrwt>0</asrwt>
<pdfrwt beam="1">0</pdfrwt>
<pdfrwt beam="2">  1        2 0.42237491E+00 0.68162410E+03</pdfrwt>
<totfact> 0.32679250E+00</totfact>
</mgrwt>
</event>
<event>
 5    1  0.2368916E-004  0.6550375E+03  0.7818608E-02  0.9797372E-01
         13   -1    0    0    0    0  0.00000000000E+00  0.00000000000E+00  0.10000000000E+04  0.10000000000E+04  0.00000000000E+00 0. -1.
          2   -1    0    0  501    0 -0.00000000000E+00 -0.00000000000E+00 -0.10726854230E+03  0.10726854230E+03  0.00000000000E+00 0. -1.
    9000006    2    1    2  501    0  0.00000000000E+00  0.00000000000E+00  0.89273145770E+03  0.11072685423E+04  0.65503753266E+03 0.  0.
         13    1    3    3    0    0  0.17794251335E+02 -0.31843115473E+03  0.32039477341E+03  0.45207062115E+03  0.00000000000E+00 0. -1.
          2    1    3    3  501    0 -0.17794251335E+02  0.31843115473E+03  0.57233668429E+03  0.65519792114E+03  0.00000000000E+00 0. -1.
<mgrwt>
<rscale>  0 0.65503753E+03</rscale>
<asrwt>0</asrwt>
<pdfrwt beam="1">0</pdfrwt>
<pdfrwt beam="2">  1        2 0.39006825E+00 0.65503753E+03</pdfrwt>
<totfact> 0.43363042E+00</totfact>
</mgrwt>
</event>
<event>
 5    1  0.2368916E-004  0.6456484E+03  0.7818608E-02  0.9814979E-01
         13   -1    0    0    0    0  0.00000000000E+00  0.00000000000E+00  0.10000000000E+04  0.10000000000E+04  0.00000000000E+00 0. -1.
          2   -1    0    0  501    0 -0.00000000000E+00 -0.00000000000E+00 -0.10421545786E+03  0.10421545786E+03  0.00000000000E+00 0. -1.
    9000006    2    1    2  501    0  0.00000000000E+00  0.00000000000E+00  0.89578454214E+03  0.11042154579E+04  0.64564838067E+03 0.  0.
         13    1    3    3    0    0  0.14300819352E+03  0.20647620820E+03  0.10103880970E+03  0.27072607749E+03  0.00000000000E+00 0. -1.
          4    1    3    3  501    0 -0.14300819352E+03 -0.20647620820E+03  0.79474573244E+03  0.83348938037E+03  0.00000000000E+00 0. -1.
<mgrwt>
<rscale>  0 0.64564838E+03</rscale>
<asrwt>0</asrwt>
<pdfrwt beam="1">0</pdfrwt>
<pdfrwt beam="2">  1        2 0.37896610E+00 0.64564838E+03</pdfrwt>
<totfact> 0.47703272E+00</totfact>
</mgrwt>
</event>
<event>
 5    1  0.2368916E-004  0.6707048E+03  0.7818608E-02  0.9768685E-01
         13   -1    0    0    0    0  0.00000000000E+00  0.00000000000E+00  0.10000000000E+04  0.10000000000E+04  0.00000000000E+00 0. -1.
          2   -1    0    0  501    0 -0.00000000000E+00 -0.00000000000E+00 -0.11246123568E+03  0.11246123568E+03  0.00000000000E+00 0. -1.
    9000006    2    1    2  501    0  0.00000000000E+00  0.00000000000E+00  0.88753876432E+03  0.11124612357E+04  0.67070481042E+03 0.  0.
         13    1    3    3    0    0  0.29312064513E+03 -0.16266437198E+03  0.42876573236E+03  0.54426047418E+03  0.00000000000E+00 0. -1.
          4    1    3    3  501    0 -0.29312064513E+03  0.16266437198E+03  0.45877303196E+03  0.56820076150E+03  0.00000000000E+00 0. -1.
<mgrwt>
<rscale>  0 0.67070481E+03</rscale>
<asrwt>0</asrwt>
<pdfrwt beam="1">0</pdfrwt>
<pdfrwt beam="2">  1        2 0.40895081E+00 0.67070481E+03</pdfrwt>
<totfact> 0.36792851E+00</totfact>
</mgrwt>
</event>
<event>
 5    1  0.2368916E-004  0.5504782E+03  0.7818608E-02  0.1001383E+00
         13   -1    0    0    0    0  0.00000000000E+00  0.00000000000E+00  0.10000000000E+04  0.10000000000E+04  0.00000000000E+00 0. -1.
          2   -1    0    0  501    0 -0.00000000000E+00 -0.00000000000E+00 -0.75756557562E+02  0.75756557562E+02  0.00000000000E+00 0. -1.
    9000006    2    1    2  501    0  0.00000000000E+00  0.00000000000E+00  0.92424344244E+03  0.10757565576E+04  0.55047818326E+03 0.  0.
         13    1    3    3    0    0  0.15996103162E+03  0.70490953969E+01  0.89962019839E+03  0.91375802198E+03  0.00000000000E+00 0. -1.
          2    1    3    3  501    0 -0.15996103162E+03 -0.70490953969E+01  0.24623244050E+02  0.16199853558E+03  0.00000000000E+00 0. -1.
<mgrwt>
<rscale>  0 0.55047818E+03</rscale>
<asrwt>0</asrwt>
<pdfrwt beam="1">0</pdfrwt>
<pdfrwt beam="2">  1        2 0.27547897E+00 0.55047818E+03</pdfrwt>
<totfact> 0.11297153E+01</totfact>
</mgrwt>
</event>
<event>
 5    1  0.2368916E-004  0.6486939E+03  0.7818608E-02  0.9809233E-01
         13   -1    0    0    0    0  0.00000000000E+00  0.00000000000E+00  0.10000000000E+04  0.10000000000E+04  0.00000000000E+00 0. -1.
          2   -1    0    0  501    0 -0.00000000000E+00 -0.00000000000E+00 -0.10520092891E+03  0.10520092891E+03  0.00000000000E+00 0. -1.
    9000006    2    1    2  501    0  0.00000000000E+00  0.00000000000E+00  0.89479907109E+03  0.11052009289E+04  0.64869385356E+03 0.  0.
         13    1    3    3    0    0 -0.26115113453E+03 -0.46350826460E+02  0.76546692256E+03  0.81011599398E+03  0.00000000000E+00 0. -1.
          2    1    3    3  501    0  0.26115113453E+03  0.46350826460E+02  0.12933214853E+03  0.29508493493E+03  0.00000000000E+00 0. -1.
<mgrwt>
<rscale>  0 0.64869385E+03</rscale>
<asrwt>0</asrwt>
<pdfrwt beam="1">0</pdfrwt>
<pdfrwt beam="2">  1        2 0.38254964E+00 0.64869385E+03</pdfrwt>
<totfact> 0.46261091E+00</totfact>
</mgrwt>
</event>
<event>
 5    1  0.2368916E-004  0.6307548E+03  0.7818608E-02  0.9843577E-01
         13   -1    0    0    0    0  0.00000000000E+00  0.00000000000E+00  0.10000000000E+04  0.10000000000E+04  0.00000000000E+00 0. -1.
          2   -1    0    0  501    0 -0.00000000000E+00 -0.00000000000E+00 -0.99462901821E+02  0.99462901821E+02  0.00000000000E+00 0. -1.
    9000006    2    1    2  501    0  0.00000000000E+00  0.00000000000E+00  0.90053709818E+03  0.10994629018E+04  0.63075479173E+03 0.  0.
         13    1    3    3    0    0 -0.14552046296E+02  0.22975117165E+03  0.82600688764E+03  0.85748745842E+03  0.00000000000E+00 0. -1.
          4    1    3    3  501    0  0.14552046296E+02 -0.22975117165E+03  0.74530210543E+02  0.24197544340E+03  0.00000000000E+00 0. -1.
<mgrwt>
<rscale>  0 0.63075479E+03</rscale>
<asrwt>0</asrwt>
<pdfrwt beam="1">0</pdfrwt>
<pdfrwt beam="2">  1        2 0.36168404E+00 0.63075479E+03</pdfrwt>
<totfact> 0.55253336E+00</totfact>
</mgrwt>
</event>
<event>
 5    1  0.2368916E-004  0.6595859E+03  0.7818608E-02  0.9788956E-01
         13   -1    0    0    0    0  0.00000000000E+00  0.00000000000E+00  0.10000000000E+04  0.10000000000E+04  0.00000000000E+00 0. -1.
          2   -1    0    0  501    0 -0.00000000000E+00 -0.00000000000E+00 -0.10876337503E+03  0.10876337503E+03  0.00000000000E+00 0. -1.
    9000006    2    1    2  501    0  0.00000000000E+00  0.00000000000E+00  0.89123662497E+03  0.11087633750E+04  0.65958585500E+03 0.  0.
         13    1    3    3    0    0  0.24052148329E+03  0.10806005541E+03  0.11264541886E+03  0.28673428447E+03  0.00000000000E+00 0. -1.
          4    1    3    3  501    0 -0.24052148329E+03 -0.10806005541E+03  0.77859120611E+03  0.82202909056E+03  0.00000000000E+00 0. -1.
<mgrwt>
<rscale>  0 0.65958586E+03</rscale>
<asrwt>0</asrwt>
<pdfrwt beam="1">0</pdfrwt>
<pdfrwt beam="2">  1        2 0.39550402E+00 0.65958586E+03</pdfrwt>
<totfact> 0.41371229E+00</totfact>
</mgrwt>
</event>
<event>
 5    1  0.2368916E-004  0.6541539E+03  0.7818608E-02  0.9799016E-01
         13   -1    0    0    0    0  0.00000000000E+00  0.00000000000E+00  0.10000000000E+04  0.10000000000E+04  0.00000000000E+00 0. -1.
          2   -1    0    0  501    0 -0.00000000000E+00 -0.00000000000E+00 -0.10697934056E+03  0.10697934056E+03  0.00000000000E+00 0. -1.
    9000006    2    1    2  501    0  0.00000000000E+00  0.00000000000E+00  0.89302065944E+03  0.11069793406E+04  0.65415392856E+03 0.  0.
         13    1    3    3    0    0  0.26591554747E+03 -0.14750786208E+03  0.24267067702E+03  0.38904846131E+03  0.00000000000E+00 0. -1.
          4    1    3    3  501    0 -0.26591554747E+03  0.14750786208E+03  0.65034998241E+03  0.71793087925E+03  0.00000000000E+00 0. -1.
<mgrwt>
<rscale>  0 0.65415393E+03</rscale>
<asrwt>0</asrwt>
<pdfrwt beam="1">0</pdfrwt>
<pdfrwt beam="2">  1        2 0.38901660E+00 0.65415393E+03</pdfrwt>
<totfact> 0.43758253E+00</totfact>
</mgrwt>
</event>
<event>
 5    1  0.2368916E-004  0.6445627E+03  0.7818608E-02  0.9817036E-01
         13   -1    0    0    0    0  0.00000000000E+00  0.00000000000E+00  0.10000000000E+04  0.10000000000E+04  0.00000000000E+00 0. -1.
          2   -1    0    0  501    0 -0.00000000000E+00 -0.00000000000E+00 -0.10386527721E+03  0.10386527721E+03  0.00000000000E+00 0. -1.
    9000006    2    1    2  501    0  0.00000000000E+00  0.00000000000E+00  0.89613472279E+03  0.11038652772E+04  0.64456272685E+03 0.  0.
         13    1    3    3    0    0  0.15042612814E+03  0.17510031552E+03  0.83321567813E+03  0.86460193546E+03  0.00000000000E+00 0. -1.
          4    1    3    3  501    0 -0.15042612814E+03 -0.17510031552E+03  0.62919044657E+02  0.23926334175E+03  0.00000000000E+00 0. -1.
<mgrwt>
<rscale>  0 0.64456273E+03</rscale>
<asrwt>0</asrwt>
<pdfrwt beam="1">0</pdfrwt>
<pdfrwt beam="2">  1        2 0.37769271E+00 0.64456273E+03</pdfrwt>
<totfact> 0.48225516E+00</totfact>
</mgrwt>
</event>
<event>
 5    1  0.2368916E-004  0.6468875E+03  0.7818608E-02  0.9812637E-01
         13   -1    0    0    0    0  0.00000000000E+00  0.00000000000E+00  0.10000000000E+04  0.10000000000E+04  0.00000000000E+00 0. -1.
          2   -1    0    0  501    0 -0.00000000000E+00 -0.00000000000E+00 -0.10461584954E+03  0.10461584954E+03  0.00000000000E+00 0. -1.
    9000006    2    1    2  501    0  0.00000000000E+00  0.00000000000E+00  0.89538415046E+03  0.11046158495E+04  0.64688746947E+03 0.  0.
         13    1    3    3    0    0 -0.28627534406E+03  0.14343459614E+03  0.36964973376E+03  0.48904803615E+03  0.00000000000E+00 0. -1.
          2    1    3    3  501    0  0.28627534406E+03 -0.14343459614E+03  0.52573441670E+03  0.61556781339E+03  0.00000000000E+00 0. -1.
<mgrwt>
<rscale>  0 0.64688747E+03</rscale>
<asrwt>0</asrwt>
<pdfrwt beam="1">0</pdfrwt>
<pdfrwt beam="2">  1        2 0.38042207E+00 0.64688747E+03</pdfrwt>
<totfact> 0.47112461E+00</totfact>
</mgrwt>
</event>
<event>
 5    1  0.2368916E-004  0.6496432E+03  0.7818608E-02  0.9807449E-01
         13   -1    0    0    0    0  0.00000000000E+00  0.00000000000E+00  0.10000000000E+04  0.10000000000E+04  0.00000000000E+00 0. -1.
          2   -1    0    0  501    0 -0.00000000000E+00 -0.00000000000E+00 -0.10550908657E+03  0.10550908657E+03  0.00000000000E+00 0. -1.
    9000006    2    1    2  501    0  0.00000000000E+00  0.00000000000E+00  0.89449091343E+03  0.11055090866E+04  0.64964324538E+03 0.  0.
         13    1    3    3    0    0  0.21226227935E+03 -0.23747906903E+03  0.55564234614E+03  0.64046077185E+03  0.00000000000E+00 0. -1.
          2    1    3    3  501    0 -0.21226227935E+03  0.23747906903E+03  0.33884856730E+03  0.46504831471E+03  0.00000000000E+00 0. -1.
<mgrwt>
<rscale>  0 0.64964325E+03</rscale>
<asrwt>0</asrwt>
<pdfrwt beam="1">0</pdfrwt>
<pdfrwt beam="2">  1        2 0.38367021E+00 0.64964325E+03</pdfrwt>
<totfact> 0.45818322E+00</totfact>
</mgrwt>
</event>
<event>
 5    1  0.2368916E-004  0.6345736E+03  0.7818608E-02  0.9836164E-01
         13   -1    0    0    0    0  0.00000000000E+00  0.00000000000E+00  0.10000000000E+04  0.10000000000E+04  0.00000000000E+00 0. -1.
          2   -1    0    0  501    0 -0.00000000000E+00 -0.00000000000E+00 -0.10067090560E+03  0.10067090560E+03  0.00000000000E+00 0. -1.
    9000006    2    1    2  501    0  0.00000000000E+00  0.00000000000E+00  0.89932909440E+03  0.11006709056E+04  0.63457357523E+03 0.  0.
         13    1    3    3    0    0  0.27405568883E+03  0.15883471140E+03  0.41787435972E+03  0.52436053116E+03  0.00000000000E+00 0. -1.
          4    1    3    3  501    0 -0.27405568883E+03 -0.15883471140E+03  0.48145473469E+03  0.57631037443E+03  0.00000000000E+00 0. -1.
<mgrwt>
<rscale>  0 0.63457358E+03</rscale>
<asrwt>0</asrwt>
<pdfrwt beam="1">0</pdfrwt>
<pdfrwt beam="2">  1        2 0.36607679E+00 0.63457358E+03</pdfrwt>
<totfact> 0.53236830E+00</totfact>
</mgrwt>
</event>
<event>
 5    1  0.2368916E-004  0.6526650E+03  0.7818608E-02  0.9801791E-01
         13   -1    0    0    0    0  0.00000000000E+00  0.00000000000E+00  0.10000000000E+04  0.10000000000E+04  0.00000000000E+00 0. -1.
          2   -1    0    0  501    0 -0.00000000000E+00 -0.00000000000E+00 -0.10649289832E+03  0.10649289832E+03  0.00000000000E+00 0. -1.
    9000006    2    1    2  501    0  0.00000000000E+00  0.00000000000E+00  0.89350710168E+03  0.11064928983E+04  0.65266499314E+03 0.  0.
         13    1    3    3    0    0 -0.82077480478E+02  0.31534121717E+03  0.41661154723E+03  0.52890639752E+03  0.00000000000E+00 0. -1.
          4    1    3    3  501    0  0.82077480478E+02 -0.31534121717E+03  0.47689555445E+03  0.57758650080E+03  0.00000000000E+00 0. -1.
<mgrwt>
<rscale>  0 0.65266499E+03</rscale>
<asrwt>0</asrwt>
<pdfrwt beam="1">0</pdfrwt>
<pdfrwt beam="2">  1        2 0.38724772E+00 0.65266499E+03</pdfrwt>
<totfact> 0.44430357E+00</totfact>
</mgrwt>
</event>
<event>
 5    1  0.2368916E-004  0.6481351E+03  0.7818608E-02  0.9810285E-01
         13   -1    0    0    0    0  0.00000000000E+00  0.00000000000E+00  0.10000000000E+04  0.10000000000E+04  0.00000000000E+00 0. -1.
          2   -1    0    0  501    0 -0.00000000000E+00 -0.00000000000E+00 -0.10501978225E+03  0.10501978225E+03  0.00000000000E+00 0. -1.
    9000006    2    1    2  501    0  0.00000000000E+00  0.00000000000E+00  0.89498021775E+03  0.11050197823E+04  0.64813511632E+03 0.  0.
         13    1    3    3    0    0 -0.19260359692E+03  0.24674109051E+03  0.59056618891E+03  0.66839040596E+03  0.00000000000E+00 0. -1.
          2    1    3    3  501    0  0.19260359692E+03 -0.24674109051E+03  0.30441402884E+03  0.43662937630E+03  0.00000000000E+00 0. -1.
<mgrwt>
<rscale>  0 0.64813512E+03</rscale>
<asrwt>0</asrwt>
<pdfrwt beam="1">0</pdfrwt>
<pdfrwt beam="2">  1        2 0.38189092E+00 0.64813512E+03</pdfrwt>
<totfact> 0.46523177E+00</totfact>
</mgrwt>
</event>
<event>
 5    1  0.2368916E-004  0.6545722E+03  0.7818608E-02  0.9798237E-01
         13   -1    0    0    0    0  0.00000000000E+00  0.00000000000E+00  0.10000000000E+04  0.10000000000E+04  0.00000000000E+00 0. -1.
          2   -1    0    0  501    0 -0.00000000000E+00 -0.00000000000E+00 -0.10711618781E+03  0.10711618781E+03  0.00000000000E+00 0. -1.
    9000006    2    1    2  501    0  0.00000000000E+00  0.00000000000E+00  0.89288381219E+03  0.11071161878E+04  0.65457218947E+03 0.  0.
         13    1    3    3    0    0 -0.22016969226E+03 -0.13921115252E+03  0.78157743760E+03  0.82384326746E+03  0.00000000000E+00 0. -1.
          2    1    3    3  501    0  0.22016969226E+03  0.13921115252E+03  0.11130637459E+03  0.28327292034E+03  0.00000000000E+00 0. -1.
<mgrwt>
<rscale>  0 0.65457219E+03</rscale>
<asrwt>0</asrwt>
<pdfrwt beam="1">0</pdfrwt>
<pdfrwt beam="2">  1        2 0.38951423E+00 0.65457219E+03</pdfrwt>
<totfact> 0.43570839E+00</totfact>
</mgrwt>
</event>
<event>
 5    1  0.2368916E-004  0.6470322E+03  0.7818608E-02  0.9812364E-01
         13   -1    0    0    0    0  0.00000000000E+00  0.00000000000E+00  0.10000000000E+04  0.10000000000E+04  0.00000000000E+00 0. -1.
          2   -1    0    0  501    0 -0.00000000000E+00 -0.00000000000E+00 -0.10466268295E+03  0.10466268295E+03  0.00000000000E+00 0. -1.
    9000006    2    1    2  501    0  0.00000000000E+00  0.00000000000E+00  0.89533731705E+03  0.11046626830E+04  0.64703224944E+03 0.  0.
         13    1    3    3    0    0  0.48639038407E+02 -0.29800066789E+03  0.24935600154E+03  0.39159745866E+03  0.00000000000E+00 0. -1.
          4    1    3    3  501    0 -0.48639038407E+02  0.29800066789E+03  0.64598131550E+03  0.71306522430E+03  0.00000000000E+00 0. -1.
<mgrwt>
<rscale>  0 0.64703225E+03</rscale>
<asrwt>0</asrwt>
<pdfrwt beam="1">0</pdfrwt>
<pdfrwt beam="2">  1        2 0.38059238E+00 0.64703225E+03</pdfrwt>
<totfact> 0.47043791E+00</totfact>
</mgrwt>
</event>
<event>
 5    1  0.2368916E-004  0.6566916E+03  0.7818608E-02  0.9794303E-01
         13   -1    0    0    0    0  0.00000000000E+00  0.00000000000E+00  0.10000000000E+04  0.10000000000E+04  0.00000000000E+00 0. -1.
          2   -1    0    0  501    0 -0.00000000000E+00 -0.00000000000E+00 -0.10781097830E+03  0.10781097830E+03  0.00000000000E+00 0. -1.
    9000006    2    1    2  501    0  0.00000000000E+00  0.00000000000E+00  0.89218902170E+03  0.11078109783E+04  0.65669164239E+03 0.  0.
         13    1    3    3    0    0  0.18575188397E+03 -0.11935989665E+03  0.36124129976E+02  0.22373086531E+03  0.00000000000E+00 0. -1.
          2    1    3    3  501    0 -0.18575188397E+03  0.11935989665E+03  0.85606489173E+03  0.88408011298E+03  0.00000000000E+00 0. -1.
<mgrwt>
<rscale>  0 0.65669164E+03</rscale>
<asrwt>0</asrwt>
<pdfrwt beam="1">0</pdfrwt>
<pdfrwt beam="2">  1        2 0.39204075E+00 0.65669164E+03</pdfrwt>
<totfact> 0.42630460E+00</totfact>
</mgrwt>
</event>
<event>
 5    1  0.2368916E-004  0.6565815E+03  0.7818608E-02  0.9794507E-01
         13   -1    0    0    0    0  0.00000000000E+00  0.00000000000E+00  0.10000000000E+04  0.10000000000E+04  0.00000000000E+00 0. -1.
          2   -1    0    0  501    0 -0.00000000000E+00 -0.00000000000E+00 -0.10777483039E+03  0.10777483039E+03  0.00000000000E+00 0. -1.
    9000006    2    1    2  501    0  0.00000000000E+00  0.00000000000E+00  0.89222516961E+03  0.11077748304E+04  0.65658154221E+03 0.  0.
         13    1    3    3    0    0 -0.94970750635E+02  0.19288754407E+03  0.86469028175E+03  0.89101870434E+03  0.00000000000E+00 0. -1.
          2    1    3    3  501    0  0.94970750635E+02 -0.19288754407E+03  0.27534887861E+02  0.21675612606E+03  0.00000000000E+00 0. -1.
<mgrwt>
<rscale>  0 0.65658154E+03</rscale>
<asrwt>0</asrwt>
<pdfrwt beam="1">0</pdfrwt>
<pdfrwt beam="2">  1        2 0.39190930E+00 0.65658154E+03</pdfrwt>
<totfact> 0.42678930E+00</totfact>
</mgrwt>
</event>
<event>
 5    1  0.2368916E-004  0.6487426E+03  0.7818608E-02  0.9809142E-01
         13   -1    0    0    0    0  0.00000000000E+00  0.00000000000E+00  0.10000000000E+04  0.10000000000E+04  0.00000000000E+00 0. -1.
          2   -1    0    0  501    0 -0.00000000000E+00 -0.00000000000E+00 -0.10521673349E+03  0.10521673349E+03  0.00000000000E+00 0. -1.
    9000006    2    1    2  501    0  0.00000000000E+00  0.00000000000E+00  0.89478326651E+03  0.11052167335E+04  0.64874257911E+03 0.  0.
         13    1    3    3    0    0  0.31079839059E+03 -0.86520158146E+02  0.38998777245E+03  0.50613421147E+03  0.00000000000E+00 0. -1.
          2    1    3    3  501    0 -0.31079839059E+03  0.86520158146E+02  0.50479549406E+03  0.59908252202E+03  0.00000000000E+00 0. -1.
<mgrwt>
<rscale>  0 0.64874258E+03</rscale>
<asrwt>0</asrwt>
<pdfrwt beam="1">0</pdfrwt>
<pdfrwt beam="2">  1        2 0.38260711E+00 0.64874258E+03</pdfrwt>
<totfact> 0.46238288E+00</totfact>
</mgrwt>
</event>
<event>
 5    1  0.2368916E-004  0.6480383E+03  0.7818608E-02  0.9810467E-01
         13   -1    0    0    0    0  0.00000000000E+00  0.00000000000E+00  0.10000000000E+04  0.10000000000E+04  0.00000000000E+00 0. -1.
          2   -1    0    0  501    0 -0.00000000000E+00 -0.00000000000E+00 -0.10498841308E+03  0.10498841308E+03  0.00000000000E+00 0. -1.
    9000006    2    1    2  501    0  0.00000000000E+00  0.00000000000E+00  0.89501158692E+03  0.11049884131E+04  0.64803831086E+03 0.  0.
         13    1    3    3    0    0  0.16241796392E+03 -0.28703713933E+02 -0.28053565664E+02  0.16730361844E+03  0.00000000000E+00 0. -1.
          2    1    3    3  501    0 -0.16241796392E+03  0.28703713933E+02  0.92306515258E+03  0.93768479464E+03  0.00000000000E+00 0. -1.
<mgrwt>
<rscale>  0 0.64803831E+03</rscale>
<asrwt>0</asrwt>
<pdfrwt beam="1">0</pdfrwt>
<pdfrwt beam="2">  1        2 0.38177685E+00 0.64803831E+03</pdfrwt>
<totfact> 0.46568699E+00</totfact>
</mgrwt>
</event>
<event>
 5    1  0.2368916E-004  0.6767901E+03  0.7818608E-02  0.9757769E-01
         13   -1    0    0    0    0  0.00000000000E+00  0.00000000000E+00  0.10000000000E+04  0.10000000000E+04  0.00000000000E+00 0. -1.
          2   -1    0    0  501    0 -0.00000000000E+00 -0.00000000000E+00 -0.11451119733E+03  0.11451119733E+03  0.00000000000E+00 0. -1.
    9000006    2    1    2  501    0  0.00000000000E+00  0.00000000000E+00  0.88548880267E+03  0.11145111973E+04  0.67679006297E+03 0.  0.
         13    1    3    3    0    0  0.11777442282E+03 -0.15437275280E+03  0.89913611459E+03  0.91986276913E+03  0.00000000000E+00 0. -1.
          4    1    3    3  501    0 -0.11777442282E+03  0.15437275280E+03 -0.13647311920E+02  0.19464842820E+03  0.00000000000E+00 0. -1.
<mgrwt>
<rscale>  0 0.67679006E+03</rscale>
<asrwt>0</asrwt>
<pdfrwt beam="1">0</pdfrwt>
<pdfrwt beam="2">  1        2 0.41640523E+00 0.67679006E+03</pdfrwt>
<totfact> 0.34455073E+00</totfact>
</mgrwt>
</event>
<event>
 5    1  0.2368916E-004  0.6436056E+03  0.7818608E-02  0.9818852E-01
         13   -1    0    0    0    0  0.00000000000E+00  0.00000000000E+00  0.10000000000E+04  0.10000000000E+04  0.00000000000E+00 0. -1.
          2   -1    0    0  501    0 -0.00000000000E+00 -0.00000000000E+00 -0.10355704300E+03  0.10355704300E+03  0.00000000000E+00 0. -1.
    9000006    2    1    2  501    0  0.00000000000E+00  0.00000000000E+00  0.89644295700E+03  0.11035570430E+04  0.64360560284E+03 0.  0.
         13    1    3    3    0    0 -0.29793716455E+03 -0.10458760327E+03  0.34180381350E+03  0.46533317924E+03  0.00000000000E+00 0. -1.
          2    1    3    3  501    0  0.29793716455E+03  0.10458760327E+03  0.55463914350E+03  0.63822386376E+03  0.00000000000E+00 0. -1.
<mgrwt>
<rscale>  0 0.64360560E+03</rscale>
<asrwt>0</asrwt>
<pdfrwt beam="1">0</pdfrwt>
<pdfrwt beam="2">  1        2 0.37657186E+00 0.64360560E+03</pdfrwt>
<totfact> 0.48689511E+00</totfact>
</mgrwt>
</event>
<event>
 5    1  0.2368916E-004  0.6462023E+03  0.7818608E-02  0.9813931E-01
         13   -1    0    0    0    0  0.00000000000E+00  0.00000000000E+00  0.10000000000E+04  0.10000000000E+04  0.00000000000E+00 0. -1.
          2   -1    0    0  501    0 -0.00000000000E+00 -0.00000000000E+00 -0.10439436747E+03  0.10439436747E+03  0.00000000000E+00 0. -1.
    9000006    2    1    2  501    0  0.00000000000E+00  0.00000000000E+00  0.89560563253E+03  0.11043943675E+04  0.64620234439E+03 0.  0.
         13    1    3    3    0    0 -0.25014561939E+03  0.20300575167E+03  0.40558534261E+03  0.51796103738E+03  0.00000000000E+00 0. -1.
          4    1    3    3  501    0  0.25014561939E+03 -0.20300575167E+03  0.49002028992E+03  0.58643333009E+03  0.00000000000E+00 0. -1.
<mgrwt>
<rscale>  0 0.64620234E+03</rscale>
<asrwt>0</asrwt>
<pdfrwt beam="1">0</pdfrwt>
<pdfrwt beam="2">  1        2 0.37961668E+00 0.64620234E+03</pdfrwt>
<totfact> 0.47438448E+00</totfact>
</mgrwt>
</event>
<event>
 5    1  0.2368916E-004  0.6315835E+03  0.7818608E-02  0.9841964E-01
         13   -1    0    0    0    0  0.00000000000E+00  0.00000000000E+00  0.10000000000E+04  0.10000000000E+04  0.00000000000E+00 0. -1.
          2   -1    0    0  501    0 -0.00000000000E+00 -0.00000000000E+00 -0.99724416079E+02  0.99724416079E+02  0.00000000000E+00 0. -1.
    9000006    2    1    2  501    0  0.00000000000E+00  0.00000000000E+00  0.90027558392E+03  0.10997244161E+04  0.63158345792E+03 0.  0.
         13    1    3    3    0    0 -0.11171483009E+03  0.27878341386E+03  0.28021043898E+03  0.41075331431E+03  0.00000000000E+00 0. -1.
          4    1    3    3  501    0  0.11171483009E+03 -0.27878341386E+03  0.62006514494E+03  0.68897110177E+03  0.00000000000E+00 0. -1.
<mgrwt>
<rscale>  0 0.63158346E+03</rscale>
<asrwt>0</asrwt>
<pdfrwt beam="1">0</pdfrwt>
<pdfrwt beam="2">  1        2 0.36263500E+00 0.63158346E+03</pdfrwt>
<totfact> 0.54810919E+00</totfact>
</mgrwt>
</event>
<event>
 5    1  0.2368916E-004  0.6458583E+03  0.7818608E-02  0.9814582E-01
         13   -1    0    0    0    0  0.00000000000E+00  0.00000000000E+00  0.10000000000E+04  0.10000000000E+04  0.00000000000E+00 0. -1.
          2   -1    0    0  501    0 -0.00000000000E+00 -0.00000000000E+00 -0.10428325059E+03  0.10428325059E+03  0.00000000000E+00 0. -1.
    9000006    2    1    2  501    0  0.00000000000E+00  0.00000000000E+00  0.89571674941E+03  0.11042832506E+04  0.64585834542E+03 0.  0.
         13    1    3    3    0    0  0.22662623915E+02 -0.18043570012E+03  0.90412812164E+03  0.92223548877E+03  0.00000000000E+00 0. -1.
          2    1    3    3  501    0 -0.22662623915E+02  0.18043570012E+03 -0.84113722303E+01  0.18204776182E+03  0.00000000000E+00 0. -1.
<mgrwt>
<rscale>  0 0.64585835E+03</rscale>
<asrwt>0</asrwt>
<pdfrwt beam="1">0</pdfrwt>
<pdfrwt beam="2">  1        2 0.37921262E+00 0.64585835E+03</pdfrwt>
<totfact> 0.47602767E+00</totfact>
</mgrwt>
</event>
<event>
 5    1  0.2368916E-004  0.6497354E+03  0.7818608E-02  0.9807276E-01
         13   -1    0    0    0    0  0.00000000000E+00  0.00000000000E+00  0.10000000000E+04  0.10000000000E+04  0.00000000000E+00 0. -1.
          2   -1    0    0  501    0 -0.00000000000E+00 -0.00000000000E+00 -0.10553903371E+03  0.10553903371E+03  0.00000000000E+00 0. -1.
    9000006    2    1    2  501    0  0.00000000000E+00  0.00000000000E+00  0.89446096629E+03  0.11055390337E+04  0.64973543449E+03 0.  0.
         13    1    3    3    0    0  0.16062996486E+03 -0.20811826753E+03  0.77196642750E+03  0.81550436177E+03  0.00000000000E+00 0. -1.
          2    1    3    3  501    0 -0.16062996486E+03  0.20811826753E+03  0.12249453879E+03  0.29003467193E+03  0.00000000000E+00 0. -1.
<mgrwt>
<rscale>  0 0.64973543E+03</rscale>
<asrwt>0</asrwt>
<pdfrwt beam="1">0</pdfrwt>
<pdfrwt beam="2">  1        2 0.38377911E+00 0.64973543E+03</pdfrwt>
<totfact> 0.45775499E+00</totfact>
</mgrwt>
</event>
<event>
 5    1  0.2368916E-004  0.6382503E+03  0.7818608E-02  0.9829080E-01
         13   -1    0    0    0    0  0.00000000000E+00  0.00000000000E+00  0.10000000000E+04  0.10000000000E+04  0.00000000000E+00 0. -1.
          2   -1    0    0  501    0 -0.00000000000E+00 -0.00000000000E+00 -0.10184086248E+03  0.10184086248E+03  0.00000000000E+00 0. -1.
    9000006    2    1    2  501    0  0.00000000000E+00  0.00000000000E+00  0.89815913752E+03  0.11018408625E+04  0.63825030350E+03 0.  0.
         13    1    3    3    0    0  0.18923013144E+03  0.69469985268E+02  0.87617750438E+03  0.89906681658E+03  0.00000000000E+00 0. -1.
          4    1    3    3  501    0 -0.18923013144E+03 -0.69469985268E+02  0.21981633143E+02  0.20277404590E+03  0.00000000000E+00 0. -1.
<mgrwt>
<rscale>  0 0.63825030E+03</rscale>
<asrwt>0</asrwt>
<pdfrwt beam="1">0</pdfrwt>
<pdfrwt beam="2">  1        2 0.37033119E+00 0.63825030E+03</pdfrwt>
<totfact> 0.51348541E+00</totfact>
</mgrwt>
</event>
<event>
 5    1  0.2368916E-004  0.6399842E+03  0.7818608E-02  0.9825757E-01
         13   -1    0    0    0    0  0.00000000000E+00  0.00000000000E+00  0.10000000000E+04  0.10000000000E+04  0.00000000000E+00 0. -1.
          2   -1    0    0  501    0 -0.00000000000E+00 -0.00000000000E+00 -0.10239493955E+03  0.10239493955E+03  0.00000000000E+00 0. -1.
    9000006    2    1    2  501    0  0.00000000000E+00  0.00000000000E+00  0.89760506045E+03  0.11023949396E+04  0.63998418590E+03 0.  0.
         13    1    3    3    0    0 -0.38335455675E+02 -0.22219208209E+03  0.83992036712E+03  0.86965806591E+03  0.00000000000E+00 0. -1.
          2    1    3    3  501    0  0.38335455675E+02  0.22219208209E+03  0.57684693329E+02  0.23273687364E+03  0.00000000000E+00 0. -1.
<mgrwt>
<rscale>  0 0.63998419E+03</rscale>
<asrwt>0</asrwt>
<pdfrwt beam="1">0</pdfrwt>
<pdfrwt beam="2">  1        2 0.37234602E+00 0.63998419E+03</pdfrwt>
<totfact> 0.50475875E+00</totfact>
</mgrwt>
</event>
<event>
 5    1  0.2368916E-004  0.6454179E+03  0.7818608E-02  0.9815415E-01
         13   -1    0    0    0    0  0.00000000000E+00  0.00000000000E+00  0.10000000000E+04  0.10000000000E+04  0.00000000000E+00 0. -1.
          2   -1    0    0  501    0 -0.00000000000E+00 -0.00000000000E+00 -0.10414107297E+03  0.10414107297E+03  0.00000000000E+00 0. -1.
    9000006    2    1    2  501    0  0.00000000000E+00  0.00000000000E+00  0.89585892703E+03  0.11041410730E+04  0.64541792033E+03 0.  0.
         13    1    3    3    0    0  0.17117534997E+03  0.25405915491E+03  0.27435892351E+03  0.41124186745E+03  0.00000000000E+00 0. -1.
          2    1    3    3  501    0 -0.17117534997E+03 -0.25405915491E+03  0.62150000352E+03  0.69289920552E+03  0.00000000000E+00 0. -1.
<mgrwt>
<rscale>  0 0.64541792E+03</rscale>
<asrwt>0</asrwt>
<pdfrwt beam="1">0</pdfrwt>
<pdfrwt beam="2">  1        2 0.37869561E+00 0.64541792E+03</pdfrwt>
<totfact> 0.47813774E+00</totfact>
</mgrwt>
</event>
<event>
 5    1  0.2368916E-004  0.6578363E+03  0.7818608E-02  0.9792185E-01
         13   -1    0    0    0    0  0.00000000000E+00  0.00000000000E+00  0.10000000000E+04  0.10000000000E+04  0.00000000000E+00 0. -1.
          2   -1    0    0  501    0 -0.00000000000E+00 -0.00000000000E+00 -0.10818715148E+03  0.10818715148E+03  0.00000000000E+00 0. -1.
    9000006    2    1    2  501    0  0.00000000000E+00  0.00000000000E+00  0.89181284852E+03  0.11081871515E+04  0.65783630631E+03 0.  0.
         13    1    3    3    0    0 -0.13186414390E+03 -0.29457281858E+03  0.55279326970E+03  0.64011069114E+03  0.00000000000E+00 0. -1.
          2    1    3    3  501    0  0.13186414390E+03  0.29457281858E+03  0.33901957883E+03  0.46807646034E+03  0.00000000000E+00 0. -1.
<mgrwt>
<rscale>  0 0.65783631E+03</rscale>
<asrwt>0</asrwt>
<pdfrwt beam="1">0</pdfrwt>
<pdfrwt beam="2">  1        2 0.39340865E+00 0.65783631E+03</pdfrwt>
<totfact> 0.42129003E+00</totfact>
</mgrwt>
</event>
<event>
 5    1  0.2368916E-004  0.6301845E+03  0.7818608E-02  0.9844689E-01
         13   -1    0    0    0    0  0.00000000000E+00  0.00000000000E+00  0.10000000000E+04  0.10000000000E+04  0.00000000000E+00 0. -1.
          2   -1    0    0  501    0 -0.00000000000E+00 -0.00000000000E+00 -0.99283124296E+02  0.99283124296E+02  0.00000000000E+00 0. -1.
    9000006    2    1    2  501    0  0.00000000000E+00  0.00000000000E+00  0.90071687570E+03  0.10992831243E+04  0.63018449456E+03 0.  0.
         13    1    3    3    0    0 -0.20990402956E+03  0.10602828383E+03  0.84530811429E+02  0.24989429101E+03  0.00000000000E+00 0. -1.
          4    1    3    3  501    0  0.20990402956E+03 -0.10602828383E+03  0.81618606427E+03  0.84938883329E+03  0.00000000000E+00 0. -1.
<mgrwt>
<rscale>  0 0.63018449E+03</rscale>
<asrwt>0</asrwt>
<pdfrwt beam="1">0</pdfrwt>
<pdfrwt beam="2">  1        2 0.36103030E+00 0.63018449E+03</pdfrwt>
<totfact> 0.55559382E+00</totfact>
</mgrwt>
</event>
<event>
 5    1  0.2368916E-004  0.6419275E+03  0.7818608E-02  0.9822046E-01
         13   -1    0    0    0    0  0.00000000000E+00  0.00000000000E+00  0.10000000000E+04  0.10000000000E+04  0.00000000000E+00 0. -1.
          2   -1    0    0  501    0 -0.00000000000E+00 -0.00000000000E+00 -0.10301771945E+03  0.10301771945E+03  0.00000000000E+00 0. -1.
    9000006    2    1    2  501    0  0.00000000000E+00  0.00000000000E+00  0.89698228055E+03  0.11030177194E+04  0.64192747081E+03 0.  0.
         13    1    3    3    0    0 -0.24354466357E+03  0.19923154968E+03  0.55730797978E+03  0.63999952958E+03  0.00000000000E+00 0. -1.
          4    1    3    3  501    0  0.24354466357E+03 -0.19923154968E+03  0.33967430077E+03  0.46301818987E+03  0.00000000000E+00 0. -1.
<mgrwt>
<rscale>  0 0.64192747E+03</rscale>
<asrwt>0</asrwt>
<pdfrwt beam="1">0</pdfrwt>
<pdfrwt beam="2">  1        2 0.37461068E+00 0.64192747E+03</pdfrwt>
<totfact> 0.49511217E+00</totfact>
</mgrwt>
</event>
<event>
 5    1  0.2368916E-004  0.6419061E+03  0.7818608E-02  0.9822086E-01
         13   -1    0    0    0    0  0.00000000000E+00  0.00000000000E+00  0.10000000000E+04  0.10000000000E+04  0.00000000000E+00 0. -1.
          2   -1    0    0  501    0 -0.00000000000E+00 -0.00000000000E+00 -0.10301086468E+03  0.10301086468E+03  0.00000000000E+00 0. -1.
    9000006    2    1    2  501    0  0.00000000000E+00  0.00000000000E+00  0.89698913532E+03  0.11030108647E+04  0.64190611362E+03 0.  0.
         13    1    3    3    0    0  0.23286767215E+03  0.19468485323E+03  0.62774040006E+03  0.69727150714E+03  0.00000000000E+00 0. -1.
          2    1    3    3  501    0 -0.23286767215E+03 -0.19468485323E+03  0.26924873526E+03  0.40573935753E+03  0.00000000000E+00 0. -1.
<mgrwt>
<rscale>  0 0.64190611E+03</rscale>
<asrwt>0</asrwt>
<pdfrwt beam="1">0</pdfrwt>
<pdfrwt beam="2">  1        2 0.37458575E+00 0.64190611E+03</pdfrwt>
<totfact> 0.49521742E+00</totfact>
</mgrwt>
</event>
<event>
 5    1  0.2368916E-004  0.6568752E+03  0.7818608E-02  0.9793963E-01
         13   -1    0    0    0    0  0.00000000000E+00  0.00000000000E+00  0.10000000000E+04  0.10000000000E+04  0.00000000000E+00 0. -1.
          2   -1    0    0  501    0 -0.00000000000E+00 -0.00000000000E+00 -0.10787125783E+03  0.10787125783E+03  0.00000000000E+00 0. -1.
    9000006    2    1    2  501    0  0.00000000000E+00  0.00000000000E+00  0.89212874217E+03  0.11078712578E+04  0.65687520223E+03 0.  0.
         13    1    3    3    0    0  0.19343971142E+03 -0.15205500189E+03  0.81299340496E+03  0.84941033786E+03  0.00000000000E+00 0. -1.
          2    1    3    3  501    0 -0.19343971142E+03  0.15205500189E+03  0.79135337211E+02  0.25846091996E+03  0.00000000000E+00 0. -1.
<mgrwt>
<rscale>  0 0.65687520E+03</rscale>
<asrwt>0</asrwt>
<pdfrwt beam="1">0</pdfrwt>
<pdfrwt beam="2">  1        2 0.39225995E+00 0.65687520E+03</pdfrwt>
<totfact> 0.42549744E+00</totfact>
</mgrwt>
</event>
<event>
 5    1  0.2368916E-004  0.6698152E+03  0.7818608E-02  0.9770292E-01
         13   -1    0    0    0    0  0.00000000000E+00  0.00000000000E+00  0.10000000000E+04  0.10000000000E+04  0.00000000000E+00 0. -1.
          2   -1    0    0  501    0 -0.00000000000E+00 -0.00000000000E+00 -0.11216310877E+03  0.11216310877E+03  0.00000000000E+00 0. -1.
    9000006    2    1    2  501    0  0.00000000000E+00  0.00000000000E+00  0.88783689123E+03  0.11121631088E+04  0.66981522458E+03 0.  0.
         13    1    3    3    0    0  0.15402333330E+03 -0.28163812419E+03  0.28535311531E+03  0.42949926730E+03  0.00000000000E+00 0. -1.
          4    1    3    3  501    0 -0.15402333330E+03  0.28163812419E+03  0.60248377592E+03  0.68266384147E+03  0.00000000000E+00 0. -1.
<mgrwt>
<rscale>  0 0.66981522E+03</rscale>
<asrwt>0</asrwt>
<pdfrwt beam="1">0</pdfrwt>
<pdfrwt beam="2">  1        2 0.40786671E+00 0.66981522E+03</pdfrwt>
<totfact> 0.37144378E+00</totfact>
</mgrwt>
</event>
<event>
 5    1  0.2368916E-004  0.6569286E+03  0.7818608E-02  0.9793864E-01
         13   -1    0    0    0    0  0.00000000000E+00  0.00000000000E+00  0.10000000000E+04  0.10000000000E+04  0.00000000000E+00 0. -1.
          2   -1    0    0  501    0 -0.00000000000E+00 -0.00000000000E+00 -0.10788880351E+03  0.10788880351E+03  0.00000000000E+00 0. -1.
    9000006    2    1    2  501    0  0.00000000000E+00  0.00000000000E+00  0.89211119649E+03  0.11078888035E+04  0.65692862173E+03 0.  0.
         13    1    3    3    0    0 -0.19506753456E+03 -0.25074436867E+03  0.58679959638E+03  0.66727644030E+03  0.00000000000E+00 0. -1.
          4    1    3    3  501    0  0.19506753456E+03  0.25074436867E+03  0.30531160010E+03  0.44061236321E+03  0.00000000000E+00 0. -1.
<mgrwt>
<rscale>  0 0.65692862E+03</rscale>
<asrwt>0</asrwt>
<pdfrwt beam="1">0</pdfrwt>
<pdfrwt beam="2">  1        2 0.39232375E+00 0.65692862E+03</pdfrwt>
<totfact> 0.42526276E+00</totfact>
</mgrwt>
</event>
<event>
 5    1  0.2368916E-004  0.7255102E+03  0.7818608E-02  0.9674574E-01
         13   -1    0    0    0    0  0.00000000000E+00  0.00000000000E+00  0.10000000000E+04  0.10000000000E+04  0.00000000000E+00 0. -1.
          2   -1    0    0  501    0 -0.00000000000E+00 -0.00000000000E+00 -0.13159126504E+03  0.13159126504E+03  0.00000000000E+00 0. -1.
    9000006    2    1    2  501    0  0.00000000000E+00  0.00000000000E+00  0.86840873496E+03  0.11315912650E+04  0.72551020680E+03 0.  0.
         13    1    3    3    0    0  0.11868530675E+02 -0.26683705911E+03  0.81704565800E+03  0.85959669926E+03  0.00000000000E+00 0. -1.
          4    1    3    3  501    0 -0.11868530675E+02  0.26683705911E+03  0.51363076963E+02  0.27199456578E+03  0.00000000000E+00 0. -1.
<mgrwt>
<rscale>  0 0.72551021E+03</rscale>
<asrwt>0</asrwt>
<pdfrwt beam="1">0</pdfrwt>
<pdfrwt beam="2">  1        2 0.47851470E+00 0.72551021E+03</pdfrwt>
<totfact> 0.19526599E+00</totfact>
</mgrwt>
</event>
<event>
 5    1  0.2368916E-004  0.6554335E+03  0.7818608E-02  0.9796637E-01
         13   -1    0    0    0    0  0.00000000000E+00  0.00000000000E+00  0.10000000000E+04  0.10000000000E+04  0.00000000000E+00 0. -1.
          2   -1    0    0  501    0 -0.00000000000E+00 -0.00000000000E+00 -0.10739825655E+03  0.10739825655E+03  0.00000000000E+00 0. -1.
    9000006    2    1    2  501    0  0.00000000000E+00  0.00000000000E+00  0.89260174345E+03  0.11073982565E+04  0.65543346436E+03 0.  0.
         13    1    3    3    0    0 -0.11369309553E+03  0.23199750479E+03  0.78694564491E+03  0.82827073487E+03  0.00000000000E+00 0. -1.
          2    1    3    3  501    0  0.11369309553E+03 -0.23199750479E+03  0.10565609855E+03  0.27912752168E+03  0.00000000000E+00 0. -1.
<mgrwt>
<rscale>  0 0.65543346E+03</rscale>
<asrwt>0</asrwt>
<pdfrwt beam="1">0</pdfrwt>
<pdfrwt beam="2">  1        2 0.39053994E+00 0.65543346E+03</pdfrwt>
<totfact> 0.43186831E+00</totfact>
</mgrwt>
</event>
<event>
 5    1  0.2368916E-004  0.6477069E+03  0.7818608E-02  0.9811092E-01
         13   -1    0    0    0    0  0.00000000000E+00  0.00000000000E+00  0.10000000000E+04  0.10000000000E+04  0.00000000000E+00 0. -1.
          2   -1    0    0  501    0 -0.00000000000E+00 -0.00000000000E+00 -0.10488104303E+03  0.10488104303E+03  0.00000000000E+00 0. -1.
    9000006    2    1    2  501    0  0.00000000000E+00  0.00000000000E+00  0.89511895697E+03  0.11048810430E+04  0.64770685661E+03 0.  0.
         13    1    3    3    0    0  0.18297823651E+03 -0.18184324999E+03  0.78154194005E+03  0.82301628578E+03  0.00000000000E+00 0. -1.
          4    1    3    3  501    0 -0.18297823651E+03  0.18184324999E+03  0.11357701692E+03  0.28186475724E+03  0.00000000000E+00 0. -1.
<mgrwt>
<rscale>  0 0.64770686E+03</rscale>
<asrwt>0</asrwt>
<pdfrwt beam="1">0</pdfrwt>
<pdfrwt beam="2">  1        2 0.38138642E+00 0.64770686E+03</pdfrwt>
<totfact> 0.46724819E+00</totfact>
</mgrwt>
</event>
<event>
 5    1  0.2368916E-004  0.6940732E+03  0.7818608E-02  0.9727422E-01
         13   -1    0    0    0    0  0.00000000000E+00  0.00000000000E+00  0.10000000000E+04  0.10000000000E+04  0.00000000000E+00 0. -1.
          2   -1    0    0  501    0 -0.00000000000E+00 -0.00000000000E+00 -0.12043439670E+03  0.12043439670E+03  0.00000000000E+00 0. -1.
    9000006    2    1    2  501    0  0.00000000000E+00  0.00000000000E+00  0.87956560330E+03  0.11204343967E+04  0.69407318547E+03 0.  0.
         13    1    3    3    0    0  0.69294699382E+02  0.30271472038E+03  0.68984875683E+03  0.75652446398E+03  0.00000000000E+00 0. -1.
          2    1    3    3  501    0 -0.69294699382E+02 -0.30271472038E+03  0.18971684647E+03  0.36390993272E+03  0.00000000000E+00 0. -1.
<mgrwt>
<rscale>  0 0.69407319E+03</rscale>
<asrwt>0</asrwt>
<pdfrwt beam="1">0</pdfrwt>
<pdfrwt beam="2">  1        2 0.43794418E+00 0.69407319E+03</pdfrwt>
<totfact> 0.28422895E+00</totfact>
</mgrwt>
</event>
<event>
 5    1  0.2368916E-004  0.6323135E+03  0.7818608E-02  0.9840545E-01
         13   -1    0    0    0    0  0.00000000000E+00  0.00000000000E+00  0.10000000000E+04  0.10000000000E+04  0.00000000000E+00 0. -1.
          2   -1    0    0  501    0 -0.00000000000E+00 -0.00000000000E+00 -0.99955089775E+02  0.99955089775E+02  0.00000000000E+00 0. -1.
    9000006    2    1    2  501    0  0.00000000000E+00  0.00000000000E+00  0.90004491023E+03  0.10999550898E+04  0.63231349748E+03 0.  0.
         13    1    3    3    0    0 -0.52700902625E+01  0.23019629359E+03  0.73145065193E+02  0.24159533935E+03  0.00000000000E+00 0. -1.
          2    1    3    3  501    0  0.52700902625E+01 -0.23019629359E+03  0.82689984503E+03  0.85835975042E+03  0.00000000000E+00 0. -1.
<mgrwt>
<rscale>  0 0.63231350E+03</rscale>
<asrwt>0</asrwt>
<pdfrwt beam="1">0</pdfrwt>
<pdfrwt beam="2">  1        2 0.36347382E+00 0.63231350E+03</pdfrwt>
<totfact> 0.54423389E+00</totfact>
</mgrwt>
</event>
<event>
 5    1  0.2368916E-004  0.6466421E+03  0.7818608E-02  0.9813101E-01
         13   -1    0    0    0    0  0.00000000000E+00  0.00000000000E+00  0.10000000000E+04  0.10000000000E+04  0.00000000000E+00 0. -1.
          2   -1    0    0  501    0 -0.00000000000E+00 -0.00000000000E+00 -0.10453648859E+03  0.10453648859E+03  0.00000000000E+00 0. -1.
    9000006    2    1    2  501    0  0.00000000000E+00  0.00000000000E+00  0.89546351141E+03  0.11045364886E+04  0.64664206045E+03 0.  0.
         13    1    3    3    0    0  0.22487346952E+03  0.14995396661E+03  0.14465768168E+03  0.30656176256E+03  0.00000000000E+00 0. -1.
          4    1    3    3  501    0 -0.22487346952E+03 -0.14995396661E+03  0.75080582974E+03  0.79797472602E+03  0.00000000000E+00 0. -1.
<mgrwt>
<rscale>  0 0.64664206E+03</rscale>
<asrwt>0</asrwt>
<pdfrwt beam="1">0</pdfrwt>
<pdfrwt beam="2">  1        2 0.38013349E+00 0.64664206E+03</pdfrwt>
<totfact> 0.47229033E+00</totfact>
</mgrwt>
</event>
<event>
 5    1  0.2368916E-004  0.6322270E+03  0.7818608E-02  0.9840713E-01
         13   -1    0    0    0    0  0.00000000000E+00  0.00000000000E+00  0.10000000000E+04  0.10000000000E+04  0.00000000000E+00 0. -1.
          2   -1    0    0  501    0 -0.00000000000E+00 -0.00000000000E+00 -0.99927752587E+02  0.99927752587E+02  0.00000000000E+00 0. -1.
    9000006    2    1    2  501    0  0.00000000000E+00  0.00000000000E+00  0.90007224741E+03  0.10999277526E+04  0.63222702437E+03 0.  0.
         13    1    3    3    0    0 -0.19186361016E+03  0.15136453281E+03  0.79887953216E+03  0.83542287112E+03  0.00000000000E+00 0. -1.
          2    1    3    3  501    0  0.19186361016E+03 -0.15136453281E+03  0.10119271525E+03  0.26450488146E+03  0.00000000000E+00 0. -1.
<mgrwt>
<rscale>  0 0.63222702E+03</rscale>
<asrwt>0</asrwt>
<pdfrwt beam="1">0</pdfrwt>
<pdfrwt beam="2">  1        2 0.36337441E+00 0.63222702E+03</pdfrwt>
<totfact> 0.54469183E+00</totfact>
</mgrwt>
</event>
<event>
 5    1  0.2368916E-004  0.6295503E+03  0.7818608E-02  0.9845927E-01
         13   -1    0    0    0    0  0.00000000000E+00  0.00000000000E+00  0.10000000000E+04  0.10000000000E+04  0.00000000000E+00 0. -1.
          2   -1    0    0  501    0 -0.00000000000E+00 -0.00000000000E+00 -0.99083388350E+02  0.99083388350E+02  0.00000000000E+00 0. -1.
    9000006    2    1    2  501    0  0.00000000000E+00  0.00000000000E+00  0.90091661165E+03  0.10990833883E+04  0.62955027869E+03 0.  0.
         13    1    3    3    0    0  0.10600746122E+03 -0.27611412153E+03  0.26237231720E+03  0.39536795871E+03  0.00000000000E+00 0. -1.
          4    1    3    3  501    0 -0.10600746122E+03  0.27611412153E+03  0.63854429445E+03  0.70371542964E+03  0.00000000000E+00 0. -1.
<mgrwt>
<rscale>  0 0.62955028E+03</rscale>
<asrwt>0</asrwt>
<pdfrwt beam="1">0</pdfrwt>
<pdfrwt beam="2">  1        2 0.36030399E+00 0.62955028E+03</pdfrwt>
<totfact> 0.55901240E+00</totfact>
</mgrwt>
</event>
<event>
 5    1  0.2368916E-004  0.6447513E+03  0.7818608E-02  0.9816678E-01
         13   -1    0    0    0    0  0.00000000000E+00  0.00000000000E+00  0.10000000000E+04  0.10000000000E+04  0.00000000000E+00 0. -1.
          2   -1    0    0  501    0 -0.00000000000E+00 -0.00000000000E+00 -0.10392605241E+03  0.10392605241E+03  0.00000000000E+00 0. -1.
    9000006    2    1    2  501    0  0.00000000000E+00  0.00000000000E+00  0.89607394759E+03  0.11039260524E+04  0.64475127735E+03 0.  0.
         13    1    3    3    0    0 -0.24598097081E+03 -0.20062533775E+03  0.54442015010E+03  0.63019874959E+03  0.00000000000E+00 0. -1.
          4    1    3    3  501    0  0.24598097081E+03  0.20062533775E+03  0.35165379748E+03  0.47372730282E+03  0.00000000000E+00 0. -1.
<mgrwt>
<rscale>  0 0.64475128E+03</rscale>
<asrwt>0</asrwt>
<pdfrwt beam="1">0</pdfrwt>
<pdfrwt beam="2">  1        2 0.37791371E+00 0.64475128E+03</pdfrwt>
<totfact> 0.48134507E+00</totfact>
</mgrwt>
</event>
<event>
 5    1  0.2368916E-004  0.6353009E+03  0.7818608E-02  0.9834759E-01
         13   -1    0    0    0    0  0.00000000000E+00  0.00000000000E+00  0.10000000000E+04  0.10000000000E+04  0.00000000000E+00 0. -1.
          2   -1    0    0  501    0 -0.00000000000E+00 -0.00000000000E+00 -0.10090179365E+03  0.10090179365E+03  0.00000000000E+00 0. -1.
    9000006    2    1    2  501    0  0.00000000000E+00  0.00000000000E+00  0.89909820635E+03  0.11009017936E+04  0.63530085360E+03 0.  0.
         13    1    3    3    0    0  0.20068700561E+03  0.22519156469E+03  0.62210174058E+03  0.69137333667E+03  0.00000000000E+00 0. -1.
          2    1    3    3  501    0 -0.20068700561E+03 -0.22519156469E+03  0.27699646578E+03  0.40952845698E+03  0.00000000000E+00 0. -1.
<mgrwt>
<rscale>  0 0.63530085E+03</rscale>
<asrwt>0</asrwt>
<pdfrwt beam="1">0</pdfrwt>
<pdfrwt beam="2">  1        2 0.36691639E+00 0.63530085E+03</pdfrwt>
<totfact> 0.52859207E+00</totfact>
</mgrwt>
</event>
<event>
 5    1  0.2368916E-004  0.6756839E+03  0.7818608E-02  0.9759744E-01
         13   -1    0    0    0    0  0.00000000000E+00  0.00000000000E+00  0.10000000000E+04  0.10000000000E+04  0.00000000000E+00 0. -1.
          2   -1    0    0  501    0 -0.00000000000E+00 -0.00000000000E+00 -0.11413718508E+03  0.11413718508E+03  0.00000000000E+00 0. -1.
    9000006    2    1    2  501    0  0.00000000000E+00  0.00000000000E+00  0.88586281492E+03  0.11141371851E+04  0.67568390561E+03 0.  0.
         13    1    3    3    0    0  0.50192932235E+02 -0.28041037160E+03  0.14344833110E+03  0.31894628175E+03  0.00000000000E+00 0. -1.
          4    1    3    3  501    0 -0.50192932235E+02  0.28041037160E+03  0.74241448382E+03  0.79519090333E+03  0.00000000000E+00 0. -1.
<mgrwt>
<rscale>  0 0.67568391E+03</rscale>
<asrwt>0</asrwt>
<pdfrwt beam="1">0</pdfrwt>
<pdfrwt beam="2">  1        2 0.41504518E+00 0.67568391E+03</pdfrwt>
<totfact> 0.34871443E+00</totfact>
</mgrwt>
</event>
<event>
 5    1  0.2368916E-004  0.6495291E+03  0.7818608E-02  0.9807663E-01
         13   -1    0    0    0    0  0.00000000000E+00  0.00000000000E+00  0.10000000000E+04  0.10000000000E+04  0.00000000000E+00 0. -1.
          2   -1    0    0  501    0 -0.00000000000E+00 -0.00000000000E+00 -0.10547202515E+03  0.10547202515E+03  0.00000000000E+00 0. -1.
    9000006    2    1    2  501    0  0.00000000000E+00  0.00000000000E+00  0.89452797485E+03  0.11054720251E+04  0.64952913759E+03 0.  0.
         13    1    3    3    0    0  0.30111835941E+03  0.97970973285E+02  0.32451689472E+03  0.45341128452E+03  0.00000000000E+00 0. -1.
          4    1    3    3  501    0 -0.30111835941E+03 -0.97970973285E+02  0.57001108014E+03  0.65206074062E+03  0.00000000000E+00 0. -1.
<mgrwt>
<rscale>  0 0.64952914E+03</rscale>
<asrwt>0</asrwt>
<pdfrwt beam="1">0</pdfrwt>
<pdfrwt beam="2">  1        2 0.38353545E+00 0.64952914E+03</pdfrwt>
<totfact> 0.45871368E+00</totfact>
</mgrwt>
</event>
<event>
 5    1  0.2368916E-004  0.6374476E+03  0.7818608E-02  0.9830622E-01
         13   -1    0    0    0    0  0.00000000000E+00  0.00000000000E+00  0.10000000000E+04  0.10000000000E+04  0.00000000000E+00 0. -1.
          2   -1    0    0  501    0 -0.00000000000E+00 -0.00000000000E+00 -0.10158485483E+03  0.10158485483E+03  0.00000000000E+00 0. -1.
    9000006    2    1    2  501    0  0.00000000000E+00  0.00000000000E+00  0.89841514517E+03  0.11015848548E+04  0.63744758162E+03 0.  0.
         13    1    3    3    0    0 -0.27739879098E+03  0.67116570481E+02  0.69439420297E+03  0.75075830491E+03  0.00000000000E+00 0. -1.
          4    1    3    3  501    0  0.27739879098E+03 -0.67116570481E+02  0.20402094220E+03  0.35082654992E+03  0.00000000000E+00 0. -1.
<mgrwt>
<rscale>  0 0.63744758E+03</rscale>
<asrwt>0</asrwt>
<pdfrwt beam="1">0</pdfrwt>
<pdfrwt beam="2">  1        2 0.36940025E+00 0.63744758E+03</pdfrwt>
<totfact> 0.51756400E+00</totfact>
</mgrwt>
</event>
<event>
 5    1  0.2368916E-004  0.6588218E+03  0.7818608E-02  0.9790365E-01
         13   -1    0    0    0    0  0.00000000000E+00  0.00000000000E+00  0.10000000000E+04  0.10000000000E+04  0.00000000000E+00 0. -1.
          2   -1    0    0  501    0 -0.00000000000E+00 -0.00000000000E+00 -0.10851152627E+03  0.10851152627E+03  0.00000000000E+00 0. -1.
    9000006    2    1    2  501    0  0.00000000000E+00  0.00000000000E+00  0.89148847373E+03  0.11085115263E+04  0.65882175518E+03 0.  0.
         13    1    3    3    0    0 -0.15133788076E+03 -0.26572532945E+03  0.23968359068E+03  0.38853742227E+03  0.00000000000E+00 0. -1.
          4    1    3    3  501    0  0.15133788076E+03  0.26572532945E+03  0.65180488305E+03  0.71997410400E+03  0.00000000000E+00 0. -1.
<mgrwt>
<rscale>  0 0.65882176E+03</rscale>
<asrwt>0</asrwt>
<pdfrwt beam="1">0</pdfrwt>
<pdfrwt beam="2">  1        2 0.39458820E+00 0.65882176E+03</pdfrwt>
<totfact> 0.41700897E+00</totfact>
</mgrwt>
</event>
<event>
 5    1  0.2368916E-004  0.6255668E+03  0.7818608E-02  0.9853738E-01
         13   -1    0    0    0    0  0.00000000000E+00  0.00000000000E+00  0.10000000000E+04  0.10000000000E+04  0.00000000000E+00 0. -1.
          2   -1    0    0  501    0 -0.00000000000E+00 -0.00000000000E+00 -0.97833458686E+02  0.97833458686E+02  0.00000000000E+00 0. -1.
    9000006    2    1    2  501    0  0.00000000000E+00  0.00000000000E+00  0.90216654131E+03  0.10978334587E+04  0.62556681078E+03 0.  0.
         13    1    3    3    0    0  0.19954822497E+03  0.11139178967E+03  0.76306242235E+02  0.24093623119E+03  0.00000000000E+00 0. -1.
          2    1    3    3  501    0 -0.19954822497E+03 -0.11139178967E+03  0.82586029908E+03  0.85689722750E+03  0.00000000000E+00 0. -1.
<mgrwt>
<rscale>  0 0.62556681E+03</rscale>
<asrwt>0</asrwt>
<pdfrwt beam="1">0</pdfrwt>
<pdfrwt beam="2">  1        2 0.35575878E+00 0.62556681E+03</pdfrwt>
<totfact> 0.58085173E+00</totfact>
</mgrwt>
</event>
<event>
 5    1  0.2368916E-004  0.6133786E+03  0.7818608E-02  0.9878032E-01
         13   -1    0    0    0    0  0.00000000000E+00  0.00000000000E+00  0.10000000000E+04  0.10000000000E+04  0.00000000000E+00 0. -1.
          2   -1    0    0  501    0 -0.00000000000E+00 -0.00000000000E+00 -0.94058333189E+02  0.94058333189E+02  0.00000000000E+00 0. -1.
    9000006    2    1    2  501    0  0.00000000000E+00  0.00000000000E+00  0.90594166681E+03  0.10940583332E+04  0.61337862105E+03 0.  0.
         13    1    3    3    0    0  0.27251392682E+03 -0.60689862893E+02  0.22657092937E+03  0.35955734703E+03  0.00000000000E+00 0. -1.
          4    1    3    3  501    0 -0.27251392682E+03  0.60689862893E+02  0.67937073744E+03  0.73450098616E+03  0.00000000000E+00 0. -1.
<mgrwt>
<rscale>  0 0.61337862E+03</rscale>
<asrwt>0</asrwt>
<pdfrwt beam="1">0</pdfrwt>
<pdfrwt beam="2">  1        2 0.34203102E+00 0.61337862E+03</pdfrwt>
<totfact> 0.65172642E+00</totfact>
</mgrwt>
</event>
<event>
 5    1  0.2368916E-004  0.6465058E+03  0.7818608E-02  0.9813358E-01
         13   -1    0    0    0    0  0.00000000000E+00  0.00000000000E+00  0.10000000000E+04  0.10000000000E+04  0.00000000000E+00 0. -1.
          2   -1    0    0  501    0 -0.00000000000E+00 -0.00000000000E+00 -0.10449244127E+03  0.10449244127E+03  0.00000000000E+00 0. -1.
    9000006    2    1    2  501    0  0.00000000000E+00  0.00000000000E+00  0.89550755873E+03  0.11044924413E+04  0.64650581209E+03 0.  0.
         13    1    3    3    0    0 -0.18567769623E+03  0.18384573543E+03  0.12263172469E+03  0.28864164844E+03  0.00000000000E+00 0. -1.
          4    1    3    3  501    0  0.18567769623E+03 -0.18384573543E+03  0.77287583404E+03  0.81585079283E+03  0.00000000000E+00 0. -1.
<mgrwt>
<rscale>  0 0.64650581E+03</rscale>
<asrwt>0</asrwt>
<pdfrwt beam="1">0</pdfrwt>
<pdfrwt beam="2">  1        2 0.37997331E+00 0.64650581E+03</pdfrwt>
<totfact> 0.47293846E+00</totfact>
</mgrwt>
</event>
<event>
 5    1  0.2368916E-004  0.6461003E+03  0.7818608E-02  0.9814124E-01
         13   -1    0    0    0    0  0.00000000000E+00  0.00000000000E+00  0.10000000000E+04  0.10000000000E+04  0.00000000000E+00 0. -1.
          2   -1    0    0  501    0 -0.00000000000E+00 -0.00000000000E+00 -0.10436139892E+03  0.10436139892E+03  0.00000000000E+00 0. -1.
    9000006    2    1    2  501    0  0.00000000000E+00  0.00000000000E+00  0.89563860108E+03  0.11043613989E+04  0.64610029846E+03 0.  0.
         13    1    3    3    0    0  0.83325576809E+02  0.74145228309E+02 -0.70405286689E+02  0.13189985226E+03  0.00000000000E+00 0. -1.
          4    1    3    3  501    0 -0.83325576809E+02 -0.74145228309E+02  0.96604388777E+03  0.97246154666E+03  0.00000000000E+00 0. -1.
<mgrwt>
<rscale>  0 0.64610030E+03</rscale>
<asrwt>0</asrwt>
<pdfrwt beam="1">0</pdfrwt>
<pdfrwt beam="2">  1        2 0.37949680E+00 0.64610030E+03</pdfrwt>
<totfact> 0.47487147E+00</totfact>
</mgrwt>
</event>
<event>
 5    1  0.2368916E-004  0.6396316E+03  0.7818608E-02  0.9826432E-01
         13   -1    0    0    0    0  0.00000000000E+00  0.00000000000E+00  0.10000000000E+04  0.10000000000E+04  0.00000000000E+00 0. -1.
          2   -1    0    0  501    0 -0.00000000000E+00 -0.00000000000E+00 -0.10228215061E+03  0.10228215061E+03  0.00000000000E+00 0. -1.
    9000006    2    1    2  501    0  0.00000000000E+00  0.00000000000E+00  0.89771784939E+03  0.11022821506E+04  0.63963161462E+03 0.  0.
         13    1    3    3    0    0  0.20970871168E+03  0.24065349271E+03  0.48290475770E+03  0.57886859676E+03  0.00000000000E+00 0. -1.
          2    1    3    3  501    0 -0.20970871168E+03 -0.24065349271E+03  0.41481309170E+03  0.52341355385E+03  0.00000000000E+00 0. -1.
<mgrwt>
<rscale>  0 0.63963161E+03</rscale>
<asrwt>0</asrwt>
<pdfrwt beam="1">0</pdfrwt>
<pdfrwt beam="2">  1        2 0.37193588E+00 0.63963161E+03</pdfrwt>
<totfact> 0.50652408E+00</totfact>
</mgrwt>
</event>
<event>
 5    1  0.2368916E-004  0.6389863E+03  0.7818608E-02  0.9827668E-01
         13   -1    0    0    0    0  0.00000000000E+00  0.00000000000E+00  0.10000000000E+04  0.10000000000E+04  0.00000000000E+00 0. -1.
          2   -1    0    0  501    0 -0.00000000000E+00 -0.00000000000E+00 -0.10207588758E+03  0.10207588758E+03  0.00000000000E+00 0. -1.
    9000006    2    1    2  501    0  0.00000000000E+00  0.00000000000E+00  0.89792411242E+03  0.11020758876E+04  0.63898634596E+03 0.  0.
         13    1    3    3    0    0 -0.29782158481E+03  0.10185385187E+03  0.35443225720E+03  0.47401912246E+03  0.00000000000E+00 0. -1.
          4    1    3    3  501    0  0.29782158481E+03 -0.10185385187E+03  0.54349185522E+03  0.62805676512E+03  0.00000000000E+00 0. -1.
<mgrwt>
<rscale>  0 0.63898635E+03</rscale>
<asrwt>0</asrwt>
<pdfrwt beam="1">0</pdfrwt>
<pdfrwt beam="2">  1        2 0.37118583E+00 0.63898635E+03</pdfrwt>
<totfact> 0.50976705E+00</totfact>
</mgrwt>
</event>
<event>
 5    1  0.2368916E-004  0.6554928E+03  0.7818608E-02  0.9796527E-01
         13   -1    0    0    0    0  0.00000000000E+00  0.00000000000E+00  0.10000000000E+04  0.10000000000E+04  0.00000000000E+00 0. -1.
          2   -1    0    0  501    0 -0.00000000000E+00 -0.00000000000E+00 -0.10741771572E+03  0.10741771572E+03  0.00000000000E+00 0. -1.
    9000006    2    1    2  501    0  0.00000000000E+00  0.00000000000E+00  0.89258228428E+03  0.11074177157E+04  0.65549283968E+03 0.  0.
         13    1    3    3    0    0 -0.18180949880E+03  0.17780950038E+03  0.79558852918E+03  0.83524368902E+03  0.00000000000E+00 0. -1.
          4    1    3    3  501    0  0.18180949880E+03 -0.17780950038E+03  0.96993755101E+02  0.27217402670E+03  0.00000000000E+00 0. -1.
<mgrwt>
<rscale>  0 0.65549284E+03</rscale>
<asrwt>0</asrwt>
<pdfrwt beam="1">0</pdfrwt>
<pdfrwt beam="2">  1        2 0.39061070E+00 0.65549284E+03</pdfrwt>
<totfact> 0.43160452E+00</totfact>
</mgrwt>
</event>
<event>
 5    1  0.2368916E-004  0.6496670E+03  0.7818608E-02  0.9807404E-01
         13   -1    0    0    0    0  0.00000000000E+00  0.00000000000E+00  0.10000000000E+04  0.10000000000E+04  0.00000000000E+00 0. -1.
          2   -1    0    0  501    0 -0.00000000000E+00 -0.00000000000E+00 -0.10551680813E+03  0.10551680813E+03  0.00000000000E+00 0. -1.
    9000006    2    1    2  501    0  0.00000000000E+00  0.00000000000E+00  0.89448319187E+03  0.11055168081E+04  0.64966701665E+03 0.  0.
         13    1    3    3    0    0 -0.12008385995E+03  0.34301041116E+02  0.95751502488E+03  0.96562503991E+03  0.00000000000E+00 0. -1.
          4    1    3    3  501    0  0.12008385995E+03 -0.34301041116E+02 -0.63031833006E+02  0.13989176822E+03  0.00000000000E+00 0. -1.
<mgrwt>
<rscale>  0 0.64966702E+03</rscale>
<asrwt>0</asrwt>
<pdfrwt beam="1">0</pdfrwt>
<pdfrwt beam="2">  1        2 0.38369829E+00 0.64966702E+03</pdfrwt>
<totfact> 0.45807277E+00</totfact>
</mgrwt>
</event>
<event>
 5    1  0.2368916E-004  0.6432894E+03  0.7818608E-02  0.9819453E-01
         13   -1    0    0    0    0  0.00000000000E+00  0.00000000000E+00  0.10000000000E+04  0.10000000000E+04  0.00000000000E+00 0. -1.
          2   -1    0    0  501    0 -0.00000000000E+00 -0.00000000000E+00 -0.10345530181E+03  0.10345530181E+03  0.00000000000E+00 0. -1.
    9000006    2    1    2  501    0  0.00000000000E+00  0.00000000000E+00  0.89654469819E+03  0.11034553018E+04  0.64328936508E+03 0.  0.
         13    1    3    3    0    0 -0.30245243609E+03 -0.72530001620E+02  0.58885874848E+03  0.66595247795E+03  0.00000000000E+00 0. -1.
          4    1    3    3  501    0  0.30245243609E+03  0.72530001620E+02  0.30768594972E+03  0.43750282386E+03  0.00000000000E+00 0. -1.
<mgrwt>
<rscale>  0 0.64328937E+03</rscale>
<asrwt>0</asrwt>
<pdfrwt beam="1">0</pdfrwt>
<pdfrwt beam="2">  1        2 0.37620189E+00 0.64328937E+03</pdfrwt>
<totfact> 0.48843556E+00</totfact>
</mgrwt>
</event>
<event>
 5    1  0.2368916E-004  0.6352274E+03  0.7818608E-02  0.9834901E-01
         13   -1    0    0    0    0  0.00000000000E+00  0.00000000000E+00  0.10000000000E+04  0.10000000000E+04  0.00000000000E+00 0. -1.
          2   -1    0    0  501    0 -0.00000000000E+00 -0.00000000000E+00 -0.10087846300E+03  0.10087846300E+03  0.00000000000E+00 0. -1.
    9000006    2    1    2  501    0  0.00000000000E+00  0.00000000000E+00  0.89912153700E+03  0.11008784630E+04  0.63522740181E+03 0.  0.
         13    1    3    3    0    0  0.14514522829E+03  0.88115327365E+02 -0.15616138772E+02  0.17051484393E+03  0.00000000000E+00 0. -1.
          4    1    3    3  501    0 -0.14514522829E+03 -0.88115327365E+02  0.91473767577E+03  0.93036361907E+03  0.00000000000E+00 0. -1.
<mgrwt>
<rscale>  0 0.63522740E+03</rscale>
<asrwt>0</asrwt>
<pdfrwt beam="1">0</pdfrwt>
<pdfrwt beam="2">  1        2 0.36683155E+00 0.63522740E+03</pdfrwt>
<totfact> 0.52897253E+00</totfact>
</mgrwt>
</event>
<event>
 5    1  0.2368916E-004  0.6531450E+03  0.7818608E-02  0.9800896E-01
         13   -1    0    0    0    0  0.00000000000E+00  0.00000000000E+00  0.10000000000E+04  0.10000000000E+04  0.00000000000E+00 0. -1.
          2   -1    0    0  501    0 -0.00000000000E+00 -0.00000000000E+00 -0.10664958197E+03  0.10664958197E+03  0.00000000000E+00 0. -1.
    9000006    2    1    2  501    0  0.00000000000E+00  0.00000000000E+00  0.89335041803E+03  0.11066495820E+04  0.65314495167E+03 0.  0.
         13    1    3    3    0    0 -0.29902806768E+03  0.12858363238E+03  0.49144062579E+03  0.58946197880E+03  0.00000000000E+00 0. -1.
          2    1    3    3  501    0  0.29902806768E+03 -0.12858363238E+03  0.40190979224E+03  0.51718760317E+03  0.00000000000E+00 0. -1.
<mgrwt>
<rscale>  0 0.65314495E+03</rscale>
<asrwt>0</asrwt>
<pdfrwt beam="1">0</pdfrwt>
<pdfrwt beam="2">  1        2 0.38781748E+00 0.65314495E+03</pdfrwt>
<totfact> 0.44212859E+00</totfact>
</mgrwt>
</event>
<event>
 5    1  0.2368916E-004  0.6109968E+03  0.7818608E-02  0.9882850E-01
         13   -1    0    0    0    0  0.00000000000E+00  0.00000000000E+00  0.10000000000E+04  0.10000000000E+04  0.00000000000E+00 0. -1.
          2   -1    0    0  501    0 -0.00000000000E+00 -0.00000000000E+00 -0.93329285341E+02  0.93329285341E+02  0.00000000000E+00 0. -1.
    9000006    2    1    2  501    0  0.00000000000E+00  0.00000000000E+00  0.90667071466E+03  0.10933292853E+04  0.61099684235E+03 0.  0.
         13    1    3    3    0    0  0.12276808447E+03 -0.85476113207E+02  0.92997661664E+03  0.94193135418E+03  0.00000000000E+00 0. -1.
          2    1    3    3  501    0 -0.12276808447E+03  0.85476113207E+02 -0.23305901981E+02  0.15139793116E+03  0.00000000000E+00 0. -1.
<mgrwt>
<rscale>  0 0.61099684E+03</rscale>
<asrwt>0</asrwt>
<pdfrwt beam="1">0</pdfrwt>
<pdfrwt beam="2">  1        2 0.33937994E+00 0.61099684E+03</pdfrwt>
<totfact> 0.66631286E+00</totfact>
</mgrwt>
</event>
<event>
 5    1  0.2368916E-004  0.6501202E+03  0.7818608E-02  0.9806554E-01
         13   -1    0    0    0    0  0.00000000000E+00  0.00000000000E+00  0.10000000000E+04  0.10000000000E+04  0.00000000000E+00 0. -1.
          2   -1    0    0  501    0 -0.00000000000E+00 -0.00000000000E+00 -0.10566405732E+03  0.10566405732E+03  0.00000000000E+00 0. -1.
    9000006    2    1    2  501    0  0.00000000000E+00  0.00000000000E+00  0.89433594268E+03  0.11056640573E+04  0.65012016527E+03 0.  0.
         13    1    3    3    0    0  0.87789480579E+02 -0.44804228974E+02  0.97397461344E+03  0.97894890544E+03  0.00000000000E+00 0. -1.
          4    1    3    3  501    0 -0.87789480579E+02  0.44804228974E+02 -0.79638670768E+02  0.12671515188E+03  0.00000000000E+00 0. -1.
<mgrwt>
<rscale>  0 0.65012017E+03</rscale>
<asrwt>0</asrwt>
<pdfrwt beam="1">0</pdfrwt>
<pdfrwt beam="2">  1        2 0.38423375E+00 0.65012017E+03</pdfrwt>
<totfact> 0.45597113E+00</totfact>
</mgrwt>
</event>
<event>
 5    1  0.2368916E-004  0.6675571E+03  0.7818608E-02  0.9774381E-01
         13   -1    0    0    0    0  0.00000000000E+00  0.00000000000E+00  0.10000000000E+04  0.10000000000E+04  0.00000000000E+00 0. -1.
          2   -1    0    0  501    0 -0.00000000000E+00 -0.00000000000E+00 -0.11140811500E+03  0.11140811500E+03  0.00000000000E+00 0. -1.
    9000006    2    1    2  501    0  0.00000000000E+00  0.00000000000E+00  0.88859188500E+03  0.11114081150E+04  0.66755708369E+03 0.  0.
         13    1    3    3    0    0 -0.10543603828E+02  0.31545999014E+03  0.62501069015E+03  0.70018892862E+03  0.00000000000E+00 0. -1.
          4    1    3    3  501    0  0.10543603828E+02 -0.31545999014E+03  0.26358119485E+03  0.41121918637E+03  0.00000000000E+00 0. -1.
<mgrwt>
<rscale>  0 0.66755708E+03</rscale>
<asrwt>0</asrwt>
<pdfrwt beam="1">0</pdfrwt>
<pdfrwt beam="2">  1        2 0.40512127E+00 0.66755708E+03</pdfrwt>
<totfact> 0.38048071E+00</totfact>
</mgrwt>
</event>
<event>
 5    1  0.2368916E-004  0.6496697E+03  0.7818608E-02  0.9807399E-01
         13   -1    0    0    0    0  0.00000000000E+00  0.00000000000E+00  0.10000000000E+04  0.10000000000E+04  0.00000000000E+00 0. -1.
          2   -1    0    0  501    0 -0.00000000000E+00 -0.00000000000E+00 -0.10551768588E+03  0.10551768588E+03  0.00000000000E+00 0. -1.
    9000006    2    1    2  501    0  0.00000000000E+00  0.00000000000E+00  0.89448231412E+03  0.11055176859E+04  0.64966971879E+03 0.  0.
         13    1    3    3    0    0  0.24965015345E+03  0.84934512675E+02  0.12446957383E+03  0.29160203252E+03  0.00000000000E+00 0. -1.
          2    1    3    3  501    0 -0.24965015345E+03 -0.84934512675E+02  0.77001274029E+03  0.81391565335E+03  0.00000000000E+00 0. -1.
<mgrwt>
<rscale>  0 0.64966972E+03</rscale>
<asrwt>0</asrwt>
<pdfrwt beam="1">0</pdfrwt>
<pdfrwt beam="2">  1        2 0.38370149E+00 0.64966972E+03</pdfrwt>
<totfact> 0.45806021E+00</totfact>
</mgrwt>
</event>
<event>
 5    1  0.2368916E-004  0.6502832E+03  0.7818608E-02  0.9806248E-01
         13   -1    0    0    0    0  0.00000000000E+00  0.00000000000E+00  0.10000000000E+04  0.10000000000E+04  0.00000000000E+00 0. -1.
          2   -1    0    0  501    0 -0.00000000000E+00 -0.00000000000E+00 -0.10571704566E+03  0.10571704566E+03  0.00000000000E+00 0. -1.
    9000006    2    1    2  501    0  0.00000000000E+00  0.00000000000E+00  0.89428295434E+03  0.11057170457E+04  0.65028315575E+03 0.  0.
         13    1    3    3    0    0 -0.28839741811E+03  0.15501913181E+02  0.70108060427E+03  0.75823966776E+03  0.00000000000E+00 0. -1.
          2    1    3    3  501    0  0.28839741811E+03 -0.15501913181E+02  0.19320235007E+03  0.34747737790E+03  0.00000000000E+00 0. -1.
<mgrwt>
<rscale>  0 0.65028316E+03</rscale>
<asrwt>0</asrwt>
<pdfrwt beam="1">0</pdfrwt>
<pdfrwt beam="2">  1        2 0.38442643E+00 0.65028316E+03</pdfrwt>
<totfact> 0.45521698E+00</totfact>
</mgrwt>
</event>
<event>
 5    1  0.2368916E-004  0.6667963E+03  0.7818608E-02  0.9775763E-01
         13   -1    0    0    0    0  0.00000000000E+00  0.00000000000E+00  0.10000000000E+04  0.10000000000E+04  0.00000000000E+00 0. -1.
          2   -1    0    0  501    0 -0.00000000000E+00 -0.00000000000E+00 -0.11115432140E+03  0.11115432140E+03  0.00000000000E+00 0. -1.
    9000006    2    1    2  501    0  0.00000000000E+00  0.00000000000E+00  0.88884567860E+03  0.11111543214E+04  0.66679628494E+03 0.  0.
         13    1    3    3    0    0 -0.69796984851E+02 -0.15148149737E+03 -0.36635431155E+02  0.17076421743E+03  0.00000000000E+00 0. -1.
          2    1    3    3  501    0  0.69796984851E+02  0.15148149737E+03  0.92548110975E+03  0.94039010397E+03  0.00000000000E+00 0. -1.
<mgrwt>
<rscale>  0 0.66679628E+03</rscale>
<asrwt>0</asrwt>
<pdfrwt beam="1">0</pdfrwt>
<pdfrwt beam="2">  1        2 0.40419838E+00 0.66679628E+03</pdfrwt>
<totfact> 0.38356238E+00</totfact>
</mgrwt>
</event>
<event>
 5    1  0.2368916E-004  0.6448986E+03  0.7818608E-02  0.9816399E-01
         13   -1    0    0    0    0  0.00000000000E+00  0.00000000000E+00  0.10000000000E+04  0.10000000000E+04  0.00000000000E+00 0. -1.
          2   -1    0    0  501    0 -0.00000000000E+00 -0.00000000000E+00 -0.10397354710E+03  0.10397354710E+03  0.00000000000E+00 0. -1.
    9000006    2    1    2  501    0  0.00000000000E+00  0.00000000000E+00  0.89602645290E+03  0.11039735471E+04  0.64489858768E+03 0.  0.
         13    1    3    3    0    0 -0.28705070106E+03  0.13178778490E+03  0.33697429561E+03  0.46186340094E+03  0.00000000000E+00 0. -1.
          4    1    3    3  501    0  0.28705070106E+03 -0.13178778490E+03  0.55905215729E+03  0.64211014615E+03  0.00000000000E+00 0. -1.
<mgrwt>
<rscale>  0 0.64489859E+03</rscale>
<asrwt>0</asrwt>
<pdfrwt beam="1">0</pdfrwt>
<pdfrwt beam="2">  1        2 0.37808642E+00 0.64489859E+03</pdfrwt>
<totfact> 0.48063494E+00</totfact>
</mgrwt>
</event>
<event>
 5    1  0.2368916E-004  0.6816301E+03  0.7818608E-02  0.9749173E-01
         13   -1    0    0    0    0  0.00000000000E+00  0.00000000000E+00  0.10000000000E+04  0.10000000000E+04  0.00000000000E+00 0. -1.
          2   -1    0    0  501    0 -0.00000000000E+00 -0.00000000000E+00 -0.11615490158E+03  0.11615490158E+03  0.00000000000E+00 0. -1.
    9000006    2    1    2  501    0  0.00000000000E+00  0.00000000000E+00  0.88384509842E+03  0.11161549016E+04  0.68163010960E+03 0.  0.
         13    1    3    3    0    0 -0.17770440359E+03  0.27440500081E+03  0.59964791104E+03  0.68297479949E+03  0.00000000000E+00 0. -1.
          4    1    3    3  501    0  0.17770440359E+03 -0.27440500081E+03  0.28419718739E+03  0.43318010209E+03  0.00000000000E+00 0. -1.
<mgrwt>
<rscale>  0 0.68163011E+03</rscale>
<asrwt>0</asrwt>
<pdfrwt beam="1">0</pdfrwt>
<pdfrwt beam="2">  1        2 0.42238235E+00 0.68163011E+03</pdfrwt>
<totfact> 0.32677087E+00</totfact>
</mgrwt>
</event>
<event>
 5    1  0.2368916E-004  0.6416368E+03  0.7818608E-02  0.9822600E-01
         13   -1    0    0    0    0  0.00000000000E+00  0.00000000000E+00  0.10000000000E+04  0.10000000000E+04  0.00000000000E+00 0. -1.
          2   -1    0    0  501    0 -0.00000000000E+00 -0.00000000000E+00 -0.10292444630E+03  0.10292444630E+03  0.00000000000E+00 0. -1.
    9000006    2    1    2  501    0  0.00000000000E+00  0.00000000000E+00  0.89707555370E+03  0.11029244463E+04  0.64163680162E+03 0.  0.
         13    1    3    3    0    0  0.16351037555E+03 -0.27467535811E+03  0.49536861209E+03  0.58955259062E+03  0.00000000000E+00 0. -1.
          4    1    3    3  501    0 -0.16351037555E+03  0.27467535811E+03  0.40170694162E+03  0.51337185568E+03  0.00000000000E+00 0. -1.
<mgrwt>
<rscale>  0 0.64163680E+03</rscale>
<asrwt>0</asrwt>
<pdfrwt beam="1">0</pdfrwt>
<pdfrwt beam="2">  1        2 0.37427150E+00 0.64163680E+03</pdfrwt>
<totfact> 0.49654611E+00</totfact>
</mgrwt>
</event>
<event>
 5    1  0.2368916E-004  0.6385768E+03  0.7818608E-02  0.9828453E-01
         13   -1    0    0    0    0  0.00000000000E+00  0.00000000000E+00  0.10000000000E+04  0.10000000000E+04  0.00000000000E+00 0. -1.
          2   -1    0    0  501    0 -0.00000000000E+00 -0.00000000000E+00 -0.10194508199E+03  0.10194508199E+03  0.00000000000E+00 0. -1.
    9000006    2    1    2  501    0  0.00000000000E+00  0.00000000000E+00  0.89805491801E+03  0.11019450820E+04  0.63857679881E+03 0.  0.
         13    1    3    3    0    0 -0.14928418185E+03 -0.28223961351E+03  0.44961420224E+03  0.55145072059E+03  0.00000000000E+00 0. -1.
          4    1    3    3  501    0  0.14928418185E+03  0.28223961351E+03  0.44844071576E+03  0.55049436140E+03  0.00000000000E+00 0. -1.
<mgrwt>
<rscale>  0 0.63857680E+03</rscale>
<asrwt>0</asrwt>
<pdfrwt beam="1">0</pdfrwt>
<pdfrwt beam="2">  1        2 0.37071017E+00 0.63857680E+03</pdfrwt>
<totfact> 0.51183348E+00</totfact>
</mgrwt>
</event>
<event>
 5    1  0.2368916E-004  0.6563353E+03  0.7818608E-02  0.9794964E-01
         13   -1    0    0    0    0  0.00000000000E+00  0.00000000000E+00  0.10000000000E+04  0.10000000000E+04  0.00000000000E+00 0. -1.
          2   -1    0    0  501    0 -0.00000000000E+00 -0.00000000000E+00 -0.10769400283E+03  0.10769400283E+03  0.00000000000E+00 0. -1.
    9000006    2    1    2  501    0  0.00000000000E+00  0.00000000000E+00  0.89230599717E+03  0.11076940028E+04  0.65633528878E+03 0.  0.
         13    1    3    3    0    0  0.48268334999E+02  0.13870475382E+03  0.94144244572E+03  0.95282879863E+03  0.00000000000E+00 0. -1.
          2    1    3    3  501    0 -0.48268334999E+02 -0.13870475382E+03 -0.49136448543E+02  0.15486520420E+03  0.00000000000E+00 0. -1.
<mgrwt>
<rscale>  0 0.65633529E+03</rscale>
<asrwt>0</asrwt>
<pdfrwt beam="1">0</pdfrwt>
<pdfrwt beam="2">  1        2 0.39161538E+00 0.65633529E+03</pdfrwt>
<totfact> 0.42787488E+00</totfact>
</mgrwt>
</event>
<event>
 5    1  0.2368916E-004  0.6596047E+03  0.7818608E-02  0.9788922E-01
         13   -1    0    0    0    0  0.00000000000E+00  0.00000000000E+00  0.10000000000E+04  0.10000000000E+04  0.00000000000E+00 0. -1.
          2   -1    0    0  501    0 -0.00000000000E+00 -0.00000000000E+00 -0.10876958548E+03  0.10876958548E+03  0.00000000000E+00 0. -1.
    9000006    2    1    2  501    0  0.00000000000E+00  0.00000000000E+00  0.89123041452E+03  0.11087695855E+04  0.65960468609E+03 0.  0.
         13    1    3    3    0    0 -0.32884344668E+03 -0.23509007384E+02  0.46054641836E+03  0.56638651936E+03  0.00000000000E+00 0. -1.
          4    1    3    3  501    0  0.32884344668E+03  0.23509007384E+02  0.43068399617E+03  0.54238306612E+03  0.00000000000E+00 0. -1.
<mgrwt>
<rscale>  0 0.65960469E+03</rscale>
<asrwt>0</asrwt>
<pdfrwt beam="1">0</pdfrwt>
<pdfrwt beam="2">  1        2 0.39552660E+00 0.65960469E+03</pdfrwt>
<totfact> 0.41363129E+00</totfact>
</mgrwt>
</event>
<event>
 5    1  0.2368916E-004  0.6217946E+03  0.7818608E-02  0.9861193E-01
         13   -1    0    0    0    0  0.00000000000E+00  0.00000000000E+00  0.10000000000E+04  0.10000000000E+04  0.00000000000E+00 0. -1.
          2   -1    0    0  501    0 -0.00000000000E+00 -0.00000000000E+00 -0.96657136006E+02  0.96657136006E+02  0.00000000000E+00 0. -1.
    9000006    2    1    2  501    0  0.00000000000E+00  0.00000000000E+00  0.90334286399E+03  0.10966571360E+04  0.62179461563E+03 0.  0.
         13    1    3    3    0    0 -0.20831818821E+03  0.24111049475E+02  0.46868158472E+02  0.21488237370E+03  0.00000000000E+00 0. -1.
          2    1    3    3  501    0  0.20831818821E+03 -0.24111049475E+02  0.85647470552E+03  0.88177476231E+03  0.00000000000E+00 0. -1.
<mgrwt>
<rscale>  0 0.62179462E+03</rscale>
<asrwt>0</asrwt>
<pdfrwt beam="1">0</pdfrwt>
<pdfrwt beam="2">  1        2 0.35148124E+00 0.62179462E+03</pdfrwt>
<totfact> 0.60212622E+00</totfact>
</mgrwt>
</event>
<event>
 5    1  0.2368916E-004  0.6444282E+03  0.7818608E-02  0.9817291E-01
         13   -1    0    0    0    0  0.00000000000E+00  0.00000000000E+00  0.10000000000E+04  0.10000000000E+04  0.00000000000E+00 0. -1.
          2   -1    0    0  501    0 -0.00000000000E+00 -0.00000000000E+00 -0.10382191032E+03  0.10382191032E+03  0.00000000000E+00 0. -1.
    9000006    2    1    2  501    0  0.00000000000E+00  0.00000000000E+00  0.89617808968E+03  0.11038219103E+04  0.64442815059E+03 0.  0.
         13    1    3    3    0    0  0.96864965496E+02 -0.30332330972E+03  0.36358256368E+03  0.48330128530E+03  0.00000000000E+00 0. -1.
          4    1    3    3  501    0 -0.96864965496E+02  0.30332330972E+03  0.53259552600E+03  0.62052062502E+03  0.00000000000E+00 0. -1.
<mgrwt>
<rscale>  0 0.64442815E+03</rscale>
<asrwt>0</asrwt>
<pdfrwt beam="1">0</pdfrwt>
<pdfrwt beam="2">  1        2 0.37753502E+00 0.64442815E+03</pdfrwt>
<totfact> 0.48290553E+00</totfact>
</mgrwt>
</event>
<event>
 5    1  0.2368916E-004  0.6530350E+03  0.7818608E-02  0.9801101E-01
         13   -1    0    0    0    0  0.00000000000E+00  0.00000000000E+00  0.10000000000E+04  0.10000000000E+04  0.00000000000E+00 0. -1.
          2   -1    0    0  501    0 -0.00000000000E+00 -0.00000000000E+00 -0.10661366921E+03  0.10661366921E+03  0.00000000000E+00 0. -1.
    9000006    2    1    2  501    0  0.00000000000E+00  0.00000000000E+00  0.89338633079E+03  0.11066136692E+04  0.65303497369E+03 0.  0.
         13    1    3    3    0    0  0.26664645201E+03 -0.13088007807E+03  0.21693202847E+03  0.36781711513E+03  0.00000000000E+00 0. -1.
          2    1    3    3  501    0 -0.26664645201E+03  0.13088007807E+03  0.67645430231E+03  0.73879655408E+03  0.00000000000E+00 0. -1.
<mgrwt>
<rscale>  0 0.65303497E+03</rscale>
<asrwt>0</asrwt>
<pdfrwt beam="1">0</pdfrwt>
<pdfrwt beam="2">  1        2 0.38768689E+00 0.65303497E+03</pdfrwt>
<totfact> 0.44262625E+00</totfact>
</mgrwt>
</event>
<event>
 5    1  0.2368916E-004  0.6402922E+03  0.7818608E-02  0.9825168E-01
         13   -1    0    0    0    0  0.00000000000E+00  0.00000000000E+00  0.10000000000E+04  0.10000000000E+04  0.00000000000E+00 0. -1.
          2   -1    0    0  501    0 -0.00000000000E+00 -0.00000000000E+00 -0.10249352691E+03  0.10249352691E+03  0.00000000000E+00 0. -1.
    9000006    2    1    2  501    0  0.00000000000E+00  0.00000000000E+00  0.89750647309E+03  0.11024935269E+04  0.64029220488E+03 0.  0.
         13    1    3    3    0    0  0.28781002829E+03  0.14778118622E+02  0.68883091991E+03  0.74668670900E+03  0.00000000000E+00 0. -1.
          2    1    3    3  501    0 -0.28781002829E+03 -0.14778118622E+02  0.20867555318E+03  0.35580681791E+03  0.00000000000E+00 0. -1.
<mgrwt>
<rscale>  0 0.64029220E+03</rscale>
<asrwt>0</asrwt>
<pdfrwt beam="1">0</pdfrwt>
<pdfrwt beam="2">  1        2 0.37270452E+00 0.64029220E+03</pdfrwt>
<totfact> 0.50322032E+00</totfact>
</mgrwt>
</event>
<event>
 5    1  0.2368916E-004  0.6533501E+03  0.7818608E-02  0.9800513E-01
         13   -1    0    0    0    0  0.00000000000E+00  0.00000000000E+00  0.10000000000E+04  0.10000000000E+04  0.00000000000E+00 0. -1.
          2   -1    0    0  501    0 -0.00000000000E+00 -0.00000000000E+00 -0.10671660074E+03  0.10671660074E+03  0.00000000000E+00 0. -1.
    9000006    2    1    2  501    0  0.00000000000E+00  0.00000000000E+00  0.89328339926E+03  0.11067166007E+04  0.65335013811E+03 0.  0.
         13    1    3    3    0    0  0.19792127613E+03 -0.19862317843E+03  0.73055544689E+03  0.78251853623E+03  0.00000000000E+00 0. -1.
          4    1    3    3  501    0 -0.19792127613E+03  0.19862317843E+03  0.16272795236E+03  0.32419806451E+03  0.00000000000E+00 0. -1.
<mgrwt>
<rscale>  0 0.65335014E+03</rscale>
<asrwt>0</asrwt>
<pdfrwt beam="1">0</pdfrwt>
<pdfrwt beam="2">  1        2 0.38806118E+00 0.65335014E+03</pdfrwt>
<totfact> 0.44120122E+00</totfact>
</mgrwt>
</event>
<event>
 5    1  0.2368916E-004  0.6569730E+03  0.7818608E-02  0.9793782E-01
         13   -1    0    0    0    0  0.00000000000E+00  0.00000000000E+00  0.10000000000E+04  0.10000000000E+04  0.00000000000E+00 0. -1.
          2   -1    0    0  501    0 -0.00000000000E+00 -0.00000000000E+00 -0.10790338405E+03  0.10790338405E+03  0.00000000000E+00 0. -1.
    9000006    2    1    2  501    0  0.00000000000E+00  0.00000000000E+00  0.89209661595E+03  0.11079033840E+04  0.65697301025E+03 0.  0.
         13    1    3    3    0    0  0.28912550446E+03  0.15147485292E+03  0.50835745539E+03  0.60412373803E+03  0.00000000000E+00 0. -1.
          2    1    3    3  501    0 -0.28912550446E+03 -0.15147485292E+03  0.38373916056E+03  0.50377964602E+03  0.00000000000E+00 0. -1.
<mgrwt>
<rscale>  0 0.65697301E+03</rscale>
<asrwt>0</asrwt>
<pdfrwt beam="1">0</pdfrwt>
<pdfrwt beam="2">  1        2 0.39237677E+00 0.65697301E+03</pdfrwt>
<totfact> 0.42506782E+00</totfact>
</mgrwt>
</event>
<event>
 5    1  0.2368916E-004  0.5948487E+03  0.7818608E-02  0.9916151E-01
         13   -1    0    0    0    0  0.00000000000E+00  0.00000000000E+00  0.10000000000E+04  0.10000000000E+04  0.00000000000E+00 0. -1.
          2   -1    0    0  501    0 -0.00000000000E+00 -0.00000000000E+00 -0.88461233545E+02  0.88461233545E+02  0.00000000000E+00 0. -1.
    9000006    2    1    2  501    0  0.00000000000E+00  0.00000000000E+00  0.91153876645E+03  0.10884612335E+04  0.59484866494E+03 0.  0.
         13    1    3    3    0    0  0.13130796637E+02  0.24297172454E+03  0.14280435308E+03  0.28213606648E+03  0.00000000000E+00 0. -1.
          4    1    3    3  501    0 -0.13130796637E+02 -0.24297172454E+03  0.76873441337E+03  0.80632516707E+03  0.00000000000E+00 0. -1.
<mgrwt>
<rscale>  0 0.59484866E+03</rscale>
<asrwt>0</asrwt>
<pdfrwt beam="1">0</pdfrwt>
<pdfrwt beam="2">  1        2 0.32167789E+00 0.59484866E+03</pdfrwt>
<totfact> 0.77192381E+00</totfact>
</mgrwt>
</event>
<event>
 5    1  0.2368916E-004  0.6517631E+03  0.7818608E-02  0.9803476E-01
         13   -1    0    0    0    0  0.00000000000E+00  0.00000000000E+00  0.10000000000E+04  0.10000000000E+04  0.00000000000E+00 0. -1.
          2   -1    0    0  501    0 -0.00000000000E+00 -0.00000000000E+00 -0.10619878860E+03  0.10619878860E+03  0.00000000000E+00 0. -1.
    9000006    2    1    2  501    0  0.00000000000E+00  0.00000000000E+00  0.89380121140E+03  0.11061987886E+04  0.65176311217E+03 0.  0.
         13    1    3    3    0    0 -0.32461624110E+03  0.60368202267E+01  0.39929788178E+03  0.51463671223E+03  0.00000000000E+00 0. -1.
          2    1    3    3  501    0  0.32461624110E+03 -0.60368202267E+01  0.49450332963E+03  0.59156207637E+03  0.00000000000E+00 0. -1.
<mgrwt>
<rscale>  0 0.65176311E+03</rscale>
<asrwt>0</asrwt>
<pdfrwt beam="1">0</pdfrwt>
<pdfrwt beam="2">  1        2 0.38617823E+00 0.65176311E+03</pdfrwt>
<totfact> 0.44841240E+00</totfact>
</mgrwt>
</event>
<event>
 5    1  0.2368916E-004  0.6430493E+03  0.7818608E-02  0.9819910E-01
         13   -1    0    0    0    0  0.00000000000E+00  0.00000000000E+00  0.10000000000E+04  0.10000000000E+04  0.00000000000E+00 0. -1.
          2   -1    0    0  501    0 -0.00000000000E+00 -0.00000000000E+00 -0.10337810241E+03  0.10337810241E+03  0.00000000000E+00 0. -1.
    9000006    2    1    2  501    0  0.00000000000E+00  0.00000000000E+00  0.89662189759E+03  0.11033781024E+04  0.64304930576E+03 0.  0.
         13    1    3    3    0    0 -0.22449281955E+03 -0.19306855884E+03  0.23327678551E+03  0.37694900597E+03  0.00000000000E+00 0. -1.
          2    1    3    3  501    0  0.22449281955E+03  0.19306855884E+03  0.66334511208E+03  0.72642909644E+03  0.00000000000E+00 0. -1.
<mgrwt>
<rscale>  0 0.64304931E+03</rscale>
<asrwt>0</asrwt>
<pdfrwt beam="1">0</pdfrwt>
<pdfrwt beam="2">  1        2 0.37592117E+00 0.64304931E+03</pdfrwt>
<totfact> 0.48960740E+00</totfact>
</mgrwt>
</event>
<event>
 5    1  0.2368916E-004  0.6215970E+03  0.7818608E-02  0.9861585E-01
         13   -1    0    0    0    0  0.00000000000E+00  0.00000000000E+00  0.10000000000E+04  0.10000000000E+04  0.00000000000E+00 0. -1.
          2   -1    0    0  501    0 -0.00000000000E+00 -0.00000000000E+00 -0.96595706606E+02  0.96595706606E+02  0.00000000000E+00 0. -1.
    9000006    2    1    2  501    0  0.00000000000E+00  0.00000000000E+00  0.90340429339E+03  0.10965957066E+04  0.62159699680E+03 0.  0.
         13    1    3    3    0    0  0.24290247137E+03  0.69130930978E+02  0.13212633054E+03  0.28502291739E+03  0.00000000000E+00 0. -1.
          4    1    3    3  501    0 -0.24290247137E+03 -0.69130930978E+02  0.77127796285E+03  0.81157278922E+03  0.00000000000E+00 0. -1.
<mgrwt>
<rscale>  0 0.62159700E+03</rscale>
<asrwt>0</asrwt>
<pdfrwt beam="1">0</pdfrwt>
<pdfrwt beam="2">  1        2 0.35125786E+00 0.62159700E+03</pdfrwt>
<totfact> 0.60325686E+00</totfact>
</mgrwt>
</event>
<event>
 5    1  0.2368916E-004  0.6415022E+03  0.7818608E-02  0.9822857E-01
         13   -1    0    0    0    0  0.00000000000E+00  0.00000000000E+00  0.10000000000E+04  0.10000000000E+04  0.00000000000E+00 0. -1.
          2   -1    0    0  501    0 -0.00000000000E+00 -0.00000000000E+00 -0.10288125824E+03  0.10288125824E+03  0.00000000000E+00 0. -1.
    9000006    2    1    2  501    0  0.00000000000E+00  0.00000000000E+00  0.89711874176E+03  0.11028812582E+04  0.64150216910E+03 0.  0.
         13    1    3    3    0    0 -0.21451080904E+03 -0.22014848667E+03  0.29098103712E+03  0.42326139364E+03  0.00000000000E+00 0. -1.
          2    1    3    3  501    0  0.21451080904E+03  0.22014848667E+03  0.60613770464E+03  0.67961986460E+03  0.00000000000E+00 0. -1.
<mgrwt>
<rscale>  0 0.64150217E+03</rscale>
<asrwt>0</asrwt>
<pdfrwt beam="1">0</pdfrwt>
<pdfrwt beam="2">  1        2 0.37411446E+00 0.64150217E+03</pdfrwt>
<totfact> 0.49721135E+00</totfact>
</mgrwt>
</event>
<event>
 5    1  0.2368916E-004  0.6419158E+03  0.7818608E-02  0.9822068E-01
         13   -1    0    0    0    0  0.00000000000E+00  0.00000000000E+00  0.10000000000E+04  0.10000000000E+04  0.00000000000E+00 0. -1.
          2   -1    0    0  501    0 -0.00000000000E+00 -0.00000000000E+00 -0.10301398555E+03  0.10301398555E+03  0.00000000000E+00 0. -1.
    9000006    2    1    2  501    0  0.00000000000E+00  0.00000000000E+00  0.89698601445E+03  0.11030139856E+04  0.64191583733E+03 0.  0.
         13    1    3    3    0    0  0.28092903631E+03  0.15473836244E+03  0.42752524081E+03  0.53445571920E+03  0.00000000000E+00 0. -1.
          4    1    3    3  501    0 -0.28092903631E+03 -0.15473836244E+03  0.46946077364E+03  0.56855826635E+03  0.00000000000E+00 0. -1.
<mgrwt>
<rscale>  0 0.64191584E+03</rscale>
<asrwt>0</asrwt>
<pdfrwt beam="1">0</pdfrwt>
<pdfrwt beam="2">  1        2 0.37459710E+00 0.64191584E+03</pdfrwt>
<totfact> 0.49516950E+00</totfact>
</mgrwt>
</event>
<event>
 5    1  0.2368916E-004  0.6510261E+03  0.7818608E-02  0.9804856E-01
         13   -1    0    0    0    0  0.00000000000E+00  0.00000000000E+00  0.10000000000E+04  0.10000000000E+04  0.00000000000E+00 0. -1.
          2   -1    0    0  501    0 -0.00000000000E+00 -0.00000000000E+00 -0.10595874361E+03  0.10595874361E+03  0.00000000000E+00 0. -1.
    9000006    2    1    2  501    0  0.00000000000E+00  0.00000000000E+00  0.89404125639E+03  0.11059587436E+04  0.65102609352E+03 0.  0.
         13    1    3    3    0    0  0.20195065092E+03  0.20903822508E+03  0.69598339578E+03  0.75423731819E+03  0.00000000000E+00 0. -1.
          2    1    3    3  501    0 -0.20195065092E+03 -0.20903822508E+03  0.19805786061E+03  0.35172142542E+03  0.00000000000E+00 0. -1.
<mgrwt>
<rscale>  0 0.65102609E+03</rscale>
<asrwt>0</asrwt>
<pdfrwt beam="1">0</pdfrwt>
<pdfrwt beam="2">  1        2 0.38530533E+00 0.65102609E+03</pdfrwt>
<totfact> 0.45179141E+00</totfact>
</mgrwt>
</event>
<event>
 5    1  0.2368916E-004  0.6425394E+03  0.7818608E-02  0.9820880E-01
         13   -1    0    0    0    0  0.00000000000E+00  0.00000000000E+00  0.10000000000E+04  0.10000000000E+04  0.00000000000E+00 0. -1.
          2   -1    0    0  501    0 -0.00000000000E+00 -0.00000000000E+00 -0.10321422715E+03  0.10321422715E+03  0.00000000000E+00 0. -1.
    9000006    2    1    2  501    0  0.00000000000E+00  0.00000000000E+00  0.89678577285E+03  0.11032142271E+04  0.64253942182E+03 0.  0.
         13    1    3    3    0    0  0.16761269443E+03 -0.11646946000E+03  0.87437563768E+03  0.89788189993E+03  0.00000000000E+00 0. -1.
          2    1    3    3  501    0 -0.16761269443E+03  0.11646946000E+03  0.22410135169E+02  0.20533232722E+03  0.00000000000E+00 0. -1.
<mgrwt>
<rscale>  0 0.64253942E+03</rscale>
<asrwt>0</asrwt>
<pdfrwt beam="1">0</pdfrwt>
<pdfrwt beam="2">  1        2 0.37532525E+00 0.64253942E+03</pdfrwt>
<totfact> 0.49210351E+00</totfact>
</mgrwt>
</event>
<event>
 5    1  0.2368916E-004  0.6230122E+03  0.7818608E-02  0.9858781E-01
         13   -1    0    0    0    0  0.00000000000E+00  0.00000000000E+00  0.10000000000E+04  0.10000000000E+04  0.00000000000E+00 0. -1.
          2   -1    0    0  501    0 -0.00000000000E+00 -0.00000000000E+00 -0.97036038925E+02  0.97036038925E+02  0.00000000000E+00 0. -1.
    9000006    2    1    2  501    0  0.00000000000E+00  0.00000000000E+00  0.90296396107E+03  0.10970360389E+04  0.62301216336E+03 0.  0.
         13    1    3    3    0    0  0.10451869290E+03 -0.25137045405E+03  0.71809228156E+03  0.76796340223E+03  0.00000000000E+00 0. -1.
          4    1    3    3  501    0 -0.10451869290E+03  0.25137045405E+03  0.18487167952E+03  0.32907263669E+03  0.00000000000E+00 0. -1.
<mgrwt>
<rscale>  0 0.62301216E+03</rscale>
<asrwt>0</asrwt>
<pdfrwt beam="1">0</pdfrwt>
<pdfrwt beam="2">  1        2 0.35285907E+00 0.62301216E+03</pdfrwt>
<totfact> 0.59519580E+00</totfact>
</mgrwt>
</event>
<event>
 5    1  0.2368916E-004  0.6224959E+03  0.7818608E-02  0.9859803E-01
         13   -1    0    0    0    0  0.00000000000E+00  0.00000000000E+00  0.10000000000E+04  0.10000000000E+04  0.00000000000E+00 0. -1.
          2   -1    0    0  501    0 -0.00000000000E+00 -0.00000000000E+00 -0.96875295206E+02  0.96875295206E+02  0.00000000000E+00 0. -1.
    9000006    2    1    2  501    0  0.00000000000E+00  0.00000000000E+00  0.90312470479E+03  0.10968752952E+04  0.62249592836E+03 0.  0.
         13    1    3    3    0    0 -0.47611896386E+02 -0.30645839090E+03  0.49790343591E+03  0.58659310388E+03  0.00000000000E+00 0. -1.
          2    1    3    3  501    0  0.47611896386E+02  0.30645839090E+03  0.40522126888E+03  0.51028219132E+03  0.00000000000E+00 0. -1.
<mgrwt>
<rscale>  0 0.62249593E+03</rscale>
<asrwt>0</asrwt>
<pdfrwt beam="1">0</pdfrwt>
<pdfrwt beam="2">  1        2 0.35227454E+00 0.62249593E+03</pdfrwt>
<totfact> 0.59812682E+00</totfact>
</mgrwt>
</event>
<event>
 5    1  0.2368916E-004  0.6337891E+03  0.7818608E-02  0.9837683E-01
         13   -1    0    0    0    0  0.00000000000E+00  0.00000000000E+00  0.10000000000E+04  0.10000000000E+04  0.00000000000E+00 0. -1.
          2   -1    0    0  501    0 -0.00000000000E+00 -0.00000000000E+00 -0.10042214224E+03  0.10042214224E+03  0.00000000000E+00 0. -1.
    9000006    2    1    2  501    0  0.00000000000E+00  0.00000000000E+00  0.89957785776E+03  0.11004221422E+04  0.63378905713E+03 0.  0.
         13    1    3    3    0    0  0.12185052017E+03 -0.21150143776E+03  0.80067544097E+03  0.83705529639E+03  0.00000000000E+00 0. -1.
          4    1    3    3  501    0 -0.12185052017E+03  0.21150143776E+03  0.98902416792E+02  0.26336684584E+03  0.00000000000E+00 0. -1.
<mgrwt>
<rscale>  0 0.63378906E+03</rscale>
<asrwt>0</asrwt>
<pdfrwt beam="1">0</pdfrwt>
<pdfrwt beam="2">  1        2 0.36517220E+00 0.63378906E+03</pdfrwt>
<totfact> 0.53646462E+00</totfact>
</mgrwt>
</event>
<event>
 5    1  0.2368916E-004  0.6697161E+03  0.7818608E-02  0.9770471E-01
         13   -1    0    0    0    0  0.00000000000E+00  0.00000000000E+00  0.10000000000E+04  0.10000000000E+04  0.00000000000E+00 0. -1.
          2   -1    0    0  501    0 -0.00000000000E+00 -0.00000000000E+00 -0.11212992014E+03  0.11212992014E+03  0.00000000000E+00 0. -1.
    9000006    2    1    2  501    0  0.00000000000E+00  0.00000000000E+00  0.88787007986E+03  0.11121299201E+04  0.66971611938E+03 0.  0.
         13    1    3    3    0    0 -0.23958933753E+03 -0.23354272136E+03  0.46650127779E+03  0.57408073956E+03  0.00000000000E+00 0. -1.
          2    1    3    3  501    0  0.23958933753E+03  0.23354272136E+03  0.42136880208E+03  0.53804918058E+03  0.00000000000E+00 0. -1.
<mgrwt>
<rscale>  0 0.66971612E+03</rscale>
<asrwt>0</asrwt>
<pdfrwt beam="1">0</pdfrwt>
<pdfrwt beam="2">  1        2 0.40774602E+00 0.66971612E+03</pdfrwt>
<totfact> 0.37183696E+00</totfact>
</mgrwt>
</event>
<event>
 5    1  0.2368916E-004  0.6577502E+03  0.7818608E-02  0.9792344E-01
         13   -1    0    0    0    0  0.00000000000E+00  0.00000000000E+00  0.10000000000E+04  0.10000000000E+04  0.00000000000E+00 0. -1.
          2   -1    0    0  501    0 -0.00000000000E+00 -0.00000000000E+00 -0.10815883517E+03  0.10815883517E+03  0.00000000000E+00 0. -1.
    9000006    2    1    2  501    0  0.00000000000E+00  0.00000000000E+00  0.89184116483E+03  0.11081588352E+04  0.65775021145E+03 0.  0.
         13    1    3    3    0    0  0.18316683916E+03 -0.16474466296E+03  0.78857074774E+02  0.25866838458E+03  0.00000000000E+00 0. -1.
          2    1    3    3  501    0 -0.18316683916E+03  0.16474466296E+03  0.81298409006E+03  0.84949045058E+03  0.00000000000E+00 0. -1.
<mgrwt>
<rscale>  0 0.65775021E+03</rscale>
<asrwt>0</asrwt>
<pdfrwt beam="1">0</pdfrwt>
<pdfrwt beam="2">  1        2 0.39330568E+00 0.65775021E+03</pdfrwt>
<totfact> 0.42166564E+00</totfact>
</mgrwt>
</event>
<event>
 5    1  0.2368916E-004  0.6517181E+03  0.7818608E-02  0.9803561E-01
         13   -1    0    0    0    0  0.00000000000E+00  0.00000000000E+00  0.10000000000E+04  0.10000000000E+04  0.00000000000E+00 0. -1.
          2   -1    0    0  501    0 -0.00000000000E+00 -0.00000000000E+00 -0.10618411861E+03  0.10618411861E+03  0.00000000000E+00 0. -1.
    9000006    2    1    2  501    0  0.00000000000E+00  0.00000000000E+00  0.89381588139E+03  0.11061841186E+04  0.65171809431E+03 0.  0.
         13    1    3    3    0    0  0.26576221797E+03  0.18266822714E+03  0.36753358618E+03  0.48895620936E+03  0.00000000000E+00 0. -1.
          2    1    3    3  501    0 -0.26576221797E+03 -0.18266822714E+03  0.52628229521E+03  0.61722790925E+03  0.00000000000E+00 0. -1.
<mgrwt>
<rscale>  0 0.65171809E+03</rscale>
<asrwt>0</asrwt>
<pdfrwt beam="1">0</pdfrwt>
<pdfrwt beam="2">  1        2 0.38612488E+00 0.65171809E+03</pdfrwt>
<totfact> 0.44861825E+00</totfact>
</mgrwt>
</event>
<event>
 5    1  0.2368916E-004  0.6322351E+03  0.7818608E-02  0.9840697E-01
         13   -1    0    0    0    0  0.00000000000E+00  0.00000000000E+00  0.10000000000E+04  0.10000000000E+04  0.00000000000E+00 0. -1.
          2   -1    0    0  501    0 -0.00000000000E+00 -0.00000000000E+00 -0.99930301178E+02  0.99930301178E+02  0.00000000000E+00 0. -1.
    9000006    2    1    2  501    0  0.00000000000E+00  0.00000000000E+00  0.90006969882E+03  0.10999303012E+04  0.63223508659E+03 0.  0.
         13    1    3    3    0    0  0.67858769152E+02 -0.50169576164E+02  0.98004044470E+03  0.98366715517E+03  0.00000000000E+00 0. -1.
          2    1    3    3  501    0 -0.67858769152E+02  0.50169576164E+02 -0.79970745875E+02  0.11626314601E+03  0.00000000000E+00 0. -1.
<mgrwt>
<rscale>  0 0.63223509E+03</rscale>
<asrwt>0</asrwt>
<pdfrwt beam="1">0</pdfrwt>
<pdfrwt beam="2">  1        2 0.36338368E+00 0.63223509E+03</pdfrwt>
<totfact> 0.54464912E+00</totfact>
</mgrwt>
</event>
<event>
 5    1  0.2368916E-004  0.6538811E+03  0.7818608E-02  0.9799524E-01
         13   -1    0    0    0    0  0.00000000000E+00  0.00000000000E+00  0.10000000000E+04  0.10000000000E+04  0.00000000000E+00 0. -1.
          2   -1    0    0  501    0 -0.00000000000E+00 -0.00000000000E+00 -0.10689011021E+03  0.10689011021E+03  0.00000000000E+00 0. -1.
    9000006    2    1    2  501    0  0.00000000000E+00  0.00000000000E+00  0.89310988979E+03  0.11068901102E+04  0.65388106015E+03 0.  0.
         13    1    3    3    0    0  0.14106112144E+03 -0.29137937772E+03  0.36916733047E+03  0.49100376743E+03  0.00000000000E+00 0. -1.
          2    1    3    3  501    0 -0.14106112144E+03  0.29137937772E+03  0.52394255933E+03  0.61588634278E+03  0.00000000000E+00 0. -1.
<mgrwt>
<rscale>  0 0.65388106E+03</rscale>
<asrwt>0</asrwt>
<pdfrwt beam="1">0</pdfrwt>
<pdfrwt beam="2">  1        2 0.38869213E+00 0.65388106E+03</pdfrwt>
<totfact> 0.43880847E+00</totfact>
</mgrwt>
</event>
<event>
 5    1  0.2368916E-004  0.6580982E+03  0.7818608E-02  0.9791701E-01
         13   -1    0    0    0    0  0.00000000000E+00  0.00000000000E+00  0.10000000000E+04  0.10000000000E+04  0.00000000000E+00 0. -1.
          2   -1    0    0  501    0 -0.00000000000E+00 -0.00000000000E+00 -0.10827329970E+03  0.10827329970E+03  0.00000000000E+00 0. -1.
    9000006    2    1    2  501    0  0.00000000000E+00  0.00000000000E+00  0.89172670030E+03  0.11082732997E+04  0.65809816805E+03 0.  0.
         13    1    3    3    0    0 -0.20959147618E+03  0.24529601227E+03  0.33705492117E+03  0.46658840578E+03  0.00000000000E+00 0. -1.
          4    1    3    3  501    0  0.20959147618E+03 -0.24529601227E+03  0.55467177913E+03  0.64168489392E+03  0.00000000000E+00 0. -1.
<mgrwt>
<rscale>  0 0.65809817E+03</rscale>
<asrwt>0</asrwt>
<pdfrwt beam="1">0</pdfrwt>
<pdfrwt beam="2">  1        2 0.39372192E+00 0.65809817E+03</pdfrwt>
<totfact> 0.42014915E+00</totfact>
</mgrwt>
</event>
<event>
 5    1  0.2368916E-004  0.6211467E+03  0.7818608E-02  0.9862479E-01
         13   -1    0    0    0    0  0.00000000000E+00  0.00000000000E+00  0.10000000000E+04  0.10000000000E+04  0.00000000000E+00 0. -1.
          2   -1    0    0  501    0 -0.00000000000E+00 -0.00000000000E+00 -0.96455800755E+02  0.96455800755E+02  0.00000000000E+00 0. -1.
    9000006    2    1    2  501    0  0.00000000000E+00  0.00000000000E+00  0.90354419925E+03  0.10964558008E+04  0.62114668398E+03 0.  0.
         13    1    3    3    0    0  0.18823311740E+03  0.99299282210E+02  0.52491573556E+02  0.21919721537E+03  0.00000000000E+00 0. -1.
          2    1    3    3  501    0 -0.18823311740E+03 -0.99299282210E+02  0.85105262569E+03  0.87725858538E+03  0.00000000000E+00 0. -1.
<mgrwt>
<rscale>  0 0.62114668E+03</rscale>
<asrwt>0</asrwt>
<pdfrwt beam="1">0</pdfrwt>
<pdfrwt beam="2">  1        2 0.35074911E+00 0.62114668E+03</pdfrwt>
<totfact> 0.60583926E+00</totfact>
</mgrwt>
</event>
<event>
 5    1  0.2368916E-004  0.6477764E+03  0.7818608E-02  0.9810961E-01
         13   -1    0    0    0    0  0.00000000000E+00  0.00000000000E+00  0.10000000000E+04  0.10000000000E+04  0.00000000000E+00 0. -1.
          2   -1    0    0  501    0 -0.00000000000E+00 -0.00000000000E+00 -0.10490356322E+03  0.10490356322E+03  0.00000000000E+00 0. -1.
    9000006    2    1    2  501    0  0.00000000000E+00  0.00000000000E+00  0.89509643678E+03  0.11049035632E+04  0.64777639112E+03 0.  0.
         13    1    3    3    0    0  0.27000522807E+03 -0.13347619857E+03  0.65069574894E+03  0.71702418122E+03  0.00000000000E+00 0. -1.
          2    1    3    3  501    0 -0.27000522807E+03  0.13347619857E+03  0.24440068783E+03  0.38787938200E+03  0.00000000000E+00 0. -1.
<mgrwt>
<rscale>  0 0.64777639E+03</rscale>
<asrwt>0</asrwt>
<pdfrwt beam="1">0</pdfrwt>
<pdfrwt beam="2">  1        2 0.38146831E+00 0.64777639E+03</pdfrwt>
<totfact> 0.46692034E+00</totfact>
</mgrwt>
</event>
<event>
 5    1  0.2368916E-004  0.6536904E+03  0.7818608E-02  0.9799879E-01
         13   -1    0    0    0    0  0.00000000000E+00  0.00000000000E+00  0.10000000000E+04  0.10000000000E+04  0.00000000000E+00 0. -1.
          2   -1    0    0  501    0 -0.00000000000E+00 -0.00000000000E+00 -0.10682779280E+03  0.10682779280E+03  0.00000000000E+00 0. -1.
    9000006    2    1    2  501    0  0.00000000000E+00  0.00000000000E+00  0.89317220720E+03  0.11068277928E+04  0.65369042459E+03 0.  0.
         13    1    3    3    0    0 -0.27727516051E+03 -0.12230198097E+03  0.23929194172E+03  0.38613459124E+03  0.00000000000E+00 0. -1.
          4    1    3    3  501    0  0.27727516051E+03  0.12230198097E+03  0.65388026548E+03  0.72069320156E+03  0.00000000000E+00 0. -1.
<mgrwt>
<rscale>  0 0.65369042E+03</rscale>
<asrwt>0</asrwt>
<pdfrwt beam="1">0</pdfrwt>
<pdfrwt beam="2">  1        2 0.38846552E+00 0.65369042E+03</pdfrwt>
<totfact> 0.43966649E+00</totfact>
</mgrwt>
</event>
<event>
 5    1  0.2368916E-004  0.6451837E+03  0.7818608E-02  0.9815859E-01
         13   -1    0    0    0    0  0.00000000000E+00  0.00000000000E+00  0.10000000000E+04  0.10000000000E+04  0.00000000000E+00 0. -1.
          2   -1    0    0  501    0 -0.00000000000E+00 -0.00000000000E+00 -0.10406549305E+03  0.10406549305E+03  0.00000000000E+00 0. -1.
    9000006    2    1    2  501    0  0.00000000000E+00  0.00000000000E+00  0.89593450695E+03  0.11040654930E+04  0.64518367322E+03 0.  0.
         13    1    3    3    0    0  0.30046374754E+03 -0.51601243097E+02  0.62845537193E+03  0.69849646126E+03  0.00000000000E+00 0. -1.
          2    1    3    3  501    0 -0.30046374754E+03  0.51601243097E+02  0.26747913502E+03  0.40556903179E+03  0.00000000000E+00 0. -1.
<mgrwt>
<rscale>  0 0.64518367E+03</rscale>
<asrwt>0</asrwt>
<pdfrwt beam="1">0</pdfrwt>
<pdfrwt beam="2">  1        2 0.37842077E+00 0.64518367E+03</pdfrwt>
<totfact> 0.47926289E+00</totfact>
</mgrwt>
</event>
<event>
 5    1  0.2368916E-004  0.6360360E+03  0.7818608E-02  0.9833340E-01
         13   -1    0    0    0    0  0.00000000000E+00  0.00000000000E+00  0.10000000000E+04  0.10000000000E+04  0.00000000000E+00 0. -1.
          2   -1    0    0  501    0 -0.00000000000E+00 -0.00000000000E+00 -0.10113545766E+03  0.10113545766E+03  0.00000000000E+00 0. -1.
    9000006    2    1    2  501    0  0.00000000000E+00  0.00000000000E+00  0.89886454234E+03  0.11011354577E+04  0.63603602936E+03 0.  0.
         13    1    3    3    0    0 -0.26302023729E+03  0.17876179657E+03  0.44974451030E+03  0.55082261180E+03  0.00000000000E+00 0. -1.
          2    1    3    3  501    0  0.26302023729E+03 -0.17876179657E+03  0.44912003204E+03  0.55031284586E+03  0.00000000000E+00 0. -1.
<mgrwt>
<rscale>  0 0.63603603E+03</rscale>
<asrwt>0</asrwt>
<pdfrwt beam="1">0</pdfrwt>
<pdfrwt beam="2">  1        2 0.36776608E+00 0.63603603E+03</pdfrwt>
<totfact> 0.52479551E+00</totfact>
</mgrwt>
</event>
<event>
 5    1  0.2368916E-004  0.6526624E+03  0.7818608E-02  0.9801796E-01
         13   -1    0    0    0    0  0.00000000000E+00  0.00000000000E+00  0.10000000000E+04  0.10000000000E+04  0.00000000000E+00 0. -1.
          2   -1    0    0  501    0 -0.00000000000E+00 -0.00000000000E+00 -0.10649206538E+03  0.10649206538E+03  0.00000000000E+00 0. -1.
    9000006    2    1    2  501    0  0.00000000000E+00  0.00000000000E+00  0.89350793462E+03  0.11064920654E+04  0.65266244073E+03 0.  0.
         13    1    3    3    0    0 -0.16230405234E+02  0.13020671091E+03  0.95330622123E+03  0.96229411567E+03  0.00000000000E+00 0. -1.
          4    1    3    3  501    0  0.16230405234E+02 -0.13020671091E+03 -0.59798286615E+02  0.14419794971E+03  0.00000000000E+00 0. -1.
<mgrwt>
<rscale>  0 0.65266244E+03</rscale>
<asrwt>0</asrwt>
<pdfrwt beam="1">0</pdfrwt>
<pdfrwt beam="2">  1        2 0.38724469E+00 0.65266244E+03</pdfrwt>
<totfact> 0.44431516E+00</totfact>
</mgrwt>
</event>
<event>
 5    1  0.2368916E-004  0.6559847E+03  0.7818608E-02  0.9795614E-01
         13   -1    0    0    0    0  0.00000000000E+00  0.00000000000E+00  0.10000000000E+04  0.10000000000E+04  0.00000000000E+00 0. -1.
          2   -1    0    0  501    0 -0.00000000000E+00 -0.00000000000E+00 -0.10757899529E+03  0.10757899529E+03  0.00000000000E+00 0. -1.
    9000006    2    1    2  501    0  0.00000000000E+00  0.00000000000E+00  0.89242100471E+03  0.11075789953E+04  0.65598474155E+03 0.  0.
         13    1    3    3    0    0 -0.20227395529E+03  0.15461773524E+03  0.97080135732E+02  0.27248109988E+03  0.00000000000E+00 0. -1.
          4    1    3    3  501    0  0.20227395529E+03 -0.15461773524E+03  0.79534086898E+03  0.83509789541E+03  0.00000000000E+00 0. -1.
<mgrwt>
<rscale>  0 0.65598474E+03</rscale>
<asrwt>0</asrwt>
<pdfrwt beam="1">0</pdfrwt>
<pdfrwt beam="2">  1        2 0.39119717E+00 0.65598474E+03</pdfrwt>
<totfact> 0.42942384E+00</totfact>
</mgrwt>
</event>
<event>
 5    1  0.2368916E-004  0.6156509E+03  0.7818608E-02  0.9873457E-01
         13   -1    0    0    0    0  0.00000000000E+00  0.00000000000E+00  0.10000000000E+04  0.10000000000E+04  0.00000000000E+00 0. -1.
          2   -1    0    0  501    0 -0.00000000000E+00 -0.00000000000E+00 -0.94756514395E+02  0.94756514395E+02  0.00000000000E+00 0. -1.
    9000006    2    1    2  501    0  0.00000000000E+00  0.00000000000E+00  0.90524348561E+03  0.10947565144E+04  0.61565092185E+03 0.  0.
         13    1    3    3    0    0  0.80940720406E+01 -0.28969016739E+03  0.63716708999E+03  0.69997700509E+03  0.00000000000E+00 0. -1.
          2    1    3    3  501    0 -0.80940720406E+01  0.28969016739E+03  0.26807639561E+03  0.39477950931E+03  0.00000000000E+00 0. -1.
<mgrwt>
<rscale>  0 0.61565092E+03</rscale>
<asrwt>0</asrwt>
<pdfrwt beam="1">0</pdfrwt>
<pdfrwt beam="2">  1        2 0.34456987E+00 0.61565092E+03</pdfrwt>
<totfact> 0.63803876E+00</totfact>
</mgrwt>
</event>
<event>
 5    1  0.2368916E-004  0.6472416E+03  0.7818608E-02  0.9811969E-01
         13   -1    0    0    0    0  0.00000000000E+00  0.00000000000E+00  0.10000000000E+04  0.10000000000E+04  0.00000000000E+00 0. -1.
          2   -1    0    0  501    0 -0.00000000000E+00 -0.00000000000E+00 -0.10473043277E+03  0.10473043277E+03  0.00000000000E+00 0. -1.
    9000006    2    1    2  501    0  0.00000000000E+00  0.00000000000E+00  0.89526956723E+03  0.11047304328E+04  0.64724163267E+03 0.  0.
         13    1    3    3    0    0  0.87545585044E+02 -0.74157798020E+02  0.96412125397E+03  0.97092399333E+03  0.00000000000E+00 0. -1.
          4    1    3    3  501    0 -0.87545585044E+02  0.74157798020E+02 -0.68851686735E+02  0.13380643943E+03  0.00000000000E+00 0. -1.
<mgrwt>
<rscale>  0 0.64724163E+03</rscale>
<asrwt>0</asrwt>
<pdfrwt beam="1">0</pdfrwt>
<pdfrwt beam="2">  1        2 0.38083874E+00 0.64724163E+03</pdfrwt>
<totfact> 0.46944613E+00</totfact>
</mgrwt>
</event>
<event>
 5    1  0.2368916E-004  0.6385820E+03  0.7818608E-02  0.9828443E-01
         13   -1    0    0    0    0  0.00000000000E+00  0.00000000000E+00  0.10000000000E+04  0.10000000000E+04  0.00000000000E+00 0. -1.
          2   -1    0    0  501    0 -0.00000000000E+00 -0.00000000000E+00 -0.10194672850E+03  0.10194672850E+03  0.00000000000E+00 0. -1.
    9000006    2    1    2  501    0  0.00000000000E+00  0.00000000000E+00  0.89805327150E+03  0.11019467285E+04  0.63858195559E+03 0.  0.
         13    1    3    3    0    0  0.16051898963E+03  0.16776991953E+03  0.70830844699E+02  0.24275522753E+03  0.00000000000E+00 0. -1.
          2    1    3    3  501    0 -0.16051898963E+03 -0.16776991953E+03  0.82722242680E+03  0.85919150097E+03  0.00000000000E+00 0. -1.
<mgrwt>
<rscale>  0 0.63858196E+03</rscale>
<asrwt>0</asrwt>
<pdfrwt beam="1">0</pdfrwt>
<pdfrwt beam="2">  1        2 0.37071616E+00 0.63858196E+03</pdfrwt>
<totfact> 0.51180743E+00</totfact>
</mgrwt>
</event>
<event>
 5    1  0.2368916E-004  0.6587607E+03  0.7818608E-02  0.9790478E-01
         13   -1    0    0    0    0  0.00000000000E+00  0.00000000000E+00  0.10000000000E+04  0.10000000000E+04  0.00000000000E+00 0. -1.
          2   -1    0    0  501    0 -0.00000000000E+00 -0.00000000000E+00 -0.10849141400E+03  0.10849141400E+03  0.00000000000E+00 0. -1.
    9000006    2    1    2  501    0  0.00000000000E+00  0.00000000000E+00  0.89150858600E+03  0.11084914140E+04  0.65876069708E+03 0.  0.
         13    1    3    3    0    0  0.22818429161E+03  0.12668953003E+03  0.10764996166E+03  0.28232396675E+03  0.00000000000E+00 0. -1.
          4    1    3    3  501    0 -0.22818429161E+03 -0.12668953003E+03  0.78385862434E+03  0.82616744726E+03  0.00000000000E+00 0. -1.
<mgrwt>
<rscale>  0 0.65876070E+03</rscale>
<asrwt>0</asrwt>
<pdfrwt beam="1">0</pdfrwt>
<pdfrwt beam="2">  1        2 0.39451506E+00 0.65876070E+03</pdfrwt>
<totfact> 0.41727325E+00</totfact>
</mgrwt>
</event>
<event>
 5    1  0.2368916E-004  0.6462218E+03  0.7818608E-02  0.9813895E-01
         13   -1    0    0    0    0  0.00000000000E+00  0.00000000000E+00  0.10000000000E+04  0.10000000000E+04  0.00000000000E+00 0. -1.
          2   -1    0    0  501    0 -0.00000000000E+00 -0.00000000000E+00 -0.10440064983E+03  0.10440064983E+03  0.00000000000E+00 0. -1.
    9000006    2    1    2  501    0  0.00000000000E+00  0.00000000000E+00  0.89559935017E+03  0.11044006498E+04  0.64622178803E+03 0.  0.
         13    1    3    3    0    0  0.12830750946E+03  0.12921824560E+03  0.90395050445E+03  0.92210991020E+03  0.00000000000E+00 0. -1.
          2    1    3    3  501    0 -0.12830750946E+03 -0.12921824560E+03 -0.83511542868E+01  0.18229073964E+03  0.00000000000E+00 0. -1.
<mgrwt>
<rscale>  0 0.64622179E+03</rscale>
<asrwt>0</asrwt>
<pdfrwt beam="1">0</pdfrwt>
<pdfrwt beam="2">  1        2 0.37963953E+00 0.64622179E+03</pdfrwt>
<totfact> 0.47429173E+00</totfact>
</mgrwt>
</event>
<event>
 5    1  0.2368916E-004  0.6505728E+03  0.7818608E-02  0.9805705E-01
         13   -1    0    0    0    0  0.00000000000E+00  0.00000000000E+00  0.10000000000E+04  0.10000000000E+04  0.00000000000E+00 0. -1.
          2   -1    0    0  501    0 -0.00000000000E+00 -0.00000000000E+00 -0.10581124602E+03  0.10581124602E+03  0.00000000000E+00 0. -1.
    9000006    2    1    2  501    0  0.00000000000E+00  0.00000000000E+00  0.89418875398E+03  0.11058112460E+04  0.65057281229E+03 0.  0.
         13    1    3    3    0    0 -0.31133477538E+02 -0.27693224563E+03  0.73228026083E+03  0.78351460899E+03  0.00000000000E+00 0. -1.
          2    1    3    3  501    0  0.31133477538E+02  0.27693224563E+03  0.16190849314E+03  0.32229663703E+03  0.00000000000E+00 0. -1.
<mgrwt>
<rscale>  0 0.65057281E+03</rscale>
<asrwt>0</asrwt>
<pdfrwt beam="1">0</pdfrwt>
<pdfrwt beam="2">  1        2 0.38476898E+00 0.65057281E+03</pdfrwt>
<totfact> 0.45387909E+00</totfact>
</mgrwt>
</event>
<event>
 5    1  0.2368916E-004  0.6455919E+03  0.7818608E-02  0.9815086E-01
         13   -1    0    0    0    0  0.00000000000E+00  0.00000000000E+00  0.10000000000E+04  0.10000000000E+04  0.00000000000E+00 0. -1.
          2   -1    0    0  501    0 -0.00000000000E+00 -0.00000000000E+00 -0.10419722018E+03  0.10419722018E+03  0.00000000000E+00 0. -1.
    9000006    2    1    2  501    0  0.00000000000E+00  0.00000000000E+00  0.89580277982E+03  0.11041972202E+04  0.64559188403E+03 0.  0.
         13    1    3    3    0    0  0.19239442689E+03  0.36120108795E+02  0.88689207423E+03  0.90823886126E+03  0.00000000000E+00 0. -1.
          4    1    3    3  501    0 -0.19239442689E+03 -0.36120108795E+02  0.89107055862E+01  0.19595835893E+03  0.00000000000E+00 0. -1.
<mgrwt>
<rscale>  0 0.64559188E+03</rscale>
<asrwt>0</asrwt>
<pdfrwt beam="1">0</pdfrwt>
<pdfrwt beam="2">  1        2 0.37889978E+00 0.64559188E+03</pdfrwt>
<totfact> 0.47730344E+00</totfact>
</mgrwt>
</event>
<event>
 5    1  0.2368916E-004  0.6702374E+03  0.7818608E-02  0.9769529E-01
         13   -1    0    0    0    0  0.00000000000E+00  0.00000000000E+00  0.10000000000E+04  0.10000000000E+04  0.00000000000E+00 0. -1.
          2   -1    0    0  501    0 -0.00000000000E+00 -0.00000000000E+00 -0.11230454757E+03  0.11230454757E+03  0.00000000000E+00 0. -1.
    9000006    2    1    2  501    0  0.00000000000E+00  0.00000000000E+00  0.88769545243E+03  0.11123045476E+04  0.67023741338E+03 0.  0.
         13    1    3    3    0    0  0.23612205500E+02 -0.31809845532E+03  0.27330433207E+03  0.42004692768E+03  0.00000000000E+00 0. -1.
          4    1    3    3  501    0 -0.23612205500E+02  0.31809845532E+03  0.61439112036E+03  0.69225761989E+03  0.00000000000E+00 0. -1.
<mgrwt>
<rscale>  0 0.67023741E+03</rscale>
<asrwt>0</asrwt>
<pdfrwt beam="1">0</pdfrwt>
<pdfrwt beam="2">  1        2 0.40838103E+00 0.67023741E+03</pdfrwt>
<totfact> 0.36977232E+00</totfact>
</mgrwt>
</event>
<event>
 5    1  0.2368916E-004  0.6721504E+03  0.7818608E-02  0.9766081E-01
         13   -1    0    0    0    0  0.00000000000E+00  0.00000000000E+00  0.10000000000E+04  0.10000000000E+04  0.00000000000E+00 0. -1.
          2   -1    0    0  501    0 -0.00000000000E+00 -0.00000000000E+00 -0.11294654874E+03  0.11294654874E+03  0.00000000000E+00 0. -1.
    9000006    2    1    2  501    0  0.00000000000E+00  0.00000000000E+00  0.88705345126E+03  0.11129465487E+04  0.67215042584E+03 0.  0.
         13    1    3    3    0    0 -0.30900611262E+03 -0.12658275823E+03  0.38072460655E+03  0.50641800753E+03  0.00000000000E+00 0. -1.
          4    1    3    3  501    0  0.30900611262E+03  0.12658275823E+03  0.50632884471E+03  0.60652854121E+03  0.00000000000E+00 0. -1.
<mgrwt>
<rscale>  0 0.67215043E+03</rscale>
<asrwt>0</asrwt>
<pdfrwt beam="1">0</pdfrwt>
<pdfrwt beam="2">  1        2 0.41071559E+00 0.67215043E+03</pdfrwt>
<totfact> 0.36226958E+00</totfact>
</mgrwt>
</event>
<event>
 5    1  0.2368916E-004  0.6467874E+03  0.7818608E-02  0.9812826E-01
         13   -1    0    0    0    0  0.00000000000E+00  0.00000000000E+00  0.10000000000E+04  0.10000000000E+04  0.00000000000E+00 0. -1.
          2   -1    0    0  501    0 -0.00000000000E+00 -0.00000000000E+00 -0.10458347616E+03  0.10458347616E+03  0.00000000000E+00 0. -1.
    9000006    2    1    2  501    0  0.00000000000E+00  0.00000000000E+00  0.89541652384E+03  0.11045834762E+04  0.64678737206E+03 0.  0.
         13    1    3    3    0    0  0.15409309508E+03 -0.11435393101E+03  0.89226790016E+03  0.91266834565E+03  0.00000000000E+00 0. -1.
          4    1    3    3  501    0 -0.15409309508E+03  0.11435393101E+03  0.31486236753E+01  0.19191513052E+03  0.00000000000E+00 0. -1.
<mgrwt>
<rscale>  0 0.64678737E+03</rscale>
<asrwt>0</asrwt>
<pdfrwt beam="1">0</pdfrwt>
<pdfrwt beam="2">  1        2 0.38030435E+00 0.64678737E+03</pdfrwt>
<totfact> 0.47159982E+00</totfact>
</mgrwt>
</event>
<event>
 5    1  0.2368916E-004  0.6427960E+03  0.7818608E-02  0.9820392E-01
         13   -1    0    0    0    0  0.00000000000E+00  0.00000000000E+00  0.10000000000E+04  0.10000000000E+04  0.00000000000E+00 0. -1.
          2   -1    0    0  501    0 -0.00000000000E+00 -0.00000000000E+00 -0.10329668731E+03  0.10329668731E+03  0.00000000000E+00 0. -1.
    9000006    2    1    2  501    0  0.00000000000E+00  0.00000000000E+00  0.89670331269E+03  0.11032966873E+04  0.64279604017E+03 0.  0.
         13    1    3    3    0    0 -0.31782374823E+03 -0.17618188778E+02  0.37208558219E+03  0.48966316585E+03  0.00000000000E+00 0. -1.
          2    1    3    3  501    0  0.31782374823E+03  0.17618188778E+02  0.52461773049E+03  0.61363352146E+03  0.00000000000E+00 0. -1.
<mgrwt>
<rscale>  0 0.64279604E+03</rscale>
<asrwt>0</asrwt>
<pdfrwt beam="1">0</pdfrwt>
<pdfrwt beam="2">  1        2 0.37562511E+00 0.64279604E+03</pdfrwt>
<totfact> 0.49084601E+00</totfact>
</mgrwt>
</event>
<event>
 5    1  0.2368916E-004  0.6599507E+03  0.7818608E-02  0.9788284E-01
         13   -1    0    0    0    0  0.00000000000E+00  0.00000000000E+00  0.10000000000E+04  0.10000000000E+04  0.00000000000E+00 0. -1.
          2   -1    0    0  501    0 -0.00000000000E+00 -0.00000000000E+00 -0.10888373867E+03  0.10888373867E+03  0.00000000000E+00 0. -1.
    9000006    2    1    2  501    0  0.00000000000E+00  0.00000000000E+00  0.89111626133E+03  0.11088837387E+04  0.65995072140E+03 0.  0.
         13    1    3    3    0    0  0.32159013519E+02  0.15745402491E+03  0.92980255755E+03  0.94358824077E+03  0.00000000000E+00 0. -1.
          2    1    3    3  501    0 -0.32159013519E+02 -0.15745402491E+03 -0.38686296214E+02  0.16529549789E+03  0.00000000000E+00 0. -1.
<mgrwt>
<rscale>  0 0.65995072E+03</rscale>
<asrwt>0</asrwt>
<pdfrwt beam="1">0</pdfrwt>
<pdfrwt beam="2">  1        2 0.39594170E+00 0.65995072E+03</pdfrwt>
<totfact> 0.41214504E+00</totfact>
</mgrwt>
</event>
<event>
 5    1  0.2368916E-004  0.6522071E+03  0.7818608E-02  0.9802647E-01
         13   -1    0    0    0    0  0.00000000000E+00  0.00000000000E+00  0.10000000000E+04  0.10000000000E+04  0.00000000000E+00 0. -1.
          2   -1    0    0  501    0 -0.00000000000E+00 -0.00000000000E+00 -0.10634352227E+03  0.10634352227E+03  0.00000000000E+00 0. -1.
    9000006    2    1    2  501    0  0.00000000000E+00  0.00000000000E+00  0.89365647773E+03  0.11063435223E+04  0.65220709064E+03 0.  0.
         13    1    3    3    0    0  0.18311440679E+02 -0.32300020403E+03  0.51633713365E+03  0.60931804195E+03  0.00000000000E+00 0. -1.
          4    1    3    3  501    0 -0.18311440679E+02  0.32300020403E+03  0.37731934409E+03  0.49702548032E+03  0.00000000000E+00 0. -1.
<mgrwt>
<rscale>  0 0.65220709E+03</rscale>
<asrwt>0</asrwt>
<pdfrwt beam="1">0</pdfrwt>
<pdfrwt beam="2">  1        2 0.38670453E+00 0.65220709E+03</pdfrwt>
<totfact> 0.44638614E+00</totfact>
</mgrwt>
</event>
<event>
 5    1  0.2368916E-004  0.6832858E+03  0.7818608E-02  0.9746250E-01
         13   -1    0    0    0    0  0.00000000000E+00  0.00000000000E+00  0.10000000000E+04  0.10000000000E+04  0.00000000000E+00 0. -1.
          2   -1    0    0  501    0 -0.00000000000E+00 -0.00000000000E+00 -0.11671986843E+03  0.11671986843E+03  0.00000000000E+00 0. -1.
    9000006    2    1    2  501    0  0.00000000000E+00  0.00000000000E+00  0.88328013157E+03  0.11167198684E+04  0.68328579212E+03 0.  0.
         13    1    3    3    0    0 -0.22242343543E+03 -0.12310255423E+03  0.68618971410E+02  0.26331537502E+03  0.00000000000E+00 0. -1.
          4    1    3    3  501    0  0.22242343543E+03  0.12310255423E+03  0.81466116016E+03  0.85340449340E+03  0.00000000000E+00 0. -1.
<mgrwt>
<rscale>  0 0.68328579E+03</rscale>
<asrwt>0</asrwt>
<pdfrwt beam="1">0</pdfrwt>
<pdfrwt beam="2">  1        2 0.42443678E+00 0.68328579E+03</pdfrwt>
<totfact> 0.32085029E+00</totfact>
</mgrwt>
</event>
<event>
 5    1  0.2368916E-004  0.6260551E+03  0.7818608E-02  0.9852777E-01
         13   -1    0    0    0    0  0.00000000000E+00  0.00000000000E+00  0.10000000000E+04  0.10000000000E+04  0.00000000000E+00 0. -1.
          2   -1    0    0  501    0 -0.00000000000E+00 -0.00000000000E+00 -0.97986232272E+02  0.97986232272E+02  0.00000000000E+00 0. -1.
    9000006    2    1    2  501    0  0.00000000000E+00  0.00000000000E+00  0.90201376773E+03  0.10979862323E+04  0.62605505276E+03 0.  0.
         13    1    3    3    0    0  0.68537757951E+02  0.14576399357E+03 -0.19727849213E+02  0.16227678245E+03  0.00000000000E+00 0. -1.
          2    1    3    3  501    0 -0.68537757951E+02 -0.14576399357E+03  0.92174161694E+03  0.93570944982E+03  0.00000000000E+00 0. -1.
<mgrwt>
<rscale>  0 0.62605505E+03</rscale>
<asrwt>0</asrwt>
<pdfrwt beam="1">0</pdfrwt>
<pdfrwt beam="2">  1        2 0.35631432E+00 0.62605505E+03</pdfrwt>
<totfact> 0.57814050E+00</totfact>
</mgrwt>
</event>
<event>
 5    1  0.2368916E-004  0.6454801E+03  0.7818608E-02  0.9815298E-01
         13   -1    0    0    0    0  0.00000000000E+00  0.00000000000E+00  0.10000000000E+04  0.10000000000E+04  0.00000000000E+00 0. -1.
          2   -1    0    0  501    0 -0.00000000000E+00 -0.00000000000E+00 -0.10416113541E+03  0.10416113541E+03  0.00000000000E+00 0. -1.
    9000006    2    1    2  501    0  0.00000000000E+00  0.00000000000E+00  0.89583886459E+03  0.11041611354E+04  0.64548008618E+03 0.  0.
         13    1    3    3    0    0  0.15996212465E+03 -0.28022737639E+03  0.43633374968E+03  0.54268075782E+03  0.00000000000E+00 0. -1.
          2    1    3    3  501    0 -0.15996212465E+03  0.28022737639E+03  0.45950511490E+03  0.56148037759E+03  0.00000000000E+00 0. -1.
<mgrwt>
<rscale>  0 0.64548009E+03</rscale>
<asrwt>0</asrwt>
<pdfrwt beam="1">0</pdfrwt>
<pdfrwt beam="2">  1        2 0.37876856E+00 0.64548009E+03</pdfrwt>
<totfact> 0.47783947E+00</totfact>
</mgrwt>
</event>
<event>
 5    1  0.2368916E-004  0.6491491E+03  0.7818608E-02  0.9808377E-01
         13   -1    0    0    0    0  0.00000000000E+00  0.00000000000E+00  0.10000000000E+04  0.10000000000E+04  0.00000000000E+00 0. -1.
          2   -1    0    0  501    0 -0.00000000000E+00 -0.00000000000E+00 -0.10534864690E+03  0.10534864690E+03  0.00000000000E+00 0. -1.
    9000006    2    1    2  501    0  0.00000000000E+00  0.00000000000E+00  0.89465135310E+03  0.11053486469E+04  0.64914912585E+03 0.  0.
         13    1    3    3    0    0  0.26739194327E+03  0.73016992366E+02  0.73487991897E+03  0.78541608578E+03  0.00000000000E+00 0. -1.
          4    1    3    3  501    0 -0.26739194327E+03 -0.73016992366E+02  0.15977143414E+03  0.31993256112E+03  0.00000000000E+00 0. -1.
<mgrwt>
<rscale>  0 0.64914913E+03</rscale>
<asrwt>0</asrwt>
<pdfrwt beam="1">0</pdfrwt>
<pdfrwt beam="2">  1        2 0.38308680E+00 0.64914913E+03</pdfrwt>
<totfact> 0.46048363E+00</totfact>
</mgrwt>
</event>
<event>
 5    1  0.2368916E-004  0.6453973E+03  0.7818608E-02  0.9815454E-01
         13   -1    0    0    0    0  0.00000000000E+00  0.00000000000E+00  0.10000000000E+04  0.10000000000E+04  0.00000000000E+00 0. -1.
          2   -1    0    0  501    0 -0.00000000000E+00 -0.00000000000E+00 -0.10413441479E+03  0.10413441479E+03  0.00000000000E+00 0. -1.
    9000006    2    1    2  501    0  0.00000000000E+00  0.00000000000E+00  0.89586558521E+03  0.11041344148E+04  0.64539728785E+03 0.  0.
         13    1    3    3    0    0  0.27537276986E+03 -0.15984829396E+03  0.35817334022E+03  0.47923875168E+03  0.00000000000E+00 0. -1.
          4    1    3    3  501    0 -0.27537276986E+03  0.15984829396E+03  0.53769224498E+03  0.62489566311E+03  0.00000000000E+00 0. -1.
<mgrwt>
<rscale>  0 0.64539729E+03</rscale>
<asrwt>0</asrwt>
<pdfrwt beam="1">0</pdfrwt>
<pdfrwt beam="2">  1        2 0.37867140E+00 0.64539729E+03</pdfrwt>
<totfact> 0.47823676E+00</totfact>
</mgrwt>
</event>
<event>
 5    1  0.2368916E-004  0.6475323E+03  0.7818608E-02  0.9811421E-01
         13   -1    0    0    0    0  0.00000000000E+00  0.00000000000E+00  0.10000000000E+04  0.10000000000E+04  0.00000000000E+00 0. -1.
          2   -1    0    0  501    0 -0.00000000000E+00 -0.00000000000E+00 -0.10482451871E+03  0.10482451871E+03  0.00000000000E+00 0. -1.
    9000006    2    1    2  501    0  0.00000000000E+00  0.00000000000E+00  0.89517548129E+03  0.11048245187E+04  0.64753229636E+03 0.  0.
         13    1    3    3    0    0  0.66231180622E+02  0.10588110656E+03 -0.62072033679E+02  0.13946438749E+03  0.00000000000E+00 0. -1.
          2    1    3    3  501    0 -0.66231180622E+02 -0.10588110656E+03  0.95724751497E+03  0.96536013121E+03  0.00000000000E+00 0. -1.
<mgrwt>
<rscale>  0 0.64753230E+03</rscale>
<asrwt>0</asrwt>
<pdfrwt beam="1">0</pdfrwt>
<pdfrwt beam="2">  1        2 0.38118087E+00 0.64753230E+03</pdfrwt>
<totfact> 0.46807198E+00</totfact>
</mgrwt>
</event>
<event>
 5    1  0.2368916E-004  0.6467633E+03  0.7818608E-02  0.9812872E-01
         13   -1    0    0    0    0  0.00000000000E+00  0.00000000000E+00  0.10000000000E+04  0.10000000000E+04  0.00000000000E+00 0. -1.
          2   -1    0    0  501    0 -0.00000000000E+00 -0.00000000000E+00 -0.10457570108E+03  0.10457570108E+03  0.00000000000E+00 0. -1.
    9000006    2    1    2  501    0  0.00000000000E+00  0.00000000000E+00  0.89542429892E+03  0.11045757011E+04  0.64676332945E+03 0.  0.
         13    1    3    3    0    0  0.23548708886E+03  0.14109778872E+03  0.15580967556E+03  0.31565710827E+03  0.00000000000E+00 0. -1.
          4    1    3    3  501    0 -0.23548708886E+03 -0.14109778872E+03  0.73961462336E+03  0.78891859282E+03  0.00000000000E+00 0. -1.
<mgrwt>
<rscale>  0 0.64676333E+03</rscale>
<asrwt>0</asrwt>
<pdfrwt beam="1">0</pdfrwt>
<pdfrwt beam="2">  1        2 0.38027608E+00 0.64676333E+03</pdfrwt>
<totfact> 0.47171401E+00</totfact>
</mgrwt>
</event>
<event>
 5    1  0.2368916E-004  0.6154432E+03  0.7818608E-02  0.9873874E-01
         13   -1    0    0    0    0  0.00000000000E+00  0.00000000000E+00  0.10000000000E+04  0.10000000000E+04  0.00000000000E+00 0. -1.
          2   -1    0    0  501    0 -0.00000000000E+00 -0.00000000000E+00 -0.94692571820E+02  0.94692571820E+02  0.00000000000E+00 0. -1.
    9000006    2    1    2  501    0  0.00000000000E+00  0.00000000000E+00  0.90530742818E+03  0.10946925718E+04  0.61544316332E+03 0.  0.
         13    1    3    3    0    0  0.21384336495E+03 -0.56583591558E+02  0.72152393309E+02  0.23267285064E+03  0.00000000000E+00 0. -1.
          2    1    3    3  501    0 -0.21384336495E+03  0.56583591558E+02  0.83315503487E+03  0.86201972118E+03  0.00000000000E+00 0. -1.
<mgrwt>
<rscale>  0 0.61544316E+03</rscale>
<asrwt>0</asrwt>
<pdfrwt beam="1">0</pdfrwt>
<pdfrwt beam="2">  1        2 0.34433735E+00 0.61544316E+03</pdfrwt>
<totfact> 0.63928105E+00</totfact>
</mgrwt>
</event>
<event>
 5    1  0.2368916E-004  0.6404374E+03  0.7818608E-02  0.9824890E-01
         13   -1    0    0    0    0  0.00000000000E+00  0.00000000000E+00  0.10000000000E+04  0.10000000000E+04  0.00000000000E+00 0. -1.
          2   -1    0    0  501    0 -0.00000000000E+00 -0.00000000000E+00 -0.10254000596E+03  0.10254000596E+03  0.00000000000E+00 0. -1.
    9000006    2    1    2  501    0  0.00000000000E+00  0.00000000000E+00  0.89745999404E+03  0.11025400060E+04  0.64043736919E+03 0.  0.
         13    1    3    3    0    0  0.95143544029E+01  0.15073787773E+03  0.93482591056E+03  0.94694873873E+03  0.00000000000E+00 0. -1.
          2    1    3    3  501    0 -0.95143544029E+01 -0.15073787773E+03 -0.37365916521E+02  0.15559126724E+03  0.00000000000E+00 0. -1.
<mgrwt>
<rscale>  0 0.64043737E+03</rscale>
<asrwt>0</asrwt>
<pdfrwt beam="1">0</pdfrwt>
<pdfrwt beam="2">  1        2 0.37287354E+00 0.64043737E+03</pdfrwt>
<totfact> 0.50249651E+00</totfact>
</mgrwt>
</event>
<event>
 5    1  0.2368916E-004  0.6437401E+03  0.7818608E-02  0.9818597E-01
         13   -1    0    0    0    0  0.00000000000E+00  0.00000000000E+00  0.10000000000E+04  0.10000000000E+04  0.00000000000E+00 0. -1.
          2   -1    0    0  501    0 -0.00000000000E+00 -0.00000000000E+00 -0.10360032663E+03  0.10360032663E+03  0.00000000000E+00 0. -1.
    9000006    2    1    2  501    0  0.00000000000E+00  0.00000000000E+00  0.89639967337E+03  0.11036003266E+04  0.64374009236E+03 0.  0.
         13    1    3    3    0    0  0.21872849779E+03  0.13782228854E+03  0.77690599671E+03  0.81879183355E+03  0.00000000000E+00 0. -1.
          4    1    3    3  501    0 -0.21872849779E+03 -0.13782228854E+03  0.11949367666E+03  0.28480849307E+03  0.00000000000E+00 0. -1.
<mgrwt>
<rscale>  0 0.64374009E+03</rscale>
<asrwt>0</asrwt>
<pdfrwt beam="1">0</pdfrwt>
<pdfrwt beam="2">  1        2 0.37672925E+00 0.64374009E+03</pdfrwt>
<totfact> 0.48624110E+00</totfact>
</mgrwt>
</event>
<event>
 5    1  0.2368916E-004  0.6477649E+03  0.7818608E-02  0.9810982E-01
         13   -1    0    0    0    0  0.00000000000E+00  0.00000000000E+00  0.10000000000E+04  0.10000000000E+04  0.00000000000E+00 0. -1.
          2   -1    0    0  501    0 -0.00000000000E+00 -0.00000000000E+00 -0.10489985191E+03  0.10489985191E+03  0.00000000000E+00 0. -1.
    9000006    2    1    2  501    0  0.00000000000E+00  0.00000000000E+00  0.89510014809E+03  0.11048998519E+04  0.64776493239E+03 0.  0.
         13    1    3    3    0    0 -0.84018697806E+02  0.51115286302E+02 -0.78815736004E+02  0.12603108472E+03  0.00000000000E+00 0. -1.
          4    1    3    3  501    0  0.84018697806E+02 -0.51115286302E+02  0.97391588410E+03  0.97886876718E+03  0.00000000000E+00 0. -1.
<mgrwt>
<rscale>  0 0.64776493E+03</rscale>
<asrwt>0</asrwt>
<pdfrwt beam="1">0</pdfrwt>
<pdfrwt beam="2">  1        2 0.38145481E+00 0.64776493E+03</pdfrwt>
<totfact> 0.46697436E+00</totfact>
</mgrwt>
</event>
<event>
 5    1  0.2368916E-004  0.6546017E+03  0.7818608E-02  0.9798183E-01
         13   -1    0    0    0    0  0.00000000000E+00  0.00000000000E+00  0.10000000000E+04  0.10000000000E+04  0.00000000000E+00 0. -1.
          2   -1    0    0  501    0 -0.00000000000E+00 -0.00000000000E+00 -0.10712584364E+03  0.10712584364E+03  0.00000000000E+00 0. -1.
    9000006    2    1    2  501    0  0.00000000000E+00  0.00000000000E+00  0.89287415636E+03  0.11071258436E+04  0.65460169154E+03 0.  0.
         13    1    3    3    0    0 -0.58262421044E+02  0.29452884236E+03  0.66685203938E+03  0.73132304156E+03  0.00000000000E+00 0. -1.
          4    1    3    3  501    0  0.58262421044E+02 -0.29452884236E+03  0.22602211698E+03  0.37580280208E+03  0.00000000000E+00 0. -1.
<mgrwt>
<rscale>  0 0.65460169E+03</rscale>
<asrwt>0</asrwt>
<pdfrwt beam="1">0</pdfrwt>
<pdfrwt beam="2">  1        2 0.38954934E+00 0.65460169E+03</pdfrwt>
<totfact> 0.43557643E+00</totfact>
</mgrwt>
</event>
<event>
 5    1  0.2368916E-004  0.6494107E+03  0.7818608E-02  0.9807886E-01
         13   -1    0    0    0    0  0.00000000000E+00  0.00000000000E+00  0.10000000000E+04  0.10000000000E+04  0.00000000000E+00 0. -1.
          2   -1    0    0  501    0 -0.00000000000E+00 -0.00000000000E+00 -0.10543354940E+03  0.10543354940E+03  0.00000000000E+00 0. -1.
    9000006    2    1    2  501    0  0.00000000000E+00  0.00000000000E+00  0.89456645060E+03  0.11054335494E+04  0.64941065405E+03 0.  0.
         13    1    3    3    0    0  0.23721669913E+03  0.16148168463E+03  0.18865112396E+03  0.34342006842E+03  0.00000000000E+00 0. -1.
          2    1    3    3  501    0 -0.23721669913E+03 -0.16148168463E+03  0.70591532664E+03  0.76201348098E+03  0.00000000000E+00 0. -1.
<mgrwt>
<rscale>  0 0.64941065E+03</rscale>
<asrwt>0</asrwt>
<pdfrwt beam="1">0</pdfrwt>
<pdfrwt beam="2">  1        2 0.38339553E+00 0.64941065E+03</pdfrwt>
<totfact> 0.45926498E+00</totfact>
</mgrwt>
</event>
<event>
 5    1  0.2368916E-004  0.6271442E+03  0.7818608E-02  0.9850638E-01
         13   -1    0    0    0    0  0.00000000000E+00  0.00000000000E+00  0.10000000000E+04  0.10000000000E+04  0.00000000000E+00 0. -1.
          2   -1    0    0  501    0 -0.00000000000E+00 -0.00000000000E+00 -0.98327466893E+02  0.98327466893E+02  0.00000000000E+00 0. -1.
    9000006    2    1    2  501    0  0.00000000000E+00  0.00000000000E+00  0.90167253311E+03  0.10983274669E+04  0.62714421593E+03 0.  0.
         13    1    3    3    0    0  0.28179891411E+03  0.93445327180E+02  0.62757872162E+03  0.69426054835E+03  0.00000000000E+00 0. -1.
          4    1    3    3  501    0 -0.28179891411E+03 -0.93445327180E+02  0.27409381148E+03  0.40406691854E+03  0.00000000000E+00 0. -1.
<mgrwt>
<rscale>  0 0.62714422E+03</rscale>
<asrwt>0</asrwt>
<pdfrwt beam="1">0</pdfrwt>
<pdfrwt beam="2">  1        2 0.35755518E+00 0.62714422E+03</pdfrwt>
<totfact> 0.57212715E+00</totfact>
</mgrwt>
</event>
<event>
 5    1  0.2368916E-004  0.6526817E+03  0.7818608E-02  0.9801760E-01
         13   -1    0    0    0    0  0.00000000000E+00  0.00000000000E+00  0.10000000000E+04  0.10000000000E+04  0.00000000000E+00 0. -1.
          2   -1    0    0  501    0 -0.00000000000E+00 -0.00000000000E+00 -0.10649834189E+03  0.10649834189E+03  0.00000000000E+00 0. -1.
    9000006    2    1    2  501    0  0.00000000000E+00  0.00000000000E+00  0.89350165811E+03  0.11064983419E+04  0.65268167399E+03 0.  0.
         13    1    3    3    0    0 -0.44679009447E+02  0.17994106766E+02 -0.10043906199E+03  0.11139123366E+03  0.00000000000E+00 0. -1.
          4    1    3    3  501    0  0.44679009447E+02 -0.17994106766E+02  0.99394072010E+03  0.99510710823E+03  0.00000000000E+00 0. -1.
<mgrwt>
<rscale>  0 0.65268167E+03</rscale>
<asrwt>0</asrwt>
<pdfrwt beam="1">0</pdfrwt>
<pdfrwt beam="2">  1        2 0.38726751E+00 0.65268167E+03</pdfrwt>
<totfact> 0.44422785E+00</totfact>
</mgrwt>
</event>
<event>
 5    1  0.2368916E-004  0.6321333E+03  0.7818608E-02  0.9840895E-01
         13   -1    0    0    0    0  0.00000000000E+00  0.00000000000E+00  0.10000000000E+04  0.10000000000E+04  0.00000000000E+00 0. -1.
          2   -1    0    0  501    0 -0.00000000000E+00 -0.00000000000E+00 -0.99898112283E+02  0.99898112283E+02  0.00000000000E+00 0. -1.
    9000006    2    1    2  501    0  0.00000000000E+00  0.00000000000E+00  0.90010188772E+03  0.10998981123E+04  0.63213325267E+03 0.  0.
         13    1    3    3    0    0  0.61422768144E+02  0.12745211803E+03 -0.41724024071E+02  0.14750489152E+03  0.00000000000E+00 0. -1.
          2    1    3    3  501    0 -0.61422768144E+02 -0.12745211803E+03  0.94182591179E+03  0.95239322076E+03  0.00000000000E+00 0. -1.
<mgrwt>
<rscale>  0 0.63213325E+03</rscale>
<asrwt>0</asrwt>
<pdfrwt beam="1">0</pdfrwt>
<pdfrwt beam="2">  1        2 0.36326663E+00 0.63213325E+03</pdfrwt>
<totfact> 0.54518875E+00</totfact>
</mgrwt>
</event>
<event>
 5    1  0.2368916E-004  0.6487395E+03  0.7818608E-02  0.9809147E-01
         13   -1    0    0    0    0  0.00000000000E+00  0.00000000000E+00  0.10000000000E+04  0.10000000000E+04  0.00000000000E+00 0. -1.
          2   -1    0    0  501    0 -0.00000000000E+00 -0.00000000000E+00 -0.10521574251E+03  0.10521574251E+03  0.00000000000E+00 0. -1.
    9000006    2    1    2  501    0  0.00000000000E+00  0.00000000000E+00  0.89478425749E+03  0.11052157425E+04  0.64873952403E+03 0.  0.
         13    1    3    3    0    0  0.28056217763E+03  0.16022130848E+03  0.49646568559E+03  0.59233789358E+03  0.00000000000E+00 0. -1.
          4    1    3    3  501    0 -0.28056217763E+03 -0.16022130848E+03  0.39831857189E+03  0.51287784893E+03  0.00000000000E+00 0. -1.
<mgrwt>
<rscale>  0 0.64873952E+03</rscale>
<asrwt>0</asrwt>
<pdfrwt beam="1">0</pdfrwt>
<pdfrwt beam="2">  1        2 0.38260351E+00 0.64873952E+03</pdfrwt>
<totfact> 0.46239718E+00</totfact>
</mgrwt>
</event>
<event>
 5    1  0.2368916E-004  0.6439265E+03  0.7818608E-02  0.9818243E-01
         13   -1    0    0    0    0  0.00000000000E+00  0.00000000000E+00  0.10000000000E+04  0.10000000000E+04  0.00000000000E+00 0. -1.
          2   -1    0    0  501    0 -0.00000000000E+00 -0.00000000000E+00 -0.10366034187E+03  0.10366034187E+03  0.00000000000E+00 0. -1.
    9000006    2    1    2  501    0  0.00000000000E+00  0.00000000000E+00  0.89633965813E+03  0.11036603419E+04  0.64392652336E+03 0.  0.
         13    1    3    3    0    0 -0.56121246707E+02  0.13741130636E+03  0.93785961234E+03  0.94953257654E+03  0.00000000000E+00 0. -1.
          4    1    3    3  501    0  0.56121246707E+02 -0.13741130636E+03 -0.41519954215E+02  0.15412776533E+03  0.00000000000E+00 0. -1.
<mgrwt>
<rscale>  0 0.64392652E+03</rscale>
<asrwt>0</asrwt>
<pdfrwt beam="1">0</pdfrwt>
<pdfrwt beam="2">  1        2 0.37694749E+00 0.64392652E+03</pdfrwt>
<totfact> 0.48533560E+00</totfact>
</mgrwt>
</event>
<event>
 5    1  0.2368916E-004  0.6843733E+03  0.7818608E-02  0.9744336E-01
         13   -1    0    0    0    0  0.00000000000E+00  0.00000000000E+00  0.10000000000E+04  0.10000000000E+04  0.00000000000E+00 0. -1.
          2   -1    0    0  501    0 -0.00000000000E+00 -0.00000000000E+00 -0.11709168944E+03  0.11709168944E+03  0.00000000000E+00 0. -1.
    9000006    2    1    2  501    0  0.00000000000E+00  0.00000000000E+00  0.88290831056E+03  0.11170916894E+04  0.68437325909E+03 0.  0.
         13    1    3    3    0    0 -0.12760612582E+03 -0.28578811558E+03  0.21567012753E+03  0.38009442809E+03  0.00000000000E+00 0. -1.
          2    1    3    3  501    0  0.12760612582E+03  0.28578811558E+03  0.66723818303E+03  0.73699726135E+03  0.00000000000E+00 0. -1.
<mgrwt>
<rscale>  0 0.68437326E+03</rscale>
<asrwt>0</asrwt>
<pdfrwt beam="1">0</pdfrwt>
<pdfrwt beam="2">  1        2 0.42578886E+00 0.68437326E+03</pdfrwt>
<totfact> 0.31700579E+00</totfact>
</mgrwt>
</event>
<event>
 5    1  0.2368916E-004  0.6508223E+03  0.7818608E-02  0.9805237E-01
         13   -1    0    0    0    0  0.00000000000E+00  0.00000000000E+00  0.10000000000E+04  0.10000000000E+04  0.00000000000E+00 0. -1.
          2   -1    0    0  501    0 -0.00000000000E+00 -0.00000000000E+00 -0.10589240864E+03  0.10589240864E+03  0.00000000000E+00 0. -1.
    9000006    2    1    2  501    0  0.00000000000E+00  0.00000000000E+00  0.89410759136E+03  0.11058924086E+04  0.65082227569E+03 0.  0.
         13    1    3    3    0    0 -0.27490075155E+03  0.15253847873E+03  0.30433928528E+03  0.43756235129E+03  0.00000000000E+00 0. -1.
          2    1    3    3  501    0  0.27490075155E+03 -0.15253847873E+03  0.58976830608E+03  0.66833005735E+03  0.00000000000E+00 0. -1.
<mgrwt>
<rscale>  0 0.65082228E+03</rscale>
<asrwt>0</asrwt>
<pdfrwt beam="1">0</pdfrwt>
<pdfrwt beam="2">  1        2 0.38506412E+00 0.65082228E+03</pdfrwt>
<totfact> 0.45272923E+00</totfact>
</mgrwt>
</event>
<event>
 5    1  0.2368916E-004  0.6419343E+03  0.7818608E-02  0.9822033E-01
         13   -1    0    0    0    0  0.00000000000E+00  0.00000000000E+00  0.10000000000E+04  0.10000000000E+04  0.00000000000E+00 0. -1.
          4   -1    0    0  501    0 -0.00000000000E+00 -0.00000000000E+00 -0.10301991012E+03  0.10301991012E+03  0.00000000000E+00 0. -1.
    9000006    2    1    2  501    0  0.00000000000E+00  0.00000000000E+00  0.89698008988E+03  0.11030199101E+04  0.64193429608E+03 0.  0.
         13    1    3    3    0    0 -0.97144795247E+02  0.16612525613E+03  0.71066046465E+01  0.19257522114E+03  0.00000000000E+00 0. -1.
          4    1    3    3  501    0  0.97144795247E+02 -0.16612525613E+03  0.88987348523E+03  0.91044468898E+03  0.00000000000E+00 0. -1.
<mgrwt>
<rscale>  0 0.64193430E+03</rscale>
<asrwt>0</asrwt>
<pdfrwt beam="1">0</pdfrwt>
<pdfrwt beam="2">  1        4 0.37461864E+00 0.64193430E+03</pdfrwt>
<totfact> 0.47669858E-02</totfact>
</mgrwt>
</event>
<event>
 5    1  0.2368916E-004  0.6482030E+03  0.7818608E-02  0.9810157E-01
         13   -1    0    0    0    0  0.00000000000E+00  0.00000000000E+00  0.10000000000E+04  0.10000000000E+04  0.00000000000E+00 0. -1.
          2   -1    0    0  501    0 -0.00000000000E+00 -0.00000000000E+00 -0.10504179563E+03  0.10504179563E+03  0.00000000000E+00 0. -1.
    9000006    2    1    2  501    0  0.00000000000E+00  0.00000000000E+00  0.89495820437E+03  0.11050417956E+04  0.64820304112E+03 0.  0.
         13    1    3    3    0    0 -0.18923598908E+03  0.17604926343E+03  0.78084127659E+03  0.82250635374E+03  0.00000000000E+00 0. -1.
          4    1    3    3  501    0  0.18923598908E+03 -0.17604926343E+03  0.11411692778E+03  0.28253544189E+03  0.00000000000E+00 0. -1.
<mgrwt>
<rscale>  0 0.64820304E+03</rscale>
<asrwt>0</asrwt>
<pdfrwt beam="1">0</pdfrwt>
<pdfrwt beam="2">  1        2 0.38197097E+00 0.64820304E+03</pdfrwt>
<totfact> 0.46491256E+00</totfact>
</mgrwt>
</event>
<event>
 5    1  0.2368916E-004  0.6082727E+03  0.7818608E-02  0.9888390E-01
         13   -1    0    0    0    0  0.00000000000E+00  0.00000000000E+00  0.10000000000E+04  0.10000000000E+04  0.00000000000E+00 0. -1.
          2   -1    0    0  501    0 -0.00000000000E+00 -0.00000000000E+00 -0.92498932558E+02  0.92498932558E+02  0.00000000000E+00 0. -1.
    9000006    2    1    2  501    0  0.00000000000E+00  0.00000000000E+00  0.90750106744E+03  0.10924989326E+04  0.60827274329E+03 0.  0.
         13    1    3    3    0    0 -0.30291330522E+03 -0.25635925855E+02  0.43716616833E+03  0.53247340770E+03  0.00000000000E+00 0. -1.
          2    1    3    3  501    0  0.30291330522E+03  0.25635925855E+02  0.47033489911E+03  0.56002552486E+03  0.00000000000E+00 0. -1.
<mgrwt>
<rscale>  0 0.60827274E+03</rscale>
<asrwt>0</asrwt>
<pdfrwt beam="1">0</pdfrwt>
<pdfrwt beam="2">  1        2 0.33636046E+00 0.60827274E+03</pdfrwt>
<totfact> 0.68330121E+00</totfact>
</mgrwt>
</event>
<event>
 5    1  0.2368916E-004  0.6109680E+03  0.7818608E-02  0.9882909E-01
         13   -1    0    0    0    0  0.00000000000E+00  0.00000000000E+00  0.10000000000E+04  0.10000000000E+04  0.00000000000E+00 0. -1.
          2   -1    0    0  501    0 -0.00000000000E+00 -0.00000000000E+00 -0.93320471280E+02  0.93320471280E+02  0.00000000000E+00 0. -1.
    9000006    2    1    2  501    0  0.00000000000E+00  0.00000000000E+00  0.90667952872E+03  0.10933204713E+04  0.61096799026E+03 0.  0.
         13    1    3    3    0    0  0.19484601274E+03 -0.18518144647E+03  0.71305210405E+03  0.76203703315E+03  0.00000000000E+00 0. -1.
          4    1    3    3  501    0 -0.19484601274E+03  0.18518144647E+03  0.19362742467E+03  0.33128343813E+03  0.00000000000E+00 0. -1.
<mgrwt>
<rscale>  0 0.61096799E+03</rscale>
<asrwt>0</asrwt>
<pdfrwt beam="1">0</pdfrwt>
<pdfrwt beam="2">  1        2 0.33934788E+00 0.61096799E+03</pdfrwt>
<totfact> 0.66649107E+00</totfact>
</mgrwt>
</event>
<event>
 5    1  0.2368916E-004  0.6469709E+03  0.7818608E-02  0.9812480E-01
         13   -1    0    0    0    0  0.00000000000E+00  0.00000000000E+00  0.10000000000E+04  0.10000000000E+04  0.00000000000E+00 0. -1.
          2   -1    0    0  501    0 -0.00000000000E+00 -0.00000000000E+00 -0.10464284703E+03  0.10464284703E+03  0.00000000000E+00 0. -1.
    9000006    2    1    2  501    0  0.00000000000E+00  0.00000000000E+00  0.89535715297E+03  0.11046428470E+04  0.64697093299E+03 0.  0.
         13    1    3    3    0    0  0.26632544438E+03  0.58267858007E+02  0.15038146154E+03  0.31135023619E+03  0.00000000000E+00 0. -1.
          4    1    3    3  501    0 -0.26632544438E+03 -0.58267858007E+02  0.74497569143E+03  0.79329261084E+03  0.00000000000E+00 0. -1.
<mgrwt>
<rscale>  0 0.64697093E+03</rscale>
<asrwt>0</asrwt>
<pdfrwt beam="1">0</pdfrwt>
<pdfrwt beam="2">  1        2 0.38052025E+00 0.64697093E+03</pdfrwt>
<totfact> 0.47072864E+00</totfact>
</mgrwt>
</event>
<event>
 5    1  0.2368916E-004  0.6487016E+03  0.7818608E-02  0.9809219E-01
         13   -1    0    0    0    0  0.00000000000E+00  0.00000000000E+00  0.10000000000E+04  0.10000000000E+04  0.00000000000E+00 0. -1.
          2   -1    0    0  501    0 -0.00000000000E+00 -0.00000000000E+00 -0.10520344107E+03  0.10520344107E+03  0.00000000000E+00 0. -1.
    9000006    2    1    2  501    0  0.00000000000E+00  0.00000000000E+00  0.89479655893E+03  0.11052034411E+04  0.64870159879E+03 0.  0.
         13    1    3    3    0    0  0.48240685111E+01 -0.25342525377E+03  0.10260799409E+03  0.27345206406E+03  0.00000000000E+00 0. -1.
          2    1    3    3  501    0 -0.48240685111E+01  0.25342525377E+03  0.79218856484E+03  0.83175137701E+03  0.00000000000E+00 0. -1.
<mgrwt>
<rscale>  0 0.64870160E+03</rscale>
<asrwt>0</asrwt>
<pdfrwt beam="1">0</pdfrwt>
<pdfrwt beam="2">  1        2 0.38255877E+00 0.64870160E+03</pdfrwt>
<totfact> 0.46257465E+00</totfact>
</mgrwt>
</event>
<event>
 5    1  0.2368916E-004  0.6543147E+03  0.7818608E-02  0.9798716E-01
         13   -1    0    0    0    0  0.00000000000E+00  0.00000000000E+00  0.10000000000E+04  0.10000000000E+04  0.00000000000E+00 0. -1.
          2   -1    0    0  501    0 -0.00000000000E+00 -0.00000000000E+00 -0.10703193156E+03  0.10703193156E+03  0.00000000000E+00 0. -1.
    9000006    2    1    2  501    0  0.00000000000E+00  0.00000000000E+00  0.89296806844E+03  0.11070319316E+04  0.65431469969E+03 0.  0.
         13    1    3    3    0    0  0.27439841920E+03  0.46973547780E+02  0.15573920785E+03  0.31899170445E+03  0.00000000000E+00 0. -1.
          2    1    3    3  501    0 -0.27439841920E+03 -0.46973547780E+02  0.73722886059E+03  0.78804022711E+03  0.00000000000E+00 0. -1.
<mgrwt>
<rscale>  0 0.65431470E+03</rscale>
<asrwt>0</asrwt>
<pdfrwt beam="1">0</pdfrwt>
<pdfrwt beam="2">  1        2 0.38920784E+00 0.65431470E+03</pdfrwt>
<totfact> 0.43686143E+00</totfact>
</mgrwt>
</event>
<event>
 5    1  0.2368916E-004  0.6489370E+03  0.7818608E-02  0.9808776E-01
         13   -1    0    0    0    0  0.00000000000E+00  0.00000000000E+00  0.10000000000E+04  0.10000000000E+04  0.00000000000E+00 0. -1.
          2   -1    0    0  501    0 -0.00000000000E+00 -0.00000000000E+00 -0.10527982180E+03  0.10527982180E+03  0.00000000000E+00 0. -1.
    9000006    2    1    2  501    0  0.00000000000E+00  0.00000000000E+00  0.89472017820E+03  0.11052798218E+04  0.64893704411E+03 0.  0.
         13    1    3    3    0    0  0.10943206250E+02 -0.80349886700E+02 -0.87742401008E+02  0.11947630305E+03  0.00000000000E+00 0. -1.
          2    1    3    3  501    0 -0.10943206250E+02  0.80349886700E+02  0.98246257920E+03  0.98580351876E+03  0.00000000000E+00 0. -1.
<mgrwt>
<rscale>  0 0.64893704E+03</rscale>
<asrwt>0</asrwt>
<pdfrwt beam="1">0</pdfrwt>
<pdfrwt beam="2">  1        2 0.38283652E+00 0.64893704E+03</pdfrwt>
<totfact> 0.46147367E+00</totfact>
</mgrwt>
</event>
<event>
 5    1  0.2368916E-004  0.6624546E+03  0.7818608E-02  0.9783686E-01
         13   -1    0    0    0    0  0.00000000000E+00  0.00000000000E+00  0.10000000000E+04  0.10000000000E+04  0.00000000000E+00 0. -1.
          2   -1    0    0  501    0 -0.00000000000E+00 -0.00000000000E+00 -0.10971154064E+03  0.10971154064E+03  0.00000000000E+00 0. -1.
    9000006    2    1    2  501    0  0.00000000000E+00  0.00000000000E+00  0.89028845936E+03  0.11097115406E+04  0.66245464942E+03 0.  0.
         13    1    3    3    0    0 -0.25913495550E+03 -0.19874471841E+03  0.53782644893E+03  0.62921194953E+03  0.00000000000E+00 0. -1.
          2    1    3    3  501    0  0.25913495550E+03  0.19874471841E+03  0.35246201043E+03  0.48049959111E+03  0.00000000000E+00 0. -1.
<mgrwt>
<rscale>  0 0.66245465E+03</rscale>
<asrwt>0</asrwt>
<pdfrwt beam="1">0</pdfrwt>
<pdfrwt beam="2">  1        2 0.39895190E+00 0.66245465E+03</pdfrwt>
<totfact> 0.40151023E+00</totfact>
</mgrwt>
</event>
<event>
 5    1  0.2368916E-004  0.6431500E+03  0.7818608E-02  0.9819718E-01
         13   -1    0    0    0    0  0.00000000000E+00  0.00000000000E+00  0.10000000000E+04  0.10000000000E+04  0.00000000000E+00 0. -1.
          2   -1    0    0  501    0 -0.00000000000E+00 -0.00000000000E+00 -0.10341048527E+03  0.10341048527E+03  0.00000000000E+00 0. -1.
    9000006    2    1    2  501    0  0.00000000000E+00  0.00000000000E+00  0.89658951473E+03  0.11034104853E+04  0.64315001443E+03 0.  0.
         13    1    3    3    0    0  0.23872765875E+03 -0.12709339718E+03  0.74677012570E+03  0.79423500760E+03  0.00000000000E+00 0. -1.
          2    1    3    3  501    0 -0.23872765875E+03  0.12709339718E+03  0.14981938903E+03  0.30917547767E+03  0.00000000000E+00 0. -1.
<mgrwt>
<rscale>  0 0.64315001E+03</rscale>
<asrwt>0</asrwt>
<pdfrwt beam="1">0</pdfrwt>
<pdfrwt beam="2">  1        2 0.37603892E+00 0.64315001E+03</pdfrwt>
<totfact> 0.48911554E+00</totfact>
</mgrwt>
</event>
<event>
 5    1  0.2368916E-004  0.6571474E+03  0.7818608E-02  0.9793459E-01
         13   -1    0    0    0    0  0.00000000000E+00  0.00000000000E+00  0.10000000000E+04  0.10000000000E+04  0.00000000000E+00 0. -1.
          2   -1    0    0  501    0 -0.00000000000E+00 -0.00000000000E+00 -0.10796067779E+03  0.10796067779E+03  0.00000000000E+00 0. -1.
    9000006    2    1    2  501    0  0.00000000000E+00  0.00000000000E+00  0.89203932221E+03  0.11079606778E+04  0.65714740443E+03 0.  0.
         13    1    3    3    0    0 -0.19259085956E+03  0.15363992496E+03  0.79474271380E+02  0.25886796932E+03  0.00000000000E+00 0. -1.
          4    1    3    3  501    0  0.19259085956E+03 -0.15363992496E+03  0.81256505083E+03  0.84909270846E+03  0.00000000000E+00 0. -1.
<mgrwt>
<rscale>  0 0.65714740E+03</rscale>
<asrwt>0</asrwt>
<pdfrwt beam="1">0</pdfrwt>
<pdfrwt beam="2">  1        2 0.39258511E+00 0.65714740E+03</pdfrwt>
<totfact> 0.42430262E+00</totfact>
</mgrwt>
</event>
<event>
 5    1  0.2368916E-004  0.6520772E+03  0.7818608E-02  0.9802889E-01
         13   -1    0    0    0    0  0.00000000000E+00  0.00000000000E+00  0.10000000000E+04  0.10000000000E+04  0.00000000000E+00 0. -1.
          2   -1    0    0  501    0 -0.00000000000E+00 -0.00000000000E+00 -0.10630115423E+03  0.10630115423E+03  0.00000000000E+00 0. -1.
    9000006    2    1    2  501    0  0.00000000000E+00  0.00000000000E+00  0.89369884577E+03  0.11063011542E+04  0.65207715564E+03 0.  0.
         13    1    3    3    0    0 -0.29468795362E+03  0.15322625239E+02  0.21160904868E+03  0.36311728455E+03  0.00000000000E+00 0. -1.
          4    1    3    3  501    0  0.29468795362E+03 -0.15322625239E+02  0.68208979709E+03  0.74318386968E+03  0.00000000000E+00 0. -1.
<mgrwt>
<rscale>  0 0.65207716E+03</rscale>
<asrwt>0</asrwt>
<pdfrwt beam="1">0</pdfrwt>
<pdfrwt beam="2">  1        2 0.38655047E+00 0.65207716E+03</pdfrwt>
<totfact> 0.44697843E+00</totfact>
</mgrwt>
</event>
<event>
 5    1  0.2368916E-004  0.5970160E+03  0.7818608E-02  0.9911616E-01
         13   -1    0    0    0    0  0.00000000000E+00  0.00000000000E+00  0.10000000000E+04  0.10000000000E+04  0.00000000000E+00 0. -1.
          2   -1    0    0  501    0 -0.00000000000E+00 -0.00000000000E+00 -0.89107016151E+02  0.89107016151E+02  0.00000000000E+00 0. -1.
    9000006    2    1    2  501    0  0.00000000000E+00  0.00000000000E+00  0.91089298385E+03  0.10891070162E+04  0.59701596679E+03 0.  0.
         13    1    3    3    0    0  0.19351688859E+03 -0.22627800335E+03  0.49442298031E+03  0.57715215015E+03  0.00000000000E+00 0. -1.
          4    1    3    3  501    0 -0.19351688859E+03  0.22627800335E+03  0.41647000354E+03  0.51195486600E+03  0.00000000000E+00 0. -1.
<mgrwt>
<rscale>  0 0.59701597E+03</rscale>
<asrwt>0</asrwt>
<pdfrwt beam="1">0</pdfrwt>
<pdfrwt beam="2">  1        2 0.32402620E+00 0.59701597E+03</pdfrwt>
<totfact> 0.75704561E+00</totfact>
</mgrwt>
</event>
<event>
 5    1  0.2368916E-004  0.6426258E+03  0.7818608E-02  0.9820716E-01
         13   -1    0    0    0    0  0.00000000000E+00  0.00000000000E+00  0.10000000000E+04  0.10000000000E+04  0.00000000000E+00 0. -1.
          2   -1    0    0  501    0 -0.00000000000E+00 -0.00000000000E+00 -0.10324197494E+03  0.10324197494E+03  0.00000000000E+00 0. -1.
    9000006    2    1    2  501    0  0.00000000000E+00  0.00000000000E+00  0.89675802506E+03  0.11032419749E+04  0.64262578518E+03 0.  0.
         13    1    3    3    0    0  0.29250129757E+03  0.29273575418E+02  0.67108361190E+03  0.73264395545E+03  0.00000000000E+00 0. -1.
          4    1    3    3  501    0 -0.29250129757E+03 -0.29273575418E+02  0.22567441315E+03  0.37059801949E+03  0.00000000000E+00 0. -1.
<mgrwt>
<rscale>  0 0.64262579E+03</rscale>
<asrwt>0</asrwt>
<pdfrwt beam="1">0</pdfrwt>
<pdfrwt beam="2">  1        2 0.37542616E+00 0.64262579E+03</pdfrwt>
<totfact> 0.49168002E+00</totfact>
</mgrwt>
</event>
<event>
 5    1  0.2368916E-004  0.6436702E+03  0.7818608E-02  0.9818730E-01
         13   -1    0    0    0    0  0.00000000000E+00  0.00000000000E+00  0.10000000000E+04  0.10000000000E+04  0.00000000000E+00 0. -1.
          4   -1    0    0  501    0 -0.00000000000E+00 -0.00000000000E+00 -0.10357781955E+03  0.10357781955E+03  0.00000000000E+00 0. -1.
    9000006    2    1    2  501    0  0.00000000000E+00  0.00000000000E+00  0.89642218045E+03  0.11035778195E+04  0.64367016258E+03 0.  0.
         13    1    3    3    0    0  0.22810762034E+03 -0.21905765697E+03  0.34593559133E+03  0.46871182712E+03  0.00000000000E+00 0. -1.
          2    1    3    3  501    0 -0.22810762034E+03  0.21905765697E+03  0.55048658912E+03  0.63486599242E+03  0.00000000000E+00 0. -1.
<mgrwt>
<rscale>  0 0.64367016E+03</rscale>
<asrwt>0</asrwt>
<pdfrwt beam="1">0</pdfrwt>
<pdfrwt beam="2">  1        4 0.37664741E+00 0.64367016E+03</pdfrwt>
<totfact> 0.46205150E-02</totfact>
</mgrwt>
</event>
<event>
 5    1  0.2368916E-004  0.6441524E+03  0.7818608E-02  0.9817814E-01
         13   -1    0    0    0    0  0.00000000000E+00  0.00000000000E+00  0.10000000000E+04  0.10000000000E+04  0.00000000000E+00 0. -1.
          2   -1    0    0  501    0 -0.00000000000E+00 -0.00000000000E+00 -0.10373306945E+03  0.10373306945E+03  0.00000000000E+00 0. -1.
    9000006    2    1    2  501    0  0.00000000000E+00  0.00000000000E+00  0.89626693055E+03  0.11037330695E+04  0.64415237157E+03 0.  0.
         13    1    3    3    0    0  0.13149238221E+03 -0.79955259390E+02 -0.36659218334E+02  0.15819920472E+03  0.00000000000E+00 0. -1.
          2    1    3    3  501    0 -0.13149238221E+03  0.79955259390E+02  0.93292614888E+03  0.94553386473E+03  0.00000000000E+00 0. -1.
<mgrwt>
<rscale>  0 0.64415237E+03</rscale>
<asrwt>0</asrwt>
<pdfrwt beam="1">0</pdfrwt>
<pdfrwt beam="2">  1        2 0.37721196E+00 0.64415237E+03</pdfrwt>
<totfact> 0.48424036E+00</totfact>
</mgrwt>
</event>
<event>
 5    1  0.2368916E-004  0.6586206E+03  0.7818608E-02  0.9790736E-01
         13   -1    0    0    0    0  0.00000000000E+00  0.00000000000E+00  0.10000000000E+04  0.10000000000E+04  0.00000000000E+00 0. -1.
          2   -1    0    0  501    0 -0.00000000000E+00 -0.00000000000E+00 -0.10844525855E+03  0.10844525855E+03  0.00000000000E+00 0. -1.
    9000006    2    1    2  501    0  0.00000000000E+00  0.00000000000E+00  0.89155474145E+03  0.11084452586E+04  0.65862055404E+03 0.  0.
         13    1    3    3    0    0 -0.33806685790E+02 -0.26670374244E+03  0.76586000408E+03  0.81167439537E+03  0.00000000000E+00 0. -1.
          2    1    3    3  501    0  0.33806685790E+02  0.26670374244E+03  0.12569473736E+03  0.29677086319E+03  0.00000000000E+00 0. -1.
<mgrwt>
<rscale>  0 0.65862055E+03</rscale>
<asrwt>0</asrwt>
<pdfrwt beam="1">0</pdfrwt>
<pdfrwt beam="2">  1        2 0.39434723E+00 0.65862055E+03</pdfrwt>
<totfact> 0.41788033E+00</totfact>
</mgrwt>
</event>
<event>
 5    1  0.2368916E-004  0.6502519E+03  0.7818608E-02  0.9806307E-01
         13   -1    0    0    0    0  0.00000000000E+00  0.00000000000E+00  0.10000000000E+04  0.10000000000E+04  0.00000000000E+00 0. -1.
          2   -1    0    0  501    0 -0.00000000000E+00 -0.00000000000E+00 -0.10570689044E+03  0.10570689044E+03  0.00000000000E+00 0. -1.
    9000006    2    1    2  501    0  0.00000000000E+00  0.00000000000E+00  0.89429310956E+03  0.11057068904E+04  0.65025192176E+03 0.  0.
         13    1    3    3    0    0  0.45140456330E+01  0.30234274293E+03  0.65031310429E+03  0.71717406842E+03  0.00000000000E+00 0. -1.
          4    1    3    3  501    0 -0.45140456330E+01 -0.30234274293E+03  0.24398000527E+03  0.38853282202E+03  0.00000000000E+00 0. -1.
<mgrwt>
<rscale>  0 0.65025192E+03</rscale>
<asrwt>0</asrwt>
<pdfrwt beam="1">0</pdfrwt>
<pdfrwt beam="2">  1        2 0.38438950E+00 0.65025192E+03</pdfrwt>
<totfact> 0.45536143E+00</totfact>
</mgrwt>
</event>
<event>
 5    1  0.2368916E-004  0.6160465E+03  0.7818608E-02  0.9872663E-01
         13   -1    0    0    0    0  0.00000000000E+00  0.00000000000E+00  0.10000000000E+04  0.10000000000E+04  0.00000000000E+00 0. -1.
          2   -1    0    0  501    0 -0.00000000000E+00 -0.00000000000E+00 -0.94878326163E+02  0.94878326163E+02  0.00000000000E+00 0. -1.
    9000006    2    1    2  501    0  0.00000000000E+00  0.00000000000E+00  0.90512167384E+03  0.10948783262E+04  0.61604651176E+03 0.  0.
         13    1    3    3    0    0 -0.27474690831E+03 -0.13855491743E+03  0.42774283802E+03  0.52692244614E+03  0.00000000000E+00 0. -1.
          4    1    3    3  501    0  0.27474690831E+03  0.13855491743E+03  0.47737883582E+03  0.56795588003E+03  0.00000000000E+00 0. -1.
<mgrwt>
<rscale>  0 0.61604651E+03</rscale>
<asrwt>0</asrwt>
<pdfrwt beam="1">0</pdfrwt>
<pdfrwt beam="2">  1        2 0.34501282E+00 0.61604651E+03</pdfrwt>
<totfact> 0.63567843E+00</totfact>
</mgrwt>
</event>
<event>
 5    1  0.2368916E-004  0.6536261E+03  0.7818608E-02  0.9799999E-01
         13   -1    0    0    0    0  0.00000000000E+00  0.00000000000E+00  0.10000000000E+04  0.10000000000E+04  0.00000000000E+00 0. -1.
          2   -1    0    0  501    0 -0.00000000000E+00 -0.00000000000E+00 -0.10680676624E+03  0.10680676624E+03  0.00000000000E+00 0. -1.
    9000006    2    1    2  501    0  0.00000000000E+00  0.00000000000E+00  0.89319323376E+03  0.11068067662E+04  0.65362608955E+03 0.  0.
         13    1    3    3    0    0 -0.65148943443E+02 -0.24437246564E+03  0.79709810158E+03  0.83625813619E+03  0.00000000000E+00 0. -1.
          4    1    3    3  501    0  0.65148943443E+02  0.24437246564E+03  0.96095132182E+02  0.27054863005E+03  0.00000000000E+00 0. -1.
<mgrwt>
<rscale>  0 0.65362609E+03</rscale>
<asrwt>0</asrwt>
<pdfrwt beam="1">0</pdfrwt>
<pdfrwt beam="2">  1        2 0.38838906E+00 0.65362609E+03</pdfrwt>
<totfact> 0.43995634E+00</totfact>
</mgrwt>
</event>
<event>
 5    1  0.2368916E-004  0.6498614E+03  0.7818608E-02  0.9807039E-01
         13   -1    0    0    0    0  0.00000000000E+00  0.00000000000E+00  0.10000000000E+04  0.10000000000E+04  0.00000000000E+00 0. -1.
          2   -1    0    0  501    0 -0.00000000000E+00 -0.00000000000E+00 -0.10557995066E+03  0.10557995066E+03  0.00000000000E+00 0. -1.
    9000006    2    1    2  501    0  0.00000000000E+00  0.00000000000E+00  0.89442004934E+03  0.11055799507E+04  0.64986137186E+03 0.  0.
         13    1    3    3    0    0 -0.12059458375E+03  0.13142808762E+03 -0.14841439003E+02  0.17898788830E+03  0.00000000000E+00 0. -1.
          2    1    3    3  501    0  0.12059458375E+03 -0.13142808762E+03  0.90926148834E+03  0.92659206236E+03  0.00000000000E+00 0. -1.
<mgrwt>
<rscale>  0 0.64986137E+03</rscale>
<asrwt>0</asrwt>
<pdfrwt beam="1">0</pdfrwt>
<pdfrwt beam="2">  1        2 0.38392790E+00 0.64986137E+03</pdfrwt>
<totfact> 0.45717048E+00</totfact>
</mgrwt>
</event>
<event>
 5    1  0.2368916E-004  0.6527106E+03  0.7818608E-02  0.9801706E-01
         13   -1    0    0    0    0  0.00000000000E+00  0.00000000000E+00  0.10000000000E+04  0.10000000000E+04  0.00000000000E+00 0. -1.
          2   -1    0    0  501    0 -0.00000000000E+00 -0.00000000000E+00 -0.10650777805E+03  0.10650777805E+03  0.00000000000E+00 0. -1.
    9000006    2    1    2  501    0  0.00000000000E+00  0.00000000000E+00  0.89349222195E+03  0.11065077781E+04  0.65271058840E+03 0.  0.
         13    1    3    3    0    0 -0.15054780950E+03  0.22763356262E+02 -0.42605905603E+02  0.15810780033E+03  0.00000000000E+00 0. -1.
          2    1    3    3  501    0  0.15054780950E+03 -0.22763356262E+02  0.93609812755E+03  0.94839997772E+03  0.00000000000E+00 0. -1.
<mgrwt>
<rscale>  0 0.65271059E+03</rscale>
<asrwt>0</asrwt>
<pdfrwt beam="1">0</pdfrwt>
<pdfrwt beam="2">  1        2 0.38730183E+00 0.65271059E+03</pdfrwt>
<totfact> 0.44409661E+00</totfact>
</mgrwt>
</event>
<event>
 5    1  0.2368916E-004  0.6504149E+03  0.7818608E-02  0.9806001E-01
         13   -1    0    0    0    0  0.00000000000E+00  0.00000000000E+00  0.10000000000E+04  0.10000000000E+04  0.00000000000E+00 0. -1.
          2   -1    0    0  501    0 -0.00000000000E+00 -0.00000000000E+00 -0.10575989788E+03  0.10575989788E+03  0.00000000000E+00 0. -1.
    9000006    2    1    2  501    0  0.00000000000E+00  0.00000000000E+00  0.89424010212E+03  0.11057598979E+04  0.65041493796E+03 0.  0.
         13    1    3    3    0    0 -0.13769781554E+03 -0.66558016849E+02  0.93504481148E+03  0.94747002986E+03  0.00000000000E+00 0. -1.
          2    1    3    3  501    0  0.13769781554E+03  0.66558016849E+02 -0.40804709360E+02  0.15828986802E+03  0.00000000000E+00 0. -1.
<mgrwt>
<rscale>  0 0.65041494E+03</rscale>
<asrwt>0</asrwt>
<pdfrwt beam="1">0</pdfrwt>
<pdfrwt beam="2">  1        2 0.38458226E+00 0.65041494E+03</pdfrwt>
<totfact> 0.45460793E+00</totfact>
</mgrwt>
</event>
<event>
 5    1  0.2368916E-004  0.6417106E+03  0.7818608E-02  0.9822459E-01
         13   -1    0    0    0    0  0.00000000000E+00  0.00000000000E+00  0.10000000000E+04  0.10000000000E+04  0.00000000000E+00 0. -1.
          2   -1    0    0  501    0 -0.00000000000E+00 -0.00000000000E+00 -0.10294813870E+03  0.10294813870E+03  0.00000000000E+00 0. -1.
    9000006    2    1    2  501    0  0.00000000000E+00  0.00000000000E+00  0.89705186130E+03  0.11029481387E+04  0.64171064725E+03 0.  0.
         13    1    3    3    0    0 -0.17297116426E+02  0.10334439197E+03  0.96976421647E+03  0.97540857549E+03  0.00000000000E+00 0. -1.
          2    1    3    3  501    0  0.17297116426E+02 -0.10334439197E+03 -0.72712355170E+02  0.12753956321E+03  0.00000000000E+00 0. -1.
<mgrwt>
<rscale>  0 0.64171065E+03</rscale>
<asrwt>0</asrwt>
<pdfrwt beam="1">0</pdfrwt>
<pdfrwt beam="2">  1        2 0.37435766E+00 0.64171065E+03</pdfrwt>
<totfact> 0.49618152E+00</totfact>
</mgrwt>
</event>
<event>
 5    1  0.2368916E-004  0.6584778E+03  0.7818608E-02  0.9791000E-01
         13   -1    0    0    0    0  0.00000000000E+00  0.00000000000E+00  0.10000000000E+04  0.10000000000E+04  0.00000000000E+00 0. -1.
          2   -1    0    0  501    0 -0.00000000000E+00 -0.00000000000E+00 -0.10839825353E+03  0.10839825353E+03  0.00000000000E+00 0. -1.
    9000006    2    1    2  501    0  0.00000000000E+00  0.00000000000E+00  0.89160174647E+03  0.11083982535E+04  0.65847780078E+03 0.  0.
         13    1    3    3    0    0 -0.16488915228E+03 -0.23565507222E+03  0.17607495907E+03  0.33723009476E+03  0.00000000000E+00 0. -1.
          2    1    3    3  501    0  0.16488915228E+03  0.23565507222E+03  0.71552678740E+03  0.77116815877E+03  0.00000000000E+00 0. -1.
<mgrwt>
<rscale>  0 0.65847780E+03</rscale>
<asrwt>0</asrwt>
<pdfrwt beam="1">0</pdfrwt>
<pdfrwt beam="2">  1        2 0.39417630E+00 0.65847780E+03</pdfrwt>
<totfact> 0.41849940E+00</totfact>
</mgrwt>
</event>
<event>
 5    1  0.2368916E-004  0.6503932E+03  0.7818608E-02  0.9806042E-01
         13   -1    0    0    0    0  0.00000000000E+00  0.00000000000E+00  0.10000000000E+04  0.10000000000E+04  0.00000000000E+00 0. -1.
          2   -1    0    0  501    0 -0.00000000000E+00 -0.00000000000E+00 -0.10575282598E+03  0.10575282598E+03  0.00000000000E+00 0. -1.
    9000006    2    1    2  501    0  0.00000000000E+00  0.00000000000E+00  0.89424717402E+03  0.11057528260E+04  0.65039319177E+03 0.  0.
         13    1    3    3    0    0 -0.15463770070E+03  0.14324613474E+03  0.26120674143E+02  0.21240189079E+03  0.00000000000E+00 0. -1.
          2    1    3    3  501    0  0.15463770070E+03 -0.14324613474E+03  0.86812649988E+03  0.89335093518E+03  0.00000000000E+00 0. -1.
<mgrwt>
<rscale>  0 0.65039319E+03</rscale>
<asrwt>0</asrwt>
<pdfrwt beam="1">0</pdfrwt>
<pdfrwt beam="2">  1        2 0.38455654E+00 0.65039319E+03</pdfrwt>
<totfact> 0.45470839E+00</totfact>
</mgrwt>
</event>
<event>
 5    1  0.2368916E-004  0.6937926E+03  0.7818608E-02  0.9727907E-01
         13   -1    0    0    0    0  0.00000000000E+00  0.00000000000E+00  0.10000000000E+04  0.10000000000E+04  0.00000000000E+00 0. -1.
          2   -1    0    0  501    0 -0.00000000000E+00 -0.00000000000E+00 -0.12033703514E+03  0.12033703514E+03  0.00000000000E+00 0. -1.
    9000006    2    1    2  501    0  0.00000000000E+00  0.00000000000E+00  0.87966296486E+03  0.11203370351E+04  0.69379257746E+03 0.  0.
         13    1    3    3    0    0 -0.62060055780E+02  0.11333953239E+03  0.95968644060E+03  0.96834671704E+03  0.00000000000E+00 0. -1.
          4    1    3    3  501    0  0.62060055780E+02 -0.11333953239E+03 -0.80023475738E+02  0.15199031810E+03  0.00000000000E+00 0. -1.
<mgrwt>
<rscale>  0 0.69379258E+03</rscale>
<asrwt>0</asrwt>
<pdfrwt beam="1">0</pdfrwt>
<pdfrwt beam="2">  1        2 0.43759014E+00 0.69379258E+03</pdfrwt>
<totfact> 0.28513965E+00</totfact>
</mgrwt>
</event>
<event>
 5    1  0.2368916E-004  0.6612096E+03  0.7818608E-02  0.9785970E-01
         13   -1    0    0    0    0  0.00000000000E+00  0.00000000000E+00  0.10000000000E+04  0.10000000000E+04  0.00000000000E+00 0. -1.
          2   -1    0    0  501    0 -0.00000000000E+00 -0.00000000000E+00 -0.10929954276E+03  0.10929954276E+03  0.00000000000E+00 0. -1.
    9000006    2    1    2  501    0  0.00000000000E+00  0.00000000000E+00  0.89070045724E+03  0.11092995428E+04  0.66120962715E+03 0.  0.
         13    1    3    3    0    0 -0.30375175483E+03  0.12821421554E+03  0.48629148533E+03  0.58752312494E+03  0.00000000000E+00 0. -1.
          4    1    3    3  501    0  0.30375175483E+03 -0.12821421554E+03  0.40440897191E+03  0.52177641782E+03  0.00000000000E+00 0. -1.
<mgrwt>
<rscale>  0 0.66120963E+03</rscale>
<asrwt>0</asrwt>
<pdfrwt beam="1">0</pdfrwt>
<pdfrwt beam="2">  1        2 0.39745372E+00 0.66120963E+03</pdfrwt>
<totfact> 0.40677193E+00</totfact>
</mgrwt>
</event>
<event>
 5    1  0.2368916E-004  0.6511889E+03  0.7818608E-02  0.9804551E-01
         13   -1    0    0    0    0  0.00000000000E+00  0.00000000000E+00  0.10000000000E+04  0.10000000000E+04  0.00000000000E+00 0. -1.
          2   -1    0    0  501    0 -0.00000000000E+00 -0.00000000000E+00 -0.10601175481E+03  0.10601175481E+03  0.00000000000E+00 0. -1.
    9000006    2    1    2  501    0  0.00000000000E+00  0.00000000000E+00  0.89398824519E+03  0.11060117548E+04  0.65118892747E+03 0.  0.
         13    1    3    3    0    0 -0.12833952359E+02  0.19343038580E+03  0.89129942486E+03  0.91213742892E+03  0.00000000000E+00 0. -1.
          4    1    3    3  501    0  0.12833952359E+02 -0.19343038580E+03  0.26888203272E+01  0.19387432589E+03  0.00000000000E+00 0. -1.
<mgrwt>
<rscale>  0 0.65118893E+03</rscale>
<asrwt>0</asrwt>
<pdfrwt beam="1">0</pdfrwt>
<pdfrwt beam="2">  1        2 0.38549810E+00 0.65118893E+03</pdfrwt>
<totfact> 0.45104321E+00</totfact>
</mgrwt>
</event>
<event>
 5    1  0.2368916E-004  0.6505769E+03  0.7818608E-02  0.9805697E-01
         13   -1    0    0    0    0  0.00000000000E+00  0.00000000000E+00  0.10000000000E+04  0.10000000000E+04  0.00000000000E+00 0. -1.
          4   -1    0    0  501    0 -0.00000000000E+00 -0.00000000000E+00 -0.10581257191E+03  0.10581257191E+03  0.00000000000E+00 0. -1.
    9000006    2    1    2  501    0  0.00000000000E+00  0.00000000000E+00  0.89418742809E+03  0.11058125719E+04  0.65057688835E+03 0.  0.
         13    1    3    3    0    0  0.28836510532E+03 -0.14801530311E+03  0.40055654120E+03  0.51527517563E+03  0.00000000000E+00 0. -1.
          2    1    3    3  501    0 -0.28836510532E+03  0.14801530311E+03  0.49363088689E+03  0.59053739629E+03  0.00000000000E+00 0. -1.
<mgrwt>
<rscale>  0 0.65057689E+03</rscale>
<asrwt>0</asrwt>
<pdfrwt beam="1">0</pdfrwt>
<pdfrwt beam="2">  1        4 0.38477380E+00 0.65057689E+03</pdfrwt>
<totfact> 0.40738082E-02</totfact>
</mgrwt>
</event>
<event>
 5    1  0.2368916E-004  0.6516041E+03  0.7818608E-02  0.9803774E-01
         13   -1    0    0    0    0  0.00000000000E+00  0.00000000000E+00  0.10000000000E+04  0.10000000000E+04  0.00000000000E+00 0. -1.
          2   -1    0    0  501    0 -0.00000000000E+00 -0.00000000000E+00 -0.10614696856E+03  0.10614696856E+03  0.00000000000E+00 0. -1.
    9000006    2    1    2  501    0  0.00000000000E+00  0.00000000000E+00  0.89385303144E+03  0.11061469686E+04  0.65160407784E+03 0.  0.
         13    1    3    3    0    0  0.20130447040E+03 -0.22594870373E+03  0.24201390691E+03  0.38748811292E+03  0.00000000000E+00 0. -1.
          4    1    3    3  501    0 -0.20130447040E+03  0.22594870373E+03  0.65183912453E+03  0.71865885564E+03  0.00000000000E+00 0. -1.
<mgrwt>
<rscale>  0 0.65160408E+03</rscale>
<asrwt>0</asrwt>
<pdfrwt beam="1">0</pdfrwt>
<pdfrwt beam="2">  1        2 0.38598979E+00 0.65160408E+03</pdfrwt>
<totfact> 0.44913991E+00</totfact>
</mgrwt>
</event>
<event>
 5    1  0.2368916E-004  0.6532778E+03  0.7818608E-02  0.9800648E-01
         13   -1    0    0    0    0  0.00000000000E+00  0.00000000000E+00  0.10000000000E+04  0.10000000000E+04  0.00000000000E+00 0. -1.
          2   -1    0    0  501    0 -0.00000000000E+00 -0.00000000000E+00 -0.10669297465E+03  0.10669297465E+03  0.00000000000E+00 0. -1.
    9000006    2    1    2  501    0  0.00000000000E+00  0.00000000000E+00  0.89330702535E+03  0.11066929747E+04  0.65327781120E+03 0.  0.
         13    1    3    3    0    0  0.28085534178E+03  0.96861441647E+02  0.21666559363E+03  0.36770346931E+03  0.00000000000E+00 0. -1.
          4    1    3    3  501    0 -0.28085534178E+03 -0.96861441647E+02  0.67664143172E+03  0.73898950534E+03  0.00000000000E+00 0. -1.
<mgrwt>
<rscale>  0 0.65327781E+03</rscale>
<asrwt>0</asrwt>
<pdfrwt beam="1">0</pdfrwt>
<pdfrwt beam="2">  1        2 0.38797527E+00 0.65327781E+03</pdfrwt>
<totfact> 0.44152794E+00</totfact>
</mgrwt>
</event>
<event>
 5    1  0.2368916E-004  0.4985847E+03  0.7818608E-02  0.1014149E+00
         13   -1    0    0    0    0  0.00000000000E+00  0.00000000000E+00  0.10000000000E+04  0.10000000000E+04  0.00000000000E+00 0. -1.
          2   -1    0    0  501    0 -0.00000000000E+00 -0.00000000000E+00 -0.62146674718E+02  0.62146674718E+02  0.00000000000E+00 0. -1.
    9000006    2    1    2  501    0  0.00000000000E+00  0.00000000000E+00  0.93785332528E+03  0.10621466747E+04  0.49858469579E+03 0.  0.
         13    1    3    3    0    0 -0.96317473492E+02  0.18001046327E+03  0.16416490739E+03  0.26197507402E+03  0.00000000000E+00 0. -1.
          2    1    3    3  501    0  0.96317473492E+02 -0.18001046327E+03  0.77368841789E+03  0.80017160070E+03  0.00000000000E+00 0. -1.
<mgrwt>
<rscale>  0 0.49858470E+03</rscale>
<asrwt>0</asrwt>
<pdfrwt beam="1">0</pdfrwt>
<pdfrwt beam="2">  1        2 0.22598838E+00 0.49858470E+03</pdfrwt>
<totfact> 0.17027993E+01</totfact>
</mgrwt>
</event>
<event>
 5    1  0.2368916E-004  0.6509101E+03  0.7818608E-02  0.9805073E-01
         13   -1    0    0    0    0  0.00000000000E+00  0.00000000000E+00  0.10000000000E+04  0.10000000000E+04  0.00000000000E+00 0. -1.
          2   -1    0    0  501    0 -0.00000000000E+00 -0.00000000000E+00 -0.10592098414E+03  0.10592098414E+03  0.00000000000E+00 0. -1.
    9000006    2    1    2  501    0  0.00000000000E+00  0.00000000000E+00  0.89407901586E+03  0.11059209841E+04  0.65091008331E+03 0.  0.
         13    1    3    3    0    0 -0.10318255838E+03 -0.23187066141E+03  0.10087603013E+03  0.27310550604E+03  0.00000000000E+00 0. -1.
          4    1    3    3  501    0  0.10318255838E+03  0.23187066141E+03  0.79320298573E+03  0.83281547809E+03  0.00000000000E+00 0. -1.
<mgrwt>
<rscale>  0 0.65091008E+03</rscale>
<asrwt>0</asrwt>
<pdfrwt beam="1">0</pdfrwt>
<pdfrwt beam="2">  1        2 0.38516803E+00 0.65091008E+03</pdfrwt>
<totfact> 0.45232502E+00</totfact>
</mgrwt>
</event>
<event>
 5    1  0.2368916E-004  0.6469331E+03  0.7818608E-02  0.9812551E-01
         13   -1    0    0    0    0  0.00000000000E+00  0.00000000000E+00  0.10000000000E+04  0.10000000000E+04  0.00000000000E+00 0. -1.
          2   -1    0    0  501    0 -0.00000000000E+00 -0.00000000000E+00 -0.10463060695E+03  0.10463060695E+03  0.00000000000E+00 0. -1.
    9000006    2    1    2  501    0  0.00000000000E+00  0.00000000000E+00  0.89536939305E+03  0.11046306070E+04  0.64693309377E+03 0.  0.
         13    1    3    3    0    0  0.17985403227E+03  0.20470980562E+03  0.15008645821E+03  0.31109407320E+03  0.00000000000E+00 0. -1.
          4    1    3    3  501    0 -0.17985403227E+03 -0.20470980562E+03  0.74528293484E+03  0.79353653375E+03  0.00000000000E+00 0. -1.
<mgrwt>
<rscale>  0 0.64693309E+03</rscale>
<asrwt>0</asrwt>
<pdfrwt beam="1">0</pdfrwt>
<pdfrwt beam="2">  1        2 0.38047574E+00 0.64693309E+03</pdfrwt>
<totfact> 0.47090813E+00</totfact>
</mgrwt>
</event>
<event>
 5    1  0.2368916E-004  0.6307993E+03  0.7818608E-02  0.9843490E-01
         13   -1    0    0    0    0  0.00000000000E+00  0.00000000000E+00  0.10000000000E+04  0.10000000000E+04  0.00000000000E+00 0. -1.
          2   -1    0    0  501    0 -0.00000000000E+00 -0.00000000000E+00 -0.99476940068E+02  0.99476940068E+02  0.00000000000E+00 0. -1.
    9000006    2    1    2  501    0  0.00000000000E+00  0.00000000000E+00  0.90052305993E+03  0.10994769401E+04  0.63079930269E+03 0.  0.
         13    1    3    3    0    0  0.18587727665E+03 -0.21755067464E+03  0.21903904856E+03  0.36035643855E+03  0.00000000000E+00 0. -1.
          4    1    3    3  501    0 -0.18587727665E+03  0.21755067464E+03  0.68148401138E+03  0.73912050152E+03  0.00000000000E+00 0. -1.
<mgrwt>
<rscale>  0 0.63079930E+03</rscale>
<asrwt>0</asrwt>
<pdfrwt beam="1">0</pdfrwt>
<pdfrwt beam="2">  1        2 0.36173509E+00 0.63079930E+03</pdfrwt>
<totfact> 0.55229503E+00</totfact>
</mgrwt>
</event>
<event>
 5    1  0.2368916E-004  0.6439943E+03  0.7818608E-02  0.9818114E-01
         13   -1    0    0    0    0  0.00000000000E+00  0.00000000000E+00  0.10000000000E+04  0.10000000000E+04  0.00000000000E+00 0. -1.
          2   -1    0    0  501    0 -0.00000000000E+00 -0.00000000000E+00 -0.10368217312E+03  0.10368217312E+03  0.00000000000E+00 0. -1.
    9000006    2    1    2  501    0  0.00000000000E+00  0.00000000000E+00  0.89631782688E+03  0.11036821731E+04  0.64399432642E+03 0.  0.
         13    1    3    3    0    0  0.42552628119E+02 -0.31823712313E+03  0.40629917765E+03  0.51784613010E+03  0.00000000000E+00 0. -1.
          4    1    3    3  501    0 -0.42552628119E+02  0.31823712313E+03  0.49001864923E+03  0.58583604301E+03  0.00000000000E+00 0. -1.
<mgrwt>
<rscale>  0 0.64399433E+03</rscale>
<asrwt>0</asrwt>
<pdfrwt beam="1">0</pdfrwt>
<pdfrwt beam="2">  1        2 0.37702688E+00 0.64399433E+03</pdfrwt>
<totfact> 0.48500660E+00</totfact>
</mgrwt>
</event>
<event>
 5    1  0.2368916E-004  0.6515645E+03  0.7818608E-02  0.9803848E-01
         13   -1    0    0    0    0  0.00000000000E+00  0.00000000000E+00  0.10000000000E+04  0.10000000000E+04  0.00000000000E+00 0. -1.
          2   -1    0    0  501    0 -0.00000000000E+00 -0.00000000000E+00 -0.10613406285E+03  0.10613406285E+03  0.00000000000E+00 0. -1.
    9000006    2    1    2  501    0  0.00000000000E+00  0.00000000000E+00  0.89386593715E+03  0.11061340628E+04  0.65156446449E+03 0.  0.
         13    1    3    3    0    0 -0.16947399269E+03 -0.23869775402E+03  0.68962104452E+03  0.74918304640E+03  0.00000000000E+00 0. -1.
          4    1    3    3  501    0  0.16947399269E+03  0.23869775402E+03  0.20424489263E+03  0.35695101644E+03  0.00000000000E+00 0. -1.
<mgrwt>
<rscale>  0 0.65156446E+03</rscale>
<asrwt>0</asrwt>
<pdfrwt beam="1">0</pdfrwt>
<pdfrwt beam="2">  1        2 0.38594286E+00 0.65156446E+03</pdfrwt>
<totfact> 0.44932125E+00</totfact>
</mgrwt>
</event>
<event>
 5    1  0.2368916E-004  0.6598875E+03  0.7818608E-02  0.9788401E-01
         13   -1    0    0    0    0  0.00000000000E+00  0.00000000000E+00  0.10000000000E+04  0.10000000000E+04  0.00000000000E+00 0. -1.
          2   -1    0    0  501    0 -0.00000000000E+00 -0.00000000000E+00 -0.10886289416E+03  0.10886289416E+03  0.00000000000E+00 0. -1.
    9000006    2    1    2  501    0  0.00000000000E+00  0.00000000000E+00  0.89113710584E+03  0.11088628942E+04  0.65988754848E+03 0.  0.
         13    1    3    3    0    0 -0.22410303050E+03 -0.74110691440E+02  0.58174692095E+02  0.24310256614E+03  0.00000000000E+00 0. -1.
          4    1    3    3  501    0  0.22410303050E+03  0.74110691440E+02  0.83296241374E+03  0.86576032802E+03  0.00000000000E+00 0. -1.
<mgrwt>
<rscale>  0 0.65988755E+03</rscale>
<asrwt>0</asrwt>
<pdfrwt beam="1">0</pdfrwt>
<pdfrwt beam="2">  1        2 0.39586590E+00 0.65988755E+03</pdfrwt>
<totfact> 0.41241607E+00</totfact>
</mgrwt>
</event>
<event>
 5    1  0.2368916E-004  0.6447735E+03  0.7818608E-02  0.9816636E-01
         13   -1    0    0    0    0  0.00000000000E+00  0.00000000000E+00  0.10000000000E+04  0.10000000000E+04  0.00000000000E+00 0. -1.
          2   -1    0    0  501    0 -0.00000000000E+00 -0.00000000000E+00 -0.10393322555E+03  0.10393322555E+03  0.00000000000E+00 0. -1.
    9000006    2    1    2  501    0  0.00000000000E+00  0.00000000000E+00  0.89606677445E+03  0.11039332256E+04  0.64477352784E+03 0.  0.
         13    1    3    3    0    0 -0.11899416113E+02 -0.32134879960E+03  0.40874473366E+03  0.52007586409E+03  0.00000000000E+00 0. -1.
          2    1    3    3  501    0  0.11899416113E+02  0.32134879960E+03  0.48732204078E+03  0.58385736147E+03  0.00000000000E+00 0. -1.
<mgrwt>
<rscale>  0 0.64477353E+03</rscale>
<asrwt>0</asrwt>
<pdfrwt beam="1">0</pdfrwt>
<pdfrwt beam="2">  1        2 0.37793980E+00 0.64477353E+03</pdfrwt>
<totfact> 0.48123776E+00</totfact>
</mgrwt>
</event>
<event>
 5    1  0.2368916E-004  0.6353675E+03  0.7818608E-02  0.9834630E-01
         13   -1    0    0    0    0  0.00000000000E+00  0.00000000000E+00  0.10000000000E+04  0.10000000000E+04  0.00000000000E+00 0. -1.
          2   -1    0    0  501    0 -0.00000000000E+00 -0.00000000000E+00 -0.10092298012E+03  0.10092298012E+03  0.00000000000E+00 0. -1.
    9000006    2    1    2  501    0  0.00000000000E+00  0.00000000000E+00  0.89907701988E+03  0.11009229801E+04  0.63536754754E+03 0.  0.
         13    1    3    3    0    0  0.12038676057E+03  0.29301114035E+03  0.49106920727E+03  0.58437784594E+03  0.00000000000E+00 0. -1.
          4    1    3    3  501    0 -0.12038676057E+03 -0.29301114035E+03  0.40800781261E+03  0.51654513418E+03  0.00000000000E+00 0. -1.
<mgrwt>
<rscale>  0 0.63536755E+03</rscale>
<asrwt>0</asrwt>
<pdfrwt beam="1">0</pdfrwt>
<pdfrwt beam="2">  1        2 0.36699343E+00 0.63536755E+03</pdfrwt>
<totfact> 0.52824680E+00</totfact>
</mgrwt>
</event>
<event>
 5    1  0.2368916E-004  0.6486045E+03  0.7818608E-02  0.9809401E-01
         13   -1    0    0    0    0  0.00000000000E+00  0.00000000000E+00  0.10000000000E+04  0.10000000000E+04  0.00000000000E+00 0. -1.
          2   -1    0    0  501    0 -0.00000000000E+00 -0.00000000000E+00 -0.10517195411E+03  0.10517195411E+03  0.00000000000E+00 0. -1.
    9000006    2    1    2  501    0  0.00000000000E+00  0.00000000000E+00  0.89482804589E+03  0.11051719541E+04  0.64860451466E+03 0.  0.
         13    1    3    3    0    0 -0.14444421467E+03  0.92950134706E+02  0.91612625707E+03  0.93208968323E+03  0.00000000000E+00 0. -1.
          4    1    3    3  501    0  0.14444421467E+03 -0.92950134706E+02 -0.21298211175E+02  0.17308227088E+03  0.00000000000E+00 0. -1.
<mgrwt>
<rscale>  0 0.64860451E+03</rscale>
<asrwt>0</asrwt>
<pdfrwt beam="1">0</pdfrwt>
<pdfrwt beam="2">  1        2 0.38244428E+00 0.64860451E+03</pdfrwt>
<totfact> 0.46302922E+00</totfact>
</mgrwt>
</event>
<event>
 5    1  0.2368916E-004  0.6547178E+03  0.7818608E-02  0.9797967E-01
         13   -1    0    0    0    0  0.00000000000E+00  0.00000000000E+00  0.10000000000E+04  0.10000000000E+04  0.00000000000E+00 0. -1.
          2   -1    0    0  501    0 -0.00000000000E+00 -0.00000000000E+00 -0.10716383596E+03  0.10716383596E+03  0.00000000000E+00 0. -1.
    9000006    2    1    2  501    0  0.00000000000E+00  0.00000000000E+00  0.89283616404E+03  0.11071638360E+04  0.65471775892E+03 0.  0.
         13    1    3    3    0    0  0.11065373793E+03  0.30767843652E+03  0.41949013593E+03  0.53186675414E+03  0.00000000000E+00 0. -1.
          2    1    3    3  501    0 -0.11065373793E+03 -0.30767843652E+03  0.47334602811E+03  0.57529708182E+03  0.00000000000E+00 0. -1.
<mgrwt>
<rscale>  0 0.65471776E+03</rscale>
<asrwt>0</asrwt>
<pdfrwt beam="1">0</pdfrwt>
<pdfrwt beam="2">  1        2 0.38968750E+00 0.65471776E+03</pdfrwt>
<totfact> 0.43505755E+00</totfact>
</mgrwt>
</event>
<event>
 5    1  0.2368916E-004  0.6472953E+03  0.7818608E-02  0.9811868E-01
         13   -1    0    0    0    0  0.00000000000E+00  0.00000000000E+00  0.10000000000E+04  0.10000000000E+04  0.00000000000E+00 0. -1.
          2   -1    0    0  501    0 -0.00000000000E+00 -0.00000000000E+00 -0.10474780111E+03  0.10474780111E+03  0.00000000000E+00 0. -1.
    9000006    2    1    2  501    0  0.00000000000E+00  0.00000000000E+00  0.89525219889E+03  0.11047478011E+04  0.64729529925E+03 0.  0.
         13    1    3    3    0    0 -0.13761775818E+03 -0.19274596852E+03  0.71149082715E+02  0.24728899636E+03  0.00000000000E+00 0. -1.
          2    1    3    3  501    0  0.13761775818E+03  0.19274596852E+03  0.82410311618E+03  0.85745880475E+03  0.00000000000E+00 0. -1.
<mgrwt>
<rscale>  0 0.64729530E+03</rscale>
<asrwt>0</asrwt>
<pdfrwt beam="1">0</pdfrwt>
<pdfrwt beam="2">  1        2 0.38090190E+00 0.64729530E+03</pdfrwt>
<totfact> 0.46919219E+00</totfact>
</mgrwt>
</event>
<event>
 5    1  0.2368916E-004  0.6519061E+03  0.7818608E-02  0.9803209E-01
         13   -1    0    0    0    0  0.00000000000E+00  0.00000000000E+00  0.10000000000E+04  0.10000000000E+04  0.00000000000E+00 0. -1.
          2   -1    0    0  501    0 -0.00000000000E+00 -0.00000000000E+00 -0.10624538710E+03  0.10624538710E+03  0.00000000000E+00 0. -1.
    9000006    2    1    2  501    0  0.00000000000E+00  0.00000000000E+00  0.89375461290E+03  0.11062453871E+04  0.65190608862E+03 0.  0.
         13    1    3    3    0    0 -0.30065866655E+03 -0.81448251739E+01  0.66006735348E+03  0.72536258732E+03  0.00000000000E+00 0. -1.
          2    1    3    3  501    0  0.30065866655E+03  0.81448251739E+01  0.23368725943E+03  0.38088279978E+03  0.00000000000E+00 0. -1.
<mgrwt>
<rscale>  0 0.65190609E+03</rscale>
<asrwt>0</asrwt>
<pdfrwt beam="1">0</pdfrwt>
<pdfrwt beam="2">  1        2 0.38634768E+00 0.65190609E+03</pdfrwt>
<totfact> 0.44775912E+00</totfact>
</mgrwt>
</event>
<event>
 5    1  0.2368916E-004  0.6525441E+03  0.7818608E-02  0.9802017E-01
         13   -1    0    0    0    0  0.00000000000E+00  0.00000000000E+00  0.10000000000E+04  0.10000000000E+04  0.00000000000E+00 0. -1.
          2   -1    0    0  501    0 -0.00000000000E+00 -0.00000000000E+00 -0.10645345684E+03  0.10645345684E+03  0.00000000000E+00 0. -1.
    9000006    2    1    2  501    0  0.00000000000E+00  0.00000000000E+00  0.89354654316E+03  0.11064534568E+04  0.65254411910E+03 0.  0.
         13    1    3    3    0    0 -0.73194095096E+01 -0.27559988870E+03  0.74262785043E+03  0.79215212974E+03  0.00000000000E+00 0. -1.
          2    1    3    3  501    0  0.73194095096E+01  0.27559988870E+03  0.15091869272E+03  0.31430132710E+03  0.00000000000E+00 0. -1.
<mgrwt>
<rscale>  0 0.65254412E+03</rscale>
<asrwt>0</asrwt>
<pdfrwt beam="1">0</pdfrwt>
<pdfrwt beam="2">  1        2 0.38710430E+00 0.65254412E+03</pdfrwt>
<totfact> 0.44485260E+00</totfact>
</mgrwt>
</event>
<event>
 5    1  0.2368916E-004  0.6575353E+03  0.7818608E-02  0.9792742E-01
         13   -1    0    0    0    0  0.00000000000E+00  0.00000000000E+00  0.10000000000E+04  0.10000000000E+04  0.00000000000E+00 0. -1.
          2   -1    0    0  501    0 -0.00000000000E+00 -0.00000000000E+00 -0.10808817416E+03  0.10808817416E+03  0.00000000000E+00 0. -1.
    9000006    2    1    2  501    0  0.00000000000E+00  0.00000000000E+00  0.89191182584E+03  0.11080881742E+04  0.65753531970E+03 0.  0.
         13    1    3    3    0    0 -0.22764412127E+03  0.71389635322E+01  0.84551659445E+03  0.87565468208E+03  0.00000000000E+00 0. -1.
          4    1    3    3  501    0  0.22764412127E+03 -0.71389635322E+01  0.46395231384E+02  0.23243349209E+03  0.00000000000E+00 0. -1.
<mgrwt>
<rscale>  0 0.65753532E+03</rscale>
<asrwt>0</asrwt>
<pdfrwt beam="1">0</pdfrwt>
<pdfrwt beam="2">  1        2 0.39304873E+00 0.65753532E+03</pdfrwt>
<totfact> 0.42260426E+00</totfact>
</mgrwt>
</event>
<event>
 5    1  0.2368916E-004  0.6533706E+03  0.7818608E-02  0.9800475E-01
         13   -1    0    0    0    0  0.00000000000E+00  0.00000000000E+00  0.10000000000E+04  0.10000000000E+04  0.00000000000E+00 0. -1.
          2   -1    0    0  501    0 -0.00000000000E+00 -0.00000000000E+00 -0.10672329998E+03  0.10672329998E+03  0.00000000000E+00 0. -1.
    9000006    2    1    2  501    0  0.00000000000E+00  0.00000000000E+00  0.89327670002E+03  0.11067233000E+04  0.65337064513E+03 0.  0.
         13    1    3    3    0    0 -0.64448526369E+02 -0.92221824442E+02 -0.72870625319E+02  0.13404702715E+03  0.00000000000E+00 0. -1.
          2    1    3    3  501    0  0.64448526369E+02  0.92221824442E+02  0.96614732534E+03  0.97267627282E+03  0.00000000000E+00 0. -1.
<mgrwt>
<rscale>  0 0.65337065E+03</rscale>
<asrwt>0</asrwt>
<pdfrwt beam="1">0</pdfrwt>
<pdfrwt beam="2">  1        2 0.38808555E+00 0.65337065E+03</pdfrwt>
<totfact> 0.44110862E+00</totfact>
</mgrwt>
</event>
<event>
 5    1  0.2368916E-004  0.6527045E+03  0.7818608E-02  0.9801718E-01
         13   -1    0    0    0    0  0.00000000000E+00  0.00000000000E+00  0.10000000000E+04  0.10000000000E+04  0.00000000000E+00 0. -1.
          2   -1    0    0  501    0 -0.00000000000E+00 -0.00000000000E+00 -0.10650579190E+03  0.10650579190E+03  0.00000000000E+00 0. -1.
    9000006    2    1    2  501    0  0.00000000000E+00  0.00000000000E+00  0.89349420810E+03  0.11065057919E+04  0.65270450250E+03 0.  0.
         13    1    3    3    0    0 -0.24647711468E+03 -0.97400598812E+02  0.76959545340E+03  0.81395024824E+03  0.00000000000E+00 0. -1.
          2    1    3    3  501    0  0.24647711468E+03  0.97400598812E+02  0.12389875470E+03  0.29255554366E+03  0.00000000000E+00 0. -1.
<mgrwt>
<rscale>  0 0.65270450E+03</rscale>
<asrwt>0</asrwt>
<pdfrwt beam="1">0</pdfrwt>
<pdfrwt beam="2">  1        2 0.38729461E+00 0.65270450E+03</pdfrwt>
<totfact> 0.44412423E+00</totfact>
</mgrwt>
</event>
<event>
 5    1  0.2368916E-004  0.6498299E+03  0.7818608E-02  0.9807098E-01
         13   -1    0    0    0    0  0.00000000000E+00  0.00000000000E+00  0.10000000000E+04  0.10000000000E+04  0.00000000000E+00 0. -1.
          2   -1    0    0  501    0 -0.00000000000E+00 -0.00000000000E+00 -0.10556972659E+03  0.10556972659E+03  0.00000000000E+00 0. -1.
    9000006    2    1    2  501    0  0.00000000000E+00  0.00000000000E+00  0.89443027341E+03  0.11055697266E+04  0.64982990571E+03 0.  0.
         13    1    3    3    0    0  0.31818950116E+03  0.45588333005E+02  0.52785979278E+03  0.61802816731E+03  0.00000000000E+00 0. -1.
          4    1    3    3  501    0 -0.31818950116E+03 -0.45588333005E+02  0.36657048063E+03  0.48754155928E+03  0.00000000000E+00 0. -1.
<mgrwt>
<rscale>  0 0.64982991E+03</rscale>
<asrwt>0</asrwt>
<pdfrwt beam="1">0</pdfrwt>
<pdfrwt beam="2">  1        2 0.38389072E+00 0.64982991E+03</pdfrwt>
<totfact> 0.45731647E+00</totfact>
</mgrwt>
</event>
<event>
 5    1  0.2368916E-004  0.6561411E+03  0.7818608E-02  0.9795324E-01
         13   -1    0    0    0    0  0.00000000000E+00  0.00000000000E+00  0.10000000000E+04  0.10000000000E+04  0.00000000000E+00 0. -1.
          2   -1    0    0  501    0 -0.00000000000E+00 -0.00000000000E+00 -0.10763028005E+03  0.10763028005E+03  0.00000000000E+00 0. -1.
    9000006    2    1    2  501    0  0.00000000000E+00  0.00000000000E+00  0.89236971995E+03  0.11076302801E+04  0.65614108255E+03 0.  0.
         13    1    3    3    0    0 -0.25020268587E+03 -0.86600924636E+02  0.11915899511E+03  0.29034457164E+03  0.00000000000E+00 0. -1.
          2    1    3    3  501    0  0.25020268587E+03  0.86600924636E+02  0.77321072484E+03  0.81728570841E+03  0.00000000000E+00 0. -1.
<mgrwt>
<rscale>  0 0.65614108E+03</rscale>
<asrwt>0</asrwt>
<pdfrwt beam="1">0</pdfrwt>
<pdfrwt beam="2">  1        2 0.39138366E+00 0.65614108E+03</pdfrwt>
<totfact> 0.42873249E+00</totfact>
</mgrwt>
</event>
<event>
 5    1  0.2368916E-004  0.6524278E+03  0.7818608E-02  0.9802234E-01
         13   -1    0    0    0    0  0.00000000000E+00  0.00000000000E+00  0.10000000000E+04  0.10000000000E+04  0.00000000000E+00 0. -1.
          2   -1    0    0  501    0 -0.00000000000E+00 -0.00000000000E+00 -0.10641551027E+03  0.10641551027E+03  0.00000000000E+00 0. -1.
    9000006    2    1    2  501    0  0.00000000000E+00  0.00000000000E+00  0.89358448973E+03  0.11064155103E+04  0.65242780526E+03 0.  0.
         13    1    3    3    0    0 -0.31801925687E+03  0.66845871909E+02  0.39850112407E+03  0.51420595505E+03  0.00000000000E+00 0. -1.
          2    1    3    3  501    0  0.31801925687E+03 -0.66845871909E+02  0.49508336567E+03  0.59220955521E+03  0.00000000000E+00 0. -1.
<mgrwt>
<rscale>  0 0.65242781E+03</rscale>
<asrwt>0</asrwt>
<pdfrwt beam="1">0</pdfrwt>
<pdfrwt beam="2">  1        2 0.38696631E+00 0.65242781E+03</pdfrwt>
<totfact> 0.44538140E+00</totfact>
</mgrwt>
</event>
<event>
 5    1  0.2368916E-004  0.6611549E+03  0.7818608E-02  0.9786070E-01
         13   -1    0    0    0    0  0.00000000000E+00  0.00000000000E+00  0.10000000000E+04  0.10000000000E+04  0.00000000000E+00 0. -1.
          2   -1    0    0  501    0 -0.00000000000E+00 -0.00000000000E+00 -0.10928146285E+03  0.10928146285E+03  0.00000000000E+00 0. -1.
    9000006    2    1    2  501    0  0.00000000000E+00  0.00000000000E+00  0.89071853715E+03  0.11092814629E+04  0.66115493752E+03 0.  0.
         13    1    3    3    0    0 -0.96984679048E+02 -0.21732536875E+03  0.83032100601E+03  0.86375304161E+03  0.00000000000E+00 0. -1.
          4    1    3    3  501    0  0.96984679048E+02  0.21732536875E+03  0.60397531137E+02  0.24552842124E+03  0.00000000000E+00 0. -1.
<mgrwt>
<rscale>  0 0.66115494E+03</rscale>
<asrwt>0</asrwt>
<pdfrwt beam="1">0</pdfrwt>
<pdfrwt beam="2">  1        2 0.39738798E+00 0.66115494E+03</pdfrwt>
<totfact> 0.40700425E+00</totfact>
</mgrwt>
</event>
<event>
 5    1  0.2368916E-004  0.6485866E+03  0.7818608E-02  0.9809435E-01
         13   -1    0    0    0    0  0.00000000000E+00  0.00000000000E+00  0.10000000000E+04  0.10000000000E+04  0.00000000000E+00 0. -1.
          2   -1    0    0  501    0 -0.00000000000E+00 -0.00000000000E+00 -0.10516614460E+03  0.10516614460E+03  0.00000000000E+00 0. -1.
    9000006    2    1    2  501    0  0.00000000000E+00  0.00000000000E+00  0.89483385540E+03  0.11051661446E+04  0.64858660054E+03 0.  0.
         13    1    3    3    0    0  0.22727439935E+03  0.20663335655E+03  0.62462187107E+03  0.69606284088E+03  0.00000000000E+00 0. -1.
          4    1    3    3  501    0 -0.22727439935E+03 -0.20663335655E+03  0.27021198433E+03  0.40910330372E+03  0.00000000000E+00 0. -1.
<mgrwt>
<rscale>  0 0.64858660E+03</rscale>
<asrwt>0</asrwt>
<pdfrwt beam="1">0</pdfrwt>
<pdfrwt beam="2">  1        2 0.38242315E+00 0.64858660E+03</pdfrwt>
<totfact> 0.46311313E+00</totfact>
</mgrwt>
</event>
<event>
 5    1  0.2368916E-004  0.6260681E+03  0.7818608E-02  0.9852752E-01
         13   -1    0    0    0    0  0.00000000000E+00  0.00000000000E+00  0.10000000000E+04  0.10000000000E+04  0.00000000000E+00 0. -1.
          2   -1    0    0  501    0 -0.00000000000E+00 -0.00000000000E+00 -0.97990329305E+02  0.97990329305E+02  0.00000000000E+00 0. -1.
    9000006    2    1    2  501    0  0.00000000000E+00  0.00000000000E+00  0.90200967069E+03  0.10979903293E+04  0.62606814104E+03 0.  0.
         13    1    3    3    0    0  0.11732566116E+03  0.28015902484E+03  0.31818003073E+03  0.43987830353E+03  0.00000000000E+00 0. -1.
          4    1    3    3  501    0 -0.11732566116E+03 -0.28015902484E+03  0.58382963997E+03  0.65811202577E+03  0.00000000000E+00 0. -1.
<mgrwt>
<rscale>  0 0.62606814E+03</rscale>
<asrwt>0</asrwt>
<pdfrwt beam="1">0</pdfrwt>
<pdfrwt beam="2">  1        2 0.35632922E+00 0.62606814E+03</pdfrwt>
<totfact> 0.57806795E+00</totfact>
</mgrwt>
</event>
<event>
 5    1  0.2368916E-004  0.6440204E+03  0.7818608E-02  0.9818065E-01
         13   -1    0    0    0    0  0.00000000000E+00  0.00000000000E+00  0.10000000000E+04  0.10000000000E+04  0.00000000000E+00 0. -1.
          2   -1    0    0  501    0 -0.00000000000E+00 -0.00000000000E+00 -0.10369055377E+03  0.10369055377E+03  0.00000000000E+00 0. -1.
    9000006    2    1    2  501    0  0.00000000000E+00  0.00000000000E+00  0.89630944623E+03  0.11036905538E+04  0.64402035300E+03 0.  0.
         13    1    3    3    0    0  0.30851372507E+03 -0.42514730068E+02  0.30785373435E+03  0.43790654549E+03  0.00000000000E+00 0. -1.
          2    1    3    3  501    0 -0.30851372507E+03  0.42514730068E+02  0.58845571188E+03  0.66578400827E+03  0.00000000000E+00 0. -1.
<mgrwt>
<rscale>  0 0.64402035E+03</rscale>
<asrwt>0</asrwt>
<pdfrwt beam="1">0</pdfrwt>
<pdfrwt beam="2">  1        2 0.37705735E+00 0.64402035E+03</pdfrwt>
<totfact> 0.48488035E+00</totfact>
</mgrwt>
</event>
<event>
 5    1  0.2368916E-004  0.6155492E+03  0.7818608E-02  0.9873661E-01
         13   -1    0    0    0    0  0.00000000000E+00  0.00000000000E+00  0.10000000000E+04  0.10000000000E+04  0.00000000000E+00 0. -1.
          2   -1    0    0  501    0 -0.00000000000E+00 -0.00000000000E+00 -0.94725197062E+02  0.94725197062E+02  0.00000000000E+00 0. -1.
    9000006    2    1    2  501    0  0.00000000000E+00  0.00000000000E+00  0.90527480294E+03  0.10947251971E+04  0.61554917614E+03 0.  0.
         13    1    3    3    0    0 -0.27704059740E+03 -0.10664513294E+03  0.59712528780E+03  0.66684577401E+03  0.00000000000E+00 0. -1.
          4    1    3    3  501    0  0.27704059740E+03  0.10664513294E+03  0.30814951514E+03  0.42787942305E+03  0.00000000000E+00 0. -1.
<mgrwt>
<rscale>  0 0.61554918E+03</rscale>
<asrwt>0</asrwt>
<pdfrwt beam="1">0</pdfrwt>
<pdfrwt beam="2">  1        2 0.34445599E+00 0.61554918E+03</pdfrwt>
<totfact> 0.63864691E+00</totfact>
</mgrwt>
</event>
<event>
 5    1  0.2368916E-004  0.6250503E+03  0.7818608E-02  0.9854756E-01
         13   -1    0    0    0    0  0.00000000000E+00  0.00000000000E+00  0.10000000000E+04  0.10000000000E+04  0.00000000000E+00 0. -1.
          2   -1    0    0  501    0 -0.00000000000E+00 -0.00000000000E+00 -0.97671959866E+02  0.97671959866E+02  0.00000000000E+00 0. -1.
    9000006    2    1    2  501    0  0.00000000000E+00  0.00000000000E+00  0.90232804013E+03  0.10976719599E+04  0.62505026955E+03 0.  0.
         13    1    3    3    0    0 -0.87483809311E+02  0.26075764254E+03  0.19054526154E+03  0.33459746223E+03  0.00000000000E+00 0. -1.
          2    1    3    3  501    0  0.87483809311E+02 -0.26075764254E+03  0.71178277859E+03  0.76307449763E+03  0.00000000000E+00 0. -1.
<mgrwt>
<rscale>  0 0.62505027E+03</rscale>
<asrwt>0</asrwt>
<pdfrwt beam="1">0</pdfrwt>
<pdfrwt beam="2">  1        2 0.35517151E+00 0.62505027E+03</pdfrwt>
<totfact> 0.58373062E+00</totfact>
</mgrwt>
</event>
<event>
 5    1  0.2368916E-004  0.6455233E+03  0.7818608E-02  0.9815216E-01
         13   -1    0    0    0    0  0.00000000000E+00  0.00000000000E+00  0.10000000000E+04  0.10000000000E+04  0.00000000000E+00 0. -1.
          2   -1    0    0  501    0 -0.00000000000E+00 -0.00000000000E+00 -0.10417508695E+03  0.10417508695E+03  0.00000000000E+00 0. -1.
    9000006    2    1    2  501    0  0.00000000000E+00  0.00000000000E+00  0.89582491305E+03  0.11041750870E+04  0.64552331314E+03 0.  0.
         13    1    3    3    0    0 -0.57551178406E+02  0.31589723208E+03  0.50391408194E+03  0.59752205093E+03  0.00000000000E+00 0. -1.
          4    1    3    3  501    0  0.57551178406E+02 -0.31589723208E+03  0.39191083111E+03  0.50665303602E+03  0.00000000000E+00 0. -1.
<mgrwt>
<rscale>  0 0.64552331E+03</rscale>
<asrwt>0</asrwt>
<pdfrwt beam="1">0</pdfrwt>
<pdfrwt beam="2">  1        2 0.37881930E+00 0.64552331E+03</pdfrwt>
<totfact> 0.47763216E+00</totfact>
</mgrwt>
</event>
<event>
 5    1  0.2368916E-004  0.7150766E+03  0.7818608E-02  0.9691791E-01
         13   -1    0    0    0    0  0.00000000000E+00  0.00000000000E+00  0.10000000000E+04  0.10000000000E+04  0.00000000000E+00 0. -1.
          2   -1    0    0  501    0 -0.00000000000E+00 -0.00000000000E+00 -0.12783364150E+03  0.12783364150E+03  0.00000000000E+00 0. -1.
    9000006    2    1    2  501    0  0.00000000000E+00  0.00000000000E+00  0.87216635850E+03  0.11278336415E+04  0.71507661548E+03 0.  0.
         13    1    3    3    0    0  0.32781012779E+03  0.12723303200E+02  0.21184987691E+03  0.39051470225E+03  0.00000000000E+00 0. -1.
          4    1    3    3  501    0 -0.32781012779E+03 -0.12723303200E+02  0.66031648159E+03  0.73731893926E+03  0.00000000000E+00 0. -1.
<mgrwt>
<rscale>  0 0.71507662E+03</rscale>
<asrwt>0</asrwt>
<pdfrwt beam="1">0</pdfrwt>
<pdfrwt beam="2">  1        2 0.46485059E+00 0.71507662E+03</pdfrwt>
<totfact> 0.22203646E+00</totfact>
</mgrwt>
</event>
<event>
 5    1  0.2368916E-004  0.6460476E+03  0.7818608E-02  0.9814224E-01
         13   -1    0    0    0    0  0.00000000000E+00  0.00000000000E+00  0.10000000000E+04  0.10000000000E+04  0.00000000000E+00 0. -1.
          2   -1    0    0  501    0 -0.00000000000E+00 -0.00000000000E+00 -0.10434438651E+03  0.10434438651E+03  0.00000000000E+00 0. -1.
    9000006    2    1    2  501    0  0.00000000000E+00  0.00000000000E+00  0.89565561349E+03  0.11043443865E+04  0.64604763449E+03 0.  0.
         13    1    3    3    0    0  0.71917054414E+02 -0.58624721101E+02 -0.81075661404E+02  0.12321600347E+03  0.00000000000E+00 0. -1.
          4    1    3    3  501    0 -0.71917054414E+02  0.58624721101E+02  0.97673127490E+03  0.98112838304E+03  0.00000000000E+00 0. -1.
<mgrwt>
<rscale>  0 0.64604763E+03</rscale>
<asrwt>0</asrwt>
<pdfrwt beam="1">0</pdfrwt>
<pdfrwt beam="2">  1        2 0.37943493E+00 0.64604763E+03</pdfrwt>
<totfact> 0.47512295E+00</totfact>
</mgrwt>
</event>
<event>
 5    1  0.2368916E-004  0.6602102E+03  0.7818608E-02  0.9787807E-01
         13   -1    0    0    0    0  0.00000000000E+00  0.00000000000E+00  0.10000000000E+04  0.10000000000E+04  0.00000000000E+00 0. -1.
          2   -1    0    0  501    0 -0.00000000000E+00 -0.00000000000E+00 -0.10896937649E+03  0.10896937649E+03  0.00000000000E+00 0. -1.
    9000006    2    1    2  501    0  0.00000000000E+00  0.00000000000E+00  0.89103062351E+03  0.11089693765E+04  0.66021019831E+03 0.  0.
         13    1    3    3    0    0 -0.71866208389E+02 -0.32144825381E+03  0.40888179125E+03  0.52505052233E+03  0.00000000000E+00 0. -1.
          4    1    3    3  501    0  0.71866208389E+02  0.32144825381E+03  0.48214883226E+03  0.58391885416E+03  0.00000000000E+00 0. -1.
<mgrwt>
<rscale>  0 0.66021020E+03</rscale>
<asrwt>0</asrwt>
<pdfrwt beam="1">0</pdfrwt>
<pdfrwt beam="2">  1        2 0.39625311E+00 0.66021020E+03</pdfrwt>
<totfact> 0.41103322E+00</totfact>
</mgrwt>
</event>
<event>
 5    1  0.2368916E-004  0.6373029E+03  0.7818608E-02  0.9830900E-01
         13   -1    0    0    0    0  0.00000000000E+00  0.00000000000E+00  0.10000000000E+04  0.10000000000E+04  0.00000000000E+00 0. -1.
          2   -1    0    0  501    0 -0.00000000000E+00 -0.00000000000E+00 -0.10153876236E+03  0.10153876236E+03  0.00000000000E+00 0. -1.
    9000006    2    1    2  501    0  0.00000000000E+00  0.00000000000E+00  0.89846123764E+03  0.11015387624E+04  0.63730294949E+03 0.  0.
         13    1    3    3    0    0  0.14879159288E+03  0.12339129999E+03  0.88709014487E+03  0.90790598421E+03  0.00000000000E+00 0. -1.
          4    1    3    3  501    0 -0.14879159288E+03 -0.12339129999E+03  0.11371092768E+02  0.19363277815E+03  0.00000000000E+00 0. -1.
<mgrwt>
<rscale>  0 0.63730295E+03</rscale>
<asrwt>0</asrwt>
<pdfrwt beam="1">0</pdfrwt>
<pdfrwt beam="2">  1        2 0.36923264E+00 0.63730295E+03</pdfrwt>
<totfact> 0.51830147E+00</totfact>
</mgrwt>
</event>
<event>
 5    1  0.2368916E-004  0.6517385E+03  0.7818608E-02  0.9803522E-01
         13   -1    0    0    0    0  0.00000000000E+00  0.00000000000E+00  0.10000000000E+04  0.10000000000E+04  0.00000000000E+00 0. -1.
          2   -1    0    0  501    0 -0.00000000000E+00 -0.00000000000E+00 -0.10619078114E+03  0.10619078114E+03  0.00000000000E+00 0. -1.
    9000006    2    1    2  501    0  0.00000000000E+00  0.00000000000E+00  0.89380921886E+03  0.11061907811E+04  0.65173854004E+03 0.  0.
         13    1    3    3    0    0 -0.10807989148E+01  0.32302830958E+03  0.51975630482E+03  0.61196002591E+03  0.00000000000E+00 0. -1.
          2    1    3    3  501    0  0.10807989148E+01 -0.32302830958E+03  0.37405291404E+03  0.49423075523E+03  0.00000000000E+00 0. -1.
<mgrwt>
<rscale>  0 0.65173854E+03</rscale>
<asrwt>0</asrwt>
<pdfrwt beam="1">0</pdfrwt>
<pdfrwt beam="2">  1        2 0.38614911E+00 0.65173854E+03</pdfrwt>
<totfact> 0.44852475E+00</totfact>
</mgrwt>
</event>
<event>
 5    1  0.2368916E-004  0.6423537E+03  0.7818608E-02  0.9821234E-01
         13   -1    0    0    0    0  0.00000000000E+00  0.00000000000E+00  0.10000000000E+04  0.10000000000E+04  0.00000000000E+00 0. -1.
          2   -1    0    0  501    0 -0.00000000000E+00 -0.00000000000E+00 -0.10315457434E+03  0.10315457434E+03  0.00000000000E+00 0. -1.
    9000006    2    1    2  501    0  0.00000000000E+00  0.00000000000E+00  0.89684542566E+03  0.11031545743E+04  0.64235371669E+03 0.  0.
         13    1    3    3    0    0 -0.34098628592E+02 -0.26079910894E+03  0.13186986532E+03  0.29422534404E+03  0.00000000000E+00 0. -1.
          2    1    3    3  501    0  0.34098628592E+02  0.26079910894E+03  0.76497556035E+03  0.80892923029E+03  0.00000000000E+00 0. -1.
<mgrwt>
<rscale>  0 0.64235372E+03</rscale>
<asrwt>0</asrwt>
<pdfrwt beam="1">0</pdfrwt>
<pdfrwt beam="2">  1        2 0.37510833E+00 0.64235372E+03</pdfrwt>
<totfact> 0.49301506E+00</totfact>
</mgrwt>
</event>
<event>
 5    1  0.2368916E-004  0.6604005E+03  0.7818608E-02  0.9787457E-01
         13   -1    0    0    0    0  0.00000000000E+00  0.00000000000E+00  0.10000000000E+04  0.10000000000E+04  0.00000000000E+00 0. -1.
          2   -1    0    0  501    0 -0.00000000000E+00 -0.00000000000E+00 -0.10903220509E+03  0.10903220509E+03  0.00000000000E+00 0. -1.
    9000006    2    1    2  501    0  0.00000000000E+00  0.00000000000E+00  0.89096779491E+03  0.11090322051E+04  0.66040049996E+03 0.  0.
         13    1    3    3    0    0  0.23504973043E+03 -0.11250472876E+03  0.10492069513E+03  0.28091643248E+03  0.00000000000E+00 0. -1.
          2    1    3    3  501    0 -0.23504973043E+03  0.11250472876E+03  0.78604709978E+03  0.82811577261E+03  0.00000000000E+00 0. -1.
<mgrwt>
<rscale>  0 0.66040050E+03</rscale>
<asrwt>0</asrwt>
<pdfrwt beam="1">0</pdfrwt>
<pdfrwt beam="2">  1        2 0.39648158E+00 0.66040050E+03</pdfrwt>
<totfact> 0.41021924E+00</totfact>
</mgrwt>
</event>
<event>
 5    1  0.2368916E-004  0.6550383E+03  0.7818608E-02  0.9797371E-01
         13   -1    0    0    0    0  0.00000000000E+00  0.00000000000E+00  0.10000000000E+04  0.10000000000E+04  0.00000000000E+00 0. -1.
          2   -1    0    0  501    0 -0.00000000000E+00 -0.00000000000E+00 -0.10726879896E+03  0.10726879896E+03  0.00000000000E+00 0. -1.
    9000006    2    1    2  501    0  0.00000000000E+00  0.00000000000E+00  0.89273120104E+03  0.11072687990E+04  0.65503831633E+03 0.  0.
         13    1    3    3    0    0 -0.49930660760E+02  0.29634490430E+03  0.22625512719E+03  0.37617117881E+03  0.00000000000E+00 0. -1.
          4    1    3    3  501    0  0.49930660760E+02 -0.29634490430E+03  0.66647607385E+03  0.73109762016E+03  0.00000000000E+00 0. -1.
<mgrwt>
<rscale>  0 0.65503832E+03</rscale>
<asrwt>0</asrwt>
<pdfrwt beam="1">0</pdfrwt>
<pdfrwt beam="2">  1        2 0.39006918E+00 0.65503832E+03</pdfrwt>
<totfact> 0.43362693E+00</totfact>
</mgrwt>
</event>
<event>
 5    1  0.2368916E-004  0.6599730E+03  0.7818608E-02  0.9788243E-01
         13   -1    0    0    0    0  0.00000000000E+00  0.00000000000E+00  0.10000000000E+04  0.10000000000E+04  0.00000000000E+00 0. -1.
          2   -1    0    0  501    0 -0.00000000000E+00 -0.00000000000E+00 -0.10889108657E+03  0.10889108657E+03  0.00000000000E+00 0. -1.
    9000006    2    1    2  501    0  0.00000000000E+00  0.00000000000E+00  0.89110891343E+03  0.11088910866E+04  0.65997298904E+03 0.  0.
         13    1    3    3    0    0  0.17335327257E+03  0.12590252345E+03  0.86724379411E+03  0.89331662972E+03  0.00000000000E+00 0. -1.
          4    1    3    3  501    0 -0.17335327257E+03 -0.12590252345E+03  0.23865119325E+02  0.21557445684E+03  0.00000000000E+00 0. -1.
<mgrwt>
<rscale>  0 0.65997299E+03</rscale>
<asrwt>0</asrwt>
<pdfrwt beam="1">0</pdfrwt>
<pdfrwt beam="2">  1        2 0.39596842E+00 0.65997299E+03</pdfrwt>
<totfact> 0.41204954E+00</totfact>
</mgrwt>
</event>
<event>
 5    1  0.2368916E-004  0.6534580E+03  0.7818608E-02  0.9800312E-01
         13   -1    0    0    0    0  0.00000000000E+00  0.00000000000E+00  0.10000000000E+04  0.10000000000E+04  0.00000000000E+00 0. -1.
          2   -1    0    0  501    0 -0.00000000000E+00 -0.00000000000E+00 -0.10675184276E+03  0.10675184276E+03  0.00000000000E+00 0. -1.
    9000006    2    1    2  501    0  0.00000000000E+00  0.00000000000E+00  0.89324815724E+03  0.11067518428E+04  0.65345801016E+03 0.  0.
         13    1    3    3    0    0 -0.20150424274E+03  0.76495773905E+02  0.86251345379E+03  0.88903600672E+03  0.00000000000E+00 0. -1.
          2    1    3    3  501    0  0.20150424274E+03 -0.76495773905E+02  0.30734703445E+02  0.21771583604E+03  0.00000000000E+00 0. -1.
<mgrwt>
<rscale>  0 0.65345801E+03</rscale>
<asrwt>0</asrwt>
<pdfrwt beam="1">0</pdfrwt>
<pdfrwt beam="2">  1        2 0.38818934E+00 0.65345801E+03</pdfrwt>
<totfact> 0.44071427E+00</totfact>
</mgrwt>
</event>
<event>
 5    1  0.2368916E-004  0.6543754E+03  0.7818608E-02  0.9798603E-01
         13   -1    0    0    0    0  0.00000000000E+00  0.00000000000E+00  0.10000000000E+04  0.10000000000E+04  0.00000000000E+00 0. -1.
          2   -1    0    0  501    0 -0.00000000000E+00 -0.00000000000E+00 -0.10705179738E+03  0.10705179738E+03  0.00000000000E+00 0. -1.
    9000006    2    1    2  501    0  0.00000000000E+00  0.00000000000E+00  0.89294820262E+03  0.11070517974E+04  0.65437541939E+03 0.  0.
         13    1    3    3    0    0  0.16606989655E+03 -0.23416380449E+03  0.71203273780E+03  0.76772554834E+03  0.00000000000E+00 0. -1.
          4    1    3    3  501    0 -0.16606989655E+03  0.23416380449E+03  0.18091546483E+03  0.33932624904E+03  0.00000000000E+00 0. -1.
<mgrwt>
<rscale>  0 0.65437542E+03</rscale>
<asrwt>0</asrwt>
<pdfrwt beam="1">0</pdfrwt>
<pdfrwt beam="2">  1        2 0.38928008E+00 0.65437542E+03</pdfrwt>
<totfact> 0.43658932E+00</totfact>
</mgrwt>
</event>
<event>
 5    1  0.2368916E-004  0.6795695E+03  0.7818608E-02  0.9752823E-01
         13   -1    0    0    0    0  0.00000000000E+00  0.00000000000E+00  0.10000000000E+04  0.10000000000E+04  0.00000000000E+00 0. -1.
          2   -1    0    0  501    0 -0.00000000000E+00 -0.00000000000E+00 -0.11545368758E+03  0.11545368758E+03  0.00000000000E+00 0. -1.
    9000006    2    1    2  501    0  0.00000000000E+00  0.00000000000E+00  0.88454631242E+03  0.11154536876E+04  0.67956953311E+03 0.  0.
         13    1    3    3    0    0 -0.19876579625E+03 -0.17247668541E+03  0.89474003827E+02  0.27795979229E+03  0.00000000000E+00 0. -1.
          4    1    3    3  501    0  0.19876579625E+03  0.17247668541E+03  0.79507230859E+03  0.83749389529E+03  0.00000000000E+00 0. -1.
<mgrwt>
<rscale>  0 0.67956953E+03</rscale>
<asrwt>0</asrwt>
<pdfrwt beam="1">0</pdfrwt>
<pdfrwt beam="2">  1        2 0.41983248E+00 0.67956953E+03</pdfrwt>
<totfact> 0.33425373E+00</totfact>
</mgrwt>
</event>
<event>
 5    1  0.2368916E-004  0.6532553E+03  0.7818608E-02  0.9800690E-01
         13   -1    0    0    0    0  0.00000000000E+00  0.00000000000E+00  0.10000000000E+04  0.10000000000E+04  0.00000000000E+00 0. -1.
          2   -1    0    0  501    0 -0.00000000000E+00 -0.00000000000E+00 -0.10668560747E+03  0.10668560747E+03  0.00000000000E+00 0. -1.
    9000006    2    1    2  501    0  0.00000000000E+00  0.00000000000E+00  0.89331439253E+03  0.11066856075E+04  0.65325525630E+03 0.  0.
         13    1    3    3    0    0 -0.25783232667E+03  0.18605538894E+03  0.57333635357E+03  0.65559796427E+03  0.00000000000E+00 0. -1.
          4    1    3    3  501    0  0.25783232667E+03 -0.18605538894E+03  0.31997803896E+03  0.45108764320E+03  0.00000000000E+00 0. -1.
<mgrwt>
<rscale>  0 0.65325526E+03</rscale>
<asrwt>0</asrwt>
<pdfrwt beam="1">0</pdfrwt>
<pdfrwt beam="2">  1        2 0.38794848E+00 0.65325526E+03</pdfrwt>
<totfact> 0.44162987E+00</totfact>
</mgrwt>
</event>
<event>
 5    1  0.2368916E-004  0.6518986E+03  0.7818608E-02  0.9803223E-01
         13   -1    0    0    0    0  0.00000000000E+00  0.00000000000E+00  0.10000000000E+04  0.10000000000E+04  0.00000000000E+00 0. -1.
          2   -1    0    0  501    0 -0.00000000000E+00 -0.00000000000E+00 -0.10624293403E+03  0.10624293403E+03  0.00000000000E+00 0. -1.
    9000006    2    1    2  501    0  0.00000000000E+00  0.00000000000E+00  0.89375706597E+03  0.11062429340E+04  0.65189856277E+03 0.  0.
         13    1    3    3    0    0 -0.12652171157E+03 -0.93146073520E+02 -0.37747155513E+02  0.16158212234E+03  0.00000000000E+00 0. -1.
          4    1    3    3  501    0  0.12652171157E+03  0.93146073520E+02  0.93150422148E+03  0.94466081169E+03  0.00000000000E+00 0. -1.
<mgrwt>
<rscale>  0 0.65189856E+03</rscale>
<asrwt>0</asrwt>
<pdfrwt beam="1">0</pdfrwt>
<pdfrwt beam="2">  1        2 0.38633876E+00 0.65189856E+03</pdfrwt>
<totfact> 0.44779349E+00</totfact>
</mgrwt>
</event>
<event>
 5    1  0.2368916E-004  0.6452562E+03  0.7818608E-02  0.9815722E-01
         13   -1    0    0    0    0  0.00000000000E+00  0.00000000000E+00  0.10000000000E+04  0.10000000000E+04  0.00000000000E+00 0. -1.
          2   -1    0    0  501    0 -0.00000000000E+00 -0.00000000000E+00 -0.10408888706E+03  0.10408888706E+03  0.00000000000E+00 0. -1.
    9000006    2    1    2  501    0  0.00000000000E+00  0.00000000000E+00  0.89591111294E+03  0.11040888871E+04  0.64525618806E+03 0.  0.
         13    1    3    3    0    0  0.11795175398E+03 -0.17182832362E+03  0.86935301329E+03  0.89398671734E+03  0.00000000000E+00 0. -1.
          2    1    3    3  501    0 -0.11795175398E+03  0.17182832362E+03  0.26558099653E+02  0.21010216972E+03  0.00000000000E+00 0. -1.
<mgrwt>
<rscale>  0 0.64525619E+03</rscale>
<asrwt>0</asrwt>
<pdfrwt beam="1">0</pdfrwt>
<pdfrwt beam="2">  1        2 0.37850584E+00 0.64525619E+03</pdfrwt>
<totfact> 0.47891437E+00</totfact>
</mgrwt>
</event>
<event>
 5    1  0.2368916E-004  0.6401328E+03  0.7818608E-02  0.9825473E-01
         13   -1    0    0    0    0  0.00000000000E+00  0.00000000000E+00  0.10000000000E+04  0.10000000000E+04  0.00000000000E+00 0. -1.
          2   -1    0    0  501    0 -0.00000000000E+00 -0.00000000000E+00 -0.10244249258E+03  0.10244249258E+03  0.00000000000E+00 0. -1.
    9000006    2    1    2  501    0  0.00000000000E+00  0.00000000000E+00  0.89755750742E+03  0.11024424926E+04  0.64013277553E+03 0.  0.
         13    1    3    3    0    0  0.28781018103E+03 -0.13684787983E+03  0.39767671298E+03  0.50961633663E+03  0.00000000000E+00 0. -1.
          4    1    3    3  501    0 -0.28781018103E+03  0.13684787983E+03  0.49988079444E+03  0.59282615594E+03  0.00000000000E+00 0. -1.
<mgrwt>
<rscale>  0 0.64013278E+03</rscale>
<asrwt>0</asrwt>
<pdfrwt beam="1">0</pdfrwt>
<pdfrwt beam="2">  1        2 0.37251894E+00 0.64013278E+03</pdfrwt>
<totfact> 0.50401616E+00</totfact>
</mgrwt>
</event>
<event>
 5    1  0.2368916E-004  0.6383001E+03  0.7818608E-02  0.9828984E-01
         13   -1    0    0    0    0  0.00000000000E+00  0.00000000000E+00  0.10000000000E+04  0.10000000000E+04  0.00000000000E+00 0. -1.
          2   -1    0    0  501    0 -0.00000000000E+00 -0.00000000000E+00 -0.10185674818E+03  0.10185674818E+03  0.00000000000E+00 0. -1.
    9000006    2    1    2  501    0  0.00000000000E+00  0.00000000000E+00  0.89814325182E+03  0.11018567482E+04  0.63830008047E+03 0.  0.
         13    1    3    3    0    0 -0.16470995482E+03 -0.27332824736E+03  0.44153760617E+03  0.54478725911E+03  0.00000000000E+00 0. -1.
          2    1    3    3  501    0  0.16470995482E+03  0.27332824736E+03  0.45660564565E+03  0.55706948907E+03  0.00000000000E+00 0. -1.
<mgrwt>
<rscale>  0 0.63830008E+03</rscale>
<asrwt>0</asrwt>
<pdfrwt beam="1">0</pdfrwt>
<pdfrwt beam="2">  1        2 0.37038896E+00 0.63830008E+03</pdfrwt>
<totfact> 0.51323330E+00</totfact>
</mgrwt>
</event>
<event>
 5    1  0.2368916E-004  0.6463520E+03  0.7818608E-02  0.9813649E-01
         13   -1    0    0    0    0  0.00000000000E+00  0.00000000000E+00  0.10000000000E+04  0.10000000000E+04  0.00000000000E+00 0. -1.
          2   -1    0    0  501    0 -0.00000000000E+00 -0.00000000000E+00 -0.10444273661E+03  0.10444273661E+03  0.00000000000E+00 0. -1.
    9000006    2    1    2  501    0  0.00000000000E+00  0.00000000000E+00  0.89555726339E+03  0.11044427366E+04  0.64635202981E+03 0.  0.
         13    1    3    3    0    0 -0.32265846750E+03 -0.14192004606E+02  0.46747261463E+03  0.56819058869E+03  0.00000000000E+00 0. -1.
          2    1    3    3  501    0  0.32265846750E+03  0.14192004606E+02  0.42808464876E+03  0.53625214792E+03  0.00000000000E+00 0. -1.
<mgrwt>
<rscale>  0 0.64635203E+03</rscale>
<asrwt>0</asrwt>
<pdfrwt beam="1">0</pdfrwt>
<pdfrwt beam="2">  1        2 0.37979257E+00 0.64635203E+03</pdfrwt>
<totfact> 0.47367081E+00</totfact>
</mgrwt>
</event>
<event>
 5    1  0.2368916E-004  0.6438910E+03  0.7818608E-02  0.9818310E-01
         13   -1    0    0    0    0  0.00000000000E+00  0.00000000000E+00  0.10000000000E+04  0.10000000000E+04  0.00000000000E+00 0. -1.
          2   -1    0    0  501    0 -0.00000000000E+00 -0.00000000000E+00 -0.10364890916E+03  0.10364890916E+03  0.00000000000E+00 0. -1.
    9000006    2    1    2  501    0  0.00000000000E+00  0.00000000000E+00  0.89635109084E+03  0.11036489092E+04  0.64389101302E+03 0.  0.
         13    1    3    3    0    0 -0.13132145864E+01  0.26007047512E+03  0.77343755970E+03  0.81599266866E+03  0.00000000000E+00 0. -1.
          2    1    3    3  501    0  0.13132145864E+01 -0.26007047512E+03  0.12291353114E+03  0.28765624050E+03  0.00000000000E+00 0. -1.
<mgrwt>
<rscale>  0 0.64389101E+03</rscale>
<asrwt>0</asrwt>
<pdfrwt beam="1">0</pdfrwt>
<pdfrwt beam="2">  1        2 0.37690592E+00 0.64389101E+03</pdfrwt>
<totfact> 0.48550798E+00</totfact>
</mgrwt>
</event>
<event>
 5    1  0.2368916E-004  0.6421659E+03  0.7818608E-02  0.9821591E-01
         13   -1    0    0    0    0  0.00000000000E+00  0.00000000000E+00  0.10000000000E+04  0.10000000000E+04  0.00000000000E+00 0. -1.
          2   -1    0    0  501    0 -0.00000000000E+00 -0.00000000000E+00 -0.10309425175E+03  0.10309425175E+03  0.00000000000E+00 0. -1.
    9000006    2    1    2  501    0  0.00000000000E+00  0.00000000000E+00  0.89690574825E+03  0.11030942517E+04  0.64216587186E+03 0.  0.
         13    1    3    3    0    0  0.21572486702E+03 -0.20906249065E+03  0.64317505183E+03  0.70987216494E+03  0.00000000000E+00 0. -1.
          4    1    3    3  501    0 -0.21572486702E+03  0.20906249065E+03  0.25373069642E+03  0.39322208681E+03  0.00000000000E+00 0. -1.
<mgrwt>
<rscale>  0 0.64216587E+03</rscale>
<asrwt>0</asrwt>
<pdfrwt beam="1">0</pdfrwt>
<pdfrwt beam="2">  1        2 0.37488898E+00 0.64216587E+03</pdfrwt>
<totfact> 0.49393842E+00</totfact>
</mgrwt>
</event>
<event>
 5    1  0.2368916E-004  0.6419560E+03  0.7818608E-02  0.9821991E-01
         13   -1    0    0    0    0  0.00000000000E+00  0.00000000000E+00  0.10000000000E+04  0.10000000000E+04  0.00000000000E+00 0. -1.
          2   -1    0    0  501    0 -0.00000000000E+00 -0.00000000000E+00 -0.10302688600E+03  0.10302688600E+03  0.00000000000E+00 0. -1.
    9000006    2    1    2  501    0  0.00000000000E+00  0.00000000000E+00  0.89697311400E+03  0.11030268860E+04  0.64195602964E+03 0.  0.
         13    1    3    3    0    0 -0.34109102171E+01 -0.27476837355E+03  0.16345953568E+03  0.31973162686E+03  0.00000000000E+00 0. -1.
          2    1    3    3  501    0  0.34109102171E+01  0.27476837355E+03  0.73351357832E+03  0.78329525914E+03  0.00000000000E+00 0. -1.
<mgrwt>
<rscale>  0 0.64195603E+03</rscale>
<asrwt>0</asrwt>
<pdfrwt beam="1">0</pdfrwt>
<pdfrwt beam="2">  1        2 0.37464401E+00 0.64195603E+03</pdfrwt>
<totfact> 0.49497145E+00</totfact>
</mgrwt>
</event>
<event>
 5    1  0.2368916E-004  0.6278324E+03  0.7818608E-02  0.9849288E-01
         13   -1    0    0    0    0  0.00000000000E+00  0.00000000000E+00  0.10000000000E+04  0.10000000000E+04  0.00000000000E+00 0. -1.
          2   -1    0    0  501    0 -0.00000000000E+00 -0.00000000000E+00 -0.98543377607E+02  0.98543377607E+02  0.00000000000E+00 0. -1.
    9000006    2    1    2  501    0  0.00000000000E+00  0.00000000000E+00  0.90145662239E+03  0.10985433776E+04  0.62783239039E+03 0.  0.
         13    1    3    3    0    0  0.83645776119E+02  0.30181439368E+03  0.41341191289E+03  0.51865012659E+03  0.00000000000E+00 0. -1.
          4    1    3    3  501    0 -0.83645776119E+02 -0.30181439368E+03  0.48804470950E+03  0.57989325101E+03  0.00000000000E+00 0. -1.
<mgrwt>
<rscale>  0 0.62783239E+03</rscale>
<asrwt>0</asrwt>
<pdfrwt beam="1">0</pdfrwt>
<pdfrwt beam="2">  1        2 0.35834031E+00 0.62783239E+03</pdfrwt>
<totfact> 0.56835250E+00</totfact>
</mgrwt>
</event>
<event>
 5    1  0.2368916E-004  0.6612629E+03  0.7818608E-02  0.9785872E-01
         13   -1    0    0    0    0  0.00000000000E+00  0.00000000000E+00  0.10000000000E+04  0.10000000000E+04  0.00000000000E+00 0. -1.
          2   -1    0    0  501    0 -0.00000000000E+00 -0.00000000000E+00 -0.10931715054E+03  0.10931715054E+03  0.00000000000E+00 0. -1.
    9000006    2    1    2  501    0  0.00000000000E+00  0.00000000000E+00  0.89068284946E+03  0.11093171505E+04  0.66126288429E+03 0.  0.
         13    1    3    3    0    0 -0.47324357567E+02  0.32587409163E+03  0.49520889382E+03  0.59469771055E+03  0.00000000000E+00 0. -1.
          4    1    3    3  501    0  0.47324357567E+02 -0.32587409163E+03  0.39547395564E+03  0.51461943998E+03  0.00000000000E+00 0. -1.
<mgrwt>
<rscale>  0 0.66126288E+03</rscale>
<asrwt>0</asrwt>
<pdfrwt beam="1">0</pdfrwt>
<pdfrwt beam="2">  1        2 0.39751775E+00 0.66126288E+03</pdfrwt>
<totfact> 0.40654580E+00</totfact>
</mgrwt>
</event>
<event>
 5    1  0.2368916E-004  0.6422001E+03  0.7818608E-02  0.9821526E-01
         13   -1    0    0    0    0  0.00000000000E+00  0.00000000000E+00  0.10000000000E+04  0.10000000000E+04  0.00000000000E+00 0. -1.
          2   -1    0    0  501    0 -0.00000000000E+00 -0.00000000000E+00 -0.10310522784E+03  0.10310522784E+03  0.00000000000E+00 0. -1.
    9000006    2    1    2  501    0  0.00000000000E+00  0.00000000000E+00  0.89689477216E+03  0.11031052278E+04  0.64220005556E+03 0.  0.
         13    1    3    3    0    0 -0.17714333610E+02 -0.18217206158E+03  0.90162255573E+03  0.92001287526E+03  0.00000000000E+00 0. -1.
          2    1    3    3  501    0  0.17714333610E+02  0.18217206158E+03 -0.47277835760E+01  0.18309235258E+03  0.00000000000E+00 0. -1.
<mgrwt>
<rscale>  0 0.64220006E+03</rscale>
<asrwt>0</asrwt>
<pdfrwt beam="1">0</pdfrwt>
<pdfrwt beam="2">  1        2 0.37492889E+00 0.64220006E+03</pdfrwt>
<totfact> 0.49377029E+00</totfact>
</mgrwt>
</event>
<event>
 5    1  0.2368916E-004  0.6629075E+03  0.7818608E-02  0.9782856E-01
         13   -1    0    0    0    0  0.00000000000E+00  0.00000000000E+00  0.10000000000E+04  0.10000000000E+04  0.00000000000E+00 0. -1.
          4   -1    0    0  501    0 -0.00000000000E+00 -0.00000000000E+00 -0.10986160122E+03  0.10986160122E+03  0.00000000000E+00 0. -1.
    9000006    2    1    2  501    0  0.00000000000E+00  0.00000000000E+00  0.89013839878E+03  0.11098616012E+04  0.66290753870E+03 0.  0.
         13    1    3    3    0    0 -0.44258507313E+02  0.30929170967E+03  0.63030794858E+03  0.70349718349E+03  0.00000000000E+00 0. -1.
          4    1    3    3  501    0  0.44258507313E+02 -0.30929170967E+03  0.25983045020E+03  0.40636441773E+03  0.00000000000E+00 0. -1.
<mgrwt>
<rscale>  0 0.66290754E+03</rscale>
<asrwt>0</asrwt>
<pdfrwt beam="1">0</pdfrwt>
<pdfrwt beam="2">  1        4 0.39949757E+00 0.66290754E+03</pdfrwt>
<totfact> 0.32303516E-02</totfact>
</mgrwt>
</event>
<event>
 5    1  0.2368916E-004  0.6395302E+03  0.7818608E-02  0.9826626E-01
         13   -1    0    0    0    0  0.00000000000E+00  0.00000000000E+00  0.10000000000E+04  0.10000000000E+04  0.00000000000E+00 0. -1.
          2   -1    0    0  501    0 -0.00000000000E+00 -0.00000000000E+00 -0.10224972202E+03  0.10224972202E+03  0.00000000000E+00 0. -1.
    9000006    2    1    2  501    0  0.00000000000E+00  0.00000000000E+00  0.89775027798E+03  0.11022497220E+04  0.63953020889E+03 0.  0.
         13    1    3    3    0    0  0.28766922495E+03 -0.52498559604E+01  0.68935906346E+03  0.74699200956E+03  0.00000000000E+00 0. -1.
          4    1    3    3  501    0 -0.28766922495E+03  0.52498559604E+01  0.20839121452E+03  0.35525771246E+03  0.00000000000E+00 0. -1.
<mgrwt>
<rscale>  0 0.63953021E+03</rscale>
<asrwt>0</asrwt>
<pdfrwt beam="1">0</pdfrwt>
<pdfrwt beam="2">  1        2 0.37181796E+00 0.63953021E+03</pdfrwt>
<totfact> 0.50703268E+00</totfact>
</mgrwt>
</event>
<event>
 5    1  0.2368916E-004  0.5530510E+03  0.7818608E-02  0.1000790E+00
         13   -1    0    0    0    0  0.00000000000E+00  0.00000000000E+00  0.10000000000E+04  0.10000000000E+04  0.00000000000E+00 0. -1.
          2   -1    0    0  501    0 -0.00000000000E+00 -0.00000000000E+00 -0.76466344299E+02  0.76466344299E+02  0.00000000000E+00 0. -1.
    9000006    2    1    2  501    0  0.00000000000E+00  0.00000000000E+00  0.92353365570E+03  0.10764663443E+04  0.55305097161E+03 0.  0.
         13    1    3    3    0    0  0.35318613744E+02  0.72337490695E+02  0.97668899438E+03  0.98000076978E+03  0.00000000000E+00 0. -1.
          2    1    3    3  501    0 -0.35318613744E+02 -0.72337490695E+02 -0.53155338677E+02  0.96465574515E+02  0.00000000000E+00 0. -1.
<mgrwt>
<rscale>  0 0.55305097E+03</rscale>
<asrwt>0</asrwt>
<pdfrwt beam="1">0</pdfrwt>
<pdfrwt beam="2">  1        2 0.27806002E+00 0.55305097E+03</pdfrwt>
<totfact> 0.11059757E+01</totfact>
</mgrwt>
</event>
<event>
 5    1  0.2368916E-004  0.6476010E+03  0.7818608E-02  0.9811291E-01
         13   -1    0    0    0    0  0.00000000000E+00  0.00000000000E+00  0.10000000000E+04  0.10000000000E+04  0.00000000000E+00 0. -1.
          2   -1    0    0  501    0 -0.00000000000E+00 -0.00000000000E+00 -0.10484677711E+03  0.10484677711E+03  0.00000000000E+00 0. -1.
    9000006    2    1    2  501    0  0.00000000000E+00  0.00000000000E+00  0.89515322289E+03  0.11048467771E+04  0.64760104110E+03 0.  0.
         13    1    3    3    0    0 -0.18482413913E+03 -0.23701250535E+02  0.89936093224E+03  0.91846164761E+03  0.00000000000E+00 0. -1.
          2    1    3    3  501    0  0.18482413913E+03  0.23701250535E+02 -0.42077093499E+01  0.18638512950E+03  0.00000000000E+00 0. -1.
<mgrwt>
<rscale>  0 0.64760104E+03</rscale>
<asrwt>0</asrwt>
<pdfrwt beam="1">0</pdfrwt>
<pdfrwt beam="2">  1        2 0.38126181E+00 0.64760104E+03</pdfrwt>
<totfact> 0.46774743E+00</totfact>
</mgrwt>
</event>
<event>
 5    1  0.2368916E-004  0.6518071E+03  0.7818608E-02  0.9803394E-01
         13   -1    0    0    0    0  0.00000000000E+00  0.00000000000E+00  0.10000000000E+04  0.10000000000E+04  0.00000000000E+00 0. -1.
          2   -1    0    0  501    0 -0.00000000000E+00 -0.00000000000E+00 -0.10621311068E+03  0.10621311068E+03  0.00000000000E+00 0. -1.
    9000006    2    1    2  501    0  0.00000000000E+00  0.00000000000E+00  0.89378688932E+03  0.11062131107E+04  0.65180705942E+03 0.  0.
         13    1    3    3    0    0 -0.26840986035E+03  0.17980996128E+03  0.37414069500E+03  0.49432452393E+03  0.00000000000E+00 0. -1.
          2    1    3    3  501    0  0.26840986035E+03 -0.17980996128E+03  0.51964619433E+03  0.61188858674E+03  0.00000000000E+00 0. -1.
<mgrwt>
<rscale>  0 0.65180706E+03</rscale>
<asrwt>0</asrwt>
<pdfrwt beam="1">0</pdfrwt>
<pdfrwt beam="2">  1        2 0.38623031E+00 0.65180706E+03</pdfrwt>
<totfact> 0.44821152E+00</totfact>
</mgrwt>
</event>
<event>
 5    1  0.2368916E-004  0.6443063E+03  0.7818608E-02  0.9817522E-01
         13   -1    0    0    0    0  0.00000000000E+00  0.00000000000E+00  0.10000000000E+04  0.10000000000E+04  0.00000000000E+00 0. -1.
          2   -1    0    0  501    0 -0.00000000000E+00 -0.00000000000E+00 -0.10378265892E+03  0.10378265892E+03  0.00000000000E+00 0. -1.
    9000006    2    1    2  501    0  0.00000000000E+00  0.00000000000E+00  0.89621734108E+03  0.11037826589E+04  0.64430632130E+03 0.  0.
         13    1    3    3    0    0 -0.22639837073E+02 -0.29870538731E+03  0.65113621281E+03  0.71673972840E+03  0.00000000000E+00 0. -1.
          2    1    3    3  501    0  0.22639837073E+02  0.29870538731E+03  0.24508112827E+03  0.38704293052E+03  0.00000000000E+00 0. -1.
<mgrwt>
<rscale>  0 0.64430632E+03</rscale>
<asrwt>0</asrwt>
<pdfrwt beam="1">0</pdfrwt>
<pdfrwt beam="2">  1        2 0.37739228E+00 0.64430632E+03</pdfrwt>
<totfact> 0.48349487E+00</totfact>
</mgrwt>
</event>
<event>
 5    1  0.2368916E-004  0.6657257E+03  0.7818608E-02  0.9777710E-01
         13   -1    0    0    0    0  0.00000000000E+00  0.00000000000E+00  0.10000000000E+04  0.10000000000E+04  0.00000000000E+00 0. -1.
          2   -1    0    0  501    0 -0.00000000000E+00 -0.00000000000E+00 -0.11079769336E+03  0.11079769336E+03  0.00000000000E+00 0. -1.
    9000006    2    1    2  501    0  0.00000000000E+00  0.00000000000E+00  0.88920230664E+03  0.11107976934E+04  0.66572574943E+03 0.  0.
         13    1    3    3    0    0  0.32899667489E+03  0.43398595295E+02  0.40123668437E+03  0.52068524758E+03  0.00000000000E+00 0. -1.
          4    1    3    3  501    0 -0.32899667489E+03 -0.43398595295E+02  0.48796562226E+03  0.59011244578E+03  0.00000000000E+00 0. -1.
<mgrwt>
<rscale>  0 0.66572575E+03</rscale>
<asrwt>0</asrwt>
<pdfrwt beam="1">0</pdfrwt>
<pdfrwt beam="2">  1        2 0.40290155E+00 0.66572575E+03</pdfrwt>
<totfact> 0.38793049E+00</totfact>
</mgrwt>
</event>
<event>
 5    1  0.2368916E-004  0.6466265E+03  0.7818608E-02  0.9813130E-01
         13   -1    0    0    0    0  0.00000000000E+00  0.00000000000E+00  0.10000000000E+04  0.10000000000E+04  0.00000000000E+00 0. -1.
          2   -1    0    0  501    0 -0.00000000000E+00 -0.00000000000E+00 -0.10453147219E+03  0.10453147219E+03  0.00000000000E+00 0. -1.
    9000006    2    1    2  501    0  0.00000000000E+00  0.00000000000E+00  0.89546852781E+03  0.11045314722E+04  0.64662654506E+03 0.  0.
         13    1    3    3    0    0  0.41289524686E+02 -0.26757629145E+03  0.74959568138E+03  0.79699158223E+03  0.00000000000E+00 0. -1.
          4    1    3    3  501    0 -0.41289524686E+02  0.26757629145E+03  0.14587284643E+03  0.30753988997E+03  0.00000000000E+00 0. -1.
<mgrwt>
<rscale>  0 0.64662655E+03</rscale>
<asrwt>0</asrwt>
<pdfrwt beam="1">0</pdfrwt>
<pdfrwt beam="2">  1        2 0.38011525E+00 0.64662655E+03</pdfrwt>
<totfact> 0.47236410E+00</totfact>
</mgrwt>
</event>
<event>
 5    1  0.2368916E-004  0.6483881E+03  0.7818608E-02  0.9809808E-01
         13   -1    0    0    0    0  0.00000000000E+00  0.00000000000E+00  0.10000000000E+04  0.10000000000E+04  0.00000000000E+00 0. -1.
          2   -1    0    0  501    0 -0.00000000000E+00 -0.00000000000E+00 -0.10510178674E+03  0.10510178674E+03  0.00000000000E+00 0. -1.
    9000006    2    1    2  501    0  0.00000000000E+00  0.00000000000E+00  0.89489821326E+03  0.11051017867E+04  0.64838811445E+03 0.  0.
         13    1    3    3    0    0 -0.30519042762E+03  0.81973261240E+02  0.32406101668E+03  0.45263269347E+03  0.00000000000E+00 0. -1.
          4    1    3    3  501    0  0.30519042762E+03 -0.81973261240E+02  0.57083719658E+03  0.65246909327E+03  0.00000000000E+00 0. -1.
<mgrwt>
<rscale>  0 0.64838811E+03</rscale>
<asrwt>0</asrwt>
<pdfrwt beam="1">0</pdfrwt>
<pdfrwt beam="2">  1        2 0.38218912E+00 0.64838811E+03</pdfrwt>
<totfact> 0.46404365E+00</totfact>
</mgrwt>
</event>
<event>
 5    1  0.2368916E-004  0.6562767E+03  0.7818608E-02  0.9795072E-01
         13   -1    0    0    0    0  0.00000000000E+00  0.00000000000E+00  0.10000000000E+04  0.10000000000E+04  0.00000000000E+00 0. -1.
          2   -1    0    0  501    0 -0.00000000000E+00 -0.00000000000E+00 -0.10767478538E+03  0.10767478538E+03  0.00000000000E+00 0. -1.
    9000006    2    1    2  501    0  0.00000000000E+00  0.00000000000E+00  0.89232521462E+03  0.11076747854E+04  0.65627672633E+03 0.  0.
         13    1    3    3    0    0 -0.19400299437E+03  0.51728373491E+02  0.88422110057E+03  0.90673035746E+03  0.00000000000E+00 0. -1.
          4    1    3    3  501    0  0.19400299437E+03 -0.51728373491E+02  0.81041140526E+01  0.20094442792E+03  0.00000000000E+00 0. -1.
<mgrwt>
<rscale>  0 0.65627673E+03</rscale>
<asrwt>0</asrwt>
<pdfrwt beam="1">0</pdfrwt>
<pdfrwt beam="2">  1        2 0.39154550E+00 0.65627673E+03</pdfrwt>
<totfact> 0.42813336E+00</totfact>
</mgrwt>
</event>
<event>
 5    1  0.2368916E-004  0.6509629E+03  0.7818608E-02  0.9804974E-01
         13   -1    0    0    0    0  0.00000000000E+00  0.00000000000E+00  0.10000000000E+04  0.10000000000E+04  0.00000000000E+00 0. -1.
          2   -1    0    0  501    0 -0.00000000000E+00 -0.00000000000E+00 -0.10593819012E+03  0.10593819012E+03  0.00000000000E+00 0. -1.
    9000006    2    1    2  501    0  0.00000000000E+00  0.00000000000E+00  0.89406180988E+03  0.11059381901E+04  0.65096294864E+03 0.  0.
         13    1    3    3    0    0 -0.76785490516E+02 -0.25862836995E+03  0.75637339028E+03  0.80304753958E+03  0.00000000000E+00 0. -1.
          4    1    3    3  501    0  0.76785490516E+02  0.25862836995E+03  0.13768841960E+03  0.30289065055E+03  0.00000000000E+00 0. -1.
<mgrwt>
<rscale>  0 0.65096295E+03</rscale>
<asrwt>0</asrwt>
<pdfrwt beam="1">0</pdfrwt>
<pdfrwt beam="2">  1        2 0.38523059E+00 0.65096295E+03</pdfrwt>
<totfact> 0.45208180E+00</totfact>
</mgrwt>
</event>
<event>
 5    1  0.2368916E-004  0.6452374E+03  0.7818608E-02  0.9815757E-01
         13   -1    0    0    0    0  0.00000000000E+00  0.00000000000E+00  0.10000000000E+04  0.10000000000E+04  0.00000000000E+00 0. -1.
          2   -1    0    0  501    0 -0.00000000000E+00 -0.00000000000E+00 -0.10408283778E+03  0.10408283778E+03  0.00000000000E+00 0. -1.
    9000006    2    1    2  501    0  0.00000000000E+00  0.00000000000E+00  0.89591716222E+03  0.11040828378E+04  0.64523743779E+03 0.  0.
         13    1    3    3    0    0 -0.17168513329E+02  0.80934845886E+01  0.99904378026E+03  0.99922406757E+03  0.00000000000E+00 0. -1.
          2    1    3    3  501    0  0.17168513329E+02 -0.80934845886E+01 -0.10312661804E+03  0.10485877021E+03  0.00000000000E+00 0. -1.
<mgrwt>
<rscale>  0 0.64523744E+03</rscale>
<asrwt>0</asrwt>
<pdfrwt beam="1">0</pdfrwt>
<pdfrwt beam="2">  1        2 0.37848384E+00 0.64523744E+03</pdfrwt>
<totfact> 0.47900447E+00</totfact>
</mgrwt>
</event>
<event>
 5    1  0.2368916E-004  0.6457311E+03  0.7818608E-02  0.9814823E-01
         13   -1    0    0    0    0  0.00000000000E+00  0.00000000000E+00  0.10000000000E+04  0.10000000000E+04  0.00000000000E+00 0. -1.
          2   -1    0    0  501    0 -0.00000000000E+00 -0.00000000000E+00 -0.10424216824E+03  0.10424216824E+03  0.00000000000E+00 0. -1.
    9000006    2    1    2  501    0  0.00000000000E+00  0.00000000000E+00  0.89575783176E+03  0.11042421682E+04  0.64573111506E+03 0.  0.
         13    1    3    3    0    0  0.62215727367E+02  0.18143149224E+02  0.98876302924E+03  0.99088460407E+03  0.00000000000E+00 0. -1.
          4    1    3    3  501    0 -0.62215727367E+02 -0.18143149224E+02 -0.93005197479E+02  0.11335756417E+03  0.00000000000E+00 0. -1.
<mgrwt>
<rscale>  0 0.64573112E+03</rscale>
<asrwt>0</asrwt>
<pdfrwt beam="1">0</pdfrwt>
<pdfrwt beam="2">  1        2 0.37906323E+00 0.64573112E+03</pdfrwt>
<totfact> 0.47663650E+00</totfact>
</mgrwt>
</event>
<event>
 5    1  0.2368916E-004  0.6465133E+03  0.7818608E-02  0.9813344E-01
         13   -1    0    0    0    0  0.00000000000E+00  0.00000000000E+00  0.10000000000E+04  0.10000000000E+04  0.00000000000E+00 0. -1.
          2   -1    0    0  501    0 -0.00000000000E+00 -0.00000000000E+00 -0.10449486152E+03  0.10449486152E+03  0.00000000000E+00 0. -1.
    9000006    2    1    2  501    0  0.00000000000E+00  0.00000000000E+00  0.89550513848E+03  0.11044948615E+04  0.64651329922E+03 0.  0.
         13    1    3    3    0    0  0.22030901425E+02  0.22318529220E+03  0.50032807272E+02  0.22978319581E+03  0.00000000000E+00 0. -1.
          2    1    3    3  501    0 -0.22030901425E+02 -0.22318529220E+03  0.84547233121E+03  0.87471166570E+03  0.00000000000E+00 0. -1.
<mgrwt>
<rscale>  0 0.64651330E+03</rscale>
<asrwt>0</asrwt>
<pdfrwt beam="1">0</pdfrwt>
<pdfrwt beam="2">  1        2 0.37998212E+00 0.64651330E+03</pdfrwt>
<totfact> 0.47290283E+00</totfact>
</mgrwt>
</event>
<event>
 5    1  0.2368916E-004  0.6658318E+03  0.7818608E-02  0.9777517E-01
         13   -1    0    0    0    0  0.00000000000E+00  0.00000000000E+00  0.10000000000E+04  0.10000000000E+04  0.00000000000E+00 0. -1.
          2   -1    0    0  501    0 -0.00000000000E+00 -0.00000000000E+00 -0.11083299384E+03  0.11083299384E+03  0.00000000000E+00 0. -1.
    9000006    2    1    2  501    0  0.00000000000E+00  0.00000000000E+00  0.88916700616E+03  0.11108329938E+04  0.66583179208E+03 0.  0.
         13    1    3    3    0    0 -0.14570828100E+03  0.25796643920E+03  0.19126282687E+03  0.35264579374E+03  0.00000000000E+00 0. -1.
          2    1    3    3  501    0  0.14570828100E+03 -0.25796643920E+03  0.69790417930E+03  0.75818720009E+03  0.00000000000E+00 0. -1.
<mgrwt>
<rscale>  0 0.66583179E+03</rscale>
<asrwt>0</asrwt>
<pdfrwt beam="1">0</pdfrwt>
<pdfrwt beam="2">  1        2 0.40302992E+00 0.66583179E+03</pdfrwt>
<totfact> 0.38749613E+00</totfact>
</mgrwt>
</event>
<event>
 5    1  0.2368916E-004  0.6489598E+03  0.7818608E-02  0.9808733E-01
         13   -1    0    0    0    0  0.00000000000E+00  0.00000000000E+00  0.10000000000E+04  0.10000000000E+04  0.00000000000E+00 0. -1.
          2   -1    0    0  501    0 -0.00000000000E+00 -0.00000000000E+00 -0.10528722017E+03  0.10528722017E+03  0.00000000000E+00 0. -1.
    9000006    2    1    2  501    0  0.00000000000E+00  0.00000000000E+00  0.89471277983E+03  0.11052872202E+04  0.64895984521E+03 0.  0.
         13    1    3    3    0    0  0.23316385567E+03 -0.35715941439E+02  0.82684641496E+03  0.85983487135E+03  0.00000000000E+00 0. -1.
          4    1    3    3  501    0 -0.23316385567E+03  0.35715941439E+02  0.67866364870E+02  0.24545234883E+03  0.00000000000E+00 0. -1.
<mgrwt>
<rscale>  0 0.64895985E+03</rscale>
<asrwt>0</asrwt>
<pdfrwt beam="1">0</pdfrwt>
<pdfrwt beam="2">  1        2 0.38286343E+00 0.64895985E+03</pdfrwt>
<totfact> 0.46136715E+00</totfact>
</mgrwt>
</event>
<event>
 5    1  0.2368916E-004  0.6655409E+03  0.7818608E-02  0.9778047E-01
         13   -1    0    0    0    0  0.00000000000E+00  0.00000000000E+00  0.10000000000E+04  0.10000000000E+04  0.00000000000E+00 0. -1.
          2   -1    0    0  501    0 -0.00000000000E+00 -0.00000000000E+00 -0.11073618130E+03  0.11073618130E+03  0.00000000000E+00 0. -1.
    9000006    2    1    2  501    0  0.00000000000E+00  0.00000000000E+00  0.88926381870E+03  0.11107361813E+04  0.66554092675E+03 0.  0.
         13    1    3    3    0    0 -0.92511295260E+02  0.43298378009E+02 -0.83926896091E+02  0.13219989855E+03  0.00000000000E+00 0. -1.
          2    1    3    3  501    0  0.92511295260E+02 -0.43298378009E+02  0.97319071480E+03  0.97853628275E+03  0.00000000000E+00 0. -1.
<mgrwt>
<rscale>  0 0.66554093E+03</rscale>
<asrwt>0</asrwt>
<pdfrwt beam="1">0</pdfrwt>
<pdfrwt beam="2">  1        2 0.40267787E+00 0.66554093E+03</pdfrwt>
<totfact> 0.38868840E+00</totfact>
</mgrwt>
</event>
<event>
 5    1  0.2368916E-004  0.6144205E+03  0.7818608E-02  0.9875932E-01
         13   -1    0    0    0    0  0.00000000000E+00  0.00000000000E+00  0.10000000000E+04  0.10000000000E+04  0.00000000000E+00 0. -1.
          2   -1    0    0  501    0 -0.00000000000E+00 -0.00000000000E+00 -0.94378138435E+02  0.94378138435E+02  0.00000000000E+00 0. -1.
    9000006    2    1    2  501    0  0.00000000000E+00  0.00000000000E+00  0.90562186156E+03  0.10943781384E+04  0.61442050238E+03 0.  0.
         13    1    3    3    0    0  0.21953152971E+03 -0.17389843800E+03  0.22790966641E+03  0.36107835067E+03  0.00000000000E+00 0. -1.
          4    1    3    3  501    0 -0.21953152971E+03  0.17389843800E+03  0.67771219516E+03  0.73329978777E+03  0.00000000000E+00 0. -1.
<mgrwt>
<rscale>  0 0.61442050E+03</rscale>
<asrwt>0</asrwt>
<pdfrwt beam="1">0</pdfrwt>
<pdfrwt beam="2">  1        2 0.34319395E+00 0.61442050E+03</pdfrwt>
<totfact> 0.64542293E+00</totfact>
</mgrwt>
</event>
<event>
 5    1  0.2368916E-004  0.6396775E+03  0.7818608E-02  0.9826344E-01
         13   -1    0    0    0    0  0.00000000000E+00  0.00000000000E+00  0.10000000000E+04  0.10000000000E+04  0.00000000000E+00 0. -1.
          2   -1    0    0  501    0 -0.00000000000E+00 -0.00000000000E+00 -0.10229681674E+03  0.10229681674E+03  0.00000000000E+00 0. -1.
    9000006    2    1    2  501    0  0.00000000000E+00  0.00000000000E+00  0.89770318326E+03  0.11022968167E+04  0.63967747105E+03 0.  0.
         13    1    3    3    0    0  0.25709631595E+03 -0.10165450933E+02  0.12146506050E+03  0.28452699870E+03  0.00000000000E+00 0. -1.
          4    1    3    3  501    0 -0.25709631595E+03  0.10165450933E+02  0.77623812276E+03  0.81776981804E+03  0.00000000000E+00 0. -1.
<mgrwt>
<rscale>  0 0.63967747E+03</rscale>
<asrwt>0</asrwt>
<pdfrwt beam="1">0</pdfrwt>
<pdfrwt beam="2">  1        2 0.37198921E+00 0.63967747E+03</pdfrwt>
<totfact> 0.50629421E+00</totfact>
</mgrwt>
</event>
<event>
 5    1  0.2368916E-004  0.6461998E+03  0.7818608E-02  0.9813936E-01
         13   -1    0    0    0    0  0.00000000000E+00  0.00000000000E+00  0.10000000000E+04  0.10000000000E+04  0.00000000000E+00 0. -1.
          2   -1    0    0  501    0 -0.00000000000E+00 -0.00000000000E+00 -0.10439354126E+03  0.10439354126E+03  0.00000000000E+00 0. -1.
    9000006    2    1    2  501    0  0.00000000000E+00  0.00000000000E+00  0.89560645874E+03  0.11043935413E+04  0.64619978726E+03 0.  0.
         13    1    3    3    0    0  0.30189334471E+03 -0.11510571855E+03  0.44412845744E+03  0.54921671927E+03  0.00000000000E+00 0. -1.
          4    1    3    3  501    0 -0.30189334471E+03  0.11510571855E+03  0.45147800130E+03  0.55517682199E+03  0.00000000000E+00 0. -1.
<mgrwt>
<rscale>  0 0.64619979E+03</rscale>
<asrwt>0</asrwt>
<pdfrwt beam="1">0</pdfrwt>
<pdfrwt beam="2">  1        2 0.37961368E+00 0.64619979E+03</pdfrwt>
<totfact> 0.47439668E+00</totfact>
</mgrwt>
</event>
<event>
 5    1  0.2368916E-004  0.6501299E+03  0.7818608E-02  0.9806535E-01
         13   -1    0    0    0    0  0.00000000000E+00  0.00000000000E+00  0.10000000000E+04  0.10000000000E+04  0.00000000000E+00 0. -1.
          2   -1    0    0  501    0 -0.00000000000E+00 -0.00000000000E+00 -0.10566722118E+03  0.10566722118E+03  0.00000000000E+00 0. -1.
    9000006    2    1    2  501    0  0.00000000000E+00  0.00000000000E+00  0.89433277882E+03  0.11056672212E+04  0.65012989834E+03 0.  0.
         13    1    3    3    0    0  0.13303143070E+03 -0.12598319190E+03  0.90381925840E+03  0.92220300262E+03  0.00000000000E+00 0. -1.
          4    1    3    3  501    0 -0.13303143070E+03  0.12598319190E+03 -0.94864795786E+01  0.18346421856E+03  0.00000000000E+00 0. -1.
<mgrwt>
<rscale>  0 0.65012990E+03</rscale>
<asrwt>0</asrwt>
<pdfrwt beam="1">0</pdfrwt>
<pdfrwt beam="2">  1        2 0.38424525E+00 0.65012990E+03</pdfrwt>
<totfact> 0.45592607E+00</totfact>
</mgrwt>
</event>
<event>
 5    1  0.2368916E-004  0.6380067E+03  0.7818608E-02  0.9829548E-01
         13   -1    0    0    0    0  0.00000000000E+00  0.00000000000E+00  0.10000000000E+04  0.10000000000E+04  0.00000000000E+00 0. -1.
          2   -1    0    0  501    0 -0.00000000000E+00 -0.00000000000E+00 -0.10176313032E+03  0.10176313032E+03  0.00000000000E+00 0. -1.
    9000006    2    1    2  501    0  0.00000000000E+00  0.00000000000E+00  0.89823686968E+03  0.11017631303E+04  0.63800667808E+03 0.  0.
         13    1    3    3    0    0 -0.27316218597E+03  0.13810876382E+03  0.60426446570E+03  0.67736781367E+03  0.00000000000E+00 0. -1.
          4    1    3    3  501    0  0.27316218597E+03 -0.13810876382E+03  0.29397240398E+03  0.42439531665E+03  0.00000000000E+00 0. -1.
<mgrwt>
<rscale>  0 0.63800668E+03</rscale>
<asrwt>0</asrwt>
<pdfrwt beam="1">0</pdfrwt>
<pdfrwt beam="2">  1        2 0.37004853E+00 0.63800668E+03</pdfrwt>
<totfact> 0.51472067E+00</totfact>
</mgrwt>
</event>
<event>
 5    1  0.2368916E-004  0.6402419E+03  0.7818608E-02  0.9825264E-01
         13   -1    0    0    0    0  0.00000000000E+00  0.00000000000E+00  0.10000000000E+04  0.10000000000E+04  0.00000000000E+00 0. -1.
          2   -1    0    0  501    0 -0.00000000000E+00 -0.00000000000E+00 -0.10247742015E+03  0.10247742015E+03  0.00000000000E+00 0. -1.
    9000006    2    1    2  501    0  0.00000000000E+00  0.00000000000E+00  0.89752257985E+03  0.11024774202E+04  0.64024189226E+03 0.  0.
         13    1    3    3    0    0  0.61849225515E+02  0.23907321368E+03  0.97985820351E+02  0.26567376458E+03  0.00000000000E+00 0. -1.
          4    1    3    3  501    0 -0.61849225515E+02 -0.23907321368E+03  0.79953675950E+03  0.83680365557E+03  0.00000000000E+00 0. -1.
<mgrwt>
<rscale>  0 0.64024189E+03</rscale>
<asrwt>0</asrwt>
<pdfrwt beam="1">0</pdfrwt>
<pdfrwt beam="2">  1        2 0.37264595E+00 0.64024189E+03</pdfrwt>
<totfact> 0.50347137E+00</totfact>
</mgrwt>
</event>
<event>
 5    1  0.2368916E-004  0.6594474E+03  0.7818608E-02  0.9789212E-01
         13   -1    0    0    0    0  0.00000000000E+00  0.00000000000E+00  0.10000000000E+04  0.10000000000E+04  0.00000000000E+00 0. -1.
          2   -1    0    0  501    0 -0.00000000000E+00 -0.00000000000E+00 -0.10871771296E+03  0.10871771296E+03  0.00000000000E+00 0. -1.
    9000006    2    1    2  501    0  0.00000000000E+00  0.00000000000E+00  0.89128228704E+03  0.11087177130E+04  0.65944738368E+03 0.  0.
         13    1    3    3    0    0  0.27155156244E+02 -0.11162427044E+03  0.96526460252E+03  0.97207671155E+03  0.00000000000E+00 0. -1.
          2    1    3    3  501    0 -0.27155156244E+02  0.11162427044E+03 -0.73982315481E+02  0.13664100141E+03  0.00000000000E+00 0. -1.
<mgrwt>
<rscale>  0 0.65944738E+03</rscale>
<asrwt>0</asrwt>
<pdfrwt beam="1">0</pdfrwt>
<pdfrwt beam="2">  1        2 0.39533797E+00 0.65944738E+03</pdfrwt>
<totfact> 0.41430825E+00</totfact>
</mgrwt>
</event>
<event>
 5    1  0.2368916E-004  0.6551712E+03  0.7818608E-02  0.9797124E-01
         13   -1    0    0    0    0  0.00000000000E+00  0.00000000000E+00  0.10000000000E+04  0.10000000000E+04  0.00000000000E+00 0. -1.
          2   -1    0    0  501    0 -0.00000000000E+00 -0.00000000000E+00 -0.10731231110E+03  0.10731231110E+03  0.00000000000E+00 0. -1.
    9000006    2    1    2  501    0  0.00000000000E+00  0.00000000000E+00  0.89268768890E+03  0.11073123111E+04  0.65517115658E+03 0.  0.
         13    1    3    3    0    0  0.67156237911E+02 -0.17578548021E+03  0.89953903015E+03  0.91901086071E+03  0.00000000000E+00 0. -1.
          2    1    3    3  501    0 -0.67156237911E+02  0.17578548021E+03 -0.68513412538E+01  0.18830145039E+03  0.00000000000E+00 0. -1.
<mgrwt>
<rscale>  0 0.65517116E+03</rscale>
<asrwt>0</asrwt>
<pdfrwt beam="1">0</pdfrwt>
<pdfrwt beam="2">  1        2 0.39022741E+00 0.65517116E+03</pdfrwt>
<totfact> 0.43303512E+00</totfact>
</mgrwt>
</event>
<event>
 5    1  0.2368916E-004  0.6474460E+03  0.7818608E-02  0.9811583E-01
         13   -1    0    0    0    0  0.00000000000E+00  0.00000000000E+00  0.10000000000E+04  0.10000000000E+04  0.00000000000E+00 0. -1.
          2   -1    0    0  501    0 -0.00000000000E+00 -0.00000000000E+00 -0.10479657198E+03  0.10479657198E+03  0.00000000000E+00 0. -1.
    9000006    2    1    2  501    0  0.00000000000E+00  0.00000000000E+00  0.89520342802E+03  0.11047965720E+04  0.64744597298E+03 0.  0.
         13    1    3    3    0    0  0.16342826038E+03 -0.11623178958E+03  0.88123329149E+03  0.90376475879E+03  0.00000000000E+00 0. -1.
          2    1    3    3  501    0 -0.16342826038E+03  0.11623178958E+03  0.13970136528E+02  0.20103181319E+03  0.00000000000E+00 0. -1.
<mgrwt>
<rscale>  0 0.64744597E+03</rscale>
<asrwt>0</asrwt>
<pdfrwt beam="1">0</pdfrwt>
<pdfrwt beam="2">  1        2 0.38107925E+00 0.64744597E+03</pdfrwt>
<totfact> 0.46847977E+00</totfact>
</mgrwt>
</event>
<event>
 5    1  0.2368916E-004  0.6390515E+03  0.7818608E-02  0.9827543E-01
         13   -1    0    0    0    0  0.00000000000E+00  0.00000000000E+00  0.10000000000E+04  0.10000000000E+04  0.00000000000E+00 0. -1.
          2   -1    0    0  501    0 -0.00000000000E+00 -0.00000000000E+00 -0.10209670217E+03  0.10209670217E+03  0.00000000000E+00 0. -1.
    9000006    2    1    2  501    0  0.00000000000E+00  0.00000000000E+00  0.89790329783E+03  0.11020967022E+04  0.63905149143E+03 0.  0.
         13    1    3    3    0    0  0.22298839719E+03  0.12147320148E+03  0.78343671046E+03  0.82356095297E+03  0.00000000000E+00 0. -1.
          2    1    3    3  501    0 -0.22298839719E+03 -0.12147320148E+03  0.11446658736E+03  0.27853574920E+03  0.00000000000E+00 0. -1.
<mgrwt>
<rscale>  0 0.63905149E+03</rscale>
<asrwt>0</asrwt>
<pdfrwt beam="1">0</pdfrwt>
<pdfrwt beam="2">  1        2 0.37126152E+00 0.63905149E+03</pdfrwt>
<totfact> 0.50943893E+00</totfact>
</mgrwt>
</event>
<event>
 5    1  0.2368916E-004  0.5748189E+03  0.7818608E-02  0.9959071E-01
         13   -1    0    0    0    0  0.00000000000E+00  0.00000000000E+00  0.10000000000E+04  0.10000000000E+04  0.00000000000E+00 0. -1.
          2   -1    0    0  501    0 -0.00000000000E+00 -0.00000000000E+00 -0.82604186809E+02  0.82604186809E+02  0.00000000000E+00 0. -1.
    9000006    2    1    2  501    0  0.00000000000E+00  0.00000000000E+00  0.91739581319E+03  0.10826041868E+04  0.57481888211E+03 0.  0.
         13    1    3    3    0    0  0.72335551472E+02  0.22283999736E+03  0.77223504552E+03  0.80699260341E+03  0.00000000000E+00 0. -1.
          4    1    3    3  501    0 -0.72335551472E+02 -0.22283999736E+03  0.14516076767E+03  0.27561158340E+03  0.00000000000E+00 0. -1.
<mgrwt>
<rscale>  0 0.57481888E+03</rscale>
<asrwt>0</asrwt>
<pdfrwt beam="1">0</pdfrwt>
<pdfrwt beam="2">  1        2 0.30037949E+00 0.57481888E+03</pdfrwt>
<totfact> 0.92039460E+00</totfact>
</mgrwt>
</event>
<event>
 5    1  0.2368916E-004  0.6432542E+03  0.7818608E-02  0.9819520E-01
         13   -1    0    0    0    0  0.00000000000E+00  0.00000000000E+00  0.10000000000E+04  0.10000000000E+04  0.00000000000E+00 0. -1.
          2   -1    0    0  501    0 -0.00000000000E+00 -0.00000000000E+00 -0.10344399581E+03  0.10344399581E+03  0.00000000000E+00 0. -1.
    9000006    2    1    2  501    0  0.00000000000E+00  0.00000000000E+00  0.89655600419E+03  0.11034439958E+04  0.64325421353E+03 0.  0.
         13    1    3    3    0    0  0.17774532306E+03  0.25643074537E+03  0.31436763370E+03  0.44291888214E+03  0.00000000000E+00 0. -1.
          2    1    3    3  501    0 -0.17774532306E+03 -0.25643074537E+03  0.58218837049E+03  0.66052511366E+03  0.00000000000E+00 0. -1.
<mgrwt>
<rscale>  0 0.64325421E+03</rscale>
<asrwt>0</asrwt>
<pdfrwt beam="1">0</pdfrwt>
<pdfrwt beam="2">  1        2 0.37616078E+00 0.64325421E+03</pdfrwt>
<totfact> 0.48860702E+00</totfact>
</mgrwt>
</event>
<event>
 5    1  0.2368916E-004  0.6703397E+03  0.7818608E-02  0.9769344E-01
         13   -1    0    0    0    0  0.00000000000E+00  0.00000000000E+00  0.10000000000E+04  0.10000000000E+04  0.00000000000E+00 0. -1.
          2   -1    0    0  501    0 -0.00000000000E+00 -0.00000000000E+00 -0.11233881669E+03  0.11233881669E+03  0.00000000000E+00 0. -1.
    9000006    2    1    2  501    0  0.00000000000E+00  0.00000000000E+00  0.88766118331E+03  0.11123388167E+04  0.67033966522E+03 0.  0.
         13    1    3    3    0    0 -0.10357287895E+03  0.31780814877E+03  0.40286555405E+03  0.52347876301E+03  0.00000000000E+00 0. -1.
          4    1    3    3  501    0  0.10357287895E+03 -0.31780814877E+03  0.48479562926E+03  0.58886005368E+03  0.00000000000E+00 0. -1.
<mgrwt>
<rscale>  0 0.67033967E+03</rscale>
<asrwt>0</asrwt>
<pdfrwt beam="1">0</pdfrwt>
<pdfrwt beam="2">  1        2 0.40850565E+00 0.67033967E+03</pdfrwt>
<totfact> 0.36936836E+00</totfact>
</mgrwt>
</event>
<event>
 5    1  0.2368916E-004  0.6419379E+03  0.7818608E-02  0.9822026E-01
         13   -1    0    0    0    0  0.00000000000E+00  0.00000000000E+00  0.10000000000E+04  0.10000000000E+04  0.00000000000E+00 0. -1.
          2   -1    0    0  501    0 -0.00000000000E+00 -0.00000000000E+00 -0.10302105823E+03  0.10302105823E+03  0.00000000000E+00 0. -1.
    9000006    2    1    2  501    0  0.00000000000E+00  0.00000000000E+00  0.89697894177E+03  0.11030210582E+04  0.64193787310E+03 0.  0.
         13    1    3    3    0    0  0.23170319218E+03 -0.17964304738E+03  0.67293932163E+03  0.73403359892E+03  0.00000000000E+00 0. -1.
          4    1    3    3  501    0 -0.23170319218E+03  0.17964304738E+03  0.22403962014E+03  0.36898745931E+03  0.00000000000E+00 0. -1.
<mgrwt>
<rscale>  0 0.64193787E+03</rscale>
<asrwt>0</asrwt>
<pdfrwt beam="1">0</pdfrwt>
<pdfrwt beam="2">  1        2 0.37462282E+00 0.64193787E+03</pdfrwt>
<totfact> 0.49506091E+00</totfact>
</mgrwt>
</event>
<event>
 5    1  0.2368916E-004  0.6516868E+03  0.7818608E-02  0.9803619E-01
         13   -1    0    0    0    0  0.00000000000E+00  0.00000000000E+00  0.10000000000E+04  0.10000000000E+04  0.00000000000E+00 0. -1.
          2   -1    0    0  501    0 -0.00000000000E+00 -0.00000000000E+00 -0.10617392391E+03  0.10617392391E+03  0.00000000000E+00 0. -1.
    9000006    2    1    2  501    0  0.00000000000E+00  0.00000000000E+00  0.89382607609E+03  0.11061739239E+04  0.65168680795E+03 0.  0.
         13    1    3    3    0    0 -0.21402672914E+03  0.21821972899E+03  0.63855130195E+03  0.70793718375E+03  0.00000000000E+00 0. -1.
          4    1    3    3  501    0  0.21402672914E+03 -0.21821972899E+03  0.25527477413E+03  0.39823674016E+03  0.00000000000E+00 0. -1.
<mgrwt>
<rscale>  0 0.65168681E+03</rscale>
<asrwt>0</asrwt>
<pdfrwt beam="1">0</pdfrwt>
<pdfrwt beam="2">  1        2 0.38608781E+00 0.65168681E+03</pdfrwt>
<totfact> 0.44876135E+00</totfact>
</mgrwt>
</event>
<event>
 5    1  0.2368916E-004  0.6303305E+03  0.7818608E-02  0.9844404E-01
         13   -1    0    0    0    0  0.00000000000E+00  0.00000000000E+00  0.10000000000E+04  0.10000000000E+04  0.00000000000E+00 0. -1.
          2   -1    0    0  501    0 -0.00000000000E+00 -0.00000000000E+00 -0.99329140156E+02  0.99329140156E+02  0.00000000000E+00 0. -1.
    9000006    2    1    2  501    0  0.00000000000E+00  0.00000000000E+00  0.90067085984E+03  0.10993291402E+04  0.63033051697E+03 0.  0.
         13    1    3    3    0    0 -0.37023566774E+02  0.22109508547E+03  0.83669453221E+03  0.86620524217E+03  0.00000000000E+00 0. -1.
          4    1    3    3  501    0  0.37023566774E+02 -0.22109508547E+03  0.63976327630E+02  0.23312389799E+03  0.00000000000E+00 0. -1.
<mgrwt>
<rscale>  0 0.63033052E+03</rscale>
<asrwt>0</asrwt>
<pdfrwt beam="1">0</pdfrwt>
<pdfrwt beam="2">  1        2 0.36119763E+00 0.63033052E+03</pdfrwt>
<totfact> 0.55480898E+00</totfact>
</mgrwt>
</event>
<event>
 5    1  0.2368916E-004  0.7564837E+03  0.7818608E-02  0.9625233E-01
         13   -1    0    0    0    0  0.00000000000E+00  0.00000000000E+00  0.10000000000E+04  0.10000000000E+04  0.00000000000E+00 0. -1.
          2   -1    0    0  501    0 -0.00000000000E+00 -0.00000000000E+00 -0.14306690821E+03  0.14306690821E+03  0.00000000000E+00 0. -1.
    9000006    2    1    2  501    0  0.00000000000E+00  0.00000000000E+00  0.85693309179E+03  0.11430669082E+04  0.75648372939E+03 0.  0.
         13    1    3    3    0    0 -0.79504016348E+02  0.25619854602E+03  0.83139903224E+03  0.87360341941E+03  0.00000000000E+00 0. -1.
          4    1    3    3  501    0  0.79504016348E+02 -0.25619854602E+03  0.25534059553E+02  0.26946348880E+03  0.00000000000E+00 0. -1.
<mgrwt>
<rscale>  0 0.75648373E+03</rscale>
<asrwt>0</asrwt>
<pdfrwt beam="1">0</pdfrwt>
<pdfrwt beam="2">  1        2 0.52024440E+00 0.75648373E+03</pdfrwt>
<totfact> 0.12993207E+00</totfact>
</mgrwt>
</event>
<event>
 5    1  0.2368916E-004  0.6716966E+03  0.7818608E-02  0.9766898E-01
         13   -1    0    0    0    0  0.00000000000E+00  0.00000000000E+00  0.10000000000E+04  0.10000000000E+04  0.00000000000E+00 0. -1.
          2   -1    0    0  501    0 -0.00000000000E+00 -0.00000000000E+00 -0.11279407457E+03  0.11279407457E+03  0.00000000000E+00 0. -1.
    9000006    2    1    2  501    0  0.00000000000E+00  0.00000000000E+00  0.88720592543E+03  0.11127940746E+04  0.67169658201E+03 0.  0.
         13    1    3    3    0    0 -0.77149585663E+02  0.91229587933E+02  0.96360142162E+03  0.97098022433E+03  0.00000000000E+00 0. -1.
          2    1    3    3  501    0  0.77149585663E+02 -0.91229587933E+02 -0.76395496194E+02  0.14181385024E+03  0.00000000000E+00 0. -1.
<mgrwt>
<rscale>  0 0.67169658E+03</rscale>
<asrwt>0</asrwt>
<pdfrwt beam="1">0</pdfrwt>
<pdfrwt beam="2">  1        2 0.41016114E+00 0.67169658E+03</pdfrwt>
<totfact> 0.36403906E+00</totfact>
</mgrwt>
</event>
<event>
 5    1  0.2368916E-004  0.6491762E+03  0.7818608E-02  0.9808326E-01
         13   -1    0    0    0    0  0.00000000000E+00  0.00000000000E+00  0.10000000000E+04  0.10000000000E+04  0.00000000000E+00 0. -1.
          2   -1    0    0  501    0 -0.00000000000E+00 -0.00000000000E+00 -0.10535743541E+03  0.10535743541E+03  0.00000000000E+00 0. -1.
    9000006    2    1    2  501    0  0.00000000000E+00  0.00000000000E+00  0.89464256459E+03  0.11053574354E+04  0.64917620231E+03 0.  0.
         13    1    3    3    0    0  0.14424368932E+03  0.12254709129E+03  0.89631151254E+03  0.91607770359E+03  0.00000000000E+00 0. -1.
          4    1    3    3  501    0 -0.14424368932E+03 -0.12254709129E+03 -0.16689479547E+01  0.18927973183E+03  0.00000000000E+00 0. -1.
<mgrwt>
<rscale>  0 0.64917620E+03</rscale>
<asrwt>0</asrwt>
<pdfrwt beam="1">0</pdfrwt>
<pdfrwt beam="2">  1        2 0.38311875E+00 0.64917620E+03</pdfrwt>
<totfact> 0.46035735E+00</totfact>
</mgrwt>
</event>
<event>
 5    1  0.2368916E-004  0.5282585E+03  0.7818608E-02  0.1006655E+00
         13   -1    0    0    0    0  0.00000000000E+00  0.00000000000E+00  0.10000000000E+04  0.10000000000E+04  0.00000000000E+00 0. -1.
          2   -1    0    0  501    0 -0.00000000000E+00 -0.00000000000E+00 -0.69764262480E+02  0.69764262480E+02  0.00000000000E+00 0. -1.
    9000006    2    1    2  501    0  0.00000000000E+00  0.00000000000E+00  0.93023573752E+03  0.10697642625E+04  0.52825850672E+03 0.  0.
         13    1    3    3    0    0 -0.41799288074E+02 -0.24427247611E+03  0.28009141237E+03  0.37398853238E+03  0.00000000000E+00 0. -1.
          4    1    3    3  501    0  0.41799288074E+02  0.24427247611E+03  0.65014432515E+03  0.69577573010E+03  0.00000000000E+00 0. -1.
<mgrwt>
<rscale>  0 0.52825851E+03</rscale>
<asrwt>0</asrwt>
<pdfrwt beam="1">0</pdfrwt>
<pdfrwt beam="2">  1        2 0.25368876E+00 0.52825851E+03</pdfrwt>
<totfact> 0.13520495E+01</totfact>
</mgrwt>
</event>
<event>
 5    1  0.2368916E-004  0.6695904E+03  0.7818608E-02  0.9770698E-01
         13   -1    0    0    0    0  0.00000000000E+00  0.00000000000E+00  0.10000000000E+04  0.10000000000E+04  0.00000000000E+00 0. -1.
          2   -1    0    0  501    0 -0.00000000000E+00 -0.00000000000E+00 -0.11208782538E+03  0.11208782538E+03  0.00000000000E+00 0. -1.
    9000006    2    1    2  501    0  0.00000000000E+00  0.00000000000E+00  0.88791217462E+03  0.11120878254E+04  0.66959039832E+03 0.  0.
         13    1    3    3    0    0 -0.23182274446E+03 -0.85828124899E+02  0.81895323797E+03  0.85544880493E+03  0.00000000000E+00 0. -1.
          2    1    3    3  501    0  0.23182274446E+03  0.85828124899E+02  0.68958936646E+02  0.25663902045E+03  0.00000000000E+00 0. -1.
<mgrwt>
<rscale>  0 0.66959040E+03</rscale>
<asrwt>0</asrwt>
<pdfrwt beam="1">0</pdfrwt>
<pdfrwt beam="2">  1        2 0.40759295E+00 0.66959040E+03</pdfrwt>
<totfact> 0.37233619E+00</totfact>
</mgrwt>
</event>
<event>
 5    1  0.2368916E-004  0.6578434E+03  0.7818608E-02  0.9792172E-01
         13   -1    0    0    0    0  0.00000000000E+00  0.00000000000E+00  0.10000000000E+04  0.10000000000E+04  0.00000000000E+00 0. -1.
          2   -1    0    0  501    0 -0.00000000000E+00 -0.00000000000E+00 -0.10818947778E+03  0.10818947778E+03  0.00000000000E+00 0. -1.
    9000006    2    1    2  501    0  0.00000000000E+00  0.00000000000E+00  0.89181052222E+03  0.11081894778E+04  0.65784337887E+03 0.  0.
         13    1    3    3    0    0 -0.31353187033E+03 -0.95897412923E+02  0.40162515827E+03  0.51846052431E+03  0.00000000000E+00 0. -1.
          4    1    3    3  501    0  0.31353187033E+03  0.95897412923E+02  0.49018536395E+03  0.58972895347E+03  0.00000000000E+00 0. -1.
<mgrwt>
<rscale>  0 0.65784338E+03</rscale>
<asrwt>0</asrwt>
<pdfrwt beam="1">0</pdfrwt>
<pdfrwt beam="2">  1        2 0.39341711E+00 0.65784338E+03</pdfrwt>
<totfact> 0.42125919E+00</totfact>
</mgrwt>
</event>
<event>
 5    1  0.2368916E-004  0.5310671E+03  0.7818608E-02  0.1005974E+00
         13   -1    0    0    0    0  0.00000000000E+00  0.00000000000E+00  0.10000000000E+04  0.10000000000E+04  0.00000000000E+00 0. -1.
          2   -1    0    0  501    0 -0.00000000000E+00 -0.00000000000E+00 -0.70508073929E+02  0.70508073929E+02  0.00000000000E+00 0. -1.
    9000006    2    1    2  501    0  0.00000000000E+00  0.00000000000E+00  0.92949192607E+03  0.10705080739E+04  0.53106712920E+03 0.  0.
         13    1    3    3    0    0 -0.18799627905E+03  0.16088986903E+03  0.27056228936E+03  0.36664983747E+03  0.00000000000E+00 0. -1.
          2    1    3    3  501    0  0.18799627905E+03 -0.16088986903E+03  0.65892963671E+03  0.70385823646E+03  0.00000000000E+00 0. -1.
<mgrwt>
<rscale>  0 0.53106713E+03</rscale>
<asrwt>0</asrwt>
<pdfrwt beam="1">0</pdfrwt>
<pdfrwt beam="2">  1        2 0.25639354E+00 0.53106713E+03</pdfrwt>
<totfact> 0.13221602E+01</totfact>
</mgrwt>
</event>
<event>
 5    1  0.2368916E-004  0.6558501E+03  0.7818608E-02  0.9795863E-01
         13   -1    0    0    0    0  0.00000000000E+00  0.00000000000E+00  0.10000000000E+04  0.10000000000E+04  0.00000000000E+00 0. -1.
          2   -1    0    0  501    0 -0.00000000000E+00 -0.00000000000E+00 -0.10753484533E+03  0.10753484533E+03  0.00000000000E+00 0. -1.
    9000006    2    1    2  501    0  0.00000000000E+00  0.00000000000E+00  0.89246515467E+03  0.11075348453E+04  0.65585012108E+03 0.  0.
         13    1    3    3    0    0 -0.20925597372E+02  0.69045694553E+02  0.98643130203E+03  0.98906617685E+03  0.00000000000E+00 0. -1.
          2    1    3    3  501    0  0.20925597372E+02 -0.69045694553E+02 -0.93966147359E+02  0.11846866848E+03  0.00000000000E+00 0. -1.
<mgrwt>
<rscale>  0 0.65585012E+03</rscale>
<asrwt>0</asrwt>
<pdfrwt beam="1">0</pdfrwt>
<pdfrwt beam="2">  1        2 0.39103663E+00 0.65585012E+03</pdfrwt>
<totfact> 0.43001980E+00</totfact>
</mgrwt>
</event>
<event>
 5    1  0.2368916E-004  0.6480648E+03  0.7818608E-02  0.9810417E-01
         13   -1    0    0    0    0  0.00000000000E+00  0.00000000000E+00  0.10000000000E+04  0.10000000000E+04  0.00000000000E+00 0. -1.
          2   -1    0    0  501    0 -0.00000000000E+00 -0.00000000000E+00 -0.10499698437E+03  0.10499698437E+03  0.00000000000E+00 0. -1.
    9000006    2    1    2  501    0  0.00000000000E+00  0.00000000000E+00  0.89500301563E+03  0.11049969844E+04  0.64806476333E+03 0.  0.
         13    1    3    3    0    0 -0.15285311926E+03  0.41406752120E+02 -0.34519587325E+02  0.16208083507E+03  0.00000000000E+00 0. -1.
          4    1    3    3  501    0  0.15285311926E+03 -0.41406752120E+02  0.92952260296E+03  0.94291614929E+03  0.00000000000E+00 0. -1.
<mgrwt>
<rscale>  0 0.64806476E+03</rscale>
<asrwt>0</asrwt>
<pdfrwt beam="1">0</pdfrwt>
<pdfrwt beam="2">  1        2 0.38180802E+00 0.64806476E+03</pdfrwt>
<totfact> 0.46556257E+00</totfact>
</mgrwt>
</event>
<event>
 5    1  0.2368916E-004  0.6511389E+03  0.7818608E-02  0.9804644E-01
         13   -1    0    0    0    0  0.00000000000E+00  0.00000000000E+00  0.10000000000E+04  0.10000000000E+04  0.00000000000E+00 0. -1.
          2   -1    0    0  501    0 -0.00000000000E+00 -0.00000000000E+00 -0.10599547101E+03  0.10599547101E+03  0.00000000000E+00 0. -1.
    9000006    2    1    2  501    0  0.00000000000E+00  0.00000000000E+00  0.89400452899E+03  0.11059954710E+04  0.65113891302E+03 0.  0.
         13    1    3    3    0    0 -0.14950027472E+03  0.28639223747E+03  0.37853920716E+03  0.49765728889E+03  0.00000000000E+00 0. -1.
          4    1    3    3  501    0  0.14950027472E+03 -0.28639223747E+03  0.51546532182E+03  0.60833818212E+03  0.00000000000E+00 0. -1.
<mgrwt>
<rscale>  0 0.65113891E+03</rscale>
<asrwt>0</asrwt>
<pdfrwt beam="1">0</pdfrwt>
<pdfrwt beam="2">  1        2 0.38543889E+00 0.65113891E+03</pdfrwt>
<totfact> 0.45127292E+00</totfact>
</mgrwt>
</event>
<event>
 5    1  0.2368916E-004  0.6425840E+03  0.7818608E-02  0.9820795E-01
         13   -1    0    0    0    0  0.00000000000E+00  0.00000000000E+00  0.10000000000E+04  0.10000000000E+04  0.00000000000E+00 0. -1.
          2   -1    0    0  501    0 -0.00000000000E+00 -0.00000000000E+00 -0.10322854999E+03  0.10322854999E+03  0.00000000000E+00 0. -1.
    9000006    2    1    2  501    0  0.00000000000E+00  0.00000000000E+00  0.89677145001E+03  0.11032285500E+04  0.64258400226E+03 0.  0.
         13    1    3    3    0    0 -0.16260125476E+03  0.27661295823E+03  0.47683871939E+03  0.57474260414E+03  0.00000000000E+00 0. -1.
          2    1    3    3  501    0  0.16260125476E+03 -0.27661295823E+03  0.41993273062E+03  0.52848594585E+03  0.00000000000E+00 0. -1.
<mgrwt>
<rscale>  0 0.64258400E+03</rscale>
<asrwt>0</asrwt>
<pdfrwt beam="1">0</pdfrwt>
<pdfrwt beam="2">  1        2 0.37537734E+00 0.64258400E+03</pdfrwt>
<totfact> 0.49188487E+00</totfact>
</mgrwt>
</event>
<event>
 5    1  0.2368916E-004  0.6683293E+03  0.7818608E-02  0.9772981E-01
         13   -1    0    0    0    0  0.00000000000E+00  0.00000000000E+00  0.10000000000E+04  0.10000000000E+04  0.00000000000E+00 0. -1.
          2   -1    0    0  501    0 -0.00000000000E+00 -0.00000000000E+00 -0.11166601420E+03  0.11166601420E+03  0.00000000000E+00 0. -1.
    9000006    2    1    2  501    0  0.00000000000E+00  0.00000000000E+00  0.88833398580E+03  0.11116660142E+04  0.66832930268E+03 0.  0.
         13    1    3    3    0    0 -0.41955954782E+02 -0.36842568132E+02 -0.10385175137E+03  0.11791040340E+03  0.00000000000E+00 0. -1.
          2    1    3    3  501    0  0.41955954782E+02  0.36842568132E+02  0.99218573716E+03  0.99375561080E+03  0.00000000000E+00 0. -1.
<mgrwt>
<rscale>  0 0.66832930E+03</rscale>
<asrwt>0</asrwt>
<pdfrwt beam="1">0</pdfrwt>
<pdfrwt beam="2">  1        2 0.40605909E+00 0.66832930E+03</pdfrwt>
<totfact> 0.37737191E+00</totfact>
</mgrwt>
</event>
<event>
 5    1  0.2368916E-004  0.6375456E+03  0.7818608E-02  0.9830434E-01
         13   -1    0    0    0    0  0.00000000000E+00  0.00000000000E+00  0.10000000000E+04  0.10000000000E+04  0.00000000000E+00 0. -1.
          2   -1    0    0  501    0 -0.00000000000E+00 -0.00000000000E+00 -0.10161608608E+03  0.10161608608E+03  0.00000000000E+00 0. -1.
    9000006    2    1    2  501    0  0.00000000000E+00  0.00000000000E+00  0.89838391392E+03  0.11016160861E+04  0.63754556254E+03 0.  0.
         13    1    3    3    0    0 -0.23077725970E+03  0.21539162101E+03  0.52577508997E+03  0.61326270001E+03  0.00000000000E+00 0. -1.
          4    1    3    3  501    0  0.23077725970E+03 -0.21539162101E+03  0.37260882395E+03  0.48835338606E+03  0.00000000000E+00 0. -1.
<mgrwt>
<rscale>  0 0.63754556E+03</rscale>
<asrwt>0</asrwt>
<pdfrwt beam="1">0</pdfrwt>
<pdfrwt beam="2">  1        2 0.36951382E+00 0.63754556E+03</pdfrwt>
<totfact> 0.51706485E+00</totfact>
</mgrwt>
</event>
<event>
 5    1  0.2368916E-004  0.6549170E+03  0.7818608E-02  0.9797596E-01
         13   -1    0    0    0    0  0.00000000000E+00  0.00000000000E+00  0.10000000000E+04  0.10000000000E+04  0.00000000000E+00 0. -1.
          2   -1    0    0  501    0 -0.00000000000E+00 -0.00000000000E+00 -0.10722907862E+03  0.10722907862E+03  0.00000000000E+00 0. -1.
    9000006    2    1    2  501    0  0.00000000000E+00  0.00000000000E+00  0.89277092138E+03  0.11072290786E+04  0.65491702869E+03 0.  0.
         13    1    3    3    0    0 -0.23737086101E+03  0.20481429909E+03  0.28657518661E+03  0.42475776668E+03  0.00000000000E+00 0. -1.
          4    1    3    3  501    0  0.23737086101E+03 -0.20481429909E+03  0.60619573477E+03  0.68247131194E+03  0.00000000000E+00 0. -1.
<mgrwt>
<rscale>  0 0.65491703E+03</rscale>
<asrwt>0</asrwt>
<pdfrwt beam="1">0</pdfrwt>
<pdfrwt beam="2">  1        2 0.38992474E+00 0.65491703E+03</pdfrwt>
<totfact> 0.43416781E+00</totfact>
</mgrwt>
</event>
<event>
 5    1  0.2368916E-004  0.6345414E+03  0.7818608E-02  0.9836226E-01
         13   -1    0    0    0    0  0.00000000000E+00  0.00000000000E+00  0.10000000000E+04  0.10000000000E+04  0.00000000000E+00 0. -1.
          2   -1    0    0  501    0 -0.00000000000E+00 -0.00000000000E+00 -0.10066069322E+03  0.10066069322E+03  0.00000000000E+00 0. -1.
    9000006    2    1    2  501    0  0.00000000000E+00  0.00000000000E+00  0.89933930678E+03  0.11006606932E+04  0.63454138785E+03 0.  0.
         13    1    3    3    0    0 -0.28926597149E+03  0.12377405342E+03  0.37887268446E+03  0.49248282162E+03  0.00000000000E+00 0. -1.
          4    1    3    3  501    0  0.28926597149E+03 -0.12377405342E+03  0.52046662231E+03  0.60817787160E+03  0.00000000000E+00 0. -1.
<mgrwt>
<rscale>  0 0.63454139E+03</rscale>
<asrwt>0</asrwt>
<pdfrwt beam="1">0</pdfrwt>
<pdfrwt beam="2">  1        2 0.36603966E+00 0.63454139E+03</pdfrwt>
<totfact> 0.53253589E+00</totfact>
</mgrwt>
</event>
<event>
 5    1  0.2368916E-004  0.6412648E+03  0.7818608E-02  0.9823310E-01
         13   -1    0    0    0    0  0.00000000000E+00  0.00000000000E+00  0.10000000000E+04  0.10000000000E+04  0.00000000000E+00 0. -1.
          2   -1    0    0  501    0 -0.00000000000E+00 -0.00000000000E+00 -0.10280512178E+03  0.10280512178E+03  0.00000000000E+00 0. -1.
    9000006    2    1    2  501    0  0.00000000000E+00  0.00000000000E+00  0.89719487822E+03  0.11028051218E+04  0.64126475587E+03 0.  0.
         13    1    3    3    0    0 -0.23570938515E+03 -0.56833432768E+02  0.80939826285E+03  0.84493461359E+03  0.00000000000E+00 0. -1.
          2    1    3    3  501    0  0.23570938515E+03  0.56833432768E+02  0.87796615368E+02  0.25787050819E+03  0.00000000000E+00 0. -1.
<mgrwt>
<rscale>  0 0.64126476E+03</rscale>
<asrwt>0</asrwt>
<pdfrwt beam="1">0</pdfrwt>
<pdfrwt beam="2">  1        2 0.37383759E+00 0.64126476E+03</pdfrwt>
<totfact> 0.49838609E+00</totfact>
</mgrwt>
</event>
<event>
 5    1  0.2368916E-004  0.6469922E+03  0.7818608E-02  0.9812440E-01
         13   -1    0    0    0    0  0.00000000000E+00  0.00000000000E+00  0.10000000000E+04  0.10000000000E+04  0.00000000000E+00 0. -1.
          2   -1    0    0  501    0 -0.00000000000E+00 -0.00000000000E+00 -0.10464972898E+03  0.10464972898E+03  0.00000000000E+00 0. -1.
    9000006    2    1    2  501    0  0.00000000000E+00  0.00000000000E+00  0.89535027102E+03  0.11046497290E+04  0.64699220699E+03 0.  0.
         13    1    3    3    0    0  0.24626948923E+03 -0.20681250551E+03  0.38780403809E+03  0.50379762377E+03  0.00000000000E+00 0. -1.
          2    1    3    3  501    0 -0.24626948923E+03  0.20681250551E+03  0.50754623294E+03  0.60085210521E+03  0.00000000000E+00 0. -1.
<mgrwt>
<rscale>  0 0.64699221E+03</rscale>
<asrwt>0</asrwt>
<pdfrwt beam="1">0</pdfrwt>
<pdfrwt beam="2">  1        2 0.38054527E+00 0.64699221E+03</pdfrwt>
<totfact> 0.47062776E+00</totfact>
</mgrwt>
</event>
<event>
 5    1  0.2368916E-004  0.5688130E+03  0.7818608E-02  0.9972309E-01
         13   -1    0    0    0    0  0.00000000000E+00  0.00000000000E+00  0.10000000000E+04  0.10000000000E+04  0.00000000000E+00 0. -1.
          2   -1    0    0  501    0 -0.00000000000E+00 -0.00000000000E+00 -0.80887052834E+02  0.80887052834E+02  0.00000000000E+00 0. -1.
    9000006    2    1    2  501    0  0.00000000000E+00  0.00000000000E+00  0.91911294717E+03  0.10808870528E+04  0.56881298450E+03 0.  0.
         13    1    3    3    0    0  0.79848518716E+02 -0.23559458226E+03  0.72153242588E+03  0.76321008558E+03  0.00000000000E+00 0. -1.
          4    1    3    3  501    0 -0.79848518716E+02  0.23559458226E+03  0.19758052128E+03  0.31767696725E+03  0.00000000000E+00 0. -1.
<mgrwt>
<rscale>  0 0.56881298E+03</rscale>
<asrwt>0</asrwt>
<pdfrwt beam="1">0</pdfrwt>
<pdfrwt beam="2">  1        2 0.29413536E+00 0.56881298E+03</pdfrwt>
<totfact> 0.96895950E+00</totfact>
</mgrwt>
</event>
<event>
 5    1  0.2368916E-004  0.6460848E+03  0.7818608E-02  0.9814154E-01
         13   -1    0    0    0    0  0.00000000000E+00  0.00000000000E+00  0.10000000000E+04  0.10000000000E+04  0.00000000000E+00 0. -1.
          2   -1    0    0  501    0 -0.00000000000E+00 -0.00000000000E+00 -0.10435640485E+03  0.10435640485E+03  0.00000000000E+00 0. -1.
    9000006    2    1    2  501    0  0.00000000000E+00  0.00000000000E+00  0.89564359515E+03  0.11043564049E+04  0.64608483917E+03 0.  0.
         13    1    3    3    0    0 -0.51211567608E+02  0.26910414273E+03  0.74049135173E+03  0.78953600696E+03  0.00000000000E+00 0. -1.
          2    1    3    3  501    0  0.51211567608E+02 -0.26910414273E+03  0.15515224342E+03  0.31482039789E+03  0.00000000000E+00 0. -1.
<mgrwt>
<rscale>  0 0.64608484E+03</rscale>
<asrwt>0</asrwt>
<pdfrwt beam="1">0</pdfrwt>
<pdfrwt beam="2">  1        2 0.37947864E+00 0.64608484E+03</pdfrwt>
<totfact> 0.47494528E+00</totfact>
</mgrwt>
</event>
<event>
 5    1  0.2368916E-004  0.6528171E+03  0.7818608E-02  0.9801507E-01
         13   -1    0    0    0    0  0.00000000000E+00  0.00000000000E+00  0.10000000000E+04  0.10000000000E+04  0.00000000000E+00 0. -1.
          2   -1    0    0  501    0 -0.00000000000E+00 -0.00000000000E+00 -0.10654254119E+03  0.10654254119E+03  0.00000000000E+00 0. -1.
    9000006    2    1    2  501    0  0.00000000000E+00  0.00000000000E+00  0.89345745881E+03  0.11065425412E+04  0.65281709900E+03 0.  0.
         13    1    3    3    0    0 -0.21212521190E+03  0.20492362051E+03  0.68374019769E+03  0.74464182914E+03  0.00000000000E+00 0. -1.
          2    1    3    3  501    0  0.21212521190E+03 -0.20492362051E+03  0.20971726112E+03  0.36190071205E+03  0.00000000000E+00 0. -1.
<mgrwt>
<rscale>  0 0.65281710E+03</rscale>
<asrwt>0</asrwt>
<pdfrwt beam="1">0</pdfrwt>
<pdfrwt beam="2">  1        2 0.38742824E+00 0.65281710E+03</pdfrwt>
<totfact> 0.44361342E+00</totfact>
</mgrwt>
</event>
<event>
 5    1  0.2368916E-004  0.6498349E+03  0.7818608E-02  0.9807089E-01
         13   -1    0    0    0    0  0.00000000000E+00  0.00000000000E+00  0.10000000000E+04  0.10000000000E+04  0.00000000000E+00 0. -1.
          2   -1    0    0  501    0 -0.00000000000E+00 -0.00000000000E+00 -0.10557135407E+03  0.10557135407E+03  0.00000000000E+00 0. -1.
    9000006    2    1    2  501    0  0.00000000000E+00  0.00000000000E+00  0.89442864593E+03  0.11055713541E+04  0.64983491463E+03 0.  0.
         13    1    3    3    0    0  0.11547726365E+03 -0.22271109114E+03  0.79850983530E+03  0.83699055287E+03  0.00000000000E+00 0. -1.
          4    1    3    3  501    0 -0.11547726365E+03  0.22271109114E+03  0.95918810635E+02  0.26858080120E+03  0.00000000000E+00 0. -1.
<mgrwt>
<rscale>  0 0.64983491E+03</rscale>
<asrwt>0</asrwt>
<pdfrwt beam="1">0</pdfrwt>
<pdfrwt beam="2">  1        2 0.38389664E+00 0.64983491E+03</pdfrwt>
<totfact> 0.45729323E+00</totfact>
</mgrwt>
</event>
<event>
 5    1  0.2368916E-004  0.6416894E+03  0.7818608E-02  0.9822500E-01
         13   -1    0    0    0    0  0.00000000000E+00  0.00000000000E+00  0.10000000000E+04  0.10000000000E+04  0.00000000000E+00 0. -1.
          2   -1    0    0  501    0 -0.00000000000E+00 -0.00000000000E+00 -0.10294132966E+03  0.10294132966E+03  0.00000000000E+00 0. -1.
    9000006    2    1    2  501    0  0.00000000000E+00  0.00000000000E+00  0.89705867034E+03  0.11029413297E+04  0.64168942537E+03 0.  0.
         13    1    3    3    0    0 -0.16783508755E+03 -0.17954724255E+03  0.80301877604E+03  0.83978865412E+03  0.00000000000E+00 0. -1.
          2    1    3    3  501    0  0.16783508755E+03  0.17954724255E+03  0.94039894299E+02  0.26315267553E+03  0.00000000000E+00 0. -1.
<mgrwt>
<rscale>  0 0.64168943E+03</rscale>
<asrwt>0</asrwt>
<pdfrwt beam="1">0</pdfrwt>
<pdfrwt beam="2">  1        2 0.37433290E+00 0.64168943E+03</pdfrwt>
<totfact> 0.49628627E+00</totfact>
</mgrwt>
</event>
<event>
 5    1  0.2368916E-004  0.6471453E+03  0.7818608E-02  0.9812151E-01
         13   -1    0    0    0    0  0.00000000000E+00  0.00000000000E+00  0.10000000000E+04  0.10000000000E+04  0.00000000000E+00 0. -1.
          2   -1    0    0  501    0 -0.00000000000E+00 -0.00000000000E+00 -0.10469927421E+03  0.10469927421E+03  0.00000000000E+00 0. -1.
    9000006    2    1    2  501    0  0.00000000000E+00  0.00000000000E+00  0.89530072579E+03  0.11046992742E+04  0.64714534443E+03 0.  0.
         13    1    3    3    0    0  0.26391259470E+03  0.15308619245E+02  0.12913834130E+03  0.29421237679E+03  0.00000000000E+00 0. -1.
          2    1    3    3  501    0 -0.26391259470E+03 -0.15308619245E+02  0.76616238450E+03  0.81048689742E+03  0.00000000000E+00 0. -1.
<mgrwt>
<rscale>  0 0.64714534E+03</rscale>
<asrwt>0</asrwt>
<pdfrwt beam="1">0</pdfrwt>
<pdfrwt beam="2">  1        2 0.38072544E+00 0.64714534E+03</pdfrwt>
<totfact> 0.46990202E+00</totfact>
</mgrwt>
</event>
<event>
 5    1  0.2368916E-004  0.6369333E+03  0.7818608E-02  0.9831612E-01
         13   -1    0    0    0    0  0.00000000000E+00  0.00000000000E+00  0.10000000000E+04  0.10000000000E+04  0.00000000000E+00 0. -1.
          2   -1    0    0  501    0 -0.00000000000E+00 -0.00000000000E+00 -0.10142100997E+03  0.10142100997E+03  0.00000000000E+00 0. -1.
    9000006    2    1    2  501    0  0.00000000000E+00  0.00000000000E+00  0.89857899003E+03  0.11014210100E+04  0.63693330882E+03 0.  0.
         13    1    3    3    0    0  0.15318444773E+03 -0.24230989528E+02  0.93028518692E+03  0.94312414076E+03  0.00000000000E+00 0. -1.
          4    1    3    3  501    0 -0.15318444773E+03  0.24230989528E+02 -0.31706196894E+02  0.15829686921E+03  0.00000000000E+00 0. -1.
<mgrwt>
<rscale>  0 0.63693331E+03</rscale>
<asrwt>0</asrwt>
<pdfrwt beam="1">0</pdfrwt>
<pdfrwt beam="2">  1        2 0.36880445E+00 0.63693331E+03</pdfrwt>
<totfact> 0.52018986E+00</totfact>
</mgrwt>
</event>
<event>
 5    1  0.2368916E-004  0.6380957E+03  0.7818608E-02  0.9829377E-01
         13   -1    0    0    0    0  0.00000000000E+00  0.00000000000E+00  0.10000000000E+04  0.10000000000E+04  0.00000000000E+00 0. -1.
          2   -1    0    0  501    0 -0.00000000000E+00 -0.00000000000E+00 -0.10179151998E+03  0.10179151998E+03  0.00000000000E+00 0. -1.
    9000006    2    1    2  501    0  0.00000000000E+00  0.00000000000E+00  0.89820848002E+03  0.11017915200E+04  0.63809566674E+03 0.  0.
         13    1    3    3    0    0  0.24812135407E+03 -0.18008062883E+03  0.29662417679E+03  0.42659013290E+03  0.00000000000E+00 0. -1.
          4    1    3    3  501    0 -0.24812135407E+03  0.18008062883E+03  0.60158430323E+03  0.67520138708E+03  0.00000000000E+00 0. -1.
<mgrwt>
<rscale>  0 0.63809567E+03</rscale>
<asrwt>0</asrwt>
<pdfrwt beam="1">0</pdfrwt>
<pdfrwt beam="2">  1        2 0.37015176E+00 0.63809567E+03</pdfrwt>
<totfact> 0.51426921E+00</totfact>
</mgrwt>
</event>
<event>
 5    1  0.2368916E-004  0.6344049E+03  0.7818608E-02  0.9836490E-01
         13   -1    0    0    0    0  0.00000000000E+00  0.00000000000E+00  0.10000000000E+04  0.10000000000E+04  0.00000000000E+00 0. -1.
          2   -1    0    0  501    0 -0.00000000000E+00 -0.00000000000E+00 -0.10061739395E+03  0.10061739395E+03  0.00000000000E+00 0. -1.
    9000006    2    1    2  501    0  0.00000000000E+00  0.00000000000E+00  0.89938260605E+03  0.11006173939E+04  0.63440489894E+03 0.  0.
         13    1    3    3    0    0  0.12825233931E+02 -0.27222454695E+03  0.16809108617E+03  0.32019572739E+03  0.00000000000E+00 0. -1.
          2    1    3    3  501    0 -0.12825233931E+02  0.27222454695E+03  0.73129151988E+03  0.78042166656E+03  0.00000000000E+00 0. -1.
<mgrwt>
<rscale>  0 0.63440490E+03</rscale>
<asrwt>0</asrwt>
<pdfrwt beam="1">0</pdfrwt>
<pdfrwt beam="2">  1        2 0.36588220E+00 0.63440490E+03</pdfrwt>
<totfact> 0.53324702E+00</totfact>
</mgrwt>
</event>
<event>
 5    1  0.2368916E-004  0.6482262E+03  0.7818608E-02  0.9810113E-01
         13   -1    0    0    0    0  0.00000000000E+00  0.00000000000E+00  0.10000000000E+04  0.10000000000E+04  0.00000000000E+00 0. -1.
          2   -1    0    0  501    0 -0.00000000000E+00 -0.00000000000E+00 -0.10504929767E+03  0.10504929767E+03  0.00000000000E+00 0. -1.
    9000006    2    1    2  501    0  0.00000000000E+00  0.00000000000E+00  0.89495070233E+03  0.11050492977E+04  0.64822618791E+03 0.  0.
         13    1    3    3    0    0  0.98666535634E+02  0.99391119701E+02 -0.50805918738E+02  0.14897960031E+03  0.00000000000E+00 0. -1.
          2    1    3    3  501    0 -0.98666535634E+02 -0.99391119701E+02  0.94575662107E+03  0.95606969736E+03  0.00000000000E+00 0. -1.
<mgrwt>
<rscale>  0 0.64822619E+03</rscale>
<asrwt>0</asrwt>
<pdfrwt beam="1">0</pdfrwt>
<pdfrwt beam="2">  1        2 0.38199825E+00 0.64822619E+03</pdfrwt>
<totfact> 0.46480382E+00</totfact>
</mgrwt>
</event>
<event>
 5    1  0.2368916E-004  0.6432708E+03  0.7818608E-02  0.9819489E-01
         13   -1    0    0    0    0  0.00000000000E+00  0.00000000000E+00  0.10000000000E+04  0.10000000000E+04  0.00000000000E+00 0. -1.
          2   -1    0    0  501    0 -0.00000000000E+00 -0.00000000000E+00 -0.10344932799E+03  0.10344932799E+03  0.00000000000E+00 0. -1.
    9000006    2    1    2  501    0  0.00000000000E+00  0.00000000000E+00  0.89655067201E+03  0.11034493280E+04  0.64327079210E+03 0.  0.
         13    1    3    3    0    0 -0.24287828649E+03  0.88550797715E+02  0.77652719141E+03  0.81842872923E+03  0.00000000000E+00 0. -1.
          4    1    3    3  501    0  0.24287828649E+03 -0.88550797715E+02  0.12002348060E+03  0.28502059876E+03  0.00000000000E+00 0. -1.
<mgrwt>
<rscale>  0 0.64327079E+03</rscale>
<asrwt>0</asrwt>
<pdfrwt beam="1">0</pdfrwt>
<pdfrwt beam="2">  1        2 0.37618017E+00 0.64327079E+03</pdfrwt>
<totfact> 0.48852615E+00</totfact>
</mgrwt>
</event>
<event>
 5    1  0.2368916E-004  0.6562700E+03  0.7818608E-02  0.9795085E-01
         13   -1    0    0    0    0  0.00000000000E+00  0.00000000000E+00  0.10000000000E+04  0.10000000000E+04  0.00000000000E+00 0. -1.
          2   -1    0    0  501    0 -0.00000000000E+00 -0.00000000000E+00 -0.10767259123E+03  0.10767259123E+03  0.00000000000E+00 0. -1.
    9000006    2    1    2  501    0  0.00000000000E+00  0.00000000000E+00  0.89232740877E+03  0.11076725912E+04  0.65627003964E+03 0.  0.
         13    1    3    3    0    0  0.24735731774E+03 -0.20233197091E+03  0.57188976850E+03  0.65511966572E+03  0.00000000000E+00 0. -1.
          2    1    3    3  501    0 -0.24735731774E+03  0.20233197091E+03  0.32043764026E+03  0.45255292551E+03  0.00000000000E+00 0. -1.
<mgrwt>
<rscale>  0 0.65627004E+03</rscale>
<asrwt>0</asrwt>
<pdfrwt beam="1">0</pdfrwt>
<pdfrwt beam="2">  1        2 0.39153752E+00 0.65627004E+03</pdfrwt>
<totfact> 0.42816288E+00</totfact>
</mgrwt>
</event>
<event>
 5    1  0.2368916E-004  0.6360557E+03  0.7818608E-02  0.9833302E-01
         13   -1    0    0    0    0  0.00000000000E+00  0.00000000000E+00  0.10000000000E+04  0.10000000000E+04  0.00000000000E+00 0. -1.
          2   -1    0    0  501    0 -0.00000000000E+00 -0.00000000000E+00 -0.10114170511E+03  0.10114170511E+03  0.00000000000E+00 0. -1.
    9000006    2    1    2  501    0  0.00000000000E+00  0.00000000000E+00  0.89885829489E+03  0.11011417051E+04  0.63605567400E+03 0.  0.
         13    1    3    3    0    0  0.19886700224E+03  0.10051762477E+03  0.56595391393E+02  0.22990196997E+03  0.00000000000E+00 0. -1.
          4    1    3    3  501    0 -0.19886700224E+03 -0.10051762477E+03  0.84226290350E+03  0.87123973514E+03  0.00000000000E+00 0. -1.
<mgrwt>
<rscale>  0 0.63605567E+03</rscale>
<asrwt>0</asrwt>
<pdfrwt beam="1">0</pdfrwt>
<pdfrwt beam="2">  1        2 0.36778879E+00 0.63605567E+03</pdfrwt>
<totfact> 0.52469434E+00</totfact>
</mgrwt>
</event>
<event>
 5    1  0.2368916E-004  0.6533940E+03  0.7818608E-02  0.9800431E-01
         13   -1    0    0    0    0  0.00000000000E+00  0.00000000000E+00  0.10000000000E+04  0.10000000000E+04  0.00000000000E+00 0. -1.
          2   -1    0    0  501    0 -0.00000000000E+00 -0.00000000000E+00 -0.10673091483E+03  0.10673091483E+03  0.00000000000E+00 0. -1.
    9000006    2    1    2  501    0  0.00000000000E+00  0.00000000000E+00  0.89326908517E+03  0.11067309148E+04  0.65339395416E+03 0.  0.
         13    1    3    3    0    0  0.31303137284E+03  0.33907167864E+02  0.59422611952E+03  0.67249016167E+03  0.00000000000E+00 0. -1.
          2    1    3    3  501    0 -0.31303137284E+03 -0.33907167864E+02  0.29904296564E+03  0.43424075317E+03  0.00000000000E+00 0. -1.
<mgrwt>
<rscale>  0 0.65339395E+03</rscale>
<asrwt>0</asrwt>
<pdfrwt beam="1">0</pdfrwt>
<pdfrwt beam="2">  1        2 0.38811324E+00 0.65339395E+03</pdfrwt>
<totfact> 0.44100338E+00</totfact>
</mgrwt>
</event>
<event>
 5    1  0.2368916E-004  0.6502050E+03  0.7818608E-02  0.9806395E-01
         13   -1    0    0    0    0  0.00000000000E+00  0.00000000000E+00  0.10000000000E+04  0.10000000000E+04  0.00000000000E+00 0. -1.
          2   -1    0    0  501    0 -0.00000000000E+00 -0.00000000000E+00 -0.10569162915E+03  0.10569162915E+03  0.00000000000E+00 0. -1.
    9000006    2    1    2  501    0  0.00000000000E+00  0.00000000000E+00  0.89430837085E+03  0.11056916292E+04  0.65020498045E+03 0.  0.
         13    1    3    3    0    0 -0.24654462826E+03  0.16669119974E+03  0.22464209581E+03  0.37287300922E+03  0.00000000000E+00 0. -1.
          4    1    3    3  501    0  0.24654462826E+03 -0.16669119974E+03  0.66966627504E+03  0.73281861993E+03  0.00000000000E+00 0. -1.
<mgrwt>
<rscale>  0 0.65020498E+03</rscale>
<asrwt>0</asrwt>
<pdfrwt beam="1">0</pdfrwt>
<pdfrwt beam="2">  1        2 0.38433401E+00 0.65020498E+03</pdfrwt>
<totfact> 0.45557858E+00</totfact>
</mgrwt>
</event>
<event>
 5    1  0.2368916E-004  0.6503768E+03  0.7818608E-02  0.9806072E-01
         13   -1    0    0    0    0  0.00000000000E+00  0.00000000000E+00  0.10000000000E+04  0.10000000000E+04  0.00000000000E+00 0. -1.
          2   -1    0    0  501    0 -0.00000000000E+00 -0.00000000000E+00 -0.10574750472E+03  0.10574750472E+03  0.00000000000E+00 0. -1.
    9000006    2    1    2  501    0  0.00000000000E+00  0.00000000000E+00  0.89425249528E+03  0.11057475047E+04  0.65037682838E+03 0.  0.
         13    1    3    3    0    0  0.18603739957E+03  0.24071150011E+03  0.64242743942E+03  0.71081991759E+03  0.00000000000E+00 0. -1.
          4    1    3    3  501    0 -0.18603739957E+03 -0.24071150011E+03  0.25182505586E+03  0.39492758714E+03  0.00000000000E+00 0. -1.
<mgrwt>
<rscale>  0 0.65037683E+03</rscale>
<asrwt>0</asrwt>
<pdfrwt beam="1">0</pdfrwt>
<pdfrwt beam="2">  1        2 0.38453719E+00 0.65037683E+03</pdfrwt>
<totfact> 0.45478399E+00</totfact>
</mgrwt>
</event>
<event>
 5    1  0.2368916E-004  0.6641996E+03  0.7818608E-02  0.9780494E-01
         13   -1    0    0    0    0  0.00000000000E+00  0.00000000000E+00  0.10000000000E+04  0.10000000000E+04  0.00000000000E+00 0. -1.
          2   -1    0    0  501    0 -0.00000000000E+00 -0.00000000000E+00 -0.11029027462E+03  0.11029027462E+03  0.00000000000E+00 0. -1.
    9000006    2    1    2  501    0  0.00000000000E+00  0.00000000000E+00  0.88970972538E+03  0.11102902746E+04  0.66419959237E+03 0.  0.
         13    1    3    3    0    0 -0.97712943134E+01  0.12200058182E+03 -0.71215188758E+02  0.14160234203E+03  0.00000000000E+00 0. -1.
          4    1    3    3  501    0  0.97712943134E+01 -0.12200058182E+03  0.96092491413E+03  0.96868793260E+03  0.00000000000E+00 0. -1.
<mgrwt>
<rscale>  0 0.66419959E+03</rscale>
<asrwt>0</asrwt>
<pdfrwt beam="1">0</pdfrwt>
<pdfrwt beam="2">  1        2 0.40105639E+00 0.66419959E+03</pdfrwt>
<totfact> 0.39422238E+00</totfact>
</mgrwt>
</event>
<event>
 5    1  0.2368916E-004  0.6546661E+03  0.7818608E-02  0.9798063E-01
         13   -1    0    0    0    0  0.00000000000E+00  0.00000000000E+00  0.10000000000E+04  0.10000000000E+04  0.00000000000E+00 0. -1.
          2   -1    0    0  501    0 -0.00000000000E+00 -0.00000000000E+00 -0.10714693627E+03  0.10714693627E+03  0.00000000000E+00 0. -1.
    9000006    2    1    2  501    0  0.00000000000E+00  0.00000000000E+00  0.89285306373E+03  0.11071469363E+04  0.65466613252E+03 0.  0.
         13    1    3    3    0    0  0.43981227826E+01 -0.25433720851E+03  0.98029872377E+02  0.27261073895E+03  0.00000000000E+00 0. -1.
          2    1    3    3  501    0 -0.43981227826E+01  0.25433720851E+03  0.79482319135E+03  0.83453619732E+03  0.00000000000E+00 0. -1.
<mgrwt>
<rscale>  0 0.65466613E+03</rscale>
<asrwt>0</asrwt>
<pdfrwt beam="1">0</pdfrwt>
<pdfrwt beam="2">  1        2 0.38962604E+00 0.65466613E+03</pdfrwt>
<totfact> 0.43528829E+00</totfact>
</mgrwt>
</event>
<event>
 5    1  0.2368916E-004  0.7689223E+03  0.7818608E-02  0.9606123E-01
         13   -1    0    0    0    0  0.00000000000E+00  0.00000000000E+00  0.10000000000E+04  0.10000000000E+04  0.00000000000E+00 0. -1.
          2   -1    0    0  501    0 -0.00000000000E+00 -0.00000000000E+00 -0.14781035734E+03  0.14781035734E+03  0.00000000000E+00 0. -1.
    9000006    2    1    2  501    0  0.00000000000E+00  0.00000000000E+00  0.85218964266E+03  0.11478103573E+04  0.76892225183E+03 0.  0.
         13    1    3    3    0    0  0.24214745686E+03 -0.23338410001E+03  0.70419109786E+03  0.78037723654E+03  0.00000000000E+00 0. -1.
          2    1    3    3  501    0 -0.24214745686E+03  0.23338410001E+03  0.14799854480E+03  0.36743312080E+03  0.00000000000E+00 0. -1.
<mgrwt>
<rscale>  0 0.76892225E+03</rscale>
<asrwt>0</asrwt>
<pdfrwt beam="1">0</pdfrwt>
<pdfrwt beam="2">  1        2 0.53749334E+00 0.76892225E+03</pdfrwt>
<totfact> 0.10897173E+00</totfact>
</mgrwt>
</event>
<event>
 5    1  0.2368916E-004  0.6327008E+03  0.7818608E-02  0.9839793E-01
         13   -1    0    0    0    0  0.00000000000E+00  0.00000000000E+00  0.10000000000E+04  0.10000000000E+04  0.00000000000E+00 0. -1.
          2   -1    0    0  501    0 -0.00000000000E+00 -0.00000000000E+00 -0.10007756790E+03  0.10007756790E+03  0.00000000000E+00 0. -1.
    9000006    2    1    2  501    0  0.00000000000E+00  0.00000000000E+00  0.89992243210E+03  0.11000775679E+04  0.63270077572E+03 0.  0.
         13    1    3    3    0    0 -0.45736186567E+02  0.21017797581E+02  0.99299302503E+03  0.99426791879E+03  0.00000000000E+00 0. -1.
          4    1    3    3  501    0  0.45736186567E+02 -0.21017797581E+02 -0.93070592927E+02  0.10580964911E+03  0.00000000000E+00 0. -1.
<mgrwt>
<rscale>  0 0.63270078E+03</rscale>
<asrwt>0</asrwt>
<pdfrwt beam="1">0</pdfrwt>
<pdfrwt beam="2">  1        2 0.36391920E+00 0.63270078E+03</pdfrwt>
<totfact> 0.54218655E+00</totfact>
</mgrwt>
</event>
<event>
 5    1  0.2368916E-004  0.6505243E+03  0.7818608E-02  0.9805796E-01
         13   -1    0    0    0    0  0.00000000000E+00  0.00000000000E+00  0.10000000000E+04  0.10000000000E+04  0.00000000000E+00 0. -1.
          2   -1    0    0  501    0 -0.00000000000E+00 -0.00000000000E+00 -0.10579547724E+03  0.10579547724E+03  0.00000000000E+00 0. -1.
    9000006    2    1    2  501    0  0.00000000000E+00  0.00000000000E+00  0.89420452276E+03  0.11057954772E+04  0.65052433388E+03 0.  0.
         13    1    3    3    0    0 -0.23751370719E+03 -0.21287011005E+03  0.33867041929E+03  0.46521403435E+03  0.00000000000E+00 0. -1.
          2    1    3    3  501    0  0.23751370719E+03  0.21287011005E+03  0.55553410347E+03  0.64058144289E+03  0.00000000000E+00 0. -1.
<mgrwt>
<rscale>  0 0.65052433E+03</rscale>
<asrwt>0</asrwt>
<pdfrwt beam="1">0</pdfrwt>
<pdfrwt beam="2">  1        2 0.38471164E+00 0.65052433E+03</pdfrwt>
<totfact> 0.45410280E+00</totfact>
</mgrwt>
</event>
<event>
 5    1  0.2368916E-004  0.6672944E+03  0.7818608E-02  0.9774858E-01
         13   -1    0    0    0    0  0.00000000000E+00  0.00000000000E+00  0.10000000000E+04  0.10000000000E+04  0.00000000000E+00 0. -1.
          2   -1    0    0  501    0 -0.00000000000E+00 -0.00000000000E+00 -0.11132046315E+03  0.11132046315E+03  0.00000000000E+00 0. -1.
    9000006    2    1    2  501    0  0.00000000000E+00  0.00000000000E+00  0.88867953685E+03  0.11113204632E+04  0.66729442722E+03 0.  0.
         13    1    3    3    0    0  0.27919247923E+03 -0.17945949857E+03  0.38746377288E+03  0.51017872101E+03  0.00000000000E+00 0. -1.
          2    1    3    3  501    0 -0.27919247923E+03  0.17945949857E+03  0.50121576397E+03  0.60114174214E+03  0.00000000000E+00 0. -1.
<mgrwt>
<rscale>  0 0.66729443E+03</rscale>
<asrwt>0</asrwt>
<pdfrwt beam="1">0</pdfrwt>
<pdfrwt beam="2">  1        2 0.40480254E+00 0.66729443E+03</pdfrwt>
<totfact> 0.38154250E+00</totfact>
</mgrwt>
</event>
<event>
 5    1  0.2368916E-004  0.6513136E+03  0.7818608E-02  0.9804317E-01
         13   -1    0    0    0    0  0.00000000000E+00  0.00000000000E+00  0.10000000000E+04  0.10000000000E+04  0.00000000000E+00 0. -1.
          2   -1    0    0  501    0 -0.00000000000E+00 -0.00000000000E+00 -0.10605236722E+03  0.10605236722E+03  0.00000000000E+00 0. -1.
    9000006    2    1    2  501    0  0.00000000000E+00  0.00000000000E+00  0.89394763278E+03  0.11060523672E+04  0.65131364861E+03 0.  0.
         13    1    3    3    0    0 -0.55507900905E+01  0.25403188293E+03  0.79287645100E+03  0.83259598568E+03  0.00000000000E+00 0. -1.
          4    1    3    3  501    0  0.55507900905E+01 -0.25403188293E+03  0.10107118179E+03  0.27345638154E+03  0.00000000000E+00 0. -1.
<mgrwt>
<rscale>  0 0.65131365E+03</rscale>
<asrwt>0</asrwt>
<pdfrwt beam="1">0</pdfrwt>
<pdfrwt beam="2">  1        2 0.38564578E+00 0.65131365E+03</pdfrwt>
<totfact> 0.45047077E+00</totfact>
</mgrwt>
</event>
<event>
 5    1  0.2368916E-004  0.6263343E+03  0.7818608E-02  0.9852228E-01
         13   -1    0    0    0    0  0.00000000000E+00  0.00000000000E+00  0.10000000000E+04  0.10000000000E+04  0.00000000000E+00 0. -1.
          2   -1    0    0  501    0 -0.00000000000E+00 -0.00000000000E+00 -0.98073657212E+02  0.98073657212E+02  0.00000000000E+00 0. -1.
    9000006    2    1    2  501    0  0.00000000000E+00  0.00000000000E+00  0.90192634279E+03  0.10980736572E+04  0.62633427884E+03 0.  0.
         13    1    3    3    0    0 -0.34974534861E+02  0.36275492098E+02  0.99284610417E+03  0.99412399427E+03  0.00000000000E+00 0. -1.
          2    1    3    3  501    0  0.34974534861E+02 -0.36275492098E+02 -0.90919761383E+02  0.10394966294E+03  0.00000000000E+00 0. -1.
<mgrwt>
<rscale>  0 0.62633428E+03</rscale>
<asrwt>0</asrwt>
<pdfrwt beam="1">0</pdfrwt>
<pdfrwt beam="2">  1        2 0.35663223E+00 0.62633428E+03</pdfrwt>
<totfact> 0.57659427E+00</totfact>
</mgrwt>
</event>
<event>
 5    1  0.2368916E-004  0.6685530E+03  0.7818608E-02  0.9772575E-01
         13   -1    0    0    0    0  0.00000000000E+00  0.00000000000E+00  0.10000000000E+04  0.10000000000E+04  0.00000000000E+00 0. -1.
          2   -1    0    0  501    0 -0.00000000000E+00 -0.00000000000E+00 -0.11174078066E+03  0.11174078066E+03  0.00000000000E+00 0. -1.
    9000006    2    1    2  501    0  0.00000000000E+00  0.00000000000E+00  0.88825921934E+03  0.11117407807E+04  0.66855300660E+03 0.  0.
         13    1    3    3    0    0  0.18063383777E+03  0.27547976068E+03  0.34972254441E+03  0.48044098489E+03  0.00000000000E+00 0. -1.
          4    1    3    3  501    0 -0.18063383777E+03 -0.27547976068E+03  0.53853667493E+03  0.63129979577E+03  0.00000000000E+00 0. -1.
<mgrwt>
<rscale>  0 0.66855301E+03</rscale>
<asrwt>0</asrwt>
<pdfrwt beam="1">0</pdfrwt>
<pdfrwt beam="2">  1        2 0.40633097E+00 0.66855301E+03</pdfrwt>
<totfact> 0.37647491E+00</totfact>
</mgrwt>
</event>
<event>
 5    1  0.2368916E-004  0.7093156E+03  0.7818608E-02  0.9701433E-01
         13   -1    0    0    0    0  0.00000000000E+00  0.00000000000E+00  0.10000000000E+04  0.10000000000E+04  0.00000000000E+00 0. -1.
          2   -1    0    0  501    0 -0.00000000000E+00 -0.00000000000E+00 -0.12578215804E+03  0.12578215804E+03  0.00000000000E+00 0. -1.
    9000006    2    1    2  501    0  0.00000000000E+00  0.00000000000E+00  0.87421784196E+03  0.11257821580E+04  0.70931560828E+03 0.  0.
         13    1    3    3    0    0  0.10807686145E+03 -0.11617260509E+02 -0.98692203400E+02  0.14681866276E+03  0.00000000000E+00 0. -1.
          4    1    3    3  501    0 -0.10807686145E+03  0.11617260509E+02  0.97291004536E+03  0.97896349528E+03  0.00000000000E+00 0. -1.
<mgrwt>
<rscale>  0 0.70931561E+03</rscale>
<asrwt>0</asrwt>
<pdfrwt beam="1">0</pdfrwt>
<pdfrwt beam="2">  1        2 0.45739063E+00 0.70931561E+03</pdfrwt>
<totfact> 0.23795753E+00</totfact>
</mgrwt>
</event>
<event>
 5    1  0.2368916E-004  0.6763405E+03  0.7818608E-02  0.9758571E-01
         13   -1    0    0    0    0  0.00000000000E+00  0.00000000000E+00  0.10000000000E+04  0.10000000000E+04  0.00000000000E+00 0. -1.
          2   -1    0    0  501    0 -0.00000000000E+00 -0.00000000000E+00 -0.11435911030E+03  0.11435911030E+03  0.00000000000E+00 0. -1.
    9000006    2    1    2  501    0  0.00000000000E+00  0.00000000000E+00  0.88564088970E+03  0.11143591103E+04  0.67634047727E+03 0.  0.
         13    1    3    3    0    0  0.30386630181E+03 -0.30259000751E+01  0.68728806852E+03  0.75147107368E+03  0.00000000000E+00 0. -1.
          4    1    3    3  501    0 -0.30386630181E+03  0.30259000751E+01  0.19835282119E+03  0.36288803662E+03  0.00000000000E+00 0. -1.
<mgrwt>
<rscale>  0 0.67634048E+03</rscale>
<asrwt>0</asrwt>
<pdfrwt beam="1">0</pdfrwt>
<pdfrwt beam="2">  1        2 0.41585219E+00 0.67634048E+03</pdfrwt>
<totfact> 0.34623848E+00</totfact>
</mgrwt>
</event>
<event>
 5    1  0.2368916E-004  0.6621716E+03  0.7818608E-02  0.9784204E-01
         13   -1    0    0    0    0  0.00000000000E+00  0.00000000000E+00  0.10000000000E+04  0.10000000000E+04  0.00000000000E+00 0. -1.
          2   -1    0    0  501    0 -0.00000000000E+00 -0.00000000000E+00 -0.10961781969E+03  0.10961781969E+03  0.00000000000E+00 0. -1.
    9000006    2    1    2  501    0  0.00000000000E+00  0.00000000000E+00  0.89038218031E+03  0.11096178197E+04  0.66217163844E+03 0.  0.
         13    1    3    3    0    0 -0.26000144205E+03 -0.19969588164E+03  0.36769672340E+03  0.49262569504E+03  0.00000000000E+00 0. -1.
          4    1    3    3  501    0  0.26000144205E+03  0.19969588164E+03  0.52268545691E+03  0.61699212465E+03  0.00000000000E+00 0. -1.
<mgrwt>
<rscale>  0 0.66217164E+03</rscale>
<asrwt>0</asrwt>
<pdfrwt beam="1">0</pdfrwt>
<pdfrwt beam="2">  1        2 0.39861109E+00 0.66217164E+03</pdfrwt>
<totfact> 0.40270175E+00</totfact>
</mgrwt>
</event>
<event>
 5    1  0.2368916E-004  0.6025874E+03  0.7818608E-02  0.9900053E-01
         13   -1    0    0    0    0  0.00000000000E+00  0.00000000000E+00  0.10000000000E+04  0.10000000000E+04  0.00000000000E+00 0. -1.
          2   -1    0    0  501    0 -0.00000000000E+00 -0.00000000000E+00 -0.90777883811E+02  0.90777883811E+02  0.00000000000E+00 0. -1.
    9000006    2    1    2  501    0  0.00000000000E+00  0.00000000000E+00  0.90922211619E+03  0.10907778838E+04  0.60258736731E+03 0.  0.
         13    1    3    3    0    0  0.18697459582E+03  0.29857132392E+02  0.87884849230E+03  0.89901369303E+03  0.00000000000E+00 0. -1.
          4    1    3    3  501    0 -0.18697459582E+03 -0.29857132392E+02  0.30373623892E+02  0.19176419078E+03  0.00000000000E+00 0. -1.
<mgrwt>
<rscale>  0 0.60258737E+03</rscale>
<asrwt>0</asrwt>
<pdfrwt beam="1">0</pdfrwt>
<pdfrwt beam="2">  1        2 0.33010209E+00 0.60258737E+03</pdfrwt>
<totfact> 0.71982332E+00</totfact>
</mgrwt>
</event>
<event>
 5    1  0.2368916E-004  0.6450851E+03  0.7818608E-02  0.9816046E-01
         13   -1    0    0    0    0  0.00000000000E+00  0.00000000000E+00  0.10000000000E+04  0.10000000000E+04  0.00000000000E+00 0. -1.
          2   -1    0    0  501    0 -0.00000000000E+00 -0.00000000000E+00 -0.10403371073E+03  0.10403371073E+03  0.00000000000E+00 0. -1.
    9000006    2    1    2  501    0  0.00000000000E+00  0.00000000000E+00  0.89596628927E+03  0.11040337107E+04  0.64508514394E+03 0.  0.
         13    1    3    3    0    0  0.22699013618E+03  0.89431713148E+02  0.86906217311E+02  0.25898888750E+03  0.00000000000E+00 0. -1.
          2    1    3    3  501    0 -0.22699013618E+03 -0.89431713148E+02  0.80906007196E+03  0.84504482323E+03  0.00000000000E+00 0. -1.
<mgrwt>
<rscale>  0 0.64508514E+03</rscale>
<asrwt>0</asrwt>
<pdfrwt beam="1">0</pdfrwt>
<pdfrwt beam="2">  1        2 0.37830520E+00 0.64508514E+03</pdfrwt>
<totfact> 0.47973675E+00</totfact>
</mgrwt>
</event>
<event>
 5    1  0.2368916E-004  0.6480901E+03  0.7818608E-02  0.9810369E-01
         13   -1    0    0    0    0  0.00000000000E+00  0.00000000000E+00  0.10000000000E+04  0.10000000000E+04  0.00000000000E+00 0. -1.
          2   -1    0    0  501    0 -0.00000000000E+00 -0.00000000000E+00 -0.10500521060E+03  0.10500521060E+03  0.00000000000E+00 0. -1.
    9000006    2    1    2  501    0  0.00000000000E+00  0.00000000000E+00  0.89499478940E+03  0.11050052106E+04  0.64809014989E+03 0.  0.
         13    1    3    3    0    0 -0.19973864710E+02  0.29409319387E+03  0.67698194475E+03  0.73837274833E+03  0.00000000000E+00 0. -1.
          2    1    3    3  501    0  0.19973864710E+02 -0.29409319387E+03  0.21801284465E+03  0.36663246227E+03  0.00000000000E+00 0. -1.
<mgrwt>
<rscale>  0 0.64809015E+03</rscale>
<asrwt>0</asrwt>
<pdfrwt beam="1">0</pdfrwt>
<pdfrwt beam="2">  1        2 0.38183793E+00 0.64809015E+03</pdfrwt>
<totfact> 0.46544318E+00</totfact>
</mgrwt>
</event>
<event>
 5    1  0.2368916E-004  0.5907145E+03  0.7818608E-02  0.9924860E-01
         13   -1    0    0    0    0  0.00000000000E+00  0.00000000000E+00  0.10000000000E+04  0.10000000000E+04  0.00000000000E+00 0. -1.
          2   -1    0    0  501    0 -0.00000000000E+00 -0.00000000000E+00 -0.87235918575E+02  0.87235918575E+02  0.00000000000E+00 0. -1.
    9000006    2    1    2  501    0  0.00000000000E+00  0.00000000000E+00  0.91276408142E+03  0.10872359186E+04  0.59071454553E+03 0.  0.
         13    1    3    3    0    0  0.38527156344E+02 -0.12369960979E+03  0.94490679396E+03  0.95374775728E+03  0.00000000000E+00 0. -1.
          4    1    3    3  501    0 -0.38527156344E+02  0.12369960979E+03 -0.32142712538E+02  0.13348816130E+03  0.00000000000E+00 0. -1.
<mgrwt>
<rscale>  0 0.59071455E+03</rscale>
<asrwt>0</asrwt>
<pdfrwt beam="1">0</pdfrwt>
<pdfrwt beam="2">  1        2 0.31722219E+00 0.59071455E+03</pdfrwt>
<totfact> 0.80093367E+00</totfact>
</mgrwt>
</event>
<event>
 5    1  0.2368916E-004  0.6495114E+03  0.7818608E-02  0.9807696E-01
         13   -1    0    0    0    0  0.00000000000E+00  0.00000000000E+00  0.10000000000E+04  0.10000000000E+04  0.00000000000E+00 0. -1.
          2   -1    0    0  501    0 -0.00000000000E+00 -0.00000000000E+00 -0.10546625462E+03  0.10546625462E+03  0.00000000000E+00 0. -1.
    9000006    2    1    2  501    0  0.00000000000E+00  0.00000000000E+00  0.89453374538E+03  0.11054662546E+04  0.64951136901E+03 0.  0.
         13    1    3    3    0    0 -0.19841315125E+03  0.18381394677E+03  0.14132894500E+03  0.30517079859E+03  0.00000000000E+00 0. -1.
          2    1    3    3  501    0  0.19841315125E+03 -0.18381394677E+03  0.75320480038E+03  0.80029545602E+03  0.00000000000E+00 0. -1.
<mgrwt>
<rscale>  0 0.64951137E+03</rscale>
<asrwt>0</asrwt>
<pdfrwt beam="1">0</pdfrwt>
<pdfrwt beam="2">  1        2 0.38351446E+00 0.64951137E+03</pdfrwt>
<totfact> 0.45879633E+00</totfact>
</mgrwt>
</event>
<event>
 5    1  0.2368916E-004  0.6509742E+03  0.7818608E-02  0.9804953E-01
         13   -1    0    0    0    0  0.00000000000E+00  0.00000000000E+00  0.10000000000E+04  0.10000000000E+04  0.00000000000E+00 0. -1.
          2   -1    0    0  501    0 -0.00000000000E+00 -0.00000000000E+00 -0.10594186164E+03  0.10594186164E+03  0.00000000000E+00 0. -1.
    9000006    2    1    2  501    0  0.00000000000E+00  0.00000000000E+00  0.89405813836E+03  0.11059418616E+04  0.65097422880E+03 0.  0.
         13    1    3    3    0    0  0.25350243556E+03 -0.43096922406E+02  0.78604863027E+03  0.82703886167E+03  0.00000000000E+00 0. -1.
          2    1    3    3  501    0 -0.25350243556E+03  0.43096922406E+02  0.10800950809E+03  0.27890299997E+03  0.00000000000E+00 0. -1.
<mgrwt>
<rscale>  0 0.65097423E+03</rscale>
<asrwt>0</asrwt>
<pdfrwt beam="1">0</pdfrwt>
<pdfrwt beam="2">  1        2 0.38524395E+00 0.65097423E+03</pdfrwt>
<totfact> 0.45202991E+00</totfact>
</mgrwt>
</event>
<event>
 5    1  0.2368916E-004  0.6417875E+03  0.7818608E-02  0.9822313E-01
         13   -1    0    0    0    0  0.00000000000E+00  0.00000000000E+00  0.10000000000E+04  0.10000000000E+04  0.00000000000E+00 0. -1.
          2   -1    0    0  501    0 -0.00000000000E+00 -0.00000000000E+00 -0.10297279504E+03  0.10297279504E+03  0.00000000000E+00 0. -1.
    9000006    2    1    2  501    0  0.00000000000E+00  0.00000000000E+00  0.89702720496E+03  0.11029727950E+04  0.64178748832E+03 0.  0.
         13    1    3    3    0    0  0.14952036889E+03  0.12414192450E+03  0.88736227903E+03  0.90839384211E+03  0.00000000000E+00 0. -1.
          2    1    3    3  501    0 -0.14952036889E+03 -0.12414192450E+03  0.96649259249E+01  0.19457895293E+03  0.00000000000E+00 0. -1.
<mgrwt>
<rscale>  0 0.64178749E+03</rscale>
<asrwt>0</asrwt>
<pdfrwt beam="1">0</pdfrwt>
<pdfrwt beam="2">  1        2 0.37444732E+00 0.64178749E+03</pdfrwt>
<totfact> 0.49580234E+00</totfact>
</mgrwt>
</event>
<event>
 5    1  0.2368916E-004  0.6380502E+03  0.7818608E-02  0.9829464E-01
         13   -1    0    0    0    0  0.00000000000E+00  0.00000000000E+00  0.10000000000E+04  0.10000000000E+04  0.00000000000E+00 0. -1.
          2   -1    0    0  501    0 -0.00000000000E+00 -0.00000000000E+00 -0.10177700942E+03  0.10177700942E+03  0.00000000000E+00 0. -1.
    9000006    2    1    2  501    0  0.00000000000E+00  0.00000000000E+00  0.89822299058E+03  0.11017770094E+04  0.63805018431E+03 0.  0.
         13    1    3    3    0    0 -0.18090276135E+03  0.26275989473E+03  0.44409545744E+03  0.54679918311E+03  0.00000000000E+00 0. -1.
          2    1    3    3  501    0  0.18090276135E+03 -0.26275989473E+03  0.45412753314E+03  0.55497782631E+03  0.00000000000E+00 0. -1.
<mgrwt>
<rscale>  0 0.63805018E+03</rscale>
<asrwt>0</asrwt>
<pdfrwt beam="1">0</pdfrwt>
<pdfrwt beam="2">  1        2 0.37009900E+00 0.63805018E+03</pdfrwt>
<totfact> 0.51449992E+00</totfact>
</mgrwt>
</event>
<event>
 5    1  0.2368916E-004  0.6601066E+03  0.7818608E-02  0.9787998E-01
         13   -1    0    0    0    0  0.00000000000E+00  0.00000000000E+00  0.10000000000E+04  0.10000000000E+04  0.00000000000E+00 0. -1.
          2   -1    0    0  501    0 -0.00000000000E+00 -0.00000000000E+00 -0.10893518165E+03  0.10893518165E+03  0.00000000000E+00 0. -1.
    9000006    2    1    2  501    0  0.00000000000E+00  0.00000000000E+00  0.89106481835E+03  0.11089351817E+04  0.66010660247E+03 0.  0.
         13    1    3    3    0    0  0.28695714512E+03  0.94954455493E+02  0.22282600378E+03  0.37551588477E+03  0.00000000000E+00 0. -1.
          2    1    3    3  501    0 -0.28695714512E+03 -0.94954455493E+02  0.66823881456E+03  0.73341929688E+03  0.00000000000E+00 0. -1.
<mgrwt>
<rscale>  0 0.66010660E+03</rscale>
<asrwt>0</asrwt>
<pdfrwt beam="1">0</pdfrwt>
<pdfrwt beam="2">  1        2 0.39612877E+00 0.66010660E+03</pdfrwt>
<totfact> 0.41147684E+00</totfact>
</mgrwt>
</event>
<event>
 5    1  0.2368916E-004  0.6441236E+03  0.7818608E-02  0.9817869E-01
         13   -1    0    0    0    0  0.00000000000E+00  0.00000000000E+00  0.10000000000E+04  0.10000000000E+04  0.00000000000E+00 0. -1.
          2   -1    0    0  501    0 -0.00000000000E+00 -0.00000000000E+00 -0.10372380542E+03  0.10372380542E+03  0.00000000000E+00 0. -1.
    9000006    2    1    2  501    0  0.00000000000E+00  0.00000000000E+00  0.89627619458E+03  0.11037238054E+04  0.64412360746E+03 0.  0.
         13    1    3    3    0    0 -0.41008952933E+02  0.31617990917E+03  0.37013330160E+03  0.48851830072E+03  0.00000000000E+00 0. -1.
          2    1    3    3  501    0  0.41008952933E+02 -0.31617990917E+03  0.52614289298E+03  0.61520550471E+03  0.00000000000E+00 0. -1.
<mgrwt>
<rscale>  0 0.64412361E+03</rscale>
<asrwt>0</asrwt>
<pdfrwt beam="1">0</pdfrwt>
<pdfrwt beam="2">  1        2 0.37717827E+00 0.64412361E+03</pdfrwt>
<totfact> 0.48437975E+00</totfact>
</mgrwt>
</event>
<event>
 5    1  0.2368916E-004  0.6541754E+03  0.7818608E-02  0.9798976E-01
         13   -1    0    0    0    0  0.00000000000E+00  0.00000000000E+00  0.10000000000E+04  0.10000000000E+04  0.00000000000E+00 0. -1.
          2   -1    0    0  501    0 -0.00000000000E+00 -0.00000000000E+00 -0.10698635797E+03  0.10698635797E+03  0.00000000000E+00 0. -1.
    9000006    2    1    2  501    0  0.00000000000E+00  0.00000000000E+00  0.89301364203E+03  0.11069863580E+04  0.65417538312E+03 0.  0.
         13    1    3    3    0    0  0.22304918518E+03  0.23554680613E+03  0.51735913316E+03  0.61065023504E+03  0.00000000000E+00 0. -1.
          2    1    3    3  501    0 -0.22304918518E+03 -0.23554680613E+03  0.37565450887E+03  0.49633612293E+03  0.00000000000E+00 0. -1.
<mgrwt>
<rscale>  0 0.65417538E+03</rscale>
<asrwt>0</asrwt>
<pdfrwt beam="1">0</pdfrwt>
<pdfrwt beam="2">  1        2 0.38904212E+00 0.65417538E+03</pdfrwt>
<totfact> 0.43748625E+00</totfact>
</mgrwt>
</event>
<event>
 5    1  0.2368916E-004  0.6464287E+03  0.7818608E-02  0.9813504E-01
         13   -1    0    0    0    0  0.00000000000E+00  0.00000000000E+00  0.10000000000E+04  0.10000000000E+04  0.00000000000E+00 0. -1.
          2   -1    0    0  501    0 -0.00000000000E+00 -0.00000000000E+00 -0.10446750203E+03  0.10446750203E+03  0.00000000000E+00 0. -1.
    9000006    2    1    2  501    0  0.00000000000E+00  0.00000000000E+00  0.89553249797E+03  0.11044675020E+04  0.64642865665E+03 0.  0.
         13    1    3    3    0    0  0.30259131174E+03 -0.30421477111E+02  0.63477865845E+03  0.70386853420E+03  0.00000000000E+00 0. -1.
          4    1    3    3  501    0 -0.30259131174E+03  0.30421477111E+02  0.26075383951E+03  0.40059896783E+03  0.00000000000E+00 0. -1.
<mgrwt>
<rscale>  0 0.64642866E+03</rscale>
<asrwt>0</asrwt>
<pdfrwt beam="1">0</pdfrwt>
<pdfrwt beam="2">  1        2 0.37988263E+00 0.64642866E+03</pdfrwt>
<totfact> 0.47330579E+00</totfact>
</mgrwt>
</event>
<event>
 5    1  0.2368916E-004  0.6479103E+03  0.7818608E-02  0.9810708E-01
         13   -1    0    0    0    0  0.00000000000E+00  0.00000000000E+00  0.10000000000E+04  0.10000000000E+04  0.00000000000E+00 0. -1.
          2   -1    0    0  501    0 -0.00000000000E+00 -0.00000000000E+00 -0.10494695477E+03  0.10494695477E+03  0.00000000000E+00 0. -1.
    9000006    2    1    2  501    0  0.00000000000E+00  0.00000000000E+00  0.89505304523E+03  0.11049469548E+04  0.64791034801E+03 0.  0.
         13    1    3    3    0    0 -0.74654737218E+02  0.14463938850E+03 -0.30147353877E+02  0.16553774627E+03  0.00000000000E+00 0. -1.
          4    1    3    3  501    0  0.74654737218E+02 -0.14463938850E+03  0.92520039911E+03  0.93940920850E+03  0.00000000000E+00 0. -1.
<mgrwt>
<rscale>  0 0.64791035E+03</rscale>
<asrwt>0</asrwt>
<pdfrwt beam="1">0</pdfrwt>
<pdfrwt beam="2">  1        2 0.38162609E+00 0.64791035E+03</pdfrwt>
<totfact> 0.46628925E+00</totfact>
</mgrwt>
</event>
<event>
 5    1  0.2368916E-004  0.6471834E+03  0.7818608E-02  0.9812079E-01
         13   -1    0    0    0    0  0.00000000000E+00  0.00000000000E+00  0.10000000000E+04  0.10000000000E+04  0.00000000000E+00 0. -1.
          2   -1    0    0  501    0 -0.00000000000E+00 -0.00000000000E+00 -0.10471160391E+03  0.10471160391E+03  0.00000000000E+00 0. -1.
    9000006    2    1    2  501    0  0.00000000000E+00  0.00000000000E+00  0.89528839609E+03  0.11047116039E+04  0.64718344821E+03 0.  0.
         13    1    3    3    0    0 -0.21689718201E+03 -0.23837740114E+03  0.49721732192E+03  0.59253121281E+03  0.00000000000E+00 0. -1.
          4    1    3    3  501    0  0.21689718201E+03  0.23837740114E+03  0.39807107417E+03  0.51218039110E+03  0.00000000000E+00 0. -1.
<mgrwt>
<rscale>  0 0.64718345E+03</rscale>
<asrwt>0</asrwt>
<pdfrwt beam="1">0</pdfrwt>
<pdfrwt beam="2">  1        2 0.38077027E+00 0.64718345E+03</pdfrwt>
<totfact> 0.46972157E+00</totfact>
</mgrwt>
</event>
<event>
 5    1  0.2368916E-004  0.6576159E+03  0.7818608E-02  0.9792593E-01
         13   -1    0    0    0    0  0.00000000000E+00  0.00000000000E+00  0.10000000000E+04  0.10000000000E+04  0.00000000000E+00 0. -1.
          2   -1    0    0  501    0 -0.00000000000E+00 -0.00000000000E+00 -0.10811465944E+03  0.10811465944E+03  0.00000000000E+00 0. -1.
    9000006    2    1    2  501    0  0.00000000000E+00  0.00000000000E+00  0.89188534056E+03  0.11081146594E+04  0.65761587401E+03 0.  0.
         13    1    3    3    0    0  0.30398622770E+03 -0.49564751850E+01  0.65696071368E+03  0.72389886904E+03  0.00000000000E+00 0. -1.
          2    1    3    3  501    0 -0.30398622770E+03  0.49564751850E+01  0.23492462688E+03  0.38421579040E+03  0.00000000000E+00 0. -1.
<mgrwt>
<rscale>  0 0.65761587E+03</rscale>
<asrwt>0</asrwt>
<pdfrwt beam="1">0</pdfrwt>
<pdfrwt beam="2">  1        2 0.39314505E+00 0.65761587E+03</pdfrwt>
<totfact> 0.42225223E+00</totfact>
</mgrwt>
</event>
<event>
 5    1  0.2368916E-004  0.6505328E+03  0.7818608E-02  0.9805780E-01
         13   -1    0    0    0    0  0.00000000000E+00  0.00000000000E+00  0.10000000000E+04  0.10000000000E+04  0.00000000000E+00 0. -1.
          2   -1    0    0  501    0 -0.00000000000E+00 -0.00000000000E+00 -0.10579823922E+03  0.10579823922E+03  0.00000000000E+00 0. -1.
    9000006    2    1    2  501    0  0.00000000000E+00  0.00000000000E+00  0.89420176078E+03  0.11057982392E+04  0.65053282537E+03 0.  0.
         13    1    3    3    0    0  0.79412229647E+02  0.11664397752E+03  0.94526009608E+03  0.95573467498E+03  0.00000000000E+00 0. -1.
          2    1    3    3  501    0 -0.79412229647E+02 -0.11664397752E+03 -0.51058335304E+02  0.15006356425E+03  0.00000000000E+00 0. -1.
<mgrwt>
<rscale>  0 0.65053283E+03</rscale>
<asrwt>0</asrwt>
<pdfrwt beam="1">0</pdfrwt>
<pdfrwt beam="2">  1        2 0.38472168E+00 0.65053283E+03</pdfrwt>
<totfact> 0.45406361E+00</totfact>
</mgrwt>
</event>
<event>
 5    1  0.2368916E-004  0.6067029E+03  0.7818608E-02  0.9891596E-01
         13   -1    0    0    0    0  0.00000000000E+00  0.00000000000E+00  0.10000000000E+04  0.10000000000E+04  0.00000000000E+00 0. -1.
          2   -1    0    0  501    0 -0.00000000000E+00 -0.00000000000E+00 -0.92022109224E+02  0.92022109224E+02  0.00000000000E+00 0. -1.
    9000006    2    1    2  501    0  0.00000000000E+00  0.00000000000E+00  0.90797789078E+03  0.10920221092E+04  0.60670292310E+03 0.  0.
         13    1    3    3    0    0  0.93058336666E+02 -0.17024672876E+03  0.87371717856E+03  0.89500028536E+03  0.00000000000E+00 0. -1.
          2    1    3    3  501    0 -0.93058336666E+02  0.17024672876E+03  0.34260712214E+02  0.19702182386E+03  0.00000000000E+00 0. -1.
<mgrwt>
<rscale>  0 0.60670292E+03</rscale>
<asrwt>0</asrwt>
<pdfrwt beam="1">0</pdfrwt>
<pdfrwt beam="2">  1        2 0.33462656E+00 0.60670292E+03</pdfrwt>
<totfact> 0.69324045E+00</totfact>
</mgrwt>
</event>
<event>
 5    1  0.2368916E-004  0.6522047E+03  0.7818608E-02  0.9802651E-01
         13   -1    0    0    0    0  0.00000000000E+00  0.00000000000E+00  0.10000000000E+04  0.10000000000E+04  0.00000000000E+00 0. -1.
          2   -1    0    0  501    0 -0.00000000000E+00 -0.00000000000E+00 -0.10634272838E+03  0.10634272838E+03  0.00000000000E+00 0. -1.
    9000006    2    1    2  501    0  0.00000000000E+00  0.00000000000E+00  0.89365727162E+03  0.11063427284E+04  0.65220465616E+03 0.  0.
         13    1    3    3    0    0 -0.33021459419E+02 -0.12300804061E+03  0.95606521898E+03  0.96451132590E+03  0.00000000000E+00 0. -1.
          4    1    3    3  501    0  0.33021459419E+02  0.12300804061E+03 -0.62407947359E+02  0.14183140248E+03  0.00000000000E+00 0. -1.
<mgrwt>
<rscale>  0 0.65220466E+03</rscale>
<asrwt>0</asrwt>
<pdfrwt beam="1">0</pdfrwt>
<pdfrwt beam="2">  1        2 0.38670165E+00 0.65220466E+03</pdfrwt>
<totfact> 0.44639723E+00</totfact>
</mgrwt>
</event>
<event>
 5    1  0.2368916E-004  0.6524098E+03  0.7818608E-02  0.9802268E-01
         13   -1    0    0    0    0  0.00000000000E+00  0.00000000000E+00  0.10000000000E+04  0.10000000000E+04  0.00000000000E+00 0. -1.
          2   -1    0    0  501    0 -0.00000000000E+00 -0.00000000000E+00 -0.10640963894E+03  0.10640963894E+03  0.00000000000E+00 0. -1.
    9000006    2    1    2  501    0  0.00000000000E+00  0.00000000000E+00  0.89359036106E+03  0.11064096389E+04  0.65240980661E+03 0.  0.
         13    1    3    3    0    0  0.30483012093E+03 -0.38662933504E+02  0.63251868965E+03  0.70320417932E+03  0.00000000000E+00 0. -1.
          4    1    3    3  501    0 -0.30483012093E+03  0.38662933504E+02  0.26107167141E+03  0.40320545962E+03  0.00000000000E+00 0. -1.
<mgrwt>
<rscale>  0 0.65240981E+03</rscale>
<asrwt>0</asrwt>
<pdfrwt beam="1">0</pdfrwt>
<pdfrwt beam="2">  1        2 0.38694496E+00 0.65240981E+03</pdfrwt>
<totfact> 0.44546327E+00</totfact>
</mgrwt>
</event>
<event>
 5    1  0.2368916E-004  0.6216922E+03  0.7818608E-02  0.9861396E-01
         13   -1    0    0    0    0  0.00000000000E+00  0.00000000000E+00  0.10000000000E+04  0.10000000000E+04  0.00000000000E+00 0. -1.
          2   -1    0    0  501    0 -0.00000000000E+00 -0.00000000000E+00 -0.96625283872E+02  0.96625283872E+02  0.00000000000E+00 0. -1.
    9000006    2    1    2  501    0  0.00000000000E+00  0.00000000000E+00  0.90337471613E+03  0.10966252839E+04  0.62169215492E+03 0.  0.
         13    1    3    3    0    0  0.27568581564E+03 -0.71412491735E+02  0.67145760249E+03  0.72935432052E+03  0.00000000000E+00 0. -1.
          4    1    3    3  501    0 -0.27568581564E+03  0.71412491735E+02  0.23191711364E+03  0.36727096335E+03  0.00000000000E+00 0. -1.
<mgrwt>
<rscale>  0 0.62169215E+03</rscale>
<asrwt>0</asrwt>
<pdfrwt beam="1">0</pdfrwt>
<pdfrwt beam="2">  1        2 0.35136541E+00 0.62169215E+03</pdfrwt>
<totfact> 0.60271223E+00</totfact>
</mgrwt>
</event>
<event>
 5    1  0.2368916E-004  0.6581516E+03  0.7818608E-02  0.9791602E-01
         13   -1    0    0    0    0  0.00000000000E+00  0.00000000000E+00  0.10000000000E+04  0.10000000000E+04  0.00000000000E+00 0. -1.
          2   -1    0    0  501    0 -0.00000000000E+00 -0.00000000000E+00 -0.10829088152E+03  0.10829088152E+03  0.00000000000E+00 0. -1.
    9000006    2    1    2  501    0  0.00000000000E+00  0.00000000000E+00  0.89170911848E+03  0.11082908815E+04  0.65815159809E+03 0.  0.
         13    1    3    3    0    0 -0.29068074205E+03 -0.10498479886E+03  0.25553319971E+03  0.40101660557E+03  0.00000000000E+00 0. -1.
          4    1    3    3  501    0  0.29068074205E+03  0.10498479886E+03  0.63617591877E+03  0.70727427595E+03  0.00000000000E+00 0. -1.
<mgrwt>
<rscale>  0 0.65815160E+03</rscale>
<asrwt>0</asrwt>
<pdfrwt beam="1">0</pdfrwt>
<pdfrwt beam="2">  1        2 0.39378585E+00 0.65815160E+03</pdfrwt>
<totfact> 0.41991666E+00</totfact>
</mgrwt>
</event>
<event>
 5    1  0.2368916E-004  0.6618465E+03  0.7818608E-02  0.9784801E-01
         13   -1    0    0    0    0  0.00000000000E+00  0.00000000000E+00  0.10000000000E+04  0.10000000000E+04  0.00000000000E+00 0. -1.
          2   -1    0    0  501    0 -0.00000000000E+00 -0.00000000000E+00 -0.10951019061E+03  0.10951019061E+03  0.00000000000E+00 0. -1.
    9000006    2    1    2  501    0  0.00000000000E+00  0.00000000000E+00  0.89048980939E+03  0.11095101906E+04  0.66184647950E+03 0.  0.
         13    1    3    3    0    0 -0.64147094925E+02  0.35720337619E+02  0.98617339651E+03  0.98890280629E+03  0.00000000000E+00 0. -1.
          2    1    3    3  501    0  0.64147094925E+02 -0.35720337619E+02 -0.95683587120E+02  0.12060738431E+03  0.00000000000E+00 0. -1.
<mgrwt>
<rscale>  0 0.66184648E+03</rscale>
<asrwt>0</asrwt>
<pdfrwt beam="1">0</pdfrwt>
<pdfrwt beam="2">  1        2 0.39821971E+00 0.66184648E+03</pdfrwt>
<totfact> 0.40407402E+00</totfact>
</mgrwt>
</event>
<event>
 5    1  0.2368916E-004  0.6644922E+03  0.7818608E-02  0.9779959E-01
         13   -1    0    0    0    0  0.00000000000E+00  0.00000000000E+00  0.10000000000E+04  0.10000000000E+04  0.00000000000E+00 0. -1.
          2   -1    0    0  501    0 -0.00000000000E+00 -0.00000000000E+00 -0.11038746400E+03  0.11038746400E+03  0.00000000000E+00 0. -1.
    9000006    2    1    2  501    0  0.00000000000E+00  0.00000000000E+00  0.88961253600E+03  0.11103874640E+04  0.66449217904E+03 0.  0.
         13    1    3    3    0    0 -0.11275010599E+02  0.82743043775E+01  0.99950792205E+03  0.99960576040E+03  0.00000000000E+00 0. -1.
          4    1    3    3  501    0  0.11275010599E+02 -0.82743043775E+01 -0.10989538606E+03  0.11078170360E+03  0.00000000000E+00 0. -1.
<mgrwt>
<rscale>  0 0.66449218E+03</rscale>
<asrwt>0</asrwt>
<pdfrwt beam="1">0</pdfrwt>
<pdfrwt beam="2">  1        2 0.40140981E+00 0.66449218E+03</pdfrwt>
<totfact> 0.39301021E+00</totfact>
</mgrwt>
</event>
<event>
 5    1  0.2368916E-004  0.6424847E+03  0.7818608E-02  0.9820984E-01
         13   -1    0    0    0    0  0.00000000000E+00  0.00000000000E+00  0.10000000000E+04  0.10000000000E+04  0.00000000000E+00 0. -1.
          2   -1    0    0  501    0 -0.00000000000E+00 -0.00000000000E+00 -0.10319664596E+03  0.10319664596E+03  0.00000000000E+00 0. -1.
    9000006    2    1    2  501    0  0.00000000000E+00  0.00000000000E+00  0.89680335404E+03  0.11031966460E+04  0.64248469541E+03 0.  0.
         13    1    3    3    0    0 -0.19880955813E+03  0.11295894651E+03  0.60966661746E+02  0.23664720122E+03  0.00000000000E+00 0. -1.
          2    1    3    3  501    0  0.19880955813E+03 -0.11295894651E+03  0.83583669229E+03  0.86654944474E+03  0.00000000000E+00 0. -1.
<mgrwt>
<rscale>  0 0.64248470E+03</rscale>
<asrwt>0</asrwt>
<pdfrwt beam="1">0</pdfrwt>
<pdfrwt beam="2">  1        2 0.37526132E+00 0.64248470E+03</pdfrwt>
<totfact> 0.49237201E+00</totfact>
</mgrwt>
</event>
<event>
 5    1  0.2368916E-004  0.6365139E+03  0.7818608E-02  0.9832419E-01
         13   -1    0    0    0    0  0.00000000000E+00  0.00000000000E+00  0.10000000000E+04  0.10000000000E+04  0.00000000000E+00 0. -1.
          2   -1    0    0  501    0 -0.00000000000E+00 -0.00000000000E+00 -0.10128749406E+03  0.10128749406E+03  0.00000000000E+00 0. -1.
    9000006    2    1    2  501    0  0.00000000000E+00  0.00000000000E+00  0.89871250594E+03  0.11012874941E+04  0.63651392464E+03 0.  0.
         13    1    3    3    0    0  0.25779368377E+03  0.49730127574E+02  0.76058216565E+03  0.80462158789E+03  0.00000000000E+00 0. -1.
          4    1    3    3  501    0 -0.25779368377E+03 -0.49730127574E+02  0.13813034028E+03  0.29666590618E+03  0.00000000000E+00 0. -1.
<mgrwt>
<rscale>  0 0.63651392E+03</rscale>
<asrwt>0</asrwt>
<pdfrwt beam="1">0</pdfrwt>
<pdfrwt beam="2">  1        2 0.36831894E+00 0.63651392E+03</pdfrwt>
<totfact> 0.52233869E+00</totfact>
</mgrwt>
</event>
<event>
 5    1  0.2368916E-004  0.6396613E+03  0.7818608E-02  0.9826375E-01
         13   -1    0    0    0    0  0.00000000000E+00  0.00000000000E+00  0.10000000000E+04  0.10000000000E+04  0.00000000000E+00 0. -1.
          2   -1    0    0  501    0 -0.00000000000E+00 -0.00000000000E+00 -0.10229164365E+03  0.10229164365E+03  0.00000000000E+00 0. -1.
    9000006    2    1    2  501    0  0.00000000000E+00  0.00000000000E+00  0.89770835635E+03  0.11022916436E+04  0.63966129678E+03 0.  0.
         13    1    3    3    0    0 -0.13100423043E+03  0.44428026655E+00  0.95164352668E+03  0.96061839856E+03  0.00000000000E+00 0. -1.
          2    1    3    3  501    0  0.13100423043E+03 -0.44428026655E+00 -0.53935170329E+02  0.14167324509E+03  0.00000000000E+00 0. -1.
<mgrwt>
<rscale>  0 0.63966130E+03</rscale>
<asrwt>0</asrwt>
<pdfrwt beam="1">0</pdfrwt>
<pdfrwt beam="2">  1        2 0.37197040E+00 0.63966130E+03</pdfrwt>
<totfact> 0.50637528E+00</totfact>
</mgrwt>
</event>
<event>
 5    1  0.2368916E-004  0.6413298E+03  0.7818608E-02  0.9823186E-01
         13   -1    0    0    0    0  0.00000000000E+00  0.00000000000E+00  0.10000000000E+04  0.10000000000E+04  0.00000000000E+00 0. -1.
          2   -1    0    0  501    0 -0.00000000000E+00 -0.00000000000E+00 -0.10282596218E+03  0.10282596218E+03  0.00000000000E+00 0. -1.
    9000006    2    1    2  501    0  0.00000000000E+00  0.00000000000E+00  0.89717403782E+03  0.11028259622E+04  0.64132975038E+03 0.  0.
         13    1    3    3    0    0 -0.17810792566E+03  0.22577630354E+03  0.69255468362E+03  0.74988623286E+03  0.00000000000E+00 0. -1.
          4    1    3    3  501    0  0.17810792566E+03 -0.22577630354E+03  0.20461935420E+03  0.35293972932E+03  0.00000000000E+00 0. -1.
<mgrwt>
<rscale>  0 0.64132975E+03</rscale>
<asrwt>0</asrwt>
<pdfrwt beam="1">0</pdfrwt>
<pdfrwt beam="2">  1        2 0.37391338E+00 0.64132975E+03</pdfrwt>
<totfact> 0.49806429E+00</totfact>
</mgrwt>
</event>
<event>
 5    1  0.2368916E-004  0.6358209E+03  0.7818608E-02  0.9833755E-01
         13   -1    0    0    0    0  0.00000000000E+00  0.00000000000E+00  0.10000000000E+04  0.10000000000E+04  0.00000000000E+00 0. -1.
          2   -1    0    0  501    0 -0.00000000000E+00 -0.00000000000E+00 -0.10106706750E+03  0.10106706750E+03  0.00000000000E+00 0. -1.
    9000006    2    1    2  501    0  0.00000000000E+00  0.00000000000E+00  0.89893293250E+03  0.11010670675E+04  0.63582094177E+03 0.  0.
         13    1    3    3    0    0 -0.18068689812E+03 -0.24401958905E+03  0.61259600236E+03  0.68371571365E+03  0.00000000000E+00 0. -1.
          4    1    3    3  501    0  0.18068689812E+03  0.24401958905E+03  0.28633693014E+03  0.41735135384E+03  0.00000000000E+00 0. -1.
<mgrwt>
<rscale>  0 0.63582094E+03</rscale>
<asrwt>0</asrwt>
<pdfrwt beam="1">0</pdfrwt>
<pdfrwt beam="2">  1        2 0.36751738E+00 0.63582094E+03</pdfrwt>
<totfact> 0.52590411E+00</totfact>
</mgrwt>
</event>
<event>
 5    1  0.2368916E-004  0.6652359E+03  0.7818608E-02  0.9778603E-01
         13   -1    0    0    0    0  0.00000000000E+00  0.00000000000E+00  0.10000000000E+04  0.10000000000E+04  0.00000000000E+00 0. -1.
          2   -1    0    0  501    0 -0.00000000000E+00 -0.00000000000E+00 -0.11063470994E+03  0.11063470994E+03  0.00000000000E+00 0. -1.
    9000006    2    1    2  501    0  0.00000000000E+00  0.00000000000E+00  0.88936529006E+03  0.11106347099E+04  0.66523592789E+03 0.  0.
         13    1    3    3    0    0 -0.48987550949E+02 -0.32743956541E+03  0.39140744890E+03  0.51265606424E+03  0.00000000000E+00 0. -1.
          2    1    3    3  501    0  0.48987550949E+02  0.32743956541E+03  0.49795784116E+03  0.59797864570E+03  0.00000000000E+00 0. -1.
<mgrwt>
<rscale>  0 0.66523593E+03</rscale>
<asrwt>0</asrwt>
<pdfrwt beam="1">0</pdfrwt>
<pdfrwt beam="2">  1        2 0.40230888E+00 0.66523593E+03</pdfrwt>
<totfact> 0.38994156E+00</totfact>
</mgrwt>
</event>
<event>
 5    1  0.2368916E-004  0.6362515E+03  0.7818608E-02  0.9832925E-01
         13   -1    0    0    0    0  0.00000000000E+00  0.00000000000E+00  0.10000000000E+04  0.10000000000E+04  0.00000000000E+00 0. -1.
          2   -1    0    0  501    0 -0.00000000000E+00 -0.00000000000E+00 -0.10120399442E+03  0.10120399442E+03  0.00000000000E+00 0. -1.
    9000006    2    1    2  501    0  0.00000000000E+00  0.00000000000E+00  0.89879600558E+03  0.11012039944E+04  0.63625150506E+03 0.  0.
         13    1    3    3    0    0  0.12417958345E+02  0.28794113884E+03  0.21629177453E+03  0.36034211085E+03  0.00000000000E+00 0. -1.
          4    1    3    3  501    0 -0.12417958345E+02 -0.28794113884E+03  0.68250423105E+03  0.74086188357E+03  0.00000000000E+00 0. -1.
<mgrwt>
<rscale>  0 0.63625151E+03</rscale>
<asrwt>0</asrwt>
<pdfrwt beam="1">0</pdfrwt>
<pdfrwt beam="2">  1        2 0.36801530E+00 0.63625151E+03</pdfrwt>
<totfact> 0.52368668E+00</totfact>
</mgrwt>
</event>
<event>
 5    1  0.2368916E-004  0.6442338E+03  0.7818608E-02  0.9817660E-01
         13   -1    0    0    0    0  0.00000000000E+00  0.00000000000E+00  0.10000000000E+04  0.10000000000E+04  0.00000000000E+00 0. -1.
          2   -1    0    0  501    0 -0.00000000000E+00 -0.00000000000E+00 -0.10375928672E+03  0.10375928672E+03  0.00000000000E+00 0. -1.
    9000006    2    1    2  501    0  0.00000000000E+00  0.00000000000E+00  0.89624071328E+03  0.11037592867E+04  0.64423376725E+03 0.  0.
         13    1    3    3    0    0  0.73131503658E+02  0.27804429755E+03  0.69700448826E+03  0.75397089127E+03  0.00000000000E+00 0. -1.
          2    1    3    3  501    0 -0.73131503658E+02 -0.27804429755E+03  0.19923622503E+03  0.34978839545E+03  0.00000000000E+00 0. -1.
<mgrwt>
<rscale>  0 0.64423377E+03</rscale>
<asrwt>0</asrwt>
<pdfrwt beam="1">0</pdfrwt>
<pdfrwt beam="2">  1        2 0.37730729E+00 0.64423377E+03</pdfrwt>
<totfact> 0.48384610E+00</totfact>
</mgrwt>
</event>
<event>
 5    1  0.2368916E-004  0.6605321E+03  0.7818608E-02  0.9787215E-01
         13   -1    0    0    0    0  0.00000000000E+00  0.00000000000E+00  0.10000000000E+04  0.10000000000E+04  0.00000000000E+00 0. -1.
          2   -1    0    0  501    0 -0.00000000000E+00 -0.00000000000E+00 -0.10907567649E+03  0.10907567649E+03  0.00000000000E+00 0. -1.
    9000006    2    1    2  501    0  0.00000000000E+00  0.00000000000E+00  0.89092432351E+03  0.11090756765E+04  0.66053213847E+03 0.  0.
         13    1    3    3    0    0 -0.15206276527E+03  0.10428877546E+03  0.90552703169E+03  0.92410953809E+03  0.00000000000E+00 0. -1.
          2    1    3    3  501    0  0.15206276527E+03 -0.10428877546E+03 -0.14602708176E+02  0.18496613840E+03  0.00000000000E+00 0. -1.
<mgrwt>
<rscale>  0 0.66053214E+03</rscale>
<asrwt>0</asrwt>
<pdfrwt beam="1">0</pdfrwt>
<pdfrwt beam="2">  1        2 0.39663966E+00 0.66053214E+03</pdfrwt>
<totfact> 0.40965689E+00</totfact>
</mgrwt>
</event>
<event>
 5    1  0.2368916E-004  0.6462817E+03  0.7818608E-02  0.9813781E-01
         13   -1    0    0    0    0  0.00000000000E+00  0.00000000000E+00  0.10000000000E+04  0.10000000000E+04  0.00000000000E+00 0. -1.
          2   -1    0    0  501    0 -0.00000000000E+00 -0.00000000000E+00 -0.10442000159E+03  0.10442000159E+03  0.00000000000E+00 0. -1.
    9000006    2    1    2  501    0  0.00000000000E+00  0.00000000000E+00  0.89557999841E+03  0.11044200016E+04  0.64628167725E+03 0.  0.
         13    1    3    3    0    0 -0.18636563855E+03 -0.26398331975E+03  0.44640459232E+03  0.55108656705E+03  0.00000000000E+00 0. -1.
          2    1    3    3  501    0  0.18636563855E+03  0.26398331975E+03  0.44917540610E+03  0.55333343454E+03  0.00000000000E+00 0. -1.
<mgrwt>
<rscale>  0 0.64628168E+03</rscale>
<asrwt>0</asrwt>
<pdfrwt beam="1">0</pdfrwt>
<pdfrwt beam="2">  1        2 0.37970990E+00 0.64628168E+03</pdfrwt>
<totfact> 0.47400614E+00</totfact>
</mgrwt>
</event>
<event>
 5    1  0.2368916E-004  0.6030880E+03  0.7818608E-02  0.9899020E-01
         13   -1    0    0    0    0  0.00000000000E+00  0.00000000000E+00  0.10000000000E+04  0.10000000000E+04  0.00000000000E+00 0. -1.
          2   -1    0    0  501    0 -0.00000000000E+00 -0.00000000000E+00 -0.90928772135E+02  0.90928772135E+02  0.00000000000E+00 0. -1.
    9000006    2    1    2  501    0  0.00000000000E+00  0.00000000000E+00  0.90907122787E+03  0.10909287721E+04  0.60308796086E+03 0.  0.
         13    1    3    3    0    0  0.11700726054E+03 -0.11778552764E+03 -0.80798083430E+00  0.16602645082E+03  0.00000000000E+00 0. -1.
          2    1    3    3  501    0 -0.11700726054E+03  0.11778552764E+03  0.90987920870E+03  0.92490232131E+03  0.00000000000E+00 0. -1.
<mgrwt>
<rscale>  0 0.60308796E+03</rscale>
<asrwt>0</asrwt>
<pdfrwt beam="1">0</pdfrwt>
<pdfrwt beam="2">  1        2 0.33065078E+00 0.60308796E+03</pdfrwt>
<totfact> 0.71654893E+00</totfact>
</mgrwt>
</event>
<event>
 5    1  0.2368916E-004  0.6432319E+03  0.7818608E-02  0.9819563E-01
         13   -1    0    0    0    0  0.00000000000E+00  0.00000000000E+00  0.10000000000E+04  0.10000000000E+04  0.00000000000E+00 0. -1.
          2   -1    0    0  501    0 -0.00000000000E+00 -0.00000000000E+00 -0.10343682836E+03  0.10343682836E+03  0.00000000000E+00 0. -1.
    9000006    2    1    2  501    0  0.00000000000E+00  0.00000000000E+00  0.89656317164E+03  0.11034368284E+04  0.64323192820E+03 0.  0.
         13    1    3    3    0    0 -0.21392361989E+03  0.19951960015E+03  0.67757245927E+03  0.73802156036E+03  0.00000000000E+00 0. -1.
          4    1    3    3  501    0  0.21392361989E+03 -0.19951960015E+03  0.21899071236E+03  0.36541526801E+03  0.00000000000E+00 0. -1.
<mgrwt>
<rscale>  0 0.64323193E+03</rscale>
<asrwt>0</asrwt>
<pdfrwt beam="1">0</pdfrwt>
<pdfrwt beam="2">  1        2 0.37613471E+00 0.64323193E+03</pdfrwt>
<totfact> 0.48871575E+00</totfact>
</mgrwt>
</event>
<event>
 5    1  0.2368916E-004  0.6555521E+03  0.7818608E-02  0.9796417E-01
         13   -1    0    0    0    0  0.00000000000E+00  0.00000000000E+00  0.10000000000E+04  0.10000000000E+04  0.00000000000E+00 0. -1.
          2   -1    0    0  501    0 -0.00000000000E+00 -0.00000000000E+00 -0.10743712552E+03  0.10743712552E+03  0.00000000000E+00 0. -1.
    9000006    2    1    2  501    0  0.00000000000E+00  0.00000000000E+00  0.89256287448E+03  0.11074371255E+04  0.65555205903E+03 0.  0.
         13    1    3    3    0    0 -0.27431099045E+03  0.91460908980E+02  0.70703663790E+03  0.76387984964E+03  0.00000000000E+00 0. -1.
          4    1    3    3  501    0  0.27431099045E+03 -0.91460908980E+02  0.18552623658E+03  0.34355727589E+03  0.00000000000E+00 0. -1.
<mgrwt>
<rscale>  0 0.65555206E+03</rscale>
<asrwt>0</asrwt>
<pdfrwt beam="1">0</pdfrwt>
<pdfrwt beam="2">  1        2 0.39068128E+00 0.65555206E+03</pdfrwt>
<totfact> 0.43134155E+00</totfact>
</mgrwt>
</event>
<event>
 5    1  0.2368916E-004  0.6526948E+03  0.7818608E-02  0.9801736E-01
         13   -1    0    0    0    0  0.00000000000E+00  0.00000000000E+00  0.10000000000E+04  0.10000000000E+04  0.00000000000E+00 0. -1.
          2   -1    0    0  501    0 -0.00000000000E+00 -0.00000000000E+00 -0.10650263432E+03  0.10650263432E+03  0.00000000000E+00 0. -1.
    9000006    2    1    2  501    0  0.00000000000E+00  0.00000000000E+00  0.89349736568E+03  0.11065026343E+04  0.65269482708E+03 0.  0.
         13    1    3    3    0    0 -0.15888287426E+03  0.27111558227E+03  0.29745583697E+03  0.43269781791E+03  0.00000000000E+00 0. -1.
          2    1    3    3  501    0  0.15888287426E+03 -0.27111558227E+03  0.59604152870E+03  0.67380481641E+03  0.00000000000E+00 0. -1.
<mgrwt>
<rscale>  0 0.65269483E+03</rscale>
<asrwt>0</asrwt>
<pdfrwt beam="1">0</pdfrwt>
<pdfrwt beam="2">  1        2 0.38728312E+00 0.65269483E+03</pdfrwt>
<totfact> 0.44416814E+00</totfact>
</mgrwt>
</event>
<event>
 5    1  0.2368916E-004  0.6347937E+03  0.7818608E-02  0.9835739E-01
         13   -1    0    0    0    0  0.00000000000E+00  0.00000000000E+00  0.10000000000E+04  0.10000000000E+04  0.00000000000E+00 0. -1.
          2   -1    0    0  501    0 -0.00000000000E+00 -0.00000000000E+00 -0.10074075599E+03  0.10074075599E+03  0.00000000000E+00 0. -1.
    9000006    2    1    2  501    0  0.00000000000E+00  0.00000000000E+00  0.89925924401E+03  0.11007407560E+04  0.63479368614E+03 0.  0.
         13    1    3    3    0    0  0.31522251894E+03 -0.34135487268E+02  0.47477509158E+03  0.57091317687E+03  0.00000000000E+00 0. -1.
          4    1    3    3  501    0 -0.31522251894E+03  0.34135487268E+02  0.42448415243E+03  0.52982757912E+03  0.00000000000E+00 0. -1.
<mgrwt>
<rscale>  0 0.63479369E+03</rscale>
<asrwt>0</asrwt>
<pdfrwt beam="1">0</pdfrwt>
<pdfrwt beam="2">  1        2 0.36633079E+00 0.63479369E+03</pdfrwt>
<totfact> 0.53122327E+00</totfact>
</mgrwt>
</event>
<event>
 5    1  0.2368916E-004  0.6543125E+03  0.7818608E-02  0.9798721E-01
         13   -1    0    0    0    0  0.00000000000E+00  0.00000000000E+00  0.10000000000E+04  0.10000000000E+04  0.00000000000E+00 0. -1.
          2   -1    0    0  501    0 -0.00000000000E+00 -0.00000000000E+00 -0.10703120466E+03  0.10703120466E+03  0.00000000000E+00 0. -1.
    9000006    2    1    2  501    0  0.00000000000E+00  0.00000000000E+00  0.89296879534E+03  0.11070312047E+04  0.65431247783E+03 0.  0.
         13    1    3    3    0    0 -0.20857243429E+03 -0.11427594749E+03  0.82657772575E+03  0.86011173066E+03  0.00000000000E+00 0. -1.
          4    1    3    3  501    0  0.20857243429E+03  0.11427594749E+03  0.66391069590E+02  0.24691947400E+03  0.00000000000E+00 0. -1.
<mgrwt>
<rscale>  0 0.65431248E+03</rscale>
<asrwt>0</asrwt>
<pdfrwt beam="1">0</pdfrwt>
<pdfrwt beam="2">  1        2 0.38920520E+00 0.65431248E+03</pdfrwt>
<totfact> 0.43687139E+00</totfact>
</mgrwt>
</event>
<event>
 5    1  0.2368916E-004  0.6626466E+03  0.7818608E-02  0.9783334E-01
         13   -1    0    0    0    0  0.00000000000E+00  0.00000000000E+00  0.10000000000E+04  0.10000000000E+04  0.00000000000E+00 0. -1.
          2   -1    0    0  501    0 -0.00000000000E+00 -0.00000000000E+00 -0.10977514377E+03  0.10977514377E+03  0.00000000000E+00 0. -1.
    9000006    2    1    2  501    0  0.00000000000E+00  0.00000000000E+00  0.89022485623E+03  0.11097751438E+04  0.66264664421E+03 0.  0.
         13    1    3    3    0    0  0.58018945574E+02  0.29091881565E+03  0.69224725488E+03  0.75313094295E+03  0.00000000000E+00 0. -1.
          4    1    3    3  501    0 -0.58018945574E+02 -0.29091881565E+03  0.19797760135E+03  0.35664420082E+03  0.00000000000E+00 0. -1.
<mgrwt>
<rscale>  0 0.66264664E+03</rscale>
<asrwt>0</asrwt>
<pdfrwt beam="1">0</pdfrwt>
<pdfrwt beam="2">  1        2 0.39918318E+00 0.66264664E+03</pdfrwt>
<totfact> 0.40070342E+00</totfact>
</mgrwt>
</event>
<event>
 5    1  0.2368916E-004  0.6500396E+03  0.7818608E-02  0.9806705E-01
         13   -1    0    0    0    0  0.00000000000E+00  0.00000000000E+00  0.10000000000E+04  0.10000000000E+04  0.00000000000E+00 0. -1.
          2   -1    0    0  501    0 -0.00000000000E+00 -0.00000000000E+00 -0.10563788172E+03  0.10563788172E+03  0.00000000000E+00 0. -1.
    9000006    2    1    2  501    0  0.00000000000E+00  0.00000000000E+00  0.89436211828E+03  0.11056378817E+04  0.65003963486E+03 0.  0.
         13    1    3    3    0    0  0.20298398243E+03  0.18669626507E+03  0.15465043077E+03  0.31618783698E+03  0.00000000000E+00 0. -1.
          2    1    3    3  501    0 -0.20298398243E+03 -0.18669626507E+03  0.73971168750E+03  0.78945004474E+03  0.00000000000E+00 0. -1.
<mgrwt>
<rscale>  0 0.65003963E+03</rscale>
<asrwt>0</asrwt>
<pdfrwt beam="1">0</pdfrwt>
<pdfrwt beam="2">  1        2 0.38413856E+00 0.65003963E+03</pdfrwt>
<totfact> 0.45634408E+00</totfact>
</mgrwt>
</event>
<event>
 5    1  0.2368916E-004  0.6456340E+03  0.7818608E-02  0.9815006E-01
         13   -1    0    0    0    0  0.00000000000E+00  0.00000000000E+00  0.10000000000E+04  0.10000000000E+04  0.00000000000E+00 0. -1.
          2   -1    0    0  501    0 -0.00000000000E+00 -0.00000000000E+00 -0.10421083094E+03  0.10421083094E+03  0.00000000000E+00 0. -1.
    9000006    2    1    2  501    0  0.00000000000E+00  0.00000000000E+00  0.89578916906E+03  0.11042108309E+04  0.64563404788E+03 0.  0.
         13    1    3    3    0    0 -0.23911284644E+03  0.18843323757E+03  0.26425872561E+03  0.40313113551E+03  0.00000000000E+00 0. -1.
          4    1    3    3  501    0  0.23911284644E+03 -0.18843323757E+03  0.63153044345E+03  0.70107969544E+03  0.00000000000E+00 0. -1.
<mgrwt>
<rscale>  0 0.64563405E+03</rscale>
<asrwt>0</asrwt>
<pdfrwt beam="1">0</pdfrwt>
<pdfrwt beam="2">  1        2 0.37894928E+00 0.64563405E+03</pdfrwt>
<totfact> 0.47710139E+00</totfact>
</mgrwt>
</event>
<event>
 5    1  0.2368916E-004  0.6653069E+03  0.7818608E-02  0.9778473E-01
         13   -1    0    0    0    0  0.00000000000E+00  0.00000000000E+00  0.10000000000E+04  0.10000000000E+04  0.00000000000E+00 0. -1.
          2   -1    0    0  501    0 -0.00000000000E+00 -0.00000000000E+00 -0.11065831848E+03  0.11065831848E+03  0.00000000000E+00 0. -1.
    9000006    2    1    2  501    0  0.00000000000E+00  0.00000000000E+00  0.88934168152E+03  0.11106583185E+04  0.66530690204E+03 0.  0.
         13    1    3    3    0    0 -0.24479810667E+03  0.35032788321E+02  0.81610563063E+03  0.85274955857E+03  0.00000000000E+00 0. -1.
          2    1    3    3  501    0  0.24479810667E+03 -0.35032788321E+02  0.73236050889E+02  0.25790875991E+03  0.00000000000E+00 0. -1.
<mgrwt>
<rscale>  0 0.66530690E+03</rscale>
<asrwt>0</asrwt>
<pdfrwt beam="1">0</pdfrwt>
<pdfrwt beam="2">  1        2 0.40239473E+00 0.66530690E+03</pdfrwt>
<totfact> 0.38964967E+00</totfact>
</mgrwt>
</event>
<event>
 5    1  0.2368916E-004  0.6400941E+03  0.7818608E-02  0.9825546E-01
         13   -1    0    0    0    0  0.00000000000E+00  0.00000000000E+00  0.10000000000E+04  0.10000000000E+04  0.00000000000E+00 0. -1.
          2   -1    0    0  501    0 -0.00000000000E+00 -0.00000000000E+00 -0.10243012585E+03  0.10243012585E+03  0.00000000000E+00 0. -1.
    9000006    2    1    2  501    0  0.00000000000E+00  0.00000000000E+00  0.89756987415E+03  0.11024301259E+04  0.64009413637E+03 0.  0.
         13    1    3    3    0    0 -0.26046515298E+03 -0.47855290481E+02  0.13926090511E+03  0.29920866370E+03  0.00000000000E+00 0. -1.
          2    1    3    3  501    0  0.26046515298E+03  0.47855290481E+02  0.75830896904E+03  0.80322146215E+03  0.00000000000E+00 0. -1.
<mgrwt>
<rscale>  0 0.64009414E+03</rscale>
<asrwt>0</asrwt>
<pdfrwt beam="1">0</pdfrwt>
<pdfrwt beam="2">  1        2 0.37247397E+00 0.64009414E+03</pdfrwt>
<totfact> 0.50420918E+00</totfact>
</mgrwt>
</event>
<event>
 5    1  0.2368916E-004  0.6490033E+03  0.7818608E-02  0.9808651E-01
         13   -1    0    0    0    0  0.00000000000E+00  0.00000000000E+00  0.10000000000E+04  0.10000000000E+04  0.00000000000E+00 0. -1.
          2   -1    0    0  501    0 -0.00000000000E+00 -0.00000000000E+00 -0.10530132178E+03  0.10530132178E+03  0.00000000000E+00 0. -1.
    9000006    2    1    2  501    0  0.00000000000E+00  0.00000000000E+00  0.89469867822E+03  0.11053013218E+04  0.64900330286E+03 0.  0.
         13    1    3    3    0    0  0.47727714498E+00 -0.16972353288E+03  0.91838127514E+03  0.93393279841E+03  0.00000000000E+00 0. -1.
          2    1    3    3  501    0 -0.47727714498E+00  0.16972353288E+03 -0.23682596924E+02  0.17136852337E+03  0.00000000000E+00 0. -1.
<mgrwt>
<rscale>  0 0.64900330E+03</rscale>
<asrwt>0</asrwt>
<pdfrwt beam="1">0</pdfrwt>
<pdfrwt beam="2">  1        2 0.38291470E+00 0.64900330E+03</pdfrwt>
<totfact> 0.46116419E+00</totfact>
</mgrwt>
</event>
<event>
 5    1  0.2368916E-004  0.4810956E+03  0.7818608E-02  0.1018835E+00
         13   -1    0    0    0    0  0.00000000000E+00  0.00000000000E+00  0.10000000000E+04  0.10000000000E+04  0.00000000000E+00 0. -1.
          2   -1    0    0  501    0 -0.00000000000E+00 -0.00000000000E+00 -0.57863240789E+02  0.57863240789E+02  0.00000000000E+00 0. -1.
    9000006    2    1    2  501    0  0.00000000000E+00  0.00000000000E+00  0.94213675921E+03  0.10578632408E+04  0.48109558630E+03 0.  0.
         13    1    3    3    0    0  0.86286966359E+02  0.55752020559E+02 -0.72007941091E+01  0.10298339573E+03  0.00000000000E+00 0. -1.
          4    1    3    3  501    0 -0.86286966359E+02 -0.55752020559E+02  0.94933755332E+03  0.95487984506E+03  0.00000000000E+00 0. -1.
<mgrwt>
<rscale>  0 0.48109559E+03</rscale>
<asrwt>0</asrwt>
<pdfrwt beam="1">0</pdfrwt>
<pdfrwt beam="2">  1        2 0.21041223E+00 0.48109559E+03</pdfrwt>
<totfact> 0.19427800E+01</totfact>
</mgrwt>
</event>
<event>
 5    1  0.2368916E-004  0.6802524E+03  0.7818608E-02  0.9751612E-01
         13   -1    0    0    0    0  0.00000000000E+00  0.00000000000E+00  0.10000000000E+04  0.10000000000E+04  0.00000000000E+00 0. -1.
          2   -1    0    0  501    0 -0.00000000000E+00 -0.00000000000E+00 -0.11568583866E+03  0.11568583866E+03  0.00000000000E+00 0. -1.
    9000006    2    1    2  501    0  0.00000000000E+00  0.00000000000E+00  0.88431416134E+03  0.11156858387E+04  0.68025241979E+03 0.  0.
         13    1    3    3    0    0  0.23781974506E+03 -0.97737668466E+02  0.76980437074E+02  0.26839685294E+03  0.00000000000E+00 0. -1.
          4    1    3    3  501    0 -0.23781974506E+03  0.97737668466E+02  0.80733372427E+03  0.84728898572E+03  0.00000000000E+00 0. -1.
<mgrwt>
<rscale>  0 0.68025242E+03</rscale>
<asrwt>0</asrwt>
<pdfrwt beam="1">0</pdfrwt>
<pdfrwt beam="2">  1        2 0.42067666E+00 0.68025242E+03</pdfrwt>
<totfact> 0.33175973E+00</totfact>
</mgrwt>
</event>
<event>
 5    1  0.2368916E-004  0.6354284E+03  0.7818608E-02  0.9834512E-01
         13   -1    0    0    0    0  0.00000000000E+00  0.00000000000E+00  0.10000000000E+04  0.10000000000E+04  0.00000000000E+00 0. -1.
          2   -1    0    0  501    0 -0.00000000000E+00 -0.00000000000E+00 -0.10094232814E+03  0.10094232814E+03  0.00000000000E+00 0. -1.
    9000006    2    1    2  501    0  0.00000000000E+00  0.00000000000E+00  0.89905767186E+03  0.11009423281E+04  0.63542844802E+03 0.  0.
         13    1    3    3    0    0  0.30898495573E+02  0.20107623784E+03  0.26703968304E+02  0.20518155954E+03  0.00000000000E+00 0. -1.
          2    1    3    3  501    0 -0.30898495573E+02 -0.20107623784E+03  0.87235370356E+03  0.89576076860E+03  0.00000000000E+00 0. -1.
<mgrwt>
<rscale>  0 0.63542845E+03</rscale>
<asrwt>0</asrwt>
<pdfrwt beam="1">0</pdfrwt>
<pdfrwt beam="2">  1        2 0.36706379E+00 0.63542845E+03</pdfrwt>
<totfact> 0.52793166E+00</totfact>
</mgrwt>
</event>
<event>
 5    1  0.2368916E-004  0.6884272E+03  0.7818608E-02  0.9737231E-01
         13   -1    0    0    0    0  0.00000000000E+00  0.00000000000E+00  0.10000000000E+04  0.10000000000E+04  0.00000000000E+00 0. -1.
          2   -1    0    0  501    0 -0.00000000000E+00 -0.00000000000E+00 -0.11848299096E+03  0.11848299096E+03  0.00000000000E+00 0. -1.
    9000006    2    1    2  501    0  0.00000000000E+00  0.00000000000E+00  0.88151700904E+03  0.11184829910E+04  0.68842716670E+03 0.  0.
         13    1    3    3    0    0 -0.23798769153E+03 -0.31615652550E+02  0.39998010886E+02  0.24338761612E+03  0.00000000000E+00 0. -1.
          4    1    3    3  501    0  0.23798769153E+03  0.31615652550E+02  0.84151899815E+03  0.87509537484E+03  0.00000000000E+00 0. -1.
<mgrwt>
<rscale>  0 0.68842717E+03</rscale>
<asrwt>0</asrwt>
<pdfrwt beam="1">0</pdfrwt>
<pdfrwt beam="2">  1        2 0.43084815E+00 0.68842717E+03</pdfrwt>
<totfact> 0.30297885E+00</totfact>
</mgrwt>
</event>
<event>
 5    1  0.2368916E-004  0.6601391E+03  0.7818608E-02  0.9787938E-01
         13   -1    0    0    0    0  0.00000000000E+00  0.00000000000E+00  0.10000000000E+04  0.10000000000E+04  0.00000000000E+00 0. -1.
          2   -1    0    0  501    0 -0.00000000000E+00 -0.00000000000E+00 -0.10894590171E+03  0.10894590171E+03  0.00000000000E+00 0. -1.
    9000006    2    1    2  501    0  0.00000000000E+00  0.00000000000E+00  0.89105409829E+03  0.11089459017E+04  0.66013908144E+03 0.  0.
         13    1    3    3    0    0 -0.30869721878E+03 -0.97226808482E+02  0.33667378208E+03  0.46700777372E+03  0.00000000000E+00 0. -1.
          2    1    3    3  501    0  0.30869721878E+03  0.97226808482E+02  0.55438031621E+03  0.64193812799E+03  0.00000000000E+00 0. -1.
<mgrwt>
<rscale>  0 0.66013908E+03</rscale>
<asrwt>0</asrwt>
<pdfrwt beam="1">0</pdfrwt>
<pdfrwt beam="2">  1        2 0.39616775E+00 0.66013908E+03</pdfrwt>
<totfact> 0.41133772E+00</totfact>
</mgrwt>
</event>
<event>
 5    1  0.2368916E-004  0.6542215E+03  0.7818608E-02  0.9798890E-01
         13   -1    0    0    0    0  0.00000000000E+00  0.00000000000E+00  0.10000000000E+04  0.10000000000E+04  0.00000000000E+00 0. -1.
          2   -1    0    0  501    0 -0.00000000000E+00 -0.00000000000E+00 -0.10700144161E+03  0.10700144161E+03  0.00000000000E+00 0. -1.
    9000006    2    1    2  501    0  0.00000000000E+00  0.00000000000E+00  0.89299855839E+03  0.11070014416E+04  0.65422149646E+03 0.  0.
         13    1    3    3    0    0  0.15138340475E+03 -0.16767733855E+03  0.84680927823E+03  0.87642374386E+03  0.00000000000E+00 0. -1.
          2    1    3    3  501    0 -0.15138340475E+03  0.16767733855E+03  0.46189280159E+02  0.23057769775E+03  0.00000000000E+00 0. -1.
<mgrwt>
<rscale>  0 0.65422150E+03</rscale>
<asrwt>0</asrwt>
<pdfrwt beam="1">0</pdfrwt>
<pdfrwt beam="2">  1        2 0.38909697E+00 0.65422150E+03</pdfrwt>
<totfact> 0.43727936E+00</totfact>
</mgrwt>
</event>
<event>
 5    1  0.2368916E-004  0.6427731E+03  0.7818608E-02  0.9820435E-01
         13   -1    0    0    0    0  0.00000000000E+00  0.00000000000E+00  0.10000000000E+04  0.10000000000E+04  0.00000000000E+00 0. -1.
          2   -1    0    0  501    0 -0.00000000000E+00 -0.00000000000E+00 -0.10328930659E+03  0.10328930659E+03  0.00000000000E+00 0. -1.
    9000006    2    1    2  501    0  0.00000000000E+00  0.00000000000E+00  0.89671069341E+03  0.11032893066E+04  0.64277307533E+03 0.  0.
         13    1    3    3    0    0  0.18254866865E+02 -0.30994380622E+03  0.30587012791E+03  0.43583820201E+03  0.00000000000E+00 0. -1.
          2    1    3    3  501    0 -0.18254866865E+02  0.30994380622E+03  0.59084056550E+03  0.66745110459E+03  0.00000000000E+00 0. -1.
<mgrwt>
<rscale>  0 0.64277308E+03</rscale>
<asrwt>0</asrwt>
<pdfrwt beam="1">0</pdfrwt>
<pdfrwt beam="2">  1        2 0.37559827E+00 0.64277308E+03</pdfrwt>
<totfact> 0.49095844E+00</totfact>
</mgrwt>
</event>
<event>
 5    1  0.2368916E-004  0.6545548E+03  0.7818608E-02  0.9798270E-01
         13   -1    0    0    0    0  0.00000000000E+00  0.00000000000E+00  0.10000000000E+04  0.10000000000E+04  0.00000000000E+00 0. -1.
          2   -1    0    0  501    0 -0.00000000000E+00 -0.00000000000E+00 -0.10711048203E+03  0.10711048203E+03  0.00000000000E+00 0. -1.
    9000006    2    1    2  501    0  0.00000000000E+00  0.00000000000E+00  0.89288951797E+03  0.11071104820E+04  0.65455475562E+03 0.  0.
         13    1    3    3    0    0 -0.20131074570E+02 -0.21699768778E+03  0.85942650871E+03  0.88662685530E+03  0.00000000000E+00 0. -1.
          2    1    3    3  501    0  0.20131074570E+02  0.21699768778E+03  0.33463009259E+02  0.22048362672E+03  0.00000000000E+00 0. -1.
<mgrwt>
<rscale>  0 0.65455476E+03</rscale>
<asrwt>0</asrwt>
<pdfrwt beam="1">0</pdfrwt>
<pdfrwt beam="2">  1        2 0.38949348E+00 0.65455476E+03</pdfrwt>
<totfact> 0.43578639E+00</totfact>
</mgrwt>
</event>
<event>
 5    1  0.2368916E-004  0.6323806E+03  0.7818608E-02  0.9840414E-01
         13   -1    0    0    0    0  0.00000000000E+00  0.00000000000E+00  0.10000000000E+04  0.10000000000E+04  0.00000000000E+00 0. -1.
          2   -1    0    0  501    0 -0.00000000000E+00 -0.00000000000E+00 -0.99976295158E+02  0.99976295158E+02  0.00000000000E+00 0. -1.
    9000006    2    1    2  501    0  0.00000000000E+00  0.00000000000E+00  0.90002370484E+03  0.10999762952E+04  0.63238056630E+03 0.  0.
         13    1    3    3    0    0 -0.24244080936E+03 -0.10237009976E+03  0.75487795455E+03  0.79943599470E+03  0.00000000000E+00 0. -1.
          2    1    3    3  501    0  0.24244080936E+03  0.10237009976E+03  0.14514575030E+03  0.30054030045E+03  0.00000000000E+00 0. -1.
<mgrwt>
<rscale>  0 0.63238057E+03</rscale>
<asrwt>0</asrwt>
<pdfrwt beam="1">0</pdfrwt>
<pdfrwt beam="2">  1        2 0.36355093E+00 0.63238057E+03</pdfrwt>
<totfact> 0.54387891E+00</totfact>
</mgrwt>
</event>
<event>
 5    1  0.2368916E-004  0.6657052E+03  0.7818608E-02  0.9777748E-01
         13   -1    0    0    0    0  0.00000000000E+00  0.00000000000E+00  0.10000000000E+04  0.10000000000E+04  0.00000000000E+00 0. -1.
          2   -1    0    0  501    0 -0.00000000000E+00 -0.00000000000E+00 -0.11079084631E+03  0.11079084631E+03  0.00000000000E+00 0. -1.
    9000006    2    1    2  501    0  0.00000000000E+00  0.00000000000E+00  0.88920915369E+03  0.11107908463E+04  0.66570517892E+03 0.  0.
         13    1    3    3    0    0  0.19053375885E+03  0.79984450613E+01  0.89980866552E+03  0.91979493526E+03  0.00000000000E+00 0. -1.
          4    1    3    3  501    0 -0.19053375885E+03 -0.79984450613E+01 -0.10599511832E+02  0.19099591105E+03  0.00000000000E+00 0. -1.
<mgrwt>
<rscale>  0 0.66570518E+03</rscale>
<asrwt>0</asrwt>
<pdfrwt beam="1">0</pdfrwt>
<pdfrwt beam="2">  1        2 0.40287665E+00 0.66570518E+03</pdfrwt>
<totfact> 0.38801479E+00</totfact>
</mgrwt>
</event>
<event>
 5    1  0.2368916E-004  0.6379778E+03  0.7818608E-02  0.9829603E-01
         13   -1    0    0    0    0  0.00000000000E+00  0.00000000000E+00  0.10000000000E+04  0.10000000000E+04  0.00000000000E+00 0. -1.
          2   -1    0    0  501    0 -0.00000000000E+00 -0.00000000000E+00 -0.10175390810E+03  0.10175390810E+03  0.00000000000E+00 0. -1.
    9000006    2    1    2  501    0  0.00000000000E+00  0.00000000000E+00  0.89824609190E+03  0.11017539081E+04  0.63797776796E+03 0.  0.
         13    1    3    3    0    0  0.18580626585E+03 -0.18589032684E+03  0.76128863837E+03  0.80538163187E+03  0.00000000000E+00 0. -1.
          4    1    3    3  501    0 -0.18580626585E+03  0.18589032684E+03  0.13695745352E+03  0.29637227623E+03  0.00000000000E+00 0. -1.
<mgrwt>
<rscale>  0 0.63797777E+03</rscale>
<asrwt>0</asrwt>
<pdfrwt beam="1">0</pdfrwt>
<pdfrwt beam="2">  1        2 0.37001499E+00 0.63797777E+03</pdfrwt>
<totfact> 0.51486741E+00</totfact>
</mgrwt>
</event>
<event>
 5    1  0.2368916E-004  0.6474670E+03  0.7818608E-02  0.9811544E-01
         13   -1    0    0    0    0  0.00000000000E+00  0.00000000000E+00  0.10000000000E+04  0.10000000000E+04  0.00000000000E+00 0. -1.
          2   -1    0    0  501    0 -0.00000000000E+00 -0.00000000000E+00 -0.10480336904E+03  0.10480336904E+03  0.00000000000E+00 0. -1.
    9000006    2    1    2  501    0  0.00000000000E+00  0.00000000000E+00  0.89519663096E+03  0.11048033690E+04  0.64746696917E+03 0.  0.
         13    1    3    3    0    0  0.87163718577E+02 -0.21264117331E+03  0.58530277855E+02  0.23714884745E+03  0.00000000000E+00 0. -1.
          2    1    3    3  501    0 -0.87163718577E+02  0.21264117331E+03  0.83666635310E+03  0.86765452159E+03  0.00000000000E+00 0. -1.
<mgrwt>
<rscale>  0 0.64746697E+03</rscale>
<asrwt>0</asrwt>
<pdfrwt beam="1">0</pdfrwt>
<pdfrwt beam="2">  1        2 0.38110396E+00 0.64746697E+03</pdfrwt>
<totfact> 0.46838056E+00</totfact>
</mgrwt>
</event>
<event>
 5    1  0.2368916E-004  0.6470506E+03  0.7818608E-02  0.9812329E-01
         13   -1    0    0    0    0  0.00000000000E+00  0.00000000000E+00  0.10000000000E+04  0.10000000000E+04  0.00000000000E+00 0. -1.
          2   -1    0    0  501    0 -0.00000000000E+00 -0.00000000000E+00 -0.10466862814E+03  0.10466862814E+03  0.00000000000E+00 0. -1.
    9000006    2    1    2  501    0  0.00000000000E+00  0.00000000000E+00  0.89533137186E+03  0.11046686281E+04  0.64705062596E+03 0.  0.
         13    1    3    3    0    0  0.28960189410E+03 -0.18843430470E+02  0.69177246540E+03  0.75018229506E+03  0.00000000000E+00 0. -1.
          2    1    3    3  501    0 -0.28960189410E+03  0.18843430470E+02  0.20355890646E+03  0.35448633308E+03  0.00000000000E+00 0. -1.
<mgrwt>
<rscale>  0 0.64705063E+03</rscale>
<asrwt>0</asrwt>
<pdfrwt beam="1">0</pdfrwt>
<pdfrwt beam="2">  1        2 0.38061400E+00 0.64705063E+03</pdfrwt>
<totfact> 0.47035080E+00</totfact>
</mgrwt>
</event>
<event>
 5    1  0.2368916E-004  0.6359128E+03  0.7818608E-02  0.9833578E-01
         13   -1    0    0    0    0  0.00000000000E+00  0.00000000000E+00  0.10000000000E+04  0.10000000000E+04  0.00000000000E+00 0. -1.
          2   -1    0    0  501    0 -0.00000000000E+00 -0.00000000000E+00 -0.10109626180E+03  0.10109626180E+03  0.00000000000E+00 0. -1.
    9000006    2    1    2  501    0  0.00000000000E+00  0.00000000000E+00  0.89890373820E+03  0.11010962618E+04  0.63591276698E+03 0.  0.
         13    1    3    3    0    0  0.11970903228E+03 -0.28372117830E+03  0.31236283607E+03  0.43863253503E+03  0.00000000000E+00 0. -1.
          2    1    3    3  501    0 -0.11970903228E+03  0.28372117830E+03  0.58654090213E+03  0.66246372677E+03  0.00000000000E+00 0. -1.
<mgrwt>
<rscale>  0 0.63591277E+03</rscale>
<asrwt>0</asrwt>
<pdfrwt beam="1">0</pdfrwt>
<pdfrwt beam="2">  1        2 0.36762355E+00 0.63591277E+03</pdfrwt>
<totfact> 0.52543061E+00</totfact>
</mgrwt>
</event>
<event>
 5    1  0.2368916E-004  0.6007957E+03  0.7818608E-02  0.9903757E-01
         13   -1    0    0    0    0  0.00000000000E+00  0.00000000000E+00  0.10000000000E+04  0.10000000000E+04  0.00000000000E+00 0. -1.
          2   -1    0    0  501    0 -0.00000000000E+00 -0.00000000000E+00 -0.90238876533E+02  0.90238876533E+02  0.00000000000E+00 0. -1.
    9000006    2    1    2  501    0  0.00000000000E+00  0.00000000000E+00  0.90976112347E+03  0.10902388765E+04  0.60079572746E+03 0.  0.
         13    1    3    3    0    0 -0.63931191520E+02 -0.28159032075E+03  0.60516417691E+03  0.67052515763E+03  0.00000000000E+00 0. -1.
          4    1    3    3  501    0  0.63931191520E+02  0.28159032075E+03  0.30459694655E+03  0.41971371891E+03  0.00000000000E+00 0. -1.
<mgrwt>
<rscale>  0 0.60079573E+03</rscale>
<asrwt>0</asrwt>
<pdfrwt beam="1">0</pdfrwt>
<pdfrwt beam="2">  1        2 0.32814206E+00 0.60079573E+03</pdfrwt>
<totfact> 0.73163650E+00</totfact>
</mgrwt>
</event>
<event>
 5    1  0.2368916E-004  0.6394440E+03  0.7818608E-02  0.9826791E-01
         13   -1    0    0    0    0  0.00000000000E+00  0.00000000000E+00  0.10000000000E+04  0.10000000000E+04  0.00000000000E+00 0. -1.
          2   -1    0    0  501    0 -0.00000000000E+00 -0.00000000000E+00 -0.10222216372E+03  0.10222216372E+03  0.00000000000E+00 0. -1.
    9000006    2    1    2  501    0  0.00000000000E+00  0.00000000000E+00  0.89777783628E+03  0.11022221637E+04  0.63944402012E+03 0.  0.
         13    1    3    3    0    0 -0.15680831618E+01  0.18115948590E+03 -0.52087826111E+01  0.18124113670E+03  0.00000000000E+00 0. -1.
          2    1    3    3  501    0  0.15680831618E+01 -0.18115948590E+03  0.90298661890E+03  0.92098102701E+03  0.00000000000E+00 0. -1.
<mgrwt>
<rscale>  0 0.63944402E+03</rscale>
<asrwt>0</asrwt>
<pdfrwt beam="1">0</pdfrwt>
<pdfrwt beam="2">  1        2 0.37171774E+00 0.63944402E+03</pdfrwt>
<totfact> 0.50746527E+00</totfact>
</mgrwt>
</event>
<event>
 5    1  0.2368916E-004  0.6492897E+03  0.7818608E-02  0.9808113E-01
         13   -1    0    0    0    0  0.00000000000E+00  0.00000000000E+00  0.10000000000E+04  0.10000000000E+04  0.00000000000E+00 0. -1.
          2   -1    0    0  501    0 -0.00000000000E+00 -0.00000000000E+00 -0.10539428916E+03  0.10539428916E+03  0.00000000000E+00 0. -1.
    9000006    2    1    2  501    0  0.00000000000E+00  0.00000000000E+00  0.89460571084E+03  0.11053942892E+04  0.64928973242E+03 0.  0.
         13    1    3    3    0    0  0.23334177404E+02  0.30289658278E+03  0.25242083859E+03  0.39497734549E+03  0.00000000000E+00 0. -1.
          2    1    3    3  501    0 -0.23334177404E+02 -0.30289658278E+03  0.64218487225E+03  0.71041694366E+03  0.00000000000E+00 0. -1.
<mgrwt>
<rscale>  0 0.64928973E+03</rscale>
<asrwt>0</asrwt>
<pdfrwt beam="1">0</pdfrwt>
<pdfrwt beam="2">  1        2 0.38325277E+00 0.64928973E+03</pdfrwt>
<totfact> 0.45982814E+00</totfact>
</mgrwt>
</event>
<event>
 5    1  0.2368916E-004  0.6479907E+03  0.7818608E-02  0.9810557E-01
         13   -1    0    0    0    0  0.00000000000E+00  0.00000000000E+00  0.10000000000E+04  0.10000000000E+04  0.00000000000E+00 0. -1.
          2   -1    0    0  501    0 -0.00000000000E+00 -0.00000000000E+00 -0.10497299021E+03  0.10497299021E+03  0.00000000000E+00 0. -1.
    9000006    2    1    2  501    0  0.00000000000E+00  0.00000000000E+00  0.89502700979E+03  0.11049729902E+04  0.64799071046E+03 0.  0.
         13    1    3    3    0    0 -0.17416991953E+03  0.24889263864E+03  0.63960960556E+03  0.70808414327E+03  0.00000000000E+00 0. -1.
          4    1    3    3  501    0  0.17416991953E+03 -0.24889263864E+03  0.25541740423E+03  0.39688884694E+03  0.00000000000E+00 0. -1.
<mgrwt>
<rscale>  0 0.64799071E+03</rscale>
<asrwt>0</asrwt>
<pdfrwt beam="1">0</pdfrwt>
<pdfrwt beam="2">  1        2 0.38172077E+00 0.64799071E+03</pdfrwt>
<totfact> 0.46591095E+00</totfact>
</mgrwt>
</event>
<event>
 5    1  0.2368916E-004  0.6392854E+03  0.7818608E-02  0.9827095E-01
         13   -1    0    0    0    0  0.00000000000E+00  0.00000000000E+00  0.10000000000E+04  0.10000000000E+04  0.00000000000E+00 0. -1.
          2   -1    0    0  501    0 -0.00000000000E+00 -0.00000000000E+00 -0.10217144080E+03  0.10217144080E+03  0.00000000000E+00 0. -1.
    9000006    2    1    2  501    0  0.00000000000E+00  0.00000000000E+00  0.89782855920E+03  0.11021714408E+04  0.63928535351E+03 0.  0.
         13    1    3    3    0    0  0.11435652163E+03  0.15596683377E+03  0.10145321625E+02  0.19366464526E+03  0.00000000000E+00 0. -1.
          4    1    3    3  501    0 -0.11435652163E+03 -0.15596683377E+03  0.88768323757E+03  0.90850679554E+03  0.00000000000E+00 0. -1.
<mgrwt>
<rscale>  0 0.63928535E+03</rscale>
<asrwt>0</asrwt>
<pdfrwt beam="1">0</pdfrwt>
<pdfrwt beam="2">  1        2 0.37153330E+00 0.63928535E+03</pdfrwt>
<totfact> 0.50826236E+00</totfact>
</mgrwt>
</event>
<event>
 5    1  0.2368916E-004  0.6556442E+03  0.7818608E-02  0.9796245E-01
         13   -1    0    0    0    0  0.00000000000E+00  0.00000000000E+00  0.10000000000E+04  0.10000000000E+04  0.00000000000E+00 0. -1.
          2   -1    0    0  501    0 -0.00000000000E+00 -0.00000000000E+00 -0.10746733171E+03  0.10746733171E+03  0.00000000000E+00 0. -1.
    9000006    2    1    2  501    0  0.00000000000E+00  0.00000000000E+00  0.89253266829E+03  0.11074673317E+04  0.65564420750E+03 0.  0.
         13    1    3    3    0    0 -0.14873197344E+03  0.29214053299E+03  0.44660737625E+03  0.55400851930E+03  0.00000000000E+00 0. -1.
          2    1    3    3  501    0  0.14873197344E+03 -0.29214053299E+03  0.44592529205E+03  0.55345881241E+03  0.00000000000E+00 0. -1.
<mgrwt>
<rscale>  0 0.65564421E+03</rscale>
<asrwt>0</asrwt>
<pdfrwt beam="1">0</pdfrwt>
<pdfrwt beam="2">  1        2 0.39079112E+00 0.65564421E+03</pdfrwt>
<totfact> 0.43093260E+00</totfact>
</mgrwt>
</event>
<event>
 5    1  0.2368916E-004  0.6463704E+03  0.7818608E-02  0.9813614E-01
         13   -1    0    0    0    0  0.00000000000E+00  0.00000000000E+00  0.10000000000E+04  0.10000000000E+04  0.00000000000E+00 0. -1.
          2   -1    0    0  501    0 -0.00000000000E+00 -0.00000000000E+00 -0.10444867852E+03  0.10444867852E+03  0.00000000000E+00 0. -1.
    9000006    2    1    2  501    0  0.00000000000E+00  0.00000000000E+00  0.89555132148E+03  0.11044486785E+04  0.64637041554E+03 0.  0.
         13    1    3    3    0    0 -0.23343197440E+03 -0.44938691865E+02  0.82189247033E+03  0.85558004037E+03  0.00000000000E+00 0. -1.
          2    1    3    3  501    0  0.23343197440E+03  0.44938691865E+02  0.73658851152E+02  0.24886863815E+03  0.00000000000E+00 0. -1.
<mgrwt>
<rscale>  0 0.64637042E+03</rscale>
<asrwt>0</asrwt>
<pdfrwt beam="1">0</pdfrwt>
<pdfrwt beam="2">  1        2 0.37981418E+00 0.64637042E+03</pdfrwt>
<totfact> 0.47358321E+00</totfact>
</mgrwt>
</event>
<event>
 5    1  0.2368916E-004  0.6366212E+03  0.7818608E-02  0.9832213E-01
         13   -1    0    0    0    0  0.00000000000E+00  0.00000000000E+00  0.10000000000E+04  0.10000000000E+04  0.00000000000E+00 0. -1.
          2   -1    0    0  501    0 -0.00000000000E+00 -0.00000000000E+00 -0.10132164207E+03  0.10132164207E+03  0.00000000000E+00 0. -1.
    9000006    2    1    2  501    0  0.00000000000E+00  0.00000000000E+00  0.89867835793E+03  0.11013216421E+04  0.63662121255E+03 0.  0.
         13    1    3    3    0    0  0.13778382687E+03 -0.13310926830E+03  0.95811316013E+01  0.19181829511E+03  0.00000000000E+00 0. -1.
          2    1    3    3  501    0 -0.13778382687E+03  0.13310926830E+03  0.88909722633E+03  0.90950334696E+03  0.00000000000E+00 0. -1.
<mgrwt>
<rscale>  0 0.63662121E+03</rscale>
<asrwt>0</asrwt>
<pdfrwt beam="1">0</pdfrwt>
<pdfrwt beam="2">  1        2 0.36844311E+00 0.63662121E+03</pdfrwt>
<totfact> 0.52178833E+00</totfact>
</mgrwt>
</event>
<event>
 5    1  0.2368916E-004  0.6544930E+03  0.7818608E-02  0.9798385E-01
         13   -1    0    0    0    0  0.00000000000E+00  0.00000000000E+00  0.10000000000E+04  0.10000000000E+04  0.00000000000E+00 0. -1.
          2   -1    0    0  501    0 -0.00000000000E+00 -0.00000000000E+00 -0.10709026057E+03  0.10709026057E+03  0.00000000000E+00 0. -1.
    9000006    2    1    2  501    0  0.00000000000E+00  0.00000000000E+00  0.89290973943E+03  0.11070902606E+04  0.65449296579E+03 0.  0.
         13    1    3    3    0    0 -0.46163449821E+02 -0.28007568726E+03  0.72190225330E+03  0.77570375660E+03  0.00000000000E+00 0. -1.
          4    1    3    3  501    0  0.46163449821E+02  0.28007568726E+03  0.17100748614E+03  0.33138650396E+03  0.00000000000E+00 0. -1.
<mgrwt>
<rscale>  0 0.65449297E+03</rscale>
<asrwt>0</asrwt>
<pdfrwt beam="1">0</pdfrwt>
<pdfrwt beam="2">  1        2 0.38941995E+00 0.65449297E+03</pdfrwt>
<totfact> 0.43606291E+00</totfact>
</mgrwt>
</event>
<event>
 5    1  0.2368916E-004  0.6539716E+03  0.7818608E-02  0.9799355E-01
         13   -1    0    0    0    0  0.00000000000E+00  0.00000000000E+00  0.10000000000E+04  0.10000000000E+04  0.00000000000E+00 0. -1.
          2   -1    0    0  501    0 -0.00000000000E+00 -0.00000000000E+00 -0.10691972166E+03  0.10691972166E+03  0.00000000000E+00 0. -1.
    9000006    2    1    2  501    0  0.00000000000E+00  0.00000000000E+00  0.89308027834E+03  0.11069197217E+04  0.65397162526E+03 0.  0.
         13    1    3    3    0    0 -0.25201023802E+03 -0.17708143113E+03  0.26071695237E+03  0.40353478484E+03  0.00000000000E+00 0. -1.
          2    1    3    3  501    0  0.25201023802E+03  0.17708143113E+03  0.63236332597E+03  0.70338493683E+03  0.00000000000E+00 0. -1.
<mgrwt>
<rscale>  0 0.65397163E+03</rscale>
<asrwt>0</asrwt>
<pdfrwt beam="1">0</pdfrwt>
<pdfrwt beam="2">  1        2 0.38879981E+00 0.65397163E+03</pdfrwt>
<totfact> 0.43840129E+00</totfact>
</mgrwt>
</event>
<event>
 5    1  0.2368916E-004  0.6308098E+03  0.7818608E-02  0.9843470E-01
         13   -1    0    0    0    0  0.00000000000E+00  0.00000000000E+00  0.10000000000E+04  0.10000000000E+04  0.00000000000E+00 0. -1.
          2   -1    0    0  501    0 -0.00000000000E+00 -0.00000000000E+00 -0.99480259893E+02  0.99480259893E+02  0.00000000000E+00 0. -1.
    9000006    2    1    2  501    0  0.00000000000E+00  0.00000000000E+00  0.90051974011E+03  0.10994802599E+04  0.63080982837E+03 0.  0.
         13    1    3    3    0    0  0.14944596371E+03 -0.18461285325E+03  0.81195900553E+03  0.84598665965E+03  0.00000000000E+00 0. -1.
          4    1    3    3  501    0 -0.14944596371E+03  0.18461285325E+03  0.88560734580E+02  0.25349360024E+03  0.00000000000E+00 0. -1.
<mgrwt>
<rscale>  0 0.63080983E+03</rscale>
<asrwt>0</asrwt>
<pdfrwt beam="1">0</pdfrwt>
<pdfrwt beam="2">  1        2 0.36174716E+00 0.63080983E+03</pdfrwt>
<totfact> 0.55223868E+00</totfact>
</mgrwt>
</event>
<event>
 5    1  0.2368916E-004  0.6474267E+03  0.7818608E-02  0.9811620E-01
         13   -1    0    0    0    0  0.00000000000E+00  0.00000000000E+00  0.10000000000E+04  0.10000000000E+04  0.00000000000E+00 0. -1.
          2   -1    0    0  501    0 -0.00000000000E+00 -0.00000000000E+00 -0.10479033391E+03  0.10479033391E+03  0.00000000000E+00 0. -1.
    9000006    2    1    2  501    0  0.00000000000E+00  0.00000000000E+00  0.89520966609E+03  0.11047903339E+04  0.64742670291E+03 0.  0.
         13    1    3    3    0    0  0.11167378095E+02  0.31750816054E+03  0.34166582393E+03  0.46655297404E+03  0.00000000000E+00 0. -1.
          2    1    3    3  501    0 -0.11167378095E+02 -0.31750816054E+03  0.55354384216E+03  0.63823735987E+03  0.00000000000E+00 0. -1.
<mgrwt>
<rscale>  0 0.64742670E+03</rscale>
<asrwt>0</asrwt>
<pdfrwt beam="1">0</pdfrwt>
<pdfrwt beam="2">  1        2 0.38105656E+00 0.64742670E+03</pdfrwt>
<totfact> 0.46857084E+00</totfact>
</mgrwt>
</event>
<event>
 5    1  0.2368916E-004  0.6492849E+03  0.7818608E-02  0.9808122E-01
         13   -1    0    0    0    0  0.00000000000E+00  0.00000000000E+00  0.10000000000E+04  0.10000000000E+04  0.00000000000E+00 0. -1.
          2   -1    0    0  501    0 -0.00000000000E+00 -0.00000000000E+00 -0.10539273242E+03  0.10539273242E+03  0.00000000000E+00 0. -1.
    9000006    2    1    2  501    0  0.00000000000E+00  0.00000000000E+00  0.89460726758E+03  0.11053927324E+04  0.64928493719E+03 0.  0.
         13    1    3    3    0    0  0.15002479385E+02  0.12803452586E+03  0.95455844275E+03  0.96322361621E+03  0.00000000000E+00 0. -1.
          2    1    3    3  501    0 -0.15002479385E+02 -0.12803452586E+03 -0.59951175165E+02  0.14216911621E+03  0.00000000000E+00 0. -1.
<mgrwt>
<rscale>  0 0.64928494E+03</rscale>
<asrwt>0</asrwt>
<pdfrwt beam="1">0</pdfrwt>
<pdfrwt beam="2">  1        2 0.38324711E+00 0.64928494E+03</pdfrwt>
<totfact> 0.45985048E+00</totfact>
</mgrwt>
</event>
<event>
 5    1  0.2368916E-004  0.6373390E+03  0.7818608E-02  0.9830831E-01
         13   -1    0    0    0    0  0.00000000000E+00  0.00000000000E+00  0.10000000000E+04  0.10000000000E+04  0.00000000000E+00 0. -1.
          2   -1    0    0  501    0 -0.00000000000E+00 -0.00000000000E+00 -0.10155026440E+03  0.10155026440E+03  0.00000000000E+00 0. -1.
    9000006    2    1    2  501    0  0.00000000000E+00  0.00000000000E+00  0.89844973560E+03  0.11015502644E+04  0.63733904448E+03 0.  0.
         13    1    3    3    0    0 -0.30539610777E+03 -0.69519995297E+02  0.34770015018E+03  0.46796923705E+03  0.00000000000E+00 0. -1.
          2    1    3    3  501    0  0.30539610777E+03  0.69519995297E+02  0.55074958542E+03  0.63358102736E+03  0.00000000000E+00 0. -1.
<mgrwt>
<rscale>  0 0.63733904E+03</rscale>
<asrwt>0</asrwt>
<pdfrwt beam="1">0</pdfrwt>
<pdfrwt beam="2">  1        2 0.36927447E+00 0.63733904E+03</pdfrwt>
<totfact> 0.51811735E+00</totfact>
</mgrwt>
</event>
<event>
 5    1  0.2368916E-004  0.6227825E+03  0.7818608E-02  0.9859235E-01
         13   -1    0    0    0    0  0.00000000000E+00  0.00000000000E+00  0.10000000000E+04  0.10000000000E+04  0.00000000000E+00 0. -1.
          2   -1    0    0  501    0 -0.00000000000E+00 -0.00000000000E+00 -0.96964519843E+02  0.96964519843E+02  0.00000000000E+00 0. -1.
    9000006    2    1    2  501    0  0.00000000000E+00  0.00000000000E+00  0.90303548016E+03  0.10969645198E+04  0.62278252976E+03 0.  0.
         13    1    3    3    0    0  0.77856445856E+02 -0.16541272108E+03  0.89551979274E+03  0.91399053258E+03  0.00000000000E+00 0. -1.
          4    1    3    3  501    0 -0.77856445856E+02  0.16541272108E+03  0.75156874157E+01  0.18297398726E+03  0.00000000000E+00 0. -1.
<mgrwt>
<rscale>  0 0.62278253E+03</rscale>
<asrwt>0</asrwt>
<pdfrwt beam="1">0</pdfrwt>
<pdfrwt beam="2">  1        2 0.35259900E+00 0.62278253E+03</pdfrwt>
<totfact> 0.59649824E+00</totfact>
</mgrwt>
</event>
<event>
 5    1  0.2368916E-004  0.6416619E+03  0.7818608E-02  0.9822552E-01
         13   -1    0    0    0    0  0.00000000000E+00  0.00000000000E+00  0.10000000000E+04  0.10000000000E+04  0.00000000000E+00 0. -1.
          2   -1    0    0  501    0 -0.00000000000E+00 -0.00000000000E+00 -0.10293249808E+03  0.10293249808E+03  0.00000000000E+00 0. -1.
    9000006    2    1    2  501    0  0.00000000000E+00  0.00000000000E+00  0.89706750192E+03  0.11029324981E+04  0.64166189875E+03 0.  0.
         13    1    3    3    0    0  0.14888458702E+03  0.83986385815E+02  0.91520630983E+03  0.93103325548E+03  0.00000000000E+00 0. -1.
          2    1    3    3  501    0 -0.14888458702E+03 -0.83986385815E+02 -0.18138807903E+02  0.17189924260E+03  0.00000000000E+00 0. -1.
<mgrwt>
<rscale>  0 0.64166190E+03</rscale>
<asrwt>0</asrwt>
<pdfrwt beam="1">0</pdfrwt>
<pdfrwt beam="2">  1        2 0.37430078E+00 0.64166190E+03</pdfrwt>
<totfact> 0.49642218E+00</totfact>
</mgrwt>
</event>
<event>
 5    1  0.2368916E-004  0.6500813E+03  0.7818608E-02  0.9806627E-01
         13   -1    0    0    0    0  0.00000000000E+00  0.00000000000E+00  0.10000000000E+04  0.10000000000E+04  0.00000000000E+00 0. -1.
          2   -1    0    0  501    0 -0.00000000000E+00 -0.00000000000E+00 -0.10565144014E+03  0.10565144014E+03  0.00000000000E+00 0. -1.
    9000006    2    1    2  501    0  0.00000000000E+00  0.00000000000E+00  0.89434855986E+03  0.11056514401E+04  0.65008134919E+03 0.  0.
         13    1    3    3    0    0 -0.22097329169E+03 -0.79813915237E+02  0.65151155813E+02  0.24381166873E+03  0.00000000000E+00 0. -1.
          4    1    3    3  501    0  0.22097329169E+03  0.79813915237E+02  0.82919740404E+03  0.86183977141E+03  0.00000000000E+00 0. -1.
<mgrwt>
<rscale>  0 0.65008135E+03</rscale>
<asrwt>0</asrwt>
<pdfrwt beam="1">0</pdfrwt>
<pdfrwt beam="2">  1        2 0.38418787E+00 0.65008135E+03</pdfrwt>
<totfact> 0.45615086E+00</totfact>
</mgrwt>
</event>
<event>
 5    1  0.2368916E-004  0.6512851E+03  0.7818608E-02  0.9804371E-01
         13   -1    0    0    0    0  0.00000000000E+00  0.00000000000E+00  0.10000000000E+04  0.10000000000E+04  0.00000000000E+00 0. -1.
          4   -1    0    0  501    0 -0.00000000000E+00 -0.00000000000E+00 -0.10604307134E+03  0.10604307134E+03  0.00000000000E+00 0. -1.
    9000006    2    1    2  501    0  0.00000000000E+00  0.00000000000E+00  0.89395692866E+03  0.11060430713E+04  0.65128510296E+03 0.  0.
         13    1    3    3    0    0  0.10368960646E+03 -0.12328998333E+03 -0.33631831177E+02  0.16456930013E+03  0.00000000000E+00 0. -1.
          4    1    3    3  501    0 -0.10368960646E+03  0.12328998333E+03  0.92758875984E+03  0.94147377120E+03  0.00000000000E+00 0. -1.
<mgrwt>
<rscale>  0 0.65128510E+03</rscale>
<asrwt>0</asrwt>
<pdfrwt beam="1">0</pdfrwt>
<pdfrwt beam="2">  1        4 0.38561198E+00 0.65128510E+03</pdfrwt>
<totfact> 0.40209031E-02</totfact>
</mgrwt>
</event>
<event>
 5    1  0.2368916E-004  0.6472793E+03  0.7818608E-02  0.9811898E-01
         13   -1    0    0    0    0  0.00000000000E+00  0.00000000000E+00  0.10000000000E+04  0.10000000000E+04  0.00000000000E+00 0. -1.
          2   -1    0    0  501    0 -0.00000000000E+00 -0.00000000000E+00 -0.10474262026E+03  0.10474262026E+03  0.00000000000E+00 0. -1.
    9000006    2    1    2  501    0  0.00000000000E+00  0.00000000000E+00  0.89525737974E+03  0.11047426203E+04  0.64727929136E+03 0.  0.
         13    1    3    3    0    0  0.13327896744E+03  0.16228790109E+03  0.86792546939E+03  0.89296991350E+03  0.00000000000E+00 0. -1.
          2    1    3    3  501    0 -0.13327896744E+03 -0.16228790109E+03  0.27331910359E+02  0.21177270676E+03  0.00000000000E+00 0. -1.
<mgrwt>
<rscale>  0 0.64727929E+03</rscale>
<asrwt>0</asrwt>
<pdfrwt beam="1">0</pdfrwt>
<pdfrwt beam="2">  1        2 0.38088306E+00 0.64727929E+03</pdfrwt>
<totfact> 0.46926793E+00</totfact>
</mgrwt>
</event>
<event>
 5    1  0.2368916E-004  0.5448733E+03  0.7818608E-02  0.1002688E+00
         13   -1    0    0    0    0  0.00000000000E+00  0.00000000000E+00  0.10000000000E+04  0.10000000000E+04  0.00000000000E+00 0. -1.
          2   -1    0    0  501    0 -0.00000000000E+00 -0.00000000000E+00 -0.74221729578E+02  0.74221729578E+02  0.00000000000E+00 0. -1.
    9000006    2    1    2  501    0  0.00000000000E+00  0.00000000000E+00  0.92577827042E+03  0.10742217296E+04  0.54487330483E+03 0.  0.
         13    1    3    3    0    0  0.15972142059E+03 -0.20912674592E+03  0.32380629111E+03  0.41724745921E+03  0.00000000000E+00 0. -1.
          2    1    3    3  501    0 -0.15972142059E+03  0.20912674592E+03  0.60197197931E+03  0.65697427037E+03  0.00000000000E+00 0. -1.
<mgrwt>
<rscale>  0 0.54487330E+03</rscale>
<asrwt>0</asrwt>
<pdfrwt beam="1">0</pdfrwt>
<pdfrwt beam="2">  1        2 0.26989777E+00 0.54487330E+03</pdfrwt>
<totfact> 0.11828268E+01</totfact>
</mgrwt>
</event>
<event>
 5    1  0.2368916E-004  0.6226277E+03  0.7818608E-02  0.9859542E-01
         13   -1    0    0    0    0  0.00000000000E+00  0.00000000000E+00  0.10000000000E+04  0.10000000000E+04  0.00000000000E+00 0. -1.
          2   -1    0    0  501    0 -0.00000000000E+00 -0.00000000000E+00 -0.96916312872E+02  0.96916312872E+02  0.00000000000E+00 0. -1.
    9000006    2    1    2  501    0  0.00000000000E+00  0.00000000000E+00  0.90308368713E+03  0.10969163129E+04  0.62262769894E+03 0.  0.
         13    1    3    3    0    0 -0.10637946611E+02  0.30641872900E+03  0.35649351416E+03  0.47020551787E+03  0.00000000000E+00 0. -1.
          4    1    3    3  501    0  0.10637946611E+02 -0.30641872900E+03  0.54659017297E+03  0.62671079501E+03  0.00000000000E+00 0. -1.
<mgrwt>
<rscale>  0 0.62262770E+03</rscale>
<asrwt>0</asrwt>
<pdfrwt beam="1">0</pdfrwt>
<pdfrwt beam="2">  1        2 0.35242370E+00 0.62262770E+03</pdfrwt>
<totfact> 0.59737763E+00</totfact>
</mgrwt>
</event>
<event>
 5    1  0.2368916E-004  0.6743051E+03  0.7818608E-02  0.9762212E-01
         13   -1    0    0    0    0  0.00000000000E+00  0.00000000000E+00  0.10000000000E+04  0.10000000000E+04  0.00000000000E+00 0. -1.
          2   -1    0    0  501    0 -0.00000000000E+00 -0.00000000000E+00 -0.11367185791E+03  0.11367185791E+03  0.00000000000E+00 0. -1.
    9000006    2    1    2  501    0  0.00000000000E+00  0.00000000000E+00  0.88632814209E+03  0.11136718579E+04  0.67430514727E+03 0.  0.
         13    1    3    3    0    0 -0.23104222672E+03  0.15911309884E+03  0.13429408010E+03  0.31101830927E+03  0.00000000000E+00 0. -1.
          4    1    3    3  501    0  0.23104222672E+03 -0.15911309884E+03  0.75203406199E+03  0.80265354864E+03  0.00000000000E+00 0. -1.
<mgrwt>
<rscale>  0 0.67430515E+03</rscale>
<asrwt>0</asrwt>
<pdfrwt beam="1">0</pdfrwt>
<pdfrwt beam="2">  1        2 0.41335308E+00 0.67430515E+03</pdfrwt>
<totfact> 0.35395717E+00</totfact>
</mgrwt>
</event>
<event>
 5    1  0.2368916E-004  0.6540718E+03  0.7818608E-02  0.9799169E-01
         13   -1    0    0    0    0  0.00000000000E+00  0.00000000000E+00  0.10000000000E+04  0.10000000000E+04  0.00000000000E+00 0. -1.
          2   -1    0    0  501    0 -0.00000000000E+00 -0.00000000000E+00 -0.10695248431E+03  0.10695248431E+03  0.00000000000E+00 0. -1.
    9000006    2    1    2  501    0  0.00000000000E+00  0.00000000000E+00  0.89304751569E+03  0.11069524843E+04  0.65407181351E+03 0.  0.
         13    1    3    3    0    0  0.19186458645E+02  0.32334193838E+03  0.37018995212E+03  0.49189300662E+03  0.00000000000E+00 0. -1.
          2    1    3    3  501    0 -0.19186458645E+02 -0.32334193838E+03  0.52285756357E+03  0.61505947769E+03  0.00000000000E+00 0. -1.
<mgrwt>
<rscale>  0 0.65407181E+03</rscale>
<asrwt>0</asrwt>
<pdfrwt beam="1">0</pdfrwt>
<pdfrwt beam="2">  1        2 0.38891894E+00 0.65407181E+03</pdfrwt>
<totfact> 0.43795118E+00</totfact>
</mgrwt>
</event>
<event>
 5    1  0.2368916E-004  0.6514155E+03  0.7818608E-02  0.9804127E-01
         13   -1    0    0    0    0  0.00000000000E+00  0.00000000000E+00  0.10000000000E+04  0.10000000000E+04  0.00000000000E+00 0. -1.
          2   -1    0    0  501    0 -0.00000000000E+00 -0.00000000000E+00 -0.10608552796E+03  0.10608552796E+03  0.00000000000E+00 0. -1.
    9000006    2    1    2  501    0  0.00000000000E+00  0.00000000000E+00  0.89391447204E+03  0.11060855280E+04  0.65141546791E+03 0.  0.
         13    1    3    3    0    0  0.89744002186E+02  0.30655769861E+03  0.55506781696E+03  0.64041540419E+03  0.00000000000E+00 0. -1.
          4    1    3    3  501    0 -0.89744002186E+02 -0.30655769861E+03  0.33884665508E+03  0.46567012377E+03  0.00000000000E+00 0. -1.
<mgrwt>
<rscale>  0 0.65141547E+03</rscale>
<asrwt>0</asrwt>
<pdfrwt beam="1">0</pdfrwt>
<pdfrwt beam="2">  1        2 0.38576637E+00 0.65141547E+03</pdfrwt>
<totfact> 0.45000386E+00</totfact>
</mgrwt>
</event>
<event>
 5    1  0.2368916E-004  0.6616006E+03  0.7818608E-02  0.9785252E-01
         13   -1    0    0    0    0  0.00000000000E+00  0.00000000000E+00  0.10000000000E+04  0.10000000000E+04  0.00000000000E+00 0. -1.
          2   -1    0    0  501    0 -0.00000000000E+00 -0.00000000000E+00 -0.10942882631E+03  0.10942882631E+03  0.00000000000E+00 0. -1.
    9000006    2    1    2  501    0  0.00000000000E+00  0.00000000000E+00  0.89057117369E+03  0.11094288263E+04  0.66160056321E+03 0.  0.
         13    1    3    3    0    0 -0.15044199985E+03  0.71163892099E+02 -0.34115406297E+02  0.16988512532E+03  0.00000000000E+00 0. -1.
          2    1    3    3  501    0  0.15044199985E+03 -0.71163892099E+02  0.92468657999E+03  0.93954370099E+03  0.00000000000E+00 0. -1.
<mgrwt>
<rscale>  0 0.66160056E+03</rscale>
<asrwt>0</asrwt>
<pdfrwt beam="1">0</pdfrwt>
<pdfrwt beam="2">  1        2 0.39792384E+00 0.66160056E+03</pdfrwt>
<totfact> 0.40511419E+00</totfact>
</mgrwt>
</event>
<event>
 5    1  0.2368916E-004  0.6563017E+03  0.7818608E-02  0.9795026E-01
         13   -1    0    0    0    0  0.00000000000E+00  0.00000000000E+00  0.10000000000E+04  0.10000000000E+04  0.00000000000E+00 0. -1.
          2   -1    0    0  501    0 -0.00000000000E+00 -0.00000000000E+00 -0.10768299047E+03  0.10768299047E+03  0.00000000000E+00 0. -1.
    9000006    2    1    2  501    0  0.00000000000E+00  0.00000000000E+00  0.89231700953E+03  0.11076829905E+04  0.65630173082E+03 0.  0.
         13    1    3    3    0    0 -0.84073243138E+02  0.25727237049E+03  0.13300826793E+03  0.30157682631E+03  0.00000000000E+00 0. -1.
          2    1    3    3  501    0  0.84073243138E+02 -0.25727237049E+03  0.75930874160E+03  0.80610616416E+03  0.00000000000E+00 0. -1.
<mgrwt>
<rscale>  0 0.65630173E+03</rscale>
<asrwt>0</asrwt>
<pdfrwt beam="1">0</pdfrwt>
<pdfrwt beam="2">  1        2 0.39157534E+00 0.65630173E+03</pdfrwt>
<totfact> 0.42802298E+00</totfact>
</mgrwt>
</event>
<event>
 5    1  0.2368916E-004  0.6436466E+03  0.7818608E-02  0.9818774E-01
         13   -1    0    0    0    0  0.00000000000E+00  0.00000000000E+00  0.10000000000E+04  0.10000000000E+04  0.00000000000E+00 0. -1.
          2   -1    0    0  501    0 -0.00000000000E+00 -0.00000000000E+00 -0.10357024232E+03  0.10357024232E+03  0.00000000000E+00 0. -1.
    9000006    2    1    2  501    0  0.00000000000E+00  0.00000000000E+00  0.89642975768E+03  0.11035702423E+04  0.64364661834E+03 0.  0.
         13    1    3    3    0    0 -0.44043090620E+02 -0.27659680609E+03  0.71998552436E+03  0.77254433029E+03  0.00000000000E+00 0. -1.
          2    1    3    3  501    0  0.44043090620E+02  0.27659680609E+03  0.17644423332E+03  0.33102591204E+03  0.00000000000E+00 0. -1.
<mgrwt>
<rscale>  0 0.64364662E+03</rscale>
<asrwt>0</asrwt>
<pdfrwt beam="1">0</pdfrwt>
<pdfrwt beam="2">  1        2 0.37661986E+00 0.64364662E+03</pdfrwt>
<totfact> 0.48669558E+00</totfact>
</mgrwt>
</event>
<event>
 5    1  0.2368916E-004  0.6714168E+03  0.7818608E-02  0.9767402E-01
         13   -1    0    0    0    0  0.00000000000E+00  0.00000000000E+00  0.10000000000E+04  0.10000000000E+04  0.00000000000E+00 0. -1.
          2   -1    0    0  501    0 -0.00000000000E+00 -0.00000000000E+00 -0.11270013871E+03  0.11270013871E+03  0.00000000000E+00 0. -1.
    9000006    2    1    2  501    0  0.00000000000E+00  0.00000000000E+00  0.88729986129E+03  0.11127001387E+04  0.67141682644E+03 0.  0.
         13    1    3    3    0    0 -0.73804869113E+02 -0.27069372113E+03  0.74913087188E+03  0.79994956877E+03  0.00000000000E+00 0. -1.
          2    1    3    3  501    0  0.73804869113E+02  0.27069372113E+03  0.13816898941E+03  0.31275056994E+03  0.00000000000E+00 0. -1.
<mgrwt>
<rscale>  0 0.67141683E+03</rscale>
<asrwt>0</asrwt>
<pdfrwt beam="1">0</pdfrwt>
<pdfrwt beam="2">  1        2 0.40981955E+00 0.67141683E+03</pdfrwt>
<totfact> 0.36513303E+00</totfact>
</mgrwt>
</event>
<event>
 5    1  0.2368916E-004  0.6622132E+03  0.7818608E-02  0.9784128E-01
         13   -1    0    0    0    0  0.00000000000E+00  0.00000000000E+00  0.10000000000E+04  0.10000000000E+04  0.00000000000E+00 0. -1.
          2   -1    0    0  501    0 -0.00000000000E+00 -0.00000000000E+00 -0.10963157046E+03  0.10963157046E+03  0.00000000000E+00 0. -1.
    9000006    2    1    2  501    0  0.00000000000E+00  0.00000000000E+00  0.89036842954E+03  0.11096315705E+04  0.66221316949E+03 0.  0.
         13    1    3    3    0    0  0.29994276412E+03  0.13164015239E+03  0.36418332095E+03  0.48982066384E+03  0.00000000000E+00 0. -1.
          4    1    3    3  501    0 -0.29994276412E+03 -0.13164015239E+03  0.52618510859E+03  0.61981090662E+03  0.00000000000E+00 0. -1.
<mgrwt>
<rscale>  0 0.66221317E+03</rscale>
<asrwt>0</asrwt>
<pdfrwt beam="1">0</pdfrwt>
<pdfrwt beam="2">  1        2 0.39866110E+00 0.66221317E+03</pdfrwt>
<totfact> 0.40252673E+00</totfact>
</mgrwt>
</event>
<event>
 5    1  0.2368916E-004  0.6661331E+03  0.7818608E-02  0.9776969E-01
         13   -1    0    0    0    0  0.00000000000E+00  0.00000000000E+00  0.10000000000E+04  0.10000000000E+04  0.00000000000E+00 0. -1.
          2   -1    0    0  501    0 -0.00000000000E+00 -0.00000000000E+00 -0.11093333219E+03  0.11093333219E+03  0.00000000000E+00 0. -1.
    9000006    2    1    2  501    0  0.00000000000E+00  0.00000000000E+00  0.88906666781E+03  0.11109333322E+04  0.66613311641E+03 0.  0.
         13    1    3    3    0    0 -0.19014566846E+03 -0.87407774646E+02  0.87665958319E+03  0.90129213860E+03  0.00000000000E+00 0. -1.
          4    1    3    3  501    0  0.19014566846E+03  0.87407774646E+02  0.12407084615E+02  0.20964119359E+03  0.00000000000E+00 0. -1.
<mgrwt>
<rscale>  0 0.66613312E+03</rscale>
<asrwt>0</asrwt>
<pdfrwt beam="1">0</pdfrwt>
<pdfrwt beam="2">  1        2 0.40339479E+00 0.66613312E+03</pdfrwt>
<totfact> 0.38626391E+00</totfact>
</mgrwt>
</event>
<event>
 5    1  0.2368916E-004  0.6464051E+03  0.7818608E-02  0.9813548E-01
         13   -1    0    0    0    0  0.00000000000E+00  0.00000000000E+00  0.10000000000E+04  0.10000000000E+04  0.00000000000E+00 0. -1.
          2   -1    0    0  501    0 -0.00000000000E+00 -0.00000000000E+00 -0.10445988909E+03  0.10445988909E+03  0.00000000000E+00 0. -1.
    9000006    2    1    2  501    0  0.00000000000E+00  0.00000000000E+00  0.89554011091E+03  0.11044598891E+04  0.64640510237E+03 0.  0.
         13    1    3    3    0    0  0.41480943389E+01  0.26328020355E+03  0.12754090650E+03  0.29257538362E+03  0.00000000000E+00 0. -1.
          4    1    3    3  501    0 -0.41480943389E+01 -0.26328020355E+03  0.76799920440E+03  0.81188450548E+03  0.00000000000E+00 0. -1.
<mgrwt>
<rscale>  0 0.64640510E+03</rscale>
<asrwt>0</asrwt>
<pdfrwt beam="1">0</pdfrwt>
<pdfrwt beam="2">  1        2 0.37985494E+00 0.64640510E+03</pdfrwt>
<totfact> 0.47341797E+00</totfact>
</mgrwt>
</event>
<event>
 5    1  0.2368916E-004  0.6438966E+03  0.7818608E-02  0.9818300E-01
         13   -1    0    0    0    0  0.00000000000E+00  0.00000000000E+00  0.10000000000E+04  0.10000000000E+04  0.00000000000E+00 0. -1.
          2   -1    0    0  501    0 -0.00000000000E+00 -0.00000000000E+00 -0.10365069862E+03  0.10365069862E+03  0.00000000000E+00 0. -1.
    9000006    2    1    2  501    0  0.00000000000E+00  0.00000000000E+00  0.89634930138E+03  0.11036506986E+04  0.64389657127E+03 0.  0.
         13    1    3    3    0    0 -0.22620962740E+03 -0.15387107097E+03  0.15727788669E+03  0.31556843260E+03  0.00000000000E+00 0. -1.
          4    1    3    3  501    0  0.22620962740E+03  0.15387107097E+03  0.73907141469E+03  0.78808226602E+03  0.00000000000E+00 0. -1.
<mgrwt>
<rscale>  0 0.64389657E+03</rscale>
<asrwt>0</asrwt>
<pdfrwt beam="1">0</pdfrwt>
<pdfrwt beam="2">  1        2 0.37691243E+00 0.64389657E+03</pdfrwt>
<totfact> 0.48548099E+00</totfact>
</mgrwt>
</event>
<event>
 5    1  0.2368916E-004  0.6100841E+03  0.7818608E-02  0.9884703E-01
         13   -1    0    0    0    0  0.00000000000E+00  0.00000000000E+00  0.10000000000E+04  0.10000000000E+04  0.00000000000E+00 0. -1.
          2   -1    0    0  501    0 -0.00000000000E+00 -0.00000000000E+00 -0.93050639988E+02  0.93050639988E+02  0.00000000000E+00 0. -1.
    9000006    2    1    2  501    0  0.00000000000E+00  0.00000000000E+00  0.90694936001E+03  0.10930506400E+04  0.61008405974E+03 0.  0.
         13    1    3    3    0    0  0.17471583090E+03  0.75996443749E+02  0.88028199122E+03  0.90066501270E+03  0.00000000000E+00 0. -1.
          4    1    3    3  501    0 -0.17471583090E+03 -0.75996443749E+02  0.26667368790E+02  0.19238562729E+03  0.00000000000E+00 0. -1.
<mgrwt>
<rscale>  0 0.61008406E+03</rscale>
<asrwt>0</asrwt>
<pdfrwt beam="1">0</pdfrwt>
<pdfrwt beam="2">  1        2 0.33836668E+00 0.61008406E+03</pdfrwt>
<totfact> 0.67196869E+00</totfact>
</mgrwt>
</event>
<event>
 5    1  0.2368916E-004  0.6548367E+03  0.7818608E-02  0.9797746E-01
         13   -1    0    0    0    0  0.00000000000E+00  0.00000000000E+00  0.10000000000E+04  0.10000000000E+04  0.00000000000E+00 0. -1.
          2   -1    0    0  501    0 -0.00000000000E+00 -0.00000000000E+00 -0.10720278489E+03  0.10720278489E+03  0.00000000000E+00 0. -1.
    9000006    2    1    2  501    0  0.00000000000E+00  0.00000000000E+00  0.89279721511E+03  0.11072027849E+04  0.65483672742E+03 0.  0.
         13    1    3    3    0    0 -0.17935623068E+03  0.26921998194E+03  0.53185932537E+03  0.62251297026E+03  0.00000000000E+00 0. -1.
          4    1    3    3  501    0  0.17935623068E+03 -0.26921998194E+03  0.36093788974E+03  0.48468981463E+03  0.00000000000E+00 0. -1.
<mgrwt>
<rscale>  0 0.65483673E+03</rscale>
<asrwt>0</asrwt>
<pdfrwt beam="1">0</pdfrwt>
<pdfrwt beam="2">  1        2 0.38982913E+00 0.65483673E+03</pdfrwt>
<totfact> 0.43452619E+00</totfact>
</mgrwt>
</event>
<event>
 5    1  0.2368916E-004  0.6545029E+03  0.7818608E-02  0.9798366E-01
         13   -1    0    0    0    0  0.00000000000E+00  0.00000000000E+00  0.10000000000E+04  0.10000000000E+04  0.00000000000E+00 0. -1.
          2   -1    0    0  501    0 -0.00000000000E+00 -0.00000000000E+00 -0.10709350753E+03  0.10709350753E+03  0.00000000000E+00 0. -1.
    9000006    2    1    2  501    0  0.00000000000E+00  0.00000000000E+00  0.89290649247E+03  0.11070935075E+04  0.65450288780E+03 0.  0.
         13    1    3    3    0    0  0.19579271340E+03  0.11576204423E+03  0.84443432294E+03  0.87453128204E+03  0.00000000000E+00 0. -1.
          4    1    3    3  501    0 -0.19579271340E+03 -0.11576204423E+03  0.48472169523E+02  0.23256222549E+03  0.00000000000E+00 0. -1.
<mgrwt>
<rscale>  0 0.65450289E+03</rscale>
<asrwt>0</asrwt>
<pdfrwt beam="1">0</pdfrwt>
<pdfrwt beam="2">  1        2 0.38943176E+00 0.65450289E+03</pdfrwt>
<totfact> 0.43601850E+00</totfact>
</mgrwt>
</event>
<event>
 5    1  0.2368916E-004  0.6148298E+03  0.7818608E-02  0.9875108E-01
         13   -1    0    0    0    0  0.00000000000E+00  0.00000000000E+00  0.10000000000E+04  0.10000000000E+04  0.00000000000E+00 0. -1.
          2   -1    0    0  501    0 -0.00000000000E+00 -0.00000000000E+00 -0.94503930065E+02  0.94503930065E+02  0.00000000000E+00 0. -1.
    9000006    2    1    2  501    0  0.00000000000E+00  0.00000000000E+00  0.90549606994E+03  0.10945039301E+04  0.61482983033E+03 0.  0.
         13    1    3    3    0    0  0.22048422345E+03  0.10516366266E+03  0.78498417395E+03  0.82211485942E+03  0.00000000000E+00 0. -1.
          4    1    3    3  501    0 -0.22048422345E+03 -0.10516366266E+03  0.12051189599E+03  0.27238907064E+03  0.00000000000E+00 0. -1.
<mgrwt>
<rscale>  0 0.61482983E+03</rscale>
<asrwt>0</asrwt>
<pdfrwt beam="1">0</pdfrwt>
<pdfrwt beam="2">  1        2 0.34365138E+00 0.61482983E+03</pdfrwt>
<totfact> 0.64295922E+00</totfact>
</mgrwt>
</event>
<event>
 5    1  0.2368916E-004  0.6409693E+03  0.7818608E-02  0.9823874E-01
         13   -1    0    0    0    0  0.00000000000E+00  0.00000000000E+00  0.10000000000E+04  0.10000000000E+04  0.00000000000E+00 0. -1.
          2   -1    0    0  501    0 -0.00000000000E+00 -0.00000000000E+00 -0.10271041791E+03  0.10271041791E+03  0.00000000000E+00 0. -1.
    9000006    2    1    2  501    0  0.00000000000E+00  0.00000000000E+00  0.89728958209E+03  0.11027104179E+04  0.64096932193E+03 0.  0.
         13    1    3    3    0    0  0.12747379351E+02  0.13275972409E+03  0.94998937745E+03  0.95930571628E+03  0.00000000000E+00 0. -1.
          2    1    3    3  501    0 -0.12747379351E+02 -0.13275972409E+03 -0.52699795358E+02  0.14340470164E+03  0.00000000000E+00 0. -1.
<mgrwt>
<rscale>  0 0.64096932E+03</rscale>
<asrwt>0</asrwt>
<pdfrwt beam="1">0</pdfrwt>
<pdfrwt beam="2">  1        2 0.37349322E+00 0.64096932E+03</pdfrwt>
<totfact> 0.49985086E+00</totfact>
</mgrwt>
</event>
<event>
 5    1  0.2368916E-004  0.6522698E+03  0.7818608E-02  0.9802529E-01
         13   -1    0    0    0    0  0.00000000000E+00  0.00000000000E+00  0.10000000000E+04  0.10000000000E+04  0.00000000000E+00 0. -1.
          2   -1    0    0  501    0 -0.00000000000E+00 -0.00000000000E+00 -0.10636397805E+03  0.10636397805E+03  0.00000000000E+00 0. -1.
    9000006    2    1    2  501    0  0.00000000000E+00  0.00000000000E+00  0.89363602195E+03  0.11063639780E+04  0.65226981548E+03 0.  0.
         13    1    3    3    0    0  0.29493745426E+03  0.95352769730E+02  0.61882495579E+03  0.69211601522E+03  0.00000000000E+00 0. -1.
          4    1    3    3  501    0 -0.29493745426E+03 -0.95352769730E+02  0.27481106616E+03  0.41424796282E+03  0.00000000000E+00 0. -1.
<mgrwt>
<rscale>  0 0.65226982E+03</rscale>
<asrwt>0</asrwt>
<pdfrwt beam="1">0</pdfrwt>
<pdfrwt beam="2">  1        2 0.38677892E+00 0.65226982E+03</pdfrwt>
<totfact> 0.44610043E+00</totfact>
</mgrwt>
</event>
<event>
 5    1  0.2368916E-004  0.6487297E+03  0.7818608E-02  0.9809166E-01
         13   -1    0    0    0    0  0.00000000000E+00  0.00000000000E+00  0.10000000000E+04  0.10000000000E+04  0.00000000000E+00 0. -1.
          2   -1    0    0  501    0 -0.00000000000E+00 -0.00000000000E+00 -0.10521254843E+03  0.10521254843E+03  0.00000000000E+00 0. -1.
    9000006    2    1    2  501    0  0.00000000000E+00  0.00000000000E+00  0.89478745157E+03  0.11052125484E+04  0.64872967693E+03 0.  0.
         13    1    3    3    0    0 -0.49912774863E+02 -0.58996905856E+02 -0.89300341273E+02  0.11809517749E+03  0.00000000000E+00 0. -1.
          2    1    3    3  501    0  0.49912774863E+02  0.58996905856E+02  0.98408779284E+03  0.98711737094E+03  0.00000000000E+00 0. -1.
<mgrwt>
<rscale>  0 0.64872968E+03</rscale>
<asrwt>0</asrwt>
<pdfrwt beam="1">0</pdfrwt>
<pdfrwt beam="2">  1        2 0.38259189E+00 0.64872968E+03</pdfrwt>
<totfact> 0.46244325E+00</totfact>
</mgrwt>
</event>
<event>
 5    1  0.2368916E-004  0.6528242E+03  0.7818608E-02  0.9801494E-01
         13   -1    0    0    0    0  0.00000000000E+00  0.00000000000E+00  0.10000000000E+04  0.10000000000E+04  0.00000000000E+00 0. -1.
          2   -1    0    0  501    0 -0.00000000000E+00 -0.00000000000E+00 -0.10654484983E+03  0.10654484983E+03  0.00000000000E+00 0. -1.
    9000006    2    1    2  501    0  0.00000000000E+00  0.00000000000E+00  0.89345515017E+03  0.11065448498E+04  0.65282417182E+03 0.  0.
         13    1    3    3    0    0 -0.13731127251E+03 -0.54134756341E+02  0.94020579919E+03  0.95172049585E+03  0.00000000000E+00 0. -1.
          4    1    3    3  501    0  0.13731127251E+03  0.54134756341E+02 -0.46750649015E+02  0.15482435398E+03  0.00000000000E+00 0. -1.
<mgrwt>
<rscale>  0 0.65282417E+03</rscale>
<asrwt>0</asrwt>
<pdfrwt beam="1">0</pdfrwt>
<pdfrwt beam="2">  1        2 0.38743663E+00 0.65282417E+03</pdfrwt>
<totfact> 0.44358134E+00</totfact>
</mgrwt>
</event>
<event>
 5    1  0.2368916E-004  0.6583265E+03  0.7818608E-02  0.9791279E-01
         13   -1    0    0    0    0  0.00000000000E+00  0.00000000000E+00  0.10000000000E+04  0.10000000000E+04  0.00000000000E+00 0. -1.
          2   -1    0    0  501    0 -0.00000000000E+00 -0.00000000000E+00 -0.10834844616E+03  0.10834844616E+03  0.00000000000E+00 0. -1.
    9000006    2    1    2  501    0  0.00000000000E+00  0.00000000000E+00  0.89165155384E+03  0.11083484462E+04  0.65832650306E+03 0.  0.
         13    1    3    3    0    0  0.13321467565E+03  0.29001604379E+03  0.31016404175E+03  0.44503616511E+03  0.00000000000E+00 0. -1.
          4    1    3    3  501    0 -0.13321467565E+03 -0.29001604379E+03  0.58148751210E+03  0.66331228105E+03  0.00000000000E+00 0. -1.
<mgrwt>
<rscale>  0 0.65832650E+03</rscale>
<asrwt>0</asrwt>
<pdfrwt beam="1">0</pdfrwt>
<pdfrwt beam="2">  1        2 0.39399518E+00 0.65832650E+03</pdfrwt>
<totfact> 0.41915628E+00</totfact>
</mgrwt>
</event>
<event>
 5    1  0.2368916E-004  0.6557462E+03  0.7818608E-02  0.9796056E-01
         13   -1    0    0    0    0  0.00000000000E+00  0.00000000000E+00  0.10000000000E+04  0.10000000000E+04  0.00000000000E+00 0. -1.
          2   -1    0    0  501    0 -0.00000000000E+00 -0.00000000000E+00 -0.10750078544E+03  0.10750078544E+03  0.00000000000E+00 0. -1.
    9000006    2    1    2  501    0  0.00000000000E+00  0.00000000000E+00  0.89249921456E+03  0.11075007854E+04  0.65574624798E+03 0.  0.
         13    1    3    3    0    0 -0.26604687201E+03 -0.14106285293E+03  0.66529577944E+03  0.73027264821E+03  0.00000000000E+00 0. -1.
          2    1    3    3  501    0  0.26604687201E+03  0.14106285293E+03  0.22720343512E+03  0.37722813723E+03  0.00000000000E+00 0. -1.
<mgrwt>
<rscale>  0 0.65574625E+03</rscale>
<asrwt>0</asrwt>
<pdfrwt beam="1">0</pdfrwt>
<pdfrwt beam="2">  1        2 0.39091277E+00 0.65574625E+03</pdfrwt>
<totfact> 0.43048008E+00</totfact>
</mgrwt>
</event>
<event>
 5    1  0.2368916E-004  0.6516406E+03  0.7818608E-02  0.9803705E-01
         13   -1    0    0    0    0  0.00000000000E+00  0.00000000000E+00  0.10000000000E+04  0.10000000000E+04  0.00000000000E+00 0. -1.
          2   -1    0    0  501    0 -0.00000000000E+00 -0.00000000000E+00 -0.10615888338E+03  0.10615888338E+03  0.00000000000E+00 0. -1.
    9000006    2    1    2  501    0  0.00000000000E+00  0.00000000000E+00  0.89384111662E+03  0.11061588834E+04  0.65164064752E+03 0.  0.
         13    1    3    3    0    0  0.26754247435E+03 -0.76989641370E+02  0.73425694598E+03  0.78526405952E+03  0.00000000000E+00 0. -1.
          4    1    3    3  501    0 -0.26754247435E+03  0.76989641370E+02  0.15958417065E+03  0.32089482386E+03  0.00000000000E+00 0. -1.
<mgrwt>
<rscale>  0 0.65164065E+03</rscale>
<asrwt>0</asrwt>
<pdfrwt beam="1">0</pdfrwt>
<pdfrwt beam="2">  1        2 0.38603312E+00 0.65164065E+03</pdfrwt>
<totfact> 0.44897254E+00</totfact>
</mgrwt>
</event>
<event>
 5    1  0.2368916E-004  0.6634498E+03  0.7818608E-02  0.9781864E-01
         13   -1    0    0    0    0  0.00000000000E+00  0.00000000000E+00  0.10000000000E+04  0.10000000000E+04  0.00000000000E+00 0. -1.
          2   -1    0    0  501    0 -0.00000000000E+00 -0.00000000000E+00 -0.11004140030E+03  0.11004140030E+03  0.00000000000E+00 0. -1.
    9000006    2    1    2  501    0  0.00000000000E+00  0.00000000000E+00  0.88995859970E+03  0.11100414003E+04  0.66344977294E+03 0.  0.
         13    1    3    3    0    0 -0.85481936098E+02  0.16002834096E+03  0.90963277666E+03  0.92754947021E+03  0.00000000000E+00 0. -1.
          4    1    3    3  501    0  0.85481936098E+02 -0.16002834096E+03 -0.19674176968E+02  0.18249193009E+03  0.00000000000E+00 0. -1.
<mgrwt>
<rscale>  0 0.66344977E+03</rscale>
<asrwt>0</asrwt>
<pdfrwt beam="1">0</pdfrwt>
<pdfrwt beam="2">  1        2 0.40015139E+00 0.66344977E+03</pdfrwt>
<totfact> 0.39734171E+00</totfact>
</mgrwt>
</event>
<event>
 5    1  0.2368916E-004  0.6487104E+03  0.7818608E-02  0.9809202E-01
         13   -1    0    0    0    0  0.00000000000E+00  0.00000000000E+00  0.10000000000E+04  0.10000000000E+04  0.00000000000E+00 0. -1.
          2   -1    0    0  501    0 -0.00000000000E+00 -0.00000000000E+00 -0.10520628139E+03  0.10520628139E+03  0.00000000000E+00 0. -1.
    9000006    2    1    2  501    0  0.00000000000E+00  0.00000000000E+00  0.89479371861E+03  0.11052062814E+04  0.64871035566E+03 0.  0.
         13    1    3    3    0    0 -0.20847363215E+03 -0.18223960240E+03  0.15960933346E+03  0.31960548699E+03  0.00000000000E+00 0. -1.
          2    1    3    3  501    0  0.20847363215E+03  0.18223960240E+03  0.73518438515E+03  0.78560079440E+03  0.00000000000E+00 0. -1.
<mgrwt>
<rscale>  0 0.64871036E+03</rscale>
<asrwt>0</asrwt>
<pdfrwt beam="1">0</pdfrwt>
<pdfrwt beam="2">  1        2 0.38256910E+00 0.64871036E+03</pdfrwt>
<totfact> 0.46253367E+00</totfact>
</mgrwt>
</event>
<event>
 5    1  0.2368916E-004  0.6529257E+03  0.7818608E-02  0.9801305E-01
         13   -1    0    0    0    0  0.00000000000E+00  0.00000000000E+00  0.10000000000E+04  0.10000000000E+04  0.00000000000E+00 0. -1.
          2   -1    0    0  501    0 -0.00000000000E+00 -0.00000000000E+00 -0.10657800019E+03  0.10657800019E+03  0.00000000000E+00 0. -1.
    9000006    2    1    2  501    0  0.00000000000E+00  0.00000000000E+00  0.89342199981E+03  0.11065780002E+04  0.65292572378E+03 0.  0.
         13    1    3    3    0    0  0.18800076004E+03  0.26498850622E+03  0.39272144297E+03  0.50969925052E+03  0.00000000000E+00 0. -1.
          2    1    3    3  501    0 -0.18800076004E+03 -0.26498850622E+03  0.50070055683E+03  0.59687874968E+03  0.00000000000E+00 0. -1.
<mgrwt>
<rscale>  0 0.65292572E+03</rscale>
<asrwt>0</asrwt>
<pdfrwt beam="1">0</pdfrwt>
<pdfrwt beam="2">  1        2 0.38755718E+00 0.65292572E+03</pdfrwt>
<totfact> 0.44312104E+00</totfact>
</mgrwt>
</event>
<event>
 5    1  0.2368916E-004  0.6689227E+03  0.7818608E-02  0.9771906E-01
         13   -1    0    0    0    0  0.00000000000E+00  0.00000000000E+00  0.10000000000E+04  0.10000000000E+04  0.00000000000E+00 0. -1.
          2   -1    0    0  501    0 -0.00000000000E+00 -0.00000000000E+00 -0.11186438538E+03  0.11186438538E+03  0.00000000000E+00 0. -1.
    9000006    2    1    2  501    0  0.00000000000E+00  0.00000000000E+00  0.88813561462E+03  0.11118643854E+04  0.66892267230E+03 0.  0.
         13    1    3    3    0    0 -0.14553781117E+03  0.27858594014E+03  0.25401967123E+03  0.40412544326E+03  0.00000000000E+00 0. -1.
          4    1    3    3  501    0  0.14553781117E+03 -0.27858594014E+03  0.63411594339E+03  0.70773894212E+03  0.00000000000E+00 0. -1.
<mgrwt>
<rscale>  0 0.66892267E+03</rscale>
<asrwt>0</asrwt>
<pdfrwt beam="1">0</pdfrwt>
<pdfrwt beam="2">  1        2 0.40678044E+00 0.66892267E+03</pdfrwt>
<totfact> 0.37499616E+00</totfact>
</mgrwt>
</event>
<event>
 5    1  0.2368916E-004  0.6626802E+03  0.7818608E-02  0.9783272E-01
         13   -1    0    0    0    0  0.00000000000E+00  0.00000000000E+00  0.10000000000E+04  0.10000000000E+04  0.00000000000E+00 0. -1.
          2   -1    0    0  501    0 -0.00000000000E+00 -0.00000000000E+00 -0.10978624676E+03  0.10978624676E+03  0.00000000000E+00 0. -1.
    9000006    2    1    2  501    0  0.00000000000E+00  0.00000000000E+00  0.89021375324E+03  0.11097862468E+04  0.66268015441E+03 0.  0.
         13    1    3    3    0    0  0.19078977174E+03 -0.64033197203E+02  0.88592130126E+03  0.90849190385E+03  0.00000000000E+00 0. -1.
          2    1    3    3  501    0 -0.19078977174E+03  0.64033197203E+02  0.42924519794E+01  0.20129434291E+03  0.00000000000E+00 0. -1.
<mgrwt>
<rscale>  0 0.66268015E+03</rscale>
<asrwt>0</asrwt>
<pdfrwt beam="1">0</pdfrwt>
<pdfrwt beam="2">  1        2 0.39922356E+00 0.66268015E+03</pdfrwt>
<totfact> 0.40056273E+00</totfact>
</mgrwt>
</event>
<event>
 5    1  0.2368916E-004  0.5432239E+03  0.7818608E-02  0.1003075E+00
         13   -1    0    0    0    0  0.00000000000E+00  0.00000000000E+00  0.10000000000E+04  0.10000000000E+04  0.00000000000E+00 0. -1.
          2   -1    0    0  501    0 -0.00000000000E+00 -0.00000000000E+00 -0.73773064730E+02  0.73773064730E+02  0.00000000000E+00 0. -1.
    9000006    2    1    2  501    0  0.00000000000E+00  0.00000000000E+00  0.92622693527E+03  0.10737730647E+04  0.54322394914E+03 0.  0.
         13    1    3    3    0    0 -0.22658564586E+03 -0.20748105286E+02  0.16991614603E+03  0.28397717419E+03  0.00000000000E+00 0. -1.
          4    1    3    3  501    0  0.22658564586E+03  0.20748105286E+02  0.75631078924E+03  0.78979589054E+03  0.00000000000E+00 0. -1.
<mgrwt>
<rscale>  0 0.54322395E+03</rscale>
<asrwt>0</asrwt>
<pdfrwt beam="1">0</pdfrwt>
<pdfrwt beam="2">  1        2 0.26826626E+00 0.54322395E+03</pdfrwt>
<totfact> 0.11988266E+01</totfact>
</mgrwt>
</event>
<event>
 5    1  0.2368916E-004  0.6547104E+03  0.7818608E-02  0.9797980E-01
         13   -1    0    0    0    0  0.00000000000E+00  0.00000000000E+00  0.10000000000E+04  0.10000000000E+04  0.00000000000E+00 0. -1.
          2   -1    0    0  501    0 -0.00000000000E+00 -0.00000000000E+00 -0.10716143918E+03  0.10716143918E+03  0.00000000000E+00 0. -1.
    9000006    2    1    2  501    0  0.00000000000E+00  0.00000000000E+00  0.89283856082E+03  0.11071614392E+04  0.65471043731E+03 0.  0.
         13    1    3    3    0    0  0.26116604134E+03 -0.18004423378E+03  0.30968484613E+03  0.44331516012E+03  0.00000000000E+00 0. -1.
          4    1    3    3  501    0 -0.26116604134E+03  0.18004423378E+03  0.58315371469E+03  0.66384627906E+03  0.00000000000E+00 0. -1.
<mgrwt>
<rscale>  0 0.65471044E+03</rscale>
<asrwt>0</asrwt>
<pdfrwt beam="1">0</pdfrwt>
<pdfrwt beam="2">  1        2 0.38967878E+00 0.65471044E+03</pdfrwt>
<totfact> 0.43509027E+00</totfact>
</mgrwt>
</event>
<event>
 5    1  0.2368916E-004  0.6502366E+03  0.7818608E-02  0.9806335E-01
         13   -1    0    0    0    0  0.00000000000E+00  0.00000000000E+00  0.10000000000E+04  0.10000000000E+04  0.00000000000E+00 0. -1.
          2   -1    0    0  501    0 -0.00000000000E+00 -0.00000000000E+00 -0.10570189351E+03  0.10570189351E+03  0.00000000000E+00 0. -1.
    9000006    2    1    2  501    0  0.00000000000E+00  0.00000000000E+00  0.89429810649E+03  0.11057018935E+04  0.65023655236E+03 0.  0.
         13    1    3    3    0    0 -0.24086350492E+03 -0.21751936571E+03  0.47994596231E+03  0.57937727708E+03  0.00000000000E+00 0. -1.
          2    1    3    3  501    0  0.24086350492E+03  0.21751936571E+03  0.41435214419E+03  0.52632461643E+03  0.00000000000E+00 0. -1.
<mgrwt>
<rscale>  0 0.65023655E+03</rscale>
<asrwt>0</asrwt>
<pdfrwt beam="1">0</pdfrwt>
<pdfrwt beam="2">  1        2 0.38437133E+00 0.65023655E+03</pdfrwt>
<totfact> 0.45543252E+00</totfact>
</mgrwt>
</event>
<event>
 5    1  0.2368916E-004  0.6557422E+03  0.7818608E-02  0.9796064E-01
         13   -1    0    0    0    0  0.00000000000E+00  0.00000000000E+00  0.10000000000E+04  0.10000000000E+04  0.00000000000E+00 0. -1.
          2   -1    0    0  501    0 -0.00000000000E+00 -0.00000000000E+00 -0.10749946986E+03  0.10749946986E+03  0.00000000000E+00 0. -1.
    9000006    2    1    2  501    0  0.00000000000E+00  0.00000000000E+00  0.89250053014E+03  0.11074994699E+04  0.65574223553E+03 0.  0.
         13    1    3    3    0    0  0.54751305468E+02 -0.26600667775E+03  0.13601072800E+03  0.30373701814E+03  0.00000000000E+00 0. -1.
          2    1    3    3  501    0 -0.54751305468E+02  0.26600667775E+03  0.75648980214E+03  0.80376245172E+03  0.00000000000E+00 0. -1.
<mgrwt>
<rscale>  0 0.65574224E+03</rscale>
<asrwt>0</asrwt>
<pdfrwt beam="1">0</pdfrwt>
<pdfrwt beam="2">  1        2 0.39090799E+00 0.65574224E+03</pdfrwt>
<totfact> 0.43049787E+00</totfact>
</mgrwt>
</event>
<event>
 5    1  0.2368916E-004  0.6483229E+03  0.7818608E-02  0.9809931E-01
         13   -1    0    0    0    0  0.00000000000E+00  0.00000000000E+00  0.10000000000E+04  0.10000000000E+04  0.00000000000E+00 0. -1.
          2   -1    0    0  501    0 -0.00000000000E+00 -0.00000000000E+00 -0.10508063410E+03  0.10508063410E+03  0.00000000000E+00 0. -1.
    9000006    2    1    2  501    0  0.00000000000E+00  0.00000000000E+00  0.89491936590E+03  0.11050806341E+04  0.64832286433E+03 0.  0.
         13    1    3    3    0    0  0.21221720443E+03  0.24492832770E+03  0.43486390616E+03  0.54233997128E+03  0.00000000000E+00 0. -1.
          4    1    3    3  501    0 -0.21221720443E+03 -0.24492832770E+03  0.46005545973E+03  0.56274066282E+03  0.00000000000E+00 0. -1.
<mgrwt>
<rscale>  0 0.64832286E+03</rscale>
<asrwt>0</asrwt>
<pdfrwt beam="1">0</pdfrwt>
<pdfrwt beam="2">  1        2 0.38211220E+00 0.64832286E+03</pdfrwt>
<totfact> 0.46434985E+00</totfact>
</mgrwt>
</event>
<event>
 5    1  0.2368916E-004  0.6281002E+03  0.7818608E-02  0.9848763E-01
         13   -1    0    0    0    0  0.00000000000E+00  0.00000000000E+00  0.10000000000E+04  0.10000000000E+04  0.00000000000E+00 0. -1.
          2   -1    0    0  501    0 -0.00000000000E+00 -0.00000000000E+00 -0.98627454600E+02  0.98627454600E+02  0.00000000000E+00 0. -1.
    9000006    2    1    2  501    0  0.00000000000E+00  0.00000000000E+00  0.90137254540E+03  0.10986274546E+04  0.62810016590E+03 0.  0.
         13    1    3    3    0    0  0.58090704029E+02 -0.13821108349E+03 -0.31992572080E+02  0.15329826536E+03  0.00000000000E+00 0. -1.
          4    1    3    3  501    0 -0.58090704029E+02  0.13821108349E+03  0.93336511748E+03  0.94532918924E+03  0.00000000000E+00 0. -1.
<mgrwt>
<rscale>  0 0.62810017E+03</rscale>
<asrwt>0</asrwt>
<pdfrwt beam="1">0</pdfrwt>
<pdfrwt beam="2">  1        2 0.35864605E+00 0.62810017E+03</pdfrwt>
<totfact> 0.56688888E+00</totfact>
</mgrwt>
</event>
<event>
 5    1  0.2368916E-004  0.6553561E+03  0.7818608E-02  0.9796780E-01
         13   -1    0    0    0    0  0.00000000000E+00  0.00000000000E+00  0.10000000000E+04  0.10000000000E+04  0.00000000000E+00 0. -1.
          2   -1    0    0  501    0 -0.00000000000E+00 -0.00000000000E+00 -0.10737291145E+03  0.10737291145E+03  0.00000000000E+00 0. -1.
    9000006    2    1    2  501    0  0.00000000000E+00  0.00000000000E+00  0.89262708855E+03  0.11073729115E+04  0.65535612137E+03 0.  0.
         13    1    3    3    0    0 -0.14881890772E+02  0.12658701415E+02  0.99901493912E+03  0.99920596574E+03  0.00000000000E+00 0. -1.
          2    1    3    3  501    0  0.14881890772E+02 -0.12658701415E+02 -0.10638785057E+03  0.10816694571E+03  0.00000000000E+00 0. -1.
<mgrwt>
<rscale>  0 0.65535612E+03</rscale>
<asrwt>0</asrwt>
<pdfrwt beam="1">0</pdfrwt>
<pdfrwt beam="2">  1        2 0.39044777E+00 0.65535612E+03</pdfrwt>
<totfact> 0.43221210E+00</totfact>
</mgrwt>
</event>
<event>
 5    1  0.2368916E-004  0.6062546E+03  0.7818608E-02  0.9892514E-01
         13   -1    0    0    0    0  0.00000000000E+00  0.00000000000E+00  0.10000000000E+04  0.10000000000E+04  0.00000000000E+00 0. -1.
          2   -1    0    0  501    0 -0.00000000000E+00 -0.00000000000E+00 -0.91886159535E+02  0.91886159535E+02  0.00000000000E+00 0. -1.
    9000006    2    1    2  501    0  0.00000000000E+00  0.00000000000E+00  0.90811384047E+03  0.10918861595E+04  0.60625459845E+03 0.  0.
         13    1    3    3    0    0  0.25008217762E+03  0.11644949902E+03  0.22778075756E+03  0.35775082795E+03  0.00000000000E+00 0. -1.
          4    1    3    3  501    0 -0.25008217762E+03 -0.11644949902E+03  0.68033308291E+03  0.73413533159E+03  0.00000000000E+00 0. -1.
<mgrwt>
<rscale>  0 0.60625460E+03</rscale>
<asrwt>0</asrwt>
<pdfrwt beam="1">0</pdfrwt>
<pdfrwt beam="2">  1        2 0.33413219E+00 0.60625460E+03</pdfrwt>
<totfact> 0.69609919E+00</totfact>
</mgrwt>
</event>
<event>
 5    1  0.2368916E-004  0.5205293E+03  0.7818608E-02  0.1008555E+00
         13   -1    0    0    0    0  0.00000000000E+00  0.00000000000E+00  0.10000000000E+04  0.10000000000E+04  0.00000000000E+00 0. -1.
          2   -1    0    0  501    0 -0.00000000000E+00 -0.00000000000E+00 -0.67737685597E+02  0.67737685597E+02  0.00000000000E+00 0. -1.
    9000006    2    1    2  501    0  0.00000000000E+00  0.00000000000E+00  0.93226231440E+03  0.10677376856E+04  0.52052929061E+03 0.  0.
         13    1    3    3    0    0 -0.28113281406E+01  0.10486216614E+03  0.95471599315E+03  0.96046166245E+03  0.00000000000E+00 0. -1.
          2    1    3    3  501    0  0.28113281406E+01 -0.10486216614E+03 -0.22453678745E+02  0.10727602315E+03  0.00000000000E+00 0. -1.
<mgrwt>
<rscale>  0 0.52052929E+03</rscale>
<asrwt>0</asrwt>
<pdfrwt beam="1">0</pdfrwt>
<pdfrwt beam="2">  1        2 0.24631938E+00 0.52052929E+03</pdfrwt>
<totfact> 0.14371273E+01</totfact>
</mgrwt>
</event>
<event>
 5    1  0.2368916E-004  0.6408501E+03  0.7818608E-02  0.9824101E-01
         13   -1    0    0    0    0  0.00000000000E+00  0.00000000000E+00  0.10000000000E+04  0.10000000000E+04  0.00000000000E+00 0. -1.
          2   -1    0    0  501    0 -0.00000000000E+00 -0.00000000000E+00 -0.10267221129E+03  0.10267221129E+03  0.00000000000E+00 0. -1.
    9000006    2    1    2  501    0  0.00000000000E+00  0.00000000000E+00  0.89732778871E+03  0.11026722113E+04  0.64085009571E+03 0.  0.
         13    1    3    3    0    0  0.19748917394E+03 -0.20185381114E+03  0.70918761187E+03  0.76334396161E+03  0.00000000000E+00 0. -1.
          4    1    3    3  501    0 -0.19748917394E+03  0.20185381114E+03  0.18814017684E+03  0.33932824969E+03  0.00000000000E+00 0. -1.
<mgrwt>
<rscale>  0 0.64085010E+03</rscale>
<asrwt>0</asrwt>
<pdfrwt beam="1">0</pdfrwt>
<pdfrwt beam="2">  1        2 0.37335428E+00 0.64085010E+03</pdfrwt>
<totfact> 0.50044291E+00</totfact>
</mgrwt>
</event>
<event>
 5    1  0.2368916E-004  0.7461493E+03  0.7818608E-02  0.9641411E-01
         13   -1    0    0    0    0  0.00000000000E+00  0.00000000000E+00  0.10000000000E+04  0.10000000000E+04  0.00000000000E+00 0. -1.
          2   -1    0    0  501    0 -0.00000000000E+00 -0.00000000000E+00 -0.13918470719E+03  0.13918470719E+03  0.00000000000E+00 0. -1.
    9000006    2    1    2  501    0  0.00000000000E+00  0.00000000000E+00  0.86081529281E+03  0.11391847072E+04  0.74614933410E+03 0.  0.
         13    1    3    3    0    0  0.29403521835E+03  0.76496384785E+02  0.99851637597E+02  0.31981050021E+03  0.00000000000E+00 0. -1.
          2    1    3    3  501    0 -0.29403521835E+03 -0.76496384785E+02  0.76096365521E+03  0.81937420698E+03  0.00000000000E+00 0. -1.
<mgrwt>
<rscale>  0 0.74614933E+03</rscale>
<asrwt>0</asrwt>
<pdfrwt beam="1">0</pdfrwt>
<pdfrwt beam="2">  1        2 0.50612728E+00 0.74614933E+03</pdfrwt>
<totfact> 0.14953834E+00</totfact>
</mgrwt>
</event>
<event>
 5    1  0.2368916E-004  0.6708513E+03  0.7818608E-02  0.9768421E-01
         13   -1    0    0    0    0  0.00000000000E+00  0.00000000000E+00  0.10000000000E+04  0.10000000000E+04  0.00000000000E+00 0. -1.
          2   -1    0    0  501    0 -0.00000000000E+00 -0.00000000000E+00 -0.11251037875E+03  0.11251037875E+03  0.00000000000E+00 0. -1.
    9000006    2    1    2  501    0  0.00000000000E+00  0.00000000000E+00  0.88748962125E+03  0.11125103787E+04  0.67085133598E+03 0.  0.
         13    1    3    3    0    0  0.32184945260E+03  0.63062999285E+02  0.56037767419E+03  0.64929742780E+03  0.00000000000E+00 0. -1.
          2    1    3    3  501    0 -0.32184945260E+03 -0.63062999285E+02  0.32711194707E+03  0.46321295095E+03  0.00000000000E+00 0. -1.
<mgrwt>
<rscale>  0 0.67085134E+03</rscale>
<asrwt>0</asrwt>
<pdfrwt beam="1">0</pdfrwt>
<pdfrwt beam="2">  1        2 0.40912951E+00 0.67085134E+03</pdfrwt>
<totfact> 0.36735191E+00</totfact>
</mgrwt>
</event>
<event>
 5    1  0.2368916E-004  0.6049782E+03  0.7818608E-02  0.9895131E-01
         13   -1    0    0    0    0  0.00000000000E+00  0.00000000000E+00  0.10000000000E+04  0.10000000000E+04  0.00000000000E+00 0. -1.
          2   -1    0    0  501    0 -0.00000000000E+00 -0.00000000000E+00 -0.91499652682E+02  0.91499652682E+02  0.00000000000E+00 0. -1.
    9000006    2    1    2  501    0  0.00000000000E+00  0.00000000000E+00  0.90850034732E+03  0.10914996527E+04  0.60497819029E+03 0.  0.
         13    1    3    3    0    0  0.29782078942E+03 -0.17727821591E+02  0.36425431030E+03  0.47084254358E+03  0.00000000000E+00 0. -1.
          4    1    3    3  501    0 -0.29782078942E+03  0.17727821591E+02  0.54424603702E+03  0.62065710910E+03  0.00000000000E+00 0. -1.
<mgrwt>
<rscale>  0 0.60497819E+03</rscale>
<asrwt>0</asrwt>
<pdfrwt beam="1">0</pdfrwt>
<pdfrwt beam="2">  1        2 0.33272671E+00 0.60497819E+03</pdfrwt>
<totfact> 0.70428759E+00</totfact>
</mgrwt>
</event>
<event>
 5    1  0.2368916E-004  0.6255954E+03  0.7818608E-02  0.9853682E-01
         13   -1    0    0    0    0  0.00000000000E+00  0.00000000000E+00  0.10000000000E+04  0.10000000000E+04  0.00000000000E+00 0. -1.
          4   -1    0    0  501    0 -0.00000000000E+00 -0.00000000000E+00 -0.97842390561E+02  0.97842390561E+02  0.00000000000E+00 0. -1.
    9000006    2    1    2  501    0  0.00000000000E+00  0.00000000000E+00  0.90215760944E+03  0.10978423906E+04  0.62559536623E+03 0.  0.
         13    1    3    3    0    0 -0.11202238858E+03 -0.27050669503E+03  0.64427068853E+03  0.70767761566E+03  0.00000000000E+00 0. -1.
          2    1    3    3  501    0  0.11202238858E+03  0.27050669503E+03  0.25788692091E+03  0.39016477490E+03  0.00000000000E+00 0. -1.
<mgrwt>
<rscale>  0 0.62559537E+03</rscale>
<asrwt>0</asrwt>
<pdfrwt beam="1">0</pdfrwt>
<pdfrwt beam="2">  1        4 0.35579126E+00 0.62559537E+03</pdfrwt>
<totfact> 0.63420306E-02</totfact>
</mgrwt>
</event>
<event>
 5    1  0.2368916E-004  0.5903341E+03  0.7818608E-02  0.9925665E-01
         13   -1    0    0    0    0  0.00000000000E+00  0.00000000000E+00  0.10000000000E+04  0.10000000000E+04  0.00000000000E+00 0. -1.
          2   -1    0    0  501    0 -0.00000000000E+00 -0.00000000000E+00 -0.87123575426E+02  0.87123575426E+02  0.00000000000E+00 0. -1.
    9000006    2    1    2  501    0  0.00000000000E+00  0.00000000000E+00  0.91287642457E+03  0.10871235754E+04  0.59033405941E+03 0.  0.
         13    1    3    3    0    0  0.21296515204E+03 -0.64106091378E+02  0.99066442996E+02  0.24347054660E+03  0.00000000000E+00 0. -1.
          2    1    3    3  501    0 -0.21296515204E+03  0.64106091378E+02  0.81380998158E+03  0.84365302883E+03  0.00000000000E+00 0. -1.
<mgrwt>
<rscale>  0 0.59033406E+03</rscale>
<asrwt>0</asrwt>
<pdfrwt beam="1">0</pdfrwt>
<pdfrwt beam="2">  1        2 0.31681367E+00 0.59033406E+03</pdfrwt>
<totfact> 0.80364522E+00</totfact>
</mgrwt>
</event>
<event>
 5    1  0.2368916E-004  0.6339339E+03  0.7818608E-02  0.9837402E-01
         13   -1    0    0    0    0  0.00000000000E+00  0.00000000000E+00  0.10000000000E+04  0.10000000000E+04  0.00000000000E+00 0. -1.
          2   -1    0    0  501    0 -0.00000000000E+00 -0.00000000000E+00 -0.10046804811E+03  0.10046804811E+03  0.00000000000E+00 0. -1.
    9000006    2    1    2  501    0  0.00000000000E+00  0.00000000000E+00  0.89953195189E+03  0.11004680481E+04  0.63393390225E+03 0.  0.
         13    1    3    3    0    0 -0.30688939126E+03  0.75365591317E+02  0.40699790346E+03  0.51527503748E+03  0.00000000000E+00 0. -1.
          2    1    3    3  501    0  0.30688939126E+03 -0.75365591317E+02  0.49253404843E+03  0.58519301063E+03  0.00000000000E+00 0. -1.
<mgrwt>
<rscale>  0 0.63393390E+03</rscale>
<asrwt>0</asrwt>
<pdfrwt beam="1">0</pdfrwt>
<pdfrwt beam="2">  1        2 0.36533913E+00 0.63393390E+03</pdfrwt>
<totfact> 0.53570652E+00</totfact>
</mgrwt>
</event>
<event>
 5    1  0.2368916E-004  0.6803113E+03  0.7818608E-02  0.9751508E-01
         13   -1    0    0    0    0  0.00000000000E+00  0.00000000000E+00  0.10000000000E+04  0.10000000000E+04  0.00000000000E+00 0. -1.
          2   -1    0    0  501    0 -0.00000000000E+00 -0.00000000000E+00 -0.11570587689E+03  0.11570587689E+03  0.00000000000E+00 0. -1.
    9000006    2    1    2  501    0  0.00000000000E+00  0.00000000000E+00  0.88429412311E+03  0.11157058769E+04  0.68031133135E+03 0.  0.
         13    1    3    3    0    0  0.40673091588E+02 -0.28891182304E+03  0.15535200817E+03  0.33054286910E+03  0.00000000000E+00 0. -1.
          4    1    3    3  501    0 -0.40673091588E+02  0.28891182304E+03  0.72894211494E+03  0.78516300779E+03  0.00000000000E+00 0. -1.
<mgrwt>
<rscale>  0 0.68031133E+03</rscale>
<asrwt>0</asrwt>
<pdfrwt beam="1">0</pdfrwt>
<pdfrwt beam="2">  1        2 0.42074953E+00 0.68031133E+03</pdfrwt>
<totfact> 0.33154523E+00</totfact>
</mgrwt>
</event>
<event>
 5    1  0.2368916E-004  0.6542982E+03  0.7818608E-02  0.9798747E-01
         13   -1    0    0    0    0  0.00000000000E+00  0.00000000000E+00  0.10000000000E+04  0.10000000000E+04  0.00000000000E+00 0. -1.
          2   -1    0    0  501    0 -0.00000000000E+00 -0.00000000000E+00 -0.10702651740E+03  0.10702651740E+03  0.00000000000E+00 0. -1.
    9000006    2    1    2  501    0  0.00000000000E+00  0.00000000000E+00  0.89297348260E+03  0.11070265174E+04  0.65429815038E+03 0.  0.
         13    1    3    3    0    0  0.20374778662E+03  0.25570408494E+03  0.46568681169E+03  0.56900083144E+03  0.00000000000E+00 0. -1.
          2    1    3    3  501    0 -0.20374778662E+03 -0.25570408494E+03  0.42728667092E+03  0.53802568595E+03  0.00000000000E+00 0. -1.
<mgrwt>
<rscale>  0 0.65429815E+03</rscale>
<asrwt>0</asrwt>
<pdfrwt beam="1">0</pdfrwt>
<pdfrwt beam="2">  1        2 0.38918816E+00 0.65429815E+03</pdfrwt>
<totfact> 0.43693562E+00</totfact>
</mgrwt>
</event>
<event>
 5    1  0.2368916E-004  0.6537999E+03  0.7818608E-02  0.9799675E-01
         13   -1    0    0    0    0  0.00000000000E+00  0.00000000000E+00  0.10000000000E+04  0.10000000000E+04  0.00000000000E+00 0. -1.
          2   -1    0    0  501    0 -0.00000000000E+00 -0.00000000000E+00 -0.10686356153E+03  0.10686356153E+03  0.00000000000E+00 0. -1.
    9000006    2    1    2  501    0  0.00000000000E+00  0.00000000000E+00  0.89313643847E+03  0.11068635615E+04  0.65379985174E+03 0.  0.
         13    1    3    3    0    0  0.24852759491E+03 -0.45344925160E+02  0.79779905582E+03  0.83684255457E+03  0.00000000000E+00 0. -1.
          4    1    3    3  501    0 -0.24852759491E+03  0.45344925160E+02  0.95337382641E+02  0.27002100696E+03  0.00000000000E+00 0. -1.
<mgrwt>
<rscale>  0 0.65379985E+03</rscale>
<asrwt>0</asrwt>
<pdfrwt beam="1">0</pdfrwt>
<pdfrwt beam="2">  1        2 0.38859559E+00 0.65379985E+03</pdfrwt>
<totfact> 0.43917382E+00</totfact>
</mgrwt>
</event>
<event>
 5    1  0.2368916E-004  0.6478702E+03  0.7818608E-02  0.9810784E-01
         13   -1    0    0    0    0  0.00000000000E+00  0.00000000000E+00  0.10000000000E+04  0.10000000000E+04  0.00000000000E+00 0. -1.
          2   -1    0    0  501    0 -0.00000000000E+00 -0.00000000000E+00 -0.10493395824E+03  0.10493395824E+03  0.00000000000E+00 0. -1.
    9000006    2    1    2  501    0  0.00000000000E+00  0.00000000000E+00  0.89506604176E+03  0.11049339582E+04  0.64787022850E+03 0.  0.
         13    1    3    3    0    0 -0.17677457711E+03 -0.47159699050E+02  0.90344587750E+03  0.92178508444E+03  0.00000000000E+00 0. -1.
          2    1    3    3  501    0  0.17677457711E+03  0.47159699050E+02 -0.83798357480E+01  0.18314887380E+03  0.00000000000E+00 0. -1.
<mgrwt>
<rscale>  0 0.64787023E+03</rscale>
<asrwt>0</asrwt>
<pdfrwt beam="1">0</pdfrwt>
<pdfrwt beam="2">  1        2 0.38157883E+00 0.64787023E+03</pdfrwt>
<totfact> 0.46647819E+00</totfact>
</mgrwt>
</event>
<event>
 5    1  0.2368916E-004  0.6519926E+03  0.7818608E-02  0.9803047E-01
         13   -1    0    0    0    0  0.00000000000E+00  0.00000000000E+00  0.10000000000E+04  0.10000000000E+04  0.00000000000E+00 0. -1.
          2   -1    0    0  501    0 -0.00000000000E+00 -0.00000000000E+00 -0.10627359174E+03  0.10627359174E+03  0.00000000000E+00 0. -1.
    9000006    2    1    2  501    0  0.00000000000E+00  0.00000000000E+00  0.89372640826E+03  0.11062735917E+04  0.65199261266E+03 0.  0.
         13    1    3    3    0    0 -0.18257047593E+03 -0.23439956574E+03  0.67449739986E+03  0.73703587262E+03  0.00000000000E+00 0. -1.
          4    1    3    3  501    0  0.18257047593E+03  0.23439956574E+03  0.21922900840E+03  0.36923771912E+03  0.00000000000E+00 0. -1.
<mgrwt>
<rscale>  0 0.65199261E+03</rscale>
<asrwt>0</asrwt>
<pdfrwt beam="1">0</pdfrwt>
<pdfrwt beam="2">  1        2 0.38645024E+00 0.65199261E+03</pdfrwt>
<totfact> 0.44736412E+00</totfact>
</mgrwt>
</event>
<event>
 5    1  0.2368916E-004  0.6468788E+03  0.7818608E-02  0.9812654E-01
         13   -1    0    0    0    0  0.00000000000E+00  0.00000000000E+00  0.10000000000E+04  0.10000000000E+04  0.00000000000E+00 0. -1.
          2   -1    0    0  501    0 -0.00000000000E+00 -0.00000000000E+00 -0.10461303390E+03  0.10461303390E+03  0.00000000000E+00 0. -1.
    9000006    2    1    2  501    0  0.00000000000E+00  0.00000000000E+00  0.89538696610E+03  0.11046130339E+04  0.64687876423E+03 0.  0.
         13    1    3    3    0    0  0.18166368546E+03  0.25909883623E+03  0.56197716312E+03  0.64494358933E+03  0.00000000000E+00 0. -1.
          4    1    3    3  501    0 -0.18166368546E+03 -0.25909883623E+03  0.33340980297E+03  0.45966944457E+03  0.00000000000E+00 0. -1.
<mgrwt>
<rscale>  0 0.64687876E+03</rscale>
<asrwt>0</asrwt>
<pdfrwt beam="1">0</pdfrwt>
<pdfrwt beam="2">  1        2 0.38041183E+00 0.64687876E+03</pdfrwt>
<totfact> 0.47116592E+00</totfact>
</mgrwt>
</event>
<event>
 5    1  0.2368916E-004  0.6425917E+03  0.7818608E-02  0.9820780E-01
         13   -1    0    0    0    0  0.00000000000E+00  0.00000000000E+00  0.10000000000E+04  0.10000000000E+04  0.00000000000E+00 0. -1.
          4   -1    0    0  501    0 -0.00000000000E+00 -0.00000000000E+00 -0.10323102553E+03  0.10323102553E+03  0.00000000000E+00 0. -1.
    9000006    2    1    2  501    0  0.00000000000E+00  0.00000000000E+00  0.89676897447E+03  0.11032310255E+04  0.64259170717E+03 0.  0.
         13    1    3    3    0    0 -0.26186134895E+03  0.11218230601E+03  0.19330259065E+03  0.34427042773E+03  0.00000000000E+00 0. -1.
          2    1    3    3  501    0  0.26186134895E+03 -0.11218230601E+03  0.70346638382E+03  0.75896059780E+03  0.00000000000E+00 0. -1.
<mgrwt>
<rscale>  0 0.64259171E+03</rscale>
<asrwt>0</asrwt>
<pdfrwt beam="1">0</pdfrwt>
<pdfrwt beam="2">  1        4 0.37538634E+00 0.64259171E+03</pdfrwt>
<totfact> 0.47110826E-02</totfact>
</mgrwt>
</event>
<event>
 5    1  0.2368916E-004  0.6469424E+03  0.7818608E-02  0.9812534E-01
         13   -1    0    0    0    0  0.00000000000E+00  0.00000000000E+00  0.10000000000E+04  0.10000000000E+04  0.00000000000E+00 0. -1.
          2   -1    0    0  501    0 -0.00000000000E+00 -0.00000000000E+00 -0.10463361332E+03  0.10463361332E+03  0.00000000000E+00 0. -1.
    9000006    2    1    2  501    0  0.00000000000E+00  0.00000000000E+00  0.89536638668E+03  0.11046336133E+04  0.64694238791E+03 0.  0.
         13    1    3    3    0    0 -0.10856162603E+03 -0.32748755557E+02  0.96495170310E+03  0.97159142490E+03  0.00000000000E+00 0. -1.
          2    1    3    3  501    0  0.10856162603E+03  0.32748755557E+02 -0.69585316416E+02  0.13304218842E+03  0.00000000000E+00 0. -1.
<mgrwt>
<rscale>  0 0.64694239E+03</rscale>
<asrwt>0</asrwt>
<pdfrwt beam="1">0</pdfrwt>
<pdfrwt beam="2">  1        2 0.38048667E+00 0.64694239E+03</pdfrwt>
<totfact> 0.47086404E+00</totfact>
</mgrwt>
</event>
<event>
 5    1  0.2368916E-004  0.6165477E+03  0.7818608E-02  0.9871657E-01
         13   -1    0    0    0    0  0.00000000000E+00  0.00000000000E+00  0.10000000000E+04  0.10000000000E+04  0.00000000000E+00 0. -1.
          2   -1    0    0  501    0 -0.00000000000E+00 -0.00000000000E+00 -0.95032761700E+02  0.95032761700E+02  0.00000000000E+00 0. -1.
    9000006    2    1    2  501    0  0.00000000000E+00  0.00000000000E+00  0.90496723830E+03  0.10950327617E+04  0.61654768412E+03 0.  0.
         13    1    3    3    0    0 -0.14361595056E+03  0.62385969455E+02 -0.19146842667E+02  0.15774711416E+03  0.00000000000E+00 0. -1.
          4    1    3    3  501    0  0.14361595056E+03 -0.62385969455E+02  0.92411408097E+03  0.93728564754E+03  0.00000000000E+00 0. -1.
<mgrwt>
<rscale>  0 0.61654768E+03</rscale>
<asrwt>0</asrwt>
<pdfrwt beam="1">0</pdfrwt>
<pdfrwt beam="2">  1        2 0.34557441E+00 0.61654768E+03</pdfrwt>
<totfact> 0.63269769E+00</totfact>
</mgrwt>
</event>
<event>
 5    1  0.2368916E-004  0.6353176E+03  0.7818608E-02  0.9834726E-01
         13   -1    0    0    0    0  0.00000000000E+00  0.00000000000E+00  0.10000000000E+04  0.10000000000E+04  0.00000000000E+00 0. -1.
          2   -1    0    0  501    0 -0.00000000000E+00 -0.00000000000E+00 -0.10090712078E+03  0.10090712078E+03  0.00000000000E+00 0. -1.
    9000006    2    1    2  501    0  0.00000000000E+00  0.00000000000E+00  0.89909287922E+03  0.11009071208E+04  0.63531762382E+03 0.  0.
         13    1    3    3    0    0 -0.21225921685E+03 -0.11717025269E+03  0.93893821073E+02  0.25999787093E+03  0.00000000000E+00 0. -1.
          4    1    3    3  501    0  0.21225921685E+03  0.11717025269E+03  0.80519905814E+03  0.84090924985E+03  0.00000000000E+00 0. -1.
<mgrwt>
<rscale>  0 0.63531762E+03</rscale>
<asrwt>0</asrwt>
<pdfrwt beam="1">0</pdfrwt>
<pdfrwt beam="2">  1        2 0.36693576E+00 0.63531762E+03</pdfrwt>
<totfact> 0.52850523E+00</totfact>
</mgrwt>
</event>
<event>
 5    1  0.2368916E-004  0.6406430E+03  0.7818608E-02  0.9824497E-01
         13   -1    0    0    0    0  0.00000000000E+00  0.00000000000E+00  0.10000000000E+04  0.10000000000E+04  0.00000000000E+00 0. -1.
          2   -1    0    0  501    0 -0.00000000000E+00 -0.00000000000E+00 -0.10260585037E+03  0.10260585037E+03  0.00000000000E+00 0. -1.
    9000006    2    1    2  501    0  0.00000000000E+00  0.00000000000E+00  0.89739414963E+03  0.11026058504E+04  0.64064295943E+03 0.  0.
         13    1    3    3    0    0  0.62998586420E+02  0.25692155085E+03  0.13781064974E+03  0.29827718714E+03  0.00000000000E+00 0. -1.
          4    1    3    3  501    0 -0.62998586420E+02 -0.25692155085E+03  0.75958349989E+03  0.80432866323E+03  0.00000000000E+00 0. -1.
<mgrwt>
<rscale>  0 0.64064296E+03</rscale>
<asrwt>0</asrwt>
<pdfrwt beam="1">0</pdfrwt>
<pdfrwt beam="2">  1        2 0.37311297E+00 0.64064296E+03</pdfrwt>
<totfact> 0.50147276E+00</totfact>
</mgrwt>
</event>
<event>
 5    1  0.2368916E-004  0.6465364E+03  0.7818608E-02  0.9813300E-01
         13   -1    0    0    0    0  0.00000000000E+00  0.00000000000E+00  0.10000000000E+04  0.10000000000E+04  0.00000000000E+00 0. -1.
          2   -1    0    0  501    0 -0.00000000000E+00 -0.00000000000E+00 -0.10450232151E+03  0.10450232151E+03  0.00000000000E+00 0. -1.
    9000006    2    1    2  501    0  0.00000000000E+00  0.00000000000E+00  0.89549767849E+03  0.11045023215E+04  0.64653637641E+03 0.  0.
         13    1    3    3    0    0  0.91324597584E+02 -0.26875170004E+03  0.18345482477E+03  0.33796942336E+03  0.00000000000E+00 0. -1.
          2    1    3    3  501    0 -0.91324597584E+02  0.26875170004E+03  0.71204285373E+03  0.76653289815E+03  0.00000000000E+00 0. -1.
<mgrwt>
<rscale>  0 0.64653638E+03</rscale>
<asrwt>0</asrwt>
<pdfrwt beam="1">0</pdfrwt>
<pdfrwt beam="2">  1        2 0.38000924E+00 0.64653638E+03</pdfrwt>
<totfact> 0.47279301E+00</totfact>
</mgrwt>
</event>
<event>
 5    1  0.2368916E-004  0.6531817E+03  0.7818608E-02  0.9800827E-01
         13   -1    0    0    0    0  0.00000000000E+00  0.00000000000E+00  0.10000000000E+04  0.10000000000E+04  0.00000000000E+00 0. -1.
          2   -1    0    0  501    0 -0.00000000000E+00 -0.00000000000E+00 -0.10666158090E+03  0.10666158090E+03  0.00000000000E+00 0. -1.
    9000006    2    1    2  501    0  0.00000000000E+00  0.00000000000E+00  0.89333841910E+03  0.11066615809E+04  0.65318169263E+03 0.  0.
         13    1    3    3    0    0  0.22660970360E+03 -0.23226398444E+03  0.50922090114E+03  0.60382484413E+03  0.00000000000E+00 0. -1.
          4    1    3    3  501    0 -0.22660970360E+03  0.23226398444E+03  0.38411751796E+03  0.50283673676E+03  0.00000000000E+00 0. -1.
<mgrwt>
<rscale>  0 0.65318169E+03</rscale>
<asrwt>0</asrwt>
<pdfrwt beam="1">0</pdfrwt>
<pdfrwt beam="2">  1        2 0.38786111E+00 0.65318169E+03</pdfrwt>
<totfact> 0.44196242E+00</totfact>
</mgrwt>
</event>
<event>
 5    1  0.2368916E-004  0.6488903E+03  0.7818608E-02  0.9808864E-01
         13   -1    0    0    0    0  0.00000000000E+00  0.00000000000E+00  0.10000000000E+04  0.10000000000E+04  0.00000000000E+00 0. -1.
          2   -1    0    0  501    0 -0.00000000000E+00 -0.00000000000E+00 -0.10526465815E+03  0.10526465815E+03  0.00000000000E+00 0. -1.
    9000006    2    1    2  501    0  0.00000000000E+00  0.00000000000E+00  0.89473534185E+03  0.11052646582E+04  0.64889030861E+03 0.  0.
         13    1    3    3    0    0  0.21878702377E+03  0.85039619727E+02  0.82886903395E+03  0.86146582877E+03  0.00000000000E+00 0. -1.
          4    1    3    3  501    0 -0.21878702377E+03 -0.85039619727E+02  0.65866307899E+02  0.24379882939E+03  0.00000000000E+00 0. -1.
<mgrwt>
<rscale>  0 0.64889031E+03</rscale>
<asrwt>0</asrwt>
<pdfrwt beam="1">0</pdfrwt>
<pdfrwt beam="2">  1        2 0.38278138E+00 0.64889031E+03</pdfrwt>
<totfact> 0.46169205E+00</totfact>
</mgrwt>
</event>
<event>
 5    1  0.2368916E-004  0.6428704E+03  0.7818608E-02  0.9820250E-01
         13   -1    0    0    0    0  0.00000000000E+00  0.00000000000E+00  0.10000000000E+04  0.10000000000E+04  0.00000000000E+00 0. -1.
          2   -1    0    0  501    0 -0.00000000000E+00 -0.00000000000E+00 -0.10332058720E+03  0.10332058720E+03  0.00000000000E+00 0. -1.
    9000006    2    1    2  501    0  0.00000000000E+00  0.00000000000E+00  0.89667941280E+03  0.11033205872E+04  0.64287039814E+03 0.  0.
         13    1    3    3    0    0 -0.18172045558E+03  0.13517546869E+03  0.83980017368E+03  0.86980403714E+03  0.00000000000E+00 0. -1.
          2    1    3    3  501    0  0.18172045558E+03 -0.13517546869E+03  0.56879239119E+02  0.23351655006E+03  0.00000000000E+00 0. -1.
<mgrwt>
<rscale>  0 0.64287040E+03</rscale>
<asrwt>0</asrwt>
<pdfrwt beam="1">0</pdfrwt>
<pdfrwt beam="2">  1        2 0.37571202E+00 0.64287040E+03</pdfrwt>
<totfact> 0.49048212E+00</totfact>
</mgrwt>
</event>
<event>
 5    1  0.2368916E-004  0.6464528E+03  0.7818608E-02  0.9813458E-01
         13   -1    0    0    0    0  0.00000000000E+00  0.00000000000E+00  0.10000000000E+04  0.10000000000E+04  0.00000000000E+00 0. -1.
          2   -1    0    0  501    0 -0.00000000000E+00 -0.00000000000E+00 -0.10447530382E+03  0.10447530382E+03  0.00000000000E+00 0. -1.
    9000006    2    1    2  501    0  0.00000000000E+00  0.00000000000E+00  0.89552469618E+03  0.11044753038E+04  0.64645279432E+03 0.  0.
         13    1    3    3    0    0  0.10367479249E+03  0.28821262361E+03  0.62416471629E+03  0.69526726664E+03  0.00000000000E+00 0. -1.
          4    1    3    3  501    0 -0.10367479249E+03 -0.28821262361E+03  0.27135997989E+03  0.40920803718E+03  0.00000000000E+00 0. -1.
<mgrwt>
<rscale>  0 0.64645279E+03</rscale>
<asrwt>0</asrwt>
<pdfrwt beam="1">0</pdfrwt>
<pdfrwt beam="2">  1        2 0.37991100E+00 0.64645279E+03</pdfrwt>
<totfact> 0.47319085E+00</totfact>
</mgrwt>
</event>
<event>
 5    1  0.2368916E-004  0.6482190E+03  0.7818608E-02  0.9810127E-01
         13   -1    0    0    0    0  0.00000000000E+00  0.00000000000E+00  0.10000000000E+04  0.10000000000E+04  0.00000000000E+00 0. -1.
          2   -1    0    0  501    0 -0.00000000000E+00 -0.00000000000E+00 -0.10504698398E+03  0.10504698398E+03  0.00000000000E+00 0. -1.
    9000006    2    1    2  501    0  0.00000000000E+00  0.00000000000E+00  0.89495301602E+03  0.11050469840E+04  0.64821904933E+03 0.  0.
         13    1    3    3    0    0  0.13015568992E+03  0.59622506151E+01  0.95338882156E+03  0.96225064153E+03  0.00000000000E+00 0. -1.
          2    1    3    3  501    0 -0.13015568992E+03 -0.59622506151E+01 -0.58435805535E+02  0.14279634245E+03  0.00000000000E+00 0. -1.
<mgrwt>
<rscale>  0 0.64821905E+03</rscale>
<asrwt>0</asrwt>
<pdfrwt beam="1">0</pdfrwt>
<pdfrwt beam="2">  1        2 0.38198984E+00 0.64821905E+03</pdfrwt>
<totfact> 0.46483735E+00</totfact>
</mgrwt>
</event>
<event>
 5    1  0.2368916E-004  0.6537166E+03  0.7818608E-02  0.9799830E-01
         13   -1    0    0    0    0  0.00000000000E+00  0.00000000000E+00  0.10000000000E+04  0.10000000000E+04  0.00000000000E+00 0. -1.
          2   -1    0    0  501    0 -0.00000000000E+00 -0.00000000000E+00 -0.10683633218E+03  0.10683633218E+03  0.00000000000E+00 0. -1.
    9000006    2    1    2  501    0  0.00000000000E+00  0.00000000000E+00  0.89316366782E+03  0.11068363322E+04  0.65371655074E+03 0.  0.
         13    1    3    3    0    0  0.27687772493E+03 -0.91289597032E+02  0.69680806858E+03  0.75533869855E+03  0.00000000000E+00 0. -1.
          4    1    3    3  501    0 -0.27687772493E+03  0.91289597032E+02  0.19635559924E+03  0.35149763362E+03  0.00000000000E+00 0. -1.
<mgrwt>
<rscale>  0 0.65371655E+03</rscale>
<asrwt>0</asrwt>
<pdfrwt beam="1">0</pdfrwt>
<pdfrwt beam="2">  1        2 0.38849657E+00 0.65371655E+03</pdfrwt>
<totfact> 0.43954883E+00</totfact>
</mgrwt>
</event>
<event>
 5    1  0.2368916E-004  0.5094379E+03  0.7818608E-02  0.1011344E+00
         13   -1    0    0    0    0  0.00000000000E+00  0.00000000000E+00  0.10000000000E+04  0.10000000000E+04  0.00000000000E+00 0. -1.
          2   -1    0    0  501    0 -0.00000000000E+00 -0.00000000000E+00 -0.64881745915E+02  0.64881745915E+02  0.00000000000E+00 0. -1.
    9000006    2    1    2  501    0  0.00000000000E+00  0.00000000000E+00  0.93511825409E+03  0.10648817459E+04  0.50943790952E+03 0.  0.
         13    1    3    3    0    0 -0.24041448477E+03  0.63887205055E+02  0.35304831822E+03  0.43188402894E+03  0.00000000000E+00 0. -1.
          2    1    3    3  501    0  0.24041448477E+03 -0.63887205055E+02  0.58206993587E+03  0.63299771698E+03  0.00000000000E+00 0. -1.
<mgrwt>
<rscale>  0 0.50943791E+03</rscale>
<asrwt>0</asrwt>
<pdfrwt beam="1">0</pdfrwt>
<pdfrwt beam="2">  1        2 0.23593412E+00 0.50943791E+03</pdfrwt>
<totfact> 0.15667781E+01</totfact>
</mgrwt>
</event>
<event>
 5    1  0.2368916E-004  0.6473099E+03  0.7818608E-02  0.9811840E-01
         13   -1    0    0    0    0  0.00000000000E+00  0.00000000000E+00  0.10000000000E+04  0.10000000000E+04  0.00000000000E+00 0. -1.
          2   -1    0    0  501    0 -0.00000000000E+00 -0.00000000000E+00 -0.10475253796E+03  0.10475253796E+03  0.00000000000E+00 0. -1.
    9000006    2    1    2  501    0  0.00000000000E+00  0.00000000000E+00  0.89524746204E+03  0.11047525380E+04  0.64730993491E+03 0.  0.
         13    1    3    3    0    0 -0.30175830700E+03  0.60824089429E+02  0.61824838901E+03  0.69064369700E+03  0.00000000000E+00 0. -1.
          4    1    3    3  501    0  0.30175830700E+03 -0.60824089429E+02  0.27699907303E+03  0.41410884095E+03  0.00000000000E+00 0. -1.
<mgrwt>
<rscale>  0 0.64730993E+03</rscale>
<asrwt>0</asrwt>
<pdfrwt beam="1">0</pdfrwt>
<pdfrwt beam="2">  1        2 0.38091912E+00 0.64730993E+03</pdfrwt>
<totfact> 0.46912295E+00</totfact>
</mgrwt>
</event>
<event>
 5    1  0.2368916E-004  0.6510978E+03  0.7818608E-02  0.9804721E-01
         13   -1    0    0    0    0  0.00000000000E+00  0.00000000000E+00  0.10000000000E+04  0.10000000000E+04  0.00000000000E+00 0. -1.
          2   -1    0    0  501    0 -0.00000000000E+00 -0.00000000000E+00 -0.10598208016E+03  0.10598208016E+03  0.00000000000E+00 0. -1.
    9000006    2    1    2  501    0  0.00000000000E+00  0.00000000000E+00  0.89401791984E+03  0.11059820802E+04  0.65109778118E+03 0.  0.
         13    1    3    3    0    0 -0.13616191070E+03  0.24686938528E+03  0.72351491955E+03  0.77650395886E+03  0.00000000000E+00 0. -1.
          2    1    3    3  501    0  0.13616191070E+03 -0.24686938528E+03  0.17050300029E+03  0.32947812130E+03  0.00000000000E+00 0. -1.
<mgrwt>
<rscale>  0 0.65109778E+03</rscale>
<asrwt>0</asrwt>
<pdfrwt beam="1">0</pdfrwt>
<pdfrwt beam="2">  1        2 0.38539020E+00 0.65109778E+03</pdfrwt>
<totfact> 0.45146190E+00</totfact>
</mgrwt>
</event>
<event>
 5    1  0.2368916E-004  0.6482570E+03  0.7818608E-02  0.9810055E-01
         13   -1    0    0    0    0  0.00000000000E+00  0.00000000000E+00  0.10000000000E+04  0.10000000000E+04  0.00000000000E+00 0. -1.
          2   -1    0    0  501    0 -0.00000000000E+00 -0.00000000000E+00 -0.10505929251E+03  0.10505929251E+03  0.00000000000E+00 0. -1.
    9000006    2    1    2  501    0  0.00000000000E+00  0.00000000000E+00  0.89494070749E+03  0.11050592925E+04  0.64825702469E+03 0.  0.
         13    1    3    3    0    0 -0.32253117865E+03 -0.25085979534E+02  0.41322297414E+03  0.52479414434E+03  0.00000000000E+00 0. -1.
          4    1    3    3  501    0  0.32253117865E+03  0.25085979534E+02  0.48171773334E+03  0.58026514818E+03  0.00000000000E+00 0. -1.
<mgrwt>
<rscale>  0 0.64825702E+03</rscale>
<asrwt>0</asrwt>
<pdfrwt beam="1">0</pdfrwt>
<pdfrwt beam="2">  1        2 0.38203460E+00 0.64825702E+03</pdfrwt>
<totfact> 0.46465898E+00</totfact>
</mgrwt>
</event>
<event>
 5    1  0.2368916E-004  0.6627972E+03  0.7818608E-02  0.9783058E-01
         13   -1    0    0    0    0  0.00000000000E+00  0.00000000000E+00  0.10000000000E+04  0.10000000000E+04  0.00000000000E+00 0. -1.
          2   -1    0    0  501    0 -0.00000000000E+00 -0.00000000000E+00 -0.10982502507E+03  0.10982502507E+03  0.00000000000E+00 0. -1.
    9000006    2    1    2  501    0  0.00000000000E+00  0.00000000000E+00  0.89017497493E+03  0.11098250251E+04  0.66279717884E+03 0.  0.
         13    1    3    3    0    0  0.18452458062E+02  0.77191230050E+02 -0.93676645060E+02  0.12277741256E+03  0.00000000000E+00 0. -1.
          4    1    3    3  501    0 -0.18452458062E+02 -0.77191230050E+02  0.98385161999E+03  0.98704761251E+03  0.00000000000E+00 0. -1.
<mgrwt>
<rscale>  0 0.66279718E+03</rscale>
<asrwt>0</asrwt>
<pdfrwt beam="1">0</pdfrwt>
<pdfrwt beam="2">  1        2 0.39936457E+00 0.66279718E+03</pdfrwt>
<totfact> 0.40007169E+00</totfact>
</mgrwt>
</event>
<event>
 5    1  0.2368916E-004  0.6652540E+03  0.7818608E-02  0.9778570E-01
         13   -1    0    0    0    0  0.00000000000E+00  0.00000000000E+00  0.10000000000E+04  0.10000000000E+04  0.00000000000E+00 0. -1.
          2   -1    0    0  501    0 -0.00000000000E+00 -0.00000000000E+00 -0.11064072409E+03  0.11064072409E+03  0.00000000000E+00 0. -1.
    9000006    2    1    2  501    0  0.00000000000E+00  0.00000000000E+00  0.88935927591E+03  0.11106407241E+04  0.66525400891E+03 0.  0.
         13    1    3    3    0    0  0.53058815214E+02 -0.25759115243E+03  0.78466879956E+03  0.82757088197E+03  0.00000000000E+00 0. -1.
          2    1    3    3  501    0 -0.53058815214E+02  0.25759115243E+03  0.10469047635E+03  0.28306984212E+03  0.00000000000E+00 0. -1.
<mgrwt>
<rscale>  0 0.66525401E+03</rscale>
<asrwt>0</asrwt>
<pdfrwt beam="1">0</pdfrwt>
<pdfrwt beam="2">  1        2 0.40233075E+00 0.66525401E+03</pdfrwt>
<totfact> 0.38986719E+00</totfact>
</mgrwt>
</event>
<event>
 5    1  0.2368916E-004  0.6496644E+03  0.7818608E-02  0.9807409E-01
         13   -1    0    0    0    0  0.00000000000E+00  0.00000000000E+00  0.10000000000E+04  0.10000000000E+04  0.00000000000E+00 0. -1.
          2   -1    0    0  501    0 -0.00000000000E+00 -0.00000000000E+00 -0.10551594514E+03  0.10551594514E+03  0.00000000000E+00 0. -1.
    9000006    2    1    2  501    0  0.00000000000E+00  0.00000000000E+00  0.89448405486E+03  0.11055159451E+04  0.64966435992E+03 0.  0.
         13    1    3    3    0    0  0.29078981533E+03  0.91597848953E+02  0.63800446185E+03  0.70710577425E+03  0.00000000000E+00 0. -1.
          4    1    3    3  501    0 -0.29078981533E+03 -0.91597848953E+02  0.25647959301E+03  0.39841017089E+03  0.00000000000E+00 0. -1.
<mgrwt>
<rscale>  0 0.64966436E+03</rscale>
<asrwt>0</asrwt>
<pdfrwt beam="1">0</pdfrwt>
<pdfrwt beam="2">  1        2 0.38369516E+00 0.64966436E+03</pdfrwt>
<totfact> 0.45808511E+00</totfact>
</mgrwt>
</event>
<event>
 5    1  0.2368916E-004  0.6378233E+03  0.7818608E-02  0.9829900E-01
         13   -1    0    0    0    0  0.00000000000E+00  0.00000000000E+00  0.10000000000E+04  0.10000000000E+04  0.00000000000E+00 0. -1.
          2   -1    0    0  501    0 -0.00000000000E+00 -0.00000000000E+00 -0.10170462678E+03  0.10170462678E+03  0.00000000000E+00 0. -1.
    9000006    2    1    2  501    0  0.00000000000E+00  0.00000000000E+00  0.89829537322E+03  0.11017046268E+04  0.63782325696E+03 0.  0.
         13    1    3    3    0    0 -0.23821695700E+03 -0.36833074873E+02  0.88476691123E+02  0.25677250413E+03  0.00000000000E+00 0. -1.
          4    1    3    3  501    0  0.23821695700E+03  0.36833074873E+02  0.80981868210E+03  0.84493212265E+03  0.00000000000E+00 0. -1.
<mgrwt>
<rscale>  0 0.63782326E+03</rscale>
<asrwt>0</asrwt>
<pdfrwt beam="1">0</pdfrwt>
<pdfrwt beam="2">  1        2 0.36983579E+00 0.63782326E+03</pdfrwt>
<totfact> 0.51565217E+00</totfact>
</mgrwt>
</event>
<event>
 5    1  0.2368916E-004  0.6528196E+03  0.7818608E-02  0.9801503E-01
         13   -1    0    0    0    0  0.00000000000E+00  0.00000000000E+00  0.10000000000E+04  0.10000000000E+04  0.00000000000E+00 0. -1.
          2   -1    0    0  501    0 -0.00000000000E+00 -0.00000000000E+00 -0.10654337323E+03  0.10654337323E+03  0.00000000000E+00 0. -1.
    9000006    2    1    2  501    0  0.00000000000E+00  0.00000000000E+00  0.89345662677E+03  0.11065433732E+04  0.65281964807E+03 0.  0.
         13    1    3    3    0    0  0.32075106376E+03  0.56935808369E+02  0.41197243279E+03  0.52520873618E+03  0.00000000000E+00 0. -1.
          2    1    3    3  501    0 -0.32075106376E+03 -0.56935808369E+02  0.48148419398E+03  0.58133463705E+03  0.00000000000E+00 0. -1.
<mgrwt>
<rscale>  0 0.65281965E+03</rscale>
<asrwt>0</asrwt>
<pdfrwt beam="1">0</pdfrwt>
<pdfrwt beam="2">  1        2 0.38743127E+00 0.65281965E+03</pdfrwt>
<totfact> 0.44360186E+00</totfact>
</mgrwt>
</event>
<event>
 5    1  0.2368916E-004  0.6392201E+03  0.7818608E-02  0.9827220E-01
         13   -1    0    0    0    0  0.00000000000E+00  0.00000000000E+00  0.10000000000E+04  0.10000000000E+04  0.00000000000E+00 0. -1.
          2   -1    0    0  501    0 -0.00000000000E+00 -0.00000000000E+00 -0.10215057825E+03  0.10215057825E+03  0.00000000000E+00 0. -1.
    9000006    2    1    2  501    0  0.00000000000E+00  0.00000000000E+00  0.89784942175E+03  0.11021505782E+04  0.63922008182E+03 0.  0.
         13    1    3    3    0    0 -0.25129332726E+03 -0.65687698913E+02  0.12779817291E+03  0.28947466748E+03  0.00000000000E+00 0. -1.
          4    1    3    3  501    0  0.25129332726E+03  0.65687698913E+02  0.77005124884E+03  0.81267591077E+03  0.00000000000E+00 0. -1.
<mgrwt>
<rscale>  0 0.63922008E+03</rscale>
<asrwt>0</asrwt>
<pdfrwt beam="1">0</pdfrwt>
<pdfrwt beam="2">  1        2 0.37145743E+00 0.63922008E+03</pdfrwt>
<totfact> 0.50859054E+00</totfact>
</mgrwt>
</event>
<event>
 5    1  0.2368916E-004  0.6473331E+03  0.7818608E-02  0.9811796E-01
         13   -1    0    0    0    0  0.00000000000E+00  0.00000000000E+00  0.10000000000E+04  0.10000000000E+04  0.00000000000E+00 0. -1.
          2   -1    0    0  501    0 -0.00000000000E+00 -0.00000000000E+00 -0.10476002731E+03  0.10476002731E+03  0.00000000000E+00 0. -1.
    9000006    2    1    2  501    0  0.00000000000E+00  0.00000000000E+00  0.89523997269E+03  0.11047600273E+04  0.64733307442E+03 0.  0.
         13    1    3    3    0    0 -0.11047150471E+03 -0.27837446171E+03  0.23815740084E+03  0.38264244650E+03  0.00000000000E+00 0. -1.
          4    1    3    3  501    0  0.11047150471E+03  0.27837446171E+03  0.65708257185E+03  0.72211758081E+03  0.00000000000E+00 0. -1.
<mgrwt>
<rscale>  0 0.64733307E+03</rscale>
<asrwt>0</asrwt>
<pdfrwt beam="1">0</pdfrwt>
<pdfrwt beam="2">  1        2 0.38094636E+00 0.64733307E+03</pdfrwt>
<totfact> 0.46901350E+00</totfact>
</mgrwt>
</event>
<event>
 5    1  0.2368916E-004  0.6545915E+03  0.7818608E-02  0.9798201E-01
         13   -1    0    0    0    0  0.00000000000E+00  0.00000000000E+00  0.10000000000E+04  0.10000000000E+04  0.00000000000E+00 0. -1.
          2   -1    0    0  501    0 -0.00000000000E+00 -0.00000000000E+00 -0.10712251742E+03  0.10712251742E+03  0.00000000000E+00 0. -1.
    9000006    2    1    2  501    0  0.00000000000E+00  0.00000000000E+00  0.89287748258E+03  0.11071225174E+04  0.65459152888E+03 0.  0.
         13    1    3    3    0    0 -0.94685986411E+02  0.15051305197E+03  0.91117560939E+03  0.92836447906E+03  0.00000000000E+00 0. -1.
          4    1    3    3  501    0  0.94685986411E+02 -0.15051305197E+03 -0.18298126806E+02  0.17875803836E+03  0.00000000000E+00 0. -1.
<mgrwt>
<rscale>  0 0.65459153E+03</rscale>
<asrwt>0</asrwt>
<pdfrwt beam="1">0</pdfrwt>
<pdfrwt beam="2">  1        2 0.38953725E+00 0.65459153E+03</pdfrwt>
<totfact> 0.43562188E+00</totfact>
</mgrwt>
</event>
<event>
 5    1  0.2368916E-004  0.6496538E+03  0.7818608E-02  0.9807429E-01
         13   -1    0    0    0    0  0.00000000000E+00  0.00000000000E+00  0.10000000000E+04  0.10000000000E+04  0.00000000000E+00 0. -1.
          2   -1    0    0  501    0 -0.00000000000E+00 -0.00000000000E+00 -0.10551252043E+03  0.10551252043E+03  0.00000000000E+00 0. -1.
    9000006    2    1    2  501    0  0.00000000000E+00  0.00000000000E+00  0.89448747957E+03  0.11055125204E+04  0.64965381684E+03 0.  0.
         13    1    3    3    0    0  0.24756775946E+03 -0.16524467117E+03  0.22591267943E+03  0.37367383586E+03  0.00000000000E+00 0. -1.
          4    1    3    3  501    0 -0.24756775946E+03  0.16524467117E+03  0.66857480013E+03  0.73183868458E+03  0.00000000000E+00 0. -1.
<mgrwt>
<rscale>  0 0.64965382E+03</rscale>
<asrwt>0</asrwt>
<pdfrwt beam="1">0</pdfrwt>
<pdfrwt beam="2">  1        2 0.38368270E+00 0.64965382E+03</pdfrwt>
<totfact> 0.45813410E+00</totfact>
</mgrwt>
</event>
<event>
 5    1  0.2368916E-004  0.6433983E+03  0.7818608E-02  0.9819246E-01
         13   -1    0    0    0    0  0.00000000000E+00  0.00000000000E+00  0.10000000000E+04  0.10000000000E+04  0.00000000000E+00 0. -1.
          2   -1    0    0  501    0 -0.00000000000E+00 -0.00000000000E+00 -0.10349034221E+03  0.10349034221E+03  0.00000000000E+00 0. -1.
    9000006    2    1    2  501    0  0.00000000000E+00  0.00000000000E+00  0.89650965779E+03  0.11034903422E+04  0.64339829721E+03 0.  0.
         13    1    3    3    0    0  0.31650193642E+03  0.48187466336E+02  0.39415896535E+03  0.50779601971E+03  0.00000000000E+00 0. -1.
          4    1    3    3  501    0 -0.31650193642E+03 -0.48187466336E+02  0.50235069244E+03  0.59569432250E+03  0.00000000000E+00 0. -1.
<mgrwt>
<rscale>  0 0.64339830E+03</rscale>
<asrwt>0</asrwt>
<pdfrwt beam="1">0</pdfrwt>
<pdfrwt beam="2">  1        2 0.37632931E+00 0.64339830E+03</pdfrwt>
<totfact> 0.48790452E+00</totfact>
</mgrwt>
</event>
<event>
 5    1  0.2368916E-004  0.6807589E+03  0.7818608E-02  0.9750715E-01
         13   -1    0    0    0    0  0.00000000000E+00  0.00000000000E+00  0.10000000000E+04  0.10000000000E+04  0.00000000000E+00 0. -1.
          2   -1    0    0  501    0 -0.00000000000E+00 -0.00000000000E+00 -0.11585817552E+03  0.11585817552E+03  0.00000000000E+00 0. -1.
    9000006    2    1    2  501    0  0.00000000000E+00  0.00000000000E+00  0.88414182448E+03  0.11158581755E+04  0.68075891626E+03 0.  0.
         13    1    3    3    0    0 -0.18544161697E+03  0.76567425227E+02 -0.86385728878E+01  0.20081282044E+03  0.00000000000E+00 0. -1.
          4    1    3    3  501    0  0.18544161697E+03 -0.76567425227E+02  0.89278039737E+03  0.91504535507E+03  0.00000000000E+00 0. -1.
<mgrwt>
<rscale>  0 0.68075892E+03</rscale>
<asrwt>0</asrwt>
<pdfrwt beam="1">0</pdfrwt>
<pdfrwt beam="2">  1        2 0.42130334E+00 0.68075892E+03</pdfrwt>
<totfact> 0.32991900E+00</totfact>
</mgrwt>
</event>
<event>
 5    1  0.2368916E-004  0.5678424E+03  0.7818608E-02  0.9974465E-01
         13   -1    0    0    0    0  0.00000000000E+00  0.00000000000E+00  0.10000000000E+04  0.10000000000E+04  0.00000000000E+00 0. -1.
          2   -1    0    0  501    0 -0.00000000000E+00 -0.00000000000E+00 -0.80611239399E+02  0.80611239399E+02  0.00000000000E+00 0. -1.
    9000006    2    1    2  501    0  0.00000000000E+00  0.00000000000E+00  0.91938876060E+03  0.10806112394E+04  0.56784237038E+03 0.  0.
         13    1    3    3    0    0 -0.21731140812E+03 -0.53435700309E+02  0.12717528521E+03  0.25739692176E+03  0.00000000000E+00 0. -1.
          4    1    3    3  501    0  0.21731140812E+03  0.53435700309E+02  0.79221347539E+03  0.82321431764E+03  0.00000000000E+00 0. -1.
<mgrwt>
<rscale>  0 0.56784237E+03</rscale>
<asrwt>0</asrwt>
<pdfrwt beam="1">0</pdfrwt>
<pdfrwt beam="2">  1        2 0.29313240E+00 0.56784237E+03</pdfrwt>
<totfact> 0.97699166E+00</totfact>
</mgrwt>
</event>
<event>
 5    1  0.2368916E-004  0.6312756E+03  0.7818608E-02  0.9842563E-01
         13   -1    0    0    0    0  0.00000000000E+00  0.00000000000E+00  0.10000000000E+04  0.10000000000E+04  0.00000000000E+00 0. -1.
          2   -1    0    0  501    0 -0.00000000000E+00 -0.00000000000E+00 -0.99627229879E+02  0.99627229879E+02  0.00000000000E+00 0. -1.
    9000006    2    1    2  501    0  0.00000000000E+00  0.00000000000E+00  0.90037277012E+03  0.10996272299E+04  0.63127562880E+03 0.  0.
         13    1    3    3    0    0 -0.10284726639E+03  0.14683476961E+03 -0.23397509424E+01  0.17928604018E+03  0.00000000000E+00 0. -1.
          4    1    3    3  501    0  0.10284726639E+03 -0.14683476961E+03  0.90271252106E+03  0.92034118970E+03  0.00000000000E+00 0. -1.
<mgrwt>
<rscale>  0 0.63127563E+03</rscale>
<asrwt>0</asrwt>
<pdfrwt beam="1">0</pdfrwt>
<pdfrwt beam="2">  1        2 0.36228160E+00 0.63127563E+03</pdfrwt>
<totfact> 0.54974951E+00</totfact>
</mgrwt>
</event>
<event>
 5    1  0.2368916E-004  0.6657523E+03  0.7818608E-02  0.9777662E-01
         13   -1    0    0    0    0  0.00000000000E+00  0.00000000000E+00  0.10000000000E+04  0.10000000000E+04  0.00000000000E+00 0. -1.
          2   -1    0    0  501    0 -0.00000000000E+00 -0.00000000000E+00 -0.11080652555E+03  0.11080652555E+03  0.00000000000E+00 0. -1.
    9000006    2    1    2  501    0  0.00000000000E+00  0.00000000000E+00  0.88919347445E+03  0.11108065256E+04  0.66575228292E+03 0.  0.
         13    1    3    3    0    0  0.28299626033E+03  0.95264171485E+02  0.69006668562E+03  0.75190037660E+03  0.00000000000E+00 0. -1.
          4    1    3    3  501    0 -0.28299626033E+03 -0.95264171485E+02  0.19912678883E+03  0.35890614895E+03  0.00000000000E+00 0. -1.
<mgrwt>
<rscale>  0 0.66575228E+03</rscale>
<asrwt>0</asrwt>
<pdfrwt beam="1">0</pdfrwt>
<pdfrwt beam="2">  1        2 0.40293367E+00 0.66575228E+03</pdfrwt>
<totfact> 0.38782177E+00</totfact>
</mgrwt>
</event>
<event>
 5    1  0.2368916E-004  0.7902371E+03  0.7818608E-02  0.9574257E-01
         13   -1    0    0    0    0  0.00000000000E+00  0.00000000000E+00  0.10000000000E+04  0.10000000000E+04  0.00000000000E+00 0. -1.
          2   -1    0    0  501    0 -0.00000000000E+00 -0.00000000000E+00 -0.15611865384E+03  0.15611865384E+03  0.00000000000E+00 0. -1.
    9000006    2    1    2  501    0  0.00000000000E+00  0.00000000000E+00  0.84388134616E+03  0.11561186538E+04  0.79023706277E+03 0.  0.
         13    1    3    3    0    0 -0.16309629857E+03  0.35933294118E+03  0.39275061927E+03  0.55675274059E+03  0.00000000000E+00 0. -1.
          4    1    3    3  501    0  0.16309629857E+03 -0.35933294118E+03  0.45113072689E+03  0.59936591325E+03  0.00000000000E+00 0. -1.
<mgrwt>
<rscale>  0 0.79023706E+03</rscale>
<asrwt>0</asrwt>
<pdfrwt beam="1">0</pdfrwt>
<pdfrwt beam="2">  1        2 0.56770539E+00 0.79023706E+03</pdfrwt>
<totfact> 0.79087378E-01</totfact>
</mgrwt>
</event>
<event>
 5    1  0.2368916E-004  0.6416810E+03  0.7818608E-02  0.9822516E-01
         13   -1    0    0    0    0  0.00000000000E+00  0.00000000000E+00  0.10000000000E+04  0.10000000000E+04  0.00000000000E+00 0. -1.
          2   -1    0    0  501    0 -0.00000000000E+00 -0.00000000000E+00 -0.10293861594E+03  0.10293861594E+03  0.00000000000E+00 0. -1.
    9000006    2    1    2  501    0  0.00000000000E+00  0.00000000000E+00  0.89706138406E+03  0.11029386159E+04  0.64168096726E+03 0.  0.
         13    1    3    3    0    0  0.26645723287E+03  0.40560587833E+02  0.74769548225E+03  0.79479126343E+03  0.00000000000E+00 0. -1.
          2    1    3    3  501    0 -0.26645723287E+03 -0.40560587833E+02  0.14936590181E+03  0.30814735251E+03  0.00000000000E+00 0. -1.
<mgrwt>
<rscale>  0 0.64168097E+03</rscale>
<asrwt>0</asrwt>
<pdfrwt beam="1">0</pdfrwt>
<pdfrwt beam="2">  1        2 0.37432303E+00 0.64168097E+03</pdfrwt>
<totfact> 0.49632803E+00</totfact>
</mgrwt>
</event>
<event>
 5    1  0.2368916E-004  0.6578704E+03  0.7818608E-02  0.9792122E-01
         13   -1    0    0    0    0  0.00000000000E+00  0.00000000000E+00  0.10000000000E+04  0.10000000000E+04  0.00000000000E+00 0. -1.
          2   -1    0    0  501    0 -0.00000000000E+00 -0.00000000000E+00 -0.10819836381E+03  0.10819836381E+03  0.00000000000E+00 0. -1.
    9000006    2    1    2  501    0  0.00000000000E+00  0.00000000000E+00  0.89180163619E+03  0.11081983638E+04  0.65787039394E+03 0.  0.
         13    1    3    3    0    0  0.23221183215E+03  0.19103932431E+02  0.83702631901E+03  0.86885001809E+03  0.00000000000E+00 0. -1.
          4    1    3    3  501    0 -0.23221183215E+03 -0.19103932431E+02  0.54775317180E+02  0.23934834571E+03  0.00000000000E+00 0. -1.
<mgrwt>
<rscale>  0 0.65787039E+03</rscale>
<asrwt>0</asrwt>
<pdfrwt beam="1">0</pdfrwt>
<pdfrwt beam="2">  1        2 0.39344943E+00 0.65787039E+03</pdfrwt>
<totfact> 0.42114139E+00</totfact>
</mgrwt>
</event>
<event>
 5    1  0.2368916E-004  0.6972641E+03  0.7818608E-02  0.9721922E-01
         13   -1    0    0    0    0  0.00000000000E+00  0.00000000000E+00  0.10000000000E+04  0.10000000000E+04  0.00000000000E+00 0. -1.
          2   -1    0    0  501    0 -0.00000000000E+00 -0.00000000000E+00 -0.12154431302E+03  0.12154431302E+03  0.00000000000E+00 0. -1.
    9000006    2    1    2  501    0  0.00000000000E+00  0.00000000000E+00  0.87845568698E+03  0.11215443130E+04  0.69726411930E+03 0.  0.
         13    1    3    3    0    0 -0.69598608467E+02  0.17935396845E+03  0.90688865471E+03  0.92707003206E+03  0.00000000000E+00 0. -1.
          4    1    3    3  501    0  0.69598608467E+02 -0.17935396845E+03 -0.28432967729E+02  0.19447428096E+03  0.00000000000E+00 0. -1.
<mgrwt>
<rscale>  0 0.69726412E+03</rscale>
<asrwt>0</asrwt>
<pdfrwt beam="1">0</pdfrwt>
<pdfrwt beam="2">  1        2 0.44198025E+00 0.69726412E+03</pdfrwt>
<totfact> 0.27402610E+00</totfact>
</mgrwt>
</event>
<event>
 5    1  0.2368916E-004  0.6577786E+03  0.7818608E-02  0.9792292E-01
         13   -1    0    0    0    0  0.00000000000E+00  0.00000000000E+00  0.10000000000E+04  0.10000000000E+04  0.00000000000E+00 0. -1.
          2   -1    0    0  501    0 -0.00000000000E+00 -0.00000000000E+00 -0.10816815660E+03  0.10816815660E+03  0.00000000000E+00 0. -1.
    9000006    2    1    2  501    0  0.00000000000E+00  0.00000000000E+00  0.89183184340E+03  0.11081681566E+04  0.65777855421E+03 0.  0.
         13    1    3    3    0    0  0.76676801194E+02 -0.16393744374E+03  0.90856323282E+03  0.92641349587E+03  0.00000000000E+00 0. -1.
          4    1    3    3  501    0 -0.76676801194E+02  0.16393744374E+03 -0.16731389416E+02  0.18175466072E+03  0.00000000000E+00 0. -1.
<mgrwt>
<rscale>  0 0.65777855E+03</rscale>
<asrwt>0</asrwt>
<pdfrwt beam="1">0</pdfrwt>
<pdfrwt beam="2">  1        2 0.39333958E+00 0.65777855E+03</pdfrwt>
<totfact> 0.42154196E+00</totfact>
</mgrwt>
</event>
<event>
 5    1  0.2368916E-004  0.6431231E+03  0.7818608E-02  0.9819769E-01
         13   -1    0    0    0    0  0.00000000000E+00  0.00000000000E+00  0.10000000000E+04  0.10000000000E+04  0.00000000000E+00 0. -1.
          2   -1    0    0  501    0 -0.00000000000E+00 -0.00000000000E+00 -0.10340182919E+03  0.10340182919E+03  0.00000000000E+00 0. -1.
    9000006    2    1    2  501    0  0.00000000000E+00  0.00000000000E+00  0.89659817081E+03  0.11034018292E+04  0.64312309611E+03 0.  0.
         13    1    3    3    0    0  0.10700750708E+03  0.17001082389E+03  0.87909708131E+03  0.90175715421E+03  0.00000000000E+00 0. -1.
          2    1    3    3  501    0 -0.10700750708E+03 -0.17001082389E+03  0.17501089504E+02  0.20164467497E+03  0.00000000000E+00 0. -1.
<mgrwt>
<rscale>  0 0.64312310E+03</rscale>
<asrwt>0</asrwt>
<pdfrwt beam="1">0</pdfrwt>
<pdfrwt beam="2">  1        2 0.37600744E+00 0.64312310E+03</pdfrwt>
<totfact> 0.48924697E+00</totfact>
</mgrwt>
</event>
<event>
 5    1  0.2368916E-004  0.6397514E+03  0.7818608E-02  0.9826202E-01
         13   -1    0    0    0    0  0.00000000000E+00  0.00000000000E+00  0.10000000000E+04  0.10000000000E+04  0.00000000000E+00 0. -1.
          2   -1    0    0  501    0 -0.00000000000E+00 -0.00000000000E+00 -0.10232046359E+03  0.10232046359E+03  0.00000000000E+00 0. -1.
    9000006    2    1    2  501    0  0.00000000000E+00  0.00000000000E+00  0.89767953641E+03  0.11023204636E+04  0.63975140045E+03 0.  0.
         13    1    3    3    0    0  0.12442833776E+03  0.17679497268E+02 -0.57997629642E+02  0.13841495911E+03  0.00000000000E+00 0. -1.
          4    1    3    3  501    0 -0.12442833776E+03 -0.17679497268E+02  0.95567716605E+03  0.96390550448E+03  0.00000000000E+00 0. -1.
<mgrwt>
<rscale>  0 0.63975140E+03</rscale>
<asrwt>0</asrwt>
<pdfrwt beam="1">0</pdfrwt>
<pdfrwt beam="2">  1        2 0.37207520E+00 0.63975140E+03</pdfrwt>
<totfact> 0.50592379E+00</totfact>
</mgrwt>
</event>
<event>
 5    1  0.2368916E-004  0.6514624E+03  0.7818608E-02  0.9804039E-01
         13   -1    0    0    0    0  0.00000000000E+00  0.00000000000E+00  0.10000000000E+04  0.10000000000E+04  0.00000000000E+00 0. -1.
          2   -1    0    0  501    0 -0.00000000000E+00 -0.00000000000E+00 -0.10610080440E+03  0.10610080440E+03  0.00000000000E+00 0. -1.
    9000006    2    1    2  501    0  0.00000000000E+00  0.00000000000E+00  0.89389919560E+03  0.11061008044E+04  0.65146236852E+03 0.  0.
         13    1    3    3    0    0 -0.15996386975E+03 -0.12904405865E+02 -0.34318500834E+02  0.16411192162E+03  0.00000000000E+00 0. -1.
          4    1    3    3  501    0  0.15996386975E+03  0.12904405865E+02  0.92821769643E+03  0.94198888278E+03  0.00000000000E+00 0. -1.
<mgrwt>
<rscale>  0 0.65146237E+03</rscale>
<asrwt>0</asrwt>
<pdfrwt beam="1">0</pdfrwt>
<pdfrwt beam="2">  1        2 0.38582192E+00 0.65146237E+03</pdfrwt>
<totfact> 0.44978891E+00</totfact>
</mgrwt>
</event>
<event>
 5    1  0.2368916E-004  0.6455708E+03  0.7818608E-02  0.9815126E-01
         13   -1    0    0    0    0  0.00000000000E+00  0.00000000000E+00  0.10000000000E+04  0.10000000000E+04  0.00000000000E+00 0. -1.
          2   -1    0    0  501    0 -0.00000000000E+00 -0.00000000000E+00 -0.10419041616E+03  0.10419041616E+03  0.00000000000E+00 0. -1.
    9000006    2    1    2  501    0  0.00000000000E+00  0.00000000000E+00  0.89580958384E+03  0.11041904162E+04  0.64557080529E+03 0.  0.
         13    1    3    3    0    0  0.30800882151E+03  0.96148257927E+02  0.43294535380E+03  0.53995888826E+03  0.00000000000E+00 0. -1.
          2    1    3    3  501    0 -0.30800882151E+03 -0.96148257927E+02  0.46286423004E+03  0.56423152790E+03  0.00000000000E+00 0. -1.
<mgrwt>
<rscale>  0 0.64557081E+03</rscale>
<asrwt>0</asrwt>
<pdfrwt beam="1">0</pdfrwt>
<pdfrwt beam="2">  1        2 0.37887504E+00 0.64557081E+03</pdfrwt>
<totfact> 0.47740447E+00</totfact>
</mgrwt>
</event>
<event>
 5    1  0.2368916E-004  0.6306587E+03  0.7818608E-02  0.9843764E-01
         13   -1    0    0    0    0  0.00000000000E+00  0.00000000000E+00  0.10000000000E+04  0.10000000000E+04  0.00000000000E+00 0. -1.
          2   -1    0    0  501    0 -0.00000000000E+00 -0.00000000000E+00 -0.99432596988E+02  0.99432596988E+02  0.00000000000E+00 0. -1.
    9000006    2    1    2  501    0  0.00000000000E+00  0.00000000000E+00  0.90056740301E+03  0.10994325970E+04  0.63065869371E+03 0.  0.
         13    1    3    3    0    0 -0.18308416731E+03 -0.71067889493E+02  0.20205104066E+02  0.19743024963E+03  0.00000000000E+00 0. -1.
          2    1    3    3  501    0  0.18308416731E+03  0.71067889493E+02  0.88036229895E+03  0.90200234736E+03  0.00000000000E+00 0. -1.
<mgrwt>
<rscale>  0 0.63065869E+03</rscale>
<asrwt>0</asrwt>
<pdfrwt beam="1">0</pdfrwt>
<pdfrwt beam="2">  1        2 0.36157384E+00 0.63065869E+03</pdfrwt>
<totfact> 0.55304816E+00</totfact>
</mgrwt>
</event>
<event>
 5    1  0.2368916E-004  0.6657815E+03  0.7818608E-02  0.9777609E-01
         13   -1    0    0    0    0  0.00000000000E+00  0.00000000000E+00  0.10000000000E+04  0.10000000000E+04  0.00000000000E+00 0. -1.
          2   -1    0    0  501    0 -0.00000000000E+00 -0.00000000000E+00 -0.11081624165E+03  0.11081624165E+03  0.00000000000E+00 0. -1.
    9000006    2    1    2  501    0  0.00000000000E+00  0.00000000000E+00  0.88918375835E+03  0.11108162416E+04  0.66578147060E+03 0.  0.
         13    1    3    3    0    0 -0.65912185193E+02  0.24485153678E+03  0.84736274204E+02  0.26735169232E+03  0.00000000000E+00 0. -1.
          4    1    3    3  501    0  0.65912185193E+02 -0.24485153678E+03  0.80444748415E+03  0.84346454933E+03  0.00000000000E+00 0. -1.
<mgrwt>
<rscale>  0 0.66578147E+03</rscale>
<asrwt>0</asrwt>
<pdfrwt beam="1">0</pdfrwt>
<pdfrwt beam="2">  1        2 0.40296900E+00 0.66578147E+03</pdfrwt>
<totfact> 0.38770221E+00</totfact>
</mgrwt>
</event>
<event>
 5    1  0.2368916E-004  0.6408531E+03  0.7818608E-02  0.9824096E-01
         13   -1    0    0    0    0  0.00000000000E+00  0.00000000000E+00  0.10000000000E+04  0.10000000000E+04  0.00000000000E+00 0. -1.
          2   -1    0    0  501    0 -0.00000000000E+00 -0.00000000000E+00 -0.10267318305E+03  0.10267318305E+03  0.00000000000E+00 0. -1.
    9000006    2    1    2  501    0  0.00000000000E+00  0.00000000000E+00  0.89732681695E+03  0.11026731831E+04  0.64085312842E+03 0.  0.
         13    1    3    3    0    0 -0.26273507544E+03 -0.10195504292E+03  0.18630981970E+03  0.33784005026E+03  0.00000000000E+00 0. -1.
          2    1    3    3  501    0  0.26273507544E+03  0.10195504292E+03  0.71101699725E+03  0.76483313280E+03  0.00000000000E+00 0. -1.
<mgrwt>
<rscale>  0 0.64085313E+03</rscale>
<asrwt>0</asrwt>
<pdfrwt beam="1">0</pdfrwt>
<pdfrwt beam="2">  1        2 0.37335782E+00 0.64085313E+03</pdfrwt>
<totfact> 0.50042784E+00</totfact>
</mgrwt>
</event>
<event>
 5    1  0.2368916E-004  0.6524374E+03  0.7818608E-02  0.9802216E-01
         13   -1    0    0    0    0  0.00000000000E+00  0.00000000000E+00  0.10000000000E+04  0.10000000000E+04  0.00000000000E+00 0. -1.
          2   -1    0    0  501    0 -0.00000000000E+00 -0.00000000000E+00 -0.10641862722E+03  0.10641862722E+03  0.00000000000E+00 0. -1.
    9000006    2    1    2  501    0  0.00000000000E+00  0.00000000000E+00  0.89358137278E+03  0.11064186272E+04  0.65243736011E+03 0.  0.
         13    1    3    3    0    0  0.10954385078E+03  0.30114648036E+03  0.34322640404E+03  0.46956727133E+03  0.00000000000E+00 0. -1.
          2    1    3    3  501    0 -0.10954385078E+03 -0.30114648036E+03  0.55035496874E+03  0.63685135588E+03  0.00000000000E+00 0. -1.
<mgrwt>
<rscale>  0 0.65243736E+03</rscale>
<asrwt>0</asrwt>
<pdfrwt beam="1">0</pdfrwt>
<pdfrwt beam="2">  1        2 0.38697764E+00 0.65243736E+03</pdfrwt>
<totfact> 0.44533794E+00</totfact>
</mgrwt>
</event>
<event>
 5    1  0.2368916E-004  0.6403393E+03  0.7818608E-02  0.9825078E-01
         13   -1    0    0    0    0  0.00000000000E+00  0.00000000000E+00  0.10000000000E+04  0.10000000000E+04  0.00000000000E+00 0. -1.
          2   -1    0    0  501    0 -0.00000000000E+00 -0.00000000000E+00 -0.10250860251E+03  0.10250860251E+03  0.00000000000E+00 0. -1.
    9000006    2    1    2  501    0  0.00000000000E+00  0.00000000000E+00  0.89749139749E+03  0.11025086025E+04  0.64033929292E+03 0.  0.
         13    1    3    3    0    0  0.23375601625E+03  0.18258558514E+03  0.65628156219E+03  0.72019779221E+03  0.00000000000E+00 0. -1.
          2    1    3    3  501    0 -0.23375601625E+03 -0.18258558514E+03  0.24120983530E+03  0.38231081031E+03  0.00000000000E+00 0. -1.
<mgrwt>
<rscale>  0 0.64033929E+03</rscale>
<asrwt>0</asrwt>
<pdfrwt beam="1">0</pdfrwt>
<pdfrwt beam="2">  1        2 0.37275934E+00 0.64033929E+03</pdfrwt>
<totfact> 0.50298544E+00</totfact>
</mgrwt>
</event>
<event>
 5    1  0.2368916E-004  0.6491121E+03  0.7818608E-02  0.9808447E-01
         13   -1    0    0    0    0  0.00000000000E+00  0.00000000000E+00  0.10000000000E+04  0.10000000000E+04  0.00000000000E+00 0. -1.
          2   -1    0    0  501    0 -0.00000000000E+00 -0.00000000000E+00 -0.10533663773E+03  0.10533663773E+03  0.00000000000E+00 0. -1.
    9000006    2    1    2  501    0  0.00000000000E+00  0.00000000000E+00  0.89466336227E+03  0.11053366377E+04  0.64911212507E+03 0.  0.
         13    1    3    3    0    0  0.10077117862E+03 -0.30563698287E+03  0.51892896819E+03  0.61061941483E+03  0.00000000000E+00 0. -1.
          2    1    3    3  501    0 -0.10077117862E+03  0.30563698287E+03  0.37573439408E+03  0.49471722290E+03  0.00000000000E+00 0. -1.
<mgrwt>
<rscale>  0 0.64911213E+03</rscale>
<asrwt>0</asrwt>
<pdfrwt beam="1">0</pdfrwt>
<pdfrwt beam="2">  1        2 0.38304313E+00 0.64911213E+03</pdfrwt>
<totfact> 0.46065624E+00</totfact>
</mgrwt>
</event>
<event>
 5    1  0.2368916E-004  0.6352213E+03  0.7818608E-02  0.9834912E-01
         13   -1    0    0    0    0  0.00000000000E+00  0.00000000000E+00  0.10000000000E+04  0.10000000000E+04  0.00000000000E+00 0. -1.
          2   -1    0    0  501    0 -0.00000000000E+00 -0.00000000000E+00 -0.10087654048E+03  0.10087654048E+03  0.00000000000E+00 0. -1.
    9000006    2    1    2  501    0  0.00000000000E+00  0.00000000000E+00  0.89912345952E+03  0.11008765405E+04  0.63522134877E+03 0.  0.
         13    1    3    3    0    0  0.76204512638E+02 -0.30814304432E+03  0.43079364723E+03  0.53510973642E+03  0.00000000000E+00 0. -1.
          4    1    3    3  501    0 -0.76204512638E+02  0.30814304432E+03  0.46832981228E+03  0.56576680407E+03  0.00000000000E+00 0. -1.
<mgrwt>
<rscale>  0 0.63522135E+03</rscale>
<asrwt>0</asrwt>
<pdfrwt beam="1">0</pdfrwt>
<pdfrwt beam="2">  1        2 0.36682456E+00 0.63522135E+03</pdfrwt>
<totfact> 0.52900389E+00</totfact>
</mgrwt>
</event>
<event>
 5    1  0.2368916E-004  0.6336907E+03  0.7818608E-02  0.9837873E-01
         13   -1    0    0    0    0  0.00000000000E+00  0.00000000000E+00  0.10000000000E+04  0.10000000000E+04  0.00000000000E+00 0. -1.
          2   -1    0    0  501    0 -0.00000000000E+00 -0.00000000000E+00 -0.10039097350E+03  0.10039097350E+03  0.00000000000E+00 0. -1.
    9000006    2    1    2  501    0  0.00000000000E+00  0.00000000000E+00  0.89960902650E+03  0.11003909735E+04  0.63369069269E+03 0.  0.
         13    1    3    3    0    0 -0.31387340822E+02  0.22372431114E+03  0.64035331922E+02  0.23481536639E+03  0.00000000000E+00 0. -1.
          4    1    3    3  501    0  0.31387340822E+02 -0.22372431114E+03  0.83557369458E+03  0.86557560711E+03  0.00000000000E+00 0. -1.
<mgrwt>
<rscale>  0 0.63369069E+03</rscale>
<asrwt>0</asrwt>
<pdfrwt beam="1">0</pdfrwt>
<pdfrwt beam="2">  1        2 0.36505886E+00 0.63369069E+03</pdfrwt>
<totfact> 0.53697990E+00</totfact>
</mgrwt>
</event>
<event>
 5    1  0.2368916E-004  0.6539432E+03  0.7818608E-02  0.9799408E-01
         13   -1    0    0    0    0  0.00000000000E+00  0.00000000000E+00  0.10000000000E+04  0.10000000000E+04  0.00000000000E+00 0. -1.
          2   -1    0    0  501    0 -0.00000000000E+00 -0.00000000000E+00 -0.10691042391E+03  0.10691042391E+03  0.00000000000E+00 0. -1.
    9000006    2    1    2  501    0  0.00000000000E+00  0.00000000000E+00  0.89308957609E+03  0.11069104239E+04  0.65394318991E+03 0.  0.
         13    1    3    3    0    0  0.23007499477E+02  0.15405577472E+02 -0.10492238221E+03  0.10851443746E+03  0.00000000000E+00 0. -1.
          4    1    3    3  501    0 -0.23007499477E+02 -0.15405577472E+02  0.99801195830E+03  0.99839598645E+03  0.00000000000E+00 0. -1.
<mgrwt>
<rscale>  0 0.65394319E+03</rscale>
<asrwt>0</asrwt>
<pdfrwt beam="1">0</pdfrwt>
<pdfrwt beam="2">  1        2 0.38876600E+00 0.65394319E+03</pdfrwt>
<totfact> 0.43852910E+00</totfact>
</mgrwt>
</event>
<event>
 5    1  0.2368916E-004  0.7129839E+03  0.7818608E-02  0.9695282E-01
         13   -1    0    0    0    0  0.00000000000E+00  0.00000000000E+00  0.10000000000E+04  0.10000000000E+04  0.00000000000E+00 0. -1.
          2   -1    0    0  501    0 -0.00000000000E+00 -0.00000000000E+00 -0.12708650328E+03  0.12708650328E+03  0.00000000000E+00 0. -1.
    9000006    2    1    2  501    0  0.00000000000E+00  0.00000000000E+00  0.87291349672E+03  0.11270865033E+04  0.71298387998E+03 0.  0.
         13    1    3    3    0    0 -0.29302334848E+03  0.85076669807E+02  0.72788131823E+03  0.78924770252E+03  0.00000000000E+00 0. -1.
          4    1    3    3  501    0  0.29302334848E+03 -0.85076669807E+02  0.14503217849E+03  0.33783880076E+03  0.00000000000E+00 0. -1.
<mgrwt>
<rscale>  0 0.71298388E+03</rscale>
<asrwt>0</asrwt>
<pdfrwt beam="1">0</pdfrwt>
<pdfrwt beam="2">  1        2 0.46213371E+00 0.71298388E+03</pdfrwt>
<totfact> 0.22772425E+00</totfact>
</mgrwt>
</event>
<event>
 5    1  0.2368916E-004  0.7446272E+03  0.7818608E-02  0.9643817E-01
         13   -1    0    0    0    0  0.00000000000E+00  0.00000000000E+00  0.10000000000E+04  0.10000000000E+04  0.00000000000E+00 0. -1.
          2   -1    0    0  501    0 -0.00000000000E+00 -0.00000000000E+00 -0.13861739999E+03  0.13861739999E+03  0.00000000000E+00 0. -1.
    9000006    2    1    2  501    0  0.00000000000E+00  0.00000000000E+00  0.86138260001E+03  0.11386174000E+04  0.74462715499E+03 0.  0.
         13    1    3    3    0    0 -0.27603699954E+03  0.10077111562E+02  0.48966240919E+02  0.28052747823E+03  0.00000000000E+00 0. -1.
          2    1    3    3  501    0  0.27603699954E+03 -0.10077111562E+02  0.81241635909E+03  0.85808992175E+03  0.00000000000E+00 0. -1.
<mgrwt>
<rscale>  0 0.74462715E+03</rscale>
<asrwt>0</asrwt>
<pdfrwt beam="1">0</pdfrwt>
<pdfrwt beam="2">  1        2 0.50406434E+00 0.74462715E+03</pdfrwt>
<totfact> 0.15260379E+00</totfact>
</mgrwt>
</event>
<event>
 5    1  0.2368916E-004  0.6443066E+03  0.7818608E-02  0.9817521E-01
         13   -1    0    0    0    0  0.00000000000E+00  0.00000000000E+00  0.10000000000E+04  0.10000000000E+04  0.00000000000E+00 0. -1.
          2   -1    0    0  501    0 -0.00000000000E+00 -0.00000000000E+00 -0.10378274998E+03  0.10378274998E+03  0.00000000000E+00 0. -1.
    9000006    2    1    2  501    0  0.00000000000E+00  0.00000000000E+00  0.89621725002E+03  0.11037827500E+04  0.64430660397E+03 0.  0.
         13    1    3    3    0    0  0.30410590779E+02 -0.18525662709E+03 -0.38523880401E+00  0.18773643845E+03  0.00000000000E+00 0. -1.
          4    1    3    3  501    0 -0.30410590779E+02  0.18525662709E+03  0.89660248882E+03  0.91604631153E+03  0.00000000000E+00 0. -1.
<mgrwt>
<rscale>  0 0.64430660E+03</rscale>
<asrwt>0</asrwt>
<pdfrwt beam="1">0</pdfrwt>
<pdfrwt beam="2">  1        2 0.37739261E+00 0.64430660E+03</pdfrwt>
<totfact> 0.48349350E+00</totfact>
</mgrwt>
</event>
<event>
 5    1  0.2368916E-004  0.6240264E+03  0.7818608E-02  0.9856776E-01
         13   -1    0    0    0    0  0.00000000000E+00  0.00000000000E+00  0.10000000000E+04  0.10000000000E+04  0.00000000000E+00 0. -1.
          2   -1    0    0  501    0 -0.00000000000E+00 -0.00000000000E+00 -0.97352223249E+02  0.97352223249E+02  0.00000000000E+00 0. -1.
    9000006    2    1    2  501    0  0.00000000000E+00  0.00000000000E+00  0.90264777675E+03  0.10973522232E+04  0.62402635601E+03 0.  0.
         13    1    3    3    0    0  0.21608642664E+03  0.19971002578E+03  0.26878835334E+03  0.39852806308E+03  0.00000000000E+00 0. -1.
          4    1    3    3  501    0 -0.21608642664E+03 -0.19971002578E+03  0.63385942342E+03  0.69882416016E+03  0.00000000000E+00 0. -1.
<mgrwt>
<rscale>  0 0.62402636E+03</rscale>
<asrwt>0</asrwt>
<pdfrwt beam="1">0</pdfrwt>
<pdfrwt beam="2">  1        2 0.35400883E+00 0.62402636E+03</pdfrwt>
<totfact> 0.58946936E+00</totfact>
</mgrwt>
</event>
<event>
 5    1  0.2368916E-004  0.6524365E+03  0.7818608E-02  0.9802218E-01
         13   -1    0    0    0    0  0.00000000000E+00  0.00000000000E+00  0.10000000000E+04  0.10000000000E+04  0.00000000000E+00 0. -1.
          2   -1    0    0  501    0 -0.00000000000E+00 -0.00000000000E+00 -0.10641833569E+03  0.10641833569E+03  0.00000000000E+00 0. -1.
    9000006    2    1    2  501    0  0.00000000000E+00  0.00000000000E+00  0.89358166431E+03  0.11064183357E+04  0.65243646645E+03 0.  0.
         13    1    3    3    0    0 -0.12075854592E+03 -0.10309893000E+03 -0.36463829647E+02  0.16291601104E+03  0.00000000000E+00 0. -1.
          2    1    3    3  501    0  0.12075854592E+03  0.10309893000E+03  0.93004549396E+03  0.94350232465E+03  0.00000000000E+00 0. -1.
<mgrwt>
<rscale>  0 0.65243647E+03</rscale>
<asrwt>0</asrwt>
<pdfrwt beam="1">0</pdfrwt>
<pdfrwt beam="2">  1        2 0.38697658E+00 0.65243647E+03</pdfrwt>
<totfact> 0.44534200E+00</totfact>
</mgrwt>
</event>
<event>
 5    1  0.2368916E-004  0.5950593E+03  0.7818608E-02  0.9915710E-01
         13   -1    0    0    0    0  0.00000000000E+00  0.00000000000E+00  0.10000000000E+04  0.10000000000E+04  0.00000000000E+00 0. -1.
          2   -1    0    0  501    0 -0.00000000000E+00 -0.00000000000E+00 -0.88523895153E+02  0.88523895153E+02  0.00000000000E+00 0. -1.
    9000006    2    1    2  501    0  0.00000000000E+00  0.00000000000E+00  0.91147610485E+03  0.10885238952E+04  0.59505930848E+03 0.  0.
         13    1    3    3    0    0 -0.20782912507E+03  0.13310154750E+03  0.75972131460E+03  0.79880250565E+03  0.00000000000E+00 0. -1.
          2    1    3    3  501    0  0.20782912507E+03 -0.13310154750E+03  0.15175479025E+03  0.28972138951E+03  0.00000000000E+00 0. -1.
<mgrwt>
<rscale>  0 0.59505931E+03</rscale>
<asrwt>0</asrwt>
<pdfrwt beam="1">0</pdfrwt>
<pdfrwt beam="2">  1        2 0.32190575E+00 0.59505931E+03</pdfrwt>
<totfact> 0.77046774E+00</totfact>
</mgrwt>
</event>
<event>
 5    1  0.2368916E-004  0.6396883E+03  0.7818608E-02  0.9826323E-01
         13   -1    0    0    0    0  0.00000000000E+00  0.00000000000E+00  0.10000000000E+04  0.10000000000E+04  0.00000000000E+00 0. -1.
          2   -1    0    0  501    0 -0.00000000000E+00 -0.00000000000E+00 -0.10230028053E+03  0.10230028053E+03  0.00000000000E+00 0. -1.
    9000006    2    1    2  501    0  0.00000000000E+00  0.00000000000E+00  0.89769971947E+03  0.11023002805E+04  0.63968830074E+03 0.  0.
         13    1    3    3    0    0  0.13383612793E+03 -0.20052576143E+03  0.81103657946E+03  0.84611052668E+03  0.00000000000E+00 0. -1.
          4    1    3    3  501    0 -0.13383612793E+03  0.20052576143E+03  0.86663140009E+02  0.25618975384E+03  0.00000000000E+00 0. -1.
<mgrwt>
<rscale>  0 0.63968830E+03</rscale>
<asrwt>0</asrwt>
<pdfrwt beam="1">0</pdfrwt>
<pdfrwt beam="2">  1        2 0.37200180E+00 0.63968830E+03</pdfrwt>
<totfact> 0.50623994E+00</totfact>
</mgrwt>
</event>
<event>
 5    1  0.2368916E-004  0.6856112E+03  0.7818608E-02  0.9742160E-01
         13   -1    0    0    0    0  0.00000000000E+00  0.00000000000E+00  0.10000000000E+04  0.10000000000E+04  0.00000000000E+00 0. -1.
          2   -1    0    0  501    0 -0.00000000000E+00 -0.00000000000E+00 -0.11751568857E+03  0.11751568857E+03  0.00000000000E+00 0. -1.
    9000006    2    1    2  501    0  0.00000000000E+00  0.00000000000E+00  0.88248431143E+03  0.11175156886E+04  0.68561122677E+03 0.  0.
         13    1    3    3    0    0  0.97438348540E+02 -0.12403480608E+03 -0.54855912765E+02  0.16699711390E+03  0.00000000000E+00 0. -1.
          2    1    3    3  501    0 -0.97438348540E+02  0.12403480608E+03  0.93734022420E+03  0.95051857467E+03  0.00000000000E+00 0. -1.
<mgrwt>
<rscale>  0 0.68561123E+03</rscale>
<asrwt>0</asrwt>
<pdfrwt beam="1">0</pdfrwt>
<pdfrwt beam="2">  1        2 0.42733068E+00 0.68561123E+03</pdfrwt>
<totfact> 0.31267153E+00</totfact>
</mgrwt>
</event>
<event>
 5    1  0.2368916E-004  0.6622652E+03  0.7818608E-02  0.9784033E-01
         13   -1    0    0    0    0  0.00000000000E+00  0.00000000000E+00  0.10000000000E+04  0.10000000000E+04  0.00000000000E+00 0. -1.
          2   -1    0    0  501    0 -0.00000000000E+00 -0.00000000000E+00 -0.10964878925E+03  0.10964878925E+03  0.00000000000E+00 0. -1.
    9000006    2    1    2  501    0  0.00000000000E+00  0.00000000000E+00  0.89035121075E+03  0.11096487892E+04  0.66226517121E+03 0.  0.
         13    1    3    3    0    0  0.31207012353E+03 -0.29210606572E+02  0.26621643309E+03  0.41123255073E+03  0.00000000000E+00 0. -1.
          4    1    3    3  501    0 -0.31207012353E+03  0.29210606572E+02  0.62413477766E+03  0.69841623852E+03  0.00000000000E+00 0. -1.
<mgrwt>
<rscale>  0 0.66226517E+03</rscale>
<asrwt>0</asrwt>
<pdfrwt beam="1">0</pdfrwt>
<pdfrwt beam="2">  1        2 0.39872371E+00 0.66226517E+03</pdfrwt>
<totfact> 0.40230767E+00</totfact>
</mgrwt>
</event>
<event>
 5    1  0.2368916E-004  0.6527341E+03  0.7818608E-02  0.9801662E-01
         13   -1    0    0    0    0  0.00000000000E+00  0.00000000000E+00  0.10000000000E+04  0.10000000000E+04  0.00000000000E+00 0. -1.
          2   -1    0    0  501    0 -0.00000000000E+00 -0.00000000000E+00 -0.10651545697E+03  0.10651545697E+03  0.00000000000E+00 0. -1.
    9000006    2    1    2  501    0  0.00000000000E+00  0.00000000000E+00  0.89348454303E+03  0.11065154570E+04  0.65273411728E+03 0.  0.
         13    1    3    3    0    0 -0.11443189637E+03  0.28556999730E+03  0.63143808209E+03  0.70239514077E+03  0.00000000000E+00 0. -1.
          2    1    3    3  501    0  0.11443189637E+03 -0.28556999730E+03  0.26204646094E+03  0.40412031619E+03  0.00000000000E+00 0. -1.
<mgrwt>
<rscale>  0 0.65273412E+03</rscale>
<asrwt>0</asrwt>
<pdfrwt beam="1">0</pdfrwt>
<pdfrwt beam="2">  1        2 0.38732975E+00 0.65273412E+03</pdfrwt>
<totfact> 0.44398983E+00</totfact>
</mgrwt>
</event>
<event>
 5    1  0.2368916E-004  0.6523936E+03  0.7818608E-02  0.9802298E-01
         13   -1    0    0    0    0  0.00000000000E+00  0.00000000000E+00  0.10000000000E+04  0.10000000000E+04  0.00000000000E+00 0. -1.
          2   -1    0    0  501    0 -0.00000000000E+00 -0.00000000000E+00 -0.10640436117E+03  0.10640436117E+03  0.00000000000E+00 0. -1.
    9000006    2    1    2  501    0  0.00000000000E+00  0.00000000000E+00  0.89359563883E+03  0.11064043612E+04  0.65239362710E+03 0.  0.
         13    1    3    3    0    0 -0.26989866106E+03  0.18295754849E+03  0.43110630594E+03  0.54052881404E+03  0.00000000000E+00 0. -1.
          2    1    3    3  501    0  0.26989866106E+03 -0.18295754849E+03  0.46248933289E+03  0.56587554713E+03  0.00000000000E+00 0. -1.
<mgrwt>
<rscale>  0 0.65239363E+03</rscale>
<asrwt>0</asrwt>
<pdfrwt beam="1">0</pdfrwt>
<pdfrwt beam="2">  1        2 0.38692577E+00 0.65239363E+03</pdfrwt>
<totfact> 0.44553687E+00</totfact>
</mgrwt>
</event>
<event>
 5    1  0.2368916E-004  0.6573611E+03  0.7818608E-02  0.9793064E-01
         13   -1    0    0    0    0  0.00000000000E+00  0.00000000000E+00  0.10000000000E+04  0.10000000000E+04  0.00000000000E+00 0. -1.
          2   -1    0    0  501    0 -0.00000000000E+00 -0.00000000000E+00 -0.10803088786E+03  0.10803088786E+03  0.00000000000E+00 0. -1.
    9000006    2    1    2  501    0  0.00000000000E+00  0.00000000000E+00  0.89196911214E+03  0.11080308879E+04  0.65736105105E+03 0.  0.
         13    1    3    3    0    0 -0.16439319842E+03 -0.94273647296E+01  0.92546123356E+03  0.93999600728E+03  0.00000000000E+00 0. -1.
          2    1    3    3  501    0  0.16439319842E+03  0.94273647296E+01 -0.33492121416E+02  0.16803488058E+03  0.00000000000E+00 0. -1.
<mgrwt>
<rscale>  0 0.65736105E+03</rscale>
<asrwt>0</asrwt>
<pdfrwt beam="1">0</pdfrwt>
<pdfrwt beam="2">  1        2 0.39284042E+00 0.65736105E+03</pdfrwt>
<totfact> 0.42336660E+00</totfact>
</mgrwt>
</event>
<event>
 5    1  0.2368916E-004  0.6463958E+03  0.7818608E-02  0.9813566E-01
         13   -1    0    0    0    0  0.00000000000E+00  0.00000000000E+00  0.10000000000E+04  0.10000000000E+04  0.00000000000E+00 0. -1.
          2   -1    0    0  501    0 -0.00000000000E+00 -0.00000000000E+00 -0.10445687485E+03  0.10445687485E+03  0.00000000000E+00 0. -1.
    9000006    2    1    2  501    0  0.00000000000E+00  0.00000000000E+00  0.89554312515E+03  0.11044568749E+04  0.64639577614E+03 0.  0.
         13    1    3    3    0    0 -0.24510232905E+03 -0.19520197455E+03  0.31239051369E+03  0.44245541653E+03  0.00000000000E+00 0. -1.
          2    1    3    3  501    0  0.24510232905E+03  0.19520197455E+03  0.58315261146E+03  0.66200145833E+03  0.00000000000E+00 0. -1.
<mgrwt>
<rscale>  0 0.64639578E+03</rscale>
<asrwt>0</asrwt>
<pdfrwt beam="1">0</pdfrwt>
<pdfrwt beam="2">  1        2 0.37984398E+00 0.64639578E+03</pdfrwt>
<totfact> 0.47346239E+00</totfact>
</mgrwt>
</event>
<event>
 5    1  0.2368916E-004  0.6470495E+03  0.7818608E-02  0.9812331E-01
         13   -1    0    0    0    0  0.00000000000E+00  0.00000000000E+00  0.10000000000E+04  0.10000000000E+04  0.00000000000E+00 0. -1.
          2   -1    0    0  501    0 -0.00000000000E+00 -0.00000000000E+00 -0.10466825636E+03  0.10466825636E+03  0.00000000000E+00 0. -1.
    9000006    2    1    2  501    0  0.00000000000E+00  0.00000000000E+00  0.89533174364E+03  0.11046682564E+04  0.64704947681E+03 0.  0.
         13    1    3    3    0    0 -0.47342380589E+02  0.20188942830E+03  0.87162399117E+03  0.89595146310E+03  0.00000000000E+00 0. -1.
          4    1    3    3  501    0  0.47342380589E+02 -0.20188942830E+03  0.23707752472E+02  0.20871679326E+03  0.00000000000E+00 0. -1.
<mgrwt>
<rscale>  0 0.64704948E+03</rscale>
<asrwt>0</asrwt>
<pdfrwt beam="1">0</pdfrwt>
<pdfrwt beam="2">  1        2 0.38061264E+00 0.64704948E+03</pdfrwt>
<totfact> 0.47035625E+00</totfact>
</mgrwt>
</event>
<event>
 5    1  0.2368916E-004  0.6571613E+03  0.7818608E-02  0.9793434E-01
         13   -1    0    0    0    0  0.00000000000E+00  0.00000000000E+00  0.10000000000E+04  0.10000000000E+04  0.00000000000E+00 0. -1.
          2   -1    0    0  501    0 -0.00000000000E+00 -0.00000000000E+00 -0.10796523615E+03  0.10796523615E+03  0.00000000000E+00 0. -1.
    9000006    2    1    2  501    0  0.00000000000E+00  0.00000000000E+00  0.89203476385E+03  0.11079652362E+04  0.65716127747E+03 0.  0.
         13    1    3    3    0    0 -0.86003759798E+02 -0.29828271683E+03  0.26446227692E+03  0.40781064451E+03  0.00000000000E+00 0. -1.
          2    1    3    3  501    0  0.86003759798E+02  0.29828271683E+03  0.62757248693E+03  0.70015459165E+03  0.00000000000E+00 0. -1.
<mgrwt>
<rscale>  0 0.65716128E+03</rscale>
<asrwt>0</asrwt>
<pdfrwt beam="1">0</pdfrwt>
<pdfrwt beam="2">  1        2 0.39260169E+00 0.65716128E+03</pdfrwt>
<totfact> 0.42424179E+00</totfact>
</mgrwt>
</event>
<event>
 5    1  0.2368916E-004  0.6434271E+03  0.7818608E-02  0.9819191E-01
         13   -1    0    0    0    0  0.00000000000E+00  0.00000000000E+00  0.10000000000E+04  0.10000000000E+04  0.00000000000E+00 0. -1.
          2   -1    0    0  501    0 -0.00000000000E+00 -0.00000000000E+00 -0.10349961687E+03  0.10349961687E+03  0.00000000000E+00 0. -1.
    9000006    2    1    2  501    0  0.00000000000E+00  0.00000000000E+00  0.89650038313E+03  0.11034996169E+04  0.64342712678E+03 0.  0.
         13    1    3    3    0    0 -0.31132010417E+03  0.62231084917E+02  0.53747651867E+03  0.62423867495E+03  0.00000000000E+00 0. -1.
          2    1    3    3  501    0  0.31132010417E+03 -0.62231084917E+02  0.35902386447E+03  0.47926094192E+03  0.00000000000E+00 0. -1.
<mgrwt>
<rscale>  0 0.64342713E+03</rscale>
<asrwt>0</asrwt>
<pdfrwt beam="1">0</pdfrwt>
<pdfrwt beam="2">  1        2 0.37636304E+00 0.64342713E+03</pdfrwt>
<totfact> 0.48776405E+00</totfact>
</mgrwt>
</event>
<event>
 5    1  0.2368916E-004  0.6553150E+03  0.7818608E-02  0.9796857E-01
         13   -1    0    0    0    0  0.00000000000E+00  0.00000000000E+00  0.10000000000E+04  0.10000000000E+04  0.00000000000E+00 0. -1.
          2   -1    0    0  501    0 -0.00000000000E+00 -0.00000000000E+00 -0.10735943052E+03  0.10735943052E+03  0.00000000000E+00 0. -1.
    9000006    2    1    2  501    0  0.00000000000E+00  0.00000000000E+00  0.89264056948E+03  0.11073594305E+04  0.65531497930E+03 0.  0.
         13    1    3    3    0    0  0.16127064126E+02  0.13934475696E+03 -0.54053669550E+02  0.15032911455E+03  0.00000000000E+00 0. -1.
          4    1    3    3  501    0 -0.16127064126E+02 -0.13934475696E+03  0.94669423902E+03  0.95703031597E+03  0.00000000000E+00 0. -1.
<mgrwt>
<rscale>  0 0.65531498E+03</rscale>
<asrwt>0</asrwt>
<pdfrwt beam="1">0</pdfrwt>
<pdfrwt beam="2">  1        2 0.39039875E+00 0.65531498E+03</pdfrwt>
<totfact> 0.43239507E+00</totfact>
</mgrwt>
</event>
<event>
 5    1  0.2368916E-004  0.6580587E+03  0.7818608E-02  0.9791774E-01
         13   -1    0    0    0    0  0.00000000000E+00  0.00000000000E+00  0.10000000000E+04  0.10000000000E+04  0.00000000000E+00 0. -1.
          2   -1    0    0  501    0 -0.00000000000E+00 -0.00000000000E+00 -0.10826032568E+03  0.10826032568E+03  0.00000000000E+00 0. -1.
    9000006    2    1    2  501    0  0.00000000000E+00  0.00000000000E+00  0.89173967432E+03  0.11082603257E+04  0.65805873803E+03 0.  0.
         13    1    3    3    0    0  0.21723105877E+03  0.18084901479E+03  0.72950865175E+03  0.78235450534E+03  0.00000000000E+00 0. -1.
          2    1    3    3  501    0 -0.21723105877E+03 -0.18084901479E+03  0.16223102257E+03  0.32590582034E+03  0.00000000000E+00 0. -1.
<mgrwt>
<rscale>  0 0.65805874E+03</rscale>
<asrwt>0</asrwt>
<pdfrwt beam="1">0</pdfrwt>
<pdfrwt beam="2">  1        2 0.39367474E+00 0.65805874E+03</pdfrwt>
<totfact> 0.42032079E+00</totfact>
</mgrwt>
</event>
<event>
 5    1  0.2368916E-004  0.6444751E+03  0.7818608E-02  0.9817202E-01
         13   -1    0    0    0    0  0.00000000000E+00  0.00000000000E+00  0.10000000000E+04  0.10000000000E+04  0.00000000000E+00 0. -1.
          2   -1    0    0  501    0 -0.00000000000E+00 -0.00000000000E+00 -0.10383703872E+03  0.10383703872E+03  0.00000000000E+00 0. -1.
    9000006    2    1    2  501    0  0.00000000000E+00  0.00000000000E+00  0.89616296128E+03  0.11038370387E+04  0.64447510027E+03 0.  0.
         13    1    3    3    0    0  0.26429291404E+03  0.12233367087E+03  0.68429939774E+03  0.74369478766E+03  0.00000000000E+00 0. -1.
          2    1    3    3  501    0 -0.26429291404E+03 -0.12233367087E+03  0.21186356354E+03  0.36014225106E+03  0.00000000000E+00 0. -1.
<mgrwt>
<rscale>  0 0.64447510E+03</rscale>
<asrwt>0</asrwt>
<pdfrwt beam="1">0</pdfrwt>
<pdfrwt beam="2">  1        2 0.37759003E+00 0.64447510E+03</pdfrwt>
<totfact> 0.48267856E+00</totfact>
</mgrwt>
</event>
<event>
 5    1  0.2368916E-004  0.6051203E+03  0.7818608E-02  0.9894840E-01
         13   -1    0    0    0    0  0.00000000000E+00  0.00000000000E+00  0.10000000000E+04  0.10000000000E+04  0.00000000000E+00 0. -1.
          2   -1    0    0  501    0 -0.00000000000E+00 -0.00000000000E+00 -0.91542634626E+02  0.91542634626E+02  0.00000000000E+00 0. -1.
    9000006    2    1    2  501    0  0.00000000000E+00  0.00000000000E+00  0.90845736537E+03  0.10915426346E+04  0.60512026780E+03 0.  0.
         13    1    3    3    0    0 -0.18240261523E+03  0.72354766313E+02  0.38808793622E+02  0.20003011951E+03  0.00000000000E+00 0. -1.
          4    1    3    3  501    0  0.18240261523E+03 -0.72354766313E+02  0.86964857175E+03  0.89151251511E+03  0.00000000000E+00 0. -1.
<mgrwt>
<rscale>  0 0.60512027E+03</rscale>
<asrwt>0</asrwt>
<pdfrwt beam="1">0</pdfrwt>
<pdfrwt beam="2">  1        2 0.33288301E+00 0.60512027E+03</pdfrwt>
<totfact> 0.70337251E+00</totfact>
</mgrwt>
</event>
<event>
 5    1  0.2368916E-004  0.6765453E+03  0.7818608E-02  0.9758205E-01
         13   -1    0    0    0    0  0.00000000000E+00  0.00000000000E+00  0.10000000000E+04  0.10000000000E+04  0.00000000000E+00 0. -1.
          2   -1    0    0  501    0 -0.00000000000E+00 -0.00000000000E+00 -0.11442839152E+03  0.11442839152E+03  0.00000000000E+00 0. -1.
    9000006    2    1    2  501    0  0.00000000000E+00  0.00000000000E+00  0.88557160848E+03  0.11144283915E+04  0.67654531708E+03 0.  0.
         13    1    3    3    0    0  0.29025499855E+03 -0.10976646326E+03  0.22097885570E+03  0.38095707804E+03  0.00000000000E+00 0. -1.
          4    1    3    3  501    0 -0.29025499855E+03  0.10976646326E+03  0.66459275278E+03  0.73347131348E+03  0.00000000000E+00 0. -1.
<mgrwt>
<rscale>  0 0.67654532E+03</rscale>
<asrwt>0</asrwt>
<pdfrwt beam="1">0</pdfrwt>
<pdfrwt beam="2">  1        2 0.41610412E+00 0.67654532E+03</pdfrwt>
<totfact> 0.34546874E+00</totfact>
</mgrwt>
</event>
<event>
 5    1  0.2368916E-004  0.6521383E+03  0.7818608E-02  0.9802775E-01
         13   -1    0    0    0    0  0.00000000000E+00  0.00000000000E+00  0.10000000000E+04  0.10000000000E+04  0.00000000000E+00 0. -1.
          2   -1    0    0  501    0 -0.00000000000E+00 -0.00000000000E+00 -0.10632109173E+03  0.10632109173E+03  0.00000000000E+00 0. -1.
    9000006    2    1    2  501    0  0.00000000000E+00  0.00000000000E+00  0.89367890827E+03  0.11063210917E+04  0.65213830352E+03 0.  0.
         13    1    3    3    0    0 -0.64510571999E+02 -0.31801352465E+03  0.50120208657E+03  0.59707432313E+03  0.00000000000E+00 0. -1.
          4    1    3    3  501    0  0.64510571999E+02  0.31801352465E+03  0.39247682170E+03  0.50924676860E+03  0.00000000000E+00 0. -1.
<mgrwt>
<rscale>  0 0.65213830E+03</rscale>
<asrwt>0</asrwt>
<pdfrwt beam="1">0</pdfrwt>
<pdfrwt beam="2">  1        2 0.38662297E+00 0.65213830E+03</pdfrwt>
<totfact> 0.44669962E+00</totfact>
</mgrwt>
</event>
<event>
 5    1  0.2368916E-004  0.6475433E+03  0.7818608E-02  0.9811400E-01
         13   -1    0    0    0    0  0.00000000000E+00  0.00000000000E+00  0.10000000000E+04  0.10000000000E+04  0.00000000000E+00 0. -1.
          2   -1    0    0  501    0 -0.00000000000E+00 -0.00000000000E+00 -0.10482809624E+03  0.10482809624E+03  0.00000000000E+00 0. -1.
    9000006    2    1    2  501    0  0.00000000000E+00  0.00000000000E+00  0.89517190376E+03  0.11048280962E+04  0.64754334600E+03 0.  0.
         13    1    3    3    0    0  0.13339447081E+03  0.19111592037E+03  0.64135697046E+02  0.24172870640E+03  0.00000000000E+00 0. -1.
          4    1    3    3  501    0 -0.13339447081E+03 -0.19111592037E+03  0.83103620672E+03  0.86309938984E+03  0.00000000000E+00 0. -1.
<mgrwt>
<rscale>  0 0.64754335E+03</rscale>
<asrwt>0</asrwt>
<pdfrwt beam="1">0</pdfrwt>
<pdfrwt beam="2">  1        2 0.38119388E+00 0.64754335E+03</pdfrwt>
<totfact> 0.46801980E+00</totfact>
</mgrwt>
</event>
<event>
 5    1  0.2368916E-004  0.6489456E+03  0.7818608E-02  0.9808760E-01
         13   -1    0    0    0    0  0.00000000000E+00  0.00000000000E+00  0.10000000000E+04  0.10000000000E+04  0.00000000000E+00 0. -1.
          2   -1    0    0  501    0 -0.00000000000E+00 -0.00000000000E+00 -0.10528260109E+03  0.10528260109E+03  0.00000000000E+00 0. -1.
    9000006    2    1    2  501    0  0.00000000000E+00  0.00000000000E+00  0.89471739891E+03  0.11052826011E+04  0.64894560970E+03 0.  0.
         13    1    3    3    0    0 -0.24002677624E+03  0.39516553480E+02  0.81634185912E+02  0.25659024070E+03  0.00000000000E+00 0. -1.
          4    1    3    3  501    0  0.24002677624E+03 -0.39516553480E+02  0.81308321300E+03  0.84869236039E+03  0.00000000000E+00 0. -1.
<mgrwt>
<rscale>  0 0.64894561E+03</rscale>
<asrwt>0</asrwt>
<pdfrwt beam="1">0</pdfrwt>
<pdfrwt beam="2">  1        2 0.38284663E+00 0.64894561E+03</pdfrwt>
<totfact> 0.46143365E+00</totfact>
</mgrwt>
</event>
<event>
 5    1  0.2368916E-004  0.6522201E+03  0.7818608E-02  0.9802622E-01
         13   -1    0    0    0    0  0.00000000000E+00  0.00000000000E+00  0.10000000000E+04  0.10000000000E+04  0.00000000000E+00 0. -1.
          2   -1    0    0  501    0 -0.00000000000E+00 -0.00000000000E+00 -0.10634775903E+03  0.10634775903E+03  0.00000000000E+00 0. -1.
    9000006    2    1    2  501    0  0.00000000000E+00  0.00000000000E+00  0.89365224097E+03  0.11063477590E+04  0.65222008259E+03 0.  0.
         13    1    3    3    0    0 -0.31462151830E+03 -0.50404367077E+02  0.56459802325E+03  0.64830411679E+03  0.00000000000E+00 0. -1.
          4    1    3    3  501    0  0.31462151830E+03  0.50404367077E+02  0.32905421772E+03  0.45804364224E+03  0.00000000000E+00 0. -1.
<mgrwt>
<rscale>  0 0.65222008E+03</rscale>
<asrwt>0</asrwt>
<pdfrwt beam="1">0</pdfrwt>
<pdfrwt beam="2">  1        2 0.38671994E+00 0.65222008E+03</pdfrwt>
<totfact> 0.44632695E+00</totfact>
</mgrwt>
</event>
<event>
 5    1  0.2368916E-004  0.6493247E+03  0.7818608E-02  0.9808047E-01
         13   -1    0    0    0    0  0.00000000000E+00  0.00000000000E+00  0.10000000000E+04  0.10000000000E+04  0.00000000000E+00 0. -1.
          2   -1    0    0  501    0 -0.00000000000E+00 -0.00000000000E+00 -0.10540563434E+03  0.10540563434E+03  0.00000000000E+00 0. -1.
    9000006    2    1    2  501    0  0.00000000000E+00  0.00000000000E+00  0.89459436566E+03  0.11054056343E+04  0.64932467792E+03 0.  0.
         13    1    3    3    0    0 -0.21070014843E+02  0.21987527990E+02 -0.10296882282E+03  0.10737772295E+03  0.00000000000E+00 0. -1.
          2    1    3    3  501    0  0.21070014843E+02 -0.21987527990E+02  0.99756318848E+03  0.99802791139E+03  0.00000000000E+00 0. -1.
<mgrwt>
<rscale>  0 0.64932468E+03</rscale>
<asrwt>0</asrwt>
<pdfrwt beam="1">0</pdfrwt>
<pdfrwt beam="2">  1        2 0.38329402E+00 0.64932468E+03</pdfrwt>
<totfact> 0.45966534E+00</totfact>
</mgrwt>
</event>
<event>
 5    1  0.2368916E-004  0.6558772E+03  0.7818608E-02  0.9795813E-01
         13   -1    0    0    0    0  0.00000000000E+00  0.00000000000E+00  0.10000000000E+04  0.10000000000E+04  0.00000000000E+00 0. -1.
          2   -1    0    0  501    0 -0.00000000000E+00 -0.00000000000E+00 -0.10754372841E+03  0.10754372841E+03  0.00000000000E+00 0. -1.
    9000006    2    1    2  501    0  0.00000000000E+00  0.00000000000E+00  0.89245627159E+03  0.11075437284E+04  0.65587720927E+03 0.  0.
         13    1    3    3    0    0 -0.81735387767E+02  0.79337647528E+02  0.96552034221E+03  0.97221636848E+03  0.00000000000E+00 0. -1.
          4    1    3    3  501    0  0.81735387767E+02 -0.79337647528E+02 -0.73064070618E+02  0.13532735992E+03  0.00000000000E+00 0. -1.
<mgrwt>
<rscale>  0 0.65587721E+03</rscale>
<asrwt>0</asrwt>
<pdfrwt beam="1">0</pdfrwt>
<pdfrwt beam="2">  1        2 0.39106893E+00 0.65587721E+03</pdfrwt>
<totfact> 0.42989983E+00</totfact>
</mgrwt>
</event>
<event>
 5    1  0.2368916E-004  0.6543371E+03  0.7818608E-02  0.9798675E-01
         13   -1    0    0    0    0  0.00000000000E+00  0.00000000000E+00  0.10000000000E+04  0.10000000000E+04  0.00000000000E+00 0. -1.
          2   -1    0    0  501    0 -0.00000000000E+00 -0.00000000000E+00 -0.10703925606E+03  0.10703925606E+03  0.00000000000E+00 0. -1.
    9000006    2    1    2  501    0  0.00000000000E+00  0.00000000000E+00  0.89296074394E+03  0.11070392561E+04  0.65433708764E+03 0.  0.
         13    1    3    3    0    0 -0.86422403920E+02 -0.63750779052E+02 -0.76369985538E+02  0.13177772354E+03  0.00000000000E+00 0. -1.
          4    1    3    3  501    0  0.86422403920E+02  0.63750779052E+02  0.96933072947E+03  0.97526153253E+03  0.00000000000E+00 0. -1.
<mgrwt>
<rscale>  0 0.65433709E+03</rscale>
<asrwt>0</asrwt>
<pdfrwt beam="1">0</pdfrwt>
<pdfrwt beam="2">  1        2 0.38923448E+00 0.65433709E+03</pdfrwt>
<totfact> 0.43676108E+00</totfact>
</mgrwt>
</event>
<event>
 5    1  0.2368916E-004  0.6469735E+03  0.7818608E-02  0.9812475E-01
         13   -1    0    0    0    0  0.00000000000E+00  0.00000000000E+00  0.10000000000E+04  0.10000000000E+04  0.00000000000E+00 0. -1.
          2   -1    0    0  501    0 -0.00000000000E+00 -0.00000000000E+00 -0.10464368202E+03  0.10464368202E+03  0.00000000000E+00 0. -1.
    9000006    2    1    2  501    0  0.00000000000E+00  0.00000000000E+00  0.89535631798E+03  0.11046436820E+04  0.64697351420E+03 0.  0.
         13    1    3    3    0    0  0.10593998052E+03 -0.29578926929E+03  0.31620700009E+03  0.44575939497E+03  0.00000000000E+00 0. -1.
          2    1    3    3  501    0 -0.10593998052E+03  0.29578926929E+03  0.57914931789E+03  0.65888428705E+03  0.00000000000E+00 0. -1.
<mgrwt>
<rscale>  0 0.64697351E+03</rscale>
<asrwt>0</asrwt>
<pdfrwt beam="1">0</pdfrwt>
<pdfrwt beam="2">  1        2 0.38052328E+00 0.64697351E+03</pdfrwt>
<totfact> 0.47071640E+00</totfact>
</mgrwt>
</event>
<event>
 5    1  0.2368916E-004  0.6413929E+03  0.7818608E-02  0.9823065E-01
         13   -1    0    0    0    0  0.00000000000E+00  0.00000000000E+00  0.10000000000E+04  0.10000000000E+04  0.00000000000E+00 0. -1.
          2   -1    0    0  501    0 -0.00000000000E+00 -0.00000000000E+00 -0.10284622052E+03  0.10284622052E+03  0.00000000000E+00 0. -1.
    9000006    2    1    2  501    0  0.00000000000E+00  0.00000000000E+00  0.89715377948E+03  0.11028462205E+04  0.64139292331E+03 0.  0.
         13    1    3    3    0    0  0.16704028654E+03  0.61436656331E+02  0.90728576572E+03  0.92457794736E+03  0.00000000000E+00 0. -1.
          2    1    3    3  501    0 -0.16704028654E+03 -0.61436656331E+02 -0.10131986236E+02  0.17826827316E+03  0.00000000000E+00 0. -1.
<mgrwt>
<rscale>  0 0.64139292E+03</rscale>
<asrwt>0</asrwt>
<pdfrwt beam="1">0</pdfrwt>
<pdfrwt beam="2">  1        2 0.37398705E+00 0.64139292E+03</pdfrwt>
<totfact> 0.49775165E+00</totfact>
</mgrwt>
</event>
<event>
 5    1  0.2368916E-004  0.6458774E+03  0.7818608E-02  0.9814546E-01
         13   -1    0    0    0    0  0.00000000000E+00  0.00000000000E+00  0.10000000000E+04  0.10000000000E+04  0.00000000000E+00 0. -1.
          2   -1    0    0  501    0 -0.00000000000E+00 -0.00000000000E+00 -0.10428940338E+03  0.10428940338E+03  0.00000000000E+00 0. -1.
    9000006    2    1    2  501    0  0.00000000000E+00  0.00000000000E+00  0.89571059662E+03  0.11042894034E+04  0.64587739822E+03 0.  0.
         13    1    3    3    0    0  0.10550257535E+02  0.25335058656E+03  0.10594114711E+03  0.27481148865E+03  0.00000000000E+00 0. -1.
          2    1    3    3  501    0 -0.10550257535E+02 -0.25335058656E+03  0.78976944951E+03  0.82947791473E+03  0.00000000000E+00 0. -1.
<mgrwt>
<rscale>  0 0.64587740E+03</rscale>
<asrwt>0</asrwt>
<pdfrwt beam="1">0</pdfrwt>
<pdfrwt beam="2">  1        2 0.37923499E+00 0.64587740E+03</pdfrwt>
<totfact> 0.47593654E+00</totfact>
</mgrwt>
</event>
<event>
 5    1  0.2368916E-004  0.6548454E+03  0.7818608E-02  0.9797729E-01
         13   -1    0    0    0    0  0.00000000000E+00  0.00000000000E+00  0.10000000000E+04  0.10000000000E+04  0.00000000000E+00 0. -1.
          2   -1    0    0  501    0 -0.00000000000E+00 -0.00000000000E+00 -0.10720562852E+03  0.10720562852E+03  0.00000000000E+00 0. -1.
    9000006    2    1    2  501    0  0.00000000000E+00  0.00000000000E+00  0.89279437148E+03  0.11072056285E+04  0.65484541237E+03 0.  0.
         13    1    3    3    0    0 -0.25346684757E+03  0.20587146479E+03  0.40577860911E+03  0.52085005754E+03  0.00000000000E+00 0. -1.
          2    1    3    3  501    0  0.25346684757E+03 -0.20587146479E+03  0.48701576237E+03  0.58635557099E+03  0.00000000000E+00 0. -1.
<mgrwt>
<rscale>  0 0.65484541E+03</rscale>
<asrwt>0</asrwt>
<pdfrwt beam="1">0</pdfrwt>
<pdfrwt beam="2">  1        2 0.38983947E+00 0.65484541E+03</pdfrwt>
<totfact> 0.43448742E+00</totfact>
</mgrwt>
</event>
<event>
 5    1  0.2368916E-004  0.6328713E+03  0.7818608E-02  0.9839462E-01
         13   -1    0    0    0    0  0.00000000000E+00  0.00000000000E+00  0.10000000000E+04  0.10000000000E+04  0.00000000000E+00 0. -1.
          2   -1    0    0  501    0 -0.00000000000E+00 -0.00000000000E+00 -0.10013150929E+03  0.10013150929E+03  0.00000000000E+00 0. -1.
    9000006    2    1    2  501    0  0.00000000000E+00  0.00000000000E+00  0.89986849071E+03  0.11001315093E+04  0.63287126430E+03 0.  0.
         13    1    3    3    0    0 -0.26818069961E+03  0.26255568416E+02  0.73831311612E+03  0.78594942582E+03  0.00000000000E+00 0. -1.
          2    1    3    3  501    0  0.26818069961E+03 -0.26255568416E+02  0.16155537459E+03  0.31418208347E+03  0.00000000000E+00 0. -1.
<mgrwt>
<rscale>  0 0.63287126E+03</rscale>
<asrwt>0</asrwt>
<pdfrwt beam="1">0</pdfrwt>
<pdfrwt beam="2">  1        2 0.36411535E+00 0.63287126E+03</pdfrwt>
<totfact> 0.54128712E+00</totfact>
</mgrwt>
</event>
<event>
 5    1  0.2368916E-004  0.6454996E+03  0.7818608E-02  0.9815261E-01
         13   -1    0    0    0    0  0.00000000000E+00  0.00000000000E+00  0.10000000000E+04  0.10000000000E+04  0.00000000000E+00 0. -1.
          2   -1    0    0  501    0 -0.00000000000E+00 -0.00000000000E+00 -0.10416741748E+03  0.10416741748E+03  0.00000000000E+00 0. -1.
    9000006    2    1    2  501    0  0.00000000000E+00  0.00000000000E+00  0.89583258252E+03  0.11041674175E+04  0.64549955068E+03 0.  0.
         13    1    3    3    0    0 -0.15122083817E+03  0.17420200624E+03  0.61793624080E+02  0.23881485057E+03  0.00000000000E+00 0. -1.
          4    1    3    3  501    0  0.15122083817E+03 -0.17420200624E+03  0.83403895844E+03  0.86535256691E+03  0.00000000000E+00 0. -1.
<mgrwt>
<rscale>  0 0.64549955E+03</rscale>
<asrwt>0</asrwt>
<pdfrwt beam="1">0</pdfrwt>
<pdfrwt beam="2">  1        2 0.37879141E+00 0.64549955E+03</pdfrwt>
<totfact> 0.47774611E+00</totfact>
</mgrwt>
</event>
<event>
 5    1  0.2368916E-004  0.6761833E+03  0.7818608E-02  0.9758852E-01
         13   -1    0    0    0    0  0.00000000000E+00  0.00000000000E+00  0.10000000000E+04  0.10000000000E+04  0.00000000000E+00 0. -1.
          2   -1    0    0  501    0 -0.00000000000E+00 -0.00000000000E+00 -0.11430595057E+03  0.11430595057E+03  0.00000000000E+00 0. -1.
    9000006    2    1    2  501    0  0.00000000000E+00  0.00000000000E+00  0.88569404943E+03  0.11143059506E+04  0.67618326086E+03 0.  0.
         13    1    3    3    0    0  0.13123063003E+02 -0.57296986602E+02  0.99151477352E+03  0.99325560938E+03  0.00000000000E+00 0. -1.
          2    1    3    3  501    0 -0.13123063003E+02  0.57296986602E+02 -0.10582072409E+03  0.12105034119E+03  0.00000000000E+00 0. -1.
<mgrwt>
<rscale>  0 0.67618326E+03</rscale>
<asrwt>0</asrwt>
<pdfrwt beam="1">0</pdfrwt>
<pdfrwt beam="2">  1        2 0.41565888E+00 0.67618326E+03</pdfrwt>
<totfact> 0.34683014E+00</totfact>
</mgrwt>
</event>
<event>
 5    1  0.2368916E-004  0.6502749E+03  0.7818608E-02  0.9806263E-01
         13   -1    0    0    0    0  0.00000000000E+00  0.00000000000E+00  0.10000000000E+04  0.10000000000E+04  0.00000000000E+00 0. -1.
          2   -1    0    0  501    0 -0.00000000000E+00 -0.00000000000E+00 -0.10571436632E+03  0.10571436632E+03  0.00000000000E+00 0. -1.
    9000006    2    1    2  501    0  0.00000000000E+00  0.00000000000E+00  0.89428563368E+03  0.11057143663E+04  0.65027491517E+03 0.  0.
         13    1    3    3    0    0  0.13514887730E+03 -0.16410615712E+03  0.28841366546E+02  0.21454107827E+03  0.00000000000E+00 0. -1.
          2    1    3    3  501    0 -0.13514887730E+03  0.16410615712E+03  0.86544426713E+03  0.89117328806E+03  0.00000000000E+00 0. -1.
<mgrwt>
<rscale>  0 0.65027492E+03</rscale>
<asrwt>0</asrwt>
<pdfrwt beam="1">0</pdfrwt>
<pdfrwt beam="2">  1        2 0.38441669E+00 0.65027492E+03</pdfrwt>
<totfact> 0.45525509E+00</totfact>
</mgrwt>
</event>
<event>
 5    1  0.2368916E-004  0.5973932E+03  0.7818608E-02  0.9910829E-01
         13   -1    0    0    0    0  0.00000000000E+00  0.00000000000E+00  0.10000000000E+04  0.10000000000E+04  0.00000000000E+00 0. -1.
          2   -1    0    0  501    0 -0.00000000000E+00 -0.00000000000E+00 -0.89219671748E+02  0.89219671748E+02  0.00000000000E+00 0. -1.
    9000006    2    1    2  501    0  0.00000000000E+00  0.00000000000E+00  0.91078032825E+03  0.10892196717E+04  0.59739324318E+03 0.  0.
         13    1    3    3    0    0  0.11155432949E+03 -0.19809697442E+03  0.80862309509E+03  0.83997505297E+03  0.00000000000E+00 0. -1.
          4    1    3    3  501    0 -0.11155432949E+03  0.19809697442E+03  0.10215723316E+03  0.24924461878E+03  0.00000000000E+00 0. -1.
<mgrwt>
<rscale>  0 0.59739324E+03</rscale>
<asrwt>0</asrwt>
<pdfrwt beam="1">0</pdfrwt>
<pdfrwt beam="2">  1        2 0.32443585E+00 0.59739324E+03</pdfrwt>
<totfact> 0.75447943E+00</totfact>
</mgrwt>
</event>
<event>
 5    1  0.2368916E-004  0.6812991E+03  0.7818608E-02  0.9749759E-01
         13   -1    0    0    0    0  0.00000000000E+00  0.00000000000E+00  0.10000000000E+04  0.10000000000E+04  0.00000000000E+00 0. -1.
          2   -1    0    0  501    0 -0.00000000000E+00 -0.00000000000E+00 -0.11604212449E+03  0.11604212449E+03  0.00000000000E+00 0. -1.
    9000006    2    1    2  501    0  0.00000000000E+00  0.00000000000E+00  0.88395787551E+03  0.11160421245E+04  0.68129912518E+03 0.  0.
         13    1    3    3    0    0 -0.44127291071E+02 -0.32978070652E+03  0.32227820632E+03  0.46321245070E+03  0.00000000000E+00 0. -1.
          4    1    3    3  501    0  0.44127291071E+02  0.32978070652E+03  0.56167966919E+03  0.65282967379E+03  0.00000000000E+00 0. -1.
<mgrwt>
<rscale>  0 0.68129913E+03</rscale>
<asrwt>0</asrwt>
<pdfrwt beam="1">0</pdfrwt>
<pdfrwt beam="2">  1        2 0.42197225E+00 0.68129913E+03</pdfrwt>
<totfact> 0.32796423E+00</totfact>
</mgrwt>
</event>
<event>
 5    1  0.2368916E-004  0.6420794E+03  0.7818608E-02  0.9821756E-01
         13   -1    0    0    0    0  0.00000000000E+00  0.00000000000E+00  0.10000000000E+04  0.10000000000E+04  0.00000000000E+00 0. -1.
          2   -1    0    0  501    0 -0.00000000000E+00 -0.00000000000E+00 -0.10306648352E+03  0.10306648352E+03  0.00000000000E+00 0. -1.
    9000006    2    1    2  501    0  0.00000000000E+00  0.00000000000E+00  0.89693351648E+03  0.11030664835E+04  0.64207938301E+03 0.  0.
         13    1    3    3    0    0 -0.10075365352E+03  0.10831144217E+03  0.93796112167E+03  0.94955449184E+03  0.00000000000E+00 0. -1.
          4    1    3    3  501    0  0.10075365352E+03 -0.10831144217E+03 -0.41027605195E+02  0.15351199168E+03  0.00000000000E+00 0. -1.
<mgrwt>
<rscale>  0 0.64207938E+03</rscale>
<asrwt>0</asrwt>
<pdfrwt beam="1">0</pdfrwt>
<pdfrwt beam="2">  1        2 0.37478800E+00 0.64207938E+03</pdfrwt>
<totfact> 0.49436399E+00</totfact>
</mgrwt>
</event>
<event>
 5    1  0.2368916E-004  0.6567681E+03  0.7818608E-02  0.9794162E-01
         13   -1    0    0    0    0  0.00000000000E+00  0.00000000000E+00  0.10000000000E+04  0.10000000000E+04  0.00000000000E+00 0. -1.
          2   -1    0    0  501    0 -0.00000000000E+00 -0.00000000000E+00 -0.10783608688E+03  0.10783608688E+03  0.00000000000E+00 0. -1.
    9000006    2    1    2  501    0  0.00000000000E+00  0.00000000000E+00  0.89216391312E+03  0.11078360869E+04  0.65676810786E+03 0.  0.
         13    1    3    3    0    0  0.16729472800E+03 -0.45353096187E+02  0.91654982182E+03  0.93279580039E+03  0.00000000000E+00 0. -1.
          4    1    3    3  501    0 -0.16729472800E+03  0.45353096187E+02 -0.24385908697E+02  0.17504028648E+03  0.00000000000E+00 0. -1.
<mgrwt>
<rscale>  0 0.65676811E+03</rscale>
<asrwt>0</asrwt>
<pdfrwt beam="1">0</pdfrwt>
<pdfrwt beam="2">  1        2 0.39213205E+00 0.65676811E+03</pdfrwt>
<totfact> 0.42596822E+00</totfact>
</mgrwt>
</event>
<event>
 5    1  0.2368916E-004  0.6615879E+03  0.7818608E-02  0.9785275E-01
         13   -1    0    0    0    0  0.00000000000E+00  0.00000000000E+00  0.10000000000E+04  0.10000000000E+04  0.00000000000E+00 0. -1.
          2   -1    0    0  501    0 -0.00000000000E+00 -0.00000000000E+00 -0.10942462194E+03  0.10942462194E+03  0.00000000000E+00 0. -1.
    9000006    2    1    2  501    0  0.00000000000E+00  0.00000000000E+00  0.89057537806E+03  0.11094246219E+04  0.66158785341E+03 0.  0.
         13    1    3    3    0    0  0.25560967993E+03  0.91108371685E+01  0.79706093020E+03  0.83709344895E+03  0.00000000000E+00 0. -1.
          4    1    3    3  501    0 -0.25560967993E+03 -0.91108371685E+01  0.93514447857E+02  0.27233117299E+03  0.00000000000E+00 0. -1.
<mgrwt>
<rscale>  0 0.66158785E+03</rscale>
<asrwt>0</asrwt>
<pdfrwt beam="1">0</pdfrwt>
<pdfrwt beam="2">  1        2 0.39790856E+00 0.66158785E+03</pdfrwt>
<totfact> 0.40516801E+00</totfact>
</mgrwt>
</event>
<event>
 5    1  0.2368916E-004  0.6500449E+03  0.7818608E-02  0.9806695E-01
         13   -1    0    0    0    0  0.00000000000E+00  0.00000000000E+00  0.10000000000E+04  0.10000000000E+04  0.00000000000E+00 0. -1.
          2   -1    0    0  501    0 -0.00000000000E+00 -0.00000000000E+00 -0.10563958657E+03  0.10563958657E+03  0.00000000000E+00 0. -1.
    9000006    2    1    2  501    0  0.00000000000E+00  0.00000000000E+00  0.89436041343E+03  0.11056395866E+04  0.65004488020E+03 0.  0.
         13    1    3    3    0    0 -0.71288692161E+01  0.11079106932E+03 -0.72389575255E+02  0.13253577790E+03  0.00000000000E+00 0. -1.
          4    1    3    3  501    0  0.71288692161E+01 -0.11079106932E+03  0.96674998869E+03  0.97310380867E+03  0.00000000000E+00 0. -1.
<mgrwt>
<rscale>  0 0.65004488E+03</rscale>
<asrwt>0</asrwt>
<pdfrwt beam="1">0</pdfrwt>
<pdfrwt beam="2">  1        2 0.38414476E+00 0.65004488E+03</pdfrwt>
<totfact> 0.45631978E+00</totfact>
</mgrwt>
</event>
<event>
 5    1  0.2368916E-004  0.6450563E+03  0.7818608E-02  0.9816100E-01
         13   -1    0    0    0    0  0.00000000000E+00  0.00000000000E+00  0.10000000000E+04  0.10000000000E+04  0.00000000000E+00 0. -1.
          2   -1    0    0  501    0 -0.00000000000E+00 -0.00000000000E+00 -0.10402442268E+03  0.10402442268E+03  0.00000000000E+00 0. -1.
    9000006    2    1    2  501    0  0.00000000000E+00  0.00000000000E+00  0.89597557732E+03  0.11040244227E+04  0.64505634693E+03 0.  0.
         13    1    3    3    0    0 -0.81986950382E+02 -0.31118225254E+03  0.41095537209E+03  0.52195840081E+03  0.00000000000E+00 0. -1.
          2    1    3    3  501    0  0.81986950382E+02  0.31118225254E+03  0.48502020523E+03  0.58206602187E+03  0.00000000000E+00 0. -1.
<mgrwt>
<rscale>  0 0.64505635E+03</rscale>
<asrwt>0</asrwt>
<pdfrwt beam="1">0</pdfrwt>
<pdfrwt beam="2">  1        2 0.37827143E+00 0.64505635E+03</pdfrwt>
<totfact> 0.47987531E+00</totfact>
</mgrwt>
</event>
<event>
 5    1  0.2368916E-004  0.6484461E+03  0.7818608E-02  0.9809699E-01
         13   -1    0    0    0    0  0.00000000000E+00  0.00000000000E+00  0.10000000000E+04  0.10000000000E+04  0.00000000000E+00 0. -1.
          2   -1    0    0  501    0 -0.00000000000E+00 -0.00000000000E+00 -0.10512058723E+03  0.10512058723E+03  0.00000000000E+00 0. -1.
    9000006    2    1    2  501    0  0.00000000000E+00  0.00000000000E+00  0.89487941277E+03  0.11051205872E+04  0.64844610333E+03 0.  0.
         13    1    3    3    0    0 -0.28517533645E+03  0.97361081865E+02  0.65135660590E+03  0.71768348234E+03  0.00000000000E+00 0. -1.
          4    1    3    3  501    0  0.28517533645E+03 -0.97361081865E+02  0.24352280687E+03  0.38743710489E+03  0.00000000000E+00 0. -1.
<mgrwt>
<rscale>  0 0.64844610E+03</rscale>
<asrwt>0</asrwt>
<pdfrwt beam="1">0</pdfrwt>
<pdfrwt beam="2">  1        2 0.38225749E+00 0.64844610E+03</pdfrwt>
<totfact> 0.46377164E+00</totfact>
</mgrwt>
</event>
<event>
 5    1  0.2368916E-004  0.6436391E+03  0.7818608E-02  0.9818789E-01
         13   -1    0    0    0    0  0.00000000000E+00  0.00000000000E+00  0.10000000000E+04  0.10000000000E+04  0.00000000000E+00 0. -1.
          2   -1    0    0  501    0 -0.00000000000E+00 -0.00000000000E+00 -0.10356783106E+03  0.10356783106E+03  0.00000000000E+00 0. -1.
    9000006    2    1    2  501    0  0.00000000000E+00  0.00000000000E+00  0.89643216894E+03  0.11035678311E+04  0.64363912578E+03 0.  0.
         13    1    3    3    0    0 -0.17933394734E+03  0.19716666681E+03  0.13896222546E+03  0.30057587939E+03  0.00000000000E+00 0. -1.
          2    1    3    3  501    0  0.17933394734E+03 -0.19716666681E+03  0.75746994348E+03  0.80299195167E+03  0.00000000000E+00 0. -1.
<mgrwt>
<rscale>  0 0.64363913E+03</rscale>
<asrwt>0</asrwt>
<pdfrwt beam="1">0</pdfrwt>
<pdfrwt beam="2">  1        2 0.37661109E+00 0.64363913E+03</pdfrwt>
<totfact> 0.48673203E+00</totfact>
</mgrwt>
</event>
<event>
 5    1  0.2368916E-004  0.6446491E+03  0.7818608E-02  0.9816872E-01
         13   -1    0    0    0    0  0.00000000000E+00  0.00000000000E+00  0.10000000000E+04  0.10000000000E+04  0.00000000000E+00 0. -1.
          2   -1    0    0  501    0 -0.00000000000E+00 -0.00000000000E+00 -0.10389311326E+03  0.10389311326E+03  0.00000000000E+00 0. -1.
    9000006    2    1    2  501    0  0.00000000000E+00  0.00000000000E+00  0.89610688674E+03  0.11038931133E+04  0.64464909294E+03 0.  0.
         13    1    3    3    0    0  0.69604482220E+02 -0.22968888617E+03  0.81648222272E+03  0.85102584472E+03  0.00000000000E+00 0. -1.
          2    1    3    3  501    0 -0.69604482220E+02  0.22968888617E+03  0.79624664026E+02  0.25286726854E+03  0.00000000000E+00 0. -1.
<mgrwt>
<rscale>  0 0.64464909E+03</rscale>
<asrwt>0</asrwt>
<pdfrwt beam="1">0</pdfrwt>
<pdfrwt beam="2">  1        2 0.37779394E+00 0.64464909E+03</pdfrwt>
<totfact> 0.48183813E+00</totfact>
</mgrwt>
</event>
<event>
 5    1  0.2368916E-004  0.6486213E+03  0.7818608E-02  0.9809370E-01
         13   -1    0    0    0    0  0.00000000000E+00  0.00000000000E+00  0.10000000000E+04  0.10000000000E+04  0.00000000000E+00 0. -1.
          2   -1    0    0  501    0 -0.00000000000E+00 -0.00000000000E+00 -0.10517740374E+03  0.10517740374E+03  0.00000000000E+00 0. -1.
    9000006    2    1    2  501    0  0.00000000000E+00  0.00000000000E+00  0.89482259626E+03  0.11051774037E+04  0.64862131860E+03 0.  0.
         13    1    3    3    0    0 -0.27042249940E+03  0.19697088002E+02  0.75059355374E+03  0.79806452520E+03  0.00000000000E+00 0. -1.
          4    1    3    3  501    0  0.27042249940E+03 -0.19697088002E+02  0.14422904252E+03  0.30711287854E+03  0.00000000000E+00 0. -1.
<mgrwt>
<rscale>  0 0.64862132E+03</rscale>
<asrwt>0</asrwt>
<pdfrwt beam="1">0</pdfrwt>
<pdfrwt beam="2">  1        2 0.38246409E+00 0.64862132E+03</pdfrwt>
<totfact> 0.46295051E+00</totfact>
</mgrwt>
</event>
<event>
 5    1  0.2368916E-004  0.6503608E+03  0.7818608E-02  0.9806102E-01
         13   -1    0    0    0    0  0.00000000000E+00  0.00000000000E+00  0.10000000000E+04  0.10000000000E+04  0.00000000000E+00 0. -1.
          2   -1    0    0  501    0 -0.00000000000E+00 -0.00000000000E+00 -0.10574229807E+03  0.10574229807E+03  0.00000000000E+00 0. -1.
    9000006    2    1    2  501    0  0.00000000000E+00  0.00000000000E+00  0.89425770193E+03  0.11057422981E+04  0.65036081698E+03 0.  0.
         13    1    3    3    0    0 -0.31273346933E+03 -0.41823722265E+00  0.59862691385E+03  0.67539364799E+03  0.00000000000E+00 0. -1.
          2    1    3    3  501    0  0.31273346933E+03  0.41823722265E+00  0.29563078809E+03  0.43034865008E+03  0.00000000000E+00 0. -1.
<mgrwt>
<rscale>  0 0.65036082E+03</rscale>
<asrwt>0</asrwt>
<pdfrwt beam="1">0</pdfrwt>
<pdfrwt beam="2">  1        2 0.38451826E+00 0.65036082E+03</pdfrwt>
<totfact> 0.45485798E+00</totfact>
</mgrwt>
</event>
<event>
 5    1  0.2368916E-004  0.6373720E+03  0.7818608E-02  0.9830768E-01
         13   -1    0    0    0    0  0.00000000000E+00  0.00000000000E+00  0.10000000000E+04  0.10000000000E+04  0.00000000000E+00 0. -1.
          2   -1    0    0  501    0 -0.00000000000E+00 -0.00000000000E+00 -0.10156075113E+03  0.10156075113E+03  0.00000000000E+00 0. -1.
    9000006    2    1    2  501    0  0.00000000000E+00  0.00000000000E+00  0.89843924887E+03  0.11015607511E+04  0.63737195147E+03 0.  0.
         13    1    3    3    0    0  0.76812503511E+02  0.15001502110E+03 -0.18236366780E+02  0.16952059557E+03  0.00000000000E+00 0. -1.
          2    1    3    3  501    0 -0.76812503511E+02 -0.15001502110E+03  0.91667561565E+03  0.93204015556E+03  0.00000000000E+00 0. -1.
<mgrwt>
<rscale>  0 0.63737195E+03</rscale>
<asrwt>0</asrwt>
<pdfrwt beam="1">0</pdfrwt>
<pdfrwt beam="2">  1        2 0.36931260E+00 0.63737195E+03</pdfrwt>
<totfact> 0.51794953E+00</totfact>
</mgrwt>
</event>
<event>
 5    1  0.2368916E-004  0.6511357E+03  0.7818608E-02  0.9804650E-01
         13   -1    0    0    0    0  0.00000000000E+00  0.00000000000E+00  0.10000000000E+04  0.10000000000E+04  0.00000000000E+00 0. -1.
          2   -1    0    0  501    0 -0.00000000000E+00 -0.00000000000E+00 -0.10599442278E+03  0.10599442278E+03  0.00000000000E+00 0. -1.
    9000006    2    1    2  501    0  0.00000000000E+00  0.00000000000E+00  0.89400557722E+03  0.11059944228E+04  0.65113569334E+03 0.  0.
         13    1    3    3    0    0 -0.61057115777E+02 -0.24384817338E+03  0.79842260583E+03  0.83705947253E+03  0.00000000000E+00 0. -1.
          2    1    3    3  501    0  0.61057115777E+02  0.24384817338E+03  0.95582971387E+02  0.26893495026E+03  0.00000000000E+00 0. -1.
<mgrwt>
<rscale>  0 0.65113569E+03</rscale>
<asrwt>0</asrwt>
<pdfrwt beam="1">0</pdfrwt>
<pdfrwt beam="2">  1        2 0.38543508E+00 0.65113569E+03</pdfrwt>
<totfact> 0.45128771E+00</totfact>
</mgrwt>
</event>
<event>
 5    1  0.2368916E-004  0.6432625E+03  0.7818608E-02  0.9819504E-01
         13   -1    0    0    0    0  0.00000000000E+00  0.00000000000E+00  0.10000000000E+04  0.10000000000E+04  0.00000000000E+00 0. -1.
          2   -1    0    0  501    0 -0.00000000000E+00 -0.00000000000E+00 -0.10344666004E+03  0.10344666004E+03  0.00000000000E+00 0. -1.
    9000006    2    1    2  501    0  0.00000000000E+00  0.00000000000E+00  0.89655333996E+03  0.11034466600E+04  0.64326249710E+03 0.  0.
         13    1    3    3    0    0  0.18971760783E+03 -0.23375282302E+03  0.64245337099E+03  0.70949241496E+03  0.00000000000E+00 0. -1.
          2    1    3    3  501    0 -0.18971760783E+03  0.23375282302E+03  0.25409996897E+03  0.39395424508E+03  0.00000000000E+00 0. -1.
<mgrwt>
<rscale>  0 0.64326250E+03</rscale>
<asrwt>0</asrwt>
<pdfrwt beam="1">0</pdfrwt>
<pdfrwt beam="2">  1        2 0.37617047E+00 0.64326250E+03</pdfrwt>
<totfact> 0.48856661E+00</totfact>
</mgrwt>
</event>
<event>
 5    1  0.2368916E-004  0.5958687E+03  0.7818608E-02  0.9914014E-01
         13   -1    0    0    0    0  0.00000000000E+00  0.00000000000E+00  0.10000000000E+04  0.10000000000E+04  0.00000000000E+00 0. -1.
          2   -1    0    0  501    0 -0.00000000000E+00 -0.00000000000E+00 -0.88764881850E+02  0.88764881850E+02  0.00000000000E+00 0. -1.
    9000006    2    1    2  501    0  0.00000000000E+00  0.00000000000E+00  0.91123511815E+03  0.10887648819E+04  0.59586871658E+03 0.  0.
         13    1    3    3    0    0  0.11876739476E+03 -0.27280280926E+03  0.42744001187E+03  0.52079941488E+03  0.00000000000E+00 0. -1.
          2    1    3    3  501    0 -0.11876739476E+03  0.27280280926E+03  0.48379510628E+03  0.56796546697E+03  0.00000000000E+00 0. -1.
<mgrwt>
<rscale>  0 0.59586872E+03</rscale>
<asrwt>0</asrwt>
<pdfrwt beam="1">0</pdfrwt>
<pdfrwt beam="2">  1        2 0.32278207E+00 0.59586872E+03</pdfrwt>
<totfact> 0.76489232E+00</totfact>
</mgrwt>
</event>
<event>
 5    1  0.2368916E-004  0.6688118E+03  0.7818608E-02  0.9772107E-01
         13   -1    0    0    0    0  0.00000000000E+00  0.00000000000E+00  0.10000000000E+04  0.10000000000E+04  0.00000000000E+00 0. -1.
          2   -1    0    0  501    0 -0.00000000000E+00 -0.00000000000E+00 -0.11182730748E+03  0.11182730748E+03  0.00000000000E+00 0. -1.
    9000006    2    1    2  501    0  0.00000000000E+00  0.00000000000E+00  0.88817269252E+03  0.11118273075E+04  0.66881180455E+03 0.  0.
         13    1    3    3    0    0  0.32280818603E+03 -0.78225465823E+02  0.37963871279E+03  0.50443027339E+03  0.00000000000E+00 0. -1.
          4    1    3    3  501    0 -0.32280818603E+03  0.78225465823E+02  0.50853397974E+03  0.60739703408E+03  0.00000000000E+00 0. -1.
<mgrwt>
<rscale>  0 0.66881180E+03</rscale>
<asrwt>0</asrwt>
<pdfrwt beam="1">0</pdfrwt>
<pdfrwt beam="2">  1        2 0.40664561E+00 0.66881180E+03</pdfrwt>
<totfact> 0.37543919E+00</totfact>
</mgrwt>
</event>
<event>
 5    1  0.2368916E-004  0.6315426E+03  0.7818608E-02  0.9842043E-01
         13   -1    0    0    0    0  0.00000000000E+00  0.00000000000E+00  0.10000000000E+04  0.10000000000E+04  0.00000000000E+00 0. -1.
          2   -1    0    0  501    0 -0.00000000000E+00 -0.00000000000E+00 -0.99711519620E+02  0.99711519620E+02  0.00000000000E+00 0. -1.
    9000006    2    1    2  501    0  0.00000000000E+00  0.00000000000E+00  0.90028848038E+03  0.10997115196E+04  0.63154261810E+03 0.  0.
         13    1    3    3    0    0  0.28302774643E+02 -0.22528214106E+03  0.83227523855E+03  0.86269065304E+03  0.00000000000E+00 0. -1.
          4    1    3    3  501    0 -0.28302774643E+02  0.22528214106E+03  0.68013241828E+02  0.23702086658E+03  0.00000000000E+00 0. -1.
<mgrwt>
<rscale>  0 0.63154262E+03</rscale>
<asrwt>0</asrwt>
<pdfrwt beam="1">0</pdfrwt>
<pdfrwt beam="2">  1        2 0.36258811E+00 0.63154262E+03</pdfrwt>
<totfact> 0.54832659E+00</totfact>
</mgrwt>
</event>
<event>
 5    1  0.2368916E-004  0.6509617E+03  0.7818608E-02  0.9804976E-01
         13   -1    0    0    0    0  0.00000000000E+00  0.00000000000E+00  0.10000000000E+04  0.10000000000E+04  0.00000000000E+00 0. -1.
          2   -1    0    0  501    0 -0.00000000000E+00 -0.00000000000E+00 -0.10593779001E+03  0.10593779001E+03  0.00000000000E+00 0. -1.
    9000006    2    1    2  501    0  0.00000000000E+00  0.00000000000E+00  0.89406220999E+03  0.11059377900E+04  0.65096171933E+03 0.  0.
         13    1    3    3    0    0  0.19234619160E+03  0.24792720861E+03  0.30016625969E+03  0.43424041918E+03  0.00000000000E+00 0. -1.
          4    1    3    3  501    0 -0.19234619160E+03 -0.24792720861E+03  0.59389595030E+03  0.67169737083E+03  0.00000000000E+00 0. -1.
<mgrwt>
<rscale>  0 0.65096172E+03</rscale>
<asrwt>0</asrwt>
<pdfrwt beam="1">0</pdfrwt>
<pdfrwt beam="2">  1        2 0.38522914E+00 0.65096172E+03</pdfrwt>
<totfact> 0.45208745E+00</totfact>
</mgrwt>
</event>
<event>
 5    1  0.2368916E-004  0.6401062E+03  0.7818608E-02  0.9825523E-01
         13   -1    0    0    0    0  0.00000000000E+00  0.00000000000E+00  0.10000000000E+04  0.10000000000E+04  0.00000000000E+00 0. -1.
          2   -1    0    0  501    0 -0.00000000000E+00 -0.00000000000E+00 -0.10243398200E+03  0.10243398200E+03  0.00000000000E+00 0. -1.
    9000006    2    1    2  501    0  0.00000000000E+00  0.00000000000E+00  0.89756601800E+03  0.11024339820E+04  0.64010618495E+03 0.  0.
         13    1    3    3    0    0 -0.13211939197E+03  0.18765739853E+03  0.83298047458E+03  0.86401811555E+03  0.00000000000E+00 0. -1.
          2    1    3    3  501    0  0.13211939197E+03 -0.18765739853E+03  0.64585543413E+02  0.23841586645E+03  0.00000000000E+00 0. -1.
<mgrwt>
<rscale>  0 0.64010618E+03</rscale>
<asrwt>0</asrwt>
<pdfrwt beam="1">0</pdfrwt>
<pdfrwt beam="2">  1        2 0.37248799E+00 0.64010618E+03</pdfrwt>
<totfact> 0.50414899E+00</totfact>
</mgrwt>
</event>
<event>
 5    1  0.2368916E-004  0.6480371E+03  0.7818608E-02  0.9810469E-01
         13   -1    0    0    0    0  0.00000000000E+00  0.00000000000E+00  0.10000000000E+04  0.10000000000E+04  0.00000000000E+00 0. -1.
          2   -1    0    0  501    0 -0.00000000000E+00 -0.00000000000E+00 -0.10498803686E+03  0.10498803686E+03  0.00000000000E+00 0. -1.
    9000006    2    1    2  501    0  0.00000000000E+00  0.00000000000E+00  0.89501196314E+03  0.11049880369E+04  0.64803714974E+03 0.  0.
         13    1    3    3    0    0  0.21924507421E+02  0.10450831277E+03 -0.74122916490E+02  0.12998799257E+03  0.00000000000E+00 0. -1.
          4    1    3    3  501    0 -0.21924507421E+02 -0.10450831277E+03  0.96913487963E+03  0.97500004429E+03  0.00000000000E+00 0. -1.
<mgrwt>
<rscale>  0 0.64803715E+03</rscale>
<asrwt>0</asrwt>
<pdfrwt beam="1">0</pdfrwt>
<pdfrwt beam="2">  1        2 0.38177548E+00 0.64803715E+03</pdfrwt>
<totfact> 0.46569245E+00</totfact>
</mgrwt>
</event>
<event>
 5    1  0.2368916E-004  0.6659584E+03  0.7818608E-02  0.9777287E-01
         13   -1    0    0    0    0  0.00000000000E+00  0.00000000000E+00  0.10000000000E+04  0.10000000000E+04  0.00000000000E+00 0. -1.
          2   -1    0    0  501    0 -0.00000000000E+00 -0.00000000000E+00 -0.11087514234E+03  0.11087514234E+03  0.00000000000E+00 0. -1.
    9000006    2    1    2  501    0  0.00000000000E+00  0.00000000000E+00  0.88912485766E+03  0.11108751423E+04  0.66595838410E+03 0.  0.
         13    1    3    3    0    0 -0.18923448668E+03 -0.69178698397E+02  0.88677724572E+03  0.90937850578E+03  0.00000000000E+00 0. -1.
          2    1    3    3  501    0  0.18923448668E+03  0.69178698397E+02  0.23476119455E+01  0.20149663655E+03  0.00000000000E+00 0. -1.
<mgrwt>
<rscale>  0 0.66595838E+03</rscale>
<asrwt>0</asrwt>
<pdfrwt beam="1">0</pdfrwt>
<pdfrwt beam="2">  1        2 0.40318319E+00 0.66595838E+03</pdfrwt>
<totfact> 0.38697809E+00</totfact>
</mgrwt>
</event>
<event>
 5    1  0.2368916E-004  0.6362354E+03  0.7818608E-02  0.9832956E-01
         13   -1    0    0    0    0  0.00000000000E+00  0.00000000000E+00  0.10000000000E+04  0.10000000000E+04  0.00000000000E+00 0. -1.
          2   -1    0    0  501    0 -0.00000000000E+00 -0.00000000000E+00 -0.10119888399E+03  0.10119888399E+03  0.00000000000E+00 0. -1.
    9000006    2    1    2  501    0  0.00000000000E+00  0.00000000000E+00  0.89880111601E+03  0.11011988840E+04  0.63623544066E+03 0.  0.
         13    1    3    3    0    0 -0.65977038220E+02  0.23541433618E+03  0.80167767267E+03  0.83812885054E+03  0.00000000000E+00 0. -1.
          2    1    3    3  501    0  0.65977038220E+02 -0.23541433618E+03  0.97123443345E+02  0.26307003345E+03  0.00000000000E+00 0. -1.
<mgrwt>
<rscale>  0 0.63623544E+03</rscale>
<asrwt>0</asrwt>
<pdfrwt beam="1">0</pdfrwt>
<pdfrwt beam="2">  1        2 0.36799672E+00 0.63623544E+03</pdfrwt>
<totfact> 0.52376929E+00</totfact>
</mgrwt>
</event>
<event>
 5    1  0.2368916E-004  0.6409840E+03  0.7818608E-02  0.9823846E-01
         13   -1    0    0    0    0  0.00000000000E+00  0.00000000000E+00  0.10000000000E+04  0.10000000000E+04  0.00000000000E+00 0. -1.
          2   -1    0    0  501    0 -0.00000000000E+00 -0.00000000000E+00 -0.10271512700E+03  0.10271512700E+03  0.00000000000E+00 0. -1.
    9000006    2    1    2  501    0  0.00000000000E+00  0.00000000000E+00  0.89728487300E+03  0.11027151270E+04  0.64098401541E+03 0.  0.
         13    1    3    3    0    0  0.80918543267E+01  0.45950067890E+02  0.99412612983E+03  0.99522040215E+03  0.00000000000E+00 0. -1.
          2    1    3    3  501    0 -0.80918543267E+01 -0.45950067890E+02 -0.96841256834E+02  0.10749472485E+03  0.00000000000E+00 0. -1.
<mgrwt>
<rscale>  0 0.64098402E+03</rscale>
<asrwt>0</asrwt>
<pdfrwt beam="1">0</pdfrwt>
<pdfrwt beam="2">  1        2 0.37351034E+00 0.64098402E+03</pdfrwt>
<totfact> 0.49977793E+00</totfact>
</mgrwt>
</event>
<event>
 5    1  0.2368916E-004  0.5832860E+03  0.7818608E-02  0.9940702E-01
         13   -1    0    0    0    0  0.00000000000E+00  0.00000000000E+00  0.10000000000E+04  0.10000000000E+04  0.00000000000E+00 0. -1.
          2   -1    0    0  501    0 -0.00000000000E+00 -0.00000000000E+00 -0.85055651781E+02  0.85055651781E+02  0.00000000000E+00 0. -1.
    9000006    2    1    2  501    0  0.00000000000E+00  0.00000000000E+00  0.91494434822E+03  0.10850556518E+04  0.58328604229E+03 0.  0.
         13    1    3    3    0    0  0.18422456709E+03 -0.21316180733E+03  0.59765878548E+03  0.66073646114E+03  0.00000000000E+00 0. -1.
          4    1    3    3  501    0 -0.18422456709E+03  0.21316180733E+03  0.31728556274E+03  0.42431919064E+03  0.00000000000E+00 0. -1.
<mgrwt>
<rscale>  0 0.58328604E+03</rscale>
<asrwt>0</asrwt>
<pdfrwt beam="1">0</pdfrwt>
<pdfrwt beam="2">  1        2 0.30929393E+00 0.58328604E+03</pdfrwt>
<totfact> 0.85516517E+00</totfact>
</mgrwt>
</event>
<event>
 5    1  0.2368916E-004  0.6475691E+03  0.7818608E-02  0.9811351E-01
         13   -1    0    0    0    0  0.00000000000E+00  0.00000000000E+00  0.10000000000E+04  0.10000000000E+04  0.00000000000E+00 0. -1.
          2   -1    0    0  501    0 -0.00000000000E+00 -0.00000000000E+00 -0.10483644121E+03  0.10483644121E+03  0.00000000000E+00 0. -1.
    9000006    2    1    2  501    0  0.00000000000E+00  0.00000000000E+00  0.89516355879E+03  0.11048364412E+04  0.64756911974E+03 0.  0.
         13    1    3    3    0    0 -0.24480630218E+03 -0.20556245448E+03  0.53541665533E+03  0.62358403049E+03  0.00000000000E+00 0. -1.
          4    1    3    3  501    0  0.24480630218E+03  0.20556245448E+03  0.35974690346E+03  0.48125241072E+03  0.00000000000E+00 0. -1.
<mgrwt>
<rscale>  0 0.64756912E+03</rscale>
<asrwt>0</asrwt>
<pdfrwt beam="1">0</pdfrwt>
<pdfrwt beam="2">  1        2 0.38122423E+00 0.64756912E+03</pdfrwt>
<totfact> 0.46789811E+00</totfact>
</mgrwt>
</event>
<event>
 5    1  0.2368916E-004  0.6404988E+03  0.7818608E-02  0.9824773E-01
         13   -1    0    0    0    0  0.00000000000E+00  0.00000000000E+00  0.10000000000E+04  0.10000000000E+04  0.00000000000E+00 0. -1.
          2   -1    0    0  501    0 -0.00000000000E+00 -0.00000000000E+00 -0.10255966856E+03  0.10255966856E+03  0.00000000000E+00 0. -1.
    9000006    2    1    2  501    0  0.00000000000E+00  0.00000000000E+00  0.89744033144E+03  0.11025596686E+04  0.64049876989E+03 0.  0.
         13    1    3    3    0    0  0.27983288400E+03  0.25922844018E+02  0.18437763391E+03  0.33611538003E+03  0.00000000000E+00 0. -1.
          2    1    3    3  501    0 -0.27983288400E+03 -0.25922844018E+02  0.71306269753E+03  0.76644428853E+03  0.00000000000E+00 0. -1.
<mgrwt>
<rscale>  0 0.64049877E+03</rscale>
<asrwt>0</asrwt>
<pdfrwt beam="1">0</pdfrwt>
<pdfrwt beam="2">  1        2 0.37294504E+00 0.64049877E+03</pdfrwt>
<totfact> 0.50219059E+00</totfact>
</mgrwt>
</event>
<event>
 5    1  0.2368916E-004  0.6543989E+03  0.7818608E-02  0.9798560E-01
         13   -1    0    0    0    0  0.00000000000E+00  0.00000000000E+00  0.10000000000E+04  0.10000000000E+04  0.00000000000E+00 0. -1.
          2   -1    0    0  501    0 -0.00000000000E+00 -0.00000000000E+00 -0.10705948284E+03  0.10705948284E+03  0.00000000000E+00 0. -1.
    9000006    2    1    2  501    0  0.00000000000E+00  0.00000000000E+00  0.89294051716E+03  0.11070594828E+04  0.65439890845E+03 0.  0.
         13    1    3    3    0    0 -0.19252539656E+03 -0.26310954108E+02  0.89181746313E+03  0.91274130079E+03  0.00000000000E+00 0. -1.
          2    1    3    3  501    0  0.19252539656E+03  0.26310954108E+02  0.11230540207E+01  0.19431818205E+03  0.00000000000E+00 0. -1.
<mgrwt>
<rscale>  0 0.65439891E+03</rscale>
<asrwt>0</asrwt>
<pdfrwt beam="1">0</pdfrwt>
<pdfrwt beam="2">  1        2 0.38930803E+00 0.65439891E+03</pdfrwt>
<totfact> 0.43648409E+00</totfact>
</mgrwt>
</event>
<event>
 5    1  0.2368916E-004  0.6442058E+03  0.7818608E-02  0.9817713E-01
         13   -1    0    0    0    0  0.00000000000E+00  0.00000000000E+00  0.10000000000E+04  0.10000000000E+04  0.00000000000E+00 0. -1.
          2   -1    0    0  501    0 -0.00000000000E+00 -0.00000000000E+00 -0.10375027511E+03  0.10375027511E+03  0.00000000000E+00 0. -1.
    9000006    2    1    2  501    0  0.00000000000E+00  0.00000000000E+00  0.89624972489E+03  0.11037502751E+04  0.64420579044E+03 0.  0.
         13    1    3    3    0    0  0.86849049029E+01  0.35230251456E+02  0.99648715295E+03  0.99714755387E+03  0.00000000000E+00 0. -1.
          2    1    3    3  501    0 -0.86849049029E+01 -0.35230251456E+02 -0.10023742806E+03  0.10660272124E+03  0.00000000000E+00 0. -1.
<mgrwt>
<rscale>  0 0.64420579E+03</rscale>
<asrwt>0</asrwt>
<pdfrwt beam="1">0</pdfrwt>
<pdfrwt beam="2">  1        2 0.37727452E+00 0.64420579E+03</pdfrwt>
<totfact> 0.48398159E+00</totfact>
</mgrwt>
</event>
<event>
 5    1  0.2368916E-004  0.6457528E+03  0.7818608E-02  0.9814782E-01
         13   -1    0    0    0    0  0.00000000000E+00  0.00000000000E+00  0.10000000000E+04  0.10000000000E+04  0.00000000000E+00 0. -1.
          2   -1    0    0  501    0 -0.00000000000E+00 -0.00000000000E+00 -0.10424915359E+03  0.10424915359E+03  0.00000000000E+00 0. -1.
    9000006    2    1    2  501    0  0.00000000000E+00  0.00000000000E+00  0.89575084641E+03  0.11042491536E+04  0.64575275017E+03 0.  0.
         13    1    3    3    0    0  0.21453938492E+03 -0.23981787643E+03  0.49342076543E+03  0.58907029572E+03  0.00000000000E+00 0. -1.
          4    1    3    3  501    0 -0.21453938492E+03  0.23981787643E+03  0.40233008098E+03  0.51517885787E+03  0.00000000000E+00 0. -1.
<mgrwt>
<rscale>  0 0.64575275E+03</rscale>
<asrwt>0</asrwt>
<pdfrwt beam="1">0</pdfrwt>
<pdfrwt beam="2">  1        2 0.37908863E+00 0.64575275E+03</pdfrwt>
<totfact> 0.47653293E+00</totfact>
</mgrwt>
</event>
<event>
 5    1  0.2368916E-004  0.6475219E+03  0.7818608E-02  0.9811440E-01
         13   -1    0    0    0    0  0.00000000000E+00  0.00000000000E+00  0.10000000000E+04  0.10000000000E+04  0.00000000000E+00 0. -1.
          2   -1    0    0  501    0 -0.00000000000E+00 -0.00000000000E+00 -0.10482116603E+03  0.10482116603E+03  0.00000000000E+00 0. -1.
    9000006    2    1    2  501    0  0.00000000000E+00  0.00000000000E+00  0.89517883397E+03  0.11048211660E+04  0.64752194104E+03 0.  0.
         13    1    3    3    0    0  0.24303083326E+03 -0.96276326316E+02  0.77351077316E+03  0.81648761970E+03  0.00000000000E+00 0. -1.
          4    1    3    3  501    0 -0.24303083326E+03  0.96276326316E+02  0.12166806081E+03  0.28833354634E+03  0.00000000000E+00 0. -1.
<mgrwt>
<rscale>  0 0.64752194E+03</rscale>
<asrwt>0</asrwt>
<pdfrwt beam="1">0</pdfrwt>
<pdfrwt beam="2">  1        2 0.38116868E+00 0.64752194E+03</pdfrwt>
<totfact> 0.46812089E+00</totfact>
</mgrwt>
</event>
<event>
 5    1  0.2368916E-004  0.6443230E+03  0.7818608E-02  0.9817490E-01
         13   -1    0    0    0    0  0.00000000000E+00  0.00000000000E+00  0.10000000000E+04  0.10000000000E+04  0.00000000000E+00 0. -1.
          2   -1    0    0  501    0 -0.00000000000E+00 -0.00000000000E+00 -0.10378804114E+03  0.10378804114E+03  0.00000000000E+00 0. -1.
    9000006    2    1    2  501    0  0.00000000000E+00  0.00000000000E+00  0.89621195886E+03  0.11037880411E+04  0.64432302811E+03 0.  0.
         13    1    3    3    0    0  0.31527805778E+03 -0.42963436892E+02  0.36173579076E+03  0.48176642986E+03  0.00000000000E+00 0. -1.
          4    1    3    3  501    0 -0.31527805778E+03  0.42963436892E+02  0.53447616810E+03  0.62202161128E+03  0.00000000000E+00 0. -1.
<mgrwt>
<rscale>  0 0.64432303E+03</rscale>
<asrwt>0</asrwt>
<pdfrwt beam="1">0</pdfrwt>
<pdfrwt beam="2">  1        2 0.37741185E+00 0.64432303E+03</pdfrwt>
<totfact> 0.48341402E+00</totfact>
</mgrwt>
</event>
<event>
 5    1  0.2368916E-004  0.6461355E+03  0.7818608E-02  0.9814058E-01
         13   -1    0    0    0    0  0.00000000000E+00  0.00000000000E+00  0.10000000000E+04  0.10000000000E+04  0.00000000000E+00 0. -1.
          2   -1    0    0  501    0 -0.00000000000E+00 -0.00000000000E+00 -0.10437276420E+03  0.10437276420E+03  0.00000000000E+00 0. -1.
    9000006    2    1    2  501    0  0.00000000000E+00  0.00000000000E+00  0.89562723580E+03  0.11043727642E+04  0.64613547868E+03 0.  0.
         13    1    3    3    0    0  0.17909972308E+03 -0.22949980563E+03  0.68725918886E+03  0.74637260417E+03  0.00000000000E+00 0. -1.
          2    1    3    3  501    0 -0.17909972308E+03  0.22949980563E+03  0.20836804694E+03  0.35800016003E+03  0.00000000000E+00 0. -1.
<mgrwt>
<rscale>  0 0.64613548E+03</rscale>
<asrwt>0</asrwt>
<pdfrwt beam="1">0</pdfrwt>
<pdfrwt beam="2">  1        2 0.37953812E+00 0.64613548E+03</pdfrwt>
<totfact> 0.47470354E+00</totfact>
</mgrwt>
</event>
<event>
 5    1  0.2368916E-004  0.6208652E+03  0.7818608E-02  0.9863039E-01
         13   -1    0    0    0    0  0.00000000000E+00  0.00000000000E+00  0.10000000000E+04  0.10000000000E+04  0.00000000000E+00 0. -1.
          2   -1    0    0  501    0 -0.00000000000E+00 -0.00000000000E+00 -0.96368409795E+02  0.96368409795E+02  0.00000000000E+00 0. -1.
    9000006    2    1    2  501    0  0.00000000000E+00  0.00000000000E+00  0.90363159021E+03  0.10963684098E+04  0.62086523431E+03 0.  0.
         13    1    3    3    0    0  0.19018908508E+03 -0.22562189653E+03  0.62203046271E+03  0.68847587091E+03  0.00000000000E+00 0. -1.
          2    1    3    3  501    0 -0.19018908508E+03  0.22562189653E+03  0.28160112749E+03  0.40789253889E+03  0.00000000000E+00 0. -1.
<mgrwt>
<rscale>  0 0.62086523E+03</rscale>
<asrwt>0</asrwt>
<pdfrwt beam="1">0</pdfrwt>
<pdfrwt beam="2">  1        2 0.35043132E+00 0.62086523E+03</pdfrwt>
<totfact> 0.60745755E+00</totfact>
</mgrwt>
</event>
<event>
 5    1  0.2368916E-004  0.6428523E+03  0.7818608E-02  0.9820285E-01
         13   -1    0    0    0    0  0.00000000000E+00  0.00000000000E+00  0.10000000000E+04  0.10000000000E+04  0.00000000000E+00 0. -1.
          2   -1    0    0  501    0 -0.00000000000E+00 -0.00000000000E+00 -0.10331476191E+03  0.10331476191E+03  0.00000000000E+00 0. -1.
    9000006    2    1    2  501    0  0.00000000000E+00  0.00000000000E+00  0.89668523809E+03  0.11033147619E+04  0.64285227512E+03 0.  0.
         13    1    3    3    0    0 -0.83488870530E+02 -0.18185732908E+03  0.16629751209E+02  0.20079598668E+03  0.00000000000E+00 0. -1.
          2    1    3    3  501    0  0.83488870530E+02  0.18185732908E+03  0.88005548688E+03  0.90251877523E+03  0.00000000000E+00 0. -1.
<mgrwt>
<rscale>  0 0.64285228E+03</rscale>
<asrwt>0</asrwt>
<pdfrwt beam="1">0</pdfrwt>
<pdfrwt beam="2">  1        2 0.37569084E+00 0.64285228E+03</pdfrwt>
<totfact> 0.49057079E+00</totfact>
</mgrwt>
</event>
<event>
 5    1  0.2368916E-004  0.6484464E+03  0.7818608E-02  0.9809699E-01
         13   -1    0    0    0    0  0.00000000000E+00  0.00000000000E+00  0.10000000000E+04  0.10000000000E+04  0.00000000000E+00 0. -1.
          2   -1    0    0  501    0 -0.00000000000E+00 -0.00000000000E+00 -0.10512067800E+03  0.10512067800E+03  0.00000000000E+00 0. -1.
    9000006    2    1    2  501    0  0.00000000000E+00  0.00000000000E+00  0.89487932200E+03  0.11051206780E+04  0.64844638329E+03 0.  0.
         13    1    3    3    0    0 -0.25473103089E+03 -0.18775892403E+03  0.32717925304E+03  0.45517861908E+03  0.00000000000E+00 0. -1.
          4    1    3    3  501    0  0.25473103089E+03  0.18775892403E+03  0.56770006896E+03  0.64994205892E+03  0.00000000000E+00 0. -1.
<mgrwt>
<rscale>  0 0.64844638E+03</rscale>
<asrwt>0</asrwt>
<pdfrwt beam="1">0</pdfrwt>
<pdfrwt beam="2">  1        2 0.38225782E+00 0.64844638E+03</pdfrwt>
<totfact> 0.46377033E+00</totfact>
</mgrwt>
</event>
<event>
 5    1  0.2368916E-004  0.6379000E+03  0.7818608E-02  0.9829753E-01
         13   -1    0    0    0    0  0.00000000000E+00  0.00000000000E+00  0.10000000000E+04  0.10000000000E+04  0.00000000000E+00 0. -1.
          2   -1    0    0  501    0 -0.00000000000E+00 -0.00000000000E+00 -0.10172911358E+03  0.10172911358E+03  0.00000000000E+00 0. -1.
    9000006    2    1    2  501    0  0.00000000000E+00  0.00000000000E+00  0.89827088642E+03  0.11017291136E+04  0.63790003474E+03 0.  0.
         13    1    3    3    0    0  0.20947123700E+03  0.23503562802E+03  0.36091418995E+03  0.47893527545E+03  0.00000000000E+00 0. -1.
          2    1    3    3  501    0 -0.20947123700E+03 -0.23503562802E+03  0.53735669647E+03  0.62279383813E+03  0.00000000000E+00 0. -1.
<mgrwt>
<rscale>  0 0.63790003E+03</rscale>
<asrwt>0</asrwt>
<pdfrwt beam="1">0</pdfrwt>
<pdfrwt beam="2">  1        2 0.36992483E+00 0.63790003E+03</pdfrwt>
<totfact> 0.51526210E+00</totfact>
</mgrwt>
</event>
<event>
 5    1  0.2368916E-004  0.6559593E+03  0.7818608E-02  0.9795661E-01
         13   -1    0    0    0    0  0.00000000000E+00  0.00000000000E+00  0.10000000000E+04  0.10000000000E+04  0.00000000000E+00 0. -1.
          2   -1    0    0  501    0 -0.00000000000E+00 -0.00000000000E+00 -0.10757063610E+03  0.10757063610E+03  0.00000000000E+00 0. -1.
    9000006    2    1    2  501    0  0.00000000000E+00  0.00000000000E+00  0.89242936390E+03  0.11075706361E+04  0.65595925512E+03 0.  0.
         13    1    3    3    0    0 -0.48983527498E+02 -0.41907012495E+02 -0.96768586533E+02  0.11627442970E+03  0.00000000000E+00 0. -1.
          4    1    3    3  501    0  0.48983527498E+02  0.41907012495E+02  0.98919795044E+03  0.99129620640E+03  0.00000000000E+00 0. -1.
<mgrwt>
<rscale>  0 0.65595926E+03</rscale>
<asrwt>0</asrwt>
<pdfrwt beam="1">0</pdfrwt>
<pdfrwt beam="2">  1        2 0.39116677E+00 0.65595926E+03</pdfrwt>
<totfact> 0.42953662E+00</totfact>
</mgrwt>
</event>
<event>
 5    1  0.2368916E-004  0.6633340E+03  0.7818608E-02  0.9782076E-01
         13   -1    0    0    0    0  0.00000000000E+00  0.00000000000E+00  0.10000000000E+04  0.10000000000E+04  0.00000000000E+00 0. -1.
          2   -1    0    0  501    0 -0.00000000000E+00 -0.00000000000E+00 -0.11000300908E+03  0.11000300908E+03  0.00000000000E+00 0. -1.
    9000006    2    1    2  501    0  0.00000000000E+00  0.00000000000E+00  0.88999699092E+03  0.11100030091E+04  0.66333403071E+03 0.  0.
         13    1    3    3    0    0  0.11906627182E+03  0.18807519570E+03  0.33560657708E+02  0.22511191455E+03  0.00000000000E+00 0. -1.
          4    1    3    3  501    0 -0.11906627182E+03 -0.18807519570E+03  0.85643633322E+03  0.88489109453E+03  0.00000000000E+00 0. -1.
<mgrwt>
<rscale>  0 0.66333403E+03</rscale>
<asrwt>0</asrwt>
<pdfrwt beam="1">0</pdfrwt>
<pdfrwt beam="2">  1        2 0.40001179E+00 0.66333403E+03</pdfrwt>
<totfact> 0.39782486E+00</totfact>
</mgrwt>
</event>
<event>
 5    1  0.2368916E-004  0.6525038E+03  0.7818608E-02  0.9802092E-01
         13   -1    0    0    0    0  0.00000000000E+00  0.00000000000E+00  0.10000000000E+04  0.10000000000E+04  0.00000000000E+00 0. -1.
          2   -1    0    0  501    0 -0.00000000000E+00 -0.00000000000E+00 -0.10644029209E+03  0.10644029209E+03  0.00000000000E+00 0. -1.
    9000006    2    1    2  501    0  0.00000000000E+00  0.00000000000E+00  0.89355970791E+03  0.11064402921E+04  0.65250376884E+03 0.  0.
         13    1    3    3    0    0  0.25186938258E+03  0.19785829541E+03  0.34150803032E+03  0.46820276133E+03  0.00000000000E+00 0. -1.
          4    1    3    3  501    0 -0.25186938258E+03 -0.19785829541E+03  0.55205167759E+03  0.63823753076E+03  0.00000000000E+00 0. -1.
<mgrwt>
<rscale>  0 0.65250377E+03</rscale>
<asrwt>0</asrwt>
<pdfrwt beam="1">0</pdfrwt>
<pdfrwt beam="2">  1        2 0.38705642E+00 0.65250377E+03</pdfrwt>
<totfact> 0.44503599E+00</totfact>
</mgrwt>
</event>
<event>
 5    1  0.2368916E-004  0.6525976E+03  0.7818608E-02  0.9801917E-01
         13   -1    0    0    0    0  0.00000000000E+00  0.00000000000E+00  0.10000000000E+04  0.10000000000E+04  0.00000000000E+00 0. -1.
          2   -1    0    0  501    0 -0.00000000000E+00 -0.00000000000E+00 -0.10647092031E+03  0.10647092031E+03  0.00000000000E+00 0. -1.
    9000006    2    1    2  501    0  0.00000000000E+00  0.00000000000E+00  0.89352907969E+03  0.11064709203E+04  0.65259764115E+03 0.  0.
         13    1    3    3    0    0 -0.13325344462E+03 -0.37209286403E+02  0.94780870408E+03  0.95785299030E+03  0.00000000000E+00 0. -1.
          2    1    3    3  501    0  0.13325344462E+03  0.37209286403E+02 -0.54279624387E+02  0.14861793001E+03  0.00000000000E+00 0. -1.
<mgrwt>
<rscale>  0 0.65259764E+03</rscale>
<asrwt>0</asrwt>
<pdfrwt beam="1">0</pdfrwt>
<pdfrwt beam="2">  1        2 0.38716780E+00 0.65259764E+03</pdfrwt>
<totfact> 0.44460943E+00</totfact>
</mgrwt>
</event>
<event>
 5    1  0.2368916E-004  0.6531979E+03  0.7818608E-02  0.9800797E-01
         13   -1    0    0    0    0  0.00000000000E+00  0.00000000000E+00  0.10000000000E+04  0.10000000000E+04  0.00000000000E+00 0. -1.
          2   -1    0    0  501    0 -0.00000000000E+00 -0.00000000000E+00 -0.10666686731E+03  0.10666686731E+03  0.00000000000E+00 0. -1.
    9000006    2    1    2  501    0  0.00000000000E+00  0.00000000000E+00  0.89333313269E+03  0.11066668673E+04  0.65319787909E+03 0.  0.
         13    1    3    3    0    0  0.11762591537E+03 -0.15810795476E+03  0.54088742487E+01  0.19713760992E+03  0.00000000000E+00 0. -1.
          4    1    3    3  501    0 -0.11762591537E+03  0.15810795476E+03  0.88792425844E+03  0.90952925739E+03  0.00000000000E+00 0. -1.
<mgrwt>
<rscale>  0 0.65319788E+03</rscale>
<asrwt>0</asrwt>
<pdfrwt beam="1">0</pdfrwt>
<pdfrwt beam="2">  1        2 0.38788034E+00 0.65319788E+03</pdfrwt>
<totfact> 0.44188924E+00</totfact>
</mgrwt>
</event>
<event>
 5    1  0.2368916E-004  0.6585794E+03  0.7818608E-02  0.9790812E-01
         13   -1    0    0    0    0  0.00000000000E+00  0.00000000000E+00  0.10000000000E+04  0.10000000000E+04  0.00000000000E+00 0. -1.
          2   -1    0    0  501    0 -0.00000000000E+00 -0.00000000000E+00 -0.10843169130E+03  0.10843169130E+03  0.00000000000E+00 0. -1.
    9000006    2    1    2  501    0  0.00000000000E+00  0.00000000000E+00  0.89156830870E+03  0.11084316913E+04  0.65857935377E+03 0.  0.
         13    1    3    3    0    0  0.77928932854E+02 -0.31695691805E+03  0.37247736519E+03  0.49525144528E+03  0.00000000000E+00 0. -1.
          4    1    3    3  501    0 -0.77928932854E+02  0.31695691805E+03  0.51909094351E+03  0.61318024602E+03  0.00000000000E+00 0. -1.
<mgrwt>
<rscale>  0 0.65857935E+03</rscale>
<asrwt>0</asrwt>
<pdfrwt beam="1">0</pdfrwt>
<pdfrwt beam="2">  1        2 0.39429789E+00 0.65857935E+03</pdfrwt>
<totfact> 0.41805893E+00</totfact>
</mgrwt>
</event>
<event>
 5    1  0.2368916E-004  0.6470901E+03  0.7818608E-02  0.9812255E-01
         13   -1    0    0    0    0  0.00000000000E+00  0.00000000000E+00  0.10000000000E+04  0.10000000000E+04  0.00000000000E+00 0. -1.
          2   -1    0    0  501    0 -0.00000000000E+00 -0.00000000000E+00 -0.10468141492E+03  0.10468141492E+03  0.00000000000E+00 0. -1.
    9000006    2    1    2  501    0  0.00000000000E+00  0.00000000000E+00  0.89531858508E+03  0.11046814149E+04  0.64709014803E+03 0.  0.
         13    1    3    3    0    0  0.20733114291E+03  0.16851558566E+03  0.75917463412E+03  0.80481664404E+03  0.00000000000E+00 0. -1.
          2    1    3    3  501    0 -0.20733114291E+03 -0.16851558566E+03  0.13614395096E+03  0.29986477088E+03  0.00000000000E+00 0. -1.
<mgrwt>
<rscale>  0 0.64709015E+03</rscale>
<asrwt>0</asrwt>
<pdfrwt beam="1">0</pdfrwt>
<pdfrwt beam="2">  1        2 0.38066049E+00 0.64709015E+03</pdfrwt>
<totfact> 0.47016351E+00</totfact>
</mgrwt>
</event>
<event>
 5    1  0.2368916E-004  0.6560087E+03  0.7818608E-02  0.9795569E-01
         13   -1    0    0    0    0  0.00000000000E+00  0.00000000000E+00  0.10000000000E+04  0.10000000000E+04  0.00000000000E+00 0. -1.
          2   -1    0    0  501    0 -0.00000000000E+00 -0.00000000000E+00 -0.10758683883E+03  0.10758683883E+03  0.00000000000E+00 0. -1.
    9000006    2    1    2  501    0  0.00000000000E+00  0.00000000000E+00  0.89241316117E+03  0.11075868388E+04  0.65600865491E+03 0.  0.
         13    1    3    3    0    0 -0.13026587477E+03 -0.14040051592E+02  0.95390020759E+03  0.96285613008E+03  0.00000000000E+00 0. -1.
          4    1    3    3  501    0  0.13026587477E+03  0.14040051592E+02 -0.61487046424E+02  0.14473070875E+03  0.00000000000E+00 0. -1.
<mgrwt>
<rscale>  0 0.65600865E+03</rscale>
<asrwt>0</asrwt>
<pdfrwt beam="1">0</pdfrwt>
<pdfrwt beam="2">  1        2 0.39122569E+00 0.65600865E+03</pdfrwt>
<totfact> 0.42931804E+00</totfact>
</mgrwt>
</event>
<event>
 5    1  0.2368916E-004  0.6331427E+03  0.7818608E-02  0.9838935E-01
         13   -1    0    0    0    0  0.00000000000E+00  0.00000000000E+00  0.10000000000E+04  0.10000000000E+04  0.00000000000E+00 0. -1.
          2   -1    0    0  501    0 -0.00000000000E+00 -0.00000000000E+00 -0.10021742425E+03  0.10021742425E+03  0.00000000000E+00 0. -1.
    9000006    2    1    2  501    0  0.00000000000E+00  0.00000000000E+00  0.89978257575E+03  0.11002174243E+04  0.63314271456E+03 0.  0.
         13    1    3    3    0    0  0.56650050258E+02  0.30308317029E+03  0.32520192455E+03  0.44813494400E+03  0.00000000000E+00 0. -1.
          4    1    3    3  501    0 -0.56650050258E+02 -0.30308317029E+03  0.57458065120E+03  0.65208248025E+03  0.00000000000E+00 0. -1.
<mgrwt>
<rscale>  0 0.63314271E+03</rscale>
<asrwt>0</asrwt>
<pdfrwt beam="1">0</pdfrwt>
<pdfrwt beam="2">  1        2 0.36442777E+00 0.63314271E+03</pdfrwt>
<totfact> 0.53985738E+00</totfact>
</mgrwt>
</event>
<event>
 5    1  0.2368916E-004  0.6387679E+03  0.7818608E-02  0.9828087E-01
         13   -1    0    0    0    0  0.00000000000E+00  0.00000000000E+00  0.10000000000E+04  0.10000000000E+04  0.00000000000E+00 0. -1.
          2   -1    0    0  501    0 -0.00000000000E+00 -0.00000000000E+00 -0.10200609644E+03  0.10200609644E+03  0.00000000000E+00 0. -1.
    9000006    2    1    2  501    0  0.00000000000E+00  0.00000000000E+00  0.89799390356E+03  0.11020060964E+04  0.63876786531E+03 0.  0.
         13    1    3    3    0    0 -0.22143323618E+03  0.61001498324E+02  0.66124683521E+02  0.23901116010E+03  0.00000000000E+00 0. -1.
          4    1    3    3  501    0  0.22143323618E+03 -0.61001498324E+02  0.83186922004E+03  0.86299493633E+03  0.00000000000E+00 0. -1.
<mgrwt>
<rscale>  0 0.63876787E+03</rscale>
<asrwt>0</asrwt>
<pdfrwt beam="1">0</pdfrwt>
<pdfrwt beam="2">  1        2 0.37093204E+00 0.63876787E+03</pdfrwt>
<totfact> 0.51086864E+00</totfact>
</mgrwt>
</event>
<event>
 5    1  0.2368916E-004  0.6486412E+03  0.7818608E-02  0.9809332E-01
         13   -1    0    0    0    0  0.00000000000E+00  0.00000000000E+00  0.10000000000E+04  0.10000000000E+04  0.00000000000E+00 0. -1.
          2   -1    0    0  501    0 -0.00000000000E+00 -0.00000000000E+00 -0.10518384314E+03  0.10518384314E+03  0.00000000000E+00 0. -1.
    9000006    2    1    2  501    0  0.00000000000E+00  0.00000000000E+00  0.89481615686E+03  0.11051838431E+04  0.64864117397E+03 0.  0.
         13    1    3    3    0    0  0.30018367646E+03  0.79951130329E+01  0.65615292161E+03  0.72160295037E+03  0.00000000000E+00 0. -1.
          4    1    3    3  501    0 -0.30018367646E+03 -0.79951130329E+01  0.23866323525E+03  0.38358089278E+03  0.00000000000E+00 0. -1.
<mgrwt>
<rscale>  0 0.64864117E+03</rscale>
<asrwt>0</asrwt>
<pdfrwt beam="1">0</pdfrwt>
<pdfrwt beam="2">  1        2 0.38248751E+00 0.64864117E+03</pdfrwt>
<totfact> 0.46285753E+00</totfact>
</mgrwt>
</event>
<event>
 5    1  0.2368916E-004  0.6004116E+03  0.7818608E-02  0.9904552E-01
         13   -1    0    0    0    0  0.00000000000E+00  0.00000000000E+00  0.10000000000E+04  0.10000000000E+04  0.00000000000E+00 0. -1.
          2   -1    0    0  501    0 -0.00000000000E+00 -0.00000000000E+00 -0.90123523223E+02  0.90123523223E+02  0.00000000000E+00 0. -1.
    9000006    2    1    2  501    0  0.00000000000E+00  0.00000000000E+00  0.90987647678E+03  0.10901235232E+04  0.60041160290E+03 0.  0.
         13    1    3    3    0    0  0.27552121302E+03  0.85252702239E+02  0.30364561014E+03  0.41878469244E+03  0.00000000000E+00 0. -1.
          2    1    3    3  501    0 -0.27552121302E+03 -0.85252702239E+02  0.60623086664E+03  0.67133883079E+03  0.00000000000E+00 0. -1.
<mgrwt>
<rscale>  0 0.60041160E+03</rscale>
<asrwt>0</asrwt>
<pdfrwt beam="1">0</pdfrwt>
<pdfrwt beam="2">  1        2 0.32772259E+00 0.60041160E+03</pdfrwt>
<totfact> 0.73418844E+00</totfact>
</mgrwt>
</event>
<event>
 5    1  0.2368916E-004  0.6485847E+03  0.7818608E-02  0.9809439E-01
         13   -1    0    0    0    0  0.00000000000E+00  0.00000000000E+00  0.10000000000E+04  0.10000000000E+04  0.00000000000E+00 0. -1.
          2   -1    0    0  501    0 -0.00000000000E+00 -0.00000000000E+00 -0.10516552804E+03  0.10516552804E+03  0.00000000000E+00 0. -1.
    9000006    2    1    2  501    0  0.00000000000E+00  0.00000000000E+00  0.89483447196E+03  0.11051655280E+04  0.64858469928E+03 0.  0.
         13    1    3    3    0    0  0.23614695785E+03 -0.22221884636E+03  0.45483029695E+03  0.55858499837E+03  0.00000000000E+00 0. -1.
          2    1    3    3  501    0 -0.23614695785E+03  0.22221884636E+03  0.44000417501E+03  0.54658052966E+03  0.00000000000E+00 0. -1.
<mgrwt>
<rscale>  0 0.64858470E+03</rscale>
<asrwt>0</asrwt>
<pdfrwt beam="1">0</pdfrwt>
<pdfrwt beam="2">  1        2 0.38242091E+00 0.64858470E+03</pdfrwt>
<totfact> 0.46312204E+00</totfact>
</mgrwt>
</event>
<event>
 5    1  0.2368916E-004  0.6559586E+03  0.7818608E-02  0.9795662E-01
         13   -1    0    0    0    0  0.00000000000E+00  0.00000000000E+00  0.10000000000E+04  0.10000000000E+04  0.00000000000E+00 0. -1.
          2   -1    0    0  501    0 -0.00000000000E+00 -0.00000000000E+00 -0.10757040827E+03  0.10757040827E+03  0.00000000000E+00 0. -1.
    9000006    2    1    2  501    0  0.00000000000E+00  0.00000000000E+00  0.89242959173E+03  0.11075704083E+04  0.65595856048E+03 0.  0.
         13    1    3    3    0    0 -0.17361218449E+03  0.16963312751E+03  0.81865230251E+03  0.85387831742E+03  0.00000000000E+00 0. -1.
          2    1    3    3  501    0  0.17361218449E+03 -0.16963312751E+03  0.73777289223E+02  0.25369209085E+03  0.00000000000E+00 0. -1.
<mgrwt>
<rscale>  0 0.65595856E+03</rscale>
<asrwt>0</asrwt>
<pdfrwt beam="1">0</pdfrwt>
<pdfrwt beam="2">  1        2 0.39116595E+00 0.65595856E+03</pdfrwt>
<totfact> 0.42953969E+00</totfact>
</mgrwt>
</event>
<event>
 5    1  0.2368916E-004  0.6474008E+03  0.7818608E-02  0.9811669E-01
         13   -1    0    0    0    0  0.00000000000E+00  0.00000000000E+00  0.10000000000E+04  0.10000000000E+04  0.00000000000E+00 0. -1.
          2   -1    0    0  501    0 -0.00000000000E+00 -0.00000000000E+00 -0.10478195772E+03  0.10478195772E+03  0.00000000000E+00 0. -1.
    9000006    2    1    2  501    0  0.00000000000E+00  0.00000000000E+00  0.89521804228E+03  0.11047819577E+04  0.64740082706E+03 0.  0.
         13    1    3    3    0    0  0.14993945209E+03  0.15979190807E+03  0.41025276181E+02  0.22293130436E+03  0.00000000000E+00 0. -1.
          4    1    3    3  501    0 -0.14993945209E+03 -0.15979190807E+03  0.85419276610E+03  0.88185065336E+03  0.00000000000E+00 0. -1.
<mgrwt>
<rscale>  0 0.64740083E+03</rscale>
<asrwt>0</asrwt>
<pdfrwt beam="1">0</pdfrwt>
<pdfrwt beam="2">  1        2 0.38102610E+00 0.64740083E+03</pdfrwt>
<totfact> 0.46869314E+00</totfact>
</mgrwt>
</event>
<event>
 5    1  0.2368916E-004  0.6432749E+03  0.7818608E-02  0.9819481E-01
         13   -1    0    0    0    0  0.00000000000E+00  0.00000000000E+00  0.10000000000E+04  0.10000000000E+04  0.00000000000E+00 0. -1.
          2   -1    0    0  501    0 -0.00000000000E+00 -0.00000000000E+00 -0.10345064692E+03  0.10345064692E+03  0.00000000000E+00 0. -1.
    9000006    2    1    2  501    0  0.00000000000E+00  0.00000000000E+00  0.89654935308E+03  0.11034506469E+04  0.64327489278E+03 0.  0.
         13    1    3    3    0    0 -0.18915643833E+03 -0.23090210470E+03  0.24275496782E+03  0.38474136055E+03  0.00000000000E+00 0. -1.
          4    1    3    3  501    0  0.18915643833E+03  0.23090210470E+03  0.65379438526E+03  0.71870928637E+03  0.00000000000E+00 0. -1.
<mgrwt>
<rscale>  0 0.64327489E+03</rscale>
<asrwt>0</asrwt>
<pdfrwt beam="1">0</pdfrwt>
<pdfrwt beam="2">  1        2 0.37618496E+00 0.64327489E+03</pdfrwt>
<totfact> 0.48850615E+00</totfact>
</mgrwt>
</event>
<event>
 5    1  0.2368916E-004  0.6646806E+03  0.7818608E-02  0.9779615E-01
         13   -1    0    0    0    0  0.00000000000E+00  0.00000000000E+00  0.10000000000E+04  0.10000000000E+04  0.00000000000E+00 0. -1.
          2   -1    0    0  501    0 -0.00000000000E+00 -0.00000000000E+00 -0.11045009114E+03  0.11045009114E+03  0.00000000000E+00 0. -1.
    9000006    2    1    2  501    0  0.00000000000E+00  0.00000000000E+00  0.88954990886E+03  0.11104500911E+04  0.66468064854E+03 0.  0.
         13    1    3    3    0    0 -0.15798344290E+02 -0.13585393908E+03  0.95080388094E+03  0.96059039161E+03  0.00000000000E+00 0. -1.
          2    1    3    3  501    0  0.15798344290E+02  0.13585393908E+03 -0.61253972080E+02  0.14985969952E+03  0.00000000000E+00 0. -1.
<mgrwt>
<rscale>  0 0.66468065E+03</rscale>
<asrwt>0</asrwt>
<pdfrwt beam="1">0</pdfrwt>
<pdfrwt beam="2">  1        2 0.40163754E+00 0.66468065E+03</pdfrwt>
<totfact> 0.39223089E+00</totfact>
</mgrwt>
</event>
<event>
 5    1  0.2368916E-004  0.6537272E+03  0.7818608E-02  0.9799810E-01
         13   -1    0    0    0    0  0.00000000000E+00  0.00000000000E+00  0.10000000000E+04  0.10000000000E+04  0.00000000000E+00 0. -1.
          2   -1    0    0  501    0 -0.00000000000E+00 -0.00000000000E+00 -0.10683981396E+03  0.10683981396E+03  0.00000000000E+00 0. -1.
    9000006    2    1    2  501    0  0.00000000000E+00  0.00000000000E+00  0.89316018604E+03  0.11068398140E+04  0.65372720294E+03 0.  0.
         13    1    3    3    0    0 -0.11732666664E+03  0.18715110009E+03  0.38651086247E+02  0.22424314357E+03  0.00000000000E+00 0. -1.
          4    1    3    3  501    0  0.11732666664E+03 -0.18715110009E+03  0.85450909979E+03  0.88259667039E+03  0.00000000000E+00 0. -1.
<mgrwt>
<rscale>  0 0.65372720E+03</rscale>
<asrwt>0</asrwt>
<pdfrwt beam="1">0</pdfrwt>
<pdfrwt beam="2">  1        2 0.38850923E+00 0.65372720E+03</pdfrwt>
<totfact> 0.43950086E+00</totfact>
</mgrwt>
</event>
<event>
 5    1  0.2368916E-004  0.6464938E+03  0.7818608E-02  0.9813381E-01
         13   -1    0    0    0    0  0.00000000000E+00  0.00000000000E+00  0.10000000000E+04  0.10000000000E+04  0.00000000000E+00 0. -1.
          2   -1    0    0  501    0 -0.00000000000E+00 -0.00000000000E+00 -0.10448855228E+03  0.10448855228E+03  0.00000000000E+00 0. -1.
    9000006    2    1    2  501    0  0.00000000000E+00  0.00000000000E+00  0.89551144772E+03  0.11044885523E+04  0.64649378119E+03 0.  0.
         13    1    3    3    0    0 -0.15525670945E+03  0.10785386860E+03  0.89571423924E+03  0.91544584831E+03  0.00000000000E+00 0. -1.
          4    1    3    3  501    0  0.15525670945E+03 -0.10785386860E+03 -0.20279152318E+00  0.18904270397E+03  0.00000000000E+00 0. -1.
<mgrwt>
<rscale>  0 0.64649378E+03</rscale>
<asrwt>0</asrwt>
<pdfrwt beam="1">0</pdfrwt>
<pdfrwt beam="2">  1        2 0.37995917E+00 0.64649378E+03</pdfrwt>
<totfact> 0.47299572E+00</totfact>
</mgrwt>
</event>
<event>
 5    1  0.2368916E-004  0.6589702E+03  0.7818608E-02  0.9790091E-01
         13   -1    0    0    0    0  0.00000000000E+00  0.00000000000E+00  0.10000000000E+04  0.10000000000E+04  0.00000000000E+00 0. -1.
          2   -1    0    0  501    0 -0.00000000000E+00 -0.00000000000E+00 -0.10856044116E+03  0.10856044116E+03  0.00000000000E+00 0. -1.
    9000006    2    1    2  501    0  0.00000000000E+00  0.00000000000E+00  0.89143955884E+03  0.11085604412E+04  0.65897023047E+03 0.  0.
         13    1    3    3    0    0  0.30823498315E+03  0.10830764112E+03  0.51750903156E+03  0.61200894414E+03  0.00000000000E+00 0. -1.
          2    1    3    3  501    0 -0.30823498315E+03 -0.10830764112E+03  0.37393052728E+03  0.49655149702E+03  0.00000000000E+00 0. -1.
<mgrwt>
<rscale>  0 0.65897023E+03</rscale>
<asrwt>0</asrwt>
<pdfrwt beam="1">0</pdfrwt>
<pdfrwt beam="2">  1        2 0.39476607E+00 0.65897023E+03</pdfrwt>
<totfact> 0.41636683E+00</totfact>
</mgrwt>
</event>
<event>
 5    1  0.2368916E-004  0.6442184E+03  0.7818608E-02  0.9817689E-01
         13   -1    0    0    0    0  0.00000000000E+00  0.00000000000E+00  0.10000000000E+04  0.10000000000E+04  0.00000000000E+00 0. -1.
          2   -1    0    0  501    0 -0.00000000000E+00 -0.00000000000E+00 -0.10375432703E+03  0.10375432703E+03  0.00000000000E+00 0. -1.
    9000006    2    1    2  501    0  0.00000000000E+00  0.00000000000E+00  0.89624567297E+03  0.11037543270E+04  0.64421836990E+03 0.  0.
         13    1    3    3    0    0 -0.13852114064E+03  0.28297154403E+03  0.56297079343E+03  0.64513340898E+03  0.00000000000E+00 0. -1.
          4    1    3    3  501    0  0.13852114064E+03 -0.28297154403E+03  0.33327487954E+03  0.45862091805E+03  0.00000000000E+00 0. -1.
<mgrwt>
<rscale>  0 0.64421837E+03</rscale>
<asrwt>0</asrwt>
<pdfrwt beam="1">0</pdfrwt>
<pdfrwt beam="2">  1        2 0.37728926E+00 0.64421837E+03</pdfrwt>
<totfact> 0.48392066E+00</totfact>
</mgrwt>
</event>
<event>
 5    1  0.2368916E-004  0.6510854E+03  0.7818608E-02  0.9804745E-01
         13   -1    0    0    0    0  0.00000000000E+00  0.00000000000E+00  0.10000000000E+04  0.10000000000E+04  0.00000000000E+00 0. -1.
          2   -1    0    0  501    0 -0.00000000000E+00 -0.00000000000E+00 -0.10597803508E+03  0.10597803508E+03  0.00000000000E+00 0. -1.
    9000006    2    1    2  501    0  0.00000000000E+00  0.00000000000E+00  0.89402196492E+03  0.11059780351E+04  0.65108535564E+03 0.  0.
         13    1    3    3    0    0  0.27253900071E+03  0.11859971433E+03  0.22143553695E+03  0.37064416381E+03  0.00000000000E+00 0. -1.
          4    1    3    3  501    0 -0.27253900071E+03 -0.11859971433E+03  0.67258642797E+03  0.73533387127E+03  0.00000000000E+00 0. -1.
<mgrwt>
<rscale>  0 0.65108536E+03</rscale>
<asrwt>0</asrwt>
<pdfrwt beam="1">0</pdfrwt>
<pdfrwt beam="2">  1        2 0.38537549E+00 0.65108536E+03</pdfrwt>
<totfact> 0.45151900E+00</totfact>
</mgrwt>
</event>
<event>
 5    1  0.2368916E-004  0.6457472E+03  0.7818608E-02  0.9814792E-01
         13   -1    0    0    0    0  0.00000000000E+00  0.00000000000E+00  0.10000000000E+04  0.10000000000E+04  0.00000000000E+00 0. -1.
          2   -1    0    0  501    0 -0.00000000000E+00 -0.00000000000E+00 -0.10424737348E+03  0.10424737348E+03  0.00000000000E+00 0. -1.
    9000006    2    1    2  501    0  0.00000000000E+00  0.00000000000E+00  0.89575262652E+03  0.11042473735E+04  0.64574723686E+03 0.  0.
         13    1    3    3    0    0  0.15810553655E+03 -0.11252268096E+02  0.92888872953E+03  0.94231536445E+03  0.00000000000E+00 0. -1.
          4    1    3    3  501    0 -0.15810553655E+03  0.11252268096E+02 -0.33136103011E+02  0.16193200903E+03  0.00000000000E+00 0. -1.
<mgrwt>
<rscale>  0 0.64574724E+03</rscale>
<asrwt>0</asrwt>
<pdfrwt beam="1">0</pdfrwt>
<pdfrwt beam="2">  1        2 0.37908216E+00 0.64574724E+03</pdfrwt>
<totfact> 0.47655932E+00</totfact>
</mgrwt>
</event>
<event>
 5    1  0.2368916E-004  0.6445769E+03  0.7818608E-02  0.9817009E-01
         13   -1    0    0    0    0  0.00000000000E+00  0.00000000000E+00  0.10000000000E+04  0.10000000000E+04  0.00000000000E+00 0. -1.
          2   -1    0    0  501    0 -0.00000000000E+00 -0.00000000000E+00 -0.10386984842E+03  0.10386984842E+03  0.00000000000E+00 0. -1.
    9000006    2    1    2  501    0  0.00000000000E+00  0.00000000000E+00  0.89613015158E+03  0.11038698484E+04  0.64457691061E+03 0.  0.
         13    1    3    3    0    0 -0.13950367501E+03  0.14731409624E+03  0.87691129836E+03  0.90007563209E+03  0.00000000000E+00 0. -1.
          2    1    3    3  501    0  0.13950367501E+03 -0.14731409624E+03  0.19218853221E+02  0.20379421634E+03  0.00000000000E+00 0. -1.
<mgrwt>
<rscale>  0 0.64457691E+03</rscale>
<asrwt>0</asrwt>
<pdfrwt beam="1">0</pdfrwt>
<pdfrwt beam="2">  1        2 0.37770934E+00 0.64457691E+03</pdfrwt>
<totfact> 0.48218666E+00</totfact>
</mgrwt>
</event>
<event>
 5    1  0.2368916E-004  0.6588862E+03  0.7818608E-02  0.9790246E-01
         13   -1    0    0    0    0  0.00000000000E+00  0.00000000000E+00  0.10000000000E+04  0.10000000000E+04  0.00000000000E+00 0. -1.
          2   -1    0    0  501    0 -0.00000000000E+00 -0.00000000000E+00 -0.10853277213E+03  0.10853277213E+03  0.00000000000E+00 0. -1.
    9000006    2    1    2  501    0  0.00000000000E+00  0.00000000000E+00  0.89146722787E+03  0.11085327721E+04  0.65888624856E+03 0.  0.
         13    1    3    3    0    0  0.24014821172E+03  0.11498836945E+03  0.11932713789E+03  0.29177466398E+03  0.00000000000E+00 0. -1.
          2    1    3    3  501    0 -0.24014821172E+03 -0.11498836945E+03  0.77214008997E+03  0.81675810816E+03  0.00000000000E+00 0. -1.
<mgrwt>
<rscale>  0 0.65888625E+03</rscale>
<asrwt>0</asrwt>
<pdfrwt beam="1">0</pdfrwt>
<pdfrwt beam="2">  1        2 0.39466546E+00 0.65888625E+03</pdfrwt>
<totfact> 0.41672995E+00</totfact>
</mgrwt>
</event>
<event>
 5    1  0.2368916E-004  0.6474559E+03  0.7818608E-02  0.9811565E-01
         13   -1    0    0    0    0  0.00000000000E+00  0.00000000000E+00  0.10000000000E+04  0.10000000000E+04  0.00000000000E+00 0. -1.
          2   -1    0    0  501    0 -0.00000000000E+00 -0.00000000000E+00 -0.10479979459E+03  0.10479979459E+03  0.00000000000E+00 0. -1.
    9000006    2    1    2  501    0  0.00000000000E+00  0.00000000000E+00  0.89520020541E+03  0.11047997946E+04  0.64745592773E+03 0.  0.
         13    1    3    3    0    0  0.27968693853E+02  0.20791285521E+03  0.86831578423E+03  0.89329855274E+03  0.00000000000E+00 0. -1.
          2    1    3    3  501    0 -0.27968693853E+02 -0.20791285521E+03  0.26884421186E+02  0.21150124184E+03  0.00000000000E+00 0. -1.
<mgrwt>
<rscale>  0 0.64745593E+03</rscale>
<asrwt>0</asrwt>
<pdfrwt beam="1">0</pdfrwt>
<pdfrwt beam="2">  1        2 0.38109097E+00 0.64745593E+03</pdfrwt>
<totfact> 0.46843273E+00</totfact>
</mgrwt>
</event>
<event>
 5    1  0.2368916E-004  0.6587874E+03  0.7818608E-02  0.9790429E-01
         13   -1    0    0    0    0  0.00000000000E+00  0.00000000000E+00  0.10000000000E+04  0.10000000000E+04  0.00000000000E+00 0. -1.
          2   -1    0    0  501    0 -0.00000000000E+00 -0.00000000000E+00 -0.10850020520E+03  0.10850020520E+03  0.00000000000E+00 0. -1.
    9000006    2    1    2  501    0  0.00000000000E+00  0.00000000000E+00  0.89149979480E+03  0.11085002052E+04  0.65878738665E+03 0.  0.
         13    1    3    3    0    0 -0.11772236214E+03 -0.12259030200E+03 -0.29020059704E+02  0.17242128801E+03  0.00000000000E+00 0. -1.
          2    1    3    3  501    0  0.11772236214E+03  0.12259030200E+03  0.92051985450E+03  0.93607891720E+03  0.00000000000E+00 0. -1.
<mgrwt>
<rscale>  0 0.65878739E+03</rscale>
<asrwt>0</asrwt>
<pdfrwt beam="1">0</pdfrwt>
<pdfrwt beam="2">  1        2 0.39454703E+00 0.65878739E+03</pdfrwt>
<totfact> 0.41715771E+00</totfact>
</mgrwt>
</event>
<event>
 5    1  0.2368916E-004  0.6324299E+03  0.7818608E-02  0.9840318E-01
         13   -1    0    0    0    0  0.00000000000E+00  0.00000000000E+00  0.10000000000E+04  0.10000000000E+04  0.00000000000E+00 0. -1.
          2   -1    0    0  501    0 -0.00000000000E+00 -0.00000000000E+00 -0.99991906599E+02  0.99991906599E+02  0.00000000000E+00 0. -1.
    9000006    2    1    2  501    0  0.00000000000E+00  0.00000000000E+00  0.90000809340E+03  0.10999919066E+04  0.63242993793E+03 0.  0.
         13    1    3    3    0    0  0.23264955761E+03  0.16293091923E+03  0.69175945389E+03  0.74779906602E+03  0.00000000000E+00 0. -1.
          4    1    3    3  501    0 -0.23264955761E+03 -0.16293091923E+03  0.20824863952E+03  0.35219284058E+03  0.00000000000E+00 0. -1.
<mgrwt>
<rscale>  0 0.63242994E+03</rscale>
<asrwt>0</asrwt>
<pdfrwt beam="1">0</pdfrwt>
<pdfrwt beam="2">  1        2 0.36360770E+00 0.63242994E+03</pdfrwt>
<totfact> 0.54361772E+00</totfact>
</mgrwt>
</event>
<event>
 5    1  0.2368916E-004  0.6193503E+03  0.7818608E-02  0.9866054E-01
         13   -1    0    0    0    0  0.00000000000E+00  0.00000000000E+00  0.10000000000E+04  0.10000000000E+04  0.00000000000E+00 0. -1.
          2   -1    0    0  501    0 -0.00000000000E+00 -0.00000000000E+00 -0.95898701424E+02  0.95898701424E+02  0.00000000000E+00 0. -1.
    9000006    2    1    2  501    0  0.00000000000E+00  0.00000000000E+00  0.90410129858E+03  0.10958987014E+04  0.61935030935E+03 0.  0.
         13    1    3    3    0    0 -0.29648893830E+03 -0.50721977651E+02  0.58232094229E+03  0.65542054392E+03  0.00000000000E+00 0. -1.
          4    1    3    3  501    0  0.29648893830E+03  0.50721977651E+02  0.32178035628E+03  0.44047815751E+03  0.00000000000E+00 0. -1.
<mgrwt>
<rscale>  0 0.61935031E+03</rscale>
<asrwt>0</asrwt>
<pdfrwt beam="1">0</pdfrwt>
<pdfrwt beam="2">  1        2 0.34872329E+00 0.61935031E+03</pdfrwt>
<totfact> 0.61622471E+00</totfact>
</mgrwt>
</event>
<event>
 5    1  0.2368916E-004  0.6536717E+03  0.7818608E-02  0.9799914E-01
         13   -1    0    0    0    0  0.00000000000E+00  0.00000000000E+00  0.10000000000E+04  0.10000000000E+04  0.00000000000E+00 0. -1.
          2   -1    0    0  501    0 -0.00000000000E+00 -0.00000000000E+00 -0.10682166143E+03  0.10682166143E+03  0.00000000000E+00 0. -1.
    9000006    2    1    2  501    0  0.00000000000E+00  0.00000000000E+00  0.89317833857E+03  0.11068216614E+04  0.65367166507E+03 0.  0.
         13    1    3    3    0    0  0.73992042910E+02  0.14951843507E+03  0.92247963799E+03  0.93744294085E+03  0.00000000000E+00 0. -1.
          4    1    3    3  501    0 -0.73992042910E+02 -0.14951843507E+03 -0.29301299417E+02  0.16937872058E+03  0.00000000000E+00 0. -1.
<mgrwt>
<rscale>  0 0.65367167E+03</rscale>
<asrwt>0</asrwt>
<pdfrwt beam="1">0</pdfrwt>
<pdfrwt beam="2">  1        2 0.38844322E+00 0.65367167E+03</pdfrwt>
<totfact> 0.43975099E+00</totfact>
</mgrwt>
</event>
<event>
 5    1  0.2368916E-004  0.6530569E+03  0.7818608E-02  0.9801060E-01
         13   -1    0    0    0    0  0.00000000000E+00  0.00000000000E+00  0.10000000000E+04  0.10000000000E+04  0.00000000000E+00 0. -1.
          2   -1    0    0  501    0 -0.00000000000E+00 -0.00000000000E+00 -0.10662083266E+03  0.10662083266E+03  0.00000000000E+00 0. -1.
    9000006    2    1    2  501    0  0.00000000000E+00  0.00000000000E+00  0.89337916734E+03  0.11066208327E+04  0.65305691225E+03 0.  0.
         13    1    3    3    0    0  0.28237516490E+03  0.15057383222E+03  0.55667217589E+03  0.64209977738E+03  0.00000000000E+00 0. -1.
          4    1    3    3  501    0 -0.28237516490E+03 -0.15057383222E+03  0.33670699145E+03  0.46452105527E+03  0.00000000000E+00 0. -1.
<mgrwt>
<rscale>  0 0.65305691E+03</rscale>
<asrwt>0</asrwt>
<pdfrwt beam="1">0</pdfrwt>
<pdfrwt beam="2">  1        2 0.38771294E+00 0.65305691E+03</pdfrwt>
<totfact> 0.44252695E+00</totfact>
</mgrwt>
</event>
<event>
 5    1  0.2368916E-004  0.6457724E+03  0.7818608E-02  0.9814745E-01
         13   -1    0    0    0    0  0.00000000000E+00  0.00000000000E+00  0.10000000000E+04  0.10000000000E+04  0.00000000000E+00 0. -1.
          2   -1    0    0  501    0 -0.00000000000E+00 -0.00000000000E+00 -0.10425548508E+03  0.10425548508E+03  0.00000000000E+00 0. -1.
    9000006    2    1    2  501    0  0.00000000000E+00  0.00000000000E+00  0.89574451492E+03  0.11042554851E+04  0.64577235952E+03 0.  0.
         13    1    3    3    0    0  0.23339484379E+03 -0.27384855670E+02  0.69227720011E+02  0.24498073525E+03  0.00000000000E+00 0. -1.
          4    1    3    3  501    0 -0.23339484379E+03  0.27384855670E+02  0.82651679491E+03  0.85927474983E+03  0.00000000000E+00 0. -1.
<mgrwt>
<rscale>  0 0.64577236E+03</rscale>
<asrwt>0</asrwt>
<pdfrwt beam="1">0</pdfrwt>
<pdfrwt beam="2">  1        2 0.37911165E+00 0.64577236E+03</pdfrwt>
<totfact> 0.47643907E+00</totfact>
</mgrwt>
</event>
<event>
 5    1  0.2368916E-004  0.6489691E+03  0.7818608E-02  0.9808716E-01
         13   -1    0    0    0    0  0.00000000000E+00  0.00000000000E+00  0.10000000000E+04  0.10000000000E+04  0.00000000000E+00 0. -1.
          2   -1    0    0  501    0 -0.00000000000E+00 -0.00000000000E+00 -0.10529021529E+03  0.10529021529E+03  0.00000000000E+00 0. -1.
    9000006    2    1    2  501    0  0.00000000000E+00  0.00000000000E+00  0.89470978471E+03  0.11052902153E+04  0.64896907567E+03 0.  0.
         13    1    3    3    0    0  0.47116386044E+02 -0.22587280043E+03  0.58784284577E+02  0.23810516147E+03  0.00000000000E+00 0. -1.
          2    1    3    3  501    0 -0.47116386044E+02  0.22587280043E+03  0.83592550013E+03  0.86718505382E+03  0.00000000000E+00 0. -1.
<mgrwt>
<rscale>  0 0.64896908E+03</rscale>
<asrwt>0</asrwt>
<pdfrwt beam="1">0</pdfrwt>
<pdfrwt beam="2">  1        2 0.38287432E+00 0.64896908E+03</pdfrwt>
<totfact> 0.46132404E+00</totfact>
</mgrwt>
</event>
<event>
 5    1  0.2368916E-004  0.6439645E+03  0.7818608E-02  0.9818171E-01
         13   -1    0    0    0    0  0.00000000000E+00  0.00000000000E+00  0.10000000000E+04  0.10000000000E+04  0.00000000000E+00 0. -1.
          2   -1    0    0  501    0 -0.00000000000E+00 -0.00000000000E+00 -0.10367255384E+03  0.10367255384E+03  0.00000000000E+00 0. -1.
    9000006    2    1    2  501    0  0.00000000000E+00  0.00000000000E+00  0.89632744616E+03  0.11036725538E+04  0.64396445192E+03 0.  0.
         13    1    3    3    0    0 -0.50039263102E+02  0.21327180191E+03  0.85259305175E+03  0.88028614736E+03  0.00000000000E+00 0. -1.
          4    1    3    3  501    0  0.50039263102E+02 -0.21327180191E+03  0.43734394413E+02  0.22338640647E+03  0.00000000000E+00 0. -1.
<mgrwt>
<rscale>  0 0.64396445E+03</rscale>
<asrwt>0</asrwt>
<pdfrwt beam="1">0</pdfrwt>
<pdfrwt beam="2">  1        2 0.37699190E+00 0.64396445E+03</pdfrwt>
<totfact> 0.48515154E+00</totfact>
</mgrwt>
</event>
<event>
 5    1  0.2368916E-004  0.6509043E+03  0.7818608E-02  0.9805084E-01
         13   -1    0    0    0    0  0.00000000000E+00  0.00000000000E+00  0.10000000000E+04  0.10000000000E+04  0.00000000000E+00 0. -1.
          2   -1    0    0  501    0 -0.00000000000E+00 -0.00000000000E+00 -0.10591910780E+03  0.10591910780E+03  0.00000000000E+00 0. -1.
    9000006    2    1    2  501    0  0.00000000000E+00  0.00000000000E+00  0.89408089220E+03  0.11059191078E+04  0.65090431800E+03 0.  0.
         13    1    3    3    0    0  0.88203905317E+02 -0.31310255194E+03  0.42955005903E+03  0.53881944114E+03  0.00000000000E+00 0. -1.
          4    1    3    3  501    0 -0.88203905317E+02  0.31310255194E+03  0.46453083318E+03  0.56709966665E+03  0.00000000000E+00 0. -1.
<mgrwt>
<rscale>  0 0.65090432E+03</rscale>
<asrwt>0</asrwt>
<pdfrwt beam="1">0</pdfrwt>
<pdfrwt beam="2">  1        2 0.38516120E+00 0.65090432E+03</pdfrwt>
<totfact> 0.45235156E+00</totfact>
</mgrwt>
</event>
<event>
 5    1  0.2368916E-004  0.6542044E+03  0.7818608E-02  0.9798922E-01
         13   -1    0    0    0    0  0.00000000000E+00  0.00000000000E+00  0.10000000000E+04  0.10000000000E+04  0.00000000000E+00 0. -1.
          2   -1    0    0  501    0 -0.00000000000E+00 -0.00000000000E+00 -0.10699586440E+03  0.10699586440E+03  0.00000000000E+00 0. -1.
    9000006    2    1    2  501    0  0.00000000000E+00  0.00000000000E+00  0.89300413560E+03  0.11069958644E+04  0.65420444634E+03 0.  0.
         13    1    3    3    0    0  0.25570990042E+03  0.66306599348E+02  0.77291888929E+03  0.81681560203E+03  0.00000000000E+00 0. -1.
          4    1    3    3  501    0 -0.25570990042E+03 -0.66306599348E+02  0.12008524631E+03  0.29018026238E+03  0.00000000000E+00 0. -1.
<mgrwt>
<rscale>  0 0.65420445E+03</rscale>
<asrwt>0</asrwt>
<pdfrwt beam="1">0</pdfrwt>
<pdfrwt beam="2">  1        2 0.38907669E+00 0.65420445E+03</pdfrwt>
<totfact> 0.43735585E+00</totfact>
</mgrwt>
</event>
<event>
 5    1  0.2368916E-004  0.6574482E+03  0.7818608E-02  0.9792903E-01
         13   -1    0    0    0    0  0.00000000000E+00  0.00000000000E+00  0.10000000000E+04  0.10000000000E+04  0.00000000000E+00 0. -1.
          2   -1    0    0  501    0 -0.00000000000E+00 -0.00000000000E+00 -0.10805954504E+03  0.10805954504E+03  0.00000000000E+00 0. -1.
    9000006    2    1    2  501    0  0.00000000000E+00  0.00000000000E+00  0.89194045496E+03  0.11080595450E+04  0.65744823383E+03 0.  0.
         13    1    3    3    0    0  0.28108124202E+03 -0.16675763834E+03  0.38650731506E+03  0.50616467593E+03  0.00000000000E+00 0. -1.
          4    1    3    3  501    0 -0.28108124202E+03  0.16675763834E+03  0.50543313990E+03  0.60189486911E+03  0.00000000000E+00 0. -1.
<mgrwt>
<rscale>  0 0.65744823E+03</rscale>
<asrwt>0</asrwt>
<pdfrwt beam="1">0</pdfrwt>
<pdfrwt beam="2">  1        2 0.39294463E+00 0.65744823E+03</pdfrwt>
<totfact> 0.42298509E+00</totfact>
</mgrwt>
</event>
<event>
 5    1  0.2368916E-004  0.6459003E+03  0.7818608E-02  0.9814503E-01
         13   -1    0    0    0    0  0.00000000000E+00  0.00000000000E+00  0.10000000000E+04  0.10000000000E+04  0.00000000000E+00 0. -1.
          2   -1    0    0  501    0 -0.00000000000E+00 -0.00000000000E+00 -0.10429678731E+03  0.10429678731E+03  0.00000000000E+00 0. -1.
    9000006    2    1    2  501    0  0.00000000000E+00  0.00000000000E+00  0.89570321269E+03  0.11042967873E+04  0.64590026261E+03 0.  0.
         13    1    3    3    0    0 -0.22354510605E+03  0.90515156437E+01  0.49661955814E+02  0.22917385154E+03  0.00000000000E+00 0. -1.
          2    1    3    3  501    0  0.22354510605E+03 -0.90515156437E+01  0.84604125688E+03  0.87512293577E+03  0.00000000000E+00 0. -1.
<mgrwt>
<rscale>  0 0.64590026E+03</rscale>
<asrwt>0</asrwt>
<pdfrwt beam="1">0</pdfrwt>
<pdfrwt beam="2">  1        2 0.37926184E+00 0.64590026E+03</pdfrwt>
<totfact> 0.47582721E+00</totfact>
</mgrwt>
</event>
<event>
 5    1  0.2368916E-004  0.6617977E+03  0.7818608E-02  0.9784890E-01
         13   -1    0    0    0    0  0.00000000000E+00  0.00000000000E+00  0.10000000000E+04  0.10000000000E+04  0.00000000000E+00 0. -1.
          2   -1    0    0  501    0 -0.00000000000E+00 -0.00000000000E+00 -0.10949404143E+03  0.10949404143E+03  0.00000000000E+00 0. -1.
    9000006    2    1    2  501    0  0.00000000000E+00  0.00000000000E+00  0.89050595857E+03  0.11094940414E+04  0.66179767733E+03 0.  0.
         13    1    3    3    0    0  0.42548442017E+02 -0.86658925066E+02  0.97586493527E+03  0.98062863057E+03  0.00000000000E+00 0. -1.
          4    1    3    3  501    0 -0.42548442017E+02  0.86658925066E+02 -0.85358976700E+02  0.12886541086E+03  0.00000000000E+00 0. -1.
<mgrwt>
<rscale>  0 0.66179768E+03</rscale>
<asrwt>0</asrwt>
<pdfrwt beam="1">0</pdfrwt>
<pdfrwt beam="2">  1        2 0.39816099E+00 0.66179768E+03</pdfrwt>
<totfact> 0.40428028E+00</totfact>
</mgrwt>
</event>
<event>
 5    1  0.2368916E-004  0.6550816E+03  0.7818608E-02  0.9797290E-01
         13   -1    0    0    0    0  0.00000000000E+00  0.00000000000E+00  0.10000000000E+04  0.10000000000E+04  0.00000000000E+00 0. -1.
          2   -1    0    0  501    0 -0.00000000000E+00 -0.00000000000E+00 -0.10728298739E+03  0.10728298739E+03  0.00000000000E+00 0. -1.
    9000006    2    1    2  501    0  0.00000000000E+00  0.00000000000E+00  0.89271701261E+03  0.11072829874E+04  0.65508163578E+03 0.  0.
         13    1    3    3    0    0  0.13823838473E+03  0.41845515460E+02  0.94326604205E+03  0.95425977818E+03  0.00000000000E+00 0. -1.
          4    1    3    3  501    0 -0.13823838473E+03 -0.41845515460E+02 -0.50549029434E+02  0.15302320920E+03  0.00000000000E+00 0. -1.
<mgrwt>
<rscale>  0 0.65508164E+03</rscale>
<asrwt>0</asrwt>
<pdfrwt beam="1">0</pdfrwt>
<pdfrwt beam="2">  1        2 0.39012078E+00 0.65508164E+03</pdfrwt>
<totfact> 0.43343387E+00</totfact>
</mgrwt>
</event>
<event>
 5    1  0.2368916E-004  0.6496338E+03  0.7818608E-02  0.9807467E-01
         13   -1    0    0    0    0  0.00000000000E+00  0.00000000000E+00  0.10000000000E+04  0.10000000000E+04  0.00000000000E+00 0. -1.
          2   -1    0    0  501    0 -0.00000000000E+00 -0.00000000000E+00 -0.10550601195E+03  0.10550601195E+03  0.00000000000E+00 0. -1.
    9000006    2    1    2  501    0  0.00000000000E+00  0.00000000000E+00  0.89449398805E+03  0.11055060120E+04  0.64963377976E+03 0.  0.
         13    1    3    3    0    0  0.29699706605E+03 -0.10364681511E+03  0.58503615101E+03  0.66424183662E+03  0.00000000000E+00 0. -1.
          2    1    3    3  501    0 -0.29699706605E+03  0.10364681511E+03  0.30945783704E+03  0.44126417533E+03  0.00000000000E+00 0. -1.
<mgrwt>
<rscale>  0 0.64963378E+03</rscale>
<asrwt>0</asrwt>
<pdfrwt beam="1">0</pdfrwt>
<pdfrwt beam="2">  1        2 0.38365903E+00 0.64963378E+03</pdfrwt>
<totfact> 0.45822720E+00</totfact>
</mgrwt>
</event>
<event>
 5    1  0.2368916E-004  0.6538572E+03  0.7818608E-02  0.9799568E-01
         13   -1    0    0    0    0  0.00000000000E+00  0.00000000000E+00  0.10000000000E+04  0.10000000000E+04  0.00000000000E+00 0. -1.
          2   -1    0    0  501    0 -0.00000000000E+00 -0.00000000000E+00 -0.10688231735E+03  0.10688231735E+03  0.00000000000E+00 0. -1.
    9000006    2    1    2  501    0  0.00000000000E+00  0.00000000000E+00  0.89311768265E+03  0.11068823174E+04  0.65385722402E+03 0.  0.
         13    1    3    3    0    0  0.29102513468E+03  0.57610484375E+02  0.67908843862E+03  0.74106390034E+03  0.00000000000E+00 0. -1.
          2    1    3    3  501    0 -0.29102513468E+03 -0.57610484375E+02  0.21402924403E+03  0.36581841701E+03  0.00000000000E+00 0. -1.
<mgrwt>
<rscale>  0 0.65385722E+03</rscale>
<asrwt>0</asrwt>
<pdfrwt beam="1">0</pdfrwt>
<pdfrwt beam="2">  1        2 0.38866379E+00 0.65385722E+03</pdfrwt>
<totfact> 0.43891568E+00</totfact>
</mgrwt>
</event>
<event>
 5    1  0.2368916E-004  0.6452344E+03  0.7818608E-02  0.9815763E-01
         13   -1    0    0    0    0  0.00000000000E+00  0.00000000000E+00  0.10000000000E+04  0.10000000000E+04  0.00000000000E+00 0. -1.
          2   -1    0    0  501    0 -0.00000000000E+00 -0.00000000000E+00 -0.10408185152E+03  0.10408185152E+03  0.00000000000E+00 0. -1.
    9000006    2    1    2  501    0  0.00000000000E+00  0.00000000000E+00  0.89591814848E+03  0.11040818515E+04  0.64523438073E+03 0.  0.
         13    1    3    3    0    0 -0.22273821302E+03 -0.87883054826E+02  0.81792054982E+03  0.85224982762E+03  0.00000000000E+00 0. -1.
          2    1    3    3  501    0  0.22273821302E+03  0.87883054826E+02  0.77997598661E+02  0.25183202390E+03  0.00000000000E+00 0. -1.
<mgrwt>
<rscale>  0 0.64523438E+03</rscale>
<asrwt>0</asrwt>
<pdfrwt beam="1">0</pdfrwt>
<pdfrwt beam="2">  1        2 0.37848026E+00 0.64523438E+03</pdfrwt>
<totfact> 0.47901916E+00</totfact>
</mgrwt>
</event>
<event>
 5    1  0.2368916E-004  0.6491497E+03  0.7818608E-02  0.9808376E-01
         13   -1    0    0    0    0  0.00000000000E+00  0.00000000000E+00  0.10000000000E+04  0.10000000000E+04  0.00000000000E+00 0. -1.
          2   -1    0    0  501    0 -0.00000000000E+00 -0.00000000000E+00 -0.10534883342E+03  0.10534883342E+03  0.00000000000E+00 0. -1.
    9000006    2    1    2  501    0  0.00000000000E+00  0.00000000000E+00  0.89465116658E+03  0.11053488334E+04  0.64914970050E+03 0.  0.
         13    1    3    3    0    0  0.16776822186E+03 -0.19083540855E+03  0.79120175932E+03  0.83100213800E+03  0.00000000000E+00 0. -1.
          2    1    3    3  501    0 -0.16776822186E+03  0.19083540855E+03  0.10344940727E+03  0.27434669541E+03  0.00000000000E+00 0. -1.
<mgrwt>
<rscale>  0 0.64914970E+03</rscale>
<asrwt>0</asrwt>
<pdfrwt beam="1">0</pdfrwt>
<pdfrwt beam="2">  1        2 0.38308747E+00 0.64914970E+03</pdfrwt>
<totfact> 0.46048095E+00</totfact>
</mgrwt>
</event>
<event>
 5    1  0.2368916E-004  0.6498261E+03  0.7818608E-02  0.9807106E-01
         13   -1    0    0    0    0  0.00000000000E+00  0.00000000000E+00  0.10000000000E+04  0.10000000000E+04  0.00000000000E+00 0. -1.
          2   -1    0    0  501    0 -0.00000000000E+00 -0.00000000000E+00 -0.10556848699E+03  0.10556848699E+03  0.00000000000E+00 0. -1.
    9000006    2    1    2  501    0  0.00000000000E+00  0.00000000000E+00  0.89443151301E+03  0.11055684870E+04  0.64982609054E+03 0.  0.
         13    1    3    3    0    0 -0.25825664568E+03  0.11720703449E+03  0.71694228198E+03  0.77099949394E+03  0.00000000000E+00 0. -1.
          2    1    3    3  501    0  0.25825664568E+03 -0.11720703449E+03  0.17748923103E+03  0.33456899304E+03  0.00000000000E+00 0. -1.
<mgrwt>
<rscale>  0 0.64982609E+03</rscale>
<asrwt>0</asrwt>
<pdfrwt beam="1">0</pdfrwt>
<pdfrwt beam="2">  1        2 0.38388622E+00 0.64982609E+03</pdfrwt>
<totfact> 0.45733417E+00</totfact>
</mgrwt>
</event>
<event>
 5    1  0.2368916E-004  0.6415924E+03  0.7818608E-02  0.9822685E-01
         13   -1    0    0    0    0  0.00000000000E+00  0.00000000000E+00  0.10000000000E+04  0.10000000000E+04  0.00000000000E+00 0. -1.
          2   -1    0    0  501    0 -0.00000000000E+00 -0.00000000000E+00 -0.10291019661E+03  0.10291019661E+03  0.00000000000E+00 0. -1.
    9000006    2    1    2  501    0  0.00000000000E+00  0.00000000000E+00  0.89708980339E+03  0.11029101966E+04  0.64159238340E+03 0.  0.
         13    1    3    3    0    0  0.13891290209E+03  0.93946896448E+02 -0.21560368714E+02  0.16907886686E+03  0.00000000000E+00 0. -1.
          2    1    3    3  501    0 -0.13891290209E+03 -0.93946896448E+02  0.91865017211E+03  0.93383132975E+03  0.00000000000E+00 0. -1.
<mgrwt>
<rscale>  0 0.64159238E+03</rscale>
<asrwt>0</asrwt>
<pdfrwt beam="1">0</pdfrwt>
<pdfrwt beam="2">  1        2 0.37421969E+00 0.64159238E+03</pdfrwt>
<totfact> 0.49676552E+00</totfact>
</mgrwt>
</event>
<event>
 5    1  0.2368916E-004  0.6255210E+03  0.7818608E-02  0.9853828E-01
         13   -1    0    0    0    0  0.00000000000E+00  0.00000000000E+00  0.10000000000E+04  0.10000000000E+04  0.00000000000E+00 0. -1.
          2   -1    0    0  501    0 -0.00000000000E+00 -0.00000000000E+00 -0.97819138380E+02  0.97819138380E+02  0.00000000000E+00 0. -1.
    9000006    2    1    2  501    0  0.00000000000E+00  0.00000000000E+00  0.90218086162E+03  0.10978191384E+04  0.62552102564E+03 0.  0.
         13    1    3    3    0    0  0.11573176953E+03  0.28002461550E+03  0.58716616765E+03  0.66073575368E+03  0.00000000000E+00 0. -1.
          4    1    3    3  501    0 -0.11573176953E+03 -0.28002461550E+03  0.31501469397E+03  0.43708338470E+03  0.00000000000E+00 0. -1.
<mgrwt>
<rscale>  0 0.62552103E+03</rscale>
<asrwt>0</asrwt>
<pdfrwt beam="1">0</pdfrwt>
<pdfrwt beam="2">  1        2 0.35570671E+00 0.62552103E+03</pdfrwt>
<totfact> 0.58110647E+00</totfact>
</mgrwt>
</event>
<event>
 5    1  0.2368916E-004  0.6590246E+03  0.7818608E-02  0.9789991E-01
         13   -1    0    0    0    0  0.00000000000E+00  0.00000000000E+00  0.10000000000E+04  0.10000000000E+04  0.00000000000E+00 0. -1.
          2   -1    0    0  501    0 -0.00000000000E+00 -0.00000000000E+00 -0.10857836471E+03  0.10857836471E+03  0.00000000000E+00 0. -1.
    9000006    2    1    2  501    0  0.00000000000E+00  0.00000000000E+00  0.89142163529E+03  0.11085783647E+04  0.65902462688E+03 0.  0.
         13    1    3    3    0    0  0.93700179648E+02 -0.22298935423E+03  0.69290910013E+02  0.25160525824E+03  0.00000000000E+00 0. -1.
          4    1    3    3  501    0 -0.93700179648E+02  0.22298935423E+03  0.82213072528E+03  0.85697310647E+03  0.00000000000E+00 0. -1.
<mgrwt>
<rscale>  0 0.65902463E+03</rscale>
<asrwt>0</asrwt>
<pdfrwt beam="1">0</pdfrwt>
<pdfrwt beam="2">  1        2 0.39483125E+00 0.65902463E+03</pdfrwt>
<totfact> 0.41613176E+00</totfact>
</mgrwt>
</event>
<event>
 5    1  0.2368916E-004  0.6493900E+03  0.7818608E-02  0.9807925E-01
         13   -1    0    0    0    0  0.00000000000E+00  0.00000000000E+00  0.10000000000E+04  0.10000000000E+04  0.00000000000E+00 0. -1.
          2   -1    0    0  501    0 -0.00000000000E+00 -0.00000000000E+00 -0.10542683347E+03  0.10542683347E+03  0.00000000000E+00 0. -1.
    9000006    2    1    2  501    0  0.00000000000E+00  0.00000000000E+00  0.89457316653E+03  0.11054268335E+04  0.64938997057E+03 0.  0.
         13    1    3    3    0    0  0.31770511248E+03  0.36765641323E+02  0.54265206484E+03  0.62988849359E+03  0.00000000000E+00 0. -1.
          4    1    3    3  501    0 -0.31770511248E+03 -0.36765641323E+02  0.35192110169E+03  0.47553833988E+03  0.00000000000E+00 0. -1.
<mgrwt>
<rscale>  0 0.64938997E+03</rscale>
<asrwt>0</asrwt>
<pdfrwt beam="1">0</pdfrwt>
<pdfrwt beam="2">  1        2 0.38337111E+00 0.64938997E+03</pdfrwt>
<totfact> 0.45936127E+00</totfact>
</mgrwt>
</event>
<event>
 5    1  0.2368916E-004  0.6478627E+03  0.7818608E-02  0.9810798E-01
         13   -1    0    0    0    0  0.00000000000E+00  0.00000000000E+00  0.10000000000E+04  0.10000000000E+04  0.00000000000E+00 0. -1.
          2   -1    0    0  501    0 -0.00000000000E+00 -0.00000000000E+00 -0.10493150749E+03  0.10493150749E+03  0.00000000000E+00 0. -1.
    9000006    2    1    2  501    0  0.00000000000E+00  0.00000000000E+00  0.89506849251E+03  0.11049315075E+04  0.64786266288E+03 0.  0.
         13    1    3    3    0    0  0.29275866565E+03 -0.93525056701E+02  0.27296427934E+03  0.41105239367E+03  0.00000000000E+00 0. -1.
          4    1    3    3  501    0 -0.29275866565E+03  0.93525056701E+02  0.62210421317E+03  0.69387911382E+03  0.00000000000E+00 0. -1.
<mgrwt>
<rscale>  0 0.64786266E+03</rscale>
<asrwt>0</asrwt>
<pdfrwt beam="1">0</pdfrwt>
<pdfrwt beam="2">  1        2 0.38156992E+00 0.64786266E+03</pdfrwt>
<totfact> 0.46651383E+00</totfact>
</mgrwt>
</event>
<event>
 5    1  0.2368916E-004  0.6429342E+03  0.7818608E-02  0.9820129E-01
         13   -1    0    0    0    0  0.00000000000E+00  0.00000000000E+00  0.10000000000E+04  0.10000000000E+04  0.00000000000E+00 0. -1.
          2   -1    0    0  501    0 -0.00000000000E+00 -0.00000000000E+00 -0.10334109566E+03  0.10334109566E+03  0.00000000000E+00 0. -1.
    9000006    2    1    2  501    0  0.00000000000E+00  0.00000000000E+00  0.89665890434E+03  0.11033410957E+04  0.64293419776E+03 0.  0.
         13    1    3    3    0    0  0.40106064972E+02 -0.31102684813E+03  0.32704458367E+03  0.45310523768E+03  0.00000000000E+00 0. -1.
          4    1    3    3  501    0 -0.40106064972E+02  0.31102684813E+03  0.56961432066E+03  0.65023585798E+03  0.00000000000E+00 0. -1.
<mgrwt>
<rscale>  0 0.64293420E+03</rscale>
<asrwt>0</asrwt>
<pdfrwt beam="1">0</pdfrwt>
<pdfrwt beam="2">  1        2 0.37578659E+00 0.64293420E+03</pdfrwt>
<totfact> 0.49017005E+00</totfact>
</mgrwt>
</event>
<event>
 5    1  0.2368916E-004  0.6537968E+03  0.7818608E-02  0.9799681E-01
         13   -1    0    0    0    0  0.00000000000E+00  0.00000000000E+00  0.10000000000E+04  0.10000000000E+04  0.00000000000E+00 0. -1.
          2   -1    0    0  501    0 -0.00000000000E+00 -0.00000000000E+00 -0.10686256717E+03  0.10686256717E+03  0.00000000000E+00 0. -1.
    9000006    2    1    2  501    0  0.00000000000E+00  0.00000000000E+00  0.89313743283E+03  0.11068625672E+04  0.65379680994E+03 0.  0.
         13    1    3    3    0    0  0.21130433900E+03 -0.60316934351E+02  0.36830265156E+02  0.22280961533E+03  0.00000000000E+00 0. -1.
          4    1    3    3  501    0 -0.21130433900E+03  0.60316934351E+02  0.85630716767E+03  0.88405295184E+03  0.00000000000E+00 0. -1.
<mgrwt>
<rscale>  0 0.65379681E+03</rscale>
<asrwt>0</asrwt>
<pdfrwt beam="1">0</pdfrwt>
<pdfrwt beam="2">  1        2 0.38859197E+00 0.65379681E+03</pdfrwt>
<totfact> 0.43918751E+00</totfact>
</mgrwt>
</event>
<event>
 5    1  0.2368916E-004  0.5940236E+03  0.7818608E-02  0.9917883E-01
         13   -1    0    0    0    0  0.00000000000E+00  0.00000000000E+00  0.10000000000E+04  0.10000000000E+04  0.00000000000E+00 0. -1.
          2   -1    0    0  501    0 -0.00000000000E+00 -0.00000000000E+00 -0.88215996919E+02  0.88215996919E+02  0.00000000000E+00 0. -1.
    9000006    2    1    2  501    0  0.00000000000E+00  0.00000000000E+00  0.91178400308E+03  0.10882159969E+04  0.59402355818E+03 0.  0.
         13    1    3    3    0    0  0.13753577275E+03 -0.75012958360E+00 -0.26362181318E+02  0.14004147987E+03  0.00000000000E+00 0. -1.
          4    1    3    3  501    0 -0.13753577275E+03  0.75012958360E+00  0.93814618440E+03  0.94817451705E+03  0.00000000000E+00 0. -1.
<mgrwt>
<rscale>  0 0.59402356E+03</rscale>
<asrwt>0</asrwt>
<pdfrwt beam="1">0</pdfrwt>
<pdfrwt beam="2">  1        2 0.32078612E+00 0.59402356E+03</pdfrwt>
<totfact> 0.77764775E+00</totfact>
</mgrwt>
</event>
<event>
 5    1  0.2368916E-004  0.6425914E+03  0.7818608E-02  0.9820781E-01
         13   -1    0    0    0    0  0.00000000000E+00  0.00000000000E+00  0.10000000000E+04  0.10000000000E+04  0.00000000000E+00 0. -1.
          2   -1    0    0  501    0 -0.00000000000E+00 -0.00000000000E+00 -0.10323093686E+03  0.10323093686E+03  0.00000000000E+00 0. -1.
    9000006    2    1    2  501    0  0.00000000000E+00  0.00000000000E+00  0.89676906314E+03  0.11032309369E+04  0.64259143119E+03 0.  0.
         13    1    3    3    0    0 -0.95654019882E+02 -0.21587789388E+03  0.74293221717E+02  0.24753270365E+03  0.00000000000E+00 0. -1.
          4    1    3    3  501    0  0.95654019882E+02  0.21587789388E+03  0.82247584142E+03  0.85569823321E+03  0.00000000000E+00 0. -1.
<mgrwt>
<rscale>  0 0.64259143E+03</rscale>
<asrwt>0</asrwt>
<pdfrwt beam="1">0</pdfrwt>
<pdfrwt beam="2">  1        2 0.37538602E+00 0.64259143E+03</pdfrwt>
<totfact> 0.49184844E+00</totfact>
</mgrwt>
</event>
<event>
 5    1  0.2368916E-004  0.6387772E+03  0.7818608E-02  0.9828069E-01
         13   -1    0    0    0    0  0.00000000000E+00  0.00000000000E+00  0.10000000000E+04  0.10000000000E+04  0.00000000000E+00 0. -1.
          2   -1    0    0  501    0 -0.00000000000E+00 -0.00000000000E+00 -0.10200906269E+03  0.10200906269E+03  0.00000000000E+00 0. -1.
    9000006    2    1    2  501    0  0.00000000000E+00  0.00000000000E+00  0.89799093731E+03  0.11020090627E+04  0.63877715267E+03 0.  0.
         13    1    3    3    0    0 -0.22861578401E+03  0.11891486336E+03  0.77451717295E+03  0.81626146094E+03  0.00000000000E+00 0. -1.
          2    1    3    3  501    0  0.22861578401E+03 -0.11891486336E+03  0.12347376436E+03  0.28574760175E+03  0.00000000000E+00 0. -1.
<mgrwt>
<rscale>  0 0.63877715E+03</rscale>
<asrwt>0</asrwt>
<pdfrwt beam="1">0</pdfrwt>
<pdfrwt beam="2">  1        2 0.37094283E+00 0.63877715E+03</pdfrwt>
<totfact> 0.51082178E+00</totfact>
</mgrwt>
</event>
<event>
 5    1  0.2368916E-004  0.6458592E+03  0.7818608E-02  0.9814580E-01
         13   -1    0    0    0    0  0.00000000000E+00  0.00000000000E+00  0.10000000000E+04  0.10000000000E+04  0.00000000000E+00 0. -1.
          2   -1    0    0  501    0 -0.00000000000E+00 -0.00000000000E+00 -0.10428354151E+03  0.10428354151E+03  0.00000000000E+00 0. -1.
    9000006    2    1    2  501    0  0.00000000000E+00  0.00000000000E+00  0.89571645849E+03  0.11042835415E+04  0.64585924630E+03 0.  0.
         13    1    3    3    0    0 -0.13311741504E+03 -0.27461452812E+03  0.26731417321E+03  0.40569724234E+03  0.00000000000E+00 0. -1.
          2    1    3    3  501    0  0.13311741504E+03  0.27461452812E+03  0.62840228528E+03  0.69858629917E+03  0.00000000000E+00 0. -1.
<mgrwt>
<rscale>  0 0.64585925E+03</rscale>
<asrwt>0</asrwt>
<pdfrwt beam="1">0</pdfrwt>
<pdfrwt beam="2">  1        2 0.37921368E+00 0.64585925E+03</pdfrwt>
<totfact> 0.47602336E+00</totfact>
</mgrwt>
</event>
<event>
 5    1  0.2368916E-004  0.6596406E+03  0.7818608E-02  0.9788856E-01
         13   -1    0    0    0    0  0.00000000000E+00  0.00000000000E+00  0.10000000000E+04  0.10000000000E+04  0.00000000000E+00 0. -1.
          2   -1    0    0  501    0 -0.00000000000E+00 -0.00000000000E+00 -0.10878143786E+03  0.10878143786E+03  0.00000000000E+00 0. -1.
    9000006    2    1    2  501    0  0.00000000000E+00  0.00000000000E+00  0.89121856214E+03  0.11087814379E+04  0.65964062295E+03 0.  0.
         13    1    3    3    0    0  0.68667824632E+02 -0.30680871274E+03  0.61314728707E+03  0.68905475254E+03  0.00000000000E+00 0. -1.
          2    1    3    3  501    0 -0.68667824632E+02  0.30680871274E+03  0.27807127507E+03  0.41972668532E+03  0.00000000000E+00 0. -1.
<mgrwt>
<rscale>  0 0.65964062E+03</rscale>
<asrwt>0</asrwt>
<pdfrwt beam="1">0</pdfrwt>
<pdfrwt beam="2">  1        2 0.39556970E+00 0.65964062E+03</pdfrwt>
<totfact> 0.41347675E+00</totfact>
</mgrwt>
</event>
<event>
 5    1  0.2368916E-004  0.6516513E+03  0.7818608E-02  0.9803686E-01
         13   -1    0    0    0    0  0.00000000000E+00  0.00000000000E+00  0.10000000000E+04  0.10000000000E+04  0.00000000000E+00 0. -1.
          2   -1    0    0  501    0 -0.00000000000E+00 -0.00000000000E+00 -0.10616235029E+03  0.10616235029E+03  0.00000000000E+00 0. -1.
    9000006    2    1    2  501    0  0.00000000000E+00  0.00000000000E+00  0.89383764971E+03  0.11061623503E+04  0.65165128799E+03 0.  0.
         13    1    3    3    0    0  0.27778293540E+03  0.67490504061E+02  0.18152552404E+03  0.33862935965E+03  0.00000000000E+00 0. -1.
          4    1    3    3  501    0 -0.27778293540E+03 -0.67490504061E+02  0.71231212568E+03  0.76753299064E+03  0.00000000000E+00 0. -1.
<mgrwt>
<rscale>  0 0.65165129E+03</rscale>
<asrwt>0</asrwt>
<pdfrwt beam="1">0</pdfrwt>
<pdfrwt beam="2">  1        2 0.38604572E+00 0.65165129E+03</pdfrwt>
<totfact> 0.44892385E+00</totfact>
</mgrwt>
</event>
<event>
 5    1  0.2368916E-004  0.6647930E+03  0.7818608E-02  0.9779410E-01
         13   -1    0    0    0    0  0.00000000000E+00  0.00000000000E+00  0.10000000000E+04  0.10000000000E+04  0.00000000000E+00 0. -1.
          2   -1    0    0  501    0 -0.00000000000E+00 -0.00000000000E+00 -0.11048743938E+03  0.11048743938E+03  0.00000000000E+00 0. -1.
    9000006    2    1    2  501    0  0.00000000000E+00  0.00000000000E+00  0.88951256062E+03  0.11104874394E+04  0.66479301857E+03 0.  0.
         13    1    3    3    0    0  0.67931379107E+02 -0.22415906316E+03  0.50785427651E+02  0.23966876627E+03  0.00000000000E+00 0. -1.
          2    1    3    3  501    0 -0.67931379107E+02  0.22415906316E+03  0.83872713296E+03  0.87081867311E+03  0.00000000000E+00 0. -1.
<mgrwt>
<rscale>  0 0.66479302E+03</rscale>
<asrwt>0</asrwt>
<pdfrwt beam="1">0</pdfrwt>
<pdfrwt beam="2">  1        2 0.40177335E+00 0.66479302E+03</pdfrwt>
<totfact> 0.39176679E+00</totfact>
</mgrwt>
</event>
<event>
 5    1  0.2368916E-004  0.6352819E+03  0.7818608E-02  0.9834796E-01
         13   -1    0    0    0    0  0.00000000000E+00  0.00000000000E+00  0.10000000000E+04  0.10000000000E+04  0.00000000000E+00 0. -1.
          2   -1    0    0  501    0 -0.00000000000E+00 -0.00000000000E+00 -0.10089576092E+03  0.10089576092E+03  0.00000000000E+00 0. -1.
    9000006    2    1    2  501    0  0.00000000000E+00  0.00000000000E+00  0.89910423908E+03  0.11008957609E+04  0.63528186159E+03 0.  0.
         13    1    3    3    0    0 -0.41518253754E+02 -0.30180807030E+03  0.29374410755E+03  0.42319909902E+03  0.00000000000E+00 0. -1.
          2    1    3    3  501    0  0.41518253754E+02  0.30180807030E+03  0.60536013154E+03  0.67769666190E+03  0.00000000000E+00 0. -1.
<mgrwt>
<rscale>  0 0.63528186E+03</rscale>
<asrwt>0</asrwt>
<pdfrwt beam="1">0</pdfrwt>
<pdfrwt beam="2">  1        2 0.36689445E+00 0.63528186E+03</pdfrwt>
<totfact> 0.52869042E+00</totfact>
</mgrwt>
</event>
<event>
 5    1  0.2368916E-004  0.6839882E+03  0.7818608E-02  0.9745013E-01
         13   -1    0    0    0    0  0.00000000000E+00  0.00000000000E+00  0.10000000000E+04  0.10000000000E+04  0.00000000000E+00 0. -1.
          2   -1    0    0  501    0 -0.00000000000E+00 -0.00000000000E+00 -0.11695995151E+03  0.11695995151E+03  0.00000000000E+00 0. -1.
    9000006    2    1    2  501    0  0.00000000000E+00  0.00000000000E+00  0.88304004849E+03  0.11169599515E+04  0.68398816221E+03 0.  0.
         13    1    3    3    0    0 -0.14224887234E+03 -0.38943453282E+01 -0.66317521906E+02  0.15699656467E+03  0.00000000000E+00 0. -1.
          2    1    3    3  501    0  0.14224887234E+03  0.38943453282E+01  0.94935757040E+03  0.95996338684E+03  0.00000000000E+00 0. -1.
<mgrwt>
<rscale>  0 0.68398816E+03</rscale>
<asrwt>0</asrwt>
<pdfrwt beam="1">0</pdfrwt>
<pdfrwt beam="2">  1        2 0.42530981E+00 0.68398816E+03</pdfrwt>
<totfact> 0.31836323E+00</totfact>
</mgrwt>
</event>
<event>
 5    1  0.2368916E-004  0.5976556E+03  0.7818608E-02  0.9910282E-01
         13   -1    0    0    0    0  0.00000000000E+00  0.00000000000E+00  0.10000000000E+04  0.10000000000E+04  0.00000000000E+00 0. -1.
          2   -1    0    0  501    0 -0.00000000000E+00 -0.00000000000E+00 -0.89298057177E+02  0.89298057177E+02  0.00000000000E+00 0. -1.
    9000006    2    1    2  501    0  0.00000000000E+00  0.00000000000E+00  0.91070194282E+03  0.10892980572E+04  0.59765561046E+03 0.  0.
         13    1    3    3    0    0  0.92248939389E+02 -0.20409324113E+03  0.94794228846E+02  0.24320744996E+03  0.00000000000E+00 0. -1.
          2    1    3    3  501    0 -0.92248939389E+02  0.20409324113E+03  0.81590771398E+03  0.84609060722E+03  0.00000000000E+00 0. -1.
<mgrwt>
<rscale>  0 0.59765561E+03</rscale>
<asrwt>0</asrwt>
<pdfrwt beam="1">0</pdfrwt>
<pdfrwt beam="2">  1        2 0.32472089E+00 0.59765561E+03</pdfrwt>
<totfact> 0.75269878E+00</totfact>
</mgrwt>
</event>
<event>
 5    1  0.2368916E-004  0.6410230E+03  0.7818608E-02  0.9823771E-01
         13   -1    0    0    0    0  0.00000000000E+00  0.00000000000E+00  0.10000000000E+04  0.10000000000E+04  0.00000000000E+00 0. -1.
          2   -1    0    0  501    0 -0.00000000000E+00 -0.00000000000E+00 -0.10272762191E+03  0.10272762191E+03  0.00000000000E+00 0. -1.
    9000006    2    1    2  501    0  0.00000000000E+00  0.00000000000E+00  0.89727237809E+03  0.11027276219E+04  0.64102300086E+03 0.  0.
         13    1    3    3    0    0 -0.13498093269E+03 -0.27708011718E+03  0.59992518748E+03  0.67446532461E+03  0.00000000000E+00 0. -1.
          2    1    3    3  501    0  0.13498093269E+03  0.27708011718E+03  0.29734719061E+03  0.42826229730E+03  0.00000000000E+00 0. -1.
<mgrwt>
<rscale>  0 0.64102300E+03</rscale>
<asrwt>0</asrwt>
<pdfrwt beam="1">0</pdfrwt>
<pdfrwt beam="2">  1        2 0.37355578E+00 0.64102300E+03</pdfrwt>
<totfact> 0.49958448E+00</totfact>
</mgrwt>
</event>
<event>
 5    1  0.2368916E-004  0.6354070E+03  0.7818608E-02  0.9834554E-01
         13   -1    0    0    0    0  0.00000000000E+00  0.00000000000E+00  0.10000000000E+04  0.10000000000E+04  0.00000000000E+00 0. -1.
          2   -1    0    0  501    0 -0.00000000000E+00 -0.00000000000E+00 -0.10093549956E+03  0.10093549956E+03  0.00000000000E+00 0. -1.
    9000006    2    1    2  501    0  0.00000000000E+00  0.00000000000E+00  0.89906450044E+03  0.11009354996E+04  0.63540695481E+03 0.  0.
         13    1    3    3    0    0  0.25184050254E+02  0.31079597242E+03  0.34403803974E+03  0.46431728984E+03  0.00000000000E+00 0. -1.
          4    1    3    3  501    0 -0.25184050254E+02 -0.31079597242E+03  0.55502646070E+03  0.63661820971E+03  0.00000000000E+00 0. -1.
<mgrwt>
<rscale>  0 0.63540695E+03</rscale>
<asrwt>0</asrwt>
<pdfrwt beam="1">0</pdfrwt>
<pdfrwt beam="2">  1        2 0.36703895E+00 0.63540695E+03</pdfrwt>
<totfact> 0.52804286E+00</totfact>
</mgrwt>
</event>
<event>
 5    1  0.2368916E-004  0.6557466E+03  0.7818608E-02  0.9796055E-01
         13   -1    0    0    0    0  0.00000000000E+00  0.00000000000E+00  0.10000000000E+04  0.10000000000E+04  0.00000000000E+00 0. -1.
          2   -1    0    0  501    0 -0.00000000000E+00 -0.00000000000E+00 -0.10750090462E+03  0.10750090462E+03  0.00000000000E+00 0. -1.
    9000006    2    1    2  501    0  0.00000000000E+00  0.00000000000E+00  0.89249909538E+03  0.11075009046E+04  0.65574661148E+03 0.  0.
         13    1    3    3    0    0  0.26279266175E+03 -0.72045777273E+01  0.11533830507E+03  0.28707980359E+03  0.00000000000E+00 0. -1.
          2    1    3    3  501    0 -0.26279266175E+03  0.72045777273E+01  0.77716079031E+03  0.82042110103E+03  0.00000000000E+00 0. -1.
<mgrwt>
<rscale>  0 0.65574661E+03</rscale>
<asrwt>0</asrwt>
<pdfrwt beam="1">0</pdfrwt>
<pdfrwt beam="2">  1        2 0.39091320E+00 0.65574661E+03</pdfrwt>
<totfact> 0.43047847E+00</totfact>
</mgrwt>
</event>
<event>
 5    1  0.2368916E-004  0.6503818E+03  0.7818608E-02  0.9806063E-01
         13   -1    0    0    0    0  0.00000000000E+00  0.00000000000E+00  0.10000000000E+04  0.10000000000E+04  0.00000000000E+00 0. -1.
          2   -1    0    0  501    0 -0.00000000000E+00 -0.00000000000E+00 -0.10574913372E+03  0.10574913372E+03  0.00000000000E+00 0. -1.
    9000006    2    1    2  501    0  0.00000000000E+00  0.00000000000E+00  0.89425086628E+03  0.11057491337E+04  0.65038183777E+03 0.  0.
         13    1    3    3    0    0  0.26751709299E+03  0.24362247879E+02  0.75872340641E+03  0.80487273628E+03  0.00000000000E+00 0. -1.
          4    1    3    3  501    0 -0.26751709299E+03 -0.24362247879E+02  0.13552745986E+03  0.30087639745E+03  0.00000000000E+00 0. -1.
<mgrwt>
<rscale>  0 0.65038184E+03</rscale>
<asrwt>0</asrwt>
<pdfrwt beam="1">0</pdfrwt>
<pdfrwt beam="2">  1        2 0.38454312E+00 0.65038184E+03</pdfrwt>
<totfact> 0.45476085E+00</totfact>
</mgrwt>
</event>
<event>
 5    1  0.2368916E-004  0.6529649E+03  0.7818608E-02  0.9801232E-01
         13   -1    0    0    0    0  0.00000000000E+00  0.00000000000E+00  0.10000000000E+04  0.10000000000E+04  0.00000000000E+00 0. -1.
          2   -1    0    0  501    0 -0.00000000000E+00 -0.00000000000E+00 -0.10659078288E+03  0.10659078288E+03  0.00000000000E+00 0. -1.
    9000006    2    1    2  501    0  0.00000000000E+00  0.00000000000E+00  0.89340921712E+03  0.11065907829E+04  0.65296487770E+03 0.  0.
         13    1    3    3    0    0  0.13293484746E+03  0.10685517677E+03  0.91849718742E+03  0.93419847237E+03  0.00000000000E+00 0. -1.
          2    1    3    3  501    0 -0.13293484746E+03 -0.10685517677E+03 -0.25087970297E+02  0.17239231051E+03  0.00000000000E+00 0. -1.
<mgrwt>
<rscale>  0 0.65296488E+03</rscale>
<asrwt>0</asrwt>
<pdfrwt beam="1">0</pdfrwt>
<pdfrwt beam="2">  1        2 0.38760366E+00 0.65296488E+03</pdfrwt>
<totfact> 0.44294367E+00</totfact>
</mgrwt>
</event>
<event>
 5    1  0.2368916E-004  0.6445492E+03  0.7818608E-02  0.9817061E-01
         13   -1    0    0    0    0  0.00000000000E+00  0.00000000000E+00  0.10000000000E+04  0.10000000000E+04  0.00000000000E+00 0. -1.
          2   -1    0    0  501    0 -0.00000000000E+00 -0.00000000000E+00 -0.10386092727E+03  0.10386092727E+03  0.00000000000E+00 0. -1.
    9000006    2    1    2  501    0  0.00000000000E+00  0.00000000000E+00  0.89613907273E+03  0.11038609273E+04  0.64454922936E+03 0.  0.
         13    1    3    3    0    0  0.26753611851E+03 -0.52768276281E+02  0.15391495447E+03  0.31312917287E+03  0.00000000000E+00 0. -1.
          4    1    3    3  501    0 -0.26753611851E+03  0.52768276281E+02  0.74222411826E+03  0.79073175440E+03  0.00000000000E+00 0. -1.
<mgrwt>
<rscale>  0 0.64454923E+03</rscale>
<asrwt>0</asrwt>
<pdfrwt beam="1">0</pdfrwt>
<pdfrwt beam="2">  1        2 0.37767690E+00 0.64454923E+03</pdfrwt>
<totfact> 0.48232036E+00</totfact>
</mgrwt>
</event>
<event>
 5    1  0.2368916E-004  0.6547865E+03  0.7818608E-02  0.9797839E-01
         13   -1    0    0    0    0  0.00000000000E+00  0.00000000000E+00  0.10000000000E+04  0.10000000000E+04  0.00000000000E+00 0. -1.
          2   -1    0    0  501    0 -0.00000000000E+00 -0.00000000000E+00 -0.10718632811E+03  0.10718632811E+03  0.00000000000E+00 0. -1.
    9000006    2    1    2  501    0  0.00000000000E+00  0.00000000000E+00  0.89281367189E+03  0.11071863281E+04  0.65478646323E+03 0.  0.
         13    1    3    3    0    0 -0.28822808315E+03  0.72254155034E+02  0.67880876487E+03  0.74099759116E+03  0.00000000000E+00 0. -1.
          2    1    3    3  501    0  0.28822808315E+03 -0.72254155034E+02  0.21400490703E+03  0.36618873695E+03  0.00000000000E+00 0. -1.
<mgrwt>
<rscale>  0 0.65478646E+03</rscale>
<asrwt>0</asrwt>
<pdfrwt beam="1">0</pdfrwt>
<pdfrwt beam="2">  1        2 0.38976929E+00 0.65478646E+03</pdfrwt>
<totfact> 0.43475063E+00</totfact>
</mgrwt>
</event>
<event>
 5    1  0.2368916E-004  0.6530357E+03  0.7818608E-02  0.9801099E-01
         13   -1    0    0    0    0  0.00000000000E+00  0.00000000000E+00  0.10000000000E+04  0.10000000000E+04  0.00000000000E+00 0. -1.
          2   -1    0    0  501    0 -0.00000000000E+00 -0.00000000000E+00 -0.10661392153E+03  0.10661392153E+03  0.00000000000E+00 0. -1.
    9000006    2    1    2  501    0  0.00000000000E+00  0.00000000000E+00  0.89338607847E+03  0.11066139215E+04  0.65303574643E+03 0.  0.
         13    1    3    3    0    0  0.32523165746E+03 -0.28193314559E+02  0.43552590498E+03  0.54429156516E+03  0.00000000000E+00 0. -1.
          4    1    3    3  501    0 -0.32523165746E+03  0.28193314559E+02  0.45786017350E+03  0.56232235637E+03  0.00000000000E+00 0. -1.
<mgrwt>
<rscale>  0 0.65303575E+03</rscale>
<asrwt>0</asrwt>
<pdfrwt beam="1">0</pdfrwt>
<pdfrwt beam="2">  1        2 0.38768780E+00 0.65303575E+03</pdfrwt>
<totfact> 0.44262276E+00</totfact>
</mgrwt>
</event>
<event>
 5    1  0.2368916E-004  0.6500175E+03  0.7818608E-02  0.9806746E-01
         13   -1    0    0    0    0  0.00000000000E+00  0.00000000000E+00  0.10000000000E+04  0.10000000000E+04  0.00000000000E+00 0. -1.
          2   -1    0    0  501    0 -0.00000000000E+00 -0.00000000000E+00 -0.10563068127E+03  0.10563068127E+03  0.00000000000E+00 0. -1.
    9000006    2    1    2  501    0  0.00000000000E+00  0.00000000000E+00  0.89436931873E+03  0.11056306813E+04  0.65001748059E+03 0.  0.
         13    1    3    3    0    0 -0.12397890992E+03 -0.29399400833E+03  0.34195481836E+03  0.46769257513E+03  0.00000000000E+00 0. -1.
          4    1    3    3  501    0  0.12397890992E+03  0.29399400833E+03  0.55241450037E+03  0.63793810613E+03  0.00000000000E+00 0. -1.
<mgrwt>
<rscale>  0 0.65001748E+03</rscale>
<asrwt>0</asrwt>
<pdfrwt beam="1">0</pdfrwt>
<pdfrwt beam="2">  1        2 0.38411238E+00 0.65001748E+03</pdfrwt>
<totfact> 0.45644672E+00</totfact>
</mgrwt>
</event>
<event>
 5    1  0.2368916E-004  0.6372076E+03  0.7818608E-02  0.9831084E-01
         13   -1    0    0    0    0  0.00000000000E+00  0.00000000000E+00  0.10000000000E+04  0.10000000000E+04  0.00000000000E+00 0. -1.
          2   -1    0    0  501    0 -0.00000000000E+00 -0.00000000000E+00 -0.10150839406E+03  0.10150839406E+03  0.00000000000E+00 0. -1.
    9000006    2    1    2  501    0  0.00000000000E+00  0.00000000000E+00  0.89849160594E+03  0.11015083941E+04  0.63720763981E+03 0.  0.
         13    1    3    3    0    0 -0.18094553935E+03  0.16088392003E+03  0.91271545051E+02  0.25875745182E+03  0.00000000000E+00 0. -1.
          2    1    3    3  501    0  0.18094553935E+03 -0.16088392003E+03  0.80722006089E+03  0.84275094224E+03  0.00000000000E+00 0. -1.
<mgrwt>
<rscale>  0 0.63720764E+03</rscale>
<asrwt>0</asrwt>
<pdfrwt beam="1">0</pdfrwt>
<pdfrwt beam="2">  1        2 0.36912221E+00 0.63720764E+03</pdfrwt>
<totfact> 0.51878788E+00</totfact>
</mgrwt>
</event>
<event>
 5    1  0.2368916E-004  0.6312860E+03  0.7818608E-02  0.9842542E-01
         13   -1    0    0    0    0  0.00000000000E+00  0.00000000000E+00  0.10000000000E+04  0.10000000000E+04  0.00000000000E+00 0. -1.
          2   -1    0    0  501    0 -0.00000000000E+00 -0.00000000000E+00 -0.99630505429E+02  0.99630505429E+02  0.00000000000E+00 0. -1.
    9000006    2    1    2  501    0  0.00000000000E+00  0.00000000000E+00  0.90036949457E+03  0.10996305054E+04  0.63128600627E+03 0.  0.
         13    1    3    3    0    0  0.24171952083E+03 -0.12121718489E+03  0.73378968625E+03  0.78202892293E+03  0.00000000000E+00 0. -1.
          2    1    3    3  501    0 -0.24171952083E+03  0.12121718489E+03  0.16657980832E+03  0.31760158250E+03  0.00000000000E+00 0. -1.
<mgrwt>
<rscale>  0 0.63128601E+03</rscale>
<asrwt>0</asrwt>
<pdfrwt beam="1">0</pdfrwt>
<pdfrwt beam="2">  1        2 0.36229351E+00 0.63128601E+03</pdfrwt>
<totfact> 0.54969415E+00</totfact>
</mgrwt>
</event>
<event>
 5    1  0.2368916E-004  0.6816120E+03  0.7818608E-02  0.9749205E-01
         13   -1    0    0    0    0  0.00000000000E+00  0.00000000000E+00  0.10000000000E+04  0.10000000000E+04  0.00000000000E+00 0. -1.
          2   -1    0    0  501    0 -0.00000000000E+00 -0.00000000000E+00 -0.11614873800E+03  0.11614873800E+03  0.00000000000E+00 0. -1.
    9000006    2    1    2  501    0  0.00000000000E+00  0.00000000000E+00  0.88385126200E+03  0.11161487380E+04  0.68161202453E+03 0.  0.
         13    1    3    3    0    0  0.25424381691E+03  0.20982184952E+03  0.58358341125E+03  0.67024974812E+03  0.00000000000E+00 0. -1.
          4    1    3    3  501    0 -0.25424381691E+03 -0.20982184952E+03  0.30026785076E+03  0.44589898988E+03  0.00000000000E+00 0. -1.
<mgrwt>
<rscale>  0 0.68161202E+03</rscale>
<asrwt>0</asrwt>
<pdfrwt beam="1">0</pdfrwt>
<pdfrwt beam="2">  1        2 0.42235994E+00 0.68161202E+03</pdfrwt>
<totfact> 0.32683599E+00</totfact>
</mgrwt>
</event>
<event>
 5    1  0.2368916E-004  0.6420092E+03  0.7818608E-02  0.9821890E-01
         13   -1    0    0    0    0  0.00000000000E+00  0.00000000000E+00  0.10000000000E+04  0.10000000000E+04  0.00000000000E+00 0. -1.
          2   -1    0    0  501    0 -0.00000000000E+00 -0.00000000000E+00 -0.10304394624E+03  0.10304394624E+03  0.00000000000E+00 0. -1.
    9000006    2    1    2  501    0  0.00000000000E+00  0.00000000000E+00  0.89695605376E+03  0.11030439462E+04  0.64200917824E+03 0.  0.
         13    1    3    3    0    0  0.94211747668E+02 -0.16322297093E+03  0.89494386213E+03  0.91457209010E+03  0.00000000000E+00 0. -1.
          2    1    3    3  501    0 -0.94211747668E+02  0.16322297093E+03  0.20121916369E+01  0.18847185613E+03  0.00000000000E+00 0. -1.
<mgrwt>
<rscale>  0 0.64200918E+03</rscale>
<asrwt>0</asrwt>
<pdfrwt beam="1">0</pdfrwt>
<pdfrwt beam="2">  1        2 0.37470605E+00 0.64200918E+03</pdfrwt>
<totfact> 0.49470965E+00</totfact>
</mgrwt>
</event>
<event>
 5    1  0.2368916E-004  0.6136280E+03  0.7818608E-02  0.9877529E-01
         13   -1    0    0    0    0  0.00000000000E+00  0.00000000000E+00  0.10000000000E+04  0.10000000000E+04  0.00000000000E+00 0. -1.
          2   -1    0    0  501    0 -0.00000000000E+00 -0.00000000000E+00 -0.94134830250E+02  0.94134830250E+02  0.00000000000E+00 0. -1.
    9000006    2    1    2  501    0  0.00000000000E+00  0.00000000000E+00  0.90586516975E+03  0.10941348302E+04  0.61362799887E+03 0.  0.
         13    1    3    3    0    0  0.59256588815E+02 -0.29677572984E+03  0.54293119918E+03  0.62157981320E+03  0.00000000000E+00 0. -1.
          2    1    3    3  501    0 -0.59256588815E+02  0.29677572984E+03  0.36293397057E+03  0.47255501705E+03  0.00000000000E+00 0. -1.
<mgrwt>
<rscale>  0 0.61362800E+03</rscale>
<asrwt>0</asrwt>
<pdfrwt beam="1">0</pdfrwt>
<pdfrwt beam="2">  1        2 0.34230920E+00 0.61362800E+03</pdfrwt>
<totfact> 0.65021340E+00</totfact>
</mgrwt>
</event>
<event>
 5    1  0.2368916E-004  0.6348266E+03  0.7818608E-02  0.9835675E-01
         13   -1    0    0    0    0  0.00000000000E+00  0.00000000000E+00  0.10000000000E+04  0.10000000000E+04  0.00000000000E+00 0. -1.
          2   -1    0    0  501    0 -0.00000000000E+00 -0.00000000000E+00 -0.10075120641E+03  0.10075120641E+03  0.00000000000E+00 0. -1.
    9000006    2    1    2  501    0  0.00000000000E+00  0.00000000000E+00  0.89924879359E+03  0.11007512064E+04  0.63482661069E+03 0.  0.
         13    1    3    3    0    0  0.25375579496E+03 -0.17869789555E+03  0.33426505872E+03  0.45613382996E+03  0.00000000000E+00 0. -1.
          2    1    3    3  501    0 -0.25375579496E+03  0.17869789555E+03  0.56498373487E+03  0.64461737645E+03  0.00000000000E+00 0. -1.
<mgrwt>
<rscale>  0 0.63482661E+03</rscale>
<asrwt>0</asrwt>
<pdfrwt beam="1">0</pdfrwt>
<pdfrwt beam="2">  1        2 0.36636880E+00 0.63482661E+03</pdfrwt>
<totfact> 0.53105215E+00</totfact>
</mgrwt>
</event>
<event>
 5    1  0.2368916E-004  0.5382259E+03  0.7818608E-02  0.1004257E+00
         13   -1    0    0    0    0  0.00000000000E+00  0.00000000000E+00  0.10000000000E+04  0.10000000000E+04  0.00000000000E+00 0. -1.
          2   -1    0    0  501    0 -0.00000000000E+00 -0.00000000000E+00 -0.72421767753E+02  0.72421767753E+02  0.00000000000E+00 0. -1.
    9000006    2    1    2  501    0  0.00000000000E+00  0.00000000000E+00  0.92757823225E+03  0.10724217678E+04  0.53822585502E+03 0.  0.
         13    1    3    3    0    0 -0.24961682990E+03  0.48148758417E+02  0.28787267798E+03  0.38405408920E+03  0.00000000000E+00 0. -1.
          4    1    3    3  501    0  0.24961682990E+03 -0.48148758417E+02  0.63970555427E+03  0.68836767855E+03  0.00000000000E+00 0. -1.
<mgrwt>
<rscale>  0 0.53822586E+03</rscale>
<asrwt>0</asrwt>
<pdfrwt beam="1">0</pdfrwt>
<pdfrwt beam="2">  1        2 0.26335244E+00 0.53822586E+03</pdfrwt>
<totfact> 0.12483670E+01</totfact>
</mgrwt>
</event>
<event>
 5    1  0.2368916E-004  0.6699237E+03  0.7818608E-02  0.9770096E-01
         13   -1    0    0    0    0  0.00000000000E+00  0.00000000000E+00  0.10000000000E+04  0.10000000000E+04  0.00000000000E+00 0. -1.
          2   -1    0    0  501    0 -0.00000000000E+00 -0.00000000000E+00 -0.11219944474E+03  0.11219944474E+03  0.00000000000E+00 0. -1.
    9000006    2    1    2  501    0  0.00000000000E+00  0.00000000000E+00  0.88780055526E+03  0.11121994447E+04  0.66992371128E+03 0.  0.
         13    1    3    3    0    0  0.65585149269E+02 -0.31460536545E+03  0.60071115706E+03  0.68127222312E+03  0.00000000000E+00 0. -1.
          2    1    3    3  501    0 -0.65585149269E+02  0.31460536545E+03  0.28708939820E+03  0.43092722162E+03  0.00000000000E+00 0. -1.
<mgrwt>
<rscale>  0 0.66992371E+03</rscale>
<asrwt>0</asrwt>
<pdfrwt beam="1">0</pdfrwt>
<pdfrwt beam="2">  1        2 0.40799884E+00 0.66992371E+03</pdfrwt>
<totfact> 0.37101374E+00</totfact>
</mgrwt>
</event>
<event>
 5    1  0.2368916E-004  0.5403944E+03  0.7818608E-02  0.1003742E+00
         13   -1    0    0    0    0  0.00000000000E+00  0.00000000000E+00  0.10000000000E+04  0.10000000000E+04  0.00000000000E+00 0. -1.
          2   -1    0    0  501    0 -0.00000000000E+00 -0.00000000000E+00 -0.73006521845E+02  0.73006521845E+02  0.00000000000E+00 0. -1.
    9000006    2    1    2  501    0  0.00000000000E+00  0.00000000000E+00  0.92699347816E+03  0.10730065218E+04  0.54039438133E+03 0.  0.
         13    1    3    3    0    0  0.13301261593E+03  0.14217360471E+03  0.83550299384E+03  0.85788748830E+03  0.00000000000E+00 0. -1.
          4    1    3    3  501    0 -0.13301261593E+03 -0.14217360471E+03  0.91490484320E+02  0.21511903355E+03  0.00000000000E+00 0. -1.
<mgrwt>
<rscale>  0 0.54039438E+03</rscale>
<asrwt>0</asrwt>
<pdfrwt beam="1">0</pdfrwt>
<pdfrwt beam="2">  1        2 0.26547882E+00 0.54039438E+03</pdfrwt>
<totfact> 0.12266756E+01</totfact>
</mgrwt>
</event>
<event>
 5    1  0.2368916E-004  0.6734907E+03  0.7818608E-02  0.9763672E-01
         13   -1    0    0    0    0  0.00000000000E+00  0.00000000000E+00  0.10000000000E+04  0.10000000000E+04  0.00000000000E+00 0. -1.
          4   -1    0    0  501    0 -0.00000000000E+00 -0.00000000000E+00 -0.11339742202E+03  0.11339742202E+03  0.00000000000E+00 0. -1.
    9000006    2    1    2  501    0  0.00000000000E+00  0.00000000000E+00  0.88660257798E+03  0.11133974220E+04  0.67349067408E+03 0.  0.
         13    1    3    3    0    0 -0.21350479080E+03 -0.25916176579E+03  0.48539415243E+03  0.59021741736E+03  0.00000000000E+00 0. -1.
          2    1    3    3  501    0  0.21350479080E+03  0.25916176579E+03  0.40120842555E+03  0.52318000466E+03  0.00000000000E+00 0. -1.
<mgrwt>
<rscale>  0 0.67349067E+03</rscale>
<asrwt>0</asrwt>
<pdfrwt beam="1">0</pdfrwt>
<pdfrwt beam="2">  1        4 0.41235513E+00 0.67349067E+03</pdfrwt>
<totfact> 0.26268432E-02</totfact>
</mgrwt>
</event>
<event>
 5    1  0.2368916E-004  0.6469050E+03  0.7818608E-02  0.9812604E-01
         13   -1    0    0    0    0  0.00000000000E+00  0.00000000000E+00  0.10000000000E+04  0.10000000000E+04  0.00000000000E+00 0. -1.
          2   -1    0    0  501    0 -0.00000000000E+00 -0.00000000000E+00 -0.10462151631E+03  0.10462151631E+03  0.00000000000E+00 0. -1.
    9000006    2    1    2  501    0  0.00000000000E+00  0.00000000000E+00  0.89537848369E+03  0.11046215163E+04  0.64690498936E+03 0.  0.
         13    1    3    3    0    0 -0.28736664614E+02  0.29552476121E+03  0.22861115445E+03  0.37473155768E+03  0.00000000000E+00 0. -1.
          4    1    3    3  501    0  0.28736664614E+02 -0.29552476121E+03  0.66676732923E+03  0.72988995863E+03  0.00000000000E+00 0. -1.
<mgrwt>
<rscale>  0 0.64690499E+03</rscale>
<asrwt>0</asrwt>
<pdfrwt beam="1">0</pdfrwt>
<pdfrwt beam="2">  1        2 0.38044268E+00 0.64690499E+03</pdfrwt>
<totfact> 0.47104147E+00</totfact>
</mgrwt>
</event>
<event>
 5    1  0.2368916E-004  0.6495377E+03  0.7818608E-02  0.9807647E-01
         13   -1    0    0    0    0  0.00000000000E+00  0.00000000000E+00  0.10000000000E+04  0.10000000000E+04  0.00000000000E+00 0. -1.
          2   -1    0    0  501    0 -0.00000000000E+00 -0.00000000000E+00 -0.10547480974E+03  0.10547480974E+03  0.00000000000E+00 0. -1.
    9000006    2    1    2  501    0  0.00000000000E+00  0.00000000000E+00  0.89452519026E+03  0.11054748097E+04  0.64953771172E+03 0.  0.
         13    1    3    3    0    0 -0.12642919445E+03 -0.25241843422E+03  0.17402075049E+03  0.33163628985E+03  0.00000000000E+00 0. -1.
          4    1    3    3  501    0  0.12642919445E+03  0.25241843422E+03  0.72050443977E+03  0.77383851989E+03  0.00000000000E+00 0. -1.
<mgrwt>
<rscale>  0 0.64953771E+03</rscale>
<asrwt>0</asrwt>
<pdfrwt beam="1">0</pdfrwt>
<pdfrwt beam="2">  1        2 0.38354557E+00 0.64953771E+03</pdfrwt>
<totfact> 0.45867381E+00</totfact>
</mgrwt>
</event>
<event>
 5    1  0.2368916E-004  0.6444349E+03  0.7818608E-02  0.9817278E-01
         13   -1    0    0    0    0  0.00000000000E+00  0.00000000000E+00  0.10000000000E+04  0.10000000000E+04  0.00000000000E+00 0. -1.
          2   -1    0    0  501    0 -0.00000000000E+00 -0.00000000000E+00 -0.10382408201E+03  0.10382408201E+03  0.00000000000E+00 0. -1.
    9000006    2    1    2  501    0  0.00000000000E+00  0.00000000000E+00  0.89617591799E+03  0.11038240820E+04  0.64443489047E+03 0.  0.
         13    1    3    3    0    0 -0.11963044623E+03 -0.27831800034E+03  0.63612590499E+03  0.70457683752E+03  0.00000000000E+00 0. -1.
          2    1    3    3  501    0  0.11963044623E+03  0.27831800034E+03  0.26005001300E+03  0.39924724449E+03  0.00000000000E+00 0. -1.
<mgrwt>
<rscale>  0 0.64443489E+03</rscale>
<asrwt>0</asrwt>
<pdfrwt beam="1">0</pdfrwt>
<pdfrwt beam="2">  1        2 0.37754291E+00 0.64443489E+03</pdfrwt>
<totfact> 0.48287294E+00</totfact>
</mgrwt>
</event>
<event>
 5    1  0.2368916E-004  0.6394478E+03  0.7818608E-02  0.9826784E-01
         13   -1    0    0    0    0  0.00000000000E+00  0.00000000000E+00  0.10000000000E+04  0.10000000000E+04  0.00000000000E+00 0. -1.
          2   -1    0    0  501    0 -0.00000000000E+00 -0.00000000000E+00 -0.10222337267E+03  0.10222337267E+03  0.00000000000E+00 0. -1.
    9000006    2    1    2  501    0  0.00000000000E+00  0.00000000000E+00  0.89777662733E+03  0.11022233727E+04  0.63944780139E+03 0.  0.
         13    1    3    3    0    0  0.61702040803E+02  0.31320613289E+03  0.41814293079E+03  0.52606913432E+03  0.00000000000E+00 0. -1.
          2    1    3    3  501    0 -0.61702040803E+02 -0.31320613289E+03  0.47963369654E+03  0.57615423835E+03  0.00000000000E+00 0. -1.
<mgrwt>
<rscale>  0 0.63944780E+03</rscale>
<asrwt>0</asrwt>
<pdfrwt beam="1">0</pdfrwt>
<pdfrwt beam="2">  1        2 0.37172214E+00 0.63944780E+03</pdfrwt>
<totfact> 0.50744629E+00</totfact>
</mgrwt>
</event>
<event>
 5    1  0.2368916E-004  0.6513828E+03  0.7818608E-02  0.9804188E-01
         13   -1    0    0    0    0  0.00000000000E+00  0.00000000000E+00  0.10000000000E+04  0.10000000000E+04  0.00000000000E+00 0. -1.
          2   -1    0    0  501    0 -0.00000000000E+00 -0.00000000000E+00 -0.10607487880E+03  0.10607487880E+03  0.00000000000E+00 0. -1.
    9000006    2    1    2  501    0  0.00000000000E+00  0.00000000000E+00  0.89392512120E+03  0.11060748788E+04  0.65138277166E+03 0.  0.
         13    1    3    3    0    0 -0.24622123677E+03  0.75720775327E+01  0.80873960446E+03  0.84542414303E+03  0.00000000000E+00 0. -1.
          4    1    3    3  501    0  0.24622123677E+03 -0.75720775327E+01  0.85185516734E+02  0.26065073577E+03  0.00000000000E+00 0. -1.
<mgrwt>
<rscale>  0 0.65138277E+03</rscale>
<asrwt>0</asrwt>
<pdfrwt beam="1">0</pdfrwt>
<pdfrwt beam="2">  1        2 0.38572765E+00 0.65138277E+03</pdfrwt>
<totfact> 0.45015375E+00</totfact>
</mgrwt>
</event>
<event>
 5    1  0.2368916E-004  0.6311192E+03  0.7818608E-02  0.9842867E-01
         13   -1    0    0    0    0  0.00000000000E+00  0.00000000000E+00  0.10000000000E+04  0.10000000000E+04  0.00000000000E+00 0. -1.
          2   -1    0    0  501    0 -0.00000000000E+00 -0.00000000000E+00 -0.99577858877E+02  0.99577858877E+02  0.00000000000E+00 0. -1.
    9000006    2    1    2  501    0  0.00000000000E+00  0.00000000000E+00  0.90042214112E+03  0.10995778589E+04  0.63111919279E+03 0.  0.
         13    1    3    3    0    0 -0.12692457849E+03  0.27219304285E+03  0.61894090745E+03  0.68795839127E+03  0.00000000000E+00 0. -1.
          2    1    3    3  501    0  0.12692457849E+03 -0.27219304285E+03  0.28148123367E+03  0.41161946760E+03  0.00000000000E+00 0. -1.
<mgrwt>
<rscale>  0 0.63111919E+03</rscale>
<asrwt>0</asrwt>
<pdfrwt beam="1">0</pdfrwt>
<pdfrwt beam="2">  1        2 0.36210207E+00 0.63111919E+03</pdfrwt>
<totfact> 0.55058453E+00</totfact>
</mgrwt>
</event>
<event>
 5    1  0.2368916E-004  0.6581468E+03  0.7818608E-02  0.9791611E-01
         13   -1    0    0    0    0  0.00000000000E+00  0.00000000000E+00  0.10000000000E+04  0.10000000000E+04  0.00000000000E+00 0. -1.
          2   -1    0    0  501    0 -0.00000000000E+00 -0.00000000000E+00 -0.10828931184E+03  0.10828931184E+03  0.00000000000E+00 0. -1.
    9000006    2    1    2  501    0  0.00000000000E+00  0.00000000000E+00  0.89171068816E+03  0.11082893118E+04  0.65814682812E+03 0.  0.
         13    1    3    3    0    0 -0.90385710841E+02 -0.17114640980E+03 -0.23064277866E+01  0.19356133374E+03  0.00000000000E+00 0. -1.
          2    1    3    3  501    0  0.90385710841E+02  0.17114640980E+03  0.89401711595E+03  0.91472797810E+03  0.00000000000E+00 0. -1.
<mgrwt>
<rscale>  0 0.65814683E+03</rscale>
<asrwt>0</asrwt>
<pdfrwt beam="1">0</pdfrwt>
<pdfrwt beam="2">  1        2 0.39378015E+00 0.65814683E+03</pdfrwt>
<totfact> 0.41993741E+00</totfact>
</mgrwt>
</event>
<event>
 5    1  0.2368916E-004  0.6547890E+03  0.7818608E-02  0.9797834E-01
         13   -1    0    0    0    0  0.00000000000E+00  0.00000000000E+00  0.10000000000E+04  0.10000000000E+04  0.00000000000E+00 0. -1.
          2   -1    0    0  501    0 -0.00000000000E+00 -0.00000000000E+00 -0.10718716608E+03  0.10718716608E+03  0.00000000000E+00 0. -1.
    9000006    2    1    2  501    0  0.00000000000E+00  0.00000000000E+00  0.89281283392E+03  0.11071871661E+04  0.65478902276E+03 0.  0.
         13    1    3    3    0    0 -0.29619786919E+02  0.10802588401E+03  0.96659111854E+03  0.97305976890E+03  0.00000000000E+00 0. -1.
          2    1    3    3  501    0  0.29619786919E+02 -0.10802588401E+03 -0.73778284625E+02  0.13412739718E+03  0.00000000000E+00 0. -1.
<mgrwt>
<rscale>  0 0.65478902E+03</rscale>
<asrwt>0</asrwt>
<pdfrwt beam="1">0</pdfrwt>
<pdfrwt beam="2">  1        2 0.38977233E+00 0.65478902E+03</pdfrwt>
<totfact> 0.43473920E+00</totfact>
</mgrwt>
</event>
<event>
 5    1  0.2368916E-004  0.6604426E+03  0.7818608E-02  0.9787379E-01
         13   -1    0    0    0    0  0.00000000000E+00  0.00000000000E+00  0.10000000000E+04  0.10000000000E+04  0.00000000000E+00 0. -1.
          2   -1    0    0  501    0 -0.00000000000E+00 -0.00000000000E+00 -0.10904611685E+03  0.10904611685E+03  0.00000000000E+00 0. -1.
    9000006    2    1    2  501    0  0.00000000000E+00  0.00000000000E+00  0.89095388315E+03  0.11090461168E+04  0.66044262990E+03 0.  0.
         13    1    3    3    0    0  0.84336388819E+02  0.31126613444E+03  0.32618086373E+03  0.45868637302E+03  0.00000000000E+00 0. -1.
          2    1    3    3  501    0 -0.84336388819E+02 -0.31126613444E+03  0.56477301942E+03  0.65035974383E+03  0.00000000000E+00 0. -1.
<mgrwt>
<rscale>  0 0.66044263E+03</rscale>
<asrwt>0</asrwt>
<pdfrwt beam="1">0</pdfrwt>
<pdfrwt beam="2">  1        2 0.39653217E+00 0.66044263E+03</pdfrwt>
<totfact> 0.41003920E+00</totfact>
</mgrwt>
</event>
<event>
 5    1  0.2368916E-004  0.5960284E+03  0.7818608E-02  0.9913680E-01
         13   -1    0    0    0    0  0.00000000000E+00  0.00000000000E+00  0.10000000000E+04  0.10000000000E+04  0.00000000000E+00 0. -1.
          2   -1    0    0  501    0 -0.00000000000E+00 -0.00000000000E+00 -0.88812471357E+02  0.88812471357E+02  0.00000000000E+00 0. -1.
    9000006    2    1    2  501    0  0.00000000000E+00  0.00000000000E+00  0.91118752864E+03  0.10888124714E+04  0.59602842669E+03 0.  0.
         13    1    3    3    0    0 -0.14095193384E+03 -0.16336123017E+00  0.93525816988E+03  0.94581991873E+03  0.00000000000E+00 0. -1.
          2    1    3    3  501    0  0.14095193384E+03  0.16336123017E+00 -0.24070641233E+02  0.14299255263E+03  0.00000000000E+00 0. -1.
<mgrwt>
<rscale>  0 0.59602843E+03</rscale>
<asrwt>0</asrwt>
<pdfrwt beam="1">0</pdfrwt>
<pdfrwt beam="2">  1        2 0.32295512E+00 0.59602843E+03</pdfrwt>
<totfact> 0.76379586E+00</totfact>
</mgrwt>
</event>
<event>
 5    1  0.2368916E-004  0.6501778E+03  0.7818608E-02  0.9806446E-01
         13   -1    0    0    0    0  0.00000000000E+00  0.00000000000E+00  0.10000000000E+04  0.10000000000E+04  0.00000000000E+00 0. -1.
          2   -1    0    0  501    0 -0.00000000000E+00 -0.00000000000E+00 -0.10568279384E+03  0.10568279384E+03  0.00000000000E+00 0. -1.
    9000006    2    1    2  501    0  0.00000000000E+00  0.00000000000E+00  0.89431720616E+03  0.11056827938E+04  0.65017780289E+03 0.  0.
         13    1    3    3    0    0 -0.32021540730E+03  0.15115002589E+02  0.35532033082E+03  0.47855919996E+03  0.00000000000E+00 0. -1.
          2    1    3    3  501    0  0.32021540730E+03 -0.15115002589E+02  0.53899687534E+03  0.62712359388E+03  0.00000000000E+00 0. -1.
<mgrwt>
<rscale>  0 0.65017780E+03</rscale>
<asrwt>0</asrwt>
<pdfrwt beam="1">0</pdfrwt>
<pdfrwt beam="2">  1        2 0.38430188E+00 0.65017780E+03</pdfrwt>
<totfact> 0.45570433E+00</totfact>
</mgrwt>
</event>
<event>
 5    1  0.2368916E-004  0.6259070E+03  0.7818608E-02  0.9853069E-01
         13   -1    0    0    0    0  0.00000000000E+00  0.00000000000E+00  0.10000000000E+04  0.10000000000E+04  0.00000000000E+00 0. -1.
          2   -1    0    0  501    0 -0.00000000000E+00 -0.00000000000E+00 -0.97939901987E+02  0.97939901987E+02  0.00000000000E+00 0. -1.
    9000006    2    1    2  501    0  0.00000000000E+00  0.00000000000E+00  0.90206009801E+03  0.10979399020E+04  0.62590702820E+03 0.  0.
         13    1    3    3    0    0  0.23597536823E+03 -0.17994833641E+03  0.27672176616E+03  0.40575942879E+03  0.00000000000E+00 0. -1.
          2    1    3    3  501    0 -0.23597536823E+03  0.17994833641E+03  0.62533833186E+03  0.69218047320E+03  0.00000000000E+00 0. -1.
<mgrwt>
<rscale>  0 0.62590703E+03</rscale>
<asrwt>0</asrwt>
<pdfrwt beam="1">0</pdfrwt>
<pdfrwt beam="2">  1        2 0.35614585E+00 0.62590703E+03</pdfrwt>
<totfact> 0.57896147E+00</totfact>
</mgrwt>
</event>
<event>
 5    1  0.2368916E-004  0.6504745E+03  0.7818608E-02  0.9805889E-01
         13   -1    0    0    0    0  0.00000000000E+00  0.00000000000E+00  0.10000000000E+04  0.10000000000E+04  0.00000000000E+00 0. -1.
          2   -1    0    0  501    0 -0.00000000000E+00 -0.00000000000E+00 -0.10577925800E+03  0.10577925800E+03  0.00000000000E+00 0. -1.
    9000006    2    1    2  501    0  0.00000000000E+00  0.00000000000E+00  0.89422074200E+03  0.11057792580E+04  0.65047446683E+03 0.  0.
         13    1    3    3    0    0 -0.31156961135E+03 -0.76236350917E+02  0.53852408517E+03  0.62681400289E+03  0.00000000000E+00 0. -1.
          2    1    3    3  501    0  0.31156961135E+03  0.76236350917E+02  0.35569665684E+03  0.47896525511E+03  0.00000000000E+00 0. -1.
<mgrwt>
<rscale>  0 0.65047447E+03</rscale>
<asrwt>0</asrwt>
<pdfrwt beam="1">0</pdfrwt>
<pdfrwt beam="2">  1        2 0.38465266E+00 0.65047447E+03</pdfrwt>
<totfact> 0.45433301E+00</totfact>
</mgrwt>
</event>
<event>
 5    1  0.2368916E-004  0.6495006E+03  0.7818608E-02  0.9807717E-01
         13   -1    0    0    0    0  0.00000000000E+00  0.00000000000E+00  0.10000000000E+04  0.10000000000E+04  0.00000000000E+00 0. -1.
          2   -1    0    0  501    0 -0.00000000000E+00 -0.00000000000E+00 -0.10546276291E+03  0.10546276291E+03  0.00000000000E+00 0. -1.
    9000006    2    1    2  501    0  0.00000000000E+00  0.00000000000E+00  0.89453723709E+03  0.11054627629E+04  0.64950061711E+03 0.  0.
         13    1    3    3    0    0  0.19822014008E+03  0.24796622456E+03  0.33077920525E+03  0.45846848865E+03  0.00000000000E+00 0. -1.
          4    1    3    3  501    0 -0.19822014008E+03 -0.24796622456E+03  0.56375803184E+03  0.64699427426E+03  0.00000000000E+00 0. -1.
<mgrwt>
<rscale>  0 0.64950062E+03</rscale>
<asrwt>0</asrwt>
<pdfrwt beam="1">0</pdfrwt>
<pdfrwt beam="2">  1        2 0.38350176E+00 0.64950062E+03</pdfrwt>
<totfact> 0.45884634E+00</totfact>
</mgrwt>
</event>
<event>
 5    1  0.2368916E-004  0.6543867E+03  0.7818608E-02  0.9798583E-01
         13   -1    0    0    0    0  0.00000000000E+00  0.00000000000E+00  0.10000000000E+04  0.10000000000E+04  0.00000000000E+00 0. -1.
          2   -1    0    0  501    0 -0.00000000000E+00 -0.00000000000E+00 -0.10705547857E+03  0.10705547857E+03  0.00000000000E+00 0. -1.
    9000006    2    1    2  501    0  0.00000000000E+00  0.00000000000E+00  0.89294452143E+03  0.11070554786E+04  0.65438667032E+03 0.  0.
         13    1    3    3    0    0 -0.21349283293E+03  0.14520119786E+03  0.10646556958E+03  0.27928031631E+03  0.00000000000E+00 0. -1.
          2    1    3    3  501    0  0.21349283293E+03 -0.14520119786E+03  0.78647895184E+03  0.82777516227E+03  0.00000000000E+00 0. -1.
<mgrwt>
<rscale>  0 0.65438667E+03</rscale>
<asrwt>0</asrwt>
<pdfrwt beam="1">0</pdfrwt>
<pdfrwt beam="2">  1        2 0.38929347E+00 0.65438667E+03</pdfrwt>
<totfact> 0.43653891E+00</totfact>
</mgrwt>
</event>
<event>
 5    1  0.2368916E-004  0.6508377E+03  0.7818608E-02  0.9805209E-01
         13   -1    0    0    0    0  0.00000000000E+00  0.00000000000E+00  0.10000000000E+04  0.10000000000E+04  0.00000000000E+00 0. -1.
          2   -1    0    0  501    0 -0.00000000000E+00 -0.00000000000E+00 -0.10589742480E+03  0.10589742480E+03  0.00000000000E+00 0. -1.
    9000006    2    1    2  501    0  0.00000000000E+00  0.00000000000E+00  0.89410257520E+03  0.11058974248E+04  0.65083769035E+03 0.  0.
         13    1    3    3    0    0 -0.23894835586E+03 -0.19865369447E+03  0.28285442782E+03  0.42019785153E+03  0.00000000000E+00 0. -1.
          4    1    3    3  501    0  0.23894835586E+03  0.19865369447E+03  0.61124814738E+03  0.68569957326E+03  0.00000000000E+00 0. -1.
<mgrwt>
<rscale>  0 0.65083769E+03</rscale>
<asrwt>0</asrwt>
<pdfrwt beam="1">0</pdfrwt>
<pdfrwt beam="2">  1        2 0.38508236E+00 0.65083769E+03</pdfrwt>
<totfact> 0.45265826E+00</totfact>
</mgrwt>
</event>
<event>
 5    1  0.2368916E-004  0.6532153E+03  0.7818608E-02  0.9800764E-01
         13   -1    0    0    0    0  0.00000000000E+00  0.00000000000E+00  0.10000000000E+04  0.10000000000E+04  0.00000000000E+00 0. -1.
          2   -1    0    0  501    0 -0.00000000000E+00 -0.00000000000E+00 -0.10667256861E+03  0.10667256861E+03  0.00000000000E+00 0. -1.
    9000006    2    1    2  501    0  0.00000000000E+00  0.00000000000E+00  0.89332743139E+03  0.11066725686E+04  0.65321533543E+03 0.  0.
         13    1    3    3    0    0 -0.14131080803E+03  0.94591773468E+02 -0.25758535174E+02  0.17198793623E+03  0.00000000000E+00 0. -1.
          2    1    3    3  501    0  0.14131080803E+03 -0.94591773468E+02  0.91908596656E+03  0.93468463238E+03  0.00000000000E+00 0. -1.
<mgrwt>
<rscale>  0 0.65321534E+03</rscale>
<asrwt>0</asrwt>
<pdfrwt beam="1">0</pdfrwt>
<pdfrwt beam="2">  1        2 0.38790107E+00 0.65321534E+03</pdfrwt>
<totfact> 0.44181031E+00</totfact>
</mgrwt>
</event>
<event>
 5    1  0.2368916E-004  0.6491343E+03  0.7818608E-02  0.9808405E-01
         13   -1    0    0    0    0  0.00000000000E+00  0.00000000000E+00  0.10000000000E+04  0.10000000000E+04  0.00000000000E+00 0. -1.
          2   -1    0    0  501    0 -0.00000000000E+00 -0.00000000000E+00 -0.10534381881E+03  0.10534381881E+03  0.00000000000E+00 0. -1.
    9000006    2    1    2  501    0  0.00000000000E+00  0.00000000000E+00  0.89465618119E+03  0.11053438188E+04  0.64913425054E+03 0.  0.
         13    1    3    3    0    0  0.13010945927E+03  0.22703246265E+02 -0.57515768203E+02  0.14405544896E+03  0.00000000000E+00 0. -1.
          2    1    3    3  501    0 -0.13010945927E+03 -0.22703246265E+02  0.95217194940E+03  0.96128836985E+03  0.00000000000E+00 0. -1.
<mgrwt>
<rscale>  0 0.64913425E+03</rscale>
<asrwt>0</asrwt>
<pdfrwt beam="1">0</pdfrwt>
<pdfrwt beam="2">  1        2 0.38306924E+00 0.64913425E+03</pdfrwt>
<totfact> 0.46055302E+00</totfact>
</mgrwt>
</event>
<event>
 5    1  0.2368916E-004  0.6555793E+03  0.7818608E-02  0.9796366E-01
         13   -1    0    0    0    0  0.00000000000E+00  0.00000000000E+00  0.10000000000E+04  0.10000000000E+04  0.00000000000E+00 0. -1.
          2   -1    0    0  501    0 -0.00000000000E+00 -0.00000000000E+00 -0.10744606993E+03  0.10744606993E+03  0.00000000000E+00 0. -1.
    9000006    2    1    2  501    0  0.00000000000E+00  0.00000000000E+00  0.89255393007E+03  0.11074460699E+04  0.65557934662E+03 0.  0.
         13    1    3    3    0    0  0.26760878118E+03  0.27545418443E+02  0.12991598334E+03  0.29874968212E+03  0.00000000000E+00 0. -1.
          2    1    3    3  501    0 -0.26760878118E+03 -0.27545418443E+02  0.76263794674E+03  0.80869638780E+03  0.00000000000E+00 0. -1.
<mgrwt>
<rscale>  0 0.65557935E+03</rscale>
<asrwt>0</asrwt>
<pdfrwt beam="1">0</pdfrwt>
<pdfrwt beam="2">  1        2 0.39071381E+00 0.65557935E+03</pdfrwt>
<totfact> 0.43122042E+00</totfact>
</mgrwt>
</event>
<event>
 5    1  0.2368916E-004  0.6449109E+03  0.7818608E-02  0.9816376E-01
         13   -1    0    0    0    0  0.00000000000E+00  0.00000000000E+00  0.10000000000E+04  0.10000000000E+04  0.00000000000E+00 0. -1.
          2   -1    0    0  501    0 -0.00000000000E+00 -0.00000000000E+00 -0.10397751790E+03  0.10397751790E+03  0.00000000000E+00 0. -1.
    9000006    2    1    2  501    0  0.00000000000E+00  0.00000000000E+00  0.89602248210E+03  0.11039775179E+04  0.64491090206E+03 0.  0.
         13    1    3    3    0    0  0.29338343797E+03  0.12487561914E+03  0.53028163176E+03  0.61876196628E+03  0.00000000000E+00 0. -1.
          2    1    3    3  501    0 -0.29338343797E+03 -0.12487561914E+03  0.36574085034E+03  0.48521555162E+03  0.00000000000E+00 0. -1.
<mgrwt>
<rscale>  0 0.64491090E+03</rscale>
<asrwt>0</asrwt>
<pdfrwt beam="1">0</pdfrwt>
<pdfrwt beam="2">  1        2 0.37810086E+00 0.64491090E+03</pdfrwt>
<totfact> 0.48057561E+00</totfact>
</mgrwt>
</event>
<event>
 5    1  0.2368916E-004  0.6387825E+03  0.7818608E-02  0.9828059E-01
         13   -1    0    0    0    0  0.00000000000E+00  0.00000000000E+00  0.10000000000E+04  0.10000000000E+04  0.00000000000E+00 0. -1.
          2   -1    0    0  501    0 -0.00000000000E+00 -0.00000000000E+00 -0.10201075501E+03  0.10201075501E+03  0.00000000000E+00 0. -1.
    9000006    2    1    2  501    0  0.00000000000E+00  0.00000000000E+00  0.89798924499E+03  0.11020107550E+04  0.63878245126E+03 0.  0.
         13    1    3    3    0    0 -0.30061254220E+02 -0.10863347465E+02 -0.99244507003E+02  0.10426487181E+03  0.00000000000E+00 0. -1.
          4    1    3    3  501    0  0.30061254220E+02  0.10863347465E+02  0.99723375199E+03  0.99774588320E+03  0.00000000000E+00 0. -1.
<mgrwt>
<rscale>  0 0.63878245E+03</rscale>
<asrwt>0</asrwt>
<pdfrwt beam="1">0</pdfrwt>
<pdfrwt beam="2">  1        2 0.37094898E+00 0.63878245E+03</pdfrwt>
<totfact> 0.51079504E+00</totfact>
</mgrwt>
</event>
<event>
 5    1  0.2368916E-004  0.6361473E+03  0.7818608E-02  0.9833126E-01
         13   -1    0    0    0    0  0.00000000000E+00  0.00000000000E+00  0.10000000000E+04  0.10000000000E+04  0.00000000000E+00 0. -1.
          2   -1    0    0  501    0 -0.00000000000E+00 -0.00000000000E+00 -0.10117083223E+03  0.10117083223E+03  0.00000000000E+00 0. -1.
    9000006    2    1    2  501    0  0.00000000000E+00  0.00000000000E+00  0.89882916777E+03  0.11011708322E+04  0.63614725412E+03 0.  0.
         13    1    3    3    0    0  0.26289003232E+03  0.48047617265E+02  0.15084299422E+03  0.30687676928E+03  0.00000000000E+00 0. -1.
          2    1    3    3  501    0 -0.26289003232E+03 -0.48047617265E+02  0.74798617354E+03  0.79429406295E+03  0.00000000000E+00 0. -1.
<mgrwt>
<rscale>  0 0.63614725E+03</rscale>
<asrwt>0</asrwt>
<pdfrwt beam="1">0</pdfrwt>
<pdfrwt beam="2">  1        2 0.36789471E+00 0.63614725E+03</pdfrwt>
<totfact> 0.52422293E+00</totfact>
</mgrwt>
</event>
<event>
 5    1  0.2368916E-004  0.6451028E+03  0.7818608E-02  0.9816012E-01
         13   -1    0    0    0    0  0.00000000000E+00  0.00000000000E+00  0.10000000000E+04  0.10000000000E+04  0.00000000000E+00 0. -1.
          2   -1    0    0  501    0 -0.00000000000E+00 -0.00000000000E+00 -0.10403939619E+03  0.10403939619E+03  0.00000000000E+00 0. -1.
    9000006    2    1    2  501    0  0.00000000000E+00  0.00000000000E+00  0.89596060381E+03  0.11040393962E+04  0.64510277068E+03 0.  0.
         13    1    3    3    0    0 -0.10421440540E+03 -0.27840163469E+03  0.23373665615E+03  0.37815464683E+03  0.00000000000E+00 0. -1.
          2    1    3    3  501    0  0.10421440540E+03  0.27840163469E+03  0.66222394766E+03  0.72588474936E+03  0.00000000000E+00 0. -1.
<mgrwt>
<rscale>  0 0.64510277E+03</rscale>
<asrwt>0</asrwt>
<pdfrwt beam="1">0</pdfrwt>
<pdfrwt beam="2">  1        2 0.37832587E+00 0.64510277E+03</pdfrwt>
<totfact> 0.47965195E+00</totfact>
</mgrwt>
</event>
<event>
 5    1  0.2368916E-004  0.6443710E+03  0.7818608E-02  0.9817399E-01
         13   -1    0    0    0    0  0.00000000000E+00  0.00000000000E+00  0.10000000000E+04  0.10000000000E+04  0.00000000000E+00 0. -1.
          2   -1    0    0  501    0 -0.00000000000E+00 -0.00000000000E+00 -0.10380350863E+03  0.10380350863E+03  0.00000000000E+00 0. -1.
    9000006    2    1    2  501    0  0.00000000000E+00  0.00000000000E+00  0.89619649137E+03  0.11038035086E+04  0.64437103794E+03 0.  0.
         13    1    3    3    0    0  0.24693180091E+03 -0.91332826996E+02  0.12998600907E+03  0.29362112005E+03  0.00000000000E+00 0. -1.
          2    1    3    3  501    0 -0.24693180091E+03  0.91332826996E+02  0.76621048229E+03  0.81018238858E+03  0.00000000000E+00 0. -1.
<mgrwt>
<rscale>  0 0.64437104E+03</rscale>
<asrwt>0</asrwt>
<pdfrwt beam="1">0</pdfrwt>
<pdfrwt beam="2">  1        2 0.37746810E+00 0.64437104E+03</pdfrwt>
<totfact> 0.48318174E+00</totfact>
</mgrwt>
</event>
<event>
 5    1  0.2368916E-004  0.6230849E+03  0.7818608E-02  0.9858637E-01
         13   -1    0    0    0    0  0.00000000000E+00  0.00000000000E+00  0.10000000000E+04  0.10000000000E+04  0.00000000000E+00 0. -1.
          2   -1    0    0  501    0 -0.00000000000E+00 -0.00000000000E+00 -0.97058684564E+02  0.97058684564E+02  0.00000000000E+00 0. -1.
    9000006    2    1    2  501    0  0.00000000000E+00  0.00000000000E+00  0.90294131544E+03  0.10970586846E+04  0.62308485639E+03 0.  0.
         13    1    3    3    0    0  0.77523420526E+02  0.21723471848E+03  0.82742345407E+02  0.24504509660E+03  0.00000000000E+00 0. -1.
          4    1    3    3  501    0 -0.77523420526E+02 -0.21723471848E+03  0.82019897003E+03  0.85201358797E+03  0.00000000000E+00 0. -1.
<mgrwt>
<rscale>  0 0.62308486E+03</rscale>
<asrwt>0</asrwt>
<pdfrwt beam="1">0</pdfrwt>
<pdfrwt beam="2">  1        2 0.35294142E+00 0.62308486E+03</pdfrwt>
<totfact> 0.59478395E+00</totfact>
</mgrwt>
</event>
<event>
 5    1  0.2368916E-004  0.5947986E+03  0.7818608E-02  0.9916257E-01
         13   -1    0    0    0    0  0.00000000000E+00  0.00000000000E+00  0.10000000000E+04  0.10000000000E+04  0.00000000000E+00 0. -1.
          2   -1    0    0  501    0 -0.00000000000E+00 -0.00000000000E+00 -0.88446331946E+02  0.88446331946E+02  0.00000000000E+00 0. -1.
    9000006    2    1    2  501    0  0.00000000000E+00  0.00000000000E+00  0.91155366805E+03  0.10884463319E+04  0.59479856068E+03 0.  0.
         13    1    3    3    0    0 -0.27773392160E+03  0.43694421595E+02  0.27834804135E+03  0.39562983433E+03  0.00000000000E+00 0. -1.
          2    1    3    3  501    0  0.27773392160E+03 -0.43694421595E+02  0.63320562670E+03  0.69281649762E+03  0.00000000000E+00 0. -1.
<mgrwt>
<rscale>  0 0.59479856E+03</rscale>
<asrwt>0</asrwt>
<pdfrwt beam="1">0</pdfrwt>
<pdfrwt beam="2">  1        2 0.32162370E+00 0.59479856E+03</pdfrwt>
<totfact> 0.77227047E+00</totfact>
</mgrwt>
</event>
<event>
 5    1  0.2368916E-004  0.6188522E+03  0.7818608E-02  0.9867048E-01
         13   -1    0    0    0    0  0.00000000000E+00  0.00000000000E+00  0.10000000000E+04  0.10000000000E+04  0.00000000000E+00 0. -1.
          2   -1    0    0  501    0 -0.00000000000E+00 -0.00000000000E+00 -0.95744503181E+02  0.95744503181E+02  0.00000000000E+00 0. -1.
    9000006    2    1    2  501    0  0.00000000000E+00  0.00000000000E+00  0.90425549682E+03  0.10957445032E+04  0.61885217356E+03 0.  0.
         13    1    3    3    0    0 -0.26047644858E+03  0.14802044106E+03  0.58912373865E+03  0.66092723554E+03  0.00000000000E+00 0. -1.
          2    1    3    3  501    0  0.26047644858E+03 -0.14802044106E+03  0.31513175817E+03  0.43481726765E+03  0.00000000000E+00 0. -1.
<mgrwt>
<rscale>  0 0.61885217E+03</rscale>
<asrwt>0</asrwt>
<pdfrwt beam="1">0</pdfrwt>
<pdfrwt beam="2">  1        2 0.34816256E+00 0.61885217E+03</pdfrwt>
<totfact> 0.61912845E+00</totfact>
</mgrwt>
</event>
<event>
 5    1  0.2368916E-004  0.6454276E+03  0.7818608E-02  0.9815397E-01
         13   -1    0    0    0    0  0.00000000000E+00  0.00000000000E+00  0.10000000000E+04  0.10000000000E+04  0.00000000000E+00 0. -1.
          2   -1    0    0  501    0 -0.00000000000E+00 -0.00000000000E+00 -0.10414420390E+03  0.10414420390E+03  0.00000000000E+00 0. -1.
    9000006    2    1    2  501    0  0.00000000000E+00  0.00000000000E+00  0.89585579610E+03  0.11041442039E+04  0.64542762226E+03 0.  0.
         13    1    3    3    0    0 -0.13723208468E+03 -0.17336196937E+03  0.85006360102E+03  0.87834796252E+03  0.00000000000E+00 0. -1.
          2    1    3    3  501    0  0.13723208468E+03  0.17336196937E+03  0.45792195081E+02  0.22579624137E+03  0.00000000000E+00 0. -1.
<mgrwt>
<rscale>  0 0.64542762E+03</rscale>
<asrwt>0</asrwt>
<pdfrwt beam="1">0</pdfrwt>
<pdfrwt beam="2">  1        2 0.37870699E+00 0.64542762E+03</pdfrwt>
<totfact> 0.47809118E+00</totfact>
</mgrwt>
</event>
<event>
 5    1  0.2368916E-004  0.6566818E+03  0.7818608E-02  0.9794321E-01
         13   -1    0    0    0    0  0.00000000000E+00  0.00000000000E+00  0.10000000000E+04  0.10000000000E+04  0.00000000000E+00 0. -1.
          2   -1    0    0  501    0 -0.00000000000E+00 -0.00000000000E+00 -0.10780774876E+03  0.10780774876E+03  0.00000000000E+00 0. -1.
    9000006    2    1    2  501    0  0.00000000000E+00  0.00000000000E+00  0.89219225124E+03  0.11078077488E+04  0.65668180654E+03 0.  0.
         13    1    3    3    0    0 -0.66140046812E+02 -0.20081071010E+03  0.86988803446E+03  0.89521206402E+03  0.00000000000E+00 0. -1.
          4    1    3    3  501    0  0.66140046812E+02  0.20081071010E+03  0.22304216783E+02  0.21259568474E+03  0.00000000000E+00 0. -1.
<mgrwt>
<rscale>  0 0.65668181E+03</rscale>
<asrwt>0</asrwt>
<pdfrwt beam="1">0</pdfrwt>
<pdfrwt beam="2">  1        2 0.39202900E+00 0.65668181E+03</pdfrwt>
<totfact> 0.42634788E+00</totfact>
</mgrwt>
</event>
<event>
 5    1  0.2368916E-004  0.6363266E+03  0.7818608E-02  0.9832780E-01
         13   -1    0    0    0    0  0.00000000000E+00  0.00000000000E+00  0.10000000000E+04  0.10000000000E+04  0.00000000000E+00 0. -1.
          2   -1    0    0  501    0 -0.00000000000E+00 -0.00000000000E+00 -0.10122788478E+03  0.10122788478E+03  0.00000000000E+00 0. -1.
    9000006    2    1    2  501    0  0.00000000000E+00  0.00000000000E+00  0.89877211522E+03  0.11012278848E+04  0.63632659785E+03 0.  0.
         13    1    3    3    0    0 -0.25071296013E+03 -0.10024709832E+03  0.15814365687E+03  0.31291514074E+03  0.00000000000E+00 0. -1.
          4    1    3    3  501    0  0.25071296013E+03  0.10024709832E+03  0.74062845835E+03  0.78831274404E+03  0.00000000000E+00 0. -1.
<mgrwt>
<rscale>  0 0.63632660E+03</rscale>
<asrwt>0</asrwt>
<pdfrwt beam="1">0</pdfrwt>
<pdfrwt beam="2">  1        2 0.36810218E+00 0.63632660E+03</pdfrwt>
<totfact> 0.52330068E+00</totfact>
</mgrwt>
</event>
<event>
 5    1  0.2368916E-004  0.6398818E+03  0.7818608E-02  0.9825953E-01
         13   -1    0    0    0    0  0.00000000000E+00  0.00000000000E+00  0.10000000000E+04  0.10000000000E+04  0.00000000000E+00 0. -1.
          2   -1    0    0  501    0 -0.00000000000E+00 -0.00000000000E+00 -0.10236216715E+03  0.10236216715E+03  0.00000000000E+00 0. -1.
    9000006    2    1    2  501    0  0.00000000000E+00  0.00000000000E+00  0.89763783285E+03  0.11023621671E+04  0.63988176142E+03 0.  0.
         13    1    3    3    0    0  0.27754101679E+03  0.78843485539E+02  0.21062382809E+03  0.35722221120E+03  0.00000000000E+00 0. -1.
          2    1    3    3  501    0 -0.27754101679E+03 -0.78843485539E+02  0.68701400477E+03  0.74513995595E+03  0.00000000000E+00 0. -1.
<mgrwt>
<rscale>  0 0.63988176E+03</rscale>
<asrwt>0</asrwt>
<pdfrwt beam="1">0</pdfrwt>
<pdfrwt beam="2">  1        2 0.37222685E+00 0.63988176E+03</pdfrwt>
<totfact> 0.50527111E+00</totfact>
</mgrwt>
</event>
<event>
 5    1  0.2368916E-004  0.6490068E+03  0.7818608E-02  0.9808645E-01
         13   -1    0    0    0    0  0.00000000000E+00  0.00000000000E+00  0.10000000000E+04  0.10000000000E+04  0.00000000000E+00 0. -1.
          2   -1    0    0  501    0 -0.00000000000E+00 -0.00000000000E+00 -0.10530245496E+03  0.10530245496E+03  0.00000000000E+00 0. -1.
    9000006    2    1    2  501    0  0.00000000000E+00  0.00000000000E+00  0.89469754504E+03  0.11053024550E+04  0.64900679491E+03 0.  0.
         13    1    3    3    0    0  0.59757809012E+02  0.26979368779E+03  0.15761284456E+03  0.31812173531E+03  0.00000000000E+00 0. -1.
          4    1    3    3  501    0 -0.59757809012E+02 -0.26979368779E+03  0.73708470048E+03  0.78718071965E+03  0.00000000000E+00 0. -1.
<mgrwt>
<rscale>  0 0.64900679E+03</rscale>
<asrwt>0</asrwt>
<pdfrwt beam="1">0</pdfrwt>
<pdfrwt beam="2">  1        2 0.38291883E+00 0.64900679E+03</pdfrwt>
<totfact> 0.46114788E+00</totfact>
</mgrwt>
</event>
<event>
 5    1  0.2368916E-004  0.6327829E+03  0.7818608E-02  0.9839633E-01
         13   -1    0    0    0    0  0.00000000000E+00  0.00000000000E+00  0.10000000000E+04  0.10000000000E+04  0.00000000000E+00 0. -1.
          2   -1    0    0  501    0 -0.00000000000E+00 -0.00000000000E+00 -0.10010354564E+03  0.10010354564E+03  0.00000000000E+00 0. -1.
    9000006    2    1    2  501    0  0.00000000000E+00  0.00000000000E+00  0.89989645436E+03  0.11001035456E+04  0.63278288736E+03 0.  0.
         13    1    3    3    0    0  0.15724832001E+03 -0.16208638796E+03  0.83519547832E+03  0.86518814041E+03  0.00000000000E+00 0. -1.
          4    1    3    3  501    0 -0.15724832001E+03  0.16208638796E+03  0.64700976048E+02  0.23491540522E+03  0.00000000000E+00 0. -1.
<mgrwt>
<rscale>  0 0.63278289E+03</rscale>
<asrwt>0</asrwt>
<pdfrwt beam="1">0</pdfrwt>
<pdfrwt beam="2">  1        2 0.36401366E+00 0.63278289E+03</pdfrwt>
<totfact> 0.54175322E+00</totfact>
</mgrwt>
</event>
<event>
 5    1  0.2368916E-004  0.6061510E+03  0.7818608E-02  0.9892726E-01
         13   -1    0    0    0    0  0.00000000000E+00  0.00000000000E+00  0.10000000000E+04  0.10000000000E+04  0.00000000000E+00 0. -1.
          2   -1    0    0  501    0 -0.00000000000E+00 -0.00000000000E+00 -0.91854752194E+02  0.91854752194E+02  0.00000000000E+00 0. -1.
    9000006    2    1    2  501    0  0.00000000000E+00  0.00000000000E+00  0.90814524781E+03  0.10918547522E+04  0.60615097853E+03 0.  0.
         13    1    3    3    0    0 -0.17042409036E+03  0.41825335207E+02  0.89639106367E+01  0.17571021864E+03  0.00000000000E+00 0. -1.
          4    1    3    3  501    0  0.17042409036E+03 -0.41825335207E+02  0.89918133717E+03  0.91614453355E+03  0.00000000000E+00 0. -1.
<mgrwt>
<rscale>  0 0.60615098E+03</rscale>
<asrwt>0</asrwt>
<pdfrwt beam="1">0</pdfrwt>
<pdfrwt beam="2">  1        2 0.33401799E+00 0.60615098E+03</pdfrwt>
<totfact> 0.69676120E+00</totfact>
</mgrwt>
</event>
<event>
 5    1  0.2368916E-004  0.6632273E+03  0.7818608E-02  0.9782271E-01
         13   -1    0    0    0    0  0.00000000000E+00  0.00000000000E+00  0.10000000000E+04  0.10000000000E+04  0.00000000000E+00 0. -1.
          2   -1    0    0  501    0 -0.00000000000E+00 -0.00000000000E+00 -0.10996760824E+03  0.10996760824E+03  0.00000000000E+00 0. -1.
    9000006    2    1    2  501    0  0.00000000000E+00  0.00000000000E+00  0.89003239176E+03  0.11099676082E+04  0.66322728604E+03 0.  0.
         13    1    3    3    0    0  0.15406748095E+03  0.13702685529E+03  0.10352612242E+02  0.20644690440E+03  0.00000000000E+00 0. -1.
          4    1    3    3  501    0 -0.15406748095E+03 -0.13702685529E+03  0.87967977952E+03  0.90352070383E+03  0.00000000000E+00 0. -1.
<mgrwt>
<rscale>  0 0.66322729E+03</rscale>
<asrwt>0</asrwt>
<pdfrwt beam="1">0</pdfrwt>
<pdfrwt beam="2">  1        2 0.39988306E+00 0.66322729E+03</pdfrwt>
<totfact> 0.39827085E+00</totfact>
</mgrwt>
</event>
<event>
 5    1  0.2368916E-004  0.6442979E+03  0.7818608E-02  0.9817538E-01
         13   -1    0    0    0    0  0.00000000000E+00  0.00000000000E+00  0.10000000000E+04  0.10000000000E+04  0.00000000000E+00 0. -1.
          2   -1    0    0  501    0 -0.00000000000E+00 -0.00000000000E+00 -0.10377995422E+03  0.10377995422E+03  0.00000000000E+00 0. -1.
    9000006    2    1    2  501    0  0.00000000000E+00  0.00000000000E+00  0.89622004578E+03  0.11037799542E+04  0.64429792555E+03 0.  0.
         13    1    3    3    0    0  0.26198678022E+03 -0.15766801913E+03  0.27438195801E+03  0.41083054432E+03  0.00000000000E+00 0. -1.
          4    1    3    3  501    0 -0.26198678022E+03  0.15766801913E+03  0.62183808777E+03  0.69294940989E+03  0.00000000000E+00 0. -1.
<mgrwt>
<rscale>  0 0.64429793E+03</rscale>
<asrwt>0</asrwt>
<pdfrwt beam="1">0</pdfrwt>
<pdfrwt beam="2">  1        2 0.37738245E+00 0.64429793E+03</pdfrwt>
<totfact> 0.48353550E+00</totfact>
</mgrwt>
</event>
<event>
 5    1  0.2368916E-004  0.6490473E+03  0.7818608E-02  0.9808568E-01
         13   -1    0    0    0    0  0.00000000000E+00  0.00000000000E+00  0.10000000000E+04  0.10000000000E+04  0.00000000000E+00 0. -1.
          2   -1    0    0  501    0 -0.00000000000E+00 -0.00000000000E+00 -0.10531560191E+03  0.10531560191E+03  0.00000000000E+00 0. -1.
    9000006    2    1    2  501    0  0.00000000000E+00  0.00000000000E+00  0.89468439809E+03  0.11053156019E+04  0.64904730769E+03 0.  0.
         13    1    3    3    0    0  0.48843820508E+01  0.32180647826E+03  0.37646183800E+03  0.49528454661E+03  0.00000000000E+00 0. -1.
          2    1    3    3  501    0 -0.48843820508E+01 -0.32180647826E+03  0.51822256010E+03  0.61003105530E+03  0.00000000000E+00 0. -1.
<mgrwt>
<rscale>  0 0.64904731E+03</rscale>
<asrwt>0</asrwt>
<pdfrwt beam="1">0</pdfrwt>
<pdfrwt beam="2">  1        2 0.38296663E+00 0.64904731E+03</pdfrwt>
<totfact> 0.46095874E+00</totfact>
</mgrwt>
</event>
<event>
 5    1  0.2368916E-004  0.5767494E+03  0.7818608E-02  0.9954853E-01
         13   -1    0    0    0    0  0.00000000000E+00  0.00000000000E+00  0.10000000000E+04  0.10000000000E+04  0.00000000000E+00 0. -1.
          2   -1    0    0  501    0 -0.00000000000E+00 -0.00000000000E+00 -0.83159958386E+02  0.83159958386E+02  0.00000000000E+00 0. -1.
    9000006    2    1    2  501    0  0.00000000000E+00  0.00000000000E+00  0.91684004161E+03  0.10831599584E+04  0.57674936805E+03 0.  0.
         13    1    3    3    0    0 -0.70818555323E+02  0.27949096294E+03  0.46861906223E+03  0.55021295117E+03  0.00000000000E+00 0. -1.
          2    1    3    3  501    0  0.70818555323E+02 -0.27949096294E+03  0.44822097938E+03  0.53294700722E+03  0.00000000000E+00 0. -1.
<mgrwt>
<rscale>  0 0.57674937E+03</rscale>
<asrwt>0</asrwt>
<pdfrwt beam="1">0</pdfrwt>
<pdfrwt beam="2">  1        2 0.30240049E+00 0.57674937E+03</pdfrwt>
<totfact> 0.90519342E+00</totfact>
</mgrwt>
</event>
<event>
 5    1  0.2368916E-004  0.6285138E+03  0.7818608E-02  0.9847953E-01
         13   -1    0    0    0    0  0.00000000000E+00  0.00000000000E+00  0.10000000000E+04  0.10000000000E+04  0.00000000000E+00 0. -1.
          2   -1    0    0  501    0 -0.00000000000E+00 -0.00000000000E+00 -0.98757390885E+02  0.98757390885E+02  0.00000000000E+00 0. -1.
    9000006    2    1    2  501    0  0.00000000000E+00  0.00000000000E+00  0.90124260911E+03  0.10987573909E+04  0.62851377355E+03 0.  0.
         13    1    3    3    0    0 -0.21968629888E+03  0.22341119041E+03  0.40841938181E+03  0.51476307303E+03  0.00000000000E+00 0. -1.
          2    1    3    3  501    0  0.21968629888E+03 -0.22341119041E+03  0.49282322731E+03  0.58399431786E+03  0.00000000000E+00 0. -1.
<mgrwt>
<rscale>  0 0.62851377E+03</rscale>
<asrwt>0</asrwt>
<pdfrwt beam="1">0</pdfrwt>
<pdfrwt beam="2">  1        2 0.35911854E+00 0.62851377E+03</pdfrwt>
<totfact> 0.56463378E+00</totfact>
</mgrwt>
</event>
<event>
 5    1  0.2368916E-004  0.6469253E+03  0.7818608E-02  0.9812566E-01
         13   -1    0    0    0    0  0.00000000000E+00  0.00000000000E+00  0.10000000000E+04  0.10000000000E+04  0.00000000000E+00 0. -1.
          2   -1    0    0  501    0 -0.00000000000E+00 -0.00000000000E+00 -0.10462806984E+03  0.10462806984E+03  0.00000000000E+00 0. -1.
    9000006    2    1    2  501    0  0.00000000000E+00  0.00000000000E+00  0.89537193016E+03  0.11046280698E+04  0.64692525020E+03 0.  0.
         13    1    3    3    0    0 -0.22385783251E+03  0.42556823173E+02  0.83968632885E+03  0.87005548284E+03  0.00000000000E+00 0. -1.
          2    1    3    3  501    0  0.22385783251E+03 -0.42556823173E+02  0.55685601318E+02  0.23457258699E+03  0.00000000000E+00 0. -1.
<mgrwt>
<rscale>  0 0.64692525E+03</rscale>
<asrwt>0</asrwt>
<pdfrwt beam="1">0</pdfrwt>
<pdfrwt beam="2">  1        2 0.38046651E+00 0.64692525E+03</pdfrwt>
<totfact> 0.47094534E+00</totfact>
</mgrwt>
</event>
<event>
 5    1  0.2368916E-004  0.6420660E+03  0.7818608E-02  0.9821782E-01
         13   -1    0    0    0    0  0.00000000000E+00  0.00000000000E+00  0.10000000000E+04  0.10000000000E+04  0.00000000000E+00 0. -1.
          2   -1    0    0  501    0 -0.00000000000E+00 -0.00000000000E+00 -0.10306218209E+03  0.10306218209E+03  0.00000000000E+00 0. -1.
    9000006    2    1    2  501    0  0.00000000000E+00  0.00000000000E+00  0.89693781791E+03  0.11030621821E+04  0.64206598444E+03 0.  0.
         13    1    3    3    0    0 -0.85427988520E+02  0.16085461324E+03 -0.57110426104E+01  0.18222174357E+03  0.00000000000E+00 0. -1.
          4    1    3    3  501    0  0.85427988520E+02 -0.16085461324E+03  0.90264886052E+03  0.92084043852E+03  0.00000000000E+00 0. -1.
<mgrwt>
<rscale>  0 0.64206598E+03</rscale>
<asrwt>0</asrwt>
<pdfrwt beam="1">0</pdfrwt>
<pdfrwt beam="2">  1        2 0.37477236E+00 0.64206598E+03</pdfrwt>
<totfact> 0.49442995E+00</totfact>
</mgrwt>
</event>
<event>
 5    1  0.2368916E-004  0.6462834E+03  0.7818608E-02  0.9813778E-01
         13   -1    0    0    0    0  0.00000000000E+00  0.00000000000E+00  0.10000000000E+04  0.10000000000E+04  0.00000000000E+00 0. -1.
          2   -1    0    0  501    0 -0.00000000000E+00 -0.00000000000E+00 -0.10442054937E+03  0.10442054937E+03  0.00000000000E+00 0. -1.
    9000006    2    1    2  501    0  0.00000000000E+00  0.00000000000E+00  0.89557945063E+03  0.11044205494E+04  0.64628337244E+03 0.  0.
         13    1    3    3    0    0  0.26613393247E+03  0.14691622742E+03  0.26052191295E+03  0.40035398714E+03  0.00000000000E+00 0. -1.
          4    1    3    3  501    0 -0.26613393247E+03 -0.14691622742E+03  0.63505753768E+03  0.70406656224E+03  0.00000000000E+00 0. -1.
<mgrwt>
<rscale>  0 0.64628337E+03</rscale>
<asrwt>0</asrwt>
<pdfrwt beam="1">0</pdfrwt>
<pdfrwt beam="2">  1        2 0.37971189E+00 0.64628337E+03</pdfrwt>
<totfact> 0.47399805E+00</totfact>
</mgrwt>
</event>
<event>
 5    1  0.2368916E-004  0.6593785E+03  0.7818608E-02  0.9789338E-01
         13   -1    0    0    0    0  0.00000000000E+00  0.00000000000E+00  0.10000000000E+04  0.10000000000E+04  0.00000000000E+00 0. -1.
          2   -1    0    0  501    0 -0.00000000000E+00 -0.00000000000E+00 -0.10869500792E+03  0.10869500792E+03  0.00000000000E+00 0. -1.
    9000006    2    1    2  501    0  0.00000000000E+00  0.00000000000E+00  0.89130499208E+03  0.11086950079E+04  0.65937851928E+03 0.  0.
         13    1    3    3    0    0  0.45147970103E+02 -0.12041103111E+03  0.95609105004E+03  0.96470060204E+03  0.00000000000E+00 0. -1.
          2    1    3    3  501    0 -0.45147970103E+02  0.12041103111E+03 -0.64786057964E+02  0.14399440588E+03  0.00000000000E+00 0. -1.
<mgrwt>
<rscale>  0 0.65937852E+03</rscale>
<asrwt>0</asrwt>
<pdfrwt beam="1">0</pdfrwt>
<pdfrwt beam="2">  1        2 0.39525541E+00 0.65937852E+03</pdfrwt>
<totfact> 0.41460488E+00</totfact>
</mgrwt>
</event>
<event>
 5    1  0.2368916E-004  0.6482545E+03  0.7818608E-02  0.9810060E-01
         13   -1    0    0    0    0  0.00000000000E+00  0.00000000000E+00  0.10000000000E+04  0.10000000000E+04  0.00000000000E+00 0. -1.
          2   -1    0    0  501    0 -0.00000000000E+00 -0.00000000000E+00 -0.10505849011E+03  0.10505849011E+03  0.00000000000E+00 0. -1.
    9000006    2    1    2  501    0  0.00000000000E+00  0.00000000000E+00  0.89494150989E+03  0.11050584901E+04  0.64825454912E+03 0.  0.
         13    1    3    3    0    0 -0.24336635260E+03 -0.82377323978E+02  0.11063049702E+03  0.27973614703E+03  0.00000000000E+00 0. -1.
          2    1    3    3  501    0  0.24336635260E+03  0.82377323978E+02  0.78431101287E+03  0.82532234308E+03  0.00000000000E+00 0. -1.
<mgrwt>
<rscale>  0 0.64825455E+03</rscale>
<asrwt>0</asrwt>
<pdfrwt beam="1">0</pdfrwt>
<pdfrwt beam="2">  1        2 0.38203168E+00 0.64825455E+03</pdfrwt>
<totfact> 0.46467061E+00</totfact>
</mgrwt>
</event>
<event>
 5    1  0.2368916E-004  0.6485668E+03  0.7818608E-02  0.9809472E-01
         13   -1    0    0    0    0  0.00000000000E+00  0.00000000000E+00  0.10000000000E+04  0.10000000000E+04  0.00000000000E+00 0. -1.
          2   -1    0    0  501    0 -0.00000000000E+00 -0.00000000000E+00 -0.10515971310E+03  0.10515971310E+03  0.00000000000E+00 0. -1.
    9000006    2    1    2  501    0  0.00000000000E+00  0.00000000000E+00  0.89484028690E+03  0.11051597131E+04  0.64856676788E+03 0.  0.
         13    1    3    3    0    0 -0.20195228942E+03  0.23946993137E+03  0.59028367576E+03  0.66825548490E+03  0.00000000000E+00 0. -1.
          2    1    3    3  501    0  0.20195228942E+03 -0.23946993137E+03  0.30455661114E+03  0.43690422820E+03  0.00000000000E+00 0. -1.
<mgrwt>
<rscale>  0 0.64856677E+03</rscale>
<asrwt>0</asrwt>
<pdfrwt beam="1">0</pdfrwt>
<pdfrwt beam="2">  1        2 0.38239976E+00 0.64856677E+03</pdfrwt>
<totfact> 0.46320604E+00</totfact>
</mgrwt>
</event>
<event>
 5    1  0.2368916E-004  0.6579215E+03  0.7818608E-02  0.9792027E-01
         13   -1    0    0    0    0  0.00000000000E+00  0.00000000000E+00  0.10000000000E+04  0.10000000000E+04  0.00000000000E+00 0. -1.
          2   -1    0    0  501    0 -0.00000000000E+00 -0.00000000000E+00 -0.10821518675E+03  0.10821518675E+03  0.00000000000E+00 0. -1.
    9000006    2    1    2  501    0  0.00000000000E+00  0.00000000000E+00  0.89178481325E+03  0.11082151867E+04  0.65792153559E+03 0.  0.
         13    1    3    3    0    0 -0.11117409921E+03 -0.13225876179E+03 -0.25633840190E+02  0.17466869831E+03  0.00000000000E+00 0. -1.
          2    1    3    3  501    0  0.11117409921E+03  0.13225876179E+03  0.91741865344E+03  0.93354648844E+03  0.00000000000E+00 0. -1.
<mgrwt>
<rscale>  0 0.65792154E+03</rscale>
<asrwt>0</asrwt>
<pdfrwt beam="1">0</pdfrwt>
<pdfrwt beam="2">  1        2 0.39351060E+00 0.65792154E+03</pdfrwt>
<totfact> 0.42091845E+00</totfact>
</mgrwt>
</event>
<event>
 5    1  0.2368916E-004  0.6472322E+03  0.7818608E-02  0.9811987E-01
         13   -1    0    0    0    0  0.00000000000E+00  0.00000000000E+00  0.10000000000E+04  0.10000000000E+04  0.00000000000E+00 0. -1.
          2   -1    0    0  501    0 -0.00000000000E+00 -0.00000000000E+00 -0.10472738698E+03  0.10472738698E+03  0.00000000000E+00 0. -1.
    9000006    2    1    2  501    0  0.00000000000E+00  0.00000000000E+00  0.89527261302E+03  0.11047273870E+04  0.64723222102E+03 0.  0.
         13    1    3    3    0    0  0.12201164431E+03 -0.13563130208E+03 -0.85896453563E+01  0.18263754669E+03  0.00000000000E+00 0. -1.
          4    1    3    3  501    0 -0.12201164431E+03  0.13563130208E+03  0.90386225837E+03  0.92208984029E+03  0.00000000000E+00 0. -1.
<mgrwt>
<rscale>  0 0.64723222E+03</rscale>
<asrwt>0</asrwt>
<pdfrwt beam="1">0</pdfrwt>
<pdfrwt beam="2">  1        2 0.38082766E+00 0.64723222E+03</pdfrwt>
<totfact> 0.46949068E+00</totfact>
</mgrwt>
</event>
<event>
 5    1  0.2368916E-004  0.6515665E+03  0.7818608E-02  0.9803844E-01
         13   -1    0    0    0    0  0.00000000000E+00  0.00000000000E+00  0.10000000000E+04  0.10000000000E+04  0.00000000000E+00 0. -1.
          2   -1    0    0  501    0 -0.00000000000E+00 -0.00000000000E+00 -0.10613472298E+03  0.10613472298E+03  0.00000000000E+00 0. -1.
    9000006    2    1    2  501    0  0.00000000000E+00  0.00000000000E+00  0.89386527702E+03  0.11061347230E+04  0.65156649078E+03 0.  0.
         13    1    3    3    0    0  0.30922395555E+03  0.72366402492E+02  0.32359396163E+03  0.45339762118E+03  0.00000000000E+00 0. -1.
          2    1    3    3  501    0 -0.30922395555E+03 -0.72366402492E+02  0.57027131540E+03  0.65273710179E+03  0.00000000000E+00 0. -1.
<mgrwt>
<rscale>  0 0.65156649E+03</rscale>
<asrwt>0</asrwt>
<pdfrwt beam="1">0</pdfrwt>
<pdfrwt beam="2">  1        2 0.38594526E+00 0.65156649E+03</pdfrwt>
<totfact> 0.44931198E+00</totfact>
</mgrwt>
</event>
<event>
 5    1  0.2368916E-004  0.6386468E+03  0.7818608E-02  0.9828319E-01
         13   -1    0    0    0    0  0.00000000000E+00  0.00000000000E+00  0.10000000000E+04  0.10000000000E+04  0.00000000000E+00 0. -1.
          2   -1    0    0  501    0 -0.00000000000E+00 -0.00000000000E+00 -0.10196743076E+03  0.10196743076E+03  0.00000000000E+00 0. -1.
    9000006    2    1    2  501    0  0.00000000000E+00  0.00000000000E+00  0.89803256924E+03  0.11019674308E+04  0.63864679051E+03 0.  0.
         13    1    3    3    0    0 -0.61591674275E+02 -0.19896854638E+03  0.31375621719E+02  0.21063344090E+03  0.00000000000E+00 0. -1.
          4    1    3    3  501    0  0.61591674275E+02  0.19896854638E+03  0.86665694752E+03  0.89133398986E+03  0.00000000000E+00 0. -1.
<mgrwt>
<rscale>  0 0.63864679E+03</rscale>
<asrwt>0</asrwt>
<pdfrwt beam="1">0</pdfrwt>
<pdfrwt beam="2">  1        2 0.37079144E+00 0.63864679E+03</pdfrwt>
<totfact> 0.51147988E+00</totfact>
</mgrwt>
</event>
<event>
 5    1  0.2368916E-004  0.6458933E+03  0.7818608E-02  0.9814516E-01
         13   -1    0    0    0    0  0.00000000000E+00  0.00000000000E+00  0.10000000000E+04  0.10000000000E+04  0.00000000000E+00 0. -1.
          2   -1    0    0  501    0 -0.00000000000E+00 -0.00000000000E+00 -0.10429455226E+03  0.10429455226E+03  0.00000000000E+00 0. -1.
    9000006    2    1    2  501    0  0.00000000000E+00  0.00000000000E+00  0.89570544774E+03  0.11042945523E+04  0.64589334184E+03 0.  0.
         13    1    3    3    0    0  0.27811709411E+03  0.60624916302E+02  0.18704357898E+03  0.34060211237E+03  0.00000000000E+00 0. -1.
          2    1    3    3  501    0 -0.27811709411E+03 -0.60624916302E+02  0.70866186876E+03  0.76369243989E+03  0.00000000000E+00 0. -1.
<mgrwt>
<rscale>  0 0.64589334E+03</rscale>
<asrwt>0</asrwt>
<pdfrwt beam="1">0</pdfrwt>
<pdfrwt beam="2">  1        2 0.37925372E+00 0.64589334E+03</pdfrwt>
<totfact> 0.47586030E+00</totfact>
</mgrwt>
</event>
<event>
 5    1  0.2368916E-004  0.6482757E+03  0.7818608E-02  0.9810020E-01
         13   -1    0    0    0    0  0.00000000000E+00  0.00000000000E+00  0.10000000000E+04  0.10000000000E+04  0.00000000000E+00 0. -1.
          2   -1    0    0  501    0 -0.00000000000E+00 -0.00000000000E+00 -0.10506534723E+03  0.10506534723E+03  0.00000000000E+00 0. -1.
    9000006    2    1    2  501    0  0.00000000000E+00  0.00000000000E+00  0.89493465277E+03  0.11050653472E+04  0.64827570441E+03 0.  0.
         13    1    3    3    0    0  0.29203867327E+02 -0.10368443055E+03 -0.73662339852E+02  0.13049700119E+03  0.00000000000E+00 0. -1.
          2    1    3    3  501    0 -0.29203867327E+02  0.10368443055E+03  0.96859699262E+03  0.97456834605E+03  0.00000000000E+00 0. -1.
<mgrwt>
<rscale>  0 0.64827570E+03</rscale>
<asrwt>0</asrwt>
<pdfrwt beam="1">0</pdfrwt>
<pdfrwt beam="2">  1        2 0.38205661E+00 0.64827570E+03</pdfrwt>
<totfact> 0.46457126E+00</totfact>
</mgrwt>
</event>
<event>
 5    1  0.2368916E-004  0.6514444E+03  0.7818608E-02  0.9804073E-01
         13   -1    0    0    0    0  0.00000000000E+00  0.00000000000E+00  0.10000000000E+04  0.10000000000E+04  0.00000000000E+00 0. -1.
          2   -1    0    0  501    0 -0.00000000000E+00 -0.00000000000E+00 -0.10609495395E+03  0.10609495395E+03  0.00000000000E+00 0. -1.
    9000006    2    1    2  501    0  0.00000000000E+00  0.00000000000E+00  0.89390504605E+03  0.11060949540E+04  0.65144440731E+03 0.  0.
         13    1    3    3    0    0 -0.29888419549E+03  0.12945984297E+03  0.45005589308E+03  0.55555550592E+03  0.00000000000E+00 0. -1.
          4    1    3    3  501    0  0.29888419549E+03 -0.12945984297E+03  0.44384915296E+03  0.55053944803E+03  0.00000000000E+00 0. -1.
<mgrwt>
<rscale>  0 0.65144441E+03</rscale>
<asrwt>0</asrwt>
<pdfrwt beam="1">0</pdfrwt>
<pdfrwt beam="2">  1        2 0.38580065E+00 0.65144441E+03</pdfrwt>
<totfact> 0.44987121E+00</totfact>
</mgrwt>
</event>
<event>
 5    1  0.2368916E-004  0.6508007E+03  0.7818608E-02  0.9805278E-01
         13   -1    0    0    0    0  0.00000000000E+00  0.00000000000E+00  0.10000000000E+04  0.10000000000E+04  0.00000000000E+00 0. -1.
          2   -1    0    0  501    0 -0.00000000000E+00 -0.00000000000E+00 -0.10588537734E+03  0.10588537734E+03  0.00000000000E+00 0. -1.
    9000006    2    1    2  501    0  0.00000000000E+00  0.00000000000E+00  0.89411462266E+03  0.11058853773E+04  0.65080066791E+03 0.  0.
         13    1    3    3    0    0 -0.22618829328E+02 -0.17163411670E+03 -0.21138304038E+02  0.17440386851E+03  0.00000000000E+00 0. -1.
          2    1    3    3  501    0  0.22618829328E+02  0.17163411670E+03  0.91525292670E+03  0.93148150883E+03  0.00000000000E+00 0. -1.
<mgrwt>
<rscale>  0 0.65080067E+03</rscale>
<asrwt>0</asrwt>
<pdfrwt beam="1">0</pdfrwt>
<pdfrwt beam="2">  1        2 0.38503855E+00 0.65080067E+03</pdfrwt>
<totfact> 0.45282874E+00</totfact>
</mgrwt>
</event>
<event>
 5    1  0.2368916E-004  0.6403431E+03  0.7818608E-02  0.9825070E-01
         13   -1    0    0    0    0  0.00000000000E+00  0.00000000000E+00  0.10000000000E+04  0.10000000000E+04  0.00000000000E+00 0. -1.
          2   -1    0    0  501    0 -0.00000000000E+00 -0.00000000000E+00 -0.10250983062E+03  0.10250983062E+03  0.00000000000E+00 0. -1.
    9000006    2    1    2  501    0  0.00000000000E+00  0.00000000000E+00  0.89749016938E+03  0.11025098306E+04  0.64034312869E+03 0.  0.
         13    1    3    3    0    0 -0.21467108265E+03  0.18342618436E+03  0.70861501543E+03  0.76280015661E+03  0.00000000000E+00 0. -1.
          4    1    3    3  501    0  0.21467108265E+03 -0.18342618436E+03  0.18887515396E+03  0.33970967401E+03  0.00000000000E+00 0. -1.
<mgrwt>
<rscale>  0 0.64034313E+03</rscale>
<asrwt>0</asrwt>
<pdfrwt beam="1">0</pdfrwt>
<pdfrwt beam="2">  1        2 0.37276381E+00 0.64034313E+03</pdfrwt>
<totfact> 0.50296631E+00</totfact>
</mgrwt>
</event>
<event>
 5    1  0.2368916E-004  0.6451939E+03  0.7818608E-02  0.9815840E-01
         13   -1    0    0    0    0  0.00000000000E+00  0.00000000000E+00  0.10000000000E+04  0.10000000000E+04  0.00000000000E+00 0. -1.
          2   -1    0    0  501    0 -0.00000000000E+00 -0.00000000000E+00 -0.10406878034E+03  0.10406878034E+03  0.00000000000E+00 0. -1.
    9000006    2    1    2  501    0  0.00000000000E+00  0.00000000000E+00  0.89593121966E+03  0.11040687803E+04  0.64519386338E+03 0.  0.
         13    1    3    3    0    0  0.19932889070E+02 -0.22178890426E+02 -0.10170527175E+03  0.10598672346E+03  0.00000000000E+00 0. -1.
          2    1    3    3  501    0 -0.19932889070E+02  0.22178890426E+02  0.99763649142E+03  0.99808205688E+03  0.00000000000E+00 0. -1.
<mgrwt>
<rscale>  0 0.64519386E+03</rscale>
<asrwt>0</asrwt>
<pdfrwt beam="1">0</pdfrwt>
<pdfrwt beam="2">  1        2 0.37843273E+00 0.64519386E+03</pdfrwt>
<totfact> 0.47921390E+00</totfact>
</mgrwt>
</event>
<event>
 5    1  0.2368916E-004  0.6580777E+03  0.7818608E-02  0.9791739E-01
         13   -1    0    0    0    0  0.00000000000E+00  0.00000000000E+00  0.10000000000E+04  0.10000000000E+04  0.00000000000E+00 0. -1.
          2   -1    0    0  501    0 -0.00000000000E+00 -0.00000000000E+00 -0.10826655835E+03  0.10826655835E+03  0.00000000000E+00 0. -1.
    9000006    2    1    2  501    0  0.00000000000E+00  0.00000000000E+00  0.89173344165E+03  0.11082665583E+04  0.65807768037E+03 0.  0.
         13    1    3    3    0    0  0.29168513130E+03 -0.93366556116E+01  0.18991075933E+03  0.34818599263E+03  0.00000000000E+00 0. -1.
          2    1    3    3  501    0 -0.29168513130E+03  0.93366556116E+01  0.70182268232E+03  0.76008056572E+03  0.00000000000E+00 0. -1.
<mgrwt>
<rscale>  0 0.65807768E+03</rscale>
<asrwt>0</asrwt>
<pdfrwt beam="1">0</pdfrwt>
<pdfrwt beam="2">  1        2 0.39369741E+00 0.65807768E+03</pdfrwt>
<totfact> 0.42023833E+00</totfact>
</mgrwt>
</event>
<event>
 5    1  0.2368916E-004  0.6441927E+03  0.7818608E-02  0.9817738E-01
         13   -1    0    0    0    0  0.00000000000E+00  0.00000000000E+00  0.10000000000E+04  0.10000000000E+04  0.00000000000E+00 0. -1.
          2   -1    0    0  501    0 -0.00000000000E+00 -0.00000000000E+00 -0.10374606097E+03  0.10374606097E+03  0.00000000000E+00 0. -1.
    9000006    2    1    2  501    0  0.00000000000E+00  0.00000000000E+00  0.89625393903E+03  0.11037460610E+04  0.64419270709E+03 0.  0.
         13    1    3    3    0    0 -0.22284367486E+03  0.40553168549E+02  0.55758766009E+02  0.23326573449E+03  0.00000000000E+00 0. -1.
          2    1    3    3  501    0  0.22284367486E+03 -0.40553168549E+02  0.84049517302E+03  0.87048032647E+03  0.00000000000E+00 0. -1.
<mgrwt>
<rscale>  0 0.64419271E+03</rscale>
<asrwt>0</asrwt>
<pdfrwt beam="1">0</pdfrwt>
<pdfrwt beam="2">  1        2 0.37725920E+00 0.64419271E+03</pdfrwt>
<totfact> 0.48404496E+00</totfact>
</mgrwt>
</event>
<event>
 5    1  0.2368916E-004  0.6593660E+03  0.7818608E-02  0.9789362E-01
         13   -1    0    0    0    0  0.00000000000E+00  0.00000000000E+00  0.10000000000E+04  0.10000000000E+04  0.00000000000E+00 0. -1.
          2   -1    0    0  501    0 -0.00000000000E+00 -0.00000000000E+00 -0.10869088794E+03  0.10869088794E+03  0.00000000000E+00 0. -1.
    9000006    2    1    2  501    0  0.00000000000E+00  0.00000000000E+00  0.89130911206E+03  0.11086908879E+04  0.65936602261E+03 0.  0.
         13    1    3    3    0    0  0.18950129368E+03  0.24548360646E+03  0.25752784568E+03  0.40310486557E+03  0.00000000000E+00 0. -1.
          2    1    3    3  501    0 -0.18950129368E+03 -0.24548360646E+03  0.63378126638E+03  0.70558602237E+03  0.00000000000E+00 0. -1.
<mgrwt>
<rscale>  0 0.65936602E+03</rscale>
<asrwt>0</asrwt>
<pdfrwt beam="1">0</pdfrwt>
<pdfrwt beam="2">  1        2 0.39524043E+00 0.65936602E+03</pdfrwt>
<totfact> 0.41465872E+00</totfact>
</mgrwt>
</event>
<event>
 5    1  0.2368916E-004  0.6521119E+03  0.7818608E-02  0.9802824E-01
         13   -1    0    0    0    0  0.00000000000E+00  0.00000000000E+00  0.10000000000E+04  0.10000000000E+04  0.00000000000E+00 0. -1.
          2   -1    0    0  501    0 -0.00000000000E+00 -0.00000000000E+00 -0.10631247162E+03  0.10631247162E+03  0.00000000000E+00 0. -1.
    9000006    2    1    2  501    0  0.00000000000E+00  0.00000000000E+00  0.89368752838E+03  0.11063124716E+04  0.65211186652E+03 0.  0.
         13    1    3    3    0    0  0.26295687083E+02  0.29531641993E+03  0.67702684893E+03  0.73909986146E+03  0.00000000000E+00 0. -1.
          2    1    3    3  501    0 -0.26295687083E+02 -0.29531641993E+03  0.21666067946E+03  0.36721261016E+03  0.00000000000E+00 0. -1.
<mgrwt>
<rscale>  0 0.65211187E+03</rscale>
<asrwt>0</asrwt>
<pdfrwt beam="1">0</pdfrwt>
<pdfrwt beam="2">  1        2 0.38659162E+00 0.65211187E+03</pdfrwt>
<totfact> 0.44682014E+00</totfact>
</mgrwt>
</event>
<event>
 5    1  0.2368916E-004  0.6369403E+03  0.7818608E-02  0.9831598E-01
         13   -1    0    0    0    0  0.00000000000E+00  0.00000000000E+00  0.10000000000E+04  0.10000000000E+04  0.00000000000E+00 0. -1.
          2   -1    0    0  501    0 -0.00000000000E+00 -0.00000000000E+00 -0.10142323916E+03  0.10142323916E+03  0.00000000000E+00 0. -1.
    9000006    2    1    2  501    0  0.00000000000E+00  0.00000000000E+00  0.89857676084E+03  0.11014232392E+04  0.63694030854E+03 0.  0.
         13    1    3    3    0    0 -0.14673969459E+03  0.12203678525E+03  0.84244409775E+01  0.19104053531E+03  0.00000000000E+00 0. -1.
          4    1    3    3  501    0  0.14673969459E+03 -0.12203678525E+03  0.89015231986E+03  0.91038270386E+03  0.00000000000E+00 0. -1.
<mgrwt>
<rscale>  0 0.63694031E+03</rscale>
<asrwt>0</asrwt>
<pdfrwt beam="1">0</pdfrwt>
<pdfrwt beam="2">  1        2 0.36881256E+00 0.63694031E+03</pdfrwt>
<totfact> 0.52015406E+00</totfact>
</mgrwt>
</event>
<event>
 5    1  0.2368916E-004  0.6540464E+03  0.7818608E-02  0.9799216E-01
         13   -1    0    0    0    0  0.00000000000E+00  0.00000000000E+00  0.10000000000E+04  0.10000000000E+04  0.00000000000E+00 0. -1.
          2   -1    0    0  501    0 -0.00000000000E+00 -0.00000000000E+00 -0.10694418138E+03  0.10694418138E+03  0.00000000000E+00 0. -1.
    9000006    2    1    2  501    0  0.00000000000E+00  0.00000000000E+00  0.89305581862E+03  0.11069441814E+04  0.65404642458E+03 0.  0.
         13    1    3    3    0    0 -0.29663328622E+03 -0.12926779341E+03  0.36637783220E+03  0.48880894513E+03  0.00000000000E+00 0. -1.
          2    1    3    3  501    0  0.29663328622E+03  0.12926779341E+03  0.52667798642E+03  0.61813523625E+03  0.00000000000E+00 0. -1.
<mgrwt>
<rscale>  0 0.65404642E+03</rscale>
<asrwt>0</asrwt>
<pdfrwt beam="1">0</pdfrwt>
<pdfrwt beam="2">  1        2 0.38888875E+00 0.65404642E+03</pdfrwt>
<totfact> 0.43806521E+00</totfact>
</mgrwt>
</event>
<event>
 5    1  0.2368916E-004  0.6633020E+03  0.7818608E-02  0.9782134E-01
         13   -1    0    0    0    0  0.00000000000E+00  0.00000000000E+00  0.10000000000E+04  0.10000000000E+04  0.00000000000E+00 0. -1.
          2   -1    0    0  501    0 -0.00000000000E+00 -0.00000000000E+00 -0.10999237582E+03  0.10999237582E+03  0.00000000000E+00 0. -1.
    9000006    2    1    2  501    0  0.00000000000E+00  0.00000000000E+00  0.89000762418E+03  0.11099923758E+04  0.66330196992E+03 0.  0.
         13    1    3    3    0    0 -0.92519217082E+02  0.15005613887E+02  0.97737537188E+03  0.98185925241E+03  0.00000000000E+00 0. -1.
          4    1    3    3  501    0  0.92519217082E+02 -0.15005613887E+02 -0.87367747705E+02  0.12813312342E+03  0.00000000000E+00 0. -1.
<mgrwt>
<rscale>  0 0.66330197E+03</rscale>
<asrwt>0</asrwt>
<pdfrwt beam="1">0</pdfrwt>
<pdfrwt beam="2">  1        2 0.39997312E+00 0.66330197E+03</pdfrwt>
<totfact> 0.39795877E+00</totfact>
</mgrwt>
</event>
<event>
 5    1  0.2368916E-004  0.6508283E+03  0.7818608E-02  0.9805226E-01
         13   -1    0    0    0    0  0.00000000000E+00  0.00000000000E+00  0.10000000000E+04  0.10000000000E+04  0.00000000000E+00 0. -1.
          2   -1    0    0  501    0 -0.00000000000E+00 -0.00000000000E+00 -0.10589436357E+03  0.10589436357E+03  0.00000000000E+00 0. -1.
    9000006    2    1    2  501    0  0.00000000000E+00  0.00000000000E+00  0.89410563643E+03  0.11058943636E+04  0.65082828324E+03 0.  0.
         13    1    3    3    0    0 -0.32119683099E+03 -0.48409746642E+02  0.48032680645E+03  0.57984890170E+03  0.00000000000E+00 0. -1.
          2    1    3    3  501    0  0.32119683099E+03  0.48409746642E+02  0.41377882999E+03  0.52604546187E+03  0.00000000000E+00 0. -1.
<mgrwt>
<rscale>  0 0.65082828E+03</rscale>
<asrwt>0</asrwt>
<pdfrwt beam="1">0</pdfrwt>
<pdfrwt beam="2">  1        2 0.38507122E+00 0.65082828E+03</pdfrwt>
<totfact> 0.45270157E+00</totfact>
</mgrwt>
</event>
<event>
 5    1  0.2368916E-004  0.6545297E+03  0.7818608E-02  0.9798316E-01
         13   -1    0    0    0    0  0.00000000000E+00  0.00000000000E+00  0.10000000000E+04  0.10000000000E+04  0.00000000000E+00 0. -1.
          2   -1    0    0  501    0 -0.00000000000E+00 -0.00000000000E+00 -0.10710228635E+03  0.10710228635E+03  0.00000000000E+00 0. -1.
    9000006    2    1    2  501    0  0.00000000000E+00  0.00000000000E+00  0.89289771365E+03  0.11071022864E+04  0.65452971316E+03 0.  0.
         13    1    3    3    0    0  0.29456779524E+03  0.13700313798E+03  0.37959409699E+03  0.49963158855E+03  0.00000000000E+00 0. -1.
          2    1    3    3  501    0 -0.29456779524E+03 -0.13700313798E+03  0.51330361666E+03  0.60747069780E+03  0.00000000000E+00 0. -1.
<mgrwt>
<rscale>  0 0.65452971E+03</rscale>
<asrwt>0</asrwt>
<pdfrwt beam="1">0</pdfrwt>
<pdfrwt beam="2">  1        2 0.38946368E+00 0.65452971E+03</pdfrwt>
<totfact> 0.43589844E+00</totfact>
</mgrwt>
</event>
<event>
 5    1  0.2368916E-004  0.6491728E+03  0.7818608E-02  0.9808333E-01
         13   -1    0    0    0    0  0.00000000000E+00  0.00000000000E+00  0.10000000000E+04  0.10000000000E+04  0.00000000000E+00 0. -1.
          2   -1    0    0  501    0 -0.00000000000E+00 -0.00000000000E+00 -0.10535632884E+03  0.10535632884E+03  0.00000000000E+00 0. -1.
    9000006    2    1    2  501    0  0.00000000000E+00  0.00000000000E+00  0.89464367116E+03  0.11053563288E+04  0.64917279315E+03 0.  0.
         13    1    3    3    0    0 -0.24839279609E+03  0.13355350774E+03  0.17371502200E+03  0.33122866640E+03  0.00000000000E+00 0. -1.
          2    1    3    3  501    0  0.24839279609E+03 -0.13355350774E+03  0.72092864916E+03  0.77412766244E+03  0.00000000000E+00 0. -1.
<mgrwt>
<rscale>  0 0.64917279E+03</rscale>
<asrwt>0</asrwt>
<pdfrwt beam="1">0</pdfrwt>
<pdfrwt beam="2">  1        2 0.38311473E+00 0.64917279E+03</pdfrwt>
<totfact> 0.46037325E+00</totfact>
</mgrwt>
</event>
<event>
 5    1  0.2368916E-004  0.6765107E+03  0.7818608E-02  0.9758267E-01
         13   -1    0    0    0    0  0.00000000000E+00  0.00000000000E+00  0.10000000000E+04  0.10000000000E+04  0.00000000000E+00 0. -1.
          2   -1    0    0  501    0 -0.00000000000E+00 -0.00000000000E+00 -0.11441666515E+03  0.11441666515E+03  0.00000000000E+00 0. -1.
    9000006    2    1    2  501    0  0.00000000000E+00  0.00000000000E+00  0.88558333485E+03  0.11144166651E+04  0.67651065076E+03 0.  0.
         13    1    3    3    0    0  0.27173495256E+03  0.18192556620E+03  0.58526053017E+03  0.67042276531E+03  0.00000000000E+00 0. -1.
          4    1    3    3  501    0 -0.27173495256E+03 -0.18192556620E+03  0.30032280469E+03  0.44399389984E+03  0.00000000000E+00 0. -1.
<mgrwt>
<rscale>  0 0.67651065E+03</rscale>
<asrwt>0</asrwt>
<pdfrwt beam="1">0</pdfrwt>
<pdfrwt beam="2">  1        2 0.41606148E+00 0.67651065E+03</pdfrwt>
<totfact> 0.34559892E+00</totfact>
</mgrwt>
</event>
<event>
 5    1  0.2368916E-004  0.6714206E+03  0.7818608E-02  0.9767395E-01
         13   -1    0    0    0    0  0.00000000000E+00  0.00000000000E+00  0.10000000000E+04  0.10000000000E+04  0.00000000000E+00 0. -1.
          2   -1    0    0  501    0 -0.00000000000E+00 -0.00000000000E+00 -0.11270141265E+03  0.11270141265E+03  0.00000000000E+00 0. -1.
    9000006    2    1    2  501    0  0.00000000000E+00  0.00000000000E+00  0.88729858735E+03  0.11127014127E+04  0.67142062122E+03 0.  0.
         13    1    3    3    0    0 -0.28465342544E+03 -0.16370041272E+03  0.55937143905E+03  0.64863071509E+03  0.00000000000E+00 0. -1.
          4    1    3    3  501    0  0.28465342544E+03  0.16370041272E+03  0.32792714830E+03  0.46407069756E+03  0.00000000000E+00 0. -1.
<mgrwt>
<rscale>  0 0.67142062E+03</rscale>
<asrwt>0</asrwt>
<pdfrwt beam="1">0</pdfrwt>
<pdfrwt beam="2">  1        2 0.40982418E+00 0.67142062E+03</pdfrwt>
<totfact> 0.36511817E+00</totfact>
</mgrwt>
</event>
<event>
 5    1  0.2368916E-004  0.6414779E+03  0.7818608E-02  0.9822903E-01
         13   -1    0    0    0    0  0.00000000000E+00  0.00000000000E+00  0.10000000000E+04  0.10000000000E+04  0.00000000000E+00 0. -1.
          2   -1    0    0  501    0 -0.00000000000E+00 -0.00000000000E+00 -0.10287348298E+03  0.10287348298E+03  0.00000000000E+00 0. -1.
    9000006    2    1    2  501    0  0.00000000000E+00  0.00000000000E+00  0.89712651702E+03  0.11028734830E+04  0.64147792785E+03 0.  0.
         13    1    3    3    0    0 -0.32942660167E+02  0.19798625804E+03  0.18437519180E+02  0.20155326677E+03  0.00000000000E+00 0. -1.
          2    1    3    3  501    0  0.32942660167E+02 -0.19798625804E+03  0.87868899784E+03  0.90132021621E+03  0.00000000000E+00 0. -1.
<mgrwt>
<rscale>  0 0.64147793E+03</rscale>
<asrwt>0</asrwt>
<pdfrwt beam="1">0</pdfrwt>
<pdfrwt beam="2">  1        2 0.37408618E+00 0.64147793E+03</pdfrwt>
<totfact> 0.49733121E+00</totfact>
</mgrwt>
</event>
<event>
 5    1  0.2368916E-004  0.6498497E+03  0.7818608E-02  0.9807061E-01
         13   -1    0    0    0    0  0.00000000000E+00  0.00000000000E+00  0.10000000000E+04  0.10000000000E+04  0.00000000000E+00 0. -1.
          2   -1    0    0  501    0 -0.00000000000E+00 -0.00000000000E+00 -0.10557616228E+03  0.10557616228E+03  0.00000000000E+00 0. -1.
    9000006    2    1    2  501    0  0.00000000000E+00  0.00000000000E+00  0.89442383772E+03  0.11055761623E+04  0.64984971273E+03 0.  0.
         13    1    3    3    0    0  0.75251737997E+01  0.25056683570E+03  0.79891131935E+03  0.83731694332E+03  0.00000000000E+00 0. -1.
          4    1    3    3  501    0 -0.75251737997E+01 -0.25056683570E+03  0.95512518367E+02  0.26825921896E+03  0.00000000000E+00 0. -1.
<mgrwt>
<rscale>  0 0.64984971E+03</rscale>
<asrwt>0</asrwt>
<pdfrwt beam="1">0</pdfrwt>
<pdfrwt beam="2">  1        2 0.38391413E+00 0.64984971E+03</pdfrwt>
<totfact> 0.45722457E+00</totfact>
</mgrwt>
</event>
<event>
 5    1  0.2368916E-004  0.6611881E+03  0.7818608E-02  0.9786009E-01
         13   -1    0    0    0    0  0.00000000000E+00  0.00000000000E+00  0.10000000000E+04  0.10000000000E+04  0.00000000000E+00 0. -1.
          2   -1    0    0  501    0 -0.00000000000E+00 -0.00000000000E+00 -0.10929241423E+03  0.10929241423E+03  0.00000000000E+00 0. -1.
    9000006    2    1    2  501    0  0.00000000000E+00  0.00000000000E+00  0.89070758577E+03  0.11092924142E+04  0.66118806471E+03 0.  0.
         13    1    3    3    0    0 -0.21608347278E+03  0.19400745341E+03  0.18028659536E+03  0.34181020414E+03  0.00000000000E+00 0. -1.
          4    1    3    3  501    0  0.21608347278E+03 -0.19400745341E+03  0.71042099041E+03  0.76748221009E+03  0.00000000000E+00 0. -1.
<mgrwt>
<rscale>  0 0.66118806E+03</rscale>
<asrwt>0</asrwt>
<pdfrwt beam="1">0</pdfrwt>
<pdfrwt beam="2">  1        2 0.39742780E+00 0.66118806E+03</pdfrwt>
<totfact> 0.40686351E+00</totfact>
</mgrwt>
</event>
<event>
 5    1  0.2368916E-004  0.6780234E+03  0.7818608E-02  0.9755571E-01
         13   -1    0    0    0    0  0.00000000000E+00  0.00000000000E+00  0.10000000000E+04  0.10000000000E+04  0.00000000000E+00 0. -1.
          2   -1    0    0  501    0 -0.00000000000E+00 -0.00000000000E+00 -0.11492893090E+03  0.11492893090E+03  0.00000000000E+00 0. -1.
    9000006    2    1    2  501    0  0.00000000000E+00  0.00000000000E+00  0.88507106910E+03  0.11149289309E+04  0.67802339457E+03 0.  0.
         13    1    3    3    0    0  0.28969872652E+03  0.17548272972E+03  0.41874080325E+03  0.53857534374E+03  0.00000000000E+00 0. -1.
          2    1    3    3  501    0 -0.28969872652E+03 -0.17548272972E+03  0.46633026586E+03  0.57635358716E+03  0.00000000000E+00 0. -1.
<mgrwt>
<rscale>  0 0.67802339E+03</rscale>
<asrwt>0</asrwt>
<pdfrwt beam="1">0</pdfrwt>
<pdfrwt beam="2">  1        2 0.41792427E+00 0.67802339E+03</pdfrwt>
<totfact> 0.33995261E+00</totfact>
</mgrwt>
</event>
<event>
 5    1  0.2368916E-004  0.6449001E+03  0.7818608E-02  0.9816396E-01
         13   -1    0    0    0    0  0.00000000000E+00  0.00000000000E+00  0.10000000000E+04  0.10000000000E+04  0.00000000000E+00 0. -1.
          2   -1    0    0  501    0 -0.00000000000E+00 -0.00000000000E+00 -0.10397403867E+03  0.10397403867E+03  0.00000000000E+00 0. -1.
    9000006    2    1    2  501    0  0.00000000000E+00  0.00000000000E+00  0.89602596133E+03  0.11039740387E+04  0.64490011218E+03 0.  0.
         13    1    3    3    0    0 -0.19121932703E+03 -0.25154572957E+03  0.55807797249E+03  0.64131981762E+03  0.00000000000E+00 0. -1.
          2    1    3    3  501    0  0.19121932703E+03  0.25154572957E+03  0.33794798884E+03  0.46265422105E+03  0.00000000000E+00 0. -1.
<mgrwt>
<rscale>  0 0.64490011E+03</rscale>
<asrwt>0</asrwt>
<pdfrwt beam="1">0</pdfrwt>
<pdfrwt beam="2">  1        2 0.37808821E+00 0.64490011E+03</pdfrwt>
<totfact> 0.48062759E+00</totfact>
</mgrwt>
</event>
<event>
 5    1  0.2368916E-004  0.6486641E+03  0.7818608E-02  0.9809289E-01
         13   -1    0    0    0    0  0.00000000000E+00  0.00000000000E+00  0.10000000000E+04  0.10000000000E+04  0.00000000000E+00 0. -1.
          2   -1    0    0  501    0 -0.00000000000E+00 -0.00000000000E+00 -0.10519128285E+03  0.10519128285E+03  0.00000000000E+00 0. -1.
    9000006    2    1    2  501    0  0.00000000000E+00  0.00000000000E+00  0.89480871715E+03  0.11051912828E+04  0.64866411291E+03 0.  0.
         13    1    3    3    0    0  0.16053363672E+02  0.13893169832E+02  0.99881482966E+03  0.99904043692E+03  0.00000000000E+00 0. -1.
          2    1    3    3  501    0 -0.16053363672E+02 -0.13893169832E+02 -0.10400611250E+03  0.10615084593E+03  0.00000000000E+00 0. -1.
<mgrwt>
<rscale>  0 0.64866411E+03</rscale>
<asrwt>0</asrwt>
<pdfrwt beam="1">0</pdfrwt>
<pdfrwt beam="2">  1        2 0.38251456E+00 0.64866411E+03</pdfrwt>
<totfact> 0.46275013E+00</totfact>
</mgrwt>
</event>
<event>
 5    1  0.2368916E-004  0.6505347E+03  0.7818608E-02  0.9805776E-01
         13   -1    0    0    0    0  0.00000000000E+00  0.00000000000E+00  0.10000000000E+04  0.10000000000E+04  0.00000000000E+00 0. -1.
          2   -1    0    0  501    0 -0.00000000000E+00 -0.00000000000E+00 -0.10579886298E+03  0.10579886298E+03  0.00000000000E+00 0. -1.
    9000006    2    1    2  501    0  0.00000000000E+00  0.00000000000E+00  0.89420113702E+03  0.11057988630E+04  0.65053474305E+03 0.  0.
         13    1    3    3    0    0  0.10115475082E+03  0.29416091962E+03  0.60868225543E+03  0.68356200766E+03  0.00000000000E+00 0. -1.
          4    1    3    3  501    0 -0.10115475082E+03 -0.29416091962E+03  0.28551888159E+03  0.42223685532E+03  0.00000000000E+00 0. -1.
<mgrwt>
<rscale>  0 0.65053474E+03</rscale>
<asrwt>0</asrwt>
<pdfrwt beam="1">0</pdfrwt>
<pdfrwt beam="2">  1        2 0.38472395E+00 0.65053474E+03</pdfrwt>
<totfact> 0.45405476E+00</totfact>
</mgrwt>
</event>
<event>
 5    1  0.2368916E-004  0.6516586E+03  0.7818608E-02  0.9803672E-01
         13   -1    0    0    0    0  0.00000000000E+00  0.00000000000E+00  0.10000000000E+04  0.10000000000E+04  0.00000000000E+00 0. -1.
          2   -1    0    0  501    0 -0.00000000000E+00 -0.00000000000E+00 -0.10616473017E+03  0.10616473017E+03  0.00000000000E+00 0. -1.
    9000006    2    1    2  501    0  0.00000000000E+00  0.00000000000E+00  0.89383526983E+03  0.11061647302E+04  0.65165859211E+03 0.  0.
         13    1    3    3    0    0  0.24320967897E+03  0.15227844771E+02  0.81406345312E+03  0.84975416498E+03  0.00000000000E+00 0. -1.
          2    1    3    3  501    0 -0.24320967897E+03 -0.15227844771E+02  0.79771816717E+02  0.25641056519E+03  0.00000000000E+00 0. -1.
<mgrwt>
<rscale>  0 0.65165859E+03</rscale>
<asrwt>0</asrwt>
<pdfrwt beam="1">0</pdfrwt>
<pdfrwt beam="2">  1        2 0.38605438E+00 0.65165859E+03</pdfrwt>
<totfact> 0.44889043E+00</totfact>
</mgrwt>
</event>
<event>
 5    1  0.2368916E-004  0.6189517E+03  0.7818608E-02  0.9866849E-01
         13   -1    0    0    0    0  0.00000000000E+00  0.00000000000E+00  0.10000000000E+04  0.10000000000E+04  0.00000000000E+00 0. -1.
          2   -1    0    0  501    0 -0.00000000000E+00 -0.00000000000E+00 -0.95775294885E+02  0.95775294885E+02  0.00000000000E+00 0. -1.
    9000006    2    1    2  501    0  0.00000000000E+00  0.00000000000E+00  0.90422470511E+03  0.10957752949E+04  0.61895167787E+03 0.  0.
         13    1    3    3    0    0 -0.15878354096E+03  0.19623082437E+03  0.76908597313E+03  0.80945165598E+03  0.00000000000E+00 0. -1.
          4    1    3    3  501    0  0.15878354096E+03 -0.19623082437E+03  0.13513873199E+03  0.28632363890E+03  0.00000000000E+00 0. -1.
<mgrwt>
<rscale>  0 0.61895168E+03</rscale>
<asrwt>0</asrwt>
<pdfrwt beam="1">0</pdfrwt>
<pdfrwt beam="2">  1        2 0.34827453E+00 0.61895168E+03</pdfrwt>
<totfact> 0.61854759E+00</totfact>
</mgrwt>
</event>
<event>
 5    1  0.2368916E-004  0.6542792E+03  0.7818608E-02  0.9798782E-01
         13   -1    0    0    0    0  0.00000000000E+00  0.00000000000E+00  0.10000000000E+04  0.10000000000E+04  0.00000000000E+00 0. -1.
          2   -1    0    0  501    0 -0.00000000000E+00 -0.00000000000E+00 -0.10702033256E+03  0.10702033256E+03  0.00000000000E+00 0. -1.
    9000006    2    1    2  501    0  0.00000000000E+00  0.00000000000E+00  0.89297966744E+03  0.11070203326E+04  0.65427924484E+03 0.  0.
         13    1    3    3    0    0 -0.23004710531E+03 -0.22758056081E+03  0.52773519696E+03  0.61904686449E+03  0.00000000000E+00 0. -1.
          2    1    3    3  501    0  0.23004710531E+03  0.22758056081E+03  0.36524447048E+03  0.48797346807E+03  0.00000000000E+00 0. -1.
<mgrwt>
<rscale>  0 0.65427924E+03</rscale>
<asrwt>0</asrwt>
<pdfrwt beam="1">0</pdfrwt>
<pdfrwt beam="2">  1        2 0.38916567E+00 0.65427924E+03</pdfrwt>
<totfact> 0.43702038E+00</totfact>
</mgrwt>
</event>
<event>
 5    1  0.2368916E-004  0.6351111E+03  0.7818608E-02  0.9835125E-01
         13   -1    0    0    0    0  0.00000000000E+00  0.00000000000E+00  0.10000000000E+04  0.10000000000E+04  0.00000000000E+00 0. -1.
          2   -1    0    0  501    0 -0.00000000000E+00 -0.00000000000E+00 -0.10084154213E+03  0.10084154213E+03  0.00000000000E+00 0. -1.
    9000006    2    1    2  501    0  0.00000000000E+00  0.00000000000E+00  0.89915845787E+03  0.11008415421E+04  0.63511114659E+03 0.  0.
         13    1    3    3    0    0 -0.10322684287E+03  0.29239744440E+03  0.56827579072E+03  0.64737116162E+03  0.00000000000E+00 0. -1.
          2    1    3    3  501    0  0.10322684287E+03 -0.29239744440E+03  0.33088266715E+03  0.45347038051E+03  0.00000000000E+00 0. -1.
<mgrwt>
<rscale>  0 0.63511115E+03</rscale>
<asrwt>0</asrwt>
<pdfrwt beam="1">0</pdfrwt>
<pdfrwt beam="2">  1        2 0.36669729E+00 0.63511115E+03</pdfrwt>
<totfact> 0.52957512E+00</totfact>
</mgrwt>
</event>
<event>
 5    1  0.2368916E-004  0.6556374E+03  0.7818608E-02  0.9796258E-01
         13   -1    0    0    0    0  0.00000000000E+00  0.00000000000E+00  0.10000000000E+04  0.10000000000E+04  0.00000000000E+00 0. -1.
          2   -1    0    0  501    0 -0.00000000000E+00 -0.00000000000E+00 -0.10746511119E+03  0.10746511119E+03  0.00000000000E+00 0. -1.
    9000006    2    1    2  501    0  0.00000000000E+00  0.00000000000E+00  0.89253488881E+03  0.11074651112E+04  0.65563743394E+03 0.  0.
         13    1    3    3    0    0 -0.48623008461E+02 -0.46605152115E+00  0.99387459403E+03  0.99506337628E+03  0.00000000000E+00 0. -1.
          2    1    3    3  501    0  0.48623008461E+02  0.46605152115E+00 -0.10133970523E+03  0.11240173491E+03  0.00000000000E+00 0. -1.
<mgrwt>
<rscale>  0 0.65563743E+03</rscale>
<asrwt>0</asrwt>
<pdfrwt beam="1">0</pdfrwt>
<pdfrwt beam="2">  1        2 0.39078305E+00 0.65563743E+03</pdfrwt>
<totfact> 0.43096265E+00</totfact>
</mgrwt>
</event>
<event>
 5    1  0.2368916E-004  0.6469625E+03  0.7818608E-02  0.9812496E-01
         13   -1    0    0    0    0  0.00000000000E+00  0.00000000000E+00  0.10000000000E+04  0.10000000000E+04  0.00000000000E+00 0. -1.
          2   -1    0    0  501    0 -0.00000000000E+00 -0.00000000000E+00 -0.10464013250E+03  0.10464013250E+03  0.00000000000E+00 0. -1.
    9000006    2    1    2  501    0  0.00000000000E+00  0.00000000000E+00  0.89535986750E+03  0.11046401325E+04  0.64696254143E+03 0.  0.
         13    1    3    3    0    0 -0.19638066531E+03 -0.24548301756E+03  0.31750228541E+03  0.44680530308E+03  0.00000000000E+00 0. -1.
          4    1    3    3  501    0  0.19638066531E+03  0.24548301756E+03  0.57785758209E+03  0.65783482942E+03  0.00000000000E+00 0. -1.
<mgrwt>
<rscale>  0 0.64696254E+03</rscale>
<asrwt>0</asrwt>
<pdfrwt beam="1">0</pdfrwt>
<pdfrwt beam="2">  1        2 0.38051038E+00 0.64696254E+03</pdfrwt>
<totfact> 0.47076844E+00</totfact>
</mgrwt>
</event>
<event>
 5    1  0.2368916E-004  0.6486237E+03  0.7818608E-02  0.9809365E-01
         13   -1    0    0    0    0  0.00000000000E+00  0.00000000000E+00  0.10000000000E+04  0.10000000000E+04  0.00000000000E+00 0. -1.
          2   -1    0    0  501    0 -0.00000000000E+00 -0.00000000000E+00 -0.10517817809E+03  0.10517817809E+03  0.00000000000E+00 0. -1.
    9000006    2    1    2  501    0  0.00000000000E+00  0.00000000000E+00  0.89482182191E+03  0.11051781781E+04  0.64862370628E+03 0.  0.
         13    1    3    3    0    0  0.17360209214E+02 -0.17011145590E+03  0.91694985277E+03  0.93275737295E+03  0.00000000000E+00 0. -1.
          2    1    3    3  501    0 -0.17360209214E+02  0.17011145590E+03 -0.22128030860E+02  0.17242080513E+03  0.00000000000E+00 0. -1.
<mgrwt>
<rscale>  0 0.64862371E+03</rscale>
<asrwt>0</asrwt>
<pdfrwt beam="1">0</pdfrwt>
<pdfrwt beam="2">  1        2 0.38246691E+00 0.64862371E+03</pdfrwt>
<totfact> 0.46293933E+00</totfact>
</mgrwt>
</event>
<event>
 5    1  0.2368916E-004  0.5817783E+03  0.7818608E-02  0.9943948E-01
         13   -1    0    0    0    0  0.00000000000E+00  0.00000000000E+00  0.10000000000E+04  0.10000000000E+04  0.00000000000E+00 0. -1.
          2   -1    0    0  501    0 -0.00000000000E+00 -0.00000000000E+00 -0.84616489934E+02  0.84616489934E+02  0.00000000000E+00 0. -1.
    9000006    2    1    2  501    0  0.00000000000E+00  0.00000000000E+00  0.91538351007E+03  0.10846164899E+04  0.58177827369E+03 0.  0.
         13    1    3    3    0    0  0.24705486391E+02  0.23708489865E+03  0.76851731745E+03  0.80463561780E+03  0.00000000000E+00 0. -1.
          4    1    3    3  501    0 -0.24705486391E+02 -0.23708489865E+03  0.14686619262E+03  0.27998087213E+03  0.00000000000E+00 0. -1.
<mgrwt>
<rscale>  0 0.58177827E+03</rscale>
<asrwt>0</asrwt>
<pdfrwt beam="1">0</pdfrwt>
<pdfrwt beam="2">  1        2 0.30769698E+00 0.58177827E+03</pdfrwt>
<totfact> 0.86651011E+00</totfact>
</mgrwt>
</event>
<event>
 5    1  0.2368916E-004  0.6373400E+03  0.7818608E-02  0.9830829E-01
         13   -1    0    0    0    0  0.00000000000E+00  0.00000000000E+00  0.10000000000E+04  0.10000000000E+04  0.00000000000E+00 0. -1.
          2   -1    0    0  501    0 -0.00000000000E+00 -0.00000000000E+00 -0.10155057595E+03  0.10155057595E+03  0.00000000000E+00 0. -1.
    9000006    2    1    2  501    0  0.00000000000E+00  0.00000000000E+00  0.89844942405E+03  0.11015505759E+04  0.63734002211E+03 0.  0.
         13    1    3    3    0    0 -0.67237069158E+02 -0.11832057557E+03  0.94724926433E+03  0.95697531360E+03  0.00000000000E+00 0. -1.
          4    1    3    3  501    0  0.67237069158E+02  0.11832057557E+03 -0.48799840275E+02  0.14457526235E+03  0.00000000000E+00 0. -1.
<mgrwt>
<rscale>  0 0.63734002E+03</rscale>
<asrwt>0</asrwt>
<pdfrwt beam="1">0</pdfrwt>
<pdfrwt beam="2">  1        2 0.36927560E+00 0.63734002E+03</pdfrwt>
<totfact> 0.51811236E+00</totfact>
</mgrwt>
</event>
<event>
 5    1  0.2368916E-004  0.6650213E+03  0.7818608E-02  0.9778994E-01
         13   -1    0    0    0    0  0.00000000000E+00  0.00000000000E+00  0.10000000000E+04  0.10000000000E+04  0.00000000000E+00 0. -1.
          4   -1    0    0  501    0 -0.00000000000E+00 -0.00000000000E+00 -0.11056334688E+03  0.11056334688E+03  0.00000000000E+00 0. -1.
    9000006    2    1    2  501    0  0.00000000000E+00  0.00000000000E+00  0.88943665312E+03  0.11105633469E+04  0.66502134365E+03 0.  0.
         13    1    3    3    0    0 -0.17208896402E+03  0.15144970363E+03  0.84694015198E+03  0.87741623264E+03  0.00000000000E+00 0. -1.
          2    1    3    3  501    0  0.17208896402E+03 -0.15144970363E+03  0.42496501142E+02  0.23314711424E+03  0.00000000000E+00 0. -1.
<mgrwt>
<rscale>  0 0.66502134E+03</rscale>
<asrwt>0</asrwt>
<pdfrwt beam="1">0</pdfrwt>
<pdfrwt beam="2">  1        4 0.40204938E+00 0.66502134E+03</pdfrwt>
<totfact> 0.31014232E-02</totfact>
</mgrwt>
</event>
<event>
 5    1  0.2368916E-004  0.6485693E+03  0.7818608E-02  0.9809467E-01
         13   -1    0    0    0    0  0.00000000000E+00  0.00000000000E+00  0.10000000000E+04  0.10000000000E+04  0.00000000000E+00 0. -1.
          2   -1    0    0  501    0 -0.00000000000E+00 -0.00000000000E+00 -0.10516053478E+03  0.10516053478E+03  0.00000000000E+00 0. -1.
    9000006    2    1    2  501    0  0.00000000000E+00  0.00000000000E+00  0.89483946522E+03  0.11051605348E+04  0.64856930171E+03 0.  0.
         13    1    3    3    0    0  0.21956581811E+03  0.69415233365E+02  0.58352218675E+02  0.23755547674E+03  0.00000000000E+00 0. -1.
          2    1    3    3  501    0 -0.21956581811E+03 -0.69415233365E+02  0.83648724655E+03  0.86760505804E+03  0.00000000000E+00 0. -1.
<mgrwt>
<rscale>  0 0.64856930E+03</rscale>
<asrwt>0</asrwt>
<pdfrwt beam="1">0</pdfrwt>
<pdfrwt beam="2">  1        2 0.38240275E+00 0.64856930E+03</pdfrwt>
<totfact> 0.46319417E+00</totfact>
</mgrwt>
</event>
<event>
 5    1  0.2368916E-004  0.6662983E+03  0.7818608E-02  0.9776668E-01
         13   -1    0    0    0    0  0.00000000000E+00  0.00000000000E+00  0.10000000000E+04  0.10000000000E+04  0.00000000000E+00 0. -1.
          2   -1    0    0  501    0 -0.00000000000E+00 -0.00000000000E+00 -0.11098834293E+03  0.11098834293E+03  0.00000000000E+00 0. -1.
    9000006    2    1    2  501    0  0.00000000000E+00  0.00000000000E+00  0.88901165707E+03  0.11109883429E+04  0.66629826032E+03 0.  0.
         13    1    3    3    0    0  0.21608569626E+03  0.14967773769E+03  0.78578186803E+03  0.82858288506E+03  0.00000000000E+00 0. -1.
          4    1    3    3  501    0 -0.21608569626E+03 -0.14967773769E+03  0.10322978905E+03  0.28240545787E+03  0.00000000000E+00 0. -1.
<mgrwt>
<rscale>  0 0.66629826E+03</rscale>
<asrwt>0</asrwt>
<pdfrwt beam="1">0</pdfrwt>
<pdfrwt beam="2">  1        2 0.40359483E+00 0.66629826E+03</pdfrwt>
<totfact> 0.38558983E+00</totfact>
</mgrwt>
</event>
<event>
 5    1  0.2368916E-004  0.6465133E+03  0.7818608E-02  0.9813344E-01
         13   -1    0    0    0    0  0.00000000000E+00  0.00000000000E+00  0.10000000000E+04  0.10000000000E+04  0.00000000000E+00 0. -1.
          2   -1    0    0  501    0 -0.00000000000E+00 -0.00000000000E+00 -0.10449487786E+03  0.10449487786E+03  0.00000000000E+00 0. -1.
    9000006    2    1    2  501    0  0.00000000000E+00  0.00000000000E+00  0.89550512214E+03  0.11044948779E+04  0.64651334978E+03 0.  0.
         13    1    3    3    0    0 -0.12176988384E+03 -0.12963526111E+03  0.90889572678E+03  0.92613424928E+03  0.00000000000E+00 0. -1.
          2    1    3    3  501    0  0.12176988384E+03  0.12963526111E+03 -0.13390604644E+02  0.17836062858E+03  0.00000000000E+00 0. -1.
<mgrwt>
<rscale>  0 0.64651335E+03</rscale>
<asrwt>0</asrwt>
<pdfrwt beam="1">0</pdfrwt>
<pdfrwt beam="2">  1        2 0.37998218E+00 0.64651335E+03</pdfrwt>
<totfact> 0.47290259E+00</totfact>
</mgrwt>
</event>
<event>
 5    1  0.2368916E-004  0.6514645E+03  0.7818608E-02  0.9804035E-01
         13   -1    0    0    0    0  0.00000000000E+00  0.00000000000E+00  0.10000000000E+04  0.10000000000E+04  0.00000000000E+00 0. -1.
          2   -1    0    0  501    0 -0.00000000000E+00 -0.00000000000E+00 -0.10610149676E+03  0.10610149676E+03  0.00000000000E+00 0. -1.
    9000006    2    1    2  501    0  0.00000000000E+00  0.00000000000E+00  0.89389850324E+03  0.11061014968E+04  0.65146449407E+03 0.  0.
         13    1    3    3    0    0 -0.14584563756E+02 -0.21443241637E+03  0.31378549732E+02  0.21720631683E+03  0.00000000000E+00 0. -1.
          4    1    3    3  501    0  0.14584563756E+02  0.21443241637E+03  0.86251995351E+03  0.88889517992E+03  0.00000000000E+00 0. -1.
<mgrwt>
<rscale>  0 0.65146449E+03</rscale>
<asrwt>0</asrwt>
<pdfrwt beam="1">0</pdfrwt>
<pdfrwt beam="2">  1        2 0.38582444E+00 0.65146449E+03</pdfrwt>
<totfact> 0.44977917E+00</totfact>
</mgrwt>
</event>
<event>
 5    1  0.2368916E-004  0.6403053E+03  0.7818608E-02  0.9825143E-01
         13   -1    0    0    0    0  0.00000000000E+00  0.00000000000E+00  0.10000000000E+04  0.10000000000E+04  0.00000000000E+00 0. -1.
          2   -1    0    0  501    0 -0.00000000000E+00 -0.00000000000E+00 -0.10249772204E+03  0.10249772204E+03  0.00000000000E+00 0. -1.
    9000006    2    1    2  501    0  0.00000000000E+00  0.00000000000E+00  0.89750227796E+03  0.11024977220E+04  0.64030530855E+03 0.  0.
         13    1    3    3    0    0 -0.64101220937E+02  0.70319703336E+02 -0.77588483184E+02  0.12277540440E+03  0.00000000000E+00 0. -1.
          4    1    3    3  501    0  0.64101220937E+02 -0.70319703336E+02  0.97509076115E+03  0.97972231764E+03  0.00000000000E+00 0. -1.
<mgrwt>
<rscale>  0 0.64030531E+03</rscale>
<asrwt>0</asrwt>
<pdfrwt beam="1">0</pdfrwt>
<pdfrwt beam="2">  1        2 0.37271978E+00 0.64030531E+03</pdfrwt>
<totfact> 0.50315495E+00</totfact>
</mgrwt>
</event>
<event>
 5    1  0.2368916E-004  0.6471178E+03  0.7818608E-02  0.9812203E-01
         13   -1    0    0    0    0  0.00000000000E+00  0.00000000000E+00  0.10000000000E+04  0.10000000000E+04  0.00000000000E+00 0. -1.
          2   -1    0    0  501    0 -0.00000000000E+00 -0.00000000000E+00 -0.10469035066E+03  0.10469035066E+03  0.00000000000E+00 0. -1.
    9000006    2    1    2  501    0  0.00000000000E+00  0.00000000000E+00  0.89530964934E+03  0.11046903507E+04  0.64711776567E+03 0.  0.
         13    1    3    3    0    0  0.74426167463E+02  0.22911695051E+03  0.81638901216E+03  0.85119025522E+03  0.00000000000E+00 0. -1.
          2    1    3    3  501    0 -0.74426167463E+02 -0.22911695051E+03  0.78920637184E+02  0.25350009544E+03  0.00000000000E+00 0. -1.
<mgrwt>
<rscale>  0 0.64711777E+03</rscale>
<asrwt>0</asrwt>
<pdfrwt beam="1">0</pdfrwt>
<pdfrwt beam="2">  1        2 0.38069299E+00 0.64711777E+03</pdfrwt>
<totfact> 0.47003266E+00</totfact>
</mgrwt>
</event>
<event>
 5    1  0.2368916E-004  0.6748177E+03  0.7818608E-02  0.9761294E-01
         13   -1    0    0    0    0  0.00000000000E+00  0.00000000000E+00  0.10000000000E+04  0.10000000000E+04  0.00000000000E+00 0. -1.
          2   -1    0    0  501    0 -0.00000000000E+00 -0.00000000000E+00 -0.11384472544E+03  0.11384472544E+03  0.00000000000E+00 0. -1.
    9000006    2    1    2  501    0  0.00000000000E+00  0.00000000000E+00  0.88615527456E+03  0.11138447254E+04  0.67481768037E+03 0.  0.
         13    1    3    3    0    0  0.23549809893E+03  0.20642710364E+03  0.65037720860E+03  0.72184625592E+03  0.00000000000E+00 0. -1.
          2    1    3    3  501    0 -0.23549809893E+03 -0.20642710364E+03  0.23577806597E+03  0.39199846952E+03  0.00000000000E+00 0. -1.
<mgrwt>
<rscale>  0 0.67481768E+03</rscale>
<asrwt>0</asrwt>
<pdfrwt beam="1">0</pdfrwt>
<pdfrwt beam="2">  1        2 0.41398169E+00 0.67481768E+03</pdfrwt>
<totfact> 0.35200137E+00</totfact>
</mgrwt>
</event>
<event>
 5    1  0.2368916E-004  0.6476679E+03  0.7818608E-02  0.9811165E-01
         13   -1    0    0    0    0  0.00000000000E+00  0.00000000000E+00  0.10000000000E+04  0.10000000000E+04  0.00000000000E+00 0. -1.
          2   -1    0    0  501    0 -0.00000000000E+00 -0.00000000000E+00 -0.10486842683E+03  0.10486842683E+03  0.00000000000E+00 0. -1.
    9000006    2    1    2  501    0  0.00000000000E+00  0.00000000000E+00  0.89513157317E+03  0.11048684268E+04  0.64766789895E+03 0.  0.
         13    1    3    3    0    0 -0.39879700479E+02  0.13756352245E+03 -0.47897910477E+02  0.15102424656E+03  0.00000000000E+00 0. -1.
          2    1    3    3  501    0  0.39879700479E+02 -0.13756352245E+03  0.94302948365E+03  0.95384418028E+03  0.00000000000E+00 0. -1.
<mgrwt>
<rscale>  0 0.64766790E+03</rscale>
<asrwt>0</asrwt>
<pdfrwt beam="1">0</pdfrwt>
<pdfrwt beam="2">  1        2 0.38134054E+00 0.64766790E+03</pdfrwt>
<totfact> 0.46743195E+00</totfact>
</mgrwt>
</event>
<event>
 5    1  0.2368916E-004  0.6450545E+03  0.7818608E-02  0.9816104E-01
         13   -1    0    0    0    0  0.00000000000E+00  0.00000000000E+00  0.10000000000E+04  0.10000000000E+04  0.00000000000E+00 0. -1.
          2   -1    0    0  501    0 -0.00000000000E+00 -0.00000000000E+00 -0.10402382425E+03  0.10402382425E+03  0.00000000000E+00 0. -1.
    9000006    2    1    2  501    0  0.00000000000E+00  0.00000000000E+00  0.89597617575E+03  0.11040238243E+04  0.64505449150E+03 0.  0.
         13    1    3    3    0    0 -0.87591073294E+02  0.20206178054E+03  0.85127784646E+03  0.87930377638E+03  0.00000000000E+00 0. -1.
          4    1    3    3  501    0  0.87591073294E+02 -0.20206178054E+03  0.44698329285E+02  0.22472004787E+03  0.00000000000E+00 0. -1.
<mgrwt>
<rscale>  0 0.64505449E+03</rscale>
<asrwt>0</asrwt>
<pdfrwt beam="1">0</pdfrwt>
<pdfrwt beam="2">  1        2 0.37826925E+00 0.64505449E+03</pdfrwt>
<totfact> 0.47988424E+00</totfact>
</mgrwt>
</event>
<event>
 5    1  0.2368916E-004  0.6762982E+03  0.7818608E-02  0.9758647E-01
         13   -1    0    0    0    0  0.00000000000E+00  0.00000000000E+00  0.10000000000E+04  0.10000000000E+04  0.00000000000E+00 0. -1.
          2   -1    0    0  501    0 -0.00000000000E+00 -0.00000000000E+00 -0.11434482090E+03  0.11434482090E+03  0.00000000000E+00 0. -1.
    9000006    2    1    2  501    0  0.00000000000E+00  0.00000000000E+00  0.88565517910E+03  0.11143448209E+04  0.67629822090E+03 0.  0.
         13    1    3    3    0    0 -0.27953505028E+02 -0.11233030419E+02  0.99778439623E+03  0.99823908999E+03  0.00000000000E+00 0. -1.
          4    1    3    3  501    0  0.27953505028E+02  0.11233030419E+02 -0.11212921713E+03  0.11610573091E+03  0.00000000000E+00 0. -1.
<mgrwt>
<rscale>  0 0.67629822E+03</rscale>
<asrwt>0</asrwt>
<pdfrwt beam="1">0</pdfrwt>
<pdfrwt beam="2">  1        2 0.41580023E+00 0.67629822E+03</pdfrwt>
<totfact> 0.34639743E+00</totfact>
</mgrwt>
</event>
<event>
 5    1  0.2368916E-004  0.6602292E+03  0.7818608E-02  0.9787772E-01
         13   -1    0    0    0    0  0.00000000000E+00  0.00000000000E+00  0.10000000000E+04  0.10000000000E+04  0.00000000000E+00 0. -1.
          2   -1    0    0  501    0 -0.00000000000E+00 -0.00000000000E+00 -0.10897566356E+03  0.10897566356E+03  0.00000000000E+00 0. -1.
    9000006    2    1    2  501    0  0.00000000000E+00  0.00000000000E+00  0.89102433644E+03  0.11089756636E+04  0.66022924369E+03 0.  0.
         13    1    3    3    0    0 -0.19364936604E+03 -0.21878295164E+03  0.18742189654E+03  0.34712105122E+03  0.00000000000E+00 0. -1.
          4    1    3    3  501    0  0.19364936604E+03  0.21878295164E+03  0.70360243991E+03  0.76185461234E+03  0.00000000000E+00 0. -1.
<mgrwt>
<rscale>  0 0.66022924E+03</rscale>
<asrwt>0</asrwt>
<pdfrwt beam="1">0</pdfrwt>
<pdfrwt beam="2">  1        2 0.39627598E+00 0.66022924E+03</pdfrwt>
<totfact> 0.41095170E+00</totfact>
</mgrwt>
</event>
<event>
 5    1  0.2368916E-004  0.6502737E+03  0.7818608E-02  0.9806266E-01
         13   -1    0    0    0    0  0.00000000000E+00  0.00000000000E+00  0.10000000000E+04  0.10000000000E+04  0.00000000000E+00 0. -1.
          2   -1    0    0  501    0 -0.00000000000E+00 -0.00000000000E+00 -0.10571398141E+03  0.10571398141E+03  0.00000000000E+00 0. -1.
    9000006    2    1    2  501    0  0.00000000000E+00  0.00000000000E+00  0.89428601859E+03  0.11057139814E+04  0.65027373132E+03 0.  0.
         13    1    3    3    0    0  0.67429509500E+02  0.27349342569E+03  0.17102798778E+03  0.32953901932E+03  0.00000000000E+00 0. -1.
          4    1    3    3  501    0 -0.67429509500E+02 -0.27349342569E+03  0.72325803081E+03  0.77617496209E+03  0.00000000000E+00 0. -1.
<mgrwt>
<rscale>  0 0.65027373E+03</rscale>
<asrwt>0</asrwt>
<pdfrwt beam="1">0</pdfrwt>
<pdfrwt beam="2">  1        2 0.38441529E+00 0.65027373E+03</pdfrwt>
<totfact> 0.45526056E+00</totfact>
</mgrwt>
</event>
<event>
 5    1  0.2368916E-004  0.6943726E+03  0.7818608E-02  0.9726905E-01
         13   -1    0    0    0    0  0.00000000000E+00  0.00000000000E+00  0.10000000000E+04  0.10000000000E+04  0.00000000000E+00 0. -1.
          2   -1    0    0  501    0 -0.00000000000E+00 -0.00000000000E+00 -0.12053831274E+03  0.12053831274E+03  0.00000000000E+00 0. -1.
    9000006    2    1    2  501    0  0.00000000000E+00  0.00000000000E+00  0.87946168726E+03  0.11205383127E+04  0.69437255918E+03 0.  0.
         13    1    3    3    0    0  0.11416317493E+03  0.29202400740E+02 -0.87279667817E+02  0.14664157368E+03  0.00000000000E+00 0. -1.
          4    1    3    3  501    0 -0.11416317493E+03 -0.29202400740E+02  0.96674135508E+03  0.97389673905E+03  0.00000000000E+00 0. -1.
<mgrwt>
<rscale>  0 0.69437256E+03</rscale>
<asrwt>0</asrwt>
<pdfrwt beam="1">0</pdfrwt>
<pdfrwt beam="2">  1        2 0.43832206E+00 0.69437256E+03</pdfrwt>
<totfact> 0.28325977E+00</totfact>
</mgrwt>
</event>
<event>
 5    1  0.2368916E-004  0.6871261E+03  0.7818608E-02  0.9739505E-01
         13   -1    0    0    0    0  0.00000000000E+00  0.00000000000E+00  0.10000000000E+04  0.10000000000E+04  0.00000000000E+00 0. -1.
          2   -1    0    0  501    0 -0.00000000000E+00 -0.00000000000E+00 -0.11803556773E+03  0.11803556773E+03  0.00000000000E+00 0. -1.
    9000006    2    1    2  501    0  0.00000000000E+00  0.00000000000E+00  0.88196443227E+03  0.11180355677E+04  0.68712609536E+03 0.  0.
         13    1    3    3    0    0 -0.32305885942E+03  0.93608844747E+02  0.32701507824E+03  0.46911459566E+03  0.00000000000E+00 0. -1.
          4    1    3    3  501    0  0.32305885942E+03 -0.93608844747E+02  0.55494935403E+03  0.64892097207E+03  0.00000000000E+00 0. -1.
<mgrwt>
<rscale>  0 0.68712610E+03</rscale>
<asrwt>0</asrwt>
<pdfrwt beam="1">0</pdfrwt>
<pdfrwt beam="2">  1        2 0.42922115E+00 0.68712610E+03</pdfrwt>
<totfact> 0.30742867E+00</totfact>
</mgrwt>
</event>
<event>
 5    1  0.2368916E-004  0.6493676E+03  0.7818608E-02  0.9807967E-01
         13   -1    0    0    0    0  0.00000000000E+00  0.00000000000E+00  0.10000000000E+04  0.10000000000E+04  0.00000000000E+00 0. -1.
          2   -1    0    0  501    0 -0.00000000000E+00 -0.00000000000E+00 -0.10541955668E+03  0.10541955668E+03  0.00000000000E+00 0. -1.
    9000006    2    1    2  501    0  0.00000000000E+00  0.00000000000E+00  0.89458044332E+03  0.11054195567E+04  0.64936755904E+03 0.  0.
         13    1    3    3    0    0  0.26799155349E+03 -0.65886133456E+02  0.15610653053E+03  0.31706419570E+03  0.00000000000E+00 0. -1.
          2    1    3    3  501    0 -0.26799155349E+03  0.65886133456E+02  0.73847391279E+03  0.78835536098E+03  0.00000000000E+00 0. -1.
<mgrwt>
<rscale>  0 0.64936756E+03</rscale>
<asrwt>0</asrwt>
<pdfrwt beam="1">0</pdfrwt>
<pdfrwt beam="2">  1        2 0.38334465E+00 0.64936756E+03</pdfrwt>
<totfact> 0.45946562E+00</totfact>
</mgrwt>
</event>
<event>
 5    1  0.2368916E-004  0.6417180E+03  0.7818608E-02  0.9822445E-01
         13   -1    0    0    0    0  0.00000000000E+00  0.00000000000E+00  0.10000000000E+04  0.10000000000E+04  0.00000000000E+00 0. -1.
          2   -1    0    0  501    0 -0.00000000000E+00 -0.00000000000E+00 -0.10295051210E+03  0.10295051210E+03  0.00000000000E+00 0. -1.
    9000006    2    1    2  501    0  0.00000000000E+00  0.00000000000E+00  0.89704948790E+03  0.11029505121E+04  0.64171804431E+03 0.  0.
         13    1    3    3    0    0  0.14025038813E+03  0.28851714511E+03  0.43790215411E+03  0.54283571269E+03  0.00000000000E+00 0. -1.
          2    1    3    3  501    0 -0.14025038813E+03 -0.28851714511E+03  0.45914733379E+03  0.56011479941E+03  0.00000000000E+00 0. -1.
<mgrwt>
<rscale>  0 0.64171804E+03</rscale>
<asrwt>0</asrwt>
<pdfrwt beam="1">0</pdfrwt>
<pdfrwt beam="2">  1        2 0.37436629E+00 0.64171804E+03</pdfrwt>
<totfact> 0.49614501E+00</totfact>
</mgrwt>
</event>
<event>
 5    1  0.2368916E-004  0.6511419E+03  0.7818608E-02  0.9804639E-01
         13   -1    0    0    0    0  0.00000000000E+00  0.00000000000E+00  0.10000000000E+04  0.10000000000E+04  0.00000000000E+00 0. -1.
          2   -1    0    0  501    0 -0.00000000000E+00 -0.00000000000E+00 -0.10599643037E+03  0.10599643037E+03  0.00000000000E+00 0. -1.
    9000006    2    1    2  501    0  0.00000000000E+00  0.00000000000E+00  0.89400356963E+03  0.11059964304E+04  0.65114185972E+03 0.  0.
         13    1    3    3    0    0 -0.23800401600E+03 -0.54300433139E+02  0.81288827485E+03  0.84875308309E+03  0.00000000000E+00 0. -1.
          4    1    3    3  501    0  0.23800401600E+03  0.54300433139E+02  0.81115294783E+02  0.25724334728E+03  0.00000000000E+00 0. -1.
<mgrwt>
<rscale>  0 0.65114186E+03</rscale>
<asrwt>0</asrwt>
<pdfrwt beam="1">0</pdfrwt>
<pdfrwt beam="2">  1        2 0.38544238E+00 0.65114186E+03</pdfrwt>
<totfact> 0.45125938E+00</totfact>
</mgrwt>
</event>
<event>
 5    1  0.2368916E-004  0.6504034E+03  0.7818608E-02  0.9806023E-01
         13   -1    0    0    0    0  0.00000000000E+00  0.00000000000E+00  0.10000000000E+04  0.10000000000E+04  0.00000000000E+00 0. -1.
          2   -1    0    0  501    0 -0.00000000000E+00 -0.00000000000E+00 -0.10575614120E+03  0.10575614120E+03  0.00000000000E+00 0. -1.
    9000006    2    1    2  501    0  0.00000000000E+00  0.00000000000E+00  0.89424385880E+03  0.11057561412E+04  0.65040338620E+03 0.  0.
         13    1    3    3    0    0 -0.12766601719E+03 -0.21886914957E+03  0.10055903058E+03  0.27260674095E+03  0.00000000000E+00 0. -1.
          2    1    3    3  501    0  0.12766601719E+03  0.21886914957E+03  0.79368482822E+03  0.83314940024E+03  0.00000000000E+00 0. -1.
<mgrwt>
<rscale>  0 0.65040339E+03</rscale>
<asrwt>0</asrwt>
<pdfrwt beam="1">0</pdfrwt>
<pdfrwt beam="2">  1        2 0.38456860E+00 0.65040339E+03</pdfrwt>
<totfact> 0.45466129E+00</totfact>
</mgrwt>
</event>
<event>
 5    1  0.2368916E-004  0.5408728E+03  0.7818608E-02  0.1003629E+00
         13   -1    0    0    0    0  0.00000000000E+00  0.00000000000E+00  0.10000000000E+04  0.10000000000E+04  0.00000000000E+00 0. -1.
          2   -1    0    0  501    0 -0.00000000000E+00 -0.00000000000E+00 -0.73135849436E+02  0.73135849436E+02  0.00000000000E+00 0. -1.
    9000006    2    1    2  501    0  0.00000000000E+00  0.00000000000E+00  0.92686415056E+03  0.10731358494E+04  0.54087281106E+03 0.  0.
         13    1    3    3    0    0 -0.39592789261E+02 -0.19558915213E+03  0.10129969105E+03  0.22379529218E+03  0.00000000000E+00 0. -1.
          4    1    3    3  501    0  0.39592789261E+02  0.19558915213E+03  0.82556445951E+03  0.84934055726E+03  0.00000000000E+00 0. -1.
<mgrwt>
<rscale>  0 0.54087281E+03</rscale>
<asrwt>0</asrwt>
<pdfrwt beam="1">0</pdfrwt>
<pdfrwt beam="2">  1        2 0.26594910E+00 0.54087281E+03</pdfrwt>
<totfact> 0.12219310E+01</totfact>
</mgrwt>
</event>
<event>
 5    1  0.2368916E-004  0.6563268E+03  0.7818608E-02  0.9794979E-01
         13   -1    0    0    0    0  0.00000000000E+00  0.00000000000E+00  0.10000000000E+04  0.10000000000E+04  0.00000000000E+00 0. -1.
          2   -1    0    0  501    0 -0.00000000000E+00 -0.00000000000E+00 -0.10769122229E+03  0.10769122229E+03  0.00000000000E+00 0. -1.
    9000006    2    1    2  501    0  0.00000000000E+00  0.00000000000E+00  0.89230877771E+03  0.11076912223E+04  0.65632681583E+03 0.  0.
         13    1    3    3    0    0 -0.14570697169E+03  0.21478544412E+03  0.78507770179E+03  0.82686776842E+03  0.00000000000E+00 0. -1.
          2    1    3    3  501    0  0.14570697169E+03 -0.21478544412E+03  0.10723107592E+03  0.28082345388E+03  0.00000000000E+00 0. -1.
<mgrwt>
<rscale>  0 0.65632682E+03</rscale>
<asrwt>0</asrwt>
<pdfrwt beam="1">0</pdfrwt>
<pdfrwt beam="2">  1        2 0.39160527E+00 0.65632682E+03</pdfrwt>
<totfact> 0.42791227E+00</totfact>
</mgrwt>
</event>
<event>
 5    1  0.2368916E-004  0.6552687E+03  0.7818608E-02  0.9796943E-01
         13   -1    0    0    0    0  0.00000000000E+00  0.00000000000E+00  0.10000000000E+04  0.10000000000E+04  0.00000000000E+00 0. -1.
          2   -1    0    0  501    0 -0.00000000000E+00 -0.00000000000E+00 -0.10734425989E+03  0.10734425989E+03  0.00000000000E+00 0. -1.
    9000006    2    1    2  501    0  0.00000000000E+00  0.00000000000E+00  0.89265574011E+03  0.11073442599E+04  0.65526867737E+03 0.  0.
         13    1    3    3    0    0  0.21352300507E+03  0.17959988155E+03  0.15609585410E+03  0.31970940995E+03  0.00000000000E+00 0. -1.
          2    1    3    3  501    0 -0.21352300507E+03 -0.17959988155E+03  0.73655988601E+03  0.78763484993E+03  0.00000000000E+00 0. -1.
<mgrwt>
<rscale>  0 0.65526868E+03</rscale>
<asrwt>0</asrwt>
<pdfrwt beam="1">0</pdfrwt>
<pdfrwt beam="2">  1        2 0.39034359E+00 0.65526868E+03</pdfrwt>
<totfact> 0.43260105E+00</totfact>
</mgrwt>
</event>
<event>
 5    1  0.2368916E-004  0.6510555E+03  0.7818608E-02  0.9804801E-01
         13   -1    0    0    0    0  0.00000000000E+00  0.00000000000E+00  0.10000000000E+04  0.10000000000E+04  0.00000000000E+00 0. -1.
          2   -1    0    0  501    0 -0.00000000000E+00 -0.00000000000E+00 -0.10596831680E+03  0.10596831680E+03  0.00000000000E+00 0. -1.
    9000006    2    1    2  501    0  0.00000000000E+00  0.00000000000E+00  0.89403168320E+03  0.11059683168E+04  0.65105550238E+03 0.  0.
         13    1    3    3    0    0 -0.70009931860E+02  0.84560048233E+02 -0.73573986699E+02  0.13215492361E+03  0.00000000000E+00 0. -1.
          2    1    3    3  501    0  0.70009931860E+02 -0.84560048233E+02  0.96760566990E+03  0.97381339318E+03  0.00000000000E+00 0. -1.
<mgrwt>
<rscale>  0 0.65105550E+03</rscale>
<asrwt>0</asrwt>
<pdfrwt beam="1">0</pdfrwt>
<pdfrwt beam="2">  1        2 0.38534015E+00 0.65105550E+03</pdfrwt>
<totfact> 0.45165621E+00</totfact>
</mgrwt>
</event>
<event>
 5    1  0.2368916E-004  0.6409996E+03  0.7818608E-02  0.9823816E-01
         13   -1    0    0    0    0  0.00000000000E+00  0.00000000000E+00  0.10000000000E+04  0.10000000000E+04  0.00000000000E+00 0. -1.
          2   -1    0    0  501    0 -0.00000000000E+00 -0.00000000000E+00 -0.10272011835E+03  0.10272011835E+03  0.00000000000E+00 0. -1.
    9000006    2    1    2  501    0  0.00000000000E+00  0.00000000000E+00  0.89727988165E+03  0.11027201183E+04  0.64099958922E+03 0.  0.
         13    1    3    3    0    0  0.20164159068E+03  0.67698041555E+02  0.36203079383E+02  0.21576148609E+03  0.00000000000E+00 0. -1.
          4    1    3    3  501    0 -0.20164159068E+03 -0.67698041555E+02  0.86107680227E+03  0.88695863226E+03  0.00000000000E+00 0. -1.
<mgrwt>
<rscale>  0 0.64099959E+03</rscale>
<asrwt>0</asrwt>
<pdfrwt beam="1">0</pdfrwt>
<pdfrwt beam="2">  1        2 0.37352849E+00 0.64099959E+03</pdfrwt>
<totfact> 0.49970065E+00</totfact>
</mgrwt>
</event>
<event>
 5    1  0.2368916E-004  0.6556971E+03  0.7818608E-02  0.9796147E-01
         13   -1    0    0    0    0  0.00000000000E+00  0.00000000000E+00  0.10000000000E+04  0.10000000000E+04  0.00000000000E+00 0. -1.
          2   -1    0    0  501    0 -0.00000000000E+00 -0.00000000000E+00 -0.10748466912E+03  0.10748466912E+03  0.00000000000E+00 0. -1.
    9000006    2    1    2  501    0  0.00000000000E+00  0.00000000000E+00  0.89251533088E+03  0.11074846691E+04  0.65569709201E+03 0.  0.
         13    1    3    3    0    0 -0.22873943384E+03 -0.14149327425E+02  0.84223346217E+03  0.87285688223E+03  0.00000000000E+00 0. -1.
          2    1    3    3  501    0  0.22873943384E+03  0.14149327425E+02  0.50281868717E+02  0.23462778689E+03  0.00000000000E+00 0. -1.
<mgrwt>
<rscale>  0 0.65569709E+03</rscale>
<asrwt>0</asrwt>
<pdfrwt beam="1">0</pdfrwt>
<pdfrwt beam="2">  1        2 0.39085417E+00 0.65569709E+03</pdfrwt>
<totfact> 0.43069802E+00</totfact>
</mgrwt>
</event>
<event>
 5    1  0.2368916E-004  0.6499788E+03  0.7818608E-02  0.9806819E-01
         13   -1    0    0    0    0  0.00000000000E+00  0.00000000000E+00  0.10000000000E+04  0.10000000000E+04  0.00000000000E+00 0. -1.
          2   -1    0    0  501    0 -0.00000000000E+00 -0.00000000000E+00 -0.10561811234E+03  0.10561811234E+03  0.00000000000E+00 0. -1.
    9000006    2    1    2  501    0  0.00000000000E+00  0.00000000000E+00  0.89438188766E+03  0.11056181123E+04  0.64997880684E+03 0.  0.
         13    1    3    3    0    0  0.17804353421E+03 -0.25506654541E+03  0.28708232418E+03  0.42329033006E+03  0.00000000000E+00 0. -1.
          2    1    3    3  501    0 -0.17804353421E+03  0.25506654541E+03  0.60729956348E+03  0.68232778228E+03  0.00000000000E+00 0. -1.
<mgrwt>
<rscale>  0 0.64997881E+03</rscale>
<asrwt>0</asrwt>
<pdfrwt beam="1">0</pdfrwt>
<pdfrwt beam="2">  1        2 0.38406667E+00 0.64997881E+03</pdfrwt>
<totfact> 0.45662594E+00</totfact>
</mgrwt>
</event>
<event>
 5    1  0.2368916E-004  0.6475206E+03  0.7818608E-02  0.9811443E-01
         13   -1    0    0    0    0  0.00000000000E+00  0.00000000000E+00  0.10000000000E+04  0.10000000000E+04  0.00000000000E+00 0. -1.
          2   -1    0    0  501    0 -0.00000000000E+00 -0.00000000000E+00 -0.10482074140E+03  0.10482074140E+03  0.00000000000E+00 0. -1.
    9000006    2    1    2  501    0  0.00000000000E+00  0.00000000000E+00  0.89517925860E+03  0.11048207414E+04  0.64752062949E+03 0.  0.
         13    1    3    3    0    0  0.95949489341E+02 -0.30715638414E+03  0.50838019544E+03  0.60166583079E+03  0.00000000000E+00 0. -1.
          2    1    3    3  501    0 -0.95949489341E+02  0.30715638414E+03  0.38679906315E+03  0.50315491062E+03  0.00000000000E+00 0. -1.
<mgrwt>
<rscale>  0 0.64752063E+03</rscale>
<asrwt>0</asrwt>
<pdfrwt beam="1">0</pdfrwt>
<pdfrwt beam="2">  1        2 0.38116714E+00 0.64752063E+03</pdfrwt>
<totfact> 0.46812708E+00</totfact>
</mgrwt>
</event>
<event>
 5    1  0.2368916E-004  0.5663604E+03  0.7818608E-02  0.9977765E-01
         13   -1    0    0    0    0  0.00000000000E+00  0.00000000000E+00  0.10000000000E+04  0.10000000000E+04  0.00000000000E+00 0. -1.
          2   -1    0    0  501    0 -0.00000000000E+00 -0.00000000000E+00 -0.80191011908E+02  0.80191011908E+02  0.00000000000E+00 0. -1.
    9000006    2    1    2  501    0  0.00000000000E+00  0.00000000000E+00  0.91980898809E+03  0.10801910119E+04  0.56636035139E+03 0.  0.
         13    1    3    3    0    0  0.16666005347E+03  0.13843117707E+03  0.11211358942E+03  0.24394306946E+03  0.00000000000E+00 0. -1.
          2    1    3    3  501    0 -0.16666005347E+03 -0.13843117707E+03  0.80769539867E+03  0.83624794244E+03  0.00000000000E+00 0. -1.
<mgrwt>
<rscale>  0 0.56636035E+03</rscale>
<asrwt>0</asrwt>
<pdfrwt beam="1">0</pdfrwt>
<pdfrwt beam="2">  1        2 0.29160429E+00 0.56636035E+03</pdfrwt>
<totfact> 0.98935590E+00</totfact>
</mgrwt>
</event>
<event>
 5    1  0.2368916E-004  0.6480804E+03  0.7818608E-02  0.9810388E-01
         13   -1    0    0    0    0  0.00000000000E+00  0.00000000000E+00  0.10000000000E+04  0.10000000000E+04  0.00000000000E+00 0. -1.
          2   -1    0    0  501    0 -0.00000000000E+00 -0.00000000000E+00 -0.10500203737E+03  0.10500203737E+03  0.00000000000E+00 0. -1.
    9000006    2    1    2  501    0  0.00000000000E+00  0.00000000000E+00  0.89499796263E+03  0.11050020374E+04  0.64808035727E+03 0.  0.
         13    1    3    3    0    0 -0.43265903292E+02  0.21746309774E+03  0.44590382141E+02  0.22616462908E+03  0.00000000000E+00 0. -1.
          2    1    3    3  501    0  0.43265903292E+02 -0.21746309774E+03  0.85040758049E+03  0.87883740829E+03  0.00000000000E+00 0. -1.
<mgrwt>
<rscale>  0 0.64808036E+03</rscale>
<asrwt>0</asrwt>
<pdfrwt beam="1">0</pdfrwt>
<pdfrwt beam="2">  1        2 0.38182640E+00 0.64808036E+03</pdfrwt>
<totfact> 0.46548923E+00</totfact>
</mgrwt>
</event>
<event>
 5    1  0.2368916E-004  0.6472049E+03  0.7818608E-02  0.9812038E-01
         13   -1    0    0    0    0  0.00000000000E+00  0.00000000000E+00  0.10000000000E+04  0.10000000000E+04  0.00000000000E+00 0. -1.
          2   -1    0    0  501    0 -0.00000000000E+00 -0.00000000000E+00 -0.10471855370E+03  0.10471855370E+03  0.00000000000E+00 0. -1.
    9000006    2    1    2  501    0  0.00000000000E+00  0.00000000000E+00  0.89528144630E+03  0.11047185537E+04  0.64720492488E+03 0.  0.
         13    1    3    3    0    0  0.19364354083E+03 -0.20651413579E+03  0.71520971579E+03  0.76920143444E+03  0.00000000000E+00 0. -1.
          2    1    3    3  501    0 -0.19364354083E+03  0.20651413579E+03  0.18007173052E+03  0.33551711926E+03  0.00000000000E+00 0. -1.
<mgrwt>
<rscale>  0 0.64720492E+03</rscale>
<asrwt>0</asrwt>
<pdfrwt beam="1">0</pdfrwt>
<pdfrwt beam="2">  1        2 0.38079554E+00 0.64720492E+03</pdfrwt>
<totfact> 0.46961989E+00</totfact>
</mgrwt>
</event>
<event>
 5    1  0.2368916E-004  0.6280581E+03  0.7818608E-02  0.9848846E-01
         13   -1    0    0    0    0  0.00000000000E+00  0.00000000000E+00  0.10000000000E+04  0.10000000000E+04  0.00000000000E+00 0. -1.
          2   -1    0    0  501    0 -0.00000000000E+00 -0.00000000000E+00 -0.98614245238E+02  0.98614245238E+02  0.00000000000E+00 0. -1.
    9000006    2    1    2  501    0  0.00000000000E+00  0.00000000000E+00  0.90138575476E+03  0.10986142452E+04  0.62805810317E+03 0.  0.
         13    1    3    3    0    0 -0.13768152349E+01  0.86254090294E+02 -0.77481742889E+02  0.11595293956E+03  0.00000000000E+00 0. -1.
          2    1    3    3  501    0  0.13768152349E+01 -0.86254090294E+02  0.97886749765E+03  0.98266130567E+03  0.00000000000E+00 0. -1.
<mgrwt>
<rscale>  0 0.62805810E+03</rscale>
<asrwt>0</asrwt>
<pdfrwt beam="1">0</pdfrwt>
<pdfrwt beam="2">  1        2 0.35859801E+00 0.62805810E+03</pdfrwt>
<totfact> 0.56711860E+00</totfact>
</mgrwt>
</event>
<event>
 5    1  0.2368916E-004  0.6132645E+03  0.7818608E-02  0.9878262E-01
         13   -1    0    0    0    0  0.00000000000E+00  0.00000000000E+00  0.10000000000E+04  0.10000000000E+04  0.00000000000E+00 0. -1.
          2   -1    0    0  501    0 -0.00000000000E+00 -0.00000000000E+00 -0.94023347586E+02  0.94023347586E+02  0.00000000000E+00 0. -1.
    9000006    2    1    2  501    0  0.00000000000E+00  0.00000000000E+00  0.90597665241E+03  0.10940233476E+04  0.61326453537E+03 0.  0.
         13    1    3    3    0    0 -0.29413035114E+03 -0.85347120523E+02  0.47983953165E+03  0.56924754771E+03  0.00000000000E+00 0. -1.
          2    1    3    3  501    0  0.29413035114E+03  0.85347120523E+02  0.42613712076E+03  0.52477579987E+03  0.00000000000E+00 0. -1.
<mgrwt>
<rscale>  0 0.61326454E+03</rscale>
<asrwt>0</asrwt>
<pdfrwt beam="1">0</pdfrwt>
<pdfrwt beam="2">  1        2 0.34190380E+00 0.61326454E+03</pdfrwt>
<totfact> 0.65241949E+00</totfact>
</mgrwt>
</event>
<event>
 5    1  0.2368916E-004  0.6550112E+03  0.7818608E-02  0.9797421E-01
         13   -1    0    0    0    0  0.00000000000E+00  0.00000000000E+00  0.10000000000E+04  0.10000000000E+04  0.00000000000E+00 0. -1.
          2   -1    0    0  501    0 -0.00000000000E+00 -0.00000000000E+00 -0.10725992897E+03  0.10725992897E+03  0.00000000000E+00 0. -1.
    9000006    2    1    2  501    0  0.00000000000E+00  0.00000000000E+00  0.89274007103E+03  0.11072599290E+04  0.65501123341E+03 0.  0.
         13    1    3    3    0    0  0.25111323385E+02 -0.21091471748E+03  0.86777689295E+03  0.89339371642E+03  0.00000000000E+00 0. -1.
          4    1    3    3  501    0 -0.25111323385E+02  0.21091471748E+03  0.24963178079E+02  0.21386621255E+03  0.00000000000E+00 0. -1.
<mgrwt>
<rscale>  0 0.65501123E+03</rscale>
<asrwt>0</asrwt>
<pdfrwt beam="1">0</pdfrwt>
<pdfrwt beam="2">  1        2 0.39003693E+00 0.65501123E+03</pdfrwt>
<totfact> 0.43374766E+00</totfact>
</mgrwt>
</event>
<event>
 5    1  0.2368916E-004  0.6511854E+03  0.7818608E-02  0.9804557E-01
         13   -1    0    0    0    0  0.00000000000E+00  0.00000000000E+00  0.10000000000E+04  0.10000000000E+04  0.00000000000E+00 0. -1.
          2   -1    0    0  501    0 -0.00000000000E+00 -0.00000000000E+00 -0.10601060760E+03  0.10601060760E+03  0.00000000000E+00 0. -1.
    9000006    2    1    2  501    0  0.00000000000E+00  0.00000000000E+00  0.89398939240E+03  0.11060106076E+04  0.65118540403E+03 0.  0.
         13    1    3    3    0    0 -0.24279908715E+03  0.62616166308E+02  0.79976074862E+03  0.83814642876E+03  0.00000000000E+00 0. -1.
          4    1    3    3  501    0  0.24279908715E+03 -0.62616166308E+02  0.94228643774E+02  0.26786417885E+03  0.00000000000E+00 0. -1.
<mgrwt>
<rscale>  0 0.65118540E+03</rscale>
<asrwt>0</asrwt>
<pdfrwt beam="1">0</pdfrwt>
<pdfrwt beam="2">  1        2 0.38549393E+00 0.65118540E+03</pdfrwt>
<totfact> 0.45105939E+00</totfact>
</mgrwt>
</event>
<event>
 5    1  0.2368916E-004  0.6535579E+03  0.7818608E-02  0.9800126E-01
         13   -1    0    0    0    0  0.00000000000E+00  0.00000000000E+00  0.10000000000E+04  0.10000000000E+04  0.00000000000E+00 0. -1.
          2   -1    0    0  501    0 -0.00000000000E+00 -0.00000000000E+00 -0.10678449679E+03  0.10678449679E+03  0.00000000000E+00 0. -1.
    9000006    2    1    2  501    0  0.00000000000E+00  0.00000000000E+00  0.89321550321E+03  0.11067844968E+04  0.65355794477E+03 0.  0.
         13    1    3    3    0    0  0.22256562696E+03  0.10279746292E+03  0.80716189756E+02  0.25810439743E+03  0.00000000000E+00 0. -1.
          2    1    3    3  501    0 -0.22256562696E+03 -0.10279746292E+03  0.81249931345E+03  0.84868009936E+03  0.00000000000E+00 0. -1.
<mgrwt>
<rscale>  0 0.65355794E+03</rscale>
<asrwt>0</asrwt>
<pdfrwt beam="1">0</pdfrwt>
<pdfrwt beam="2">  1        2 0.38830808E+00 0.65355794E+03</pdfrwt>
<totfact> 0.44026351E+00</totfact>
</mgrwt>
</event>
<event>
 5    1  0.2368916E-004  0.6498673E+03  0.7818608E-02  0.9807028E-01
         13   -1    0    0    0    0  0.00000000000E+00  0.00000000000E+00  0.10000000000E+04  0.10000000000E+04  0.00000000000E+00 0. -1.
          2   -1    0    0  501    0 -0.00000000000E+00 -0.00000000000E+00 -0.10558189292E+03  0.10558189292E+03  0.00000000000E+00 0. -1.
    9000006    2    1    2  501    0  0.00000000000E+00  0.00000000000E+00  0.89441810708E+03  0.11055818929E+04  0.64986734930E+03 0.  0.
         13    1    3    3    0    0 -0.20307321798E+03 -0.25304306952E+03  0.47727660750E+03  0.57711566168E+03  0.00000000000E+00 0. -1.
          2    1    3    3  501    0  0.20307321798E+03  0.25304306952E+03  0.41714149958E+03  0.52846623124E+03  0.00000000000E+00 0. -1.
<mgrwt>
<rscale>  0 0.64986735E+03</rscale>
<asrwt>0</asrwt>
<pdfrwt beam="1">0</pdfrwt>
<pdfrwt beam="2">  1        2 0.38393497E+00 0.64986735E+03</pdfrwt>
<totfact> 0.45714275E+00</totfact>
</mgrwt>
</event>
<event>
 5    1  0.2368916E-004  0.6378782E+03  0.7818608E-02  0.9829795E-01
         13   -1    0    0    0    0  0.00000000000E+00  0.00000000000E+00  0.10000000000E+04  0.10000000000E+04  0.00000000000E+00 0. -1.
          2   -1    0    0  501    0 -0.00000000000E+00 -0.00000000000E+00 -0.10172215062E+03  0.10172215062E+03  0.00000000000E+00 0. -1.
    9000006    2    1    2  501    0  0.00000000000E+00  0.00000000000E+00  0.89827784938E+03  0.11017221506E+04  0.63787820349E+03 0.  0.
         13    1    3    3    0    0  0.72614684443E+01 -0.18819240354E+03  0.45719194920E+01  0.18838792987E+03  0.00000000000E+00 0. -1.
          4    1    3    3  501    0 -0.72614684443E+01  0.18819240354E+03  0.89370592989E+03  0.91333422075E+03  0.00000000000E+00 0. -1.
<mgrwt>
<rscale>  0 0.63787820E+03</rscale>
<asrwt>0</asrwt>
<pdfrwt beam="1">0</pdfrwt>
<pdfrwt beam="2">  1        2 0.36989951E+00 0.63787820E+03</pdfrwt>
<totfact> 0.51537299E+00</totfact>
</mgrwt>
</event>
<event>
 5    1  0.2368916E-004  0.6540060E+03  0.7818608E-02  0.9799291E-01
         13   -1    0    0    0    0  0.00000000000E+00  0.00000000000E+00  0.10000000000E+04  0.10000000000E+04  0.00000000000E+00 0. -1.
          2   -1    0    0  501    0 -0.00000000000E+00 -0.00000000000E+00 -0.10693096944E+03  0.10693096944E+03  0.00000000000E+00 0. -1.
    9000006    2    1    2  501    0  0.00000000000E+00  0.00000000000E+00  0.89306903056E+03  0.11069309694E+04  0.65400602274E+03 0.  0.
         13    1    3    3    0    0 -0.28068445382E+03  0.16493997319E+03  0.39458673142E+03  0.51155414765E+03  0.00000000000E+00 0. -1.
          4    1    3    3  501    0  0.28068445382E+03 -0.16493997319E+03  0.49848229914E+03  0.59537682179E+03  0.00000000000E+00 0. -1.
<mgrwt>
<rscale>  0 0.65400602E+03</rscale>
<asrwt>0</asrwt>
<pdfrwt beam="1">0</pdfrwt>
<pdfrwt beam="2">  1        2 0.38884071E+00 0.65400602E+03</pdfrwt>
<totfact> 0.43824672E+00</totfact>
</mgrwt>
</event>
<event>
 5    1  0.2368916E-004  0.6440080E+03  0.7818608E-02  0.9818088E-01
         13   -1    0    0    0    0  0.00000000000E+00  0.00000000000E+00  0.10000000000E+04  0.10000000000E+04  0.00000000000E+00 0. -1.
          2   -1    0    0  501    0 -0.00000000000E+00 -0.00000000000E+00 -0.10368656143E+03  0.10368656143E+03  0.00000000000E+00 0. -1.
    9000006    2    1    2  501    0  0.00000000000E+00  0.00000000000E+00  0.89631343857E+03  0.11036865614E+04  0.64400795471E+03 0.  0.
         13    1    3    3    0    0  0.21539305298E+03  0.11970358754E+03  0.92931269211E+02  0.26336160870E+03  0.00000000000E+00 0. -1.
          2    1    3    3  501    0 -0.21539305298E+03 -0.11970358754E+03  0.80338216936E+03  0.84032495273E+03  0.00000000000E+00 0. -1.
<mgrwt>
<rscale>  0 0.64400795E+03</rscale>
<asrwt>0</asrwt>
<pdfrwt beam="1">0</pdfrwt>
<pdfrwt beam="2">  1        2 0.37704284E+00 0.64400795E+03</pdfrwt>
<totfact> 0.48494049E+00</totfact>
</mgrwt>
</event>
<event>
 5    1  0.2368916E-004  0.6638133E+03  0.7818608E-02  0.9781199E-01
         13   -1    0    0    0    0  0.00000000000E+00  0.00000000000E+00  0.10000000000E+04  0.10000000000E+04  0.00000000000E+00 0. -1.
          2   -1    0    0  501    0 -0.00000000000E+00 -0.00000000000E+00 -0.11016201999E+03  0.11016201999E+03  0.00000000000E+00 0. -1.
    9000006    2    1    2  501    0  0.00000000000E+00  0.00000000000E+00  0.88983798001E+03  0.11101620200E+04  0.66381328698E+03 0.  0.
         13    1    3    3    0    0  0.16803264205E+03  0.15932233825E+03  0.84259697730E+03  0.87383536345E+03  0.00000000000E+00 0. -1.
          2    1    3    3  501    0 -0.16803264205E+03 -0.15932233825E+03  0.47241002709E+02  0.23632665655E+03  0.00000000000E+00 0. -1.
<mgrwt>
<rscale>  0 0.66381329E+03</rscale>
<asrwt>0</asrwt>
<pdfrwt beam="1">0</pdfrwt>
<pdfrwt beam="2">  1        2 0.40059001E+00 0.66381329E+03</pdfrwt>
<totfact> 0.39582714E+00</totfact>
</mgrwt>
</event>
<event>
 5    1  0.2368916E-004  0.6546592E+03  0.7818608E-02  0.9798076E-01
         13   -1    0    0    0    0  0.00000000000E+00  0.00000000000E+00  0.10000000000E+04  0.10000000000E+04  0.00000000000E+00 0. -1.
          2   -1    0    0  501    0 -0.00000000000E+00 -0.00000000000E+00 -0.10714467939E+03  0.10714467939E+03  0.00000000000E+00 0. -1.
    9000006    2    1    2  501    0  0.00000000000E+00  0.00000000000E+00  0.89285532061E+03  0.11071446794E+04  0.65465923775E+03 0.  0.
         13    1    3    3    0    0 -0.21363888200E+03  0.20937650338E+03  0.67119894344E+03  0.73483883521E+03  0.00000000000E+00 0. -1.
          4    1    3    3  501    0  0.21363888200E+03 -0.20937650338E+03  0.22165637717E+03  0.37230584418E+03  0.00000000000E+00 0. -1.
<mgrwt>
<rscale>  0 0.65465924E+03</rscale>
<asrwt>0</asrwt>
<pdfrwt beam="1">0</pdfrwt>
<pdfrwt beam="2">  1        2 0.38961784E+00 0.65465924E+03</pdfrwt>
<totfact> 0.43531911E+00</totfact>
</mgrwt>
</event>
<event>
 5    1  0.2368916E-004  0.5949811E+03  0.7818608E-02  0.9915874E-01
         13   -1    0    0    0    0  0.00000000000E+00  0.00000000000E+00  0.10000000000E+04  0.10000000000E+04  0.00000000000E+00 0. -1.
          2   -1    0    0  501    0 -0.00000000000E+00 -0.00000000000E+00 -0.88500620070E+02  0.88500620070E+02  0.00000000000E+00 0. -1.
    9000006    2    1    2  501    0  0.00000000000E+00  0.00000000000E+00  0.91149937993E+03  0.10885006201E+04  0.59498107556E+03 0.  0.
         13    1    3    3    0    0 -0.22618813506E+03 -0.69988255831E+02  0.12623564694E+03  0.26831859226E+03  0.00000000000E+00 0. -1.
          4    1    3    3  501    0  0.22618813506E+03  0.69988255831E+02  0.78526373299E+03  0.82018202781E+03  0.00000000000E+00 0. -1.
<mgrwt>
<rscale>  0 0.59498108E+03</rscale>
<asrwt>0</asrwt>
<pdfrwt beam="1">0</pdfrwt>
<pdfrwt beam="2">  1        2 0.32182112E+00 0.59498108E+03</pdfrwt>
<totfact> 0.77100828E+00</totfact>
</mgrwt>
</event>
<event>
 5    1  0.2368916E-004  0.6515737E+03  0.7818608E-02  0.9803831E-01
         13   -1    0    0    0    0  0.00000000000E+00  0.00000000000E+00  0.10000000000E+04  0.10000000000E+04  0.00000000000E+00 0. -1.
          2   -1    0    0  501    0 -0.00000000000E+00 -0.00000000000E+00 -0.10613708563E+03  0.10613708563E+03  0.00000000000E+00 0. -1.
    9000006    2    1    2  501    0  0.00000000000E+00  0.00000000000E+00  0.89386291437E+03  0.11061370856E+04  0.65157374298E+03 0.  0.
         13    1    3    3    0    0  0.13299463695E+03  0.10712736547E+03  0.91792533434E+03  0.93367594235E+03  0.00000000000E+00 0. -1.
          2    1    3    3  501    0 -0.13299463695E+03 -0.10712736547E+03 -0.24062419976E+02  0.17246114329E+03  0.00000000000E+00 0. -1.
<mgrwt>
<rscale>  0 0.65157374E+03</rscale>
<asrwt>0</asrwt>
<pdfrwt beam="1">0</pdfrwt>
<pdfrwt beam="2">  1        2 0.38595385E+00 0.65157374E+03</pdfrwt>
<totfact> 0.44927877E+00</totfact>
</mgrwt>
</event>
<event>
 5    1  0.2368916E-004  0.6524733E+03  0.7818608E-02  0.9802149E-01
         13   -1    0    0    0    0  0.00000000000E+00  0.00000000000E+00  0.10000000000E+04  0.10000000000E+04  0.00000000000E+00 0. -1.
          2   -1    0    0  501    0 -0.00000000000E+00 -0.00000000000E+00 -0.10643036153E+03  0.10643036153E+03  0.00000000000E+00 0. -1.
    9000006    2    1    2  501    0  0.00000000000E+00  0.00000000000E+00  0.89356963847E+03  0.11064303615E+04  0.65247332980E+03 0.  0.
         13    1    3    3    0    0  0.92478084025E+02  0.28566503718E+03  0.23046125337E+03  0.37850904718E+03  0.00000000000E+00 0. -1.
          4    1    3    3  501    0 -0.92478084025E+02 -0.28566503718E+03  0.66310838510E+03  0.72792131435E+03  0.00000000000E+00 0. -1.
<mgrwt>
<rscale>  0 0.65247333E+03</rscale>
<asrwt>0</asrwt>
<pdfrwt beam="1">0</pdfrwt>
<pdfrwt beam="2">  1        2 0.38702031E+00 0.65247333E+03</pdfrwt>
<totfact> 0.44517437E+00</totfact>
</mgrwt>
</event>
<event>
 5    1  0.2368916E-004  0.6506130E+03  0.7818608E-02  0.9805630E-01
         13   -1    0    0    0    0  0.00000000000E+00  0.00000000000E+00  0.10000000000E+04  0.10000000000E+04  0.00000000000E+00 0. -1.
          2   -1    0    0  501    0 -0.00000000000E+00 -0.00000000000E+00 -0.10582430452E+03  0.10582430452E+03  0.00000000000E+00 0. -1.
    9000006    2    1    2  501    0  0.00000000000E+00  0.00000000000E+00  0.89417569548E+03  0.11058243045E+04  0.65061295566E+03 0.  0.
         13    1    3    3    0    0  0.54646818580E+02  0.29735578699E+03  0.24300364318E+03  0.38788852708E+03  0.00000000000E+00 0. -1.
          2    1    3    3  501    0 -0.54646818580E+02 -0.29735578699E+03  0.65117205230E+03  0.71793577744E+03  0.00000000000E+00 0. -1.
<mgrwt>
<rscale>  0 0.65061296E+03</rscale>
<asrwt>0</asrwt>
<pdfrwt beam="1">0</pdfrwt>
<pdfrwt beam="2">  1        2 0.38481646E+00 0.65061296E+03</pdfrwt>
<totfact> 0.45369391E+00</totfact>
</mgrwt>
</event>
<event>
 5    1  0.2368916E-004  0.6485854E+03  0.7818608E-02  0.9809437E-01
         13   -1    0    0    0    0  0.00000000000E+00  0.00000000000E+00  0.10000000000E+04  0.10000000000E+04  0.00000000000E+00 0. -1.
          2   -1    0    0  501    0 -0.00000000000E+00 -0.00000000000E+00 -0.10516575693E+03  0.10516575693E+03  0.00000000000E+00 0. -1.
    9000006    2    1    2  501    0  0.00000000000E+00  0.00000000000E+00  0.89483424307E+03  0.11051657569E+04  0.64858540510E+03 0.  0.
         13    1    3    3    0    0  0.15396608749E+03  0.83718970582E+02  0.91235667326E+03  0.92903666310E+03  0.00000000000E+00 0. -1.
          4    1    3    3  501    0 -0.15396608749E+03 -0.83718970582E+02 -0.17522430189E+02  0.17612909383E+03  0.00000000000E+00 0. -1.
<mgrwt>
<rscale>  0 0.64858541E+03</rscale>
<asrwt>0</asrwt>
<pdfrwt beam="1">0</pdfrwt>
<pdfrwt beam="2">  1        2 0.38242174E+00 0.64858541E+03</pdfrwt>
<totfact> 0.46311873E+00</totfact>
</mgrwt>
</event>
<event>
 5    1  0.2368916E-004  0.6499610E+03  0.7818608E-02  0.9806852E-01
         13   -1    0    0    0    0  0.00000000000E+00  0.00000000000E+00  0.10000000000E+04  0.10000000000E+04  0.00000000000E+00 0. -1.
          2   -1    0    0  501    0 -0.00000000000E+00 -0.00000000000E+00 -0.10561232892E+03  0.10561232892E+03  0.00000000000E+00 0. -1.
    9000006    2    1    2  501    0  0.00000000000E+00  0.00000000000E+00  0.89438767108E+03  0.11056123289E+04  0.64996101088E+03 0.  0.
         13    1    3    3    0    0 -0.91106619612E+01 -0.31998487898E+03  0.35188978432E+03  0.47570973004E+03  0.00000000000E+00 0. -1.
          4    1    3    3  501    0  0.91106619612E+01  0.31998487898E+03  0.54249788676E+03  0.62990259888E+03  0.00000000000E+00 0. -1.
<mgrwt>
<rscale>  0 0.64996101E+03</rscale>
<asrwt>0</asrwt>
<pdfrwt beam="1">0</pdfrwt>
<pdfrwt beam="2">  1        2 0.38404564E+00 0.64996101E+03</pdfrwt>
<totfact> 0.45670843E+00</totfact>
</mgrwt>
</event>
<event>
 5    1  0.2368916E-004  0.6710176E+03  0.7818608E-02  0.9768121E-01
         13   -1    0    0    0    0  0.00000000000E+00  0.00000000000E+00  0.10000000000E+04  0.10000000000E+04  0.00000000000E+00 0. -1.
          2   -1    0    0  501    0 -0.00000000000E+00 -0.00000000000E+00 -0.11256615330E+03  0.11256615330E+03  0.00000000000E+00 0. -1.
    9000006    2    1    2  501    0  0.00000000000E+00  0.00000000000E+00  0.88743384670E+03  0.11125661533E+04  0.67101759529E+03 0.  0.
         13    1    3    3    0    0 -0.34746661311E+02 -0.16326388514E+03  0.92626789487E+03  0.94118788758E+03  0.00000000000E+00 0. -1.
          4    1    3    3  501    0  0.34746661311E+02  0.16326388514E+03 -0.38834048168E+02  0.17137826572E+03  0.00000000000E+00 0. -1.
<mgrwt>
<rscale>  0 0.67101760E+03</rscale>
<asrwt>0</asrwt>
<pdfrwt beam="1">0</pdfrwt>
<pdfrwt beam="2">  1        2 0.40933233E+00 0.67101760E+03</pdfrwt>
<totfact> 0.36669849E+00</totfact>
</mgrwt>
</event>
<event>
 5    1  0.2368916E-004  0.6530416E+03  0.7818608E-02  0.9801088E-01
         13   -1    0    0    0    0  0.00000000000E+00  0.00000000000E+00  0.10000000000E+04  0.10000000000E+04  0.00000000000E+00 0. -1.
          2   -1    0    0  501    0 -0.00000000000E+00 -0.00000000000E+00 -0.10661583631E+03  0.10661583631E+03  0.00000000000E+00 0. -1.
    9000006    2    1    2  501    0  0.00000000000E+00  0.00000000000E+00  0.89338416369E+03  0.11066158363E+04  0.65304161064E+03 0.  0.
         13    1    3    3    0    0 -0.23604184882E+03 -0.33149027587E+02  0.82485246926E+03  0.85860130938E+03  0.00000000000E+00 0. -1.
          2    1    3    3  501    0  0.23604184882E+03  0.33149027587E+02  0.68531694428E+02  0.24801452692E+03  0.00000000000E+00 0. -1.
<mgrwt>
<rscale>  0 0.65304161E+03</rscale>
<asrwt>0</asrwt>
<pdfrwt beam="1">0</pdfrwt>
<pdfrwt beam="2">  1        2 0.38769477E+00 0.65304161E+03</pdfrwt>
<totfact> 0.44259621E+00</totfact>
</mgrwt>
</event>
<event>
 5    1  0.2368916E-004  0.6445985E+03  0.7818608E-02  0.9816968E-01
         13   -1    0    0    0    0  0.00000000000E+00  0.00000000000E+00  0.10000000000E+04  0.10000000000E+04  0.00000000000E+00 0. -1.
          2   -1    0    0  501    0 -0.00000000000E+00 -0.00000000000E+00 -0.10387680385E+03  0.10387680385E+03  0.00000000000E+00 0. -1.
    9000006    2    1    2  501    0  0.00000000000E+00  0.00000000000E+00  0.89612319615E+03  0.11038768039E+04  0.64459849163E+03 0.  0.
         13    1    3    3    0    0 -0.13215202912E+03  0.25718429336E+03  0.69186863948E+03  0.74986007618E+03  0.00000000000E+00 0. -1.
          4    1    3    3  501    0  0.13215202912E+03 -0.25718429336E+03  0.20425455667E+03  0.35401672768E+03  0.00000000000E+00 0. -1.
<mgrwt>
<rscale>  0 0.64459849E+03</rscale>
<asrwt>0</asrwt>
<pdfrwt beam="1">0</pdfrwt>
<pdfrwt beam="2">  1        2 0.37773463E+00 0.64459849E+03</pdfrwt>
<totfact> 0.48208243E+00</totfact>
</mgrwt>
</event>
<event>
 5    1  0.2368916E-004  0.6394150E+03  0.7818608E-02  0.9826846E-01
         13   -1    0    0    0    0  0.00000000000E+00  0.00000000000E+00  0.10000000000E+04  0.10000000000E+04  0.00000000000E+00 0. -1.
          2   -1    0    0  501    0 -0.00000000000E+00 -0.00000000000E+00 -0.10221289064E+03  0.10221289064E+03  0.00000000000E+00 0. -1.
    9000006    2    1    2  501    0  0.00000000000E+00  0.00000000000E+00  0.89778710936E+03  0.11022128906E+04  0.63941501591E+03 0.  0.
         13    1    3    3    0    0 -0.13808805743E+03 -0.28127889348E+03  0.55827929142E+03  0.64020457258E+03  0.00000000000E+00 0. -1.
          2    1    3    3  501    0  0.13808805743E+03  0.28127889348E+03  0.33950781793E+03  0.46200831806E+03  0.00000000000E+00 0. -1.
<mgrwt>
<rscale>  0 0.63941502E+03</rscale>
<asrwt>0</asrwt>
<pdfrwt beam="1">0</pdfrwt>
<pdfrwt beam="2">  1        2 0.37168402E+00 0.63941502E+03</pdfrwt>
<totfact> 0.50761091E+00</totfact>
</mgrwt>
</event>
<event>
 5    1  0.2368916E-004  0.6442464E+03  0.7818608E-02  0.9817636E-01
         13   -1    0    0    0    0  0.00000000000E+00  0.00000000000E+00  0.10000000000E+04  0.10000000000E+04  0.00000000000E+00 0. -1.
          2   -1    0    0  501    0 -0.00000000000E+00 -0.00000000000E+00 -0.10376335542E+03  0.10376335542E+03  0.00000000000E+00 0. -1.
    9000006    2    1    2  501    0  0.00000000000E+00  0.00000000000E+00  0.89623664458E+03  0.11037633554E+04  0.64424639827E+03 0.  0.
         13    1    3    3    0    0 -0.29836112524E+03  0.43227714274E+02  0.64252162879E+03  0.70973378093E+03  0.00000000000E+00 0. -1.
          2    1    3    3  501    0  0.29836112524E+03 -0.43227714274E+02  0.25371501579E+03  0.39402957449E+03  0.00000000000E+00 0. -1.
<mgrwt>
<rscale>  0 0.64424640E+03</rscale>
<asrwt>0</asrwt>
<pdfrwt beam="1">0</pdfrwt>
<pdfrwt beam="2">  1        2 0.37732209E+00 0.64424640E+03</pdfrwt>
<totfact> 0.48378494E+00</totfact>
</mgrwt>
</event>
<event>
 5    1  0.2368916E-004  0.6492195E+03  0.7818608E-02  0.9808245E-01
         13   -1    0    0    0    0  0.00000000000E+00  0.00000000000E+00  0.10000000000E+04  0.10000000000E+04  0.00000000000E+00 0. -1.
          2   -1    0    0  501    0 -0.00000000000E+00 -0.00000000000E+00 -0.10537147463E+03  0.10537147463E+03  0.00000000000E+00 0. -1.
    9000006    2    1    2  501    0  0.00000000000E+00  0.00000000000E+00  0.89462852537E+03  0.11053714746E+04  0.64921945329E+03 0.  0.
         13    1    3    3    0    0  0.18309803317E+03  0.23004903191E+03  0.68153401481E+03  0.74225067206E+03  0.00000000000E+00 0. -1.
          2    1    3    3  501    0 -0.18309803317E+03 -0.23004903191E+03  0.21309451056E+03  0.36312080257E+03  0.00000000000E+00 0. -1.
<mgrwt>
<rscale>  0 0.64921945E+03</rscale>
<asrwt>0</asrwt>
<pdfrwt beam="1">0</pdfrwt>
<pdfrwt beam="2">  1        2 0.38316981E+00 0.64921945E+03</pdfrwt>
<totfact> 0.46015568E+00</totfact>
</mgrwt>
</event>
<event>
 5    1  0.2368916E-004  0.5657519E+03  0.7818608E-02  0.9979123E-01
         13   -1    0    0    0    0  0.00000000000E+00  0.00000000000E+00  0.10000000000E+04  0.10000000000E+04  0.00000000000E+00 0. -1.
          2   -1    0    0  501    0 -0.00000000000E+00 -0.00000000000E+00 -0.80018794779E+02  0.80018794779E+02  0.00000000000E+00 0. -1.
    9000006    2    1    2  501    0  0.00000000000E+00  0.00000000000E+00  0.91998120522E+03  0.10800187948E+04  0.56575187063E+03 0.  0.
         13    1    3    3    0    0  0.96388698949E+02  0.16902316180E+03  0.68021879405E+02  0.20612274641E+03  0.00000000000E+00 0. -1.
          4    1    3    3  501    0 -0.96388698949E+02 -0.16902316180E+03  0.85195932582E+03  0.87389604837E+03  0.00000000000E+00 0. -1.
<mgrwt>
<rscale>  0 0.56575187E+03</rscale>
<asrwt>0</asrwt>
<pdfrwt beam="1">0</pdfrwt>
<pdfrwt beam="2">  1        2 0.29097805E+00 0.56575187E+03</pdfrwt>
<totfact> 0.99446756E+00</totfact>
</mgrwt>
</event>
<event>
 5    1  0.2368916E-004  0.6559917E+03  0.7818608E-02  0.9795601E-01
         13   -1    0    0    0    0  0.00000000000E+00  0.00000000000E+00  0.10000000000E+04  0.10000000000E+04  0.00000000000E+00 0. -1.
          2   -1    0    0  501    0 -0.00000000000E+00 -0.00000000000E+00 -0.10758126613E+03  0.10758126613E+03  0.00000000000E+00 0. -1.
    9000006    2    1    2  501    0  0.00000000000E+00  0.00000000000E+00  0.89241873387E+03  0.11075812661E+04  0.65599166498E+03 0.  0.
         13    1    3    3    0    0  0.13062619348E+03  0.17430366264E+03  0.32166200910E+02  0.22018091133E+03  0.00000000000E+00 0. -1.
          4    1    3    3  501    0 -0.13062619348E+03 -0.17430366264E+03  0.86025253296E+03  0.88740035480E+03  0.00000000000E+00 0. -1.
<mgrwt>
<rscale>  0 0.65599166E+03</rscale>
<asrwt>0</asrwt>
<pdfrwt beam="1">0</pdfrwt>
<pdfrwt beam="2">  1        2 0.39120543E+00 0.65599166E+03</pdfrwt>
<totfact> 0.42939320E+00</totfact>
</mgrwt>
</event>
<event>
 5    1  0.2368916E-004  0.6603159E+03  0.7818608E-02  0.9787612E-01
         13   -1    0    0    0    0  0.00000000000E+00  0.00000000000E+00  0.10000000000E+04  0.10000000000E+04  0.00000000000E+00 0. -1.
          2   -1    0    0  501    0 -0.00000000000E+00 -0.00000000000E+00 -0.10900426903E+03  0.10900426903E+03  0.00000000000E+00 0. -1.
    9000006    2    1    2  501    0  0.00000000000E+00  0.00000000000E+00  0.89099573097E+03  0.11090042690E+04  0.66031589117E+03 0.  0.
         13    1    3    3    0    0 -0.80450635079E+02  0.29641121234E+03  0.64893555727E+03  0.71794795701E+03  0.00000000000E+00 0. -1.
          2    1    3    3  501    0  0.80450635079E+02 -0.29641121234E+03  0.24206017370E+03  0.39105631203E+03  0.00000000000E+00 0. -1.
<mgrwt>
<rscale>  0 0.66031589E+03</rscale>
<asrwt>0</asrwt>
<pdfrwt beam="1">0</pdfrwt>
<pdfrwt beam="2">  1        2 0.39638000E+00 0.66031589E+03</pdfrwt>
<totfact> 0.41058099E+00</totfact>
</mgrwt>
</event>
<event>
 5    1  0.2368916E-004  0.6442708E+03  0.7818608E-02  0.9817589E-01
         13   -1    0    0    0    0  0.00000000000E+00  0.00000000000E+00  0.10000000000E+04  0.10000000000E+04  0.00000000000E+00 0. -1.
          2   -1    0    0  501    0 -0.00000000000E+00 -0.00000000000E+00 -0.10377120489E+03  0.10377120489E+03  0.00000000000E+00 0. -1.
    9000006    2    1    2  501    0  0.00000000000E+00  0.00000000000E+00  0.89622879511E+03  0.11037712049E+04  0.64427076573E+03 0.  0.
         13    1    3    3    0    0  0.89973734744E+02  0.24012461557E+03  0.78215127923E+03  0.82311343540E+03  0.00000000000E+00 0. -1.
          2    1    3    3  501    0 -0.89973734744E+02 -0.24012461557E+03  0.11407751588E+03  0.28065776949E+03  0.00000000000E+00 0. -1.
<mgrwt>
<rscale>  0 0.64427077E+03</rscale>
<asrwt>0</asrwt>
<pdfrwt beam="1">0</pdfrwt>
<pdfrwt beam="2">  1        2 0.37735063E+00 0.64427077E+03</pdfrwt>
<totfact> 0.48366697E+00</totfact>
</mgrwt>
</event>
<event>
 5    1  0.2368916E-004  0.6498208E+03  0.7818608E-02  0.9807116E-01
         13   -1    0    0    0    0  0.00000000000E+00  0.00000000000E+00  0.10000000000E+04  0.10000000000E+04  0.00000000000E+00 0. -1.
          2   -1    0    0  501    0 -0.00000000000E+00 -0.00000000000E+00 -0.10556676493E+03  0.10556676493E+03  0.00000000000E+00 0. -1.
    9000006    2    1    2  501    0  0.00000000000E+00  0.00000000000E+00  0.89443323507E+03  0.11055667649E+04  0.64982079045E+03 0.  0.
         13    1    3    3    0    0 -0.10867206433E+02 -0.15765588663E+03  0.93020959407E+03  0.94353768535E+03  0.00000000000E+00 0. -1.
          4    1    3    3  501    0  0.10867206433E+02  0.15765588663E+03 -0.35776359001E+02  0.16202907958E+03  0.00000000000E+00 0. -1.
<mgrwt>
<rscale>  0 0.64982079E+03</rscale>
<asrwt>0</asrwt>
<pdfrwt beam="1">0</pdfrwt>
<pdfrwt beam="2">  1        2 0.38387995E+00 0.64982079E+03</pdfrwt>
<totfact> 0.45735877E+00</totfact>
</mgrwt>
</event>
<event>
 5    1  0.2368916E-004  0.6500591E+03  0.7818608E-02  0.9806668E-01
         13   -1    0    0    0    0  0.00000000000E+00  0.00000000000E+00  0.10000000000E+04  0.10000000000E+04  0.00000000000E+00 0. -1.
          2   -1    0    0  501    0 -0.00000000000E+00 -0.00000000000E+00 -0.10564421795E+03  0.10564421795E+03  0.00000000000E+00 0. -1.
    9000006    2    1    2  501    0  0.00000000000E+00  0.00000000000E+00  0.89435578205E+03  0.11056442179E+04  0.65005912945E+03 0.  0.
         13    1    3    3    0    0  0.19118138769E+03  0.12404311781E+03  0.53012224921E+02  0.23398143957E+03  0.00000000000E+00 0. -1.
          2    1    3    3  501    0 -0.19118138769E+03 -0.12404311781E+03  0.84134355713E+03  0.87166277837E+03  0.00000000000E+00 0. -1.
<mgrwt>
<rscale>  0 0.65005913E+03</rscale>
<asrwt>0</asrwt>
<pdfrwt beam="1">0</pdfrwt>
<pdfrwt beam="2">  1        2 0.38416160E+00 0.65005913E+03</pdfrwt>
<totfact> 0.45625378E+00</totfact>
</mgrwt>
</event>
<event>
 5    1  0.2368916E-004  0.5062849E+03  0.7818608E-02  0.1012151E+00
         13   -1    0    0    0    0  0.00000000000E+00  0.00000000000E+00  0.10000000000E+04  0.10000000000E+04  0.00000000000E+00 0. -1.
          2   -1    0    0  501    0 -0.00000000000E+00 -0.00000000000E+00 -0.64081087733E+02  0.64081087733E+02  0.00000000000E+00 0. -1.
    9000006    2    1    2  501    0  0.00000000000E+00  0.00000000000E+00  0.93591891227E+03  0.10640810877E+04  0.50628485157E+03 0.  0.
         13    1    3    3    0    0  0.14384674485E+03  0.19287069393E+03  0.30260019469E+03  0.38659781221E+03  0.00000000000E+00 0. -1.
          2    1    3    3  501    0 -0.14384674485E+03 -0.19287069393E+03  0.63331871758E+03  0.67748327552E+03  0.00000000000E+00 0. -1.
<mgrwt>
<rscale>  0 0.50628485E+03</rscale>
<asrwt>0</asrwt>
<pdfrwt beam="1">0</pdfrwt>
<pdfrwt beam="2">  1        2 0.23302263E+00 0.50628485E+03</pdfrwt>
<totfact> 0.16053334E+01</totfact>
</mgrwt>
</event>
<event>
 5    1  0.2368916E-004  0.6393693E+03  0.7818608E-02  0.9826934E-01
         13   -1    0    0    0    0  0.00000000000E+00  0.00000000000E+00  0.10000000000E+04  0.10000000000E+04  0.00000000000E+00 0. -1.
          2   -1    0    0  501    0 -0.00000000000E+00 -0.00000000000E+00 -0.10219826845E+03  0.10219826845E+03  0.00000000000E+00 0. -1.
    9000006    2    1    2  501    0  0.00000000000E+00  0.00000000000E+00  0.89780173155E+03  0.11021982684E+04  0.63936927811E+03 0.  0.
         13    1    3    3    0    0  0.27943909387E+03 -0.89166204513E+02  0.22974751706E+03  0.37258655479E+03  0.00000000000E+00 0. -1.
          4    1    3    3  501    0 -0.27943909387E+03  0.89166204513E+02  0.66805421449E+03  0.72961171366E+03  0.00000000000E+00 0. -1.
<mgrwt>
<rscale>  0 0.63936928E+03</rscale>
<asrwt>0</asrwt>
<pdfrwt beam="1">0</pdfrwt>
<pdfrwt beam="2">  1        2 0.37163085E+00 0.63936928E+03</pdfrwt>
<totfact> 0.50784063E+00</totfact>
</mgrwt>
</event>
<event>
 5    1  0.2368916E-004  0.6471030E+03  0.7818608E-02  0.9812231E-01
         13   -1    0    0    0    0  0.00000000000E+00  0.00000000000E+00  0.10000000000E+04  0.10000000000E+04  0.00000000000E+00 0. -1.
          2   -1    0    0  501    0 -0.00000000000E+00 -0.00000000000E+00 -0.10468555901E+03  0.10468555901E+03  0.00000000000E+00 0. -1.
    9000006    2    1    2  501    0  0.00000000000E+00  0.00000000000E+00  0.89531444099E+03  0.11046855590E+04  0.64710295630E+03 0.  0.
         13    1    3    3    0    0  0.49226196438E+02  0.13593051735E+03  0.94179611469E+03  0.95282750044E+03  0.00000000000E+00 0. -1.
          2    1    3    3  501    0 -0.49226196438E+02 -0.13593051735E+03 -0.46481673699E+02  0.15185805857E+03  0.00000000000E+00 0. -1.
<mgrwt>
<rscale>  0 0.64710296E+03</rscale>
<asrwt>0</asrwt>
<pdfrwt beam="1">0</pdfrwt>
<pdfrwt beam="2">  1        2 0.38067556E+00 0.64710296E+03</pdfrwt>
<totfact> 0.47010282E+00</totfact>
</mgrwt>
</event>
<event>
 5    1  0.2368916E-004  0.6285897E+03  0.7818608E-02  0.9847805E-01
         13   -1    0    0    0    0  0.00000000000E+00  0.00000000000E+00  0.10000000000E+04  0.10000000000E+04  0.00000000000E+00 0. -1.
          2   -1    0    0  501    0 -0.00000000000E+00 -0.00000000000E+00 -0.98781252632E+02  0.98781252632E+02  0.00000000000E+00 0. -1.
    9000006    2    1    2  501    0  0.00000000000E+00  0.00000000000E+00  0.90121874737E+03  0.10987812526E+04  0.62858969967E+03 0.  0.
         13    1    3    3    0    0 -0.10775543256E+03 -0.20839637310E+03  0.81619422432E+03  0.84924277646E+03  0.00000000000E+00 0. -1.
          2    1    3    3  501    0  0.10775543256E+03  0.20839637310E+03  0.85024523052E+02  0.24953847617E+03  0.00000000000E+00 0. -1.
<mgrwt>
<rscale>  0 0.62858970E+03</rscale>
<asrwt>0</asrwt>
<pdfrwt beam="1">0</pdfrwt>
<pdfrwt beam="2">  1        2 0.35920531E+00 0.62858970E+03</pdfrwt>
<totfact> 0.56422055E+00</totfact>
</mgrwt>
</event>
<event>
 5    1  0.2368916E-004  0.6033450E+03  0.7818608E-02  0.9898491E-01
         13   -1    0    0    0    0  0.00000000000E+00  0.00000000000E+00  0.10000000000E+04  0.10000000000E+04  0.00000000000E+00 0. -1.
          2   -1    0    0  501    0 -0.00000000000E+00 -0.00000000000E+00 -0.91006289516E+02  0.91006289516E+02  0.00000000000E+00 0. -1.
    9000006    2    1    2  501    0  0.00000000000E+00  0.00000000000E+00  0.90899371048E+03  0.10910062895E+04  0.60334497434E+03 0.  0.
         13    1    3    3    0    0 -0.24435565309E+03 -0.10388934882E+03  0.19557023968E+03  0.32977325641E+03  0.00000000000E+00 0. -1.
          2    1    3    3  501    0  0.24435565309E+03  0.10388934882E+03  0.71342347080E+03  0.76123303311E+03  0.00000000000E+00 0. -1.
<mgrwt>
<rscale>  0 0.60334497E+03</rscale>
<asrwt>0</asrwt>
<pdfrwt beam="1">0</pdfrwt>
<pdfrwt beam="2">  1        2 0.33093266E+00 0.60334497E+03</pdfrwt>
<totfact> 0.71487223E+00</totfact>
</mgrwt>
</event>
<event>
 5    1  0.2368916E-004  0.6593005E+03  0.7818608E-02  0.9789482E-01
         13   -1    0    0    0    0  0.00000000000E+00  0.00000000000E+00  0.10000000000E+04  0.10000000000E+04  0.00000000000E+00 0. -1.
          2   -1    0    0  501    0 -0.00000000000E+00 -0.00000000000E+00 -0.10866929778E+03  0.10866929778E+03  0.00000000000E+00 0. -1.
    9000006    2    1    2  501    0  0.00000000000E+00  0.00000000000E+00  0.89133070222E+03  0.11086692978E+04  0.65930053170E+03 0.  0.
         13    1    3    3    0    0 -0.29981356697E+03 -0.12882764748E+03  0.36706932434E+03  0.49114623745E+03  0.00000000000E+00 0. -1.
          2    1    3    3  501    0  0.29981356697E+03  0.12882764748E+03  0.52426137789E+03  0.61752306033E+03  0.00000000000E+00 0. -1.
<mgrwt>
<rscale>  0 0.65930053E+03</rscale>
<asrwt>0</asrwt>
<pdfrwt beam="1">0</pdfrwt>
<pdfrwt beam="2">  1        2 0.39516192E+00 0.65930053E+03</pdfrwt>
<totfact> 0.41494099E+00</totfact>
</mgrwt>
</event>
<event>
 5    1  0.2368916E-004  0.6664799E+03  0.7818608E-02  0.9776338E-01
         13   -1    0    0    0    0  0.00000000000E+00  0.00000000000E+00  0.10000000000E+04  0.10000000000E+04  0.00000000000E+00 0. -1.
          2   -1    0    0  501    0 -0.00000000000E+00 -0.00000000000E+00 -0.11104887376E+03  0.11104887376E+03  0.00000000000E+00 0. -1.
    9000006    2    1    2  501    0  0.00000000000E+00  0.00000000000E+00  0.88895112624E+03  0.11110488738E+04  0.66647992846E+03 0.  0.
         13    1    3    3    0    0  0.14228974304E+02  0.55309335935E+02 -0.10282999663E+03  0.11762480418E+03  0.00000000000E+00 0. -1.
          2    1    3    3  501    0 -0.14228974304E+02 -0.55309335935E+02  0.99178112287E+03  0.99342406958E+03  0.00000000000E+00 0. -1.
<mgrwt>
<rscale>  0 0.66647993E+03</rscale>
<asrwt>0</asrwt>
<pdfrwt beam="1">0</pdfrwt>
<pdfrwt beam="2">  1        2 0.40381494E+00 0.66647993E+03</pdfrwt>
<totfact> 0.38484933E+00</totfact>
</mgrwt>
</event>
<event>
 5    1  0.2368916E-004  0.6382927E+03  0.7818608E-02  0.9828999E-01
         13   -1    0    0    0    0  0.00000000000E+00  0.00000000000E+00  0.10000000000E+04  0.10000000000E+04  0.00000000000E+00 0. -1.
          2   -1    0    0  501    0 -0.00000000000E+00 -0.00000000000E+00 -0.10185438491E+03  0.10185438491E+03  0.00000000000E+00 0. -1.
    9000006    2    1    2  501    0  0.00000000000E+00  0.00000000000E+00  0.89814561509E+03  0.11018543849E+04  0.63829267552E+03 0.  0.
         13    1    3    3    0    0  0.30800185107E+03 -0.20562440098E+02  0.58895712433E+03  0.66494995940E+03  0.00000000000E+00 0. -1.
          4    1    3    3  501    0 -0.30800185107E+03  0.20562440098E+02  0.30918849076E+03  0.43690442550E+03  0.00000000000E+00 0. -1.
<mgrwt>
<rscale>  0 0.63829268E+03</rscale>
<asrwt>0</asrwt>
<pdfrwt beam="1">0</pdfrwt>
<pdfrwt beam="2">  1        2 0.37038036E+00 0.63829268E+03</pdfrwt>
<totfact> 0.51327080E+00</totfact>
</mgrwt>
</event>
<event>
 5    1  0.2368916E-004  0.6450663E+03  0.7818608E-02  0.9816081E-01
         13   -1    0    0    0    0  0.00000000000E+00  0.00000000000E+00  0.10000000000E+04  0.10000000000E+04  0.00000000000E+00 0. -1.
          2   -1    0    0  501    0 -0.00000000000E+00 -0.00000000000E+00 -0.10402763648E+03  0.10402763648E+03  0.00000000000E+00 0. -1.
    9000006    2    1    2  501    0  0.00000000000E+00  0.00000000000E+00  0.89597236352E+03  0.11040276365E+04  0.64506631126E+03 0.  0.
         13    1    3    3    0    0  0.75946049875E+02 -0.22457218013E+03  0.73692130292E+02  0.24825590959E+03  0.00000000000E+00 0. -1.
          2    1    3    3  501    0 -0.75946049875E+02  0.22457218013E+03  0.82228023323E+03  0.85577172689E+03  0.00000000000E+00 0. -1.
<mgrwt>
<rscale>  0 0.64506631E+03</rscale>
<asrwt>0</asrwt>
<pdfrwt beam="1">0</pdfrwt>
<pdfrwt beam="2">  1        2 0.37828311E+00 0.64506631E+03</pdfrwt>
<totfact> 0.47982737E+00</totfact>
</mgrwt>
</event>
<event>
 5    1  0.2368916E-004  0.6240001E+03  0.7818608E-02  0.9856828E-01
         13   -1    0    0    0    0  0.00000000000E+00  0.00000000000E+00  0.10000000000E+04  0.10000000000E+04  0.00000000000E+00 0. -1.
          2   -1    0    0  501    0 -0.00000000000E+00 -0.00000000000E+00 -0.97344042911E+02  0.97344042911E+02  0.00000000000E+00 0. -1.
    9000006    2    1    2  501    0  0.00000000000E+00  0.00000000000E+00  0.90265595709E+03  0.10973440429E+04  0.62400013753E+03 0.  0.
         13    1    3    3    0    0 -0.15491567635E+03 -0.21649640188E+03  0.73746356759E+03  0.78404213683E+03  0.00000000000E+00 0. -1.
          2    1    3    3  501    0  0.15491567635E+03  0.21649640188E+03  0.16519238950E+03  0.31330190608E+03  0.00000000000E+00 0. -1.
<mgrwt>
<rscale>  0 0.62400014E+03</rscale>
<asrwt>0</asrwt>
<pdfrwt beam="1">0</pdfrwt>
<pdfrwt beam="2">  1        2 0.35397908E+00 0.62400014E+03</pdfrwt>
<totfact> 0.58961687E+00</totfact>
</mgrwt>
</event>
<event>
 5    1  0.2368916E-004  0.6478223E+03  0.7818608E-02  0.9810874E-01
         13   -1    0    0    0    0  0.00000000000E+00  0.00000000000E+00  0.10000000000E+04  0.10000000000E+04  0.00000000000E+00 0. -1.
          2   -1    0    0  501    0 -0.00000000000E+00 -0.00000000000E+00 -0.10491844296E+03  0.10491844296E+03  0.00000000000E+00 0. -1.
    9000006    2    1    2  501    0  0.00000000000E+00  0.00000000000E+00  0.89508155704E+03  0.11049184430E+04  0.64782233045E+03 0.  0.
         13    1    3    3    0    0 -0.24510234777E+03  0.14329123264E+03  0.18160616414E+03  0.33702868882E+03  0.00000000000E+00 0. -1.
          2    1    3    3  501    0  0.24510234777E+03 -0.14329123264E+03  0.71347539290E+03  0.76788975413E+03  0.00000000000E+00 0. -1.
<mgrwt>
<rscale>  0 0.64782233E+03</rscale>
<asrwt>0</asrwt>
<pdfrwt beam="1">0</pdfrwt>
<pdfrwt beam="2">  1        2 0.38152242E+00 0.64782233E+03</pdfrwt>
<totfact> 0.46670384E+00</totfact>
</mgrwt>
</event>
<event>
 5    1  0.2368916E-004  0.5848949E+03  0.7818608E-02  0.9937249E-01
         13   -1    0    0    0    0  0.00000000000E+00  0.00000000000E+00  0.10000000000E+04  0.10000000000E+04  0.00000000000E+00 0. -1.
          2   -1    0    0  501    0 -0.00000000000E+00 -0.00000000000E+00 -0.85525522812E+02  0.85525522812E+02  0.00000000000E+00 0. -1.
    9000006    2    1    2  501    0  0.00000000000E+00  0.00000000000E+00  0.91447447719E+03  0.10855255228E+04  0.58489494035E+03 0.  0.
         13    1    3    3    0    0  0.26207031112E+03  0.11578174863E+03  0.56607880291E+03  0.63445368026E+03  0.00000000000E+00 0. -1.
          2    1    3    3  501    0 -0.26207031112E+03 -0.11578174863E+03  0.34839567428E+03  0.45107184255E+03  0.00000000000E+00 0. -1.
<mgrwt>
<rscale>  0 0.58489494E+03</rscale>
<asrwt>0</asrwt>
<pdfrwt beam="1">0</pdfrwt>
<pdfrwt beam="2">  1        2 0.31100256E+00 0.58489494E+03</pdfrwt>
<totfact> 0.84318622E+00</totfact>
</mgrwt>
</event>
<event>
 5    1  0.2368916E-004  0.6469093E+03  0.7818608E-02  0.9812596E-01
         13   -1    0    0    0    0  0.00000000000E+00  0.00000000000E+00  0.10000000000E+04  0.10000000000E+04  0.00000000000E+00 0. -1.
          2   -1    0    0  501    0 -0.00000000000E+00 -0.00000000000E+00 -0.10462290403E+03  0.10462290403E+03  0.00000000000E+00 0. -1.
    9000006    2    1    2  501    0  0.00000000000E+00  0.00000000000E+00  0.89537709597E+03  0.11046229040E+04  0.64690927966E+03 0.  0.
         13    1    3    3    0    0 -0.24385194070E+03  0.18468904875E+03  0.26820116522E+03  0.40682389155E+03  0.00000000000E+00 0. -1.
          4    1    3    3  501    0  0.24385194070E+03 -0.18468904875E+03  0.62717593075E+03  0.69779901248E+03  0.00000000000E+00 0. -1.
<mgrwt>
<rscale>  0 0.64690928E+03</rscale>
<asrwt>0</asrwt>
<pdfrwt beam="1">0</pdfrwt>
<pdfrwt beam="2">  1        2 0.38044773E+00 0.64690928E+03</pdfrwt>
<totfact> 0.47102111E+00</totfact>
</mgrwt>
</event>
<event>
 5    1  0.2368916E-004  0.6475359E+03  0.7818608E-02  0.9811414E-01
         13   -1    0    0    0    0  0.00000000000E+00  0.00000000000E+00  0.10000000000E+04  0.10000000000E+04  0.00000000000E+00 0. -1.
          2   -1    0    0  501    0 -0.00000000000E+00 -0.00000000000E+00 -0.10482569535E+03  0.10482569535E+03  0.00000000000E+00 0. -1.
    9000006    2    1    2  501    0  0.00000000000E+00  0.00000000000E+00  0.89517430465E+03  0.11048256953E+04  0.64753593058E+03 0.  0.
         13    1    3    3    0    0  0.28830033955E+03 -0.13300193782E+03  0.55575395237E+03  0.64005394837E+03  0.00000000000E+00 0. -1.
          4    1    3    3  501    0 -0.28830033955E+03  0.13300193782E+03  0.33942035229E+03  0.46477174698E+03  0.00000000000E+00 0. -1.
<mgrwt>
<rscale>  0 0.64753593E+03</rscale>
<asrwt>0</asrwt>
<pdfrwt beam="1">0</pdfrwt>
<pdfrwt beam="2">  1        2 0.38118515E+00 0.64753593E+03</pdfrwt>
<totfact> 0.46805482E+00</totfact>
</mgrwt>
</event>
<event>
 5    1  0.2368916E-004  0.6371096E+03  0.7818608E-02  0.9831272E-01
         13   -1    0    0    0    0  0.00000000000E+00  0.00000000000E+00  0.10000000000E+04  0.10000000000E+04  0.00000000000E+00 0. -1.
          2   -1    0    0  501    0 -0.00000000000E+00 -0.00000000000E+00 -0.10147714546E+03  0.10147714546E+03  0.00000000000E+00 0. -1.
    9000006    2    1    2  501    0  0.00000000000E+00  0.00000000000E+00  0.89852285454E+03  0.11014771455E+04  0.63710955247E+03 0.  0.
         13    1    3    3    0    0  0.25760967125E+03  0.60399070127E+02  0.14258203554E+03  0.30056684323E+03  0.00000000000E+00 0. -1.
          4    1    3    3  501    0 -0.25760967125E+03 -0.60399070127E+02  0.75594081900E+03  0.80091030223E+03  0.00000000000E+00 0. -1.
<mgrwt>
<rscale>  0 0.63710955E+03</rscale>
<asrwt>0</asrwt>
<pdfrwt beam="1">0</pdfrwt>
<pdfrwt beam="2">  1        2 0.36900858E+00 0.63710955E+03</pdfrwt>
<totfact> 0.51928883E+00</totfact>
</mgrwt>
</event>
<event>
 5    1  0.2368916E-004  0.6488129E+03  0.7818608E-02  0.9809009E-01
         13   -1    0    0    0    0  0.00000000000E+00  0.00000000000E+00  0.10000000000E+04  0.10000000000E+04  0.00000000000E+00 0. -1.
          2   -1    0    0  501    0 -0.00000000000E+00 -0.00000000000E+00 -0.10523954550E+03  0.10523954550E+03  0.00000000000E+00 0. -1.
    9000006    2    1    2  501    0  0.00000000000E+00  0.00000000000E+00  0.89476045450E+03  0.11052395455E+04  0.64881290217E+03 0.  0.
         13    1    3    3    0    0 -0.15095608246E+02  0.15651717948E+03  0.93074249921E+03  0.94393172671E+03  0.00000000000E+00 0. -1.
          4    1    3    3  501    0  0.15095608246E+02 -0.15651717948E+03 -0.35982044715E+02  0.16130781879E+03  0.00000000000E+00 0. -1.
<mgrwt>
<rscale>  0 0.64881290E+03</rscale>
<asrwt>0</asrwt>
<pdfrwt beam="1">0</pdfrwt>
<pdfrwt beam="2">  1        2 0.38269006E+00 0.64881290E+03</pdfrwt>
<totfact> 0.46205393E+00</totfact>
</mgrwt>
</event>
<event>
 5    1  0.2368916E-004  0.6510052E+03  0.7818608E-02  0.9804895E-01
         13   -1    0    0    0    0  0.00000000000E+00  0.00000000000E+00  0.10000000000E+04  0.10000000000E+04  0.00000000000E+00 0. -1.
          2   -1    0    0  501    0 -0.00000000000E+00 -0.00000000000E+00 -0.10595195269E+03  0.10595195269E+03  0.00000000000E+00 0. -1.
    9000006    2    1    2  501    0  0.00000000000E+00  0.00000000000E+00  0.89404804731E+03  0.11059519527E+04  0.65100523098E+03 0.  0.
         13    1    3    3    0    0 -0.27085016579E+03  0.34232037769E+02  0.14589196004E+03  0.30954177217E+03  0.00000000000E+00 0. -1.
          2    1    3    3  501    0  0.27085016579E+03 -0.34232037769E+02  0.74815608727E+03  0.79641018052E+03  0.00000000000E+00 0. -1.
<mgrwt>
<rscale>  0 0.65100523E+03</rscale>
<asrwt>0</asrwt>
<pdfrwt beam="1">0</pdfrwt>
<pdfrwt beam="2">  1        2 0.38528064E+00 0.65100523E+03</pdfrwt>
<totfact> 0.45188733E+00</totfact>
</mgrwt>
</event>
<event>
 5    1  0.2368916E-004  0.4770538E+03  0.7818608E-02  0.1019948E+00
         13   -1    0    0    0    0  0.00000000000E+00  0.00000000000E+00  0.10000000000E+04  0.10000000000E+04  0.00000000000E+00 0. -1.
          2   -1    0    0  501    0 -0.00000000000E+00 -0.00000000000E+00 -0.56895087320E+02  0.56895087320E+02  0.00000000000E+00 0. -1.
    9000006    2    1    2  501    0  0.00000000000E+00  0.00000000000E+00  0.94310491268E+03  0.10568950873E+04  0.47705382220E+03 0.  0.
         13    1    3    3    0    0  0.20699210675E+03 -0.79221527629E+02  0.66688173356E+03  0.70274677463E+03  0.00000000000E+00 0. -1.
          4    1    3    3  501    0 -0.20699210675E+03  0.79221527629E+02  0.27622317912E+03  0.35414831269E+03  0.00000000000E+00 0. -1.
<mgrwt>
<rscale>  0 0.47705382E+03</rscale>
<asrwt>0</asrwt>
<pdfrwt beam="1">0</pdfrwt>
<pdfrwt beam="2">  1        2 0.20689166E+00 0.47705382E+03</pdfrwt>
<totfact> 0.20021481E+01</totfact>
</mgrwt>
</event>
<event>
 5    1  0.2368916E-004  0.6307993E+03  0.7818608E-02  0.9843490E-01
         13   -1    0    0    0    0  0.00000000000E+00  0.00000000000E+00  0.10000000000E+04  0.10000000000E+04  0.00000000000E+00 0. -1.
          2   -1    0    0  501    0 -0.00000000000E+00 -0.00000000000E+00 -0.99476943531E+02  0.99476943531E+02  0.00000000000E+00 0. -1.
    9000006    2    1    2  501    0  0.00000000000E+00  0.00000000000E+00  0.90052305647E+03  0.10994769435E+04  0.63079931367E+03 0.  0.
         13    1    3    3    0    0 -0.28300251245E+02 -0.74721586952E+02 -0.81543920869E+02  0.11416492810E+03  0.00000000000E+00 0. -1.
          2    1    3    3  501    0  0.28300251245E+02  0.74721586952E+02  0.98206697734E+03  0.98531201543E+03  0.00000000000E+00 0. -1.
<mgrwt>
<rscale>  0 0.63079931E+03</rscale>
<asrwt>0</asrwt>
<pdfrwt beam="1">0</pdfrwt>
<pdfrwt beam="2">  1        2 0.36173510E+00 0.63079931E+03</pdfrwt>
<totfact> 0.55229497E+00</totfact>
</mgrwt>
</event>
<event>
 5    1  0.2368916E-004  0.6150382E+03  0.7818608E-02  0.9874689E-01
         13   -1    0    0    0    0  0.00000000000E+00  0.00000000000E+00  0.10000000000E+04  0.10000000000E+04  0.00000000000E+00 0. -1.
          2   -1    0    0  501    0 -0.00000000000E+00 -0.00000000000E+00 -0.94567988296E+02  0.94567988296E+02  0.00000000000E+00 0. -1.
    9000006    2    1    2  501    0  0.00000000000E+00  0.00000000000E+00  0.90543201170E+03  0.10945679883E+04  0.61503817214E+03 0.  0.
         13    1    3    3    0    0 -0.29148929445E+03  0.90617196338E+02  0.38635290433E+03  0.49238811088E+03  0.00000000000E+00 0. -1.
          4    1    3    3  501    0  0.29148929445E+03 -0.90617196338E+02  0.51907910737E+03  0.60217987741E+03  0.00000000000E+00 0. -1.
<mgrwt>
<rscale>  0 0.61503817E+03</rscale>
<asrwt>0</asrwt>
<pdfrwt beam="1">0</pdfrwt>
<pdfrwt beam="2">  1        2 0.34388432E+00 0.61503817E+03</pdfrwt>
<totfact> 0.64170798E+00</totfact>
</mgrwt>
</event>
<event>
 5    1  0.2368916E-004  0.6485483E+03  0.7818608E-02  0.9809507E-01
         13   -1    0    0    0    0  0.00000000000E+00  0.00000000000E+00  0.10000000000E+04  0.10000000000E+04  0.00000000000E+00 0. -1.
          2   -1    0    0  501    0 -0.00000000000E+00 -0.00000000000E+00 -0.10515372524E+03  0.10515372524E+03  0.00000000000E+00 0. -1.
    9000006    2    1    2  501    0  0.00000000000E+00  0.00000000000E+00  0.89484627476E+03  0.11051537252E+04  0.64854830273E+03 0.  0.
         13    1    3    3    0    0 -0.30410824098E+03 -0.91132907738E+02  0.56002792371E+03  0.64375329470E+03  0.00000000000E+00 0. -1.
          2    1    3    3  501    0  0.30410824098E+03  0.91132907738E+02  0.33481835105E+03  0.46140043054E+03  0.00000000000E+00 0. -1.
<mgrwt>
<rscale>  0 0.64854830E+03</rscale>
<asrwt>0</asrwt>
<pdfrwt beam="1">0</pdfrwt>
<pdfrwt beam="2">  1        2 0.38237799E+00 0.64854830E+03</pdfrwt>
<totfact> 0.46329256E+00</totfact>
</mgrwt>
</event>
<event>
 5    1  0.2368916E-004  0.6523920E+03  0.7818608E-02  0.9802301E-01
         13   -1    0    0    0    0  0.00000000000E+00  0.00000000000E+00  0.10000000000E+04  0.10000000000E+04  0.00000000000E+00 0. -1.
          2   -1    0    0  501    0 -0.00000000000E+00 -0.00000000000E+00 -0.10640383947E+03  0.10640383947E+03  0.00000000000E+00 0. -1.
    9000006    2    1    2  501    0  0.00000000000E+00  0.00000000000E+00  0.89359616053E+03  0.11064038395E+04  0.65239202777E+03 0.  0.
         13    1    3    3    0    0 -0.16015798424E+02 -0.16705599318E+03  0.92116939528E+03  0.93633181376E+03  0.00000000000E+00 0. -1.
          2    1    3    3  501    0  0.16015798424E+02  0.16705599318E+03 -0.27573234751E+02  0.17007202572E+03  0.00000000000E+00 0. -1.
<mgrwt>
<rscale>  0 0.65239203E+03</rscale>
<asrwt>0</asrwt>
<pdfrwt beam="1">0</pdfrwt>
<pdfrwt beam="2">  1        2 0.38692387E+00 0.65239203E+03</pdfrwt>
<totfact> 0.44554415E+00</totfact>
</mgrwt>
</event>
<event>
 5    1  0.2368916E-004  0.6520744E+03  0.7818608E-02  0.9802895E-01
         13   -1    0    0    0    0  0.00000000000E+00  0.00000000000E+00  0.10000000000E+04  0.10000000000E+04  0.00000000000E+00 0. -1.
          2   -1    0    0  501    0 -0.00000000000E+00 -0.00000000000E+00 -0.10630025222E+03  0.10630025222E+03  0.00000000000E+00 0. -1.
    9000006    2    1    2  501    0  0.00000000000E+00  0.00000000000E+00  0.89369974778E+03  0.11063002522E+04  0.65207438906E+03 0.  0.
         13    1    3    3    0    0 -0.19371004050E+03 -0.25084356055E+03  0.57666010548E+03  0.65801439871E+03  0.00000000000E+00 0. -1.
          2    1    3    3  501    0  0.19371004050E+03  0.25084356055E+03  0.31703964231E+03  0.44828585350E+03  0.00000000000E+00 0. -1.
<mgrwt>
<rscale>  0 0.65207439E+03</rscale>
<asrwt>0</asrwt>
<pdfrwt beam="1">0</pdfrwt>
<pdfrwt beam="2">  1        2 0.38654719E+00 0.65207439E+03</pdfrwt>
<totfact> 0.44699104E+00</totfact>
</mgrwt>
</event>
<event>
 5    1  0.2368916E-004  0.6548080E+03  0.7818608E-02  0.9797799E-01
         13   -1    0    0    0    0  0.00000000000E+00  0.00000000000E+00  0.10000000000E+04  0.10000000000E+04  0.00000000000E+00 0. -1.
          2   -1    0    0  501    0 -0.00000000000E+00 -0.00000000000E+00 -0.10719338722E+03  0.10719338722E+03  0.00000000000E+00 0. -1.
    9000006    2    1    2  501    0  0.00000000000E+00  0.00000000000E+00  0.89280661278E+03  0.11071933872E+04  0.65480802446E+03 0.  0.
         13    1    3    3    0    0  0.28394894592E+03 -0.16132243567E+03  0.40705820139E+03  0.52187001395E+03  0.00000000000E+00 0. -1.
          4    1    3    3  501    0 -0.28394894592E+03  0.16132243567E+03  0.48574841139E+03  0.58532337328E+03  0.00000000000E+00 0. -1.
<mgrwt>
<rscale>  0 0.65480802E+03</rscale>
<asrwt>0</asrwt>
<pdfrwt beam="1">0</pdfrwt>
<pdfrwt beam="2">  1        2 0.38979496E+00 0.65480802E+03</pdfrwt>
<totfact> 0.43465435E+00</totfact>
</mgrwt>
</event>
<event>
 5    1  0.2368916E-004  0.6372896E+03  0.7818608E-02  0.9830926E-01
         13   -1    0    0    0    0  0.00000000000E+00  0.00000000000E+00  0.10000000000E+04  0.10000000000E+04  0.00000000000E+00 0. -1.
          2   -1    0    0  501    0 -0.00000000000E+00 -0.00000000000E+00 -0.10153449840E+03  0.10153449840E+03  0.00000000000E+00 0. -1.
    9000006    2    1    2  501    0  0.00000000000E+00  0.00000000000E+00  0.89846550160E+03  0.11015344984E+04  0.63728956808E+03 0.  0.
         13    1    3    3    0    0  0.15792422961E+03 -0.20575139068E+03  0.12929900415E+03  0.28981361172E+03  0.00000000000E+00 0. -1.
          4    1    3    3  501    0 -0.15792422961E+03  0.20575139068E+03  0.76916649745E+03  0.81172088668E+03  0.00000000000E+00 0. -1.
<mgrwt>
<rscale>  0 0.63728957E+03</rscale>
<asrwt>0</asrwt>
<pdfrwt beam="1">0</pdfrwt>
<pdfrwt beam="2">  1        2 0.36921714E+00 0.63728957E+03</pdfrwt>
<totfact> 0.51836974E+00</totfact>
</mgrwt>
</event>
<event>
 5    1  0.2368916E-004  0.6449731E+03  0.7818608E-02  0.9816258E-01
         13   -1    0    0    0    0  0.00000000000E+00  0.00000000000E+00  0.10000000000E+04  0.10000000000E+04  0.00000000000E+00 0. -1.
          2   -1    0    0  501    0 -0.00000000000E+00 -0.00000000000E+00 -0.10399757623E+03  0.10399757623E+03  0.00000000000E+00 0. -1.
    9000006    2    1    2  501    0  0.00000000000E+00  0.00000000000E+00  0.89600242377E+03  0.11039975762E+04  0.64497310403E+03 0.  0.
         13    1    3    3    0    0  0.15574235954E+03  0.17835271845E+03  0.73252452704E+02  0.24785337715E+03  0.00000000000E+00 0. -1.
          2    1    3    3  501    0 -0.15574235954E+03 -0.17835271845E+03  0.82274997107E+03  0.85614419908E+03  0.00000000000E+00 0. -1.
<mgrwt>
<rscale>  0 0.64497310E+03</rscale>
<asrwt>0</asrwt>
<pdfrwt beam="1">0</pdfrwt>
<pdfrwt beam="2">  1        2 0.37817380E+00 0.64497310E+03</pdfrwt>
<totfact> 0.48027602E+00</totfact>
</mgrwt>
</event>
<event>
 5    1  0.2368916E-004  0.6527624E+03  0.7818608E-02  0.9801609E-01
         13   -1    0    0    0    0  0.00000000000E+00  0.00000000000E+00  0.10000000000E+04  0.10000000000E+04  0.00000000000E+00 0. -1.
          2   -1    0    0  501    0 -0.00000000000E+00 -0.00000000000E+00 -0.10652469093E+03  0.10652469093E+03  0.00000000000E+00 0. -1.
    9000006    2    1    2  501    0  0.00000000000E+00  0.00000000000E+00  0.89347530907E+03  0.11065246909E+04  0.65276240984E+03 0.  0.
         13    1    3    3    0    0 -0.22711382439E+03 -0.20460788317E+03  0.64060446555E+03  0.70980219524E+03  0.00000000000E+00 0. -1.
          4    1    3    3  501    0  0.22711382439E+03  0.20460788317E+03  0.25287084352E+03  0.39672249569E+03  0.00000000000E+00 0. -1.
<mgrwt>
<rscale>  0 0.65276241E+03</rscale>
<asrwt>0</asrwt>
<pdfrwt beam="1">0</pdfrwt>
<pdfrwt beam="2">  1        2 0.38736333E+00 0.65276241E+03</pdfrwt>
<totfact> 0.44386147E+00</totfact>
</mgrwt>
</event>
<event>
 5    1  0.2368916E-004  0.6537288E+03  0.7818608E-02  0.9799807E-01
         13   -1    0    0    0    0  0.00000000000E+00  0.00000000000E+00  0.10000000000E+04  0.10000000000E+04  0.00000000000E+00 0. -1.
          2   -1    0    0  501    0 -0.00000000000E+00 -0.00000000000E+00 -0.10684032174E+03  0.10684032174E+03  0.00000000000E+00 0. -1.
    9000006    2    1    2  501    0  0.00000000000E+00  0.00000000000E+00  0.89315967826E+03  0.11068403217E+04  0.65372875640E+03 0.  0.
         13    1    3    3    0    0 -0.77022757848E+02  0.26446709535E+02  0.98254853009E+03  0.98591761707E+03  0.00000000000E+00 0. -1.
          4    1    3    3  501    0  0.77022757848E+02 -0.26446709535E+02 -0.89388851829E+02  0.12092270466E+03  0.00000000000E+00 0. -1.
<mgrwt>
<rscale>  0 0.65372876E+03</rscale>
<asrwt>0</asrwt>
<pdfrwt beam="1">0</pdfrwt>
<pdfrwt beam="2">  1        2 0.38851108E+00 0.65372876E+03</pdfrwt>
<totfact> 0.43949386E+00</totfact>
</mgrwt>
</event>
<event>
 5    1  0.2368916E-004  0.6511975E+03  0.7818608E-02  0.9804535E-01
         13   -1    0    0    0    0  0.00000000000E+00  0.00000000000E+00  0.10000000000E+04  0.10000000000E+04  0.00000000000E+00 0. -1.
          2   -1    0    0  501    0 -0.00000000000E+00 -0.00000000000E+00 -0.10601455026E+03  0.10601455026E+03  0.00000000000E+00 0. -1.
    9000006    2    1    2  501    0  0.00000000000E+00  0.00000000000E+00  0.89398544974E+03  0.11060145503E+04  0.65119751307E+03 0.  0.
         13    1    3    3    0    0 -0.27493146226E+03 -0.96221892836E+02  0.19988059779E+03  0.35326790822E+03  0.00000000000E+00 0. -1.
          4    1    3    3  501    0  0.27493146226E+03  0.96221892836E+02  0.69410485195E+03  0.75274664204E+03  0.00000000000E+00 0. -1.
<mgrwt>
<rscale>  0 0.65119751E+03</rscale>
<asrwt>0</asrwt>
<pdfrwt beam="1">0</pdfrwt>
<pdfrwt beam="2">  1        2 0.38550827E+00 0.65119751E+03</pdfrwt>
<totfact> 0.45100379E+00</totfact>
</mgrwt>
</event>
<event>
 5    1  0.2368916E-004  0.6494432E+03  0.7818608E-02  0.9807824E-01
         13   -1    0    0    0    0  0.00000000000E+00  0.00000000000E+00  0.10000000000E+04  0.10000000000E+04  0.00000000000E+00 0. -1.
          2   -1    0    0  501    0 -0.00000000000E+00 -0.00000000000E+00 -0.10544413203E+03  0.10544413203E+03  0.00000000000E+00 0. -1.
    9000006    2    1    2  501    0  0.00000000000E+00  0.00000000000E+00  0.89455586797E+03  0.11054441320E+04  0.64944324471E+03 0.  0.
         13    1    3    3    0    0 -0.55011311366E+02  0.81249765872E+02 -0.79606582624E+02  0.12635258933E+03  0.00000000000E+00 0. -1.
          2    1    3    3  501    0  0.55011311366E+02 -0.81249765872E+02  0.97416245060E+03  0.97909154270E+03  0.00000000000E+00 0. -1.
<mgrwt>
<rscale>  0 0.64944324E+03</rscale>
<asrwt>0</asrwt>
<pdfrwt beam="1">0</pdfrwt>
<pdfrwt beam="2">  1        2 0.38343402E+00 0.64944324E+03</pdfrwt>
<totfact> 0.45911329E+00</totfact>
</mgrwt>
</event>
<event>
 5    1  0.2368916E-004  0.6517603E+03  0.7818608E-02  0.9803482E-01
         13   -1    0    0    0    0  0.00000000000E+00  0.00000000000E+00  0.10000000000E+04  0.10000000000E+04  0.00000000000E+00 0. -1.
          2   -1    0    0  501    0 -0.00000000000E+00 -0.00000000000E+00 -0.10619786876E+03  0.10619786876E+03  0.00000000000E+00 0. -1.
    9000006    2    1    2  501    0  0.00000000000E+00  0.00000000000E+00  0.89380213124E+03  0.11061978688E+04  0.65176028954E+03 0.  0.
         13    1    3    3    0    0 -0.24876698749E+02  0.24575353387E+03  0.86124506549E+02  0.26159334889E+03  0.00000000000E+00 0. -1.
          2    1    3    3  501    0  0.24876698749E+02 -0.24575353387E+03  0.80767762469E+03  0.84460451987E+03  0.00000000000E+00 0. -1.
<mgrwt>
<rscale>  0 0.65176029E+03</rscale>
<asrwt>0</asrwt>
<pdfrwt beam="1">0</pdfrwt>
<pdfrwt beam="2">  1        2 0.38617488E+00 0.65176029E+03</pdfrwt>
<totfact> 0.44842531E+00</totfact>
</mgrwt>
</event>
<event>
 5    1  0.2368916E-004  0.6551840E+03  0.7818608E-02  0.9797100E-01
         13   -1    0    0    0    0  0.00000000000E+00  0.00000000000E+00  0.10000000000E+04  0.10000000000E+04  0.00000000000E+00 0. -1.
          2   -1    0    0  501    0 -0.00000000000E+00 -0.00000000000E+00 -0.10731652567E+03  0.10731652567E+03  0.00000000000E+00 0. -1.
    9000006    2    1    2  501    0  0.00000000000E+00  0.00000000000E+00  0.89268347433E+03  0.11073165257E+04  0.65518402200E+03 0.  0.
         13    1    3    3    0    0  0.20004316285E+03  0.19681674002E+03  0.16071026616E+03  0.32339122716E+03  0.00000000000E+00 0. -1.
          2    1    3    3  501    0 -0.20004316285E+03 -0.19681674002E+03  0.73197320817E+03  0.78392529851E+03  0.00000000000E+00 0. -1.
<mgrwt>
<rscale>  0 0.65518402E+03</rscale>
<asrwt>0</asrwt>
<pdfrwt beam="1">0</pdfrwt>
<pdfrwt beam="2">  1        2 0.39024273E+00 0.65518402E+03</pdfrwt>
<totfact> 0.43297783E+00</totfact>
</mgrwt>
</event>
<event>
 5    1  0.2368916E-004  0.6477373E+03  0.7818608E-02  0.9811034E-01
         13   -1    0    0    0    0  0.00000000000E+00  0.00000000000E+00  0.10000000000E+04  0.10000000000E+04  0.00000000000E+00 0. -1.
          2   -1    0    0  501    0 -0.00000000000E+00 -0.00000000000E+00 -0.10489089914E+03  0.10489089914E+03  0.00000000000E+00 0. -1.
    9000006    2    1    2  501    0  0.00000000000E+00  0.00000000000E+00  0.89510910086E+03  0.11048908991E+04  0.64773728979E+03 0.  0.
         13    1    3    3    0    0  0.10105383295E+03 -0.18735688730E+03  0.86390371095E+03  0.88974384075E+03  0.00000000000E+00 0. -1.
          4    1    3    3  501    0 -0.10105383295E+03  0.18735688730E+03  0.31205389910E+02  0.21514705839E+03  0.00000000000E+00 0. -1.
<mgrwt>
<rscale>  0 0.64773729E+03</rscale>
<asrwt>0</asrwt>
<pdfrwt beam="1">0</pdfrwt>
<pdfrwt beam="2">  1        2 0.38142226E+00 0.64773729E+03</pdfrwt>
<totfact> 0.46710468E+00</totfact>
</mgrwt>
</event>
<event>
 5    1  0.2368916E-004  0.6751574E+03  0.7818608E-02  0.9760686E-01
         13   -1    0    0    0    0  0.00000000000E+00  0.00000000000E+00  0.10000000000E+04  0.10000000000E+04  0.00000000000E+00 0. -1.
          2   -1    0    0  501    0 -0.00000000000E+00 -0.00000000000E+00 -0.11395938643E+03  0.11395938643E+03  0.00000000000E+00 0. -1.
    9000006    2    1    2  501    0  0.00000000000E+00  0.00000000000E+00  0.88604061357E+03  0.11139593864E+04  0.67515742293E+03 0.  0.
         13    1    3    3    0    0  0.26108178394E+02 -0.22272748215E+02  0.99711447462E+03  0.99770486006E+03  0.00000000000E+00 0. -1.
          4    1    3    3  501    0 -0.26108178394E+02  0.22272748215E+02 -0.11107386105E+03  0.11625452637E+03  0.00000000000E+00 0. -1.
<mgrwt>
<rscale>  0 0.67515742E+03</rscale>
<asrwt>0</asrwt>
<pdfrwt beam="1">0</pdfrwt>
<pdfrwt beam="2">  1        2 0.41439864E+00 0.67515742E+03</pdfrwt>
<totfact> 0.35070943E+00</totfact>
</mgrwt>
</event>
<event>
 5    1  0.2368916E-004  0.6537620E+03  0.7818608E-02  0.9799746E-01
         13   -1    0    0    0    0  0.00000000000E+00  0.00000000000E+00  0.10000000000E+04  0.10000000000E+04  0.00000000000E+00 0. -1.
          2   -1    0    0  501    0 -0.00000000000E+00 -0.00000000000E+00 -0.10685119285E+03  0.10685119285E+03  0.00000000000E+00 0. -1.
    9000006    2    1    2  501    0  0.00000000000E+00  0.00000000000E+00  0.89314880715E+03  0.11068511929E+04  0.65376201436E+03 0.  0.
         13    1    3    3    0    0 -0.29072427551E+03  0.64743904340E+02  0.67459496679E+03  0.73742168855E+03  0.00000000000E+00 0. -1.
          4    1    3    3  501    0  0.29072427551E+03 -0.64743904340E+02  0.21855384035E+03  0.36942950430E+03  0.00000000000E+00 0. -1.
<mgrwt>
<rscale>  0 0.65376201E+03</rscale>
<asrwt>0</asrwt>
<pdfrwt beam="1">0</pdfrwt>
<pdfrwt beam="2">  1        2 0.38855061E+00 0.65376201E+03</pdfrwt>
<totfact> 0.43934413E+00</totfact>
</mgrwt>
</event>
<event>
 5    1  0.2368916E-004  0.6502769E+03  0.7818608E-02  0.9806260E-01
         13   -1    0    0    0    0  0.00000000000E+00  0.00000000000E+00  0.10000000000E+04  0.10000000000E+04  0.00000000000E+00 0. -1.
          2   -1    0    0  501    0 -0.00000000000E+00 -0.00000000000E+00 -0.10571501749E+03  0.10571501749E+03  0.00000000000E+00 0. -1.
    9000006    2    1    2  501    0  0.00000000000E+00  0.00000000000E+00  0.89428498251E+03  0.11057150175E+04  0.65027691790E+03 0.  0.
         13    1    3    3    0    0  0.17875781284E+03 -0.10932653749E+03  0.24407190970E+02  0.21095582102E+03  0.00000000000E+00 0. -1.
          2    1    3    3  501    0 -0.17875781284E+03  0.10932653749E+03  0.86987779154E+03  0.89475919647E+03  0.00000000000E+00 0. -1.
<mgrwt>
<rscale>  0 0.65027692E+03</rscale>
<asrwt>0</asrwt>
<pdfrwt beam="1">0</pdfrwt>
<pdfrwt beam="2">  1        2 0.38441906E+00 0.65027692E+03</pdfrwt>
<totfact> 0.45524583E+00</totfact>
</mgrwt>
</event>
<event>
 5    1  0.2368916E-004  0.6269257E+03  0.7818608E-02  0.9851066E-01
         13   -1    0    0    0    0  0.00000000000E+00  0.00000000000E+00  0.10000000000E+04  0.10000000000E+04  0.00000000000E+00 0. -1.
          2   -1    0    0  501    0 -0.00000000000E+00 -0.00000000000E+00 -0.98258962462E+02  0.98258962462E+02  0.00000000000E+00 0. -1.
    9000006    2    1    2  501    0  0.00000000000E+00  0.00000000000E+00  0.90174103754E+03  0.10982589625E+04  0.62692571318E+03 0.  0.
         13    1    3    3    0    0  0.12889144058E+02 -0.30551802488E+03  0.33011494415E+03  0.44998141063E+03  0.00000000000E+00 0. -1.
          2    1    3    3  501    0 -0.12889144058E+02  0.30551802488E+03  0.57162609339E+03  0.64827755183E+03  0.00000000000E+00 0. -1.
<mgrwt>
<rscale>  0 0.62692571E+03</rscale>
<asrwt>0</asrwt>
<pdfrwt beam="1">0</pdfrwt>
<pdfrwt beam="2">  1        2 0.35730607E+00 0.62692571E+03</pdfrwt>
<totfact> 0.57332962E+00</totfact>
</mgrwt>
</event>
<event>
 5    1  0.2368916E-004  0.6365636E+03  0.7818608E-02  0.9832323E-01
         13   -1    0    0    0    0  0.00000000000E+00  0.00000000000E+00  0.10000000000E+04  0.10000000000E+04  0.00000000000E+00 0. -1.
          2   -1    0    0  501    0 -0.00000000000E+00 -0.00000000000E+00 -0.10130331405E+03  0.10130331405E+03  0.00000000000E+00 0. -1.
    9000006    2    1    2  501    0  0.00000000000E+00  0.00000000000E+00  0.89869668595E+03  0.11013033141E+04  0.63656363091E+03 0.  0.
         13    1    3    3    0    0 -0.15959232977E+03 -0.27164975816E+03  0.52748978155E+03  0.61441742527E+03  0.00000000000E+00 0. -1.
          2    1    3    3  501    0  0.15959232977E+03  0.27164975816E+03  0.37120690440E+03  0.48688588879E+03  0.00000000000E+00 0. -1.
<mgrwt>
<rscale>  0 0.63656363E+03</rscale>
<asrwt>0</asrwt>
<pdfrwt beam="1">0</pdfrwt>
<pdfrwt beam="2">  1        2 0.36837646E+00 0.63656363E+03</pdfrwt>
<totfact> 0.52208366E+00</totfact>
</mgrwt>
</event>
<event>
 5    1  0.2368916E-004  0.6499365E+03  0.7818608E-02  0.9806898E-01
         13   -1    0    0    0    0  0.00000000000E+00  0.00000000000E+00  0.10000000000E+04  0.10000000000E+04  0.00000000000E+00 0. -1.
          2   -1    0    0  501    0 -0.00000000000E+00 -0.00000000000E+00 -0.10560437479E+03  0.10560437479E+03  0.00000000000E+00 0. -1.
    9000006    2    1    2  501    0  0.00000000000E+00  0.00000000000E+00  0.89439562521E+03  0.11056043748E+04  0.64993653472E+03 0.  0.
         13    1    3    3    0    0  0.86562458756E+02  0.24122059468E+03  0.10730224885E+03  0.27783845517E+03  0.00000000000E+00 0. -1.
          4    1    3    3  501    0 -0.86562458756E+02 -0.24122059468E+03  0.78709337636E+03  0.82776591962E+03  0.00000000000E+00 0. -1.
<mgrwt>
<rscale>  0 0.64993653E+03</rscale>
<asrwt>0</asrwt>
<pdfrwt beam="1">0</pdfrwt>
<pdfrwt beam="2">  1        2 0.38401672E+00 0.64993653E+03</pdfrwt>
<totfact> 0.45682190E+00</totfact>
</mgrwt>
</event>
<event>
 5    1  0.2368916E-004  0.6577982E+03  0.7818608E-02  0.9792256E-01
         13   -1    0    0    0    0  0.00000000000E+00  0.00000000000E+00  0.10000000000E+04  0.10000000000E+04  0.00000000000E+00 0. -1.
          2   -1    0    0  501    0 -0.00000000000E+00 -0.00000000000E+00 -0.10817460574E+03  0.10817460574E+03  0.00000000000E+00 0. -1.
    9000006    2    1    2  501    0  0.00000000000E+00  0.00000000000E+00  0.89182539426E+03  0.11081746057E+04  0.65779816277E+03 0.  0.
         13    1    3    3    0    0  0.16673985649E+03  0.12342461317E+03  0.15945440355E+02  0.20806266351E+03  0.00000000000E+00 0. -1.
          4    1    3    3  501    0 -0.16673985649E+03 -0.12342461317E+03  0.87587995391E+03  0.90011194223E+03  0.00000000000E+00 0. -1.
<mgrwt>
<rscale>  0 0.65779816E+03</rscale>
<asrwt>0</asrwt>
<pdfrwt beam="1">0</pdfrwt>
<pdfrwt beam="2">  1        2 0.39336303E+00 0.65779816E+03</pdfrwt>
<totfact> 0.42145641E+00</totfact>
</mgrwt>
</event>
<event>
 5    1  0.2368916E-004  0.6458817E+03  0.7818608E-02  0.9814538E-01
         13   -1    0    0    0    0  0.00000000000E+00  0.00000000000E+00  0.10000000000E+04  0.10000000000E+04  0.00000000000E+00 0. -1.
          2   -1    0    0  501    0 -0.00000000000E+00 -0.00000000000E+00 -0.10429079995E+03  0.10429079995E+03  0.00000000000E+00 0. -1.
    9000006    2    1    2  501    0  0.00000000000E+00  0.00000000000E+00  0.89570920005E+03  0.11042908000E+04  0.64588172278E+03 0.  0.
         13    1    3    3    0    0 -0.10698242868E+03 -0.13115948852E+03  0.91808868872E+03  0.93356033112E+03  0.00000000000E+00 0. -1.
          4    1    3    3  501    0  0.10698242868E+03  0.13115948852E+03 -0.22379488676E+02  0.17073046884E+03  0.00000000000E+00 0. -1.
<mgrwt>
<rscale>  0 0.64588172E+03</rscale>
<asrwt>0</asrwt>
<pdfrwt beam="1">0</pdfrwt>
<pdfrwt beam="2">  1        2 0.37924007E+00 0.64588172E+03</pdfrwt>
<totfact> 0.47591586E+00</totfact>
</mgrwt>
</event>
<event>
 5    1  0.2368916E-004  0.6418821E+03  0.7818608E-02  0.9822132E-01
         13   -1    0    0    0    0  0.00000000000E+00  0.00000000000E+00  0.10000000000E+04  0.10000000000E+04  0.00000000000E+00 0. -1.
          2   -1    0    0  501    0 -0.00000000000E+00 -0.00000000000E+00 -0.10300316760E+03  0.10300316760E+03  0.00000000000E+00 0. -1.
    9000006    2    1    2  501    0  0.00000000000E+00  0.00000000000E+00  0.89699683240E+03  0.11030031676E+04  0.64188213124E+03 0.  0.
         13    1    3    3    0    0  0.21424908733E+03 -0.11448002044E+02  0.38348670367E+02  0.21795492353E+03  0.00000000000E+00 0. -1.
          2    1    3    3  501    0 -0.21424908733E+03  0.11448002044E+02  0.85864816203E+03  0.88504824407E+03  0.00000000000E+00 0. -1.
<mgrwt>
<rscale>  0 0.64188213E+03</rscale>
<asrwt>0</asrwt>
<pdfrwt beam="1">0</pdfrwt>
<pdfrwt beam="2">  1        2 0.37455776E+00 0.64188213E+03</pdfrwt>
<totfact> 0.49533563E+00</totfact>
</mgrwt>
</event>
<event>
 5    1  0.2368916E-004  0.6164368E+03  0.7818608E-02  0.9871880E-01
         13   -1    0    0    0    0  0.00000000000E+00  0.00000000000E+00  0.10000000000E+04  0.10000000000E+04  0.00000000000E+00 0. -1.
          2   -1    0    0  501    0 -0.00000000000E+00 -0.00000000000E+00 -0.94998580777E+02  0.94998580777E+02  0.00000000000E+00 0. -1.
    9000006    2    1    2  501    0  0.00000000000E+00  0.00000000000E+00  0.90500141922E+03  0.10949985808E+04  0.61643679571E+03 0.  0.
         13    1    3    3    0    0 -0.53179808423E+02 -0.26521727242E+02  0.98972720749E+03  0.99150967685E+03  0.00000000000E+00 0. -1.
          2    1    3    3  501    0  0.53179808423E+02  0.26521727242E+02 -0.84725788264E+02  0.10348890393E+03  0.00000000000E+00 0. -1.
<mgrwt>
<rscale>  0 0.61643680E+03</rscale>
<asrwt>0</asrwt>
<pdfrwt beam="1">0</pdfrwt>
<pdfrwt beam="2">  1        2 0.34545011E+00 0.61643680E+03</pdfrwt>
<totfact> 0.63335628E+00</totfact>
</mgrwt>
</event>
<event>
 5    1  0.2368916E-004  0.6653994E+03  0.7818608E-02  0.9778305E-01
         13   -1    0    0    0    0  0.00000000000E+00  0.00000000000E+00  0.10000000000E+04  0.10000000000E+04  0.00000000000E+00 0. -1.
          2   -1    0    0  501    0 -0.00000000000E+00 -0.00000000000E+00 -0.11068908508E+03  0.11068908508E+03  0.00000000000E+00 0. -1.
    9000006    2    1    2  501    0  0.00000000000E+00  0.00000000000E+00  0.88931091492E+03  0.11106890851E+04  0.66539938407E+03 0.  0.
         13    1    3    3    0    0 -0.63057184612E+01 -0.24980210995E+03  0.78006210614E+02  0.26177437827E+03  0.00000000000E+00 0. -1.
          4    1    3    3  501    0  0.63057184612E+01  0.24980210995E+03  0.81130470430E+03  0.84891470682E+03  0.00000000000E+00 0. -1.
<mgrwt>
<rscale>  0 0.66539938E+03</rscale>
<asrwt>0</asrwt>
<pdfrwt beam="1">0</pdfrwt>
<pdfrwt beam="2">  1        2 0.40250661E+00 0.66539938E+03</pdfrwt>
<totfact> 0.38926958E+00</totfact>
</mgrwt>
</event>
<event>
 5    1  0.2368916E-004  0.6608034E+03  0.7818608E-02  0.9786716E-01
         13   -1    0    0    0    0  0.00000000000E+00  0.00000000000E+00  0.10000000000E+04  0.10000000000E+04  0.00000000000E+00 0. -1.
          2   -1    0    0  501    0 -0.00000000000E+00 -0.00000000000E+00 -0.10916528282E+03  0.10916528282E+03  0.00000000000E+00 0. -1.
    9000006    2    1    2  501    0  0.00000000000E+00  0.00000000000E+00  0.89083471718E+03  0.11091652828E+04  0.66080339837E+03 0.  0.
         13    1    3    3    0    0 -0.20022558431E+03 -0.13885741540E+03  0.70866467683E+02  0.25375918242E+03  0.00000000000E+00 0. -1.
          2    1    3    3  501    0  0.20022558431E+03  0.13885741540E+03  0.81996824949E+03  0.85540610040E+03  0.00000000000E+00 0. -1.
<mgrwt>
<rscale>  0 0.66080340E+03</rscale>
<asrwt>0</asrwt>
<pdfrwt beam="1">0</pdfrwt>
<pdfrwt beam="2">  1        2 0.39696550E+00 0.66080340E+03</pdfrwt>
<totfact> 0.40849993E+00</totfact>
</mgrwt>
</event>
<event>
 5    1  0.2368916E-004  0.6514363E+03  0.7818608E-02  0.9804088E-01
         13   -1    0    0    0    0  0.00000000000E+00  0.00000000000E+00  0.10000000000E+04  0.10000000000E+04  0.00000000000E+00 0. -1.
          2   -1    0    0  501    0 -0.00000000000E+00 -0.00000000000E+00 -0.10609232761E+03  0.10609232761E+03  0.00000000000E+00 0. -1.
    9000006    2    1    2  501    0  0.00000000000E+00  0.00000000000E+00  0.89390767239E+03  0.11060923276E+04  0.65143634413E+03 0.  0.
         13    1    3    3    0    0  0.47825090367E+02  0.12996033449E+03 -0.53619556397E+02  0.14849910652E+03  0.00000000000E+00 0. -1.
          2    1    3    3  501    0 -0.47825090367E+02 -0.12996033449E+03  0.94752722878E+03  0.95759322110E+03  0.00000000000E+00 0. -1.
<mgrwt>
<rscale>  0 0.65143634E+03</rscale>
<asrwt>0</asrwt>
<pdfrwt beam="1">0</pdfrwt>
<pdfrwt beam="2">  1        2 0.38579110E+00 0.65143634E+03</pdfrwt>
<totfact> 0.44990817E+00</totfact>
</mgrwt>
</event>
<event>
 5    1  0.2368916E-004  0.6350916E+03  0.7818608E-02  0.9835163E-01
         13   -1    0    0    0    0  0.00000000000E+00  0.00000000000E+00  0.10000000000E+04  0.10000000000E+04  0.00000000000E+00 0. -1.
          2   -1    0    0  501    0 -0.00000000000E+00 -0.00000000000E+00 -0.10083532736E+03  0.10083532736E+03  0.00000000000E+00 0. -1.
    9000006    2    1    2  501    0  0.00000000000E+00  0.00000000000E+00  0.89916467264E+03  0.11008353274E+04  0.63509157563E+03 0.  0.
         13    1    3    3    0    0  0.12465834222E+03 -0.24534590286E+03  0.72420199993E+03  0.77472759796E+03  0.00000000000E+00 0. -1.
          4    1    3    3  501    0 -0.12465834222E+03  0.24534590286E+03  0.17496267271E+03  0.32610772940E+03  0.00000000000E+00 0. -1.
<mgrwt>
<rscale>  0 0.63509158E+03</rscale>
<asrwt>0</asrwt>
<pdfrwt beam="1">0</pdfrwt>
<pdfrwt beam="2">  1        2 0.36667469E+00 0.63509158E+03</pdfrwt>
<totfact> 0.52967661E+00</totfact>
</mgrwt>
</event>
<event>
 5    1  0.2368916E-004  0.6453355E+03  0.7818608E-02  0.9815571E-01
         13   -1    0    0    0    0  0.00000000000E+00  0.00000000000E+00  0.10000000000E+04  0.10000000000E+04  0.00000000000E+00 0. -1.
          2   -1    0    0  501    0 -0.00000000000E+00 -0.00000000000E+00 -0.10411448636E+03  0.10411448636E+03  0.00000000000E+00 0. -1.
    9000006    2    1    2  501    0  0.00000000000E+00  0.00000000000E+00  0.89588551364E+03  0.11041144864E+04  0.64533552935E+03 0.  0.
         13    1    3    3    0    0 -0.10715135426E+02 -0.10659082920E+03 -0.72800044409E+02  0.12952322364E+03  0.00000000000E+00 0. -1.
          2    1    3    3  501    0  0.10715135426E+02  0.10659082920E+03  0.96868555805E+03  0.97459126272E+03  0.00000000000E+00 0. -1.
<mgrwt>
<rscale>  0 0.64533553E+03</rscale>
<asrwt>0</asrwt>
<pdfrwt beam="1">0</pdfrwt>
<pdfrwt beam="2">  1        2 0.37859893E+00 0.64533553E+03</pdfrwt>
<totfact> 0.47853326E+00</totfact>
</mgrwt>
</event>
<event>
 5    1  0.2368916E-004  0.6488691E+03  0.7818608E-02  0.9808903E-01
         13   -1    0    0    0    0  0.00000000000E+00  0.00000000000E+00  0.10000000000E+04  0.10000000000E+04  0.00000000000E+00 0. -1.
          2   -1    0    0  501    0 -0.00000000000E+00 -0.00000000000E+00 -0.10525778651E+03  0.10525778651E+03  0.00000000000E+00 0. -1.
    9000006    2    1    2  501    0  0.00000000000E+00  0.00000000000E+00  0.89474221349E+03  0.11052577865E+04  0.64886912860E+03 0.  0.
         13    1    3    3    0    0 -0.14969061679E+03  0.28783642437E+03  0.44879477861E+03  0.55378140205E+03  0.00000000000E+00 0. -1.
          4    1    3    3  501    0  0.14969061679E+03 -0.28783642437E+03  0.44594743487E+03  0.55147638446E+03  0.00000000000E+00 0. -1.
<mgrwt>
<rscale>  0 0.64886913E+03</rscale>
<asrwt>0</asrwt>
<pdfrwt beam="1">0</pdfrwt>
<pdfrwt beam="2">  1        2 0.38275639E+00 0.64886913E+03</pdfrwt>
<totfact> 0.46179105E+00</totfact>
</mgrwt>
</event>
<event>
 5    1  0.2368916E-004  0.6524289E+03  0.7818608E-02  0.9802232E-01
         13   -1    0    0    0    0  0.00000000000E+00  0.00000000000E+00  0.10000000000E+04  0.10000000000E+04  0.00000000000E+00 0. -1.
          2   -1    0    0  501    0 -0.00000000000E+00 -0.00000000000E+00 -0.10641585764E+03  0.10641585764E+03  0.00000000000E+00 0. -1.
    9000006    2    1    2  501    0  0.00000000000E+00  0.00000000000E+00  0.89358414236E+03  0.11064158576E+04  0.65242887012E+03 0.  0.
         13    1    3    3    0    0 -0.13650816511E+03 -0.19919087123E+03  0.74848110934E+02  0.25281163350E+03  0.00000000000E+00 0. -1.
          2    1    3    3  501    0  0.13650816511E+03  0.19919087123E+03  0.81873603142E+03  0.85360422414E+03  0.00000000000E+00 0. -1.
<mgrwt>
<rscale>  0 0.65242887E+03</rscale>
<asrwt>0</asrwt>
<pdfrwt beam="1">0</pdfrwt>
<pdfrwt beam="2">  1        2 0.38696757E+00 0.65242887E+03</pdfrwt>
<totfact> 0.44537655E+00</totfact>
</mgrwt>
</event>
<event>
 5    1  0.2368916E-004  0.6517012E+03  0.7818608E-02  0.9803592E-01
         13   -1    0    0    0    0  0.00000000000E+00  0.00000000000E+00  0.10000000000E+04  0.10000000000E+04  0.00000000000E+00 0. -1.
          2   -1    0    0  501    0 -0.00000000000E+00 -0.00000000000E+00 -0.10617860268E+03  0.10617860268E+03  0.00000000000E+00 0. -1.
    9000006    2    1    2  501    0  0.00000000000E+00  0.00000000000E+00  0.89382139732E+03  0.11061786027E+04  0.65170116674E+03 0.  0.
         13    1    3    3    0    0 -0.23722454667E+03  0.16853693222E+03  0.69578498212E+03  0.75418626639E+03  0.00000000000E+00 0. -1.
          4    1    3    3  501    0  0.23722454667E+03 -0.16853693222E+03  0.19803641520E+03  0.35199233629E+03  0.00000000000E+00 0. -1.
<mgrwt>
<rscale>  0 0.65170117E+03</rscale>
<asrwt>0</asrwt>
<pdfrwt beam="1">0</pdfrwt>
<pdfrwt beam="2">  1        2 0.38610482E+00 0.65170117E+03</pdfrwt>
<totfact> 0.44869567E+00</totfact>
</mgrwt>
</event>
<event>
 5    1  0.2368916E-004  0.6520371E+03  0.7818608E-02  0.9802964E-01
         13   -1    0    0    0    0  0.00000000000E+00  0.00000000000E+00  0.10000000000E+04  0.10000000000E+04  0.00000000000E+00 0. -1.
          2   -1    0    0  501    0 -0.00000000000E+00 -0.00000000000E+00 -0.10628808416E+03  0.10628808416E+03  0.00000000000E+00 0. -1.
    9000006    2    1    2  501    0  0.00000000000E+00  0.00000000000E+00  0.89371191584E+03  0.11062880842E+04  0.65203706692E+03 0.  0.
         13    1    3    3    0    0  0.15356310881E+02  0.10441058508E+03  0.97021765833E+03  0.97594041370E+03  0.00000000000E+00 0. -1.
          2    1    3    3  501    0 -0.15356310881E+02 -0.10441058508E+03 -0.76505742491E+02  0.13034767046E+03  0.00000000000E+00 0. -1.
<mgrwt>
<rscale>  0 0.65203707E+03</rscale>
<asrwt>0</asrwt>
<pdfrwt beam="1">0</pdfrwt>
<pdfrwt beam="2">  1        2 0.38650294E+00 0.65203707E+03</pdfrwt>
<totfact> 0.44716129E+00</totfact>
</mgrwt>
</event>
<event>
 5    1  0.2368916E-004  0.6357749E+03  0.7818608E-02  0.9833844E-01
         13   -1    0    0    0    0  0.00000000000E+00  0.00000000000E+00  0.10000000000E+04  0.10000000000E+04  0.00000000000E+00 0. -1.
          2   -1    0    0  501    0 -0.00000000000E+00 -0.00000000000E+00 -0.10105241819E+03  0.10105241819E+03  0.00000000000E+00 0. -1.
    9000006    2    1    2  501    0  0.00000000000E+00  0.00000000000E+00  0.89894758181E+03  0.11010524182E+04  0.63577486012E+03 0.  0.
         13    1    3    3    0    0  0.21945821978E+03  0.22958930888E+03  0.47266070523E+03  0.56945702493E+03  0.00000000000E+00 0. -1.
          2    1    3    3  501    0 -0.21945821978E+03 -0.22958930888E+03  0.42628687658E+03  0.53159539325E+03  0.00000000000E+00 0. -1.
<mgrwt>
<rscale>  0 0.63577486E+03</rscale>
<asrwt>0</asrwt>
<pdfrwt beam="1">0</pdfrwt>
<pdfrwt beam="2">  1        2 0.36746411E+00 0.63577486E+03</pdfrwt>
<totfact> 0.52614185E+00</totfact>
</mgrwt>
</event>
<event>
 5    1  0.2368916E-004  0.6475922E+03  0.7818608E-02  0.9811308E-01
         13   -1    0    0    0    0  0.00000000000E+00  0.00000000000E+00  0.10000000000E+04  0.10000000000E+04  0.00000000000E+00 0. -1.
          2   -1    0    0  501    0 -0.00000000000E+00 -0.00000000000E+00 -0.10484391257E+03  0.10484391257E+03  0.00000000000E+00 0. -1.
    9000006    2    1    2  501    0  0.00000000000E+00  0.00000000000E+00  0.89515608743E+03  0.11048439126E+04  0.64759219442E+03 0.  0.
         13    1    3    3    0    0  0.26876437475E+03  0.77740914289E+02  0.72565320045E+03  0.77772135513E+03  0.00000000000E+00 0. -1.
          4    1    3    3  501    0 -0.26876437475E+03 -0.77740914289E+02  0.16950288698E+03  0.32712255744E+03  0.00000000000E+00 0. -1.
<mgrwt>
<rscale>  0 0.64759219E+03</rscale>
<asrwt>0</asrwt>
<pdfrwt beam="1">0</pdfrwt>
<pdfrwt beam="2">  1        2 0.38125140E+00 0.64759219E+03</pdfrwt>
<totfact> 0.46778919E+00</totfact>
</mgrwt>
</event>
<event>
 5    1  0.2368916E-004  0.7197924E+03  0.7818608E-02  0.9683971E-01
         13   -1    0    0    0    0  0.00000000000E+00  0.00000000000E+00  0.10000000000E+04  0.10000000000E+04  0.00000000000E+00 0. -1.
          2   -1    0    0  501    0 -0.00000000000E+00 -0.00000000000E+00 -0.12952527079E+03  0.12952527079E+03  0.00000000000E+00 0. -1.
    9000006    2    1    2  501    0  0.00000000000E+00  0.00000000000E+00  0.87047472921E+03  0.11295252708E+04  0.71979238894E+03 0.  0.
         13    1    3    3    0    0 -0.32864809877E+02  0.22408952128E+03 -0.36698925578E+01  0.22651639540E+03  0.00000000000E+00 0. -1.
          2    1    3    3  501    0  0.32864809877E+02 -0.22408952128E+03  0.87414462176E+03  0.90300887539E+03  0.00000000000E+00 0. -1.
<mgrwt>
<rscale>  0 0.71979239E+03</rscale>
<asrwt>0</asrwt>
<pdfrwt beam="1">0</pdfrwt>
<pdfrwt beam="2">  1        2 0.47100198E+00 0.71979239E+03</pdfrwt>
<totfact> 0.20961201E+00</totfact>
</mgrwt>
</event>
<event>
 5    1  0.2368916E-004  0.5939740E+03  0.7818608E-02  0.9917988E-01
         13   -1    0    0    0    0  0.00000000000E+00  0.00000000000E+00  0.10000000000E+04  0.10000000000E+04  0.00000000000E+00 0. -1.
          2   -1    0    0  501    0 -0.00000000000E+00 -0.00000000000E+00 -0.88201266685E+02  0.88201266685E+02  0.00000000000E+00 0. -1.
    9000006    2    1    2  501    0  0.00000000000E+00  0.00000000000E+00  0.91179873331E+03  0.10882012667E+04  0.59397396133E+03 0.  0.
         13    1    3    3    0    0  0.29593109172E+03 -0.24722171008E+02  0.44883463284E+03  0.53818112604E+03  0.00000000000E+00 0. -1.
          4    1    3    3  501    0 -0.29593109172E+03  0.24722171008E+02  0.46296410047E+03  0.55002014064E+03  0.00000000000E+00 0. -1.
<mgrwt>
<rscale>  0 0.59397396E+03</rscale>
<asrwt>0</asrwt>
<pdfrwt beam="1">0</pdfrwt>
<pdfrwt beam="2">  1        2 0.32073256E+00 0.59397396E+03</pdfrwt>
<totfact> 0.77799285E+00</totfact>
</mgrwt>
</event>
<event>
 5    1  0.2368916E-004  0.6292001E+03  0.7818608E-02  0.9846611E-01
         13   -1    0    0    0    0  0.00000000000E+00  0.00000000000E+00  0.10000000000E+04  0.10000000000E+04  0.00000000000E+00 0. -1.
          2   -1    0    0  501    0 -0.00000000000E+00 -0.00000000000E+00 -0.98973189667E+02  0.98973189667E+02  0.00000000000E+00 0. -1.
    9000006    2    1    2  501    0  0.00000000000E+00  0.00000000000E+00  0.90102681033E+03  0.10989731897E+04  0.62920009430E+03 0.  0.
         13    1    3    3    0    0  0.11820282850E+02 -0.11331942037E+03  0.96269951545E+03  0.96941805593E+03  0.00000000000E+00 0. -1.
          2    1    3    3  501    0 -0.11820282850E+02  0.11331942037E+03 -0.61672705120E+02  0.12955513373E+03  0.00000000000E+00 0. -1.
<mgrwt>
<rscale>  0 0.62920009E+03</rscale>
<asrwt>0</asrwt>
<pdfrwt beam="1">0</pdfrwt>
<pdfrwt beam="2">  1        2 0.35990327E+00 0.62920009E+03</pdfrwt>
<totfact> 0.56090682E+00</totfact>
</mgrwt>
</event>
<event>
 5    1  0.2368916E-004  0.6504153E+03  0.7818608E-02  0.9806000E-01
         13   -1    0    0    0    0  0.00000000000E+00  0.00000000000E+00  0.10000000000E+04  0.10000000000E+04  0.00000000000E+00 0. -1.
          2   -1    0    0  501    0 -0.00000000000E+00 -0.00000000000E+00 -0.10576002433E+03  0.10576002433E+03  0.00000000000E+00 0. -1.
    9000006    2    1    2  501    0  0.00000000000E+00  0.00000000000E+00  0.89423997567E+03  0.11057600243E+04  0.65041532679E+03 0.  0.
         13    1    3    3    0    0  0.11931393584E+03 -0.61796255189E+02  0.95060131028E+03  0.96005075050E+03  0.00000000000E+00 0. -1.
          4    1    3    3  501    0 -0.11931393584E+03  0.61796255189E+02 -0.56361334608E+02  0.14570927383E+03  0.00000000000E+00 0. -1.
<mgrwt>
<rscale>  0 0.65041533E+03</rscale>
<asrwt>0</asrwt>
<pdfrwt beam="1">0</pdfrwt>
<pdfrwt beam="2">  1        2 0.38458272E+00 0.65041533E+03</pdfrwt>
<totfact> 0.45460613E+00</totfact>
</mgrwt>
</event>
<event>
 5    1  0.2368916E-004  0.6451721E+03  0.7818608E-02  0.9815881E-01
         13   -1    0    0    0    0  0.00000000000E+00  0.00000000000E+00  0.10000000000E+04  0.10000000000E+04  0.00000000000E+00 0. -1.
          2   -1    0    0  501    0 -0.00000000000E+00 -0.00000000000E+00 -0.10406174470E+03  0.10406174470E+03  0.00000000000E+00 0. -1.
    9000006    2    1    2  501    0  0.00000000000E+00  0.00000000000E+00  0.89593825530E+03  0.11040617447E+04  0.64517205365E+03 0.  0.
         13    1    3    3    0    0  0.16583409662E+03 -0.27649984239E+03  0.43013297325E+03  0.53755695989E+03  0.00000000000E+00 0. -1.
          2    1    3    3  501    0 -0.16583409662E+03  0.27649984239E+03  0.46580528204E+03  0.56650478482E+03  0.00000000000E+00 0. -1.
<mgrwt>
<rscale>  0 0.64517205E+03</rscale>
<asrwt>0</asrwt>
<pdfrwt beam="1">0</pdfrwt>
<pdfrwt beam="2">  1        2 0.37840714E+00 0.64517205E+03</pdfrwt>
<totfact> 0.47931876E+00</totfact>
</mgrwt>
</event>
<event>
 5    1  0.2368916E-004  0.6477389E+03  0.7818608E-02  0.9811031E-01
         13   -1    0    0    0    0  0.00000000000E+00  0.00000000000E+00  0.10000000000E+04  0.10000000000E+04  0.00000000000E+00 0. -1.
          2   -1    0    0  501    0 -0.00000000000E+00 -0.00000000000E+00 -0.10489141024E+03  0.10489141024E+03  0.00000000000E+00 0. -1.
    9000006    2    1    2  501    0  0.00000000000E+00  0.00000000000E+00  0.89510858976E+03  0.11048914102E+04  0.64773886787E+03 0.  0.
         13    1    3    3    0    0  0.21981024995E+03 -0.27034092437E+02  0.85064982702E+03  0.87900655080E+03  0.00000000000E+00 0. -1.
          2    1    3    3  501    0 -0.21981024995E+03  0.27034092437E+02  0.44458762742E+02  0.22588485944E+03  0.00000000000E+00 0. -1.
<mgrwt>
<rscale>  0 0.64773887E+03</rscale>
<asrwt>0</asrwt>
<pdfrwt beam="1">0</pdfrwt>
<pdfrwt beam="2">  1        2 0.38142411E+00 0.64773887E+03</pdfrwt>
<totfact> 0.46709724E+00</totfact>
</mgrwt>
</event>
<event>
 5    1  0.2368916E-004  0.6834782E+03  0.7818608E-02  0.9745911E-01
         13   -1    0    0    0    0  0.00000000000E+00  0.00000000000E+00  0.10000000000E+04  0.10000000000E+04  0.00000000000E+00 0. -1.
          2   -1    0    0  501    0 -0.00000000000E+00 -0.00000000000E+00 -0.11678562353E+03  0.11678562353E+03  0.00000000000E+00 0. -1.
    9000006    2    1    2  501    0  0.00000000000E+00  0.00000000000E+00  0.88321437647E+03  0.11167856235E+04  0.68347823236E+03 0.  0.
         13    1    3    3    0    0  0.23325583484E+03 -0.14522508197E+03  0.77361772554E+03  0.82096467292E+03  0.00000000000E+00 0. -1.
          2    1    3    3  501    0 -0.23325583484E+03  0.14522508197E+03  0.10959665094E+03  0.29582095061E+03  0.00000000000E+00 0. -1.
<mgrwt>
<rscale>  0 0.68347823E+03</rscale>
<asrwt>0</asrwt>
<pdfrwt beam="1">0</pdfrwt>
<pdfrwt beam="2">  1        2 0.42467589E+00 0.68347823E+03</pdfrwt>
<totfact> 0.32016742E+00</totfact>
</mgrwt>
</event>
<event>
 5    1  0.2368916E-004  0.6429086E+03  0.7818608E-02  0.9820177E-01
         13   -1    0    0    0    0  0.00000000000E+00  0.00000000000E+00  0.10000000000E+04  0.10000000000E+04  0.00000000000E+00 0. -1.
          2   -1    0    0  501    0 -0.00000000000E+00 -0.00000000000E+00 -0.10333287193E+03  0.10333287193E+03  0.00000000000E+00 0. -1.
    9000006    2    1    2  501    0  0.00000000000E+00  0.00000000000E+00  0.89666712807E+03  0.11033328719E+04  0.64290861537E+03 0.  0.
         13    1    3    3    0    0  0.22849203487E+02  0.14596834902E+03  0.93827801713E+03  0.94983918768E+03  0.00000000000E+00 0. -1.
          2    1    3    3  501    0 -0.22849203487E+02 -0.14596834902E+03 -0.41610889061E+02  0.15349368425E+03  0.00000000000E+00 0. -1.
<mgrwt>
<rscale>  0 0.64290862E+03</rscale>
<asrwt>0</asrwt>
<pdfrwt beam="1">0</pdfrwt>
<pdfrwt beam="2">  1        2 0.37575669E+00 0.64290862E+03</pdfrwt>
<totfact> 0.49029517E+00</totfact>
</mgrwt>
</event>
<event>
 5    1  0.2368916E-004  0.6774837E+03  0.7818608E-02  0.9756532E-01
         13   -1    0    0    0    0  0.00000000000E+00  0.00000000000E+00  0.10000000000E+04  0.10000000000E+04  0.00000000000E+00 0. -1.
          2   -1    0    0  501    0 -0.00000000000E+00 -0.00000000000E+00 -0.11474602420E+03  0.11474602420E+03  0.00000000000E+00 0. -1.
    9000006    2    1    2  501    0  0.00000000000E+00  0.00000000000E+00  0.88525397580E+03  0.11147460242E+04  0.67748365059E+03 0.  0.
         13    1    3    3    0    0  0.16307828912E+03  0.12465686594E+03 -0.75882806562E+00  0.20526674944E+03  0.00000000000E+00 0. -1.
          2    1    3    3  501    0 -0.16307828912E+03 -0.12465686594E+03  0.88601280386E+03  0.90947927476E+03  0.00000000000E+00 0. -1.
<mgrwt>
<rscale>  0 0.67748365E+03</rscale>
<asrwt>0</asrwt>
<pdfrwt beam="1">0</pdfrwt>
<pdfrwt beam="2">  1        2 0.41725915E+00 0.67748365E+03</pdfrwt>
<totfact> 0.34195917E+00</totfact>
</mgrwt>
</event>
<event>
 5    1  0.2368916E-004  0.7127427E+03  0.7818608E-02  0.9695685E-01
         13   -1    0    0    0    0  0.00000000000E+00  0.00000000000E+00  0.10000000000E+04  0.10000000000E+04  0.00000000000E+00 0. -1.
          2   -1    0    0  501    0 -0.00000000000E+00 -0.00000000000E+00 -0.12700052441E+03  0.12700052441E+03  0.00000000000E+00 0. -1.
    9000006    2    1    2  501    0  0.00000000000E+00  0.00000000000E+00  0.87299947559E+03  0.11270005244E+04  0.71274265878E+03 0.  0.
         13    1    3    3    0    0 -0.23879249279E+02  0.28766303856E+03  0.76697129179E+03  0.81949082041E+03  0.00000000000E+00 0. -1.
          4    1    3    3  501    0  0.23879249279E+02 -0.28766303856E+03  0.10602818379E+03  0.30750970400E+03  0.00000000000E+00 0. -1.
<mgrwt>
<rscale>  0 0.71274266E+03</rscale>
<asrwt>0</asrwt>
<pdfrwt beam="1">0</pdfrwt>
<pdfrwt beam="2">  1        2 0.46182106E+00 0.71274266E+03</pdfrwt>
<totfact> 0.22838682E+00</totfact>
</mgrwt>
</event>
<event>
 5    1  0.2368916E-004  0.6485315E+03  0.7818608E-02  0.9809539E-01
         13   -1    0    0    0    0  0.00000000000E+00  0.00000000000E+00  0.10000000000E+04  0.10000000000E+04  0.00000000000E+00 0. -1.
          2   -1    0    0  501    0 -0.00000000000E+00 -0.00000000000E+00 -0.10514828096E+03  0.10514828096E+03  0.00000000000E+00 0. -1.
    9000006    2    1    2  501    0  0.00000000000E+00  0.00000000000E+00  0.89485171904E+03  0.11051482810E+04  0.64853151338E+03 0.  0.
         13    1    3    3    0    0  0.27259807582E+03 -0.15415765925E+03  0.30410098507E+03  0.43652228347E+03  0.00000000000E+00 0. -1.
          2    1    3    3  501    0 -0.27259807582E+03  0.15415765925E+03  0.59075073397E+03  0.66862599749E+03  0.00000000000E+00 0. -1.
<mgrwt>
<rscale>  0 0.64853151E+03</rscale>
<asrwt>0</asrwt>
<pdfrwt beam="1">0</pdfrwt>
<pdfrwt beam="2">  1        2 0.38235819E+00 0.64853151E+03</pdfrwt>
<totfact> 0.46337124E+00</totfact>
</mgrwt>
</event>
<event>
 5    1  0.2368916E-004  0.6451049E+03  0.7818608E-02  0.9816008E-01
         13   -1    0    0    0    0  0.00000000000E+00  0.00000000000E+00  0.10000000000E+04  0.10000000000E+04  0.00000000000E+00 0. -1.
          2   -1    0    0  501    0 -0.00000000000E+00 -0.00000000000E+00 -0.10404009546E+03  0.10404009546E+03  0.00000000000E+00 0. -1.
    9000006    2    1    2  501    0  0.00000000000E+00  0.00000000000E+00  0.89595990454E+03  0.11040400955E+04  0.64510493864E+03 0.  0.
         13    1    3    3    0    0  0.81019456067E+02 -0.26895310328E+03  0.17662447214E+03  0.33180736608E+03  0.00000000000E+00 0. -1.
          4    1    3    3  501    0 -0.81019456067E+02  0.26895310328E+03  0.71933543239E+03  0.77223272938E+03  0.00000000000E+00 0. -1.
<mgrwt>
<rscale>  0 0.64510494E+03</rscale>
<asrwt>0</asrwt>
<pdfrwt beam="1">0</pdfrwt>
<pdfrwt beam="2">  1        2 0.37832842E+00 0.64510494E+03</pdfrwt>
<totfact> 0.47964152E+00</totfact>
</mgrwt>
</event>
<event>
 5    1  0.2368916E-004  0.6423110E+03  0.7818608E-02  0.9821315E-01
         13   -1    0    0    0    0  0.00000000000E+00  0.00000000000E+00  0.10000000000E+04  0.10000000000E+04  0.00000000000E+00 0. -1.
          2   -1    0    0  501    0 -0.00000000000E+00 -0.00000000000E+00 -0.10314087088E+03  0.10314087088E+03  0.00000000000E+00 0. -1.
    9000006    2    1    2  501    0  0.00000000000E+00  0.00000000000E+00  0.89685912912E+03  0.11031408709E+04  0.64231104887E+03 0.  0.
         13    1    3    3    0    0  0.11307417690E+03  0.17486474153E+03  0.28521535356E+02  0.21018307565E+03  0.00000000000E+00 0. -1.
          2    1    3    3  501    0 -0.11307417690E+03 -0.17486474153E+03  0.86833759377E+03  0.89295779523E+03  0.00000000000E+00 0. -1.
<mgrwt>
<rscale>  0 0.64231105E+03</rscale>
<asrwt>0</asrwt>
<pdfrwt beam="1">0</pdfrwt>
<pdfrwt beam="2">  1        2 0.37505850E+00 0.64231105E+03</pdfrwt>
<totfact> 0.49322468E+00</totfact>
</mgrwt>
</event>
<event>
 5    1  0.2368916E-004  0.6592121E+03  0.7818608E-02  0.9789645E-01
         13   -1    0    0    0    0  0.00000000000E+00  0.00000000000E+00  0.10000000000E+04  0.10000000000E+04  0.00000000000E+00 0. -1.
          2   -1    0    0  501    0 -0.00000000000E+00 -0.00000000000E+00 -0.10864014323E+03  0.10864014323E+03  0.00000000000E+00 0. -1.
    9000006    2    1    2  501    0  0.00000000000E+00  0.00000000000E+00  0.89135985677E+03  0.11086401432E+04  0.65921208495E+03 0.  0.
         13    1    3    3    0    0 -0.14432893420E+03 -0.25064666832E+03  0.71151354116E+03  0.76805345702E+03  0.00000000000E+00 0. -1.
          2    1    3    3  501    0  0.14432893420E+03  0.25064666832E+03  0.17984631561E+03  0.34058668621E+03  0.00000000000E+00 0. -1.
<mgrwt>
<rscale>  0 0.65921208E+03</rscale>
<asrwt>0</asrwt>
<pdfrwt beam="1">0</pdfrwt>
<pdfrwt beam="2">  1        2 0.39505590E+00 0.65921208E+03</pdfrwt>
<totfact> 0.41532244E+00</totfact>
</mgrwt>
</event>
<event>
 5    1  0.2368916E-004  0.6507609E+03  0.7818608E-02  0.9805352E-01
         13   -1    0    0    0    0  0.00000000000E+00  0.00000000000E+00  0.10000000000E+04  0.10000000000E+04  0.00000000000E+00 0. -1.
          2   -1    0    0  501    0 -0.00000000000E+00 -0.00000000000E+00 -0.10587244997E+03  0.10587244997E+03  0.00000000000E+00 0. -1.
    9000006    2    1    2  501    0  0.00000000000E+00  0.00000000000E+00  0.89412755003E+03  0.11058724500E+04  0.65076093910E+03 0.  0.
         13    1    3    3    0    0  0.13080491048E+03 -0.28658056871E+03  0.30865148100E+03  0.44102617121E+03  0.00000000000E+00 0. -1.
          4    1    3    3  501    0 -0.13080491048E+03  0.28658056871E+03  0.58547606903E+03  0.66484627876E+03  0.00000000000E+00 0. -1.
<mgrwt>
<rscale>  0 0.65076094E+03</rscale>
<asrwt>0</asrwt>
<pdfrwt beam="1">0</pdfrwt>
<pdfrwt beam="2">  1        2 0.38499154E+00 0.65076094E+03</pdfrwt>
<totfact> 0.45301175E+00</totfact>
</mgrwt>
</event>
<event>
 5    1  0.2368916E-004  0.6527895E+03  0.7818608E-02  0.9801559E-01
         13   -1    0    0    0    0  0.00000000000E+00  0.00000000000E+00  0.10000000000E+04  0.10000000000E+04  0.00000000000E+00 0. -1.
          2   -1    0    0  501    0 -0.00000000000E+00 -0.00000000000E+00 -0.10653351781E+03  0.10653351781E+03  0.00000000000E+00 0. -1.
    9000006    2    1    2  501    0  0.00000000000E+00  0.00000000000E+00  0.89346648219E+03  0.11065335178E+04  0.65278945399E+03 0.  0.
         13    1    3    3    0    0  0.19787842072E+03 -0.21916999018E+03  0.68247904570E+03  0.74361885520E+03  0.00000000000E+00 0. -1.
          4    1    3    3  501    0 -0.19787842072E+03  0.21916999018E+03  0.21098743649E+03  0.36291466261E+03  0.00000000000E+00 0. -1.
<mgrwt>
<rscale>  0 0.65278945E+03</rscale>
<asrwt>0</asrwt>
<pdfrwt beam="1">0</pdfrwt>
<pdfrwt beam="2">  1        2 0.38739543E+00 0.65278945E+03</pdfrwt>
<totfact> 0.44373879E+00</totfact>
</mgrwt>
</event>
<event>
 5    1  0.2368916E-004  0.5095280E+03  0.7818608E-02  0.1011321E+00
         13   -1    0    0    0    0  0.00000000000E+00  0.00000000000E+00  0.10000000000E+04  0.10000000000E+04  0.00000000000E+00 0. -1.
          2   -1    0    0  501    0 -0.00000000000E+00 -0.00000000000E+00 -0.64904686711E+02  0.64904686711E+02  0.00000000000E+00 0. -1.
    9000006    2    1    2  501    0  0.00000000000E+00  0.00000000000E+00  0.93509531329E+03  0.10649046867E+04  0.50952796473E+03 0.  0.
         13    1    3    3    0    0 -0.12962231374E+02  0.12168672670E+01 -0.64208975910E+02  0.65515592004E+02  0.00000000000E+00 0. -1.
          4    1    3    3  501    0  0.12962231374E+02 -0.12168672670E+01  0.99930428920E+03  0.99938909471E+03  0.00000000000E+00 0. -1.
<mgrwt>
<rscale>  0 0.50952796E+03</rscale>
<asrwt>0</asrwt>
<pdfrwt beam="1">0</pdfrwt>
<pdfrwt beam="2">  1        2 0.23601754E+00 0.50952796E+03</pdfrwt>
<totfact> 0.15656882E+01</totfact>
</mgrwt>
</event>
<event>
 5    1  0.2368916E-004  0.6627699E+03  0.7818608E-02  0.9783108E-01
         13   -1    0    0    0    0  0.00000000000E+00  0.00000000000E+00  0.10000000000E+04  0.10000000000E+04  0.00000000000E+00 0. -1.
          2   -1    0    0  501    0 -0.00000000000E+00 -0.00000000000E+00 -0.10981599077E+03  0.10981599077E+03  0.00000000000E+00 0. -1.
    9000006    2    1    2  501    0  0.00000000000E+00  0.00000000000E+00  0.89018400923E+03  0.11098159908E+04  0.66276991715E+03 0.  0.
         13    1    3    3    0    0  0.31865587269E+03 -0.77124717686E+02  0.52585493008E+03  0.61968798178E+03  0.00000000000E+00 0. -1.
          2    1    3    3  501    0 -0.31865587269E+03  0.77124717686E+02  0.36432907915E+03  0.49012800899E+03  0.00000000000E+00 0. -1.
<mgrwt>
<rscale>  0 0.66276992E+03</rscale>
<asrwt>0</asrwt>
<pdfrwt beam="1">0</pdfrwt>
<pdfrwt beam="2">  1        2 0.39933172E+00 0.66276992E+03</pdfrwt>
<totfact> 0.40018604E+00</totfact>
</mgrwt>
</event>
<event>
 5    1  0.2368916E-004  0.6381217E+03  0.7818608E-02  0.9829327E-01
         13   -1    0    0    0    0  0.00000000000E+00  0.00000000000E+00  0.10000000000E+04  0.10000000000E+04  0.00000000000E+00 0. -1.
          2   -1    0    0  501    0 -0.00000000000E+00 -0.00000000000E+00 -0.10179981219E+03  0.10179981219E+03  0.00000000000E+00 0. -1.
    9000006    2    1    2  501    0  0.00000000000E+00  0.00000000000E+00  0.89820018781E+03  0.11017998122E+04  0.63812165672E+03 0.  0.
         13    1    3    3    0    0 -0.14573297695E+03  0.11676515170E+03  0.24145769998E+01  0.18675661007E+03  0.00000000000E+00 0. -1.
          2    1    3    3  501    0  0.14573297695E+03 -0.11676515170E+03  0.89578561081E+03  0.91504320212E+03  0.00000000000E+00 0. -1.
<mgrwt>
<rscale>  0 0.63812166E+03</rscale>
<asrwt>0</asrwt>
<pdfrwt beam="1">0</pdfrwt>
<pdfrwt beam="2">  1        2 0.37018192E+00 0.63812166E+03</pdfrwt>
<totfact> 0.51413741E+00</totfact>
</mgrwt>
</event>
<event>
 5    1  0.2368916E-004  0.6486570E+03  0.7818608E-02  0.9809302E-01
         13   -1    0    0    0    0  0.00000000000E+00  0.00000000000E+00  0.10000000000E+04  0.10000000000E+04  0.00000000000E+00 0. -1.
          2   -1    0    0  501    0 -0.00000000000E+00 -0.00000000000E+00 -0.10518897820E+03  0.10518897820E+03  0.00000000000E+00 0. -1.
    9000006    2    1    2  501    0  0.00000000000E+00  0.00000000000E+00  0.89481102180E+03  0.11051889782E+04  0.64865700706E+03 0.  0.
         13    1    3    3    0    0  0.29289742816E+03  0.91356338114E+02  0.62654156894E+03  0.69763115007E+03  0.00000000000E+00 0. -1.
          4    1    3    3  501    0 -0.29289742816E+03 -0.91356338114E+02  0.26826945286E+03  0.40755782814E+03  0.00000000000E+00 0. -1.
<mgrwt>
<rscale>  0 0.64865701E+03</rscale>
<asrwt>0</asrwt>
<pdfrwt beam="1">0</pdfrwt>
<pdfrwt beam="2">  1        2 0.38250618E+00 0.64865701E+03</pdfrwt>
<totfact> 0.46278340E+00</totfact>
</mgrwt>
</event>
<event>
 5    1  0.2368916E-004  0.6528133E+03  0.7818608E-02  0.9801515E-01
         13   -1    0    0    0    0  0.00000000000E+00  0.00000000000E+00  0.10000000000E+04  0.10000000000E+04  0.00000000000E+00 0. -1.
          2   -1    0    0  501    0 -0.00000000000E+00 -0.00000000000E+00 -0.10654130061E+03  0.10654130061E+03  0.00000000000E+00 0. -1.
    9000006    2    1    2  501    0  0.00000000000E+00  0.00000000000E+00  0.89345869939E+03  0.11065413006E+04  0.65281329831E+03 0.  0.
         13    1    3    3    0    0  0.25609459904E+01 -0.13125135192E+03 -0.59821900184E+02  0.14426411739E+03  0.00000000000E+00 0. -1.
          4    1    3    3  501    0 -0.25609459904E+01  0.13125135192E+03  0.95328059957E+03  0.96227718322E+03  0.00000000000E+00 0. -1.
<mgrwt>
<rscale>  0 0.65281330E+03</rscale>
<asrwt>0</asrwt>
<pdfrwt beam="1">0</pdfrwt>
<pdfrwt beam="2">  1        2 0.38742373E+00 0.65281330E+03</pdfrwt>
<totfact> 0.44363065E+00</totfact>
</mgrwt>
</event>
<event>
 5    1  0.2368916E-004  0.6485887E+03  0.7818608E-02  0.9809431E-01
         13   -1    0    0    0    0  0.00000000000E+00  0.00000000000E+00  0.10000000000E+04  0.10000000000E+04  0.00000000000E+00 0. -1.
          2   -1    0    0  501    0 -0.00000000000E+00 -0.00000000000E+00 -0.10516681050E+03  0.10516681050E+03  0.00000000000E+00 0. -1.
    9000006    2    1    2  501    0  0.00000000000E+00  0.00000000000E+00  0.89483318950E+03  0.11051668105E+04  0.64858865394E+03 0.  0.
         13    1    3    3    0    0  0.13915179673E+02  0.17344174352E+03 -0.18892308334E+02  0.17502168419E+03  0.00000000000E+00 0. -1.
          4    1    3    3  501    0 -0.13915179673E+02 -0.17344174352E+03  0.91372549783E+03  0.93014512631E+03  0.00000000000E+00 0. -1.
<mgrwt>
<rscale>  0 0.64858865E+03</rscale>
<asrwt>0</asrwt>
<pdfrwt beam="1">0</pdfrwt>
<pdfrwt beam="2">  1        2 0.38242557E+00 0.64858865E+03</pdfrwt>
<totfact> 0.46310351E+00</totfact>
</mgrwt>
</event>
<event>
 5    1  0.2368916E-004  0.6476404E+03  0.7818608E-02  0.9811217E-01
         13   -1    0    0    0    0  0.00000000000E+00  0.00000000000E+00  0.10000000000E+04  0.10000000000E+04  0.00000000000E+00 0. -1.
          2   -1    0    0  501    0 -0.00000000000E+00 -0.00000000000E+00 -0.10485951019E+03  0.10485951019E+03  0.00000000000E+00 0. -1.
    9000006    2    1    2  501    0  0.00000000000E+00  0.00000000000E+00  0.89514048981E+03  0.11048595102E+04  0.64764036375E+03 0.  0.
         13    1    3    3    0    0 -0.24828722904E+03  0.14090214311E+03  0.18683162098E+03  0.34118325961E+03  0.00000000000E+00 0. -1.
          2    1    3    3  501    0  0.24828722904E+03 -0.14090214311E+03  0.70830886883E+03  0.76367625058E+03  0.00000000000E+00 0. -1.
<mgrwt>
<rscale>  0 0.64764036E+03</rscale>
<asrwt>0</asrwt>
<pdfrwt beam="1">0</pdfrwt>
<pdfrwt beam="2">  1        2 0.38130811E+00 0.64764036E+03</pdfrwt>
<totfact> 0.46756186E+00</totfact>
</mgrwt>
</event>
<event>
 5    1  0.2368916E-004  0.6922247E+03  0.7818608E-02  0.9730622E-01
         13   -1    0    0    0    0  0.00000000000E+00  0.00000000000E+00  0.10000000000E+04  0.10000000000E+04  0.00000000000E+00 0. -1.
          2   -1    0    0  501    0 -0.00000000000E+00 -0.00000000000E+00 -0.11979375103E+03  0.11979375103E+03  0.00000000000E+00 0. -1.
    9000006    2    1    2  501    0  0.00000000000E+00  0.00000000000E+00  0.88020624897E+03  0.11197937510E+04  0.69222467747E+03 0.  0.
         13    1    3    3    0    0  0.13950948363E+03 -0.27509813707E+03  0.69409270234E+03  0.75954365278E+03  0.00000000000E+00 0. -1.
          4    1    3    3  501    0 -0.13950948363E+03  0.27509813707E+03  0.18611354664E+03  0.36025009824E+03  0.00000000000E+00 0. -1.
<mgrwt>
<rscale>  0 0.69222468E+03</rscale>
<asrwt>0</asrwt>
<pdfrwt beam="1">0</pdfrwt>
<pdfrwt beam="2">  1        2 0.43561456E+00 0.69222468E+03</pdfrwt>
<totfact> 0.29026864E+00</totfact>
</mgrwt>
</event>
<event>
 5    1  0.2368916E-004  0.6277514E+03  0.7818608E-02  0.9849447E-01
         13   -1    0    0    0    0  0.00000000000E+00  0.00000000000E+00  0.10000000000E+04  0.10000000000E+04  0.00000000000E+00 0. -1.
          2   -1    0    0  501    0 -0.00000000000E+00 -0.00000000000E+00 -0.98517955521E+02  0.98517955521E+02  0.00000000000E+00 0. -1.
    9000006    2    1    2  501    0  0.00000000000E+00  0.00000000000E+00  0.90148204448E+03  0.10985179555E+04  0.62775140150E+03 0.  0.
         13    1    3    3    0    0  0.16704531545E+03  0.14419149858E+03  0.84134152038E+03  0.86979933294E+03  0.00000000000E+00 0. -1.
          4    1    3    3  501    0 -0.16704531545E+03 -0.14419149858E+03  0.60140524099E+02  0.22871862258E+03  0.00000000000E+00 0. -1.
<mgrwt>
<rscale>  0 0.62775140E+03</rscale>
<asrwt>0</asrwt>
<pdfrwt beam="1">0</pdfrwt>
<pdfrwt beam="2">  1        2 0.35824787E+00 0.62775140E+03</pdfrwt>
<totfact> 0.56879575E+00</totfact>
</mgrwt>
</event>
<event>
 5    1  0.2368916E-004  0.6537869E+03  0.7818608E-02  0.9799699E-01
         13   -1    0    0    0    0  0.00000000000E+00  0.00000000000E+00  0.10000000000E+04  0.10000000000E+04  0.00000000000E+00 0. -1.
          2   -1    0    0  501    0 -0.00000000000E+00 -0.00000000000E+00 -0.10685931916E+03  0.10685931916E+03  0.00000000000E+00 0. -1.
    9000006    2    1    2  501    0  0.00000000000E+00  0.00000000000E+00  0.89314068084E+03  0.11068593192E+04  0.65378687403E+03 0.  0.
         13    1    3    3    0    0 -0.16239606963E+03  0.89615786157E+02  0.90228494457E+03  0.92115231843E+03  0.00000000000E+00 0. -1.
          2    1    3    3  501    0  0.16239606963E+03 -0.89615786157E+02 -0.91442637323E+01  0.18570700073E+03  0.00000000000E+00 0. -1.
<mgrwt>
<rscale>  0 0.65378687E+03</rscale>
<asrwt>0</asrwt>
<pdfrwt beam="1">0</pdfrwt>
<pdfrwt beam="2">  1        2 0.38858016E+00 0.65378687E+03</pdfrwt>
<totfact> 0.43923223E+00</totfact>
</mgrwt>
</event>
<event>
 5    1  0.2368916E-004  0.6564897E+03  0.7818608E-02  0.9794677E-01
         13   -1    0    0    0    0  0.00000000000E+00  0.00000000000E+00  0.10000000000E+04  0.10000000000E+04  0.00000000000E+00 0. -1.
          2   -1    0    0  501    0 -0.00000000000E+00 -0.00000000000E+00 -0.10774466880E+03  0.10774466880E+03  0.00000000000E+00 0. -1.
    9000006    2    1    2  501    0  0.00000000000E+00  0.00000000000E+00  0.89225533120E+03  0.11077446688E+04  0.65648966114E+03 0.  0.
         13    1    3    3    0    0  0.23571012608E+03 -0.13660956261E+03  0.13718013854E+03  0.30502430484E+03  0.00000000000E+00 0. -1.
          4    1    3    3  501    0 -0.23571012608E+03  0.13660956261E+03  0.75507519267E+03  0.80272036396E+03  0.00000000000E+00 0. -1.
<mgrwt>
<rscale>  0 0.65648966E+03</rscale>
<asrwt>0</asrwt>
<pdfrwt beam="1">0</pdfrwt>
<pdfrwt beam="2">  1        2 0.39179962E+00 0.65648966E+03</pdfrwt>
<totfact> 0.42719410E+00</totfact>
</mgrwt>
</event>
<event>
 5    1  0.2368916E-004  0.6603038E+03  0.7818608E-02  0.9787635E-01
         13   -1    0    0    0    0  0.00000000000E+00  0.00000000000E+00  0.10000000000E+04  0.10000000000E+04  0.00000000000E+00 0. -1.
          2   -1    0    0  501    0 -0.00000000000E+00 -0.00000000000E+00 -0.10900029066E+03  0.10900029066E+03  0.00000000000E+00 0. -1.
    9000006    2    1    2  501    0  0.00000000000E+00  0.00000000000E+00  0.89099970934E+03  0.11090002907E+04  0.66030384116E+03 0.  0.
         13    1    3    3    0    0 -0.16746685546E+03  0.41867720967E+02  0.91816824527E+03  0.93425423754E+03  0.00000000000E+00 0. -1.
          4    1    3    3  501    0  0.16746685546E+03 -0.41867720967E+02 -0.27168535934E+02  0.17474605312E+03  0.00000000000E+00 0. -1.
<mgrwt>
<rscale>  0 0.66030384E+03</rscale>
<asrwt>0</asrwt>
<pdfrwt beam="1">0</pdfrwt>
<pdfrwt beam="2">  1        2 0.39636553E+00 0.66030384E+03</pdfrwt>
<totfact> 0.41063253E+00</totfact>
</mgrwt>
</event>
<event>
 5    1  0.2368916E-004  0.6450656E+03  0.7818608E-02  0.9816083E-01
         13   -1    0    0    0    0  0.00000000000E+00  0.00000000000E+00  0.10000000000E+04  0.10000000000E+04  0.00000000000E+00 0. -1.
          2   -1    0    0  501    0 -0.00000000000E+00 -0.00000000000E+00 -0.10402740087E+03  0.10402740087E+03  0.00000000000E+00 0. -1.
    9000006    2    1    2  501    0  0.00000000000E+00  0.00000000000E+00  0.89597259913E+03  0.11040274009E+04  0.64506558075E+03 0.  0.
         13    1    3    3    0    0 -0.11517684237E+03  0.23755451519E+02 -0.66025312761E+02  0.13486796662E+03  0.00000000000E+00 0. -1.
          4    1    3    3  501    0  0.11517684237E+03 -0.23755451519E+02  0.96199791189E+03  0.96915943424E+03  0.00000000000E+00 0. -1.
<mgrwt>
<rscale>  0 0.64506558E+03</rscale>
<asrwt>0</asrwt>
<pdfrwt beam="1">0</pdfrwt>
<pdfrwt beam="2">  1        2 0.37828226E+00 0.64506558E+03</pdfrwt>
<totfact> 0.47983088E+00</totfact>
</mgrwt>
</event>
<event>
 5    1  0.2368916E-004  0.6475994E+03  0.7818608E-02  0.9811294E-01
         13   -1    0    0    0    0  0.00000000000E+00  0.00000000000E+00  0.10000000000E+04  0.10000000000E+04  0.00000000000E+00 0. -1.
          2   -1    0    0  501    0 -0.00000000000E+00 -0.00000000000E+00 -0.10484623053E+03  0.10484623053E+03  0.00000000000E+00 0. -1.
    9000006    2    1    2  501    0  0.00000000000E+00  0.00000000000E+00  0.89515376947E+03  0.11048462305E+04  0.64759935309E+03 0.  0.
         13    1    3    3    0    0  0.23013340632E+03  0.20962204094E+03  0.29552216689E+03  0.42922737084E+03  0.00000000000E+00 0. -1.
          4    1    3    3  501    0 -0.23013340632E+03 -0.20962204094E+03  0.59963160258E+03  0.67561885969E+03  0.00000000000E+00 0. -1.
<mgrwt>
<rscale>  0 0.64759935E+03</rscale>
<asrwt>0</asrwt>
<pdfrwt beam="1">0</pdfrwt>
<pdfrwt beam="2">  1        2 0.38125982E+00 0.64759935E+03</pdfrwt>
<totfact> 0.46775540E+00</totfact>
</mgrwt>
</event>
<event>
 5    1  0.2368916E-004  0.6940652E+03  0.7818608E-02  0.9727436E-01
         13   -1    0    0    0    0  0.00000000000E+00  0.00000000000E+00  0.10000000000E+04  0.10000000000E+04  0.00000000000E+00 0. -1.
          2   -1    0    0  501    0 -0.00000000000E+00 -0.00000000000E+00 -0.12043164036E+03  0.12043164036E+03  0.00000000000E+00 0. -1.
    9000006    2    1    2  501    0  0.00000000000E+00  0.00000000000E+00  0.87956835964E+03  0.11204316404E+04  0.69406524292E+03 0.  0.
         13    1    3    3    0    0  0.30645934831E+03  0.12507872023E+03  0.60808734651E+03  0.69233824061E+03  0.00000000000E+00 0. -1.
          2    1    3    3  501    0 -0.30645934831E+03 -0.12507872023E+03  0.27148101313E+03  0.42809339975E+03  0.00000000000E+00 0. -1.
<mgrwt>
<rscale>  0 0.69406524E+03</rscale>
<asrwt>0</asrwt>
<pdfrwt beam="1">0</pdfrwt>
<pdfrwt beam="2">  1        2 0.43793416E+00 0.69406524E+03</pdfrwt>
<totfact> 0.28425470E+00</totfact>
</mgrwt>
</event>
<event>
 5    1  0.2368916E-004  0.6542237E+03  0.7818608E-02  0.9798886E-01
         13   -1    0    0    0    0  0.00000000000E+00  0.00000000000E+00  0.10000000000E+04  0.10000000000E+04  0.00000000000E+00 0. -1.
          2   -1    0    0  501    0 -0.00000000000E+00 -0.00000000000E+00 -0.10700216946E+03  0.10700216946E+03  0.00000000000E+00 0. -1.
    9000006    2    1    2  501    0  0.00000000000E+00  0.00000000000E+00  0.89299783054E+03  0.11070021695E+04  0.65422372154E+03 0.  0.
         13    1    3    3    0    0 -0.16090384088E+03  0.86237684003E+02  0.90578448783E+03  0.92399811825E+03  0.00000000000E+00 0. -1.
          4    1    3    3  501    0  0.16090384088E+03 -0.86237684003E+02 -0.12786657282E+02  0.18300405120E+03  0.00000000000E+00 0. -1.
<mgrwt>
<rscale>  0 0.65422372E+03</rscale>
<asrwt>0</asrwt>
<pdfrwt beam="1">0</pdfrwt>
<pdfrwt beam="2">  1        2 0.38909962E+00 0.65422372E+03</pdfrwt>
<totfact> 0.43726938E+00</totfact>
</mgrwt>
</event>
<event>
 5    1  0.2368916E-004  0.6442174E+03  0.7818608E-02  0.9817691E-01
         13   -1    0    0    0    0  0.00000000000E+00  0.00000000000E+00  0.10000000000E+04  0.10000000000E+04  0.00000000000E+00 0. -1.
          2   -1    0    0  501    0 -0.00000000000E+00 -0.00000000000E+00 -0.10375399884E+03  0.10375399884E+03  0.00000000000E+00 0. -1.
    9000006    2    1    2  501    0  0.00000000000E+00  0.00000000000E+00  0.89624600116E+03  0.11037539988E+04  0.64421735102E+03 0.  0.
         13    1    3    3    0    0 -0.16538524902E+03  0.95726818167E+02  0.89239359715E+03  0.91262381984E+03  0.00000000000E+00 0. -1.
          2    1    3    3  501    0  0.16538524902E+03 -0.95726818167E+02  0.38524040137E+01  0.19113017900E+03  0.00000000000E+00 0. -1.
<mgrwt>
<rscale>  0 0.64421735E+03</rscale>
<asrwt>0</asrwt>
<pdfrwt beam="1">0</pdfrwt>
<pdfrwt beam="2">  1        2 0.37728806E+00 0.64421735E+03</pdfrwt>
<totfact> 0.48392560E+00</totfact>
</mgrwt>
</event>
<event>
 5    1  0.2368916E-004  0.6477809E+03  0.7818608E-02  0.9810952E-01
         13   -1    0    0    0    0  0.00000000000E+00  0.00000000000E+00  0.10000000000E+04  0.10000000000E+04  0.00000000000E+00 0. -1.
          2   -1    0    0  501    0 -0.00000000000E+00 -0.00000000000E+00 -0.10490503046E+03  0.10490503046E+03  0.00000000000E+00 0. -1.
    9000006    2    1    2  501    0  0.00000000000E+00  0.00000000000E+00  0.89509496954E+03  0.11049050305E+04  0.64778092118E+03 0.  0.
         13    1    3    3    0    0  0.11594258591E+03 -0.16887225749E+03  0.87548042661E+03  0.89912540836E+03  0.00000000000E+00 0. -1.
          2    1    3    3  501    0 -0.11594258591E+03  0.16887225749E+03  0.19614542930E+02  0.20577962210E+03  0.00000000000E+00 0. -1.
<mgrwt>
<rscale>  0 0.64778092E+03</rscale>
<asrwt>0</asrwt>
<pdfrwt beam="1">0</pdfrwt>
<pdfrwt beam="2">  1        2 0.38147364E+00 0.64778092E+03</pdfrwt>
<totfact> 0.46689899E+00</totfact>
</mgrwt>
</event>
<event>
 5    1  0.2368916E-004  0.6434377E+03  0.7818608E-02  0.9819171E-01
         13   -1    0    0    0    0  0.00000000000E+00  0.00000000000E+00  0.10000000000E+04  0.10000000000E+04  0.00000000000E+00 0. -1.
          2   -1    0    0  501    0 -0.00000000000E+00 -0.00000000000E+00 -0.10350301310E+03  0.10350301310E+03  0.00000000000E+00 0. -1.
    9000006    2    1    2  501    0  0.00000000000E+00  0.00000000000E+00  0.89649698690E+03  0.11035030131E+04  0.64343768340E+03 0.  0.
         13    1    3    3    0    0 -0.14481551569E+03  0.27608357370E+03  0.31202281111E+03  0.44108038712E+03  0.00000000000E+00 0. -1.
          2    1    3    3  501    0  0.14481551569E+03 -0.27608357370E+03  0.58447417578E+03  0.66242262598E+03  0.00000000000E+00 0. -1.
<mgrwt>
<rscale>  0 0.64343768E+03</rscale>
<asrwt>0</asrwt>
<pdfrwt beam="1">0</pdfrwt>
<pdfrwt beam="2">  1        2 0.37637539E+00 0.64343768E+03</pdfrwt>
<totfact> 0.48771262E+00</totfact>
</mgrwt>
</event>
<event>
 5    1  0.2368916E-004  0.6482095E+03  0.7818608E-02  0.9810145E-01
         13   -1    0    0    0    0  0.00000000000E+00  0.00000000000E+00  0.10000000000E+04  0.10000000000E+04  0.00000000000E+00 0. -1.
          2   -1    0    0  501    0 -0.00000000000E+00 -0.00000000000E+00 -0.10504387526E+03  0.10504387526E+03  0.00000000000E+00 0. -1.
    9000006    2    1    2  501    0  0.00000000000E+00  0.00000000000E+00  0.89495612474E+03  0.11050438753E+04  0.64820945768E+03 0.  0.
         13    1    3    3    0    0  0.29017313353E+03 -0.85592041173E+02  0.24927460389E+03  0.39200034832E+03  0.00000000000E+00 0. -1.
          2    1    3    3  501    0 -0.29017313353E+03  0.85592041173E+02  0.64568152086E+03  0.71304352694E+03  0.00000000000E+00 0. -1.
<mgrwt>
<rscale>  0 0.64820946E+03</rscale>
<asrwt>0</asrwt>
<pdfrwt beam="1">0</pdfrwt>
<pdfrwt beam="2">  1        2 0.38197853E+00 0.64820946E+03</pdfrwt>
<totfact> 0.46488241E+00</totfact>
</mgrwt>
</event>
<event>
 5    1  0.2368916E-004  0.6432821E+03  0.7818608E-02  0.9819467E-01
         13   -1    0    0    0    0  0.00000000000E+00  0.00000000000E+00  0.10000000000E+04  0.10000000000E+04  0.00000000000E+00 0. -1.
          2   -1    0    0  501    0 -0.00000000000E+00 -0.00000000000E+00 -0.10345296936E+03  0.10345296936E+03  0.00000000000E+00 0. -1.
    9000006    2    1    2  501    0  0.00000000000E+00  0.00000000000E+00  0.89654703064E+03  0.11034529694E+04  0.64328211343E+03 0.  0.
         13    1    3    3    0    0  0.17383638235E+03 -0.57890282453E+02  0.90173130723E+03  0.92015744472E+03  0.00000000000E+00 0. -1.
          4    1    3    3  501    0 -0.17383638235E+03  0.57890282453E+02 -0.51842765958E+01  0.18329552465E+03  0.00000000000E+00 0. -1.
<mgrwt>
<rscale>  0 0.64328211E+03</rscale>
<asrwt>0</asrwt>
<pdfrwt beam="1">0</pdfrwt>
<pdfrwt beam="2">  1        2 0.37619341E+00 0.64328211E+03</pdfrwt>
<totfact> 0.48847093E+00</totfact>
</mgrwt>
</event>
<event>
 5    1  0.2368916E-004  0.6465867E+03  0.7818608E-02  0.9813205E-01
         13   -1    0    0    0    0  0.00000000000E+00  0.00000000000E+00  0.10000000000E+04  0.10000000000E+04  0.00000000000E+00 0. -1.
          2   -1    0    0  501    0 -0.00000000000E+00 -0.00000000000E+00 -0.10451858879E+03  0.10451858879E+03  0.00000000000E+00 0. -1.
    9000006    2    1    2  501    0  0.00000000000E+00  0.00000000000E+00  0.89548141121E+03  0.11045185888E+04  0.64658669579E+03 0.  0.
         13    1    3    3    0    0  0.25743831517E+02  0.67427064955E+02  0.98606195127E+03  0.98869981576E+03  0.00000000000E+00 0. -1.
          4    1    3    3  501    0 -0.25743831517E+02 -0.67427064955E+02 -0.90580540060E+02  0.11581877303E+03  0.00000000000E+00 0. -1.
<mgrwt>
<rscale>  0 0.64658670E+03</rscale>
<asrwt>0</asrwt>
<pdfrwt beam="1">0</pdfrwt>
<pdfrwt beam="2">  1        2 0.38006840E+00 0.64658670E+03</pdfrwt>
<totfact> 0.47255362E+00</totfact>
</mgrwt>
</event>
<event>
 5    1  0.2368916E-004  0.6595184E+03  0.7818608E-02  0.9789081E-01
         13   -1    0    0    0    0  0.00000000000E+00  0.00000000000E+00  0.10000000000E+04  0.10000000000E+04  0.00000000000E+00 0. -1.
          2   -1    0    0  501    0 -0.00000000000E+00 -0.00000000000E+00 -0.10874113280E+03  0.10874113280E+03  0.00000000000E+00 0. -1.
    9000006    2    1    2  501    0  0.00000000000E+00  0.00000000000E+00  0.89125886720E+03  0.11087411328E+04  0.65951840853E+03 0.  0.
         13    1    3    3    0    0  0.17062520693E+03  0.18582399804E+03  0.88619733146E+02  0.26738918563E+03  0.00000000000E+00 0. -1.
          2    1    3    3  501    0 -0.17062520693E+03 -0.18582399804E+03  0.80263913406E+03  0.84135194717E+03  0.00000000000E+00 0. -1.
<mgrwt>
<rscale>  0 0.65951841E+03</rscale>
<asrwt>0</asrwt>
<pdfrwt beam="1">0</pdfrwt>
<pdfrwt beam="2">  1        2 0.39542313E+00 0.65951841E+03</pdfrwt>
<totfact> 0.41400249E+00</totfact>
</mgrwt>
</event>
<event>
 5    1  0.2368916E-004  0.6421076E+03  0.7818608E-02  0.9821702E-01
         13   -1    0    0    0    0  0.00000000000E+00  0.00000000000E+00  0.10000000000E+04  0.10000000000E+04  0.00000000000E+00 0. -1.
          2   -1    0    0  501    0 -0.00000000000E+00 -0.00000000000E+00 -0.10307554864E+03  0.10307554864E+03  0.00000000000E+00 0. -1.
    9000006    2    1    2  501    0  0.00000000000E+00  0.00000000000E+00  0.89692445136E+03  0.11030755486E+04  0.64210761916E+03 0.  0.
         13    1    3    3    0    0  0.27496632819E+03 -0.14068490968E+02  0.73215555073E+03  0.78221234619E+03  0.00000000000E+00 0. -1.
          4    1    3    3  501    0 -0.27496632819E+03  0.14068490968E+02  0.16476890063E+03  0.32086320245E+03  0.00000000000E+00 0. -1.
<mgrwt>
<rscale>  0 0.64210762E+03</rscale>
<asrwt>0</asrwt>
<pdfrwt beam="1">0</pdfrwt>
<pdfrwt beam="2">  1        2 0.37482097E+00 0.64210762E+03</pdfrwt>
<totfact> 0.49422503E+00</totfact>
</mgrwt>
</event>
<event>
 5    1  0.2368916E-004  0.6574315E+03  0.7818608E-02  0.9792934E-01
         13   -1    0    0    0    0  0.00000000000E+00  0.00000000000E+00  0.10000000000E+04  0.10000000000E+04  0.00000000000E+00 0. -1.
          2   -1    0    0  501    0 -0.00000000000E+00 -0.00000000000E+00 -0.10805403540E+03  0.10805403540E+03  0.00000000000E+00 0. -1.
    9000006    2    1    2  501    0  0.00000000000E+00  0.00000000000E+00  0.89194596460E+03  0.11080540354E+04  0.65743147292E+03 0.  0.
         13    1    3    3    0    0 -0.14723696731E+03 -0.20437113991E+03  0.90001179409E+02  0.26748177445E+03  0.00000000000E+00 0. -1.
          2    1    3    3  501    0  0.14723696731E+03  0.20437113991E+03  0.80194478519E+03  0.84057226094E+03  0.00000000000E+00 0. -1.
<mgrwt>
<rscale>  0 0.65743147E+03</rscale>
<asrwt>0</asrwt>
<pdfrwt beam="1">0</pdfrwt>
<pdfrwt beam="2">  1        2 0.39292459E+00 0.65743147E+03</pdfrwt>
<totfact> 0.42305842E+00</totfact>
</mgrwt>
</event>
<event>
 5    1  0.2368916E-004  0.6530352E+03  0.7818608E-02  0.9801100E-01
         13   -1    0    0    0    0  0.00000000000E+00  0.00000000000E+00  0.10000000000E+04  0.10000000000E+04  0.00000000000E+00 0. -1.
          2   -1    0    0  501    0 -0.00000000000E+00 -0.00000000000E+00 -0.10661375829E+03  0.10661375829E+03  0.00000000000E+00 0. -1.
    9000006    2    1    2  501    0  0.00000000000E+00  0.00000000000E+00  0.89338624171E+03  0.11066137583E+04  0.65303524650E+03 0.  0.
         13    1    3    3    0    0 -0.27762761883E+03  0.10893492150E+03  0.22143739944E+03  0.37145448407E+03  0.00000000000E+00 0. -1.
          2    1    3    3  501    0  0.27762761883E+03 -0.10893492150E+03  0.67194884226E+03  0.73515927423E+03  0.00000000000E+00 0. -1.
<mgrwt>
<rscale>  0 0.65303525E+03</rscale>
<asrwt>0</asrwt>
<pdfrwt beam="1">0</pdfrwt>
<pdfrwt beam="2">  1        2 0.38768721E+00 0.65303525E+03</pdfrwt>
<totfact> 0.44262502E+00</totfact>
</mgrwt>
</event>
<event>
 5    1  0.2368916E-004  0.6504157E+03  0.7818608E-02  0.9806000E-01
         13   -1    0    0    0    0  0.00000000000E+00  0.00000000000E+00  0.10000000000E+04  0.10000000000E+04  0.00000000000E+00 0. -1.
          2   -1    0    0  501    0 -0.00000000000E+00 -0.00000000000E+00 -0.10576013591E+03  0.10576013591E+03  0.00000000000E+00 0. -1.
    9000006    2    1    2  501    0  0.00000000000E+00  0.00000000000E+00  0.89423986409E+03  0.11057601359E+04  0.65041566988E+03 0.  0.
         13    1    3    3    0    0 -0.19240613991E+03  0.17060349602E+03  0.10866066623E+03  0.27916449616E+03  0.00000000000E+00 0. -1.
          2    1    3    3  501    0  0.19240613991E+03 -0.17060349602E+03  0.78557919786E+03  0.82659563974E+03  0.00000000000E+00 0. -1.
<mgrwt>
<rscale>  0 0.65041567E+03</rscale>
<asrwt>0</asrwt>
<pdfrwt beam="1">0</pdfrwt>
<pdfrwt beam="2">  1        2 0.38458312E+00 0.65041567E+03</pdfrwt>
<totfact> 0.45460455E+00</totfact>
</mgrwt>
</event>
<event>
 5    1  0.2368916E-004  0.6461012E+03  0.7818608E-02  0.9814123E-01
         13   -1    0    0    0    0  0.00000000000E+00  0.00000000000E+00  0.10000000000E+04  0.10000000000E+04  0.00000000000E+00 0. -1.
          2   -1    0    0  501    0 -0.00000000000E+00 -0.00000000000E+00 -0.10436168471E+03  0.10436168471E+03  0.00000000000E+00 0. -1.
    9000006    2    1    2  501    0  0.00000000000E+00  0.00000000000E+00  0.89563831529E+03  0.11043616847E+04  0.64610118312E+03 0.  0.
         13    1    3    3    0    0  0.11704659310E+03  0.28735828637E+03  0.29410835807E+03  0.42752124624E+03  0.00000000000E+00 0. -1.
          4    1    3    3  501    0 -0.11704659310E+03 -0.28735828637E+03  0.60152995722E+03  0.67684043846E+03  0.00000000000E+00 0. -1.
<mgrwt>
<rscale>  0 0.64610118E+03</rscale>
<asrwt>0</asrwt>
<pdfrwt beam="1">0</pdfrwt>
<pdfrwt beam="2">  1        2 0.37949784E+00 0.64610118E+03</pdfrwt>
<totfact> 0.47486725E+00</totfact>
</mgrwt>
</event>
<event>
 5    1  0.2368916E-004  0.6470301E+03  0.7818608E-02  0.9812368E-01
         13   -1    0    0    0    0  0.00000000000E+00  0.00000000000E+00  0.10000000000E+04  0.10000000000E+04  0.00000000000E+00 0. -1.
          2   -1    0    0  501    0 -0.00000000000E+00 -0.00000000000E+00 -0.10466198529E+03  0.10466198529E+03  0.00000000000E+00 0. -1.
    9000006    2    1    2  501    0  0.00000000000E+00  0.00000000000E+00  0.89533801471E+03  0.11046619853E+04  0.64703009292E+03 0.  0.
         13    1    3    3    0    0 -0.77562624260E+02 -0.31404659236E+03  0.45544837095E+03  0.55863623357E+03  0.00000000000E+00 0. -1.
          2    1    3    3  501    0  0.77562624260E+02  0.31404659236E+03  0.43988964376E+03  0.54602575172E+03  0.00000000000E+00 0. -1.
<mgrwt>
<rscale>  0 0.64703009E+03</rscale>
<asrwt>0</asrwt>
<pdfrwt beam="1">0</pdfrwt>
<pdfrwt beam="2">  1        2 0.38058984E+00 0.64703009E+03</pdfrwt>
<totfact> 0.47044813E+00</totfact>
</mgrwt>
</event>
<event>
 5    1  0.2368916E-004  0.6431897E+03  0.7818608E-02  0.9819643E-01
         13   -1    0    0    0    0  0.00000000000E+00  0.00000000000E+00  0.10000000000E+04  0.10000000000E+04  0.00000000000E+00 0. -1.
          2   -1    0    0  501    0 -0.00000000000E+00 -0.00000000000E+00 -0.10342323803E+03  0.10342323803E+03  0.00000000000E+00 0. -1.
    9000006    2    1    2  501    0  0.00000000000E+00  0.00000000000E+00  0.89657676197E+03  0.11034232380E+04  0.64318967040E+03 0.  0.
         13    1    3    3    0    0 -0.74152873444E+02  0.29829815203E+03  0.28605513054E+03  0.41989043077E+03  0.00000000000E+00 0. -1.
          2    1    3    3  501    0  0.74152873444E+02 -0.29829815203E+03  0.61052163144E+03  0.68353280726E+03  0.00000000000E+00 0. -1.
<mgrwt>
<rscale>  0 0.64318967E+03</rscale>
<asrwt>0</asrwt>
<pdfrwt beam="1">0</pdfrwt>
<pdfrwt beam="2">  1        2 0.37608529E+00 0.64318967E+03</pdfrwt>
<totfact> 0.48892196E+00</totfact>
</mgrwt>
</event>
<event>
 5    1  0.2368916E-004  0.6913045E+03  0.7818608E-02  0.9732219E-01
         13   -1    0    0    0    0  0.00000000000E+00  0.00000000000E+00  0.10000000000E+04  0.10000000000E+04  0.00000000000E+00 0. -1.
          2   -1    0    0  501    0 -0.00000000000E+00 -0.00000000000E+00 -0.11947549476E+03  0.11947549476E+03  0.00000000000E+00 0. -1.
    9000006    2    1    2  501    0  0.00000000000E+00  0.00000000000E+00  0.88052450524E+03  0.11194754948E+04  0.69130454868E+03 0.  0.
         13    1    3    3    0    0  0.47785035826E+02  0.23718020406E+03  0.40512707993E+02  0.24531436638E+03  0.00000000000E+00 0. -1.
          4    1    3    3  501    0 -0.47785035826E+02 -0.23718020406E+03  0.84001179725E+03  0.87416112838E+03  0.00000000000E+00 0. -1.
<mgrwt>
<rscale>  0 0.69130455E+03</rscale>
<asrwt>0</asrwt>
<pdfrwt beam="1">0</pdfrwt>
<pdfrwt beam="2">  1        2 0.43445726E+00 0.69130455E+03</pdfrwt>
<totfact> 0.29331075E+00</totfact>
</mgrwt>
</event>
<event>
 5    1  0.2368916E-004  0.6461281E+03  0.7818608E-02  0.9814072E-01
         13   -1    0    0    0    0  0.00000000000E+00  0.00000000000E+00  0.10000000000E+04  0.10000000000E+04  0.00000000000E+00 0. -1.
          2   -1    0    0  501    0 -0.00000000000E+00 -0.00000000000E+00 -0.10437038920E+03  0.10437038920E+03  0.00000000000E+00 0. -1.
    9000006    2    1    2  501    0  0.00000000000E+00  0.00000000000E+00  0.89562961080E+03  0.11043703892E+04  0.64612812723E+03 0.  0.
         13    1    3    3    0    0  0.28381683252E+03  0.98191021193E+02  0.24430421123E+03  0.38714082540E+03  0.00000000000E+00 0. -1.
          4    1    3    3  501    0 -0.28381683252E+03 -0.98191021193E+02  0.65132539957E+03  0.71722956380E+03  0.00000000000E+00 0. -1.
<mgrwt>
<rscale>  0 0.64612813E+03</rscale>
<asrwt>0</asrwt>
<pdfrwt beam="1">0</pdfrwt>
<pdfrwt beam="2">  1        2 0.37952949E+00 0.64612813E+03</pdfrwt>
<totfact> 0.47473863E+00</totfact>
</mgrwt>
</event>
<event>
 5    1  0.2368916E-004  0.6647360E+03  0.7818608E-02  0.9779514E-01
         13   -1    0    0    0    0  0.00000000000E+00  0.00000000000E+00  0.10000000000E+04  0.10000000000E+04  0.00000000000E+00 0. -1.
          2   -1    0    0  501    0 -0.00000000000E+00 -0.00000000000E+00 -0.11046849179E+03  0.11046849179E+03  0.00000000000E+00 0. -1.
    9000006    2    1    2  501    0  0.00000000000E+00  0.00000000000E+00  0.88953150821E+03  0.11104684918E+04  0.66473601313E+03 0.  0.
         13    1    3    3    0    0  0.13568218077E+02 -0.30092760508E+03  0.21013375343E+03  0.36728424193E+03  0.00000000000E+00 0. -1.
          2    1    3    3  501    0 -0.13568218077E+02  0.30092760508E+03  0.67939775479E+03  0.74318424986E+03  0.00000000000E+00 0. -1.
<mgrwt>
<rscale>  0 0.66473601E+03</rscale>
<asrwt>0</asrwt>
<pdfrwt beam="1">0</pdfrwt>
<pdfrwt beam="2">  1        2 0.40170445E+00 0.66473601E+03</pdfrwt>
<totfact> 0.39200217E+00</totfact>
</mgrwt>
</event>
<event>
 5    1  0.2368916E-004  0.6632835E+03  0.7818608E-02  0.9782168E-01
         13   -1    0    0    0    0  0.00000000000E+00  0.00000000000E+00  0.10000000000E+04  0.10000000000E+04  0.00000000000E+00 0. -1.
          2   -1    0    0  501    0 -0.00000000000E+00 -0.00000000000E+00 -0.10998624431E+03  0.10998624431E+03  0.00000000000E+00 0. -1.
    9000006    2    1    2  501    0  0.00000000000E+00  0.00000000000E+00  0.89001375569E+03  0.11099862443E+04  0.66328348180E+03 0.  0.
         13    1    3    3    0    0  0.73711372048E+02 -0.10189871769E+03  0.95854609486E+03  0.96676125854E+03  0.00000000000E+00 0. -1.
          2    1    3    3  501    0 -0.73711372048E+02  0.10189871769E+03 -0.68532339171E+02  0.14322498577E+03  0.00000000000E+00 0. -1.
<mgrwt>
<rscale>  0 0.66328348E+03</rscale>
<asrwt>0</asrwt>
<pdfrwt beam="1">0</pdfrwt>
<pdfrwt beam="2">  1        2 0.39995082E+00 0.66328348E+03</pdfrwt>
<totfact> 0.39803601E+00</totfact>
</mgrwt>
</event>
<event>
 5    1  0.2368916E-004  0.6497768E+03  0.7818608E-02  0.9807198E-01
         13   -1    0    0    0    0  0.00000000000E+00  0.00000000000E+00  0.10000000000E+04  0.10000000000E+04  0.00000000000E+00 0. -1.
          2   -1    0    0  501    0 -0.00000000000E+00 -0.00000000000E+00 -0.10555247013E+03  0.10555247013E+03  0.00000000000E+00 0. -1.
    9000006    2    1    2  501    0  0.00000000000E+00  0.00000000000E+00  0.89444752987E+03  0.11055524701E+04  0.64977679284E+03 0.  0.
         13    1    3    3    0    0 -0.26210618330E+03  0.16296055101E+03  0.27457490266E+03  0.41309462558E+03  0.00000000000E+00 0. -1.
          4    1    3    3  501    0  0.26210618330E+03 -0.16296055101E+03  0.61987262721E+03  0.69245784455E+03  0.00000000000E+00 0. -1.
<mgrwt>
<rscale>  0 0.64977679E+03</rscale>
<asrwt>0</asrwt>
<pdfrwt beam="1">0</pdfrwt>
<pdfrwt beam="2">  1        2 0.38382797E+00 0.64977679E+03</pdfrwt>
<totfact> 0.45756297E+00</totfact>
</mgrwt>
</event>
<event>
 5    1  0.2368916E-004  0.6289825E+03  0.7818608E-02  0.9847036E-01
         13   -1    0    0    0    0  0.00000000000E+00  0.00000000000E+00  0.10000000000E+04  0.10000000000E+04  0.00000000000E+00 0. -1.
          2   -1    0    0  501    0 -0.00000000000E+00 -0.00000000000E+00 -0.98904737281E+02  0.98904737281E+02  0.00000000000E+00 0. -1.
    9000006    2    1    2  501    0  0.00000000000E+00  0.00000000000E+00  0.90109526272E+03  0.10989047373E+04  0.62898247124E+03 0.  0.
         13    1    3    3    0    0  0.42713061185E+02  0.30999283297E+03  0.50537407212E+03  0.59440971969E+03  0.00000000000E+00 0. -1.
          2    1    3    3  501    0 -0.42713061185E+02 -0.30999283297E+03  0.39572119060E+03  0.50449501759E+03  0.00000000000E+00 0. -1.
<mgrwt>
<rscale>  0 0.62898247E+03</rscale>
<asrwt>0</asrwt>
<pdfrwt beam="1">0</pdfrwt>
<pdfrwt beam="2">  1        2 0.35965435E+00 0.62898247E+03</pdfrwt>
<totfact> 0.56208656E+00</totfact>
</mgrwt>
</event>
<event>
 5    1  0.2368916E-004  0.6404291E+03  0.7818608E-02  0.9824906E-01
         13   -1    0    0    0    0  0.00000000000E+00  0.00000000000E+00  0.10000000000E+04  0.10000000000E+04  0.00000000000E+00 0. -1.
          2   -1    0    0  501    0 -0.00000000000E+00 -0.00000000000E+00 -0.10253735785E+03  0.10253735785E+03  0.00000000000E+00 0. -1.
    9000006    2    1    2  501    0  0.00000000000E+00  0.00000000000E+00  0.89746264215E+03  0.11025373579E+04  0.64042909945E+03 0.  0.
         13    1    3    3    0    0 -0.30414979463E+03  0.99709818227E+02  0.46490046967E+03  0.56443032530E+03  0.00000000000E+00 0. -1.
          2    1    3    3  501    0  0.30414979463E+03 -0.99709818227E+02  0.43256217248E+03  0.53810703255E+03  0.00000000000E+00 0. -1.
<mgrwt>
<rscale>  0 0.64042910E+03</rscale>
<asrwt>0</asrwt>
<pdfrwt beam="1">0</pdfrwt>
<pdfrwt beam="2">  1        2 0.37286391E+00 0.64042910E+03</pdfrwt>
<totfact> 0.50253772E+00</totfact>
</mgrwt>
</event>
<event>
 5    1  0.2368916E-004  0.6161025E+03  0.7818608E-02  0.9872550E-01
         13   -1    0    0    0    0  0.00000000000E+00  0.00000000000E+00  0.10000000000E+04  0.10000000000E+04  0.00000000000E+00 0. -1.
          2   -1    0    0  501    0 -0.00000000000E+00 -0.00000000000E+00 -0.94895578959E+02  0.94895578959E+02  0.00000000000E+00 0. -1.
    9000006    2    1    2  501    0  0.00000000000E+00  0.00000000000E+00  0.90510442104E+03  0.10948955790E+04  0.61610252056E+03 0.  0.
         13    1    3    3    0    0  0.22492266044E+03 -0.13888379136E+03  0.73363512727E+03  0.77980729071E+03  0.00000000000E+00 0. -1.
          2    1    3    3  501    0 -0.22492266044E+03  0.13888379136E+03  0.17146929377E+03  0.31508828825E+03  0.00000000000E+00 0. -1.
<mgrwt>
<rscale>  0 0.61610252E+03</rscale>
<asrwt>0</asrwt>
<pdfrwt beam="1">0</pdfrwt>
<pdfrwt beam="2">  1        2 0.34507556E+00 0.61610252E+03</pdfrwt>
<totfact> 0.63534478E+00</totfact>
</mgrwt>
</event>
<event>
 5    1  0.2368916E-004  0.6542345E+03  0.7818608E-02  0.9798866E-01
         13   -1    0    0    0    0  0.00000000000E+00  0.00000000000E+00  0.10000000000E+04  0.10000000000E+04  0.00000000000E+00 0. -1.
          2   -1    0    0  501    0 -0.00000000000E+00 -0.00000000000E+00 -0.10700570495E+03  0.10700570495E+03  0.00000000000E+00 0. -1.
    9000006    2    1    2  501    0  0.00000000000E+00  0.00000000000E+00  0.89299429505E+03  0.11070057050E+04  0.65423452967E+03 0.  0.
         13    1    3    3    0    0  0.27639015659E+02  0.27835544304E+03  0.15954391723E+03  0.32202473411E+03  0.00000000000E+00 0. -1.
          2    1    3    3  501    0 -0.27639015659E+02 -0.27835544304E+03  0.73345037782E+03  0.78498097084E+03  0.00000000000E+00 0. -1.
<mgrwt>
<rscale>  0 0.65423453E+03</rscale>
<asrwt>0</asrwt>
<pdfrwt beam="1">0</pdfrwt>
<pdfrwt beam="2">  1        2 0.38911247E+00 0.65423453E+03</pdfrwt>
<totfact> 0.43722090E+00</totfact>
</mgrwt>
</event>
<event>
 5    1  0.2368916E-004  0.6538653E+03  0.7818608E-02  0.9799553E-01
         13   -1    0    0    0    0  0.00000000000E+00  0.00000000000E+00  0.10000000000E+04  0.10000000000E+04  0.00000000000E+00 0. -1.
          2   -1    0    0  501    0 -0.00000000000E+00 -0.00000000000E+00 -0.10688495717E+03  0.10688495717E+03  0.00000000000E+00 0. -1.
    9000006    2    1    2  501    0  0.00000000000E+00  0.00000000000E+00  0.89311504283E+03  0.11068849572E+04  0.65386529858E+03 0.  0.
         13    1    3    3    0    0  0.87733817009E+02  0.22794535326E+03  0.78668384738E+02  0.25660284775E+03  0.00000000000E+00 0. -1.
          4    1    3    3  501    0 -0.87733817009E+02 -0.22794535326E+03  0.81444665809E+03  0.85028210942E+03  0.00000000000E+00 0. -1.
<mgrwt>
<rscale>  0 0.65386530E+03</rscale>
<asrwt>0</asrwt>
<pdfrwt beam="1">0</pdfrwt>
<pdfrwt beam="2">  1        2 0.38867339E+00 0.65386530E+03</pdfrwt>
<totfact> 0.43887936E+00</totfact>
</mgrwt>
</event>
<event>
 5    1  0.2368916E-004  0.6431444E+03  0.7818608E-02  0.9819729E-01
         13   -1    0    0    0    0  0.00000000000E+00  0.00000000000E+00  0.10000000000E+04  0.10000000000E+04  0.00000000000E+00 0. -1.
          2   -1    0    0  501    0 -0.00000000000E+00 -0.00000000000E+00 -0.10340866789E+03  0.10340866789E+03  0.00000000000E+00 0. -1.
    9000006    2    1    2  501    0  0.00000000000E+00  0.00000000000E+00  0.89659133211E+03  0.11034086679E+04  0.64314436291E+03 0.  0.
         13    1    3    3    0    0 -0.98195882645E+02 -0.27793487039E+03  0.22779368486E+03  0.37253212803E+03  0.00000000000E+00 0. -1.
          2    1    3    3  501    0  0.98195882645E+02  0.27793487039E+03  0.66879764725E+03  0.73087653986E+03  0.00000000000E+00 0. -1.
<mgrwt>
<rscale>  0 0.64314436E+03</rscale>
<asrwt>0</asrwt>
<pdfrwt beam="1">0</pdfrwt>
<pdfrwt beam="2">  1        2 0.37603231E+00 0.64314436E+03</pdfrwt>
<totfact> 0.48914313E+00</totfact>
</mgrwt>
</event>
<event>
 5    1  0.2368916E-004  0.6604428E+03  0.7818608E-02  0.9787379E-01
         13   -1    0    0    0    0  0.00000000000E+00  0.00000000000E+00  0.10000000000E+04  0.10000000000E+04  0.00000000000E+00 0. -1.
          2   -1    0    0  501    0 -0.00000000000E+00 -0.00000000000E+00 -0.10904618369E+03  0.10904618369E+03  0.00000000000E+00 0. -1.
    9000006    2    1    2  501    0  0.00000000000E+00  0.00000000000E+00  0.89095381631E+03  0.11090461837E+04  0.66044283231E+03 0.  0.
         13    1    3    3    0    0 -0.21408288959E+03  0.48102237384E+02  0.31070782775E+02  0.22160934637E+03  0.00000000000E+00 0. -1.
          2    1    3    3  501    0  0.21408288959E+03 -0.48102237384E+02  0.85988303354E+03  0.88743683731E+03  0.00000000000E+00 0. -1.
<mgrwt>
<rscale>  0 0.66044283E+03</rscale>
<asrwt>0</asrwt>
<pdfrwt beam="1">0</pdfrwt>
<pdfrwt beam="2">  1        2 0.39653241E+00 0.66044283E+03</pdfrwt>
<totfact> 0.41003834E+00</totfact>
</mgrwt>
</event>
<event>
 5    1  0.2368916E-004  0.6205148E+03  0.7818608E-02  0.9863735E-01
         13   -1    0    0    0    0  0.00000000000E+00  0.00000000000E+00  0.10000000000E+04  0.10000000000E+04  0.00000000000E+00 0. -1.
          2   -1    0    0  501    0 -0.00000000000E+00 -0.00000000000E+00 -0.96259646296E+02  0.96259646296E+02  0.00000000000E+00 0. -1.
    9000006    2    1    2  501    0  0.00000000000E+00  0.00000000000E+00  0.90374035370E+03  0.10962596463E+04  0.62051477435E+03 0.  0.
         13    1    3    3    0    0 -0.10252480394E+03 -0.27036913432E+03  0.25317529210E+03  0.38432867802E+03  0.00000000000E+00 0. -1.
          2    1    3    3  501    0  0.10252480394E+03  0.27036913432E+03  0.65056506160E+03  0.71193096828E+03  0.00000000000E+00 0. -1.
<mgrwt>
<rscale>  0 0.62051477E+03</rscale>
<asrwt>0</asrwt>
<pdfrwt beam="1">0</pdfrwt>
<pdfrwt beam="2">  1        2 0.35003582E+00 0.62051477E+03</pdfrwt>
<totfact> 0.60947723E+00</totfact>
</mgrwt>
</event>
<event>
 5    1  0.2368916E-004  0.6706092E+03  0.7818608E-02  0.9768858E-01
         13   -1    0    0    0    0  0.00000000000E+00  0.00000000000E+00  0.10000000000E+04  0.10000000000E+04  0.00000000000E+00 0. -1.
          2   -1    0    0  501    0 -0.00000000000E+00 -0.00000000000E+00 -0.11242918608E+03  0.11242918608E+03  0.00000000000E+00 0. -1.
    9000006    2    1    2  501    0  0.00000000000E+00  0.00000000000E+00  0.88757081392E+03  0.11124291861E+04  0.67060923369E+03 0.  0.
         13    1    3    3    0    0 -0.12157219740E+03 -0.22342164847E+03  0.80620224063E+03  0.84537511495E+03  0.00000000000E+00 0. -1.
          2    1    3    3  501    0  0.12157219740E+03  0.22342164847E+03  0.81368573294E+02  0.26705407112E+03  0.00000000000E+00 0. -1.
<mgrwt>
<rscale>  0 0.67060923E+03</rscale>
<asrwt>0</asrwt>
<pdfrwt beam="1">0</pdfrwt>
<pdfrwt beam="2">  1        2 0.40883427E+00 0.67060923E+03</pdfrwt>
<totfact> 0.36830498E+00</totfact>
</mgrwt>
</event>
<event>
 5    1  0.2368916E-004  0.6548057E+03  0.7818608E-02  0.9797803E-01
         13   -1    0    0    0    0  0.00000000000E+00  0.00000000000E+00  0.10000000000E+04  0.10000000000E+04  0.00000000000E+00 0. -1.
          2   -1    0    0  501    0 -0.00000000000E+00 -0.00000000000E+00 -0.10719263280E+03  0.10719263280E+03  0.00000000000E+00 0. -1.
    9000006    2    1    2  501    0  0.00000000000E+00  0.00000000000E+00  0.89280736720E+03  0.11071926328E+04  0.65480572020E+03 0.  0.
         13    1    3    3    0    0 -0.17362996802E+03  0.71619609461E+02  0.89984718098E+03  0.91923973117E+03  0.00000000000E+00 0. -1.
          4    1    3    3  501    0  0.17362996802E+03 -0.71619609461E+02 -0.70398137796E+01  0.18795290163E+03  0.00000000000E+00 0. -1.
<mgrwt>
<rscale>  0 0.65480572E+03</rscale>
<asrwt>0</asrwt>
<pdfrwt beam="1">0</pdfrwt>
<pdfrwt beam="2">  1        2 0.38979221E+00 0.65480572E+03</pdfrwt>
<totfact> 0.43466463E+00</totfact>
</mgrwt>
</event>
<event>
 5    1  0.2368916E-004  0.6560088E+03  0.7818608E-02  0.9795569E-01
         13   -1    0    0    0    0  0.00000000000E+00  0.00000000000E+00  0.10000000000E+04  0.10000000000E+04  0.00000000000E+00 0. -1.
          2   -1    0    0  501    0 -0.00000000000E+00 -0.00000000000E+00 -0.10758688370E+03  0.10758688370E+03  0.00000000000E+00 0. -1.
    9000006    2    1    2  501    0  0.00000000000E+00  0.00000000000E+00  0.89241311630E+03  0.11075868837E+04  0.65600879172E+03 0.  0.
         13    1    3    3    0    0  0.32747385864E+03  0.17832943297E+02  0.43699885412E+03  0.54637454229E+03  0.00000000000E+00 0. -1.
          2    1    3    3  501    0 -0.32747385864E+03 -0.17832943297E+02  0.45541426218E+03  0.56121234142E+03  0.00000000000E+00 0. -1.
<mgrwt>
<rscale>  0 0.65600879E+03</rscale>
<asrwt>0</asrwt>
<pdfrwt beam="1">0</pdfrwt>
<pdfrwt beam="2">  1        2 0.39122586E+00 0.65600879E+03</pdfrwt>
<totfact> 0.42931743E+00</totfact>
</mgrwt>
</event>
<event>
 5    1  0.2368916E-004  0.6576498E+03  0.7818608E-02  0.9792530E-01
         13   -1    0    0    0    0  0.00000000000E+00  0.00000000000E+00  0.10000000000E+04  0.10000000000E+04  0.00000000000E+00 0. -1.
          2   -1    0    0  501    0 -0.00000000000E+00 -0.00000000000E+00 -0.10812581219E+03  0.10812581219E+03  0.00000000000E+00 0. -1.
    9000006    2    1    2  501    0  0.00000000000E+00  0.00000000000E+00  0.89187418781E+03  0.11081258122E+04  0.65764979187E+03 0.  0.
         13    1    3    3    0    0  0.22938366815E+03  0.40873080051E+02  0.83690418202E+03  0.86873245926E+03  0.00000000000E+00 0. -1.
          2    1    3    3  501    0 -0.22938366815E+03 -0.40873080051E+02  0.54970005792E+02  0.23939335293E+03  0.00000000000E+00 0. -1.
<mgrwt>
<rscale>  0 0.65764979E+03</rscale>
<asrwt>0</asrwt>
<pdfrwt beam="1">0</pdfrwt>
<pdfrwt beam="2">  1        2 0.39318560E+00 0.65764979E+03</pdfrwt>
<totfact> 0.42210407E+00</totfact>
</mgrwt>
</event>
<event>
 5    1  0.2368916E-004  0.6451767E+03  0.7818608E-02  0.9815872E-01
         13   -1    0    0    0    0  0.00000000000E+00  0.00000000000E+00  0.10000000000E+04  0.10000000000E+04  0.00000000000E+00 0. -1.
          2   -1    0    0  501    0 -0.00000000000E+00 -0.00000000000E+00 -0.10406325717E+03  0.10406325717E+03  0.00000000000E+00 0. -1.
    9000006    2    1    2  501    0  0.00000000000E+00  0.00000000000E+00  0.89593674283E+03  0.11040632572E+04  0.64517674222E+03 0.  0.
         13    1    3    3    0    0 -0.23309098532E+03  0.21460224853E+03  0.55174626699E+03  0.63624639539E+03  0.00000000000E+00 0. -1.
          2    1    3    3  501    0  0.23309098532E+03 -0.21460224853E+03  0.34419047583E+03  0.46781686178E+03  0.00000000000E+00 0. -1.
<mgrwt>
<rscale>  0 0.64517674E+03</rscale>
<asrwt>0</asrwt>
<pdfrwt beam="1">0</pdfrwt>
<pdfrwt beam="2">  1        2 0.37841264E+00 0.64517674E+03</pdfrwt>
<totfact> 0.47929621E+00</totfact>
</mgrwt>
</event>
<event>
 5    1  0.2368916E-004  0.6530728E+03  0.7818608E-02  0.9801030E-01
         13   -1    0    0    0    0  0.00000000000E+00  0.00000000000E+00  0.10000000000E+04  0.10000000000E+04  0.00000000000E+00 0. -1.
          2   -1    0    0  501    0 -0.00000000000E+00 -0.00000000000E+00 -0.10662601480E+03  0.10662601480E+03  0.00000000000E+00 0. -1.
    9000006    2    1    2  501    0  0.00000000000E+00  0.00000000000E+00  0.89337398520E+03  0.11066260148E+04  0.65307278247E+03 0.  0.
         13    1    3    3    0    0 -0.28424949612E+03 -0.59850762033E+02  0.69942262617E+03  0.75734529757E+03  0.00000000000E+00 0. -1.
          2    1    3    3  501    0  0.28424949612E+03  0.59850762033E+02  0.19395135903E+03  0.34928071723E+03  0.00000000000E+00 0. -1.
<mgrwt>
<rscale>  0 0.65307278E+03</rscale>
<asrwt>0</asrwt>
<pdfrwt beam="1">0</pdfrwt>
<pdfrwt beam="2">  1        2 0.38773178E+00 0.65307278E+03</pdfrwt>
<totfact> 0.44245512E+00</totfact>
</mgrwt>
</event>
<event>
 5    1  0.2368916E-004  0.6460698E+03  0.7818608E-02  0.9814182E-01
         13   -1    0    0    0    0  0.00000000000E+00  0.00000000000E+00  0.10000000000E+04  0.10000000000E+04  0.00000000000E+00 0. -1.
          2   -1    0    0  501    0 -0.00000000000E+00 -0.00000000000E+00 -0.10435154714E+03  0.10435154714E+03  0.00000000000E+00 0. -1.
    9000006    2    1    2  501    0  0.00000000000E+00  0.00000000000E+00  0.89564845286E+03  0.11043515471E+04  0.64606980161E+03 0.  0.
         13    1    3    3    0    0  0.25458202075E+03 -0.17082985289E+03  0.62177992795E+03  0.69325689519E+03  0.00000000000E+00 0. -1.
          2    1    3    3  501    0 -0.25458202075E+03  0.17082985289E+03  0.27386852491E+03  0.41109465195E+03  0.00000000000E+00 0. -1.
<mgrwt>
<rscale>  0 0.64606980E+03</rscale>
<asrwt>0</asrwt>
<pdfrwt beam="1">0</pdfrwt>
<pdfrwt beam="2">  1        2 0.37946097E+00 0.64606980E+03</pdfrwt>
<totfact> 0.47501709E+00</totfact>
</mgrwt>
</event>
<event>
 5    1  0.2368916E-004  0.6748281E+03  0.7818608E-02  0.9761275E-01
         13   -1    0    0    0    0  0.00000000000E+00  0.00000000000E+00  0.10000000000E+04  0.10000000000E+04  0.00000000000E+00 0. -1.
          2   -1    0    0  501    0 -0.00000000000E+00 -0.00000000000E+00 -0.11384825326E+03  0.11384825326E+03  0.00000000000E+00 0. -1.
    9000006    2    1    2  501    0  0.00000000000E+00  0.00000000000E+00  0.88615174674E+03  0.11138482533E+04  0.67482813591E+03 0.  0.
         13    1    3    3    0    0  0.22478898112E+03 -0.11720026561E+03  0.81060860933E+03  0.84932461745E+03  0.00000000000E+00 0. -1.
          4    1    3    3  501    0 -0.22478898112E+03  0.11720026561E+03  0.75543137419E+02  0.26452363581E+03  0.00000000000E+00 0. -1.
<mgrwt>
<rscale>  0 0.67482814E+03</rscale>
<asrwt>0</asrwt>
<pdfrwt beam="1">0</pdfrwt>
<pdfrwt beam="2">  1        2 0.41399452E+00 0.67482814E+03</pdfrwt>
<totfact> 0.35196156E+00</totfact>
</mgrwt>
</event>
<event>
 5    1  0.2368916E-004  0.6405378E+03  0.7818608E-02  0.9824698E-01
         13   -1    0    0    0    0  0.00000000000E+00  0.00000000000E+00  0.10000000000E+04  0.10000000000E+04  0.00000000000E+00 0. -1.
          2   -1    0    0  501    0 -0.00000000000E+00 -0.00000000000E+00 -0.10257216216E+03  0.10257216216E+03  0.00000000000E+00 0. -1.
    9000006    2    1    2  501    0  0.00000000000E+00  0.00000000000E+00  0.89742783784E+03  0.11025721622E+04  0.64053778081E+03 0.  0.
         13    1    3    3    0    0  0.14627751827E+03 -0.25647257819E+03  0.66230270316E+03  0.72513458498E+03  0.00000000000E+00 0. -1.
          2    1    3    3  501    0 -0.14627751827E+03  0.25647257819E+03  0.23512513468E+03  0.37743757719E+03  0.00000000000E+00 0. -1.
<mgrwt>
<rscale>  0 0.64053778E+03</rscale>
<asrwt>0</asrwt>
<pdfrwt beam="1">0</pdfrwt>
<pdfrwt beam="2">  1        2 0.37299047E+00 0.64053778E+03</pdfrwt>
<totfact> 0.50199631E+00</totfact>
</mgrwt>
</event>
<event>
 5    1  0.2368916E-004  0.6124657E+03  0.7818608E-02  0.9879876E-01
         13   -1    0    0    0    0  0.00000000000E+00  0.00000000000E+00  0.10000000000E+04  0.10000000000E+04  0.00000000000E+00 0. -1.
          2   -1    0    0  501    0 -0.00000000000E+00 -0.00000000000E+00 -0.93778566512E+02  0.93778566512E+02  0.00000000000E+00 0. -1.
    9000006    2    1    2  501    0  0.00000000000E+00  0.00000000000E+00  0.90622143349E+03  0.10937785665E+04  0.61246572643E+03 0.  0.
         13    1    3    3    0    0  0.18336681178E+03  0.14708908083E+03  0.80361283837E+03  0.83728858786E+03  0.00000000000E+00 0. -1.
          4    1    3    3  501    0 -0.18336681178E+03 -0.14708908083E+03  0.10260859512E+03  0.25648997866E+03  0.00000000000E+00 0. -1.
<mgrwt>
<rscale>  0 0.61246573E+03</rscale>
<asrwt>0</asrwt>
<pdfrwt beam="1">0</pdfrwt>
<pdfrwt beam="2">  1        2 0.34101369E+00 0.61246573E+03</pdfrwt>
<totfact> 0.65728803E+00</totfact>
</mgrwt>
</event>
<event>
 5    1  0.2368916E-004  0.6546633E+03  0.7818608E-02  0.9798068E-01
         13   -1    0    0    0    0  0.00000000000E+00  0.00000000000E+00  0.10000000000E+04  0.10000000000E+04  0.00000000000E+00 0. -1.
          2   -1    0    0  501    0 -0.00000000000E+00 -0.00000000000E+00 -0.10714601545E+03  0.10714601545E+03  0.00000000000E+00 0. -1.
    9000006    2    1    2  501    0  0.00000000000E+00  0.00000000000E+00  0.89285398455E+03  0.11071460154E+04  0.65466331941E+03 0.  0.
         13    1    3    3    0    0  0.17625412591E+03  0.18627043139E+03  0.79046165958E+03  0.83101854719E+03  0.00000000000E+00 0. -1.
          2    1    3    3  501    0 -0.17625412591E+03 -0.18627043139E+03  0.10239232497E+03  0.27612746825E+03  0.00000000000E+00 0. -1.
<mgrwt>
<rscale>  0 0.65466332E+03</rscale>
<asrwt>0</asrwt>
<pdfrwt beam="1">0</pdfrwt>
<pdfrwt beam="2">  1        2 0.38962270E+00 0.65466332E+03</pdfrwt>
<totfact> 0.43530087E+00</totfact>
</mgrwt>
</event>
<event>
 5    1  0.2368916E-004  0.6528057E+03  0.7818608E-02  0.9801529E-01
         13   -1    0    0    0    0  0.00000000000E+00  0.00000000000E+00  0.10000000000E+04  0.10000000000E+04  0.00000000000E+00 0. -1.
          2   -1    0    0  501    0 -0.00000000000E+00 -0.00000000000E+00 -0.10653883559E+03  0.10653883559E+03  0.00000000000E+00 0. -1.
    9000006    2    1    2  501    0  0.00000000000E+00  0.00000000000E+00  0.89346116441E+03  0.11065388356E+04  0.65280574628E+03 0.  0.
         13    1    3    3    0    0 -0.22170584337E+03 -0.18336214650E+03  0.70803064865E+03  0.76425294058E+03  0.00000000000E+00 0. -1.
          4    1    3    3  501    0  0.22170584337E+03  0.18336214650E+03  0.18543051575E+03  0.34228589502E+03  0.00000000000E+00 0. -1.
<mgrwt>
<rscale>  0 0.65280575E+03</rscale>
<asrwt>0</asrwt>
<pdfrwt beam="1">0</pdfrwt>
<pdfrwt beam="2">  1        2 0.38741476E+00 0.65280575E+03</pdfrwt>
<totfact> 0.44366490E+00</totfact>
</mgrwt>
</event>
<event>
 5    1  0.2368916E-004  0.6736269E+03  0.7818608E-02  0.9763428E-01
         13   -1    0    0    0    0  0.00000000000E+00  0.00000000000E+00  0.10000000000E+04  0.10000000000E+04  0.00000000000E+00 0. -1.
          2   -1    0    0  501    0 -0.00000000000E+00 -0.00000000000E+00 -0.11344329782E+03  0.11344329782E+03  0.00000000000E+00 0. -1.
    9000006    2    1    2  501    0  0.00000000000E+00  0.00000000000E+00  0.88655670218E+03  0.11134432978E+04  0.67362689323E+03 0.  0.
         13    1    3    3    0    0  0.23166992171E+03 -0.19540720309E+03  0.20041688277E+03  0.36334811758E+03  0.00000000000E+00 0. -1.
          4    1    3    3  501    0 -0.23166992171E+03  0.19540720309E+03  0.68613981941E+03  0.75009518024E+03  0.00000000000E+00 0. -1.
<mgrwt>
<rscale>  0 0.67362689E+03</rscale>
<asrwt>0</asrwt>
<pdfrwt beam="1">0</pdfrwt>
<pdfrwt beam="2">  1        2 0.41252195E+00 0.67362689E+03</pdfrwt>
<totfact> 0.35655792E+00</totfact>
</mgrwt>
</event>
<event>
 5    1  0.2368916E-004  0.6501133E+03  0.7818608E-02  0.9806567E-01
         13   -1    0    0    0    0  0.00000000000E+00  0.00000000000E+00  0.10000000000E+04  0.10000000000E+04  0.00000000000E+00 0. -1.
          2   -1    0    0  501    0 -0.00000000000E+00 -0.00000000000E+00 -0.10566182847E+03  0.10566182847E+03  0.00000000000E+00 0. -1.
    9000006    2    1    2  501    0  0.00000000000E+00  0.00000000000E+00  0.89433817153E+03  0.11056618285E+04  0.65011330851E+03 0.  0.
         13    1    3    3    0    0  0.28062864736E+03  0.79081013155E+02  0.20274049708E+03  0.35511963268E+03  0.00000000000E+00 0. -1.
          2    1    3    3  501    0 -0.28062864736E+03 -0.79081013155E+02  0.69159767445E+03  0.75054219579E+03  0.00000000000E+00 0. -1.
<mgrwt>
<rscale>  0 0.65011331E+03</rscale>
<asrwt>0</asrwt>
<pdfrwt beam="1">0</pdfrwt>
<pdfrwt beam="2">  1        2 0.38422564E+00 0.65011331E+03</pdfrwt>
<totfact> 0.45600287E+00</totfact>
</mgrwt>
</event>
<event>
 5    1  0.2368916E-004  0.6526584E+03  0.7818608E-02  0.9801804E-01
         13   -1    0    0    0    0  0.00000000000E+00  0.00000000000E+00  0.10000000000E+04  0.10000000000E+04  0.00000000000E+00 0. -1.
          2   -1    0    0  501    0 -0.00000000000E+00 -0.00000000000E+00 -0.10649074340E+03  0.10649074340E+03  0.00000000000E+00 0. -1.
    9000006    2    1    2  501    0  0.00000000000E+00  0.00000000000E+00  0.89350925660E+03  0.11064907434E+04  0.65265838968E+03 0.  0.
         13    1    3    3    0    0  0.13265513674E+03 -0.13376458822E+03  0.89849846542E+03  0.91803586135E+03  0.00000000000E+00 0. -1.
          4    1    3    3  501    0 -0.13265513674E+03  0.13376458822E+03 -0.49892088254E+01  0.18845488205E+03  0.00000000000E+00 0. -1.
<mgrwt>
<rscale>  0 0.65265839E+03</rscale>
<asrwt>0</asrwt>
<pdfrwt beam="1">0</pdfrwt>
<pdfrwt beam="2">  1        2 0.38723988E+00 0.65265839E+03</pdfrwt>
<totfact> 0.44433355E+00</totfact>
</mgrwt>
</event>
<event>
 5    1  0.2368916E-004  0.6586213E+03  0.7818608E-02  0.9790735E-01
         13   -1    0    0    0    0  0.00000000000E+00  0.00000000000E+00  0.10000000000E+04  0.10000000000E+04  0.00000000000E+00 0. -1.
          2   -1    0    0  501    0 -0.00000000000E+00 -0.00000000000E+00 -0.10844549327E+03  0.10844549327E+03  0.00000000000E+00 0. -1.
    9000006    2    1    2  501    0  0.00000000000E+00  0.00000000000E+00  0.89155450673E+03  0.11084454933E+04  0.65862126679E+03 0.  0.
         13    1    3    3    0    0  0.17728368151E+03  0.24834041917E+03  0.23731179791E+03  0.38654800084E+03  0.00000000000E+00 0. -1.
          2    1    3    3  501    0 -0.17728368151E+03 -0.24834041917E+03  0.65424270882E+03  0.72189749243E+03  0.00000000000E+00 0. -1.
<mgrwt>
<rscale>  0 0.65862127E+03</rscale>
<asrwt>0</asrwt>
<pdfrwt beam="1">0</pdfrwt>
<pdfrwt beam="2">  1        2 0.39434808E+00 0.65862127E+03</pdfrwt>
<totfact> 0.41787724E+00</totfact>
</mgrwt>
</event>
<event>
 5    1  0.2368916E-004  0.6600373E+03  0.7818608E-02  0.9788125E-01
         13   -1    0    0    0    0  0.00000000000E+00  0.00000000000E+00  0.10000000000E+04  0.10000000000E+04  0.00000000000E+00 0. -1.
          2   -1    0    0  501    0 -0.00000000000E+00 -0.00000000000E+00 -0.10891231923E+03  0.10891231923E+03  0.00000000000E+00 0. -1.
    9000006    2    1    2  501    0  0.00000000000E+00  0.00000000000E+00  0.89108768077E+03  0.11089123192E+04  0.66003732994E+03 0.  0.
         13    1    3    3    0    0  0.16359975054E+03  0.27689467176E+03  0.32120940660E+03  0.45454484983E+03  0.00000000000E+00 0. -1.
          2    1    3    3  501    0 -0.16359975054E+03 -0.27689467176E+03  0.56987827418E+03  0.65436746939E+03  0.00000000000E+00 0. -1.
<mgrwt>
<rscale>  0 0.66003733E+03</rscale>
<asrwt>0</asrwt>
<pdfrwt beam="1">0</pdfrwt>
<pdfrwt beam="2">  1        2 0.39604563E+00 0.66003733E+03</pdfrwt>
<totfact> 0.41177368E+00</totfact>
</mgrwt>
</event>
<event>
 5    1  0.2368916E-004  0.6523137E+03  0.7818608E-02  0.9802447E-01
         13   -1    0    0    0    0  0.00000000000E+00  0.00000000000E+00  0.10000000000E+04  0.10000000000E+04  0.00000000000E+00 0. -1.
          2   -1    0    0  501    0 -0.00000000000E+00 -0.00000000000E+00 -0.10637828141E+03  0.10637828141E+03  0.00000000000E+00 0. -1.
    9000006    2    1    2  501    0  0.00000000000E+00  0.00000000000E+00  0.89362171859E+03  0.11063782814E+04  0.65231367122E+03 0.  0.
         13    1    3    3    0    0  0.23475676069E+03 -0.16231235677E+03  0.71456779505E+03  0.76945641304E+03  0.00000000000E+00 0. -1.
          2    1    3    3  501    0 -0.23475676069E+03  0.16231235677E+03  0.17905392354E+03  0.33692186837E+03  0.00000000000E+00 0. -1.
<mgrwt>
<rscale>  0 0.65231367E+03</rscale>
<asrwt>0</asrwt>
<pdfrwt beam="1">0</pdfrwt>
<pdfrwt beam="2">  1        2 0.38683093E+00 0.65231367E+03</pdfrwt>
<totfact> 0.44590075E+00</totfact>
</mgrwt>
</event>
<event>
 5    1  0.2368916E-004  0.6518178E+03  0.7818608E-02  0.9803374E-01
         13   -1    0    0    0    0  0.00000000000E+00  0.00000000000E+00  0.10000000000E+04  0.10000000000E+04  0.00000000000E+00 0. -1.
          2   -1    0    0  501    0 -0.00000000000E+00 -0.00000000000E+00 -0.10621661067E+03  0.10621661067E+03  0.00000000000E+00 0. -1.
    9000006    2    1    2  501    0  0.00000000000E+00  0.00000000000E+00  0.89378338933E+03  0.11062166107E+04  0.65181779869E+03 0.  0.
         13    1    3    3    0    0 -0.12161963279E+03 -0.15420631538E+03  0.88829341243E+03  0.90974507933E+03  0.00000000000E+00 0. -1.
          4    1    3    3  501    0  0.12161963279E+03  0.15420631538E+03  0.54899768911E+01  0.19647153135E+03  0.00000000000E+00 0. -1.
<mgrwt>
<rscale>  0 0.65181780E+03</rscale>
<asrwt>0</asrwt>
<pdfrwt beam="1">0</pdfrwt>
<pdfrwt beam="2">  1        2 0.38624304E+00 0.65181780E+03</pdfrwt>
<totfact> 0.44816245E+00</totfact>
</mgrwt>
</event>
<event>
 5    1  0.2368916E-004  0.5750005E+03  0.7818608E-02  0.9958674E-01
         13   -1    0    0    0    0  0.00000000000E+00  0.00000000000E+00  0.10000000000E+04  0.10000000000E+04  0.00000000000E+00 0. -1.
          2   -1    0    0  501    0 -0.00000000000E+00 -0.00000000000E+00 -0.82656404896E+02  0.82656404896E+02  0.00000000000E+00 0. -1.
    9000006    2    1    2  501    0  0.00000000000E+00  0.00000000000E+00  0.91734359510E+03  0.10826564049E+04  0.57500053877E+03 0.  0.
         13    1    3    3    0    0  0.25022711329E+03  0.12817383645E+03  0.34547546592E+03  0.44541602815E+03  0.00000000000E+00 0. -1.
          2    1    3    3  501    0 -0.25022711329E+03 -0.12817383645E+03  0.57186812919E+03  0.63724037675E+03  0.00000000000E+00 0. -1.
<mgrwt>
<rscale>  0 0.57500054E+03</rscale>
<asrwt>0</asrwt>
<pdfrwt beam="1">0</pdfrwt>
<pdfrwt beam="2">  1        2 0.30056938E+00 0.57500054E+03</pdfrwt>
<totfact> 0.91895578E+00</totfact>
</mgrwt>
</event>
<event>
 5    1  0.2368916E-004  0.6506306E+03  0.7818608E-02  0.9805597E-01
         13   -1    0    0    0    0  0.00000000000E+00  0.00000000000E+00  0.10000000000E+04  0.10000000000E+04  0.00000000000E+00 0. -1.
          2   -1    0    0  501    0 -0.00000000000E+00 -0.00000000000E+00 -0.10583003970E+03  0.10583003970E+03  0.00000000000E+00 0. -1.
    9000006    2    1    2  501    0  0.00000000000E+00  0.00000000000E+00  0.89416996030E+03  0.11058300397E+04  0.65063058551E+03 0.  0.
         13    1    3    3    0    0 -0.32451171918E+03  0.40768322780E+00  0.48591758160E+03  0.58431491355E+03  0.00000000000E+00 0. -1.
          4    1    3    3  501    0  0.32451171918E+03 -0.40768322780E+00  0.40825237870E+03  0.52151512615E+03  0.00000000000E+00 0. -1.
<mgrwt>
<rscale>  0 0.65063059E+03</rscale>
<asrwt>0</asrwt>
<pdfrwt beam="1">0</pdfrwt>
<pdfrwt beam="2">  1        2 0.38483732E+00 0.65063059E+03</pdfrwt>
<totfact> 0.45361260E+00</totfact>
</mgrwt>
</event>
<event>
 5    1  0.2368916E-004  0.6715102E+03  0.7818608E-02  0.9767233E-01
         13   -1    0    0    0    0  0.00000000000E+00  0.00000000000E+00  0.10000000000E+04  0.10000000000E+04  0.00000000000E+00 0. -1.
          2   -1    0    0  501    0 -0.00000000000E+00 -0.00000000000E+00 -0.11273149086E+03  0.11273149086E+03  0.00000000000E+00 0. -1.
    9000006    2    1    2  501    0  0.00000000000E+00  0.00000000000E+00  0.88726850914E+03  0.11127314909E+04  0.67151021099E+03 0.  0.
         13    1    3    3    0    0 -0.25919785643E+03  0.21079786274E+03  0.49889716113E+03  0.60043121596E+03  0.00000000000E+00 0. -1.
          2    1    3    3  501    0  0.25919785643E+03 -0.21079786274E+03  0.38837134800E+03  0.51230027490E+03  0.00000000000E+00 0. -1.
<mgrwt>
<rscale>  0 0.67151021E+03</rscale>
<asrwt>0</asrwt>
<pdfrwt beam="1">0</pdfrwt>
<pdfrwt beam="2">  1        2 0.40993356E+00 0.67151021E+03</pdfrwt>
<totfact> 0.36476758E+00</totfact>
</mgrwt>
</event>
<event>
 5    1  0.2368916E-004  0.6654286E+03  0.7818608E-02  0.9778252E-01
         13   -1    0    0    0    0  0.00000000000E+00  0.00000000000E+00  0.10000000000E+04  0.10000000000E+04  0.00000000000E+00 0. -1.
          2   -1    0    0  501    0 -0.00000000000E+00 -0.00000000000E+00 -0.11069879932E+03  0.11069879932E+03  0.00000000000E+00 0. -1.
    9000006    2    1    2  501    0  0.00000000000E+00  0.00000000000E+00  0.88930120068E+03  0.11106987993E+04  0.66542858164E+03 0.  0.
         13    1    3    3    0    0 -0.20181742682E+03 -0.25906820902E+03  0.35550827203E+03  0.48397597272E+03  0.00000000000E+00 0. -1.
          2    1    3    3  501    0  0.20181742682E+03  0.25906820902E+03  0.53379292865E+03  0.62672282659E+03  0.00000000000E+00 0. -1.
<mgrwt>
<rscale>  0 0.66542858E+03</rscale>
<asrwt>0</asrwt>
<pdfrwt beam="1">0</pdfrwt>
<pdfrwt beam="2">  1        2 0.40254194E+00 0.66542858E+03</pdfrwt>
<totfact> 0.38914964E+00</totfact>
</mgrwt>
</event>
<event>
 5    1  0.2368916E-004  0.6805713E+03  0.7818608E-02  0.9751047E-01
         13   -1    0    0    0    0  0.00000000000E+00  0.00000000000E+00  0.10000000000E+04  0.10000000000E+04  0.00000000000E+00 0. -1.
          2   -1    0    0  501    0 -0.00000000000E+00 -0.00000000000E+00 -0.11579433709E+03  0.11579433709E+03  0.00000000000E+00 0. -1.
    9000006    2    1    2  501    0  0.00000000000E+00  0.00000000000E+00  0.88420566291E+03  0.11157943371E+04  0.68057133965E+03 0.  0.
         13    1    3    3    0    0 -0.33125276510E+02 -0.30354638257E+03  0.19586897539E+03  0.36277037619E+03  0.00000000000E+00 0. -1.
          4    1    3    3  501    0  0.33125276510E+02  0.30354638257E+03  0.68833668752E+03  0.75302396090E+03  0.00000000000E+00 0. -1.
<mgrwt>
<rscale>  0 0.68057134E+03</rscale>
<asrwt>0</asrwt>
<pdfrwt beam="1">0</pdfrwt>
<pdfrwt beam="2">  1        2 0.42107120E+00 0.68057134E+03</pdfrwt>
<totfact> 0.33059980E+00</totfact>
</mgrwt>
</event>
<event>
 5    1  0.2368916E-004  0.6316261E+03  0.7818608E-02  0.9841881E-01
         13   -1    0    0    0    0  0.00000000000E+00  0.00000000000E+00  0.10000000000E+04  0.10000000000E+04  0.00000000000E+00 0. -1.
          2   -1    0    0  501    0 -0.00000000000E+00 -0.00000000000E+00 -0.99737884628E+02  0.99737884628E+02  0.00000000000E+00 0. -1.
    9000006    2    1    2  501    0  0.00000000000E+00  0.00000000000E+00  0.90026211537E+03  0.10997378846E+04  0.63162610658E+03 0.  0.
         13    1    3    3    0    0  0.27258601136E+03 -0.23637668580E+02  0.72474304431E+03  0.77467048043E+03  0.00000000000E+00 0. -1.
          4    1    3    3  501    0 -0.27258601136E+03  0.23637668580E+02  0.17551907106E+03  0.32506740420E+03  0.00000000000E+00 0. -1.
<mgrwt>
<rscale>  0 0.63162611E+03</rscale>
<asrwt>0</asrwt>
<pdfrwt beam="1">0</pdfrwt>
<pdfrwt beam="2">  1        2 0.36268398E+00 0.63162611E+03</pdfrwt>
<totfact> 0.54788222E+00</totfact>
</mgrwt>
</event>
<event>
 5    1  0.2368916E-004  0.4911269E+03  0.7818608E-02  0.1016121E+00
         13   -1    0    0    0    0  0.00000000000E+00  0.00000000000E+00  0.10000000000E+04  0.10000000000E+04  0.00000000000E+00 0. -1.
          2   -1    0    0  501    0 -0.00000000000E+00 -0.00000000000E+00 -0.60301397847E+02  0.60301397847E+02  0.00000000000E+00 0. -1.
    9000006    2    1    2  501    0  0.00000000000E+00  0.00000000000E+00  0.93969860215E+03  0.10603013978E+04  0.49112685875E+03 0.  0.
         13    1    3    3    0    0  0.18448439543E+03  0.14519658193E+03  0.62530408579E+03  0.66792345315E+03  0.00000000000E+00 0. -1.
          2    1    3    3  501    0 -0.18448439543E+03 -0.14519658193E+03  0.31439451636E+03  0.39237794470E+03  0.00000000000E+00 0. -1.
<mgrwt>
<rscale>  0 0.49112686E+03</rscale>
<asrwt>0</asrwt>
<pdfrwt beam="1">0</pdfrwt>
<pdfrwt beam="2">  1        2 0.21927827E+00 0.49112686E+03</pdfrwt>
<totfact> 0.18018706E+01</totfact>
</mgrwt>
</event>
<event>
 5    1  0.2368916E-004  0.6413704E+03  0.7818608E-02  0.9823108E-01
         13   -1    0    0    0    0  0.00000000000E+00  0.00000000000E+00  0.10000000000E+04  0.10000000000E+04  0.00000000000E+00 0. -1.
          2   -1    0    0  501    0 -0.00000000000E+00 -0.00000000000E+00 -0.10283899732E+03  0.10283899732E+03  0.00000000000E+00 0. -1.
    9000006    2    1    2  501    0  0.00000000000E+00  0.00000000000E+00  0.89716100268E+03  0.11028389973E+04  0.64137039945E+03 0.  0.
         13    1    3    3    0    0 -0.13242085348E+03 -0.62486648431E+02 -0.42003175174E+02  0.15232902019E+03  0.00000000000E+00 0. -1.
          2    1    3    3  501    0  0.13242085348E+03  0.62486648431E+02  0.93916417785E+03  0.95050997713E+03  0.00000000000E+00 0. -1.
<mgrwt>
<rscale>  0 0.64137040E+03</rscale>
<asrwt>0</asrwt>
<pdfrwt beam="1">0</pdfrwt>
<pdfrwt beam="2">  1        2 0.37396078E+00 0.64137040E+03</pdfrwt>
<totfact> 0.49786310E+00</totfact>
</mgrwt>
</event>
<event>
 5    1  0.2368916E-004  0.6431665E+03  0.7818608E-02  0.9819687E-01
         13   -1    0    0    0    0  0.00000000000E+00  0.00000000000E+00  0.10000000000E+04  0.10000000000E+04  0.00000000000E+00 0. -1.
          2   -1    0    0  501    0 -0.00000000000E+00 -0.00000000000E+00 -0.10341579753E+03  0.10341579753E+03  0.00000000000E+00 0. -1.
    9000006    2    1    2  501    0  0.00000000000E+00  0.00000000000E+00  0.89658420247E+03  0.11034157975E+04  0.64316653374E+03 0.  0.
         13    1    3    3    0    0 -0.19515187612E+03 -0.16633293900E+03  0.11533817053E+03  0.28116506705E+03  0.00000000000E+00 0. -1.
          2    1    3    3  501    0  0.19515187612E+03  0.16633293900E+03  0.78124603194E+03  0.82225073048E+03  0.00000000000E+00 0. -1.
<mgrwt>
<rscale>  0 0.64316653E+03</rscale>
<asrwt>0</asrwt>
<pdfrwt beam="1">0</pdfrwt>
<pdfrwt beam="2">  1        2 0.37605824E+00 0.64316653E+03</pdfrwt>
<totfact> 0.48903489E+00</totfact>
</mgrwt>
</event>
<event>
 5    1  0.2368916E-004  0.6499392E+03  0.7818608E-02  0.9806893E-01
         13   -1    0    0    0    0  0.00000000000E+00  0.00000000000E+00  0.10000000000E+04  0.10000000000E+04  0.00000000000E+00 0. -1.
          2   -1    0    0  501    0 -0.00000000000E+00 -0.00000000000E+00 -0.10560523564E+03  0.10560523564E+03  0.00000000000E+00 0. -1.
    9000006    2    1    2  501    0  0.00000000000E+00  0.00000000000E+00  0.89439476436E+03  0.11056052356E+04  0.64993918375E+03 0.  0.
         13    1    3    3    0    0  0.12780451409E+03 -0.29878257062E+03  0.44640438317E+03  0.55216111022E+03  0.00000000000E+00 0. -1.
          4    1    3    3  501    0 -0.12780451409E+03  0.29878257062E+03  0.44799038118E+03  0.55344412542E+03  0.00000000000E+00 0. -1.
<mgrwt>
<rscale>  0 0.64993918E+03</rscale>
<asrwt>0</asrwt>
<pdfrwt beam="1">0</pdfrwt>
<pdfrwt beam="2">  1        2 0.38401985E+00 0.64993918E+03</pdfrwt>
<totfact> 0.45680962E+00</totfact>
</mgrwt>
</event>
<event>
 5    1  0.2368916E-004  0.6289908E+03  0.7818608E-02  0.9847020E-01
         13   -1    0    0    0    0  0.00000000000E+00  0.00000000000E+00  0.10000000000E+04  0.10000000000E+04  0.00000000000E+00 0. -1.
          2   -1    0    0  501    0 -0.00000000000E+00 -0.00000000000E+00 -0.98907353962E+02  0.98907353962E+02  0.00000000000E+00 0. -1.
    9000006    2    1    2  501    0  0.00000000000E+00  0.00000000000E+00  0.90109264604E+03  0.10989073540E+04  0.62899079155E+03 0.  0.
         13    1    3    3    0    0 -0.60154436945E+02 -0.22708521853E+03  0.81585697708E+03  0.84900462885E+03  0.00000000000E+00 0. -1.
          2    1    3    3  501    0  0.60154436945E+02  0.22708521853E+03  0.85235668960E+02  0.24990272512E+03  0.00000000000E+00 0. -1.
<mgrwt>
<rscale>  0 0.62899079E+03</rscale>
<asrwt>0</asrwt>
<pdfrwt beam="1">0</pdfrwt>
<pdfrwt beam="2">  1        2 0.35966386E+00 0.62899079E+03</pdfrwt>
<totfact> 0.56204142E+00</totfact>
</mgrwt>
</event>
<event>
 5    1  0.2368916E-004  0.6577362E+03  0.7818608E-02  0.9792370E-01
         13   -1    0    0    0    0  0.00000000000E+00  0.00000000000E+00  0.10000000000E+04  0.10000000000E+04  0.00000000000E+00 0. -1.
          2   -1    0    0  501    0 -0.00000000000E+00 -0.00000000000E+00 -0.10815422563E+03  0.10815422563E+03  0.00000000000E+00 0. -1.
    9000006    2    1    2  501    0  0.00000000000E+00  0.00000000000E+00  0.89184577437E+03  0.11081542256E+04  0.65773619523E+03 0.  0.
         13    1    3    3    0    0  0.33573090339E+02 -0.32394923828E+03  0.36901097704E+03  0.49217818171E+03  0.00000000000E+00 0. -1.
          2    1    3    3  501    0 -0.33573090339E+02  0.32394923828E+03  0.52283479733E+03  0.61597604392E+03  0.00000000000E+00 0. -1.
<mgrwt>
<rscale>  0 0.65773620E+03</rscale>
<asrwt>0</asrwt>
<pdfrwt beam="1">0</pdfrwt>
<pdfrwt beam="2">  1        2 0.39328892E+00 0.65773620E+03</pdfrwt>
<totfact> 0.42172682E+00</totfact>
</mgrwt>
</event>
<event>
 5    1  0.2368916E-004  0.6458688E+03  0.7818608E-02  0.9814562E-01
         13   -1    0    0    0    0  0.00000000000E+00  0.00000000000E+00  0.10000000000E+04  0.10000000000E+04  0.00000000000E+00 0. -1.
          2   -1    0    0  501    0 -0.00000000000E+00 -0.00000000000E+00 -0.10428663412E+03  0.10428663412E+03  0.00000000000E+00 0. -1.
    9000006    2    1    2  501    0  0.00000000000E+00  0.00000000000E+00  0.89571336588E+03  0.11042866341E+04  0.64586882297E+03 0.  0.
         13    1    3    3    0    0  0.98347722686E+02 -0.10534336978E+03  0.94196855168E+03  0.95292930087E+03  0.00000000000E+00 0. -1.
          2    1    3    3  501    0 -0.98347722686E+02  0.10534336978E+03 -0.46255185797E+02  0.15135733325E+03  0.00000000000E+00 0. -1.
<mgrwt>
<rscale>  0 0.64586882E+03</rscale>
<asrwt>0</asrwt>
<pdfrwt beam="1">0</pdfrwt>
<pdfrwt beam="2">  1        2 0.37922492E+00 0.64586882E+03</pdfrwt>
<totfact> 0.47597755E+00</totfact>
</mgrwt>
</event>
<event>
 5    1  0.2368916E-004  0.5197310E+03  0.7818608E-02  0.1008753E+00
         13   -1    0    0    0    0  0.00000000000E+00  0.00000000000E+00  0.10000000000E+04  0.10000000000E+04  0.00000000000E+00 0. -1.
          2   -1    0    0  501    0 -0.00000000000E+00 -0.00000000000E+00 -0.67530078526E+02  0.67530078526E+02  0.00000000000E+00 0. -1.
    9000006    2    1    2  501    0  0.00000000000E+00  0.00000000000E+00  0.93246992147E+03  0.10675300785E+04  0.51973100168E+03 0.  0.
         13    1    3    3    0    0 -0.67520298441E+02 -0.22154679779E+03  0.22417498758E+03  0.32232964395E+03  0.00000000000E+00 0. -1.
          2    1    3    3  501    0  0.67520298441E+02  0.22154679779E+03  0.70829493389E+03  0.74520043457E+03  0.00000000000E+00 0. -1.
<mgrwt>
<rscale>  0 0.51973100E+03</rscale>
<asrwt>0</asrwt>
<pdfrwt beam="1">0</pdfrwt>
<pdfrwt beam="2">  1        2 0.24556444E+00 0.51973100E+03</pdfrwt>
<totfact> 0.14461564E+01</totfact>
</mgrwt>
</event>
<event>
 5    1  0.2368916E-004  0.6585401E+03  0.7818608E-02  0.9790885E-01
         13   -1    0    0    0    0  0.00000000000E+00  0.00000000000E+00  0.10000000000E+04  0.10000000000E+04  0.00000000000E+00 0. -1.
          2   -1    0    0  501    0 -0.00000000000E+00 -0.00000000000E+00 -0.10841875991E+03  0.10841875991E+03  0.00000000000E+00 0. -1.
    9000006    2    1    2  501    0  0.00000000000E+00  0.00000000000E+00  0.89158124009E+03  0.11084187599E+04  0.65854008203E+03 0.  0.
         13    1    3    3    0    0  0.24206175793E+03  0.16124685173E+03  0.18599495906E+03  0.34523697172E+03  0.00000000000E+00 0. -1.
          2    1    3    3  501    0 -0.24206175793E+03 -0.16124685173E+03  0.70558628103E+03  0.76318178819E+03  0.00000000000E+00 0. -1.
<mgrwt>
<rscale>  0 0.65854008E+03</rscale>
<asrwt>0</asrwt>
<pdfrwt beam="1">0</pdfrwt>
<pdfrwt beam="2">  1        2 0.39425087E+00 0.65854008E+03</pdfrwt>
<totfact> 0.41822923E+00</totfact>
</mgrwt>
</event>
<event>
 5    1  0.2368916E-004  0.6598709E+03  0.7818608E-02  0.9788431E-01
         13   -1    0    0    0    0  0.00000000000E+00  0.00000000000E+00  0.10000000000E+04  0.10000000000E+04  0.00000000000E+00 0. -1.
          2   -1    0    0  501    0 -0.00000000000E+00 -0.00000000000E+00 -0.10885741250E+03  0.10885741250E+03  0.00000000000E+00 0. -1.
    9000006    2    1    2  501    0  0.00000000000E+00  0.00000000000E+00  0.89114258750E+03  0.11088574125E+04  0.65987093434E+03 0.  0.
         13    1    3    3    0    0 -0.20782249925E+02  0.24755357080E+03  0.81042949769E+03  0.84765007111E+03  0.00000000000E+00 0. -1.
          4    1    3    3  501    0  0.20782249925E+02 -0.24755357080E+03  0.80713089807E+02  0.26120734138E+03  0.00000000000E+00 0. -1.
<mgrwt>
<rscale>  0 0.65987093E+03</rscale>
<asrwt>0</asrwt>
<pdfrwt beam="1">0</pdfrwt>
<pdfrwt beam="2">  1        2 0.39584597E+00 0.65987093E+03</pdfrwt>
<totfact> 0.41248737E+00</totfact>
</mgrwt>
</event>
<event>
 5    1  0.2368916E-004  0.6614335E+03  0.7818608E-02  0.9785559E-01
         13   -1    0    0    0    0  0.00000000000E+00  0.00000000000E+00  0.10000000000E+04  0.10000000000E+04  0.00000000000E+00 0. -1.
          2   -1    0    0  501    0 -0.00000000000E+00 -0.00000000000E+00 -0.10937355613E+03  0.10937355613E+03  0.00000000000E+00 0. -1.
    9000006    2    1    2  501    0  0.00000000000E+00  0.00000000000E+00  0.89062644387E+03  0.11093735561E+04  0.66143346191E+03 0.  0.
         13    1    3    3    0    0  0.29513871211E+03 -0.36653560287E+02  0.68792162451E+03  0.74945747333E+03  0.00000000000E+00 0. -1.
          2    1    3    3  501    0 -0.29513871211E+03  0.36653560287E+02  0.20270481936E+03  0.35991608280E+03  0.00000000000E+00 0. -1.
<mgrwt>
<rscale>  0 0.66143346E+03</rscale>
<asrwt>0</asrwt>
<pdfrwt beam="1">0</pdfrwt>
<pdfrwt beam="2">  1        2 0.39772286E+00 0.66143346E+03</pdfrwt>
<totfact> 0.40582215E+00</totfact>
</mgrwt>
</event>
<event>
 5    1  0.2368916E-004  0.6506139E+03  0.7818608E-02  0.9805628E-01
         13   -1    0    0    0    0  0.00000000000E+00  0.00000000000E+00  0.10000000000E+04  0.10000000000E+04  0.00000000000E+00 0. -1.
          2   -1    0    0  501    0 -0.00000000000E+00 -0.00000000000E+00 -0.10582460733E+03  0.10582460733E+03  0.00000000000E+00 0. -1.
    9000006    2    1    2  501    0  0.00000000000E+00  0.00000000000E+00  0.89417539267E+03  0.11058246073E+04  0.65061388651E+03 0.  0.
         13    1    3    3    0    0  0.26661592900E+03 -0.28792299432E+02  0.13409313737E+03  0.29982331395E+03  0.00000000000E+00 0. -1.
          4    1    3    3  501    0 -0.26661592900E+03  0.28792299432E+02  0.76008225530E+03  0.80600129338E+03  0.00000000000E+00 0. -1.
<mgrwt>
<rscale>  0 0.65061389E+03</rscale>
<asrwt>0</asrwt>
<pdfrwt beam="1">0</pdfrwt>
<pdfrwt beam="2">  1        2 0.38481757E+00 0.65061389E+03</pdfrwt>
<totfact> 0.45368962E+00</totfact>
</mgrwt>
</event>
<event>
 5    1  0.2368916E-004  0.6584707E+03  0.7818608E-02  0.9791013E-01
         13   -1    0    0    0    0  0.00000000000E+00  0.00000000000E+00  0.10000000000E+04  0.10000000000E+04  0.00000000000E+00 0. -1.
          2   -1    0    0  501    0 -0.00000000000E+00 -0.00000000000E+00 -0.10839592688E+03  0.10839592688E+03  0.00000000000E+00 0. -1.
    9000006    2    1    2  501    0  0.00000000000E+00  0.00000000000E+00  0.89160407312E+03  0.11083959269E+04  0.65847073400E+03 0.  0.
         13    1    3    3    0    0 -0.16584840555E+03  0.28296688024E+03  0.49400342297E+03  0.59297161049E+03  0.00000000000E+00 0. -1.
          4    1    3    3  501    0  0.16584840555E+03 -0.28296688024E+03  0.39760065014E+03  0.51542431639E+03  0.00000000000E+00 0. -1.
<mgrwt>
<rscale>  0 0.65847073E+03</rscale>
<asrwt>0</asrwt>
<pdfrwt beam="1">0</pdfrwt>
<pdfrwt beam="2">  1        2 0.39416784E+00 0.65847073E+03</pdfrwt>
<totfact> 0.41853007E+00</totfact>
</mgrwt>
</event>
